Title t= 334.00000 step= 167000
44463
    1GLY      N    1   2.899   3.084   3.534
    1GLY    HT1    2   2.951   3.003   3.493
    1GLY    HT2    3   2.949   3.141   3.605
    1GLY    HT3    4   2.876   3.138   3.448
    1GLY     CA    5   2.773   3.028   3.584
    1GLY    HA1    6   2.719   3.003   3.494
    1GLY    HA2    7   2.731   3.115   3.634
    1GLY      C    8   2.775   2.905   3.666
    1GLY      O    9   2.882   2.851   3.694
    2PRO      N   10   2.657   2.856   3.698
    2PRO     CD   11   2.529   2.925   3.661
    2PRO    HD1   12   2.508   2.921   3.552
    2PRO    HD2   13   2.528   3.031   3.693
    2PRO     CA   14   2.625   2.747   3.785
    2PRO     HA   15   2.628   2.783   3.886
    2PRO     CB   16   2.485   2.700   3.749
    2PRO    HB1   17   2.440   2.636   3.828
    2PRO    HB2   18   2.483   2.650   3.650
    2PRO     CG   19   2.422   2.837   3.730
    2PRO    HG1   20   2.333   2.825   3.665
    2PRO    HG2   21   2.393   2.876   3.830
    2PRO      C   22   2.728   2.626   3.785
    2PRO      O   23   2.779   2.596   3.677
    3GLY      N   24   2.756   2.569   3.909
    3GLY     HN   25   2.707   2.609   3.986
    3GLY     CA   26   2.844   2.459   3.938
    3GLY    HA1   27   2.821   2.426   4.039
    3GLY    HA2   28   2.947   2.490   3.932
    3GLY      C   29   2.834   2.335   3.849
    3GLY      O   30   2.742   2.321   3.774
    4ASP      N   31   2.938   2.251   3.853
    4ASP     HN   32   3.018   2.281   3.905
    4ASP     CA   33   2.946   2.127   3.772
    4ASP     HA   34   2.861   2.112   3.708
    4ASP     CB   35   3.067   2.128   3.675
    4ASP    HB1   36   3.065   2.028   3.628
    4ASP    HB2   37   3.167   2.137   3.723
    4ASP     CG   38   3.059   2.232   3.567
    4ASP    OD1   39   3.163   2.298   3.537
    4ASP    OD2   40   2.956   2.244   3.499
    4ASP      C   41   2.974   2.013   3.875
    4ASP      O   42   3.024   2.043   3.979
    5PRO      N   43   2.926   1.895   3.853
    5PRO     CD   44   2.838   1.852   3.740
    5PRO    HD1   45   2.905   1.838   3.652
    5PRO    HD2   46   2.762   1.929   3.714
    5PRO     CA   47   2.933   1.796   3.959
    5PRO     HA   48   2.852   1.829   4.022
    5PRO     CB   49   2.875   1.671   3.888
    5PRO    HB1   50   2.825   1.596   3.953
    5PRO    HB2   51   2.960   1.629   3.829
    5PRO     CG   52   2.768   1.731   3.791
    5PRO    HG1   53   2.750   1.656   3.710
    5PRO    HG2   54   2.673   1.763   3.837
    5PRO      C   55   3.063   1.767   4.030
    5PRO      O   56   3.153   1.721   3.966
    6GLY      N   57   3.064   1.790   4.164
    6GLY     HN   58   2.982   1.824   4.209
    6GLY     CA   59   3.185   1.775   4.250
    6GLY    HA1   60   3.167   1.818   4.347
    6GLY    HA2   61   3.264   1.822   4.193
    6GLY      C   62   3.226   1.634   4.280
    6GLY      O   63   3.172   1.544   4.218
    7PRO      N   64   3.320   1.605   4.378
    7PRO     CD   65   3.413   1.701   4.439
    7PRO    HD1   66   3.357   1.774   4.501
    7PRO    HD2   67   3.478   1.760   4.371
    7PRO     CA   68   3.360   1.468   4.423
    7PRO     HA   69   3.414   1.431   4.337
    7PRO     CB   70   3.462   1.490   4.541
    7PRO    HB1   71   3.533   1.406   4.553
    7PRO    HB2   72   3.411   1.500   4.639
    7PRO     CG   73   3.524   1.623   4.516
    7PRO    HG1   74   3.548   1.677   4.610
    7PRO    HG2   75   3.621   1.627   4.463
    7PRO      C   76   3.255   1.363   4.455
    7PRO      O   77   3.145   1.399   4.500
    8GLY      N   78   3.278   1.233   4.418
    8GLY     HN   79   3.372   1.208   4.396
    8GLY     CA   80   3.178   1.125   4.429
    8GLY    HA1   81   3.114   1.130   4.516
    8GLY    HA2   82   3.228   1.029   4.431
    8GLY      C   83   3.073   1.127   4.317
    8GLY      O   84   3.084   1.207   4.232
    9ASP      N   85   2.978   1.033   4.307
    9ASP     HN   86   2.983   0.964   4.378
    9ASP     CA   87   2.907   1.000   4.180
    9ASP     HA   88   2.980   0.987   4.101
    9ASP     CB   89   2.839   0.861   4.192
    9ASP    HB1   90   2.800   0.831   4.093
    9ASP    HB2   91   2.762   0.862   4.272
    9ASP     CG   92   2.940   0.760   4.216
    9ASP    OD1   93   3.053   0.756   4.164
    9ASP    OD2   94   2.904   0.652   4.274
    9ASP      C   95   2.809   1.106   4.129
    9ASP      O   96   2.727   1.147   4.213
   10PRO      N   97   2.820   1.169   4.008
   10PRO     CD   98   2.939   1.176   3.930
   10PRO    HD1   99   2.970   1.076   3.894
   10PRO    HD2  100   3.025   1.211   3.993
   10PRO     CA  101   2.713   1.236   3.935
   10PRO     HA  102   2.705   1.329   3.989
   10PRO     CB  103   2.765   1.260   3.797
   10PRO    HB1  104   2.726   1.352   3.748
   10PRO    HB2  105   2.742   1.173   3.733
   10PRO     CG  106   2.915   1.287   3.829
   10PRO    HG1  107   2.976   1.280   3.737
   10PRO    HG2  108   2.935   1.387   3.875
   10PRO      C  109   2.577   1.176   3.949
   10PRO      O  110   2.559   1.054   3.950
   11GLY      N  111   2.469   1.253   3.973
   11GLY     HN  112   2.488   1.351   3.974
   11GLY     CA  113   2.342   1.200   4.004
   11GLY    HA1  114   2.326   1.095   3.987
   11GLY    HA2  115   2.293   1.254   3.925
   11GLY      C  116   2.294   1.248   4.140
   11GLY      O  117   2.378   1.295   4.221
   12PRO      N  118   2.164   1.254   4.169
   12PRO     CD  119   2.057   1.220   4.078
   12PRO    HD1  120   2.043   1.111   4.066
   12PRO    HD2  121   2.087   1.266   3.981
   12PRO     CA  122   2.115   1.291   4.300
   12PRO     HA  123   2.142   1.394   4.314
   12PRO     CB  124   1.957   1.263   4.284
   12PRO    HB1  125   1.892   1.323   4.351
   12PRO    HB2  126   1.938   1.156   4.303
   12PRO     CG  127   1.928   1.284   4.140
   12PRO    HG1  128   1.835   1.229   4.112
   12PRO    HG2  129   1.923   1.393   4.116
   12PRO      C  130   2.176   1.214   4.418
   12PRO      O  131   2.214   1.095   4.404
   13GLY      N  132   2.186   1.279   4.534
   13GLY     HN  133   2.150   1.371   4.540
   13GLY     CA  134   2.233   1.225   4.666
   13GLY    HA1  135   2.228   1.295   4.748
   13GLY    HA2  136   2.334   1.187   4.654
   13GLY      C  137   2.141   1.120   4.714
   13GLY      O  138   2.020   1.121   4.683
   14ASP      N  139   2.199   1.013   4.779
   14ASP     HN  140   2.298   1.006   4.767
   14ASP     CA  141   2.119   0.919   4.864
   14ASP     HA  142   2.073   0.849   4.796
   14ASP     CB  143   2.203   0.844   4.961
   14ASP    HB1  144   2.131   0.776   5.012
   14ASP    HB2  145   2.255   0.907   5.036
   14ASP     CG  146   2.316   0.769   4.894
   14ASP    OD1  147   2.304   0.722   4.781
   14ASP    OD2  148   2.423   0.741   4.957
   14ASP      C  149   2.007   0.992   4.947
   14ASP      O  150   2.039   1.088   5.010
   15PRO      N  151   1.880   0.943   4.958
   15PRO     CD  152   1.824   0.836   4.873
   15PRO    HD1  153   1.840   0.735   4.915
   15PRO    HD2  154   1.870   0.824   4.772
   15PRO     CA  155   1.772   0.994   5.042
   15PRO     HA  156   1.755   1.099   5.021
   15PRO     CB  157   1.650   0.914   5.017
   15PRO    HB1  158   1.561   0.980   5.013
   15PRO    HB2  159   1.640   0.829   5.089
   15PRO     CG  160   1.677   0.856   4.872
   15PRO    HG1  161   1.621   0.761   4.861
   15PRO    HG2  162   1.650   0.931   4.794
   15PRO      C  163   1.808   0.975   5.186
   15PRO    OT1  164   1.848   0.868   5.236
   15PRO    OT2  165   1.796   1.076   5.264
   16LIT    LIT  166   1.757   0.919   5.388
   17LIT    LIT  167   2.510   2.179   6.054
   18LIT    LIT  168   2.642   6.560   1.672
   19LIT    LIT  169   5.379   5.328   2.702
   20LIT    LIT  170   2.104   7.051   3.376
   21LIT    LIT  171   0.358   2.973   3.302
   22LIT    LIT  172   1.141   1.431   4.169
   23LIT    LIT  173   1.624   3.520   2.620
   24LIT    LIT  174   0.364   2.299   6.322
   25LIT    LIT  175   6.096   0.074   3.724
   26LIT    LIT  176   7.276   2.832   3.010
   27LIT    LIT  177   2.194   4.321   6.395
   28LIT    LIT  178   3.942   1.442   4.551
   29LIT    LIT  179   2.462   6.028   0.632
   30LIT    LIT  180   1.584   0.123   6.782
   31LIT    LIT  181   4.161   1.613   0.016
   32LIT    LIT  182   4.835   4.070   0.783
   33LIT    LIT  183   7.307   2.579   0.629
   34LIT    LIT  184   3.734   6.672   2.705
   35LIT    LIT  185   3.794   7.312   6.541
   36LIT    LIT  186   4.074   0.135   3.505
   37LIT    LIT  187   1.574   6.744   0.442
   38LIT    LIT  188   7.494   0.170   4.969
   39LIT    LIT  189   0.069   7.415   3.425
   40LIT    LIT  190   0.753   1.036   2.970
   41LIT    LIT  191   4.372   0.565   4.827
   42LIT    LIT  192   6.524   1.541   0.341
   43LIT    LIT  193   4.033   2.531   0.977
   44LIT    LIT  194   6.957   1.119   5.632
   45LIT    LIT  195   7.370   6.210   2.699
   46LIT    LIT  196   8.210   4.982   1.654
   47LIT    LIT  197   1.547   4.917   2.656
   48LIT    LIT  198   6.525   1.946   3.542
   49LIT    LIT  199   1.040   0.112   6.494
   50LIT    LIT  200   7.772   1.383   4.370
   51LIT    LIT  201   2.326   0.245   3.775
   52LIT    LIT  202   4.366   2.120   6.538
   53LIT    LIT  203   0.285   4.462   1.236
   54LIT    LIT  204   0.391   3.177   2.114
   55LIT    LIT  205   0.133   0.095   3.472
   56LIT    LIT  206   7.522   0.802   2.111
   57LIT    LIT  207   6.662   5.141   1.127
   58LIT    LIT  208   2.466   0.619   4.815
   59LIT    LIT  209   0.918   5.759   4.399
   60LIT    LIT  210   2.322   4.564   4.174
   61CLA    CLA  211   0.430   6.781   2.392
   62CLA    CLA  212   1.685   4.422   4.506
   63CLA    CLA  213   0.921   1.820   4.153
   64CLA    CLA  214   5.506   2.982   0.426
   65CLA    CLA  215   8.086   0.878   1.989
   66CLA    CLA  216   0.741   1.142   4.003
   67CLA    CLA  217   1.297   0.113   5.904
   68CLA    CLA  218   6.219   0.602   3.815
   69CLA    CLA  219   1.714   1.499   5.574
   70CLA    CLA  220   4.429   4.639   5.077
   71CLA    CLA  221   5.826   0.872   0.048
   72CLA    CLA  222   3.450   5.773   1.174
   73CLA    CLA  223   0.752   3.460   2.004
   74CLA    CLA  224   0.059   5.976   4.440
   75CLA    CLA  225   5.934   0.419   5.305
   76CLA    CLA  226   4.172   2.264   1.286
   77CLA    CLA  227   2.839   4.509   4.510
   78CLA    CLA  228   4.908   5.524   1.441
   79CLA    CLA  229   5.084   1.583   5.208
   80CLA    CLA  230   7.872   4.623   1.753
   81CLA    CLA  231   4.770   6.527   5.419
   82CLA    CLA  232   0.447   0.801   5.629
   83CLA    CLA  233   3.334   4.219   0.625
   84CLA    CLA  234   1.191   0.762   0.811
   85CLA    CLA  235   3.345   5.669   5.290
   86CLA    CLA  236   7.437   4.730   3.113
   87CLA    CLA  237   2.597   6.726   2.152
   88CLA    CLA  238   4.978   5.514   0.980
   89CLA    CLA  239   6.177   3.621   5.390
   90CLA    CLA  240   0.929   5.751   6.734
   91CLA    CLA  241   3.589   4.305   2.301
   92CLA    CLA  242   5.674   6.926   6.454
   93CLA    CLA  243   4.204   1.549   4.196
   94CLA    CLA  244   2.096   2.428   6.587
   95CLA    CLA  245   2.095   6.581   3.506
   96CLA    CLA  246   0.588   1.526   2.322
   97CLA    CLA  247   7.770   1.711   3.861
   98CLA    CLA  248   1.421   5.851   5.614
   99CLA    CLA  249   7.472   2.681   0.764
  100CLA    CLA  250   3.063   3.243   3.763
  101CLA    CLA  251   0.588   2.940   3.298
  102CLA    CLA  252   1.485   0.354   4.816
  103TIP3   OH2  253   3.179   6.698   3.696
  103TIP3    H1  254   3.184   6.706   3.601
  103TIP3    H2  255   3.136   6.778   3.725
  104TIP3   OH2  256   5.058   5.212   5.627
  104TIP3    H1  257   5.117   5.147   5.667
  104TIP3    H2  258   5.043   5.276   5.697
  105TIP3   OH2  259   7.961   1.183   3.406
  105TIP3    H1  260   7.893   1.115   3.407
  105TIP3    H2  261   8.023   1.152   3.340
  106TIP3   OH2  262   6.969   5.908   1.605
  106TIP3    H1  263   6.885   5.863   1.617
  106TIP3    H2  264   6.947   5.985   1.552
  107TIP3   OH2  265   1.725   3.956   1.524
  107TIP3    H1  266   1.638   3.951   1.564
  107TIP3    H2  267   1.738   4.050   1.506
  108TIP3   OH2  268   1.127   6.630   0.250
  108TIP3    H1  269   1.151   6.678   0.329
  108TIP3    H2  270   1.119   6.539   0.279
  109TIP3   OH2  271   6.289   6.342   2.500
  109TIP3    H1  272   6.343   6.419   2.482
  109TIP3    H2  273   6.300   6.287   2.423
  110TIP3   OH2  274   4.483   6.632   5.349
  110TIP3    H1  275   4.430   6.641   5.428
  110TIP3    H2  276   4.561   6.584   5.377
  111TIP3   OH2  277   7.714   4.286   5.285
  111TIP3    H1  278   7.618   4.276   5.281
  111TIP3    H2  279   7.747   4.211   5.235
  112TIP3   OH2  280   3.427   2.802   6.661
  112TIP3    H1  281   3.378   2.878   6.692
  112TIP3    H2  282   3.376   2.727   6.692
  113TIP3   OH2  283   7.797   3.817   6.208
  113TIP3    H1  284   7.811   3.852   6.295
  113TIP3    H2  285   7.718   3.763   6.216
  114TIP3   OH2  286   6.672   6.542   1.645
  114TIP3    H1  287   6.725   6.513   1.720
  114TIP3    H2  288   6.598   6.589   1.685
  115TIP3   OH2  289   5.529   7.464   4.521
  115TIP3    H1  290   5.550   7.409   4.446
  115TIP3    H2  291   5.568   7.549   4.499
  116TIP3   OH2  292   2.746   2.598   4.657
  116TIP3    H1  293   2.736   2.651   4.578
  116TIP3    H2  294   2.782   2.659   4.722
  117TIP3   OH2  295   6.278   4.382   3.987
  117TIP3    H1  296   6.245   4.466   3.957
  117TIP3    H2  297   6.316   4.401   4.073
  118TIP3   OH2  298   2.513   5.514   6.625
  118TIP3    H1  299   2.446   5.582   6.629
  118TIP3    H2  300   2.570   5.533   6.700
  119TIP3   OH2  301   1.235   7.805   2.381
  119TIP3    H1  302   1.319   7.844   2.408
  119TIP3    H2  303   1.172   7.838   2.445
  120TIP3   OH2  304   8.090   0.938   6.626
  120TIP3    H1  305   8.003   0.977   6.622
  120TIP3    H2  306   8.135   0.987   6.696
  121TIP3   OH2  307   0.808   0.698   6.359
  121TIP3    H1  308   0.836   0.723   6.447
  121TIP3    H2  309   0.713   0.694   6.364
  122TIP3   OH2  310   7.200   7.611   5.214
  122TIP3    H1  311   7.246   7.601   5.297
  122TIP3    H2  312   7.205   7.525   5.173
  123TIP3   OH2  313   4.677   4.967   2.019
  123TIP3    H1  314   4.696   4.906   1.948
  123TIP3    H2  315   4.618   4.919   2.077
  124TIP3   OH2  316   7.867   5.898   3.295
  124TIP3    H1  317   7.908   5.959   3.356
  124TIP3    H2  318   7.775   5.894   3.324
  125TIP3   OH2  319   0.359   4.428   4.358
  125TIP3    H1  320   0.286   4.473   4.315
  125TIP3    H2  321   0.337   4.430   4.451
  126TIP3   OH2  322   0.925   2.227   0.473
  126TIP3    H1  323   0.876   2.167   0.417
  126TIP3    H2  324   1.017   2.203   0.459
  127TIP3   OH2  325   3.824   7.442   0.277
  127TIP3    H1  326   3.828   7.347   0.270
  127TIP3    H2  327   3.913   7.472   0.258
  128TIP3   OH2  328   1.934   1.422   1.055
  128TIP3    H1  329   1.976   1.505   1.034
  128TIP3    H2  330   1.851   1.447   1.095
  129TIP3   OH2  331   4.476   3.658   6.804
  129TIP3    H1  332   4.552   3.672   6.747
  129TIP3    H2  333   4.443   3.572   6.778
  130TIP3   OH2  334   7.081   3.342   2.751
  130TIP3    H1  335   7.107   3.416   2.807
  130TIP3    H2  336   7.120   3.266   2.793
  131TIP3   OH2  337   2.995   2.882   0.907
  131TIP3    H1  338   2.943   2.961   0.894
  131TIP3    H2  339   3.044   2.899   0.988
  132TIP3   OH2  340   4.323   3.510   3.725
  132TIP3    H1  341   4.338   3.490   3.633
  132TIP3    H2  342   4.357   3.599   3.736
  133TIP3   OH2  343   2.426   7.089   6.053
  133TIP3    H1  344   2.343   7.137   6.042
  133TIP3    H2  345   2.483   7.151   6.099
  134TIP3   OH2  346   1.802   0.302   4.262
  134TIP3    H1  347   1.870   0.235   4.273
  134TIP3    H2  348   1.799   0.348   4.346
  135TIP3   OH2  349   6.345   7.761   5.922
  135TIP3    H1  350   6.295   7.765   5.841
  135TIP3    H2  351   6.348   7.668   5.944
  136TIP3   OH2  352   0.302   3.287   1.988
  136TIP3    H1  353   0.210   3.273   1.966
  136TIP3    H2  354   0.311   3.382   1.995
  137TIP3   OH2  355   3.835   4.401   0.025
  137TIP3    H1  356   3.881   4.321   0.049
  137TIP3    H2  357   3.752   4.397   0.074
  138TIP3   OH2  358   1.854   4.078   5.669
  138TIP3    H1  359   1.768   4.037   5.657
  138TIP3    H2  360   1.900   4.060   5.587
  139TIP3   OH2  361   7.973   4.655   0.370
  139TIP3    H1  362   8.018   4.739   0.382
  139TIP3    H2  363   8.003   4.602   0.444
  140TIP3   OH2  364   1.240   7.509   1.976
  140TIP3    H1  365   1.228   7.604   1.983
  140TIP3    H2  366   1.216   7.475   2.063
  141TIP3   OH2  367   3.320   5.020   1.339
  141TIP3    H1  368   3.355   5.109   1.344
  141TIP3    H2  369   3.366   4.980   1.265
  142TIP3   OH2  370   4.109   5.456   2.982
  142TIP3    H1  371   4.107   5.393   2.910
  142TIP3    H2  372   4.032   5.511   2.968
  143TIP3   OH2  373   5.608   2.322   6.073
  143TIP3    H1  374   5.514   2.321   6.091
  143TIP3    H2  375   5.638   2.408   6.104
  144TIP3   OH2  376   0.284   6.297   2.835
  144TIP3    H1  377   0.214   6.280   2.771
  144TIP3    H2  378   0.286   6.219   2.890
  145TIP3   OH2  379   7.815   4.786   5.735
  145TIP3    H1  380   7.774   4.712   5.780
  145TIP3    H2  381   7.747   4.853   5.733
  146TIP3   OH2  382   6.766   4.879   1.715
  146TIP3    H1  383   6.768   4.940   1.789
  146TIP3    H2  384   6.674   4.854   1.707
  147TIP3   OH2  385   1.312   3.870   3.703
  147TIP3    H1  386   1.359   3.914   3.773
  147TIP3    H2  387   1.272   3.941   3.652
  148TIP3   OH2  388   7.765   4.415   0.612
  148TIP3    H1  389   7.823   4.423   0.687
  148TIP3    H2  390   7.793   4.335   0.568
  149TIP3   OH2  391   8.007   0.549   6.032
  149TIP3    H1  392   8.044   0.602   5.962
  149TIP3    H2  393   7.970   0.472   5.988
  150TIP3   OH2  394   5.450   7.586   3.184
  150TIP3    H1  395   5.478   7.668   3.144
  150TIP3    H2  396   5.531   7.539   3.202
  151TIP3   OH2  397   1.588   3.542   5.394
  151TIP3    H1  398   1.624   3.565   5.480
  151TIP3    H2  399   1.497   3.517   5.412
  152TIP3   OH2  400   7.189   4.972   6.347
  152TIP3    H1  401   7.243   5.001   6.273
  152TIP3    H2  402   7.112   5.028   6.343
  153TIP3   OH2  403   7.184   6.346   2.167
  153TIP3    H1  404   7.098   6.303   2.173
  153TIP3    H2  405   7.246   6.279   2.196
  154TIP3   OH2  406   0.716   0.683   4.612
  154TIP3    H1  407   0.701   0.692   4.706
  154TIP3    H2  408   0.707   0.772   4.578
  155TIP3   OH2  409   6.056   5.671   0.660
  155TIP3    H1  410   6.033   5.759   0.689
  155TIP3    H2  411   6.006   5.613   0.717
  156TIP3   OH2  412   8.089   3.257   4.495
  156TIP3    H1  413   8.159   3.273   4.432
  156TIP3    H2  414   8.126   3.194   4.557
  157TIP3   OH2  415   0.243   3.126   0.501
  157TIP3    H1  416   0.290   3.166   0.573
  157TIP3    H2  417   0.301   3.057   0.470
  158TIP3   OH2  418   0.960   2.358   0.708
  158TIP3    H1  419   1.050   2.338   0.730
  158TIP3    H2  420   0.949   2.326   0.618
  159TIP3   OH2  421   6.521   7.620   1.664
  159TIP3    H1  422   6.437   7.659   1.689
  159TIP3    H2  423   6.505   7.526   1.667
  160TIP3   OH2  424   3.524   3.791   2.396
  160TIP3    H1  425   3.431   3.813   2.392
  160TIP3    H2  426   3.568   3.874   2.416
  161TIP3   OH2  427   7.824   6.453   5.435
  161TIP3    H1  428   7.737   6.493   5.433
  161TIP3    H2  429   7.884   6.525   5.416
  162TIP3   OH2  430   2.515   6.154   6.583
  162TIP3    H1  431   2.444   6.218   6.584
  162TIP3    H2  432   2.519   6.119   6.672
  163TIP3   OH2  433   7.150   2.894   2.869
  163TIP3    H1  434   7.066   2.922   2.906
  163TIP3    H2  435   7.186   2.973   2.829
  164TIP3   OH2  436   5.212   2.102   5.617
  164TIP3    H1  437   5.230   2.121   5.525
  164TIP3    H2  438   5.248   2.014   5.631
  165TIP3   OH2  439   4.662   4.060   2.891
  165TIP3    H1  440   4.695   4.078   2.803
  165TIP3    H2  441   4.739   4.032   2.940
  166TIP3   OH2  442   1.692   3.841   6.642
  166TIP3    H1  443   1.659   3.836   6.553
  166TIP3    H2  444   1.741   3.760   6.655
  167TIP3   OH2  445   6.390   2.082   5.942
  167TIP3    H1  446   6.339   2.001   5.942
  167TIP3    H2  447   6.480   2.054   5.930
  168TIP3   OH2  448   0.045   6.946   1.657
  168TIP3    H1  449   0.090   6.986   1.582
  168TIP3    H2  450   0.042   6.853   1.636
  169TIP3   OH2  451   6.887   2.403   4.644
  169TIP3    H1  452   6.931   2.450   4.573
  169TIP3    H2  453   6.869   2.470   4.709
  170TIP3   OH2  454   4.541   1.110   0.239
  170TIP3    H1  455   4.519   1.100   0.146
  170TIP3    H2  456   4.593   1.033   0.259
  171TIP3   OH2  457   4.134   2.944   6.620
  171TIP3    H1  458   4.102   3.019   6.570
  171TIP3    H2  459   4.210   2.914   6.571
  172TIP3   OH2  460   3.881   0.457   1.981
  172TIP3    H1  461   3.793   0.423   1.966
  172TIP3    H2  462   3.879   0.492   2.070
  173TIP3   OH2  463   2.891   3.613   5.859
  173TIP3    H1  464   2.922   3.523   5.849
  173TIP3    H2  465   2.953   3.665   5.809
  174TIP3   OH2  466   0.484   5.016   3.007
  174TIP3    H1  467   0.511   4.969   3.085
  174TIP3    H2  468   0.506   5.107   3.025
  175TIP3   OH2  469   2.936   6.493   4.805
  175TIP3    H1  470   2.993   6.566   4.828
  175TIP3    H2  471   2.923   6.502   4.710
  176TIP3   OH2  472   3.436   3.808   3.960
  176TIP3    H1  473   3.420   3.808   4.054
  176TIP3    H2  474   3.396   3.727   3.928
  177TIP3   OH2  475   2.320   6.678   4.204
  177TIP3    H1  476   2.393   6.703   4.259
  177TIP3    H2  477   2.360   6.633   4.129
  178TIP3   OH2  478   5.571   6.619   2.031
  178TIP3    H1  479   5.552   6.536   2.073
  178TIP3    H2  480   5.578   6.598   1.938
  179TIP3   OH2  481   8.325   4.463   4.762
  179TIP3    H1  482   8.315   4.550   4.802
  179TIP3    H2  483   8.237   4.426   4.761
  180TIP3   OH2  484   1.586   0.165   5.021
  180TIP3    H1  485   1.538   0.082   5.025
  180TIP3    H2  486   1.546   0.213   4.949
  181TIP3   OH2  487   2.240   0.639   1.799
  181TIP3    H1  488   2.283   0.725   1.800
  181TIP3    H2  489   2.236   0.615   1.706
  182TIP3   OH2  490   1.025   5.404   1.467
  182TIP3    H1  491   1.120   5.411   1.462
  182TIP3    H2  492   1.007   5.312   1.447
  183TIP3   OH2  493   6.616   1.427   0.217
  183TIP3    H1  494   6.611   1.424   0.121
  183TIP3    H2  495   6.644   1.339   0.242
  184TIP3   OH2  496   7.627   6.470   2.905
  184TIP3    H1  497   7.633   6.427   2.820
  184TIP3    H2  498   7.571   6.412   2.957
  185TIP3   OH2  499   4.982   3.124   0.534
  185TIP3    H1  500   5.044   3.195   0.549
  185TIP3    H2  501   4.920   3.131   0.607
  186TIP3   OH2  502   5.776   0.220   6.196
  186TIP3    H1  503   5.753   0.152   6.133
  186TIP3    H2  504   5.733   0.194   6.277
  187TIP3   OH2  505   2.292   5.056   5.262
  187TIP3    H1  506   2.373   5.007   5.248
  187TIP3    H2  507   2.312   5.145   5.233
  188TIP3   OH2  508   3.670   0.571   5.125
  188TIP3    H1  509   3.739   0.542   5.184
  188TIP3    H2  510   3.647   0.492   5.075
  189TIP3   OH2  511   5.940   1.275   0.132
  189TIP3    H1  512   5.867   1.283   0.071
  189TIP3    H2  513   5.908   1.215   0.200
  190TIP3   OH2  514   0.108  -0.021   1.378
  190TIP3    H1  515   0.031   0.034   1.397
  190TIP3    H2  516   0.084  -0.069   1.299
  191TIP3   OH2  517   7.096   7.073   1.038
  191TIP3    H1  518   7.098   6.978   1.027
  191TIP3    H2  519   7.014   7.100   0.996
  192TIP3   OH2  520   4.399   4.666   5.586
  192TIP3    H1  521   4.330   4.718   5.544
  192TIP3    H2  522   4.470   4.728   5.603
  193TIP3   OH2  523   7.369   7.056   1.240
  193TIP3    H1  524   7.280   7.032   1.266
  193TIP3    H2  525   7.359   7.142   1.199
  194TIP3   OH2  526   6.186   2.568   3.738
  194TIP3    H1  527   6.111   2.552   3.680
  194TIP3    H2  528   6.201   2.483   3.780
  195TIP3   OH2  529   0.969   1.848   0.847
  195TIP3    H1  530   0.991   1.931   0.804
  195TIP3    H2  531   0.889   1.819   0.804
  196TIP3   OH2  532   0.078   2.522   1.383
  196TIP3    H1  533   0.168   2.492   1.398
  196TIP3    H2  534   0.074   2.542   1.289
  197TIP3   OH2  535   7.491   1.660   2.585
  197TIP3    H1  536   7.541   1.695   2.512
  197TIP3    H2  537   7.402   1.649   2.550
  198TIP3   OH2  538   5.947   5.315   1.673
  198TIP3    H1  539   5.875   5.257   1.649
  198TIP3    H2  540   5.905   5.395   1.704
  199TIP3   OH2  541   5.646   4.899   6.299
  199TIP3    H1  542   5.584   4.969   6.322
  199TIP3    H2  543   5.714   4.944   6.249
  200TIP3   OH2  544   4.063   4.616   3.749
  200TIP3    H1  545   4.123   4.604   3.822
  200TIP3    H2  546   3.976   4.595   3.785
  201TIP3   OH2  547   6.774   5.661   6.188
  201TIP3    H1  548   6.753   5.719   6.114
  201TIP3    H2  549   6.729   5.579   6.167
  202TIP3   OH2  550   7.110   5.832   5.600
  202TIP3    H1  551   7.084   5.892   5.530
  202TIP3    H2  552   7.205   5.824   5.591
  203TIP3   OH2  553   5.411   2.605   5.879
  203TIP3    H1  554   5.440   2.694   5.898
  203TIP3    H2  555   5.445   2.587   5.791
  204TIP3   OH2  556   4.271   2.325   2.037
  204TIP3    H1  557   4.240   2.412   2.059
  204TIP3    H2  558   4.208   2.266   2.078
  205TIP3   OH2  559   0.114   5.347   5.568
  205TIP3    H1  560   0.138   5.267   5.520
  205TIP3    H2  561   0.166   5.416   5.527
  206TIP3   OH2  562   7.039   7.283   0.395
  206TIP3    H1  563   7.066   7.367   0.355
  206TIP3    H2  564   7.113   7.258   0.450
  207TIP3   OH2  565   3.690   6.609   3.390
  207TIP3    H1  566   3.626   6.668   3.428
  207TIP3    H2  567   3.760   6.604   3.455
  208TIP3   OH2  568   6.349   0.996   2.809
  208TIP3    H1  569   6.318   1.011   2.719
  208TIP3    H2  570   6.326   1.075   2.856
  209TIP3   OH2  571   3.940   5.194   1.141
  209TIP3    H1  572   4.034   5.206   1.123
  209TIP3    H2  573   3.931   5.221   1.233
  210TIP3   OH2  574   7.787   2.343   6.348
  210TIP3    H1  575   7.843   2.309   6.418
  210TIP3    H2  576   7.846   2.352   6.273
  211TIP3   OH2  577   5.402   1.172   5.515
  211TIP3    H1  578   5.367   1.190   5.427
  211TIP3    H2  579   5.327   1.184   5.573
  212TIP3   OH2  580   1.569   5.539   0.123
  212TIP3    H1  581   1.596   5.627   0.098
  212TIP3    H2  582   1.633   5.512   0.189
  213TIP3   OH2  583   7.651   0.069   1.336
  213TIP3    H1  584   7.723   0.037   1.390
  213TIP3    H2  585   7.676   0.049   1.246
  214TIP3   OH2  586   1.826   5.713   1.332
  214TIP3    H1  587   1.916   5.687   1.351
  214TIP3    H2  588   1.786   5.728   1.418
  215TIP3   OH2  589   0.224   4.668   1.661
  215TIP3    H1  590   0.236   4.750   1.613
  215TIP3    H2  591   0.313   4.638   1.680
  216TIP3   OH2  592   0.843   4.264   4.069
  216TIP3    H1  593   0.938   4.274   4.064
  216TIP3    H2  594   0.824   4.260   4.162
  217TIP3   OH2  595   2.780   4.624   5.411
  217TIP3    H1  596   2.866   4.649   5.375
  217TIP3    H2  597   2.781   4.658   5.500
  218TIP3   OH2  598   0.457   3.496   3.659
  218TIP3    H1  599   0.486   3.490   3.568
  218TIP3    H2  600   0.519   3.441   3.707
  219TIP3   OH2  601   4.547   6.019   3.216
  219TIP3    H1  602   4.581   6.009   3.305
  219TIP3    H2  603   4.485   5.947   3.206
  220TIP3   OH2  604   1.226   2.307   1.634
  220TIP3    H1  605   1.257   2.348   1.714
  220TIP3    H2  606   1.155   2.364   1.604
  221TIP3   OH2  607   5.063   1.417   1.820
  221TIP3    H1  608   5.010   1.408   1.741
  221TIP3    H2  609   5.146   1.374   1.798
  222TIP3   OH2  610   7.103   6.449   3.753
  222TIP3    H1  611   7.154   6.476   3.830
  222TIP3    H2  612   7.164   6.457   3.680
  223TIP3   OH2  613   1.177   0.844   5.000
  223TIP3    H1  614   1.211   0.767   4.955
  223TIP3    H2  615   1.095   0.865   4.954
  224TIP3   OH2  616   1.272   3.175   6.166
  224TIP3    H1  617   1.178   3.160   6.162
  224TIP3    H2  618   1.310   3.095   6.128
  225TIP3   OH2  619   5.177   5.411   2.011
  225TIP3    H1  620   5.218   5.496   2.026
  225TIP3    H2  621   5.196   5.391   1.919
  226TIP3   OH2  622   1.310   6.910   4.098
  226TIP3    H1  623   1.375   6.947   4.158
  226TIP3    H2  624   1.309   6.970   4.024
  227TIP3   OH2  625   4.869   6.509   6.631
  227TIP3    H1  626   4.927   6.584   6.649
  227TIP3    H2  627   4.781   6.545   6.640
  228TIP3   OH2  628   7.990   7.028   3.507
  228TIP3    H1  629   8.036   6.949   3.535
  228TIP3    H2  630   7.934   6.998   3.435
  229TIP3   OH2  631  -0.002   2.296   4.670
  229TIP3    H1  632  -0.022   2.355   4.742
  229TIP3    H2  633   0.088   2.318   4.645
  230TIP3   OH2  634   6.401   3.046   2.381
  230TIP3    H1  635   6.475   3.003   2.425
  230TIP3    H2  636   6.390   3.128   2.429
  231TIP3   OH2  637   3.694   4.697   3.988
  231TIP3    H1  638   3.706   4.668   4.079
  231TIP3    H2  639   3.642   4.777   3.995
  232TIP3   OH2  640   4.346   2.970   1.692
  232TIP3    H1  641   4.316   2.969   1.601
  232TIP3    H2  642   4.285   3.028   1.738
  233TIP3   OH2  643   1.456   2.111   5.746
  233TIP3    H1  644   1.457   2.026   5.702
  233TIP3    H2  645   1.429   2.092   5.836
  234TIP3   OH2  646   3.262   0.279   3.658
  234TIP3    H1  647   3.291   0.366   3.632
  234TIP3    H2  648   3.335   0.244   3.708
  235TIP3   OH2  649   3.127   1.417   0.869
  235TIP3    H1  650   3.177   1.338   0.892
  235TIP3    H2  651   3.153   1.481   0.935
  236TIP3   OH2  652   3.836   1.548   3.745
  236TIP3    H1  653   3.873   1.610   3.808
  236TIP3    H2  654   3.838   1.594   3.661
  237TIP3   OH2  655   4.195   6.485   3.958
  237TIP3    H1  656   4.285   6.514   3.940
  237TIP3    H2  657   4.201   6.437   4.040
  238TIP3   OH2  658   2.050   4.631   3.776
  238TIP3    H1  659   2.062   4.715   3.821
  238TIP3    H2  660   1.977   4.647   3.716
  239TIP3   OH2  661   4.880   7.231   5.341
  239TIP3    H1  662   4.937   7.217   5.417
  239TIP3    H2  663   4.823   7.155   5.339
  240TIP3   OH2  664   2.598   2.680   5.734
  240TIP3    H1  665   2.550   2.597   5.733
  240TIP3    H2  666   2.571   2.723   5.815
  241TIP3   OH2  667   6.029   0.320   6.193
  241TIP3    H1  668   5.950   0.287   6.235
  241TIP3    H2  669   6.064   0.245   6.145
  242TIP3   OH2  670   3.793   5.183   4.502
  242TIP3    H1  671   3.750   5.265   4.479
  242TIP3    H2  672   3.730   5.115   4.481
  243TIP3   OH2  673   6.823   0.494   1.964
  243TIP3    H1  674   6.868   0.428   1.912
  243TIP3    H2  675   6.790   0.447   2.040
  244TIP3   OH2  676   2.188   3.117   2.683
  244TIP3    H1  677   2.242   3.038   2.679
  244TIP3    H2  678   2.218   3.163   2.761
  245TIP3   OH2  679   2.581   0.826   5.606
  245TIP3    H1  680   2.594   0.848   5.513
  245TIP3    H2  681   2.513   0.759   5.605
  246TIP3   OH2  682   5.885   7.179   3.823
  246TIP3    H1  683   5.943   7.104   3.812
  246TIP3    H2  684   5.928   7.250   3.776
  247TIP3   OH2  685   2.264   6.294   6.517
  247TIP3    H1  686   2.198   6.318   6.452
  247TIP3    H2  687   2.221   6.226   6.569
  248TIP3   OH2  688   3.636   1.167   3.493
  248TIP3    H1  689   3.627   1.112   3.571
  248TIP3    H2  690   3.565   1.231   3.501
  249TIP3   OH2  691   3.220   1.676   6.069
  249TIP3    H1  692   3.178   1.762   6.071
  249TIP3    H2  693   3.312   1.694   6.086
  250TIP3   OH2  694   7.564   3.883   0.109
  250TIP3    H1  695   7.565   3.790   0.087
  250TIP3    H2  696   7.561   3.929   0.025
  251TIP3   OH2  697   2.759   4.273   4.684
  251TIP3    H1  698   2.783   4.340   4.620
  251TIP3    H2  699   2.792   4.307   4.767
  252TIP3   OH2  700   0.687   3.742   3.289
  252TIP3    H1  701   0.613   3.773   3.238
  252TIP3    H2  702   0.740   3.692   3.227
  253TIP3   OH2  703   2.416   2.784   1.187
  253TIP3    H1  704   2.411   2.839   1.108
  253TIP3    H2  705   2.475   2.831   1.246
  254TIP3   OH2  706   2.977   5.370   4.346
  254TIP3    H1  707   3.036   5.442   4.324
  254TIP3    H2  708   2.900   5.413   4.384
  255TIP3   OH2  709   6.420   3.361   2.171
  255TIP3    H1  710   6.420   3.425   2.100
  255TIP3    H2  711   6.506   3.373   2.213
  256TIP3   OH2  712   6.928   3.478   3.346
  256TIP3    H1  713   6.943   3.569   3.373
  256TIP3    H2  714   6.935   3.480   3.250
  257TIP3   OH2  715   0.708   2.650   0.131
  257TIP3    H1  716   0.677   2.658   0.221
  257TIP3    H2  717   0.778   2.584   0.136
  258TIP3   OH2  718   1.930   0.569   6.412
  258TIP3    H1  719   1.929   0.636   6.344
  258TIP3    H2  720   1.982   0.606   6.483
  259TIP3   OH2  721   7.093   0.519   4.575
  259TIP3    H1  722   7.091   0.604   4.532
  259TIP3    H2  723   7.184   0.505   4.599
  260TIP3   OH2  724   3.365   1.799   6.447
  260TIP3    H1  725   3.429   1.868   6.436
  260TIP3    H2  726   3.306   1.832   6.516
  261TIP3   OH2  727   7.939   6.147   3.087
  261TIP3    H1  728   7.980   6.178   3.006
  261TIP3    H2  729   8.012   6.116   3.140
  262TIP3   OH2  730   7.092   6.036   0.846
  262TIP3    H1  731   7.014   6.050   0.899
  262TIP3    H2  732   7.060   6.040   0.756
  263TIP3   OH2  733   1.729   6.427   2.774
  263TIP3    H1  734   1.645   6.445   2.731
  263TIP3    H2  735   1.738   6.332   2.770
  264TIP3   OH2  736   6.827   4.525   3.196
  264TIP3    H1  737   6.811   4.494   3.106
  264TIP3    H2  738   6.832   4.620   3.187
  265TIP3   OH2  739   0.195   4.957   1.218
  265TIP3    H1  740   0.213   4.949   1.124
  265TIP3    H2  741   0.108   4.919   1.229
  266TIP3   OH2  742   4.930   5.740   2.365
  266TIP3    H1  743   4.946   5.771   2.454
  266TIP3    H2  744   5.017   5.722   2.329
  267TIP3   OH2  745   6.196   7.124   3.282
  267TIP3    H1  746   6.263   7.108   3.216
  267TIP3    H2  747   6.225   7.073   3.358
  268TIP3   OH2  748   7.101   3.567   6.179
  268TIP3    H1  749   7.147   3.577   6.096
  268TIP3    H2  750   7.011   3.547   6.155
  269TIP3   OH2  751   0.261   1.174   4.784
  269TIP3    H1  752   0.356   1.184   4.782
  269TIP3    H2  753   0.247   1.092   4.830
  270TIP3   OH2  754   7.535   2.991   4.192
  270TIP3    H1  755   7.476   3.015   4.264
  270TIP3    H2  756   7.599   2.932   4.233
  271TIP3   OH2  757   1.291   6.583   5.467
  271TIP3    H1  758   1.357   6.580   5.537
  271TIP3    H2  759   1.329   6.641   5.401
  272TIP3   OH2  760   6.516   3.076   0.334
  272TIP3    H1  761   6.548   3.040   0.417
  272TIP3    H2  762   6.540   3.010   0.269
  273TIP3   OH2  763   1.806   4.659   3.637
  273TIP3    H1  764   1.726   4.696   3.599
  273TIP3    H2  765   1.789   4.565   3.642
  274TIP3   OH2  766   0.438   1.479   5.511
  274TIP3    H1  767   0.408   1.397   5.548
  274TIP3    H2  768   0.530   1.486   5.539
  275TIP3   OH2  769   5.568   7.354   4.256
  275TIP3    H1  770   5.655   7.338   4.219
  275TIP3    H2  771   5.512   7.288   4.216
  276TIP3   OH2  772   6.536   0.566   2.553
  276TIP3    H1  773   6.462   0.625   2.561
  276TIP3    H2  774   6.576   0.565   2.640
  277TIP3   OH2  775   4.796   1.062   5.737
  277TIP3    H1  776   4.838   1.148   5.749
  277TIP3    H2  777   4.731   1.076   5.668
  278TIP3   OH2  778  -0.011   7.198   2.462
  278TIP3    H1  779   0.056   7.190   2.395
  278TIP3    H2  780  -0.018   7.292   2.478
  279TIP3   OH2  781   7.797   5.920   5.160
  279TIP3    H1  782   7.781   5.900   5.252
  279TIP3    H2  783   7.891   5.936   5.154
  280TIP3   OH2  784   3.006   4.982   4.252
  280TIP3    H1  785   3.034   4.929   4.177
  280TIP3    H2  786   2.979   5.066   4.213
  281TIP3   OH2  787   3.924   1.714   3.917
  281TIP3    H1  788   3.957   1.717   4.007
  281TIP3    H2  789   3.967   1.787   3.873
  282TIP3   OH2  790   2.547   1.968   1.527
  282TIP3    H1  791   2.630   1.982   1.481
  282TIP3    H2  792   2.480   2.003   1.468
  283TIP3   OH2  793   4.274   4.294   3.589
  283TIP3    H1  794   4.274   4.344   3.671
  283TIP3    H2  795   4.236   4.209   3.613
  284TIP3   OH2  796   5.940   5.920   0.727
  284TIP3    H1  797   5.901   5.980   0.663
  284TIP3    H2  798   5.904   5.948   0.811
  285TIP3   OH2  799   3.675   7.763   3.931
  285TIP3    H1  800   3.766   7.782   3.910
  285TIP3    H2  801   3.674   7.751   4.026
  286TIP3   OH2  802   2.811   1.809   4.289
  286TIP3    H1  803   2.750   1.742   4.258
  286TIP3    H2  804   2.769   1.845   4.368
  287TIP3   OH2  805   0.578   6.578   5.071
  287TIP3    H1  806   0.517   6.607   5.004
  287TIP3    H2  807   0.524   6.530   5.134
  288TIP3   OH2  808   5.118   5.411   3.050
  288TIP3    H1  809   5.139   5.320   3.070
  288TIP3    H2  810   5.201   5.458   3.065
  289TIP3   OH2  811   3.685   5.486   4.107
  289TIP3    H1  812   3.675   5.394   4.082
  289TIP3    H2  813   3.652   5.534   4.031
  290TIP3   OH2  814   7.107   4.072   3.377
  290TIP3    H1  815   7.085   4.116   3.294
  290TIP3    H2  816   7.025   4.073   3.427
  291TIP3   OH2  817   0.646   5.217   5.203
  291TIP3    H1  818   0.565   5.173   5.228
  291TIP3    H2  819   0.699   5.218   5.283
  292TIP3   OH2  820   3.483   5.139   6.641
  292TIP3    H1  821   3.478   5.075   6.711
  292TIP3    H2  822   3.491   5.223   6.685
  293TIP3   OH2  823   0.580   1.634   5.142
  293TIP3    H1  824   0.541   1.550   5.168
  293TIP3    H2  825   0.626   1.664   5.221
  294TIP3   OH2  826   2.344   7.666   5.305
  294TIP3    H1  827   2.418   7.685   5.362
  294TIP3    H2  828   2.272   7.719   5.339
  295TIP3   OH2  829   2.952   4.923   3.444
  295TIP3    H1  830   2.906   5.006   3.430
  295TIP3    H2  831   2.884   4.862   3.471
  296TIP3   OH2  832   3.311   3.315   1.881
  296TIP3    H1  833   3.303   3.363   1.798
  296TIP3    H2  834   3.306   3.383   1.948
  297TIP3   OH2  835   1.223   7.494   2.380
  297TIP3    H1  836   1.213   7.588   2.390
  297TIP3    H2  837   1.316   7.478   2.395
  298TIP3   OH2  838   8.039   3.548   2.010
  298TIP3    H1  839   8.108   3.574   2.071
  298TIP3    H2  840   8.045   3.612   1.938
  299TIP3   OH2  841   7.289   5.519   5.339
  299TIP3    H1  842   7.291   5.487   5.249
  299TIP3    H2  843   7.238   5.600   5.335
  300TIP3   OH2  844   0.944   1.278   6.230
  300TIP3    H1  845   0.913   1.240   6.148
  300TIP3    H2  846   0.942   1.206   6.293
  301TIP3   OH2  847   3.645   7.453   0.933
  301TIP3    H1  848   3.687   7.532   0.899
  301TIP3    H2  849   3.620   7.403   0.855
  302TIP3   OH2  850   7.939   5.168   2.824
  302TIP3    H1  851   7.947   5.076   2.848
  302TIP3    H2  852   7.863   5.199   2.872
  303TIP3   OH2  853   4.455   4.008   2.561
  303TIP3    H1  854   4.415   3.962   2.635
  303TIP3    H2  855   4.523   3.948   2.529
  304TIP3   OH2  856   6.107   6.227   5.779
  304TIP3    H1  857   6.177   6.274   5.825
  304TIP3    H2  858   6.102   6.142   5.822
  305TIP3   OH2  859   0.901   2.009   3.916
  305TIP3    H1  860   0.896   1.949   3.991
  305TIP3    H2  861   0.842   2.081   3.940
  306TIP3   OH2  862   4.290   3.363   5.364
  306TIP3    H1  863   4.241   3.347   5.444
  306TIP3    H2  864   4.252   3.444   5.329
  307TIP3   OH2  865   7.420   0.318   4.041
  307TIP3    H1  866   7.362   0.392   4.023
  307TIP3    H2  867   7.385   0.246   3.989
  308TIP3   OH2  868   5.445   6.613   6.251
  308TIP3    H1  869   5.407   6.696   6.280
  308TIP3    H2  870   5.373   6.550   6.261
  309TIP3   OH2  871   1.578   3.849   6.199
  309TIP3    H1  872   1.524   3.794   6.143
  309TIP3    H2  873   1.599   3.794   6.275
  310TIP3   OH2  874   2.099   6.919   2.271
  310TIP3    H1  875   2.110   6.918   2.176
  310TIP3    H2  876   2.051   6.839   2.291
  311TIP3   OH2  877   0.907   2.177   1.044
  311TIP3    H1  878   0.986   2.174   0.989
  311TIP3    H2  879   0.935   2.142   1.129
  312TIP3   OH2  880   7.477   3.958   2.485
  312TIP3    H1  881   7.550   4.020   2.479
  312TIP3    H2  882   7.518   3.872   2.491
  313TIP3   OH2  883   3.086   0.055   4.664
  313TIP3    H1  884   3.042   0.094   4.739
  313TIP3    H2  885   3.021   0.059   4.593
  314TIP3   OH2  886   1.475   6.561   0.405
  314TIP3    H1  887   1.489   6.499   0.476
  314TIP3    H2  888   1.465   6.506   0.327
  315TIP3   OH2  889   4.279   1.749   0.085
  315TIP3    H1  890   4.362   1.710   0.110
  315TIP3    H2  891   4.288   1.841   0.107
  316TIP3   OH2  892   6.150   4.371   5.866
  316TIP3    H1  893   6.100   4.290   5.872
  316TIP3    H2  894   6.120   4.412   5.785
  317TIP3   OH2  895   0.380   5.051   5.857
  317TIP3    H1  896   0.332   5.108   5.917
  317TIP3    H2  897   0.432   5.111   5.803
  318TIP3   OH2  898   1.895   3.461   4.932
  318TIP3    H1  899   1.963   3.401   4.963
  318TIP3    H2  900   1.818   3.440   4.986
  319TIP3   OH2  901   4.443   7.088   4.593
  319TIP3    H1  902   4.507   7.027   4.557
  319TIP3    H2  903   4.421   7.052   4.679
  320TIP3   OH2  904   3.800   1.009   0.216
  320TIP3    H1  905   3.877   0.977   0.169
  320TIP3    H2  906   3.728   0.952   0.188
  321TIP3   OH2  907   3.739   0.231   3.183
  321TIP3    H1  908   3.807   0.233   3.250
  321TIP3    H2  909   3.657   0.234   3.233
  322TIP3   OH2  910   5.429   0.418   1.280
  322TIP3    H1  911   5.404   0.336   1.237
  322TIP3    H2  912   5.492   0.391   1.347
  323TIP3   OH2  913   5.355   2.723   2.063
  323TIP3    H1  914   5.261   2.706   2.068
  323TIP3    H2  915   5.396   2.637   2.071
  324TIP3   OH2  916   4.056   2.138   0.808
  324TIP3    H1  917   4.010   2.085   0.743
  324TIP3    H2  918   4.146   2.105   0.807
  325TIP3   OH2  919   4.966   0.762   6.589
  325TIP3    H1  920   5.053   0.743   6.624
  325TIP3    H2  921   4.979   0.769   6.494
  326TIP3   OH2  922   5.241   0.779   0.006
  326TIP3    H1  923   5.305   0.710   0.024
  326TIP3    H2  924   5.293   0.859   0.004
  327TIP3   OH2  925   3.748   3.392   4.281
  327TIP3    H1  926   3.665   3.441   4.276
  327TIP3    H2  927   3.754   3.348   4.196
  328TIP3   OH2  928   3.270   1.288   3.764
  328TIP3    H1  929   3.279   1.361   3.826
  328TIP3    H2  930   3.336   1.306   3.697
  329TIP3   OH2  931   7.920   7.233   6.273
  329TIP3    H1  932   7.895   7.291   6.344
  329TIP3    H2  933   7.839   7.218   6.224
  330TIP3   OH2  934   1.087   2.837   1.336
  330TIP3    H1  935   1.095   2.906   1.270
  330TIP3    H2  936   1.166   2.783   1.324
  331TIP3   OH2  937   8.232   4.161   3.649
  331TIP3    H1  938   8.231   4.256   3.645
  331TIP3    H2  939   8.203   4.133   3.562
  332TIP3   OH2  940   3.134   2.314   3.052
  332TIP3    H1  941   3.084   2.373   2.995
  332TIP3    H2  942   3.080   2.235   3.056
  333TIP3   OH2  943   4.263   1.176   4.698
  333TIP3    H1  944   4.308   1.125   4.631
  333TIP3    H2  945   4.220   1.111   4.753
  334TIP3   OH2  946   7.076   7.113   6.620
  334TIP3    H1  947   7.152   7.125   6.562
  334TIP3    H2  948   7.068   7.019   6.630
  335TIP3   OH2  949   1.801   5.101   4.949
  335TIP3    H1  950   1.735   5.033   4.932
  335TIP3    H2  951   1.885   5.059   4.929
  336TIP3   OH2  952   1.984   6.708   0.711
  336TIP3    H1  953   1.924   6.745   0.647
  336TIP3    H2  954   1.950   6.738   0.796
  337TIP3   OH2  955   1.891   7.504   2.857
  337TIP3    H1  956   1.809   7.460   2.833
  337TIP3    H2  957   1.917   7.550   2.777
  338TIP3   OH2  958   6.209   6.640   6.621
  338TIP3    H1  959   6.166   6.611   6.702
  338TIP3    H2  960   6.154   6.605   6.551
  339TIP3   OH2  961   6.578   3.330   4.974
  339TIP3    H1  962   6.550   3.308   4.885
  339TIP3    H2  963   6.578   3.247   5.021
  340TIP3   OH2  964   4.994   3.633   3.707
  340TIP3    H1  965   4.981   3.678   3.623
  340TIP3    H2  966   4.909   3.638   3.750
  341TIP3   OH2  967   4.707   4.556   2.110
  341TIP3    H1  968   4.712   4.490   2.179
  341TIP3    H2  969   4.673   4.510   2.034
  342TIP3   OH2  970   0.392   0.096   1.124
  342TIP3    H1  971   0.329   0.168   1.132
  342TIP3    H2  972   0.473   0.132   1.160
  343TIP3   OH2  973   5.741   4.212   6.690
  343TIP3    H1  974   5.693   4.235   6.769
  343TIP3    H2  975   5.677   4.167   6.634
  344TIP3   OH2  976   8.090   6.146   1.620
  344TIP3    H1  977   8.085   6.159   1.526
  344TIP3    H2  978   8.183   6.131   1.637
  345TIP3   OH2  979   0.796   5.904   6.326
  345TIP3    H1  980   0.745   5.983   6.310
  345TIP3    H2  981   0.886   5.929   6.305
  346TIP3   OH2  982   8.291   7.473   5.929
  346TIP3    H1  983   8.201   7.506   5.926
  346TIP3    H2  984   8.319   7.489   6.019
  347TIP3   OH2  985   2.328   4.717   4.285
  347TIP3    H1  986   2.391   4.739   4.353
  347TIP3    H2  987   2.259   4.782   4.294
  348TIP3   OH2  988   2.147   6.231   2.993
  348TIP3    H1  989   2.216   6.183   2.946
  348TIP3    H2  990   2.194   6.282   3.058
  349TIP3   OH2  991   6.675   1.995   3.413
  349TIP3    H1  992   6.724   1.916   3.393
  349TIP3    H2  993   6.742   2.061   3.433
  350TIP3   OH2  994   6.713   0.919   2.489
  350TIP3    H1  995   6.664   0.901   2.569
  350TIP3    H2  996   6.655   0.973   2.436
  351TIP3   OH2  997   5.767   7.660   2.944
  351TIP3    H1  998   5.726   7.689   2.862
  351TIP3    H2  999   5.744   7.568   2.950
  352TIP3   OH2 1000   1.205   4.853   3.065
  352TIP3    H1 1001   1.247   4.939   3.073
  352TIP3    H2 1002   1.269   4.792   3.101
  353TIP3   OH2 1003   1.295   2.090   6.643
  353TIP3    H1 1004   1.295   2.084   6.739
  353TIP3    H2 1005   1.374   2.140   6.623
  354TIP3   OH2 1006   0.459   1.733   4.436
  354TIP3    H1 1007   0.420   1.820   4.430
  354TIP3    H2 1008   0.545   1.742   4.394
  355TIP3   OH2 1009   1.213   0.541   4.345
  355TIP3    H1 1010   1.156   0.577   4.413
  355TIP3    H2 1011   1.192   0.592   4.267
  356TIP3   OH2 1012   6.824   2.767   0.071
  356TIP3    H1 1013   6.903   2.819   0.060
  356TIP3    H2 1014   6.856   2.678   0.087
  357TIP3   OH2 1015   5.771   0.387   2.345
  357TIP3    H1 1016   5.766   0.311   2.402
  357TIP3    H2 1017   5.726   0.457   2.393
  358TIP3   OH2 1018   1.359   5.047   6.388
  358TIP3    H1 1019   1.316   5.130   6.367
  358TIP3    H2 1020   1.434   5.073   6.442
  359TIP3   OH2 1021   6.785   1.510   1.250
  359TIP3    H1 1022   6.836   1.591   1.248
  359TIP3    H2 1023   6.826   1.458   1.319
  360TIP3   OH2 1024   3.731   0.070   3.761
  360TIP3    H1 1025   3.775   0.084   3.845
  360TIP3    H2 1026   3.660   0.135   3.760
  361TIP3   OH2 1027   2.588   3.996   2.445
  361TIP3    H1 1028   2.680   3.998   2.472
  361TIP3    H2 1029   2.554   4.082   2.469
  362TIP3   OH2 1030   3.018   5.525   0.319
  362TIP3    H1 1031   3.089   5.493   0.376
  362TIP3    H2 1032   3.062   5.550   0.238
  363TIP3   OH2 1033   2.788   0.809   0.678
  363TIP3    H1 1034   2.824   0.805   0.766
  363TIP3    H2 1035   2.726   0.881   0.680
  364TIP3   OH2 1036   4.947   5.045   3.238
  364TIP3    H1 1037   4.948   4.949   3.233
  364TIP3    H2 1038   4.967   5.074   3.149
  365TIP3   OH2 1039   5.950   5.237   5.485
  365TIP3    H1 1040   6.016   5.299   5.514
  365TIP3    H2 1041   5.923   5.268   5.399
  366TIP3   OH2 1042   2.406   7.086   4.287
  366TIP3    H1 1043   2.481   7.031   4.263
  366TIP3    H2 1044   2.432   7.174   4.262
  367TIP3   OH2 1045   4.686   5.659   5.542
  367TIP3    H1 1046   4.603   5.707   5.537
  367TIP3    H2 1047   4.691   5.611   5.459
  368TIP3   OH2 1048   3.650   7.577   6.256
  368TIP3    H1 1049   3.555   7.586   6.245
  368TIP3    H2 1050   3.686   7.659   6.221
  369TIP3   OH2 1051   0.224   5.139   0.115
  369TIP3    H1 1052   0.260   5.215   0.161
  369TIP3    H2 1053   0.183   5.086   0.184
  370TIP3   OH2 1054   0.817   4.042   5.224
  370TIP3    H1 1055   0.735   4.084   5.197
  370TIP3    H2 1056   0.851   4.002   5.144
  371TIP3   OH2 1057   7.335   2.634   6.294
  371TIP3    H1 1058   7.418   2.611   6.336
  371TIP3    H2 1059   7.352   2.717   6.250
  372TIP3   OH2 1060   2.154   3.728   2.838
  372TIP3    H1 1061   2.104   3.666   2.786
  372TIP3    H2 1062   2.242   3.690   2.844
  373TIP3   OH2 1063   4.094   2.408   4.481
  373TIP3    H1 1064   4.084   2.489   4.431
  373TIP3    H2 1065   4.084   2.435   4.573
  374TIP3   OH2 1066   4.388   3.854   4.213
  374TIP3    H1 1067   4.345   3.817   4.290
  374TIP3    H2 1068   4.384   3.948   4.226
  375TIP3   OH2 1069   6.392   7.431   0.581
  375TIP3    H1 1070   6.382   7.509   0.635
  375TIP3    H2 1071   6.356   7.360   0.634
  376TIP3   OH2 1072   7.421   2.559   4.611
  376TIP3    H1 1073   7.331   2.562   4.642
  376TIP3    H2 1074   7.439   2.648   4.579
  377TIP3   OH2 1075   5.374   1.214   2.935
  377TIP3    H1 1076   5.409   1.125   2.936
  377TIP3    H2 1077   5.451   1.270   2.939
  378TIP3   OH2 1078   3.004   0.422   0.454
  378TIP3    H1 1079   2.932   0.369   0.490
  378TIP3    H2 1080   2.987   0.511   0.486
  379TIP3   OH2 1081   8.006   3.777   0.605
  379TIP3    H1 1082   7.973   3.751   0.518
  379TIP3    H2 1083   7.972   3.710   0.664
  380TIP3   OH2 1084   3.371   0.435   4.460
  380TIP3    H1 1085   3.352   0.398   4.374
  380TIP3    H2 1086   3.385   0.359   4.517
  381TIP3   OH2 1087   1.169   5.023   5.603
  381TIP3    H1 1088   1.242   4.994   5.548
  381TIP3    H2 1089   1.090   5.001   5.553
  382TIP3   OH2 1090   6.439   3.223   4.402
  382TIP3    H1 1091   6.371   3.162   4.433
  382TIP3    H2 1092   6.417   3.306   4.444
  383TIP3   OH2 1093   6.013   5.846   0.186
  383TIP3    H1 1094   5.927   5.835   0.145
  383TIP3    H2 1095   5.995   5.837   0.280
  384TIP3   OH2 1096   5.924   5.367   5.227
  384TIP3    H1 1097   5.921   5.462   5.236
  384TIP3    H2 1098   5.948   5.352   5.135
  385TIP3   OH2 1099   1.251   5.264   0.803
  385TIP3    H1 1100   1.255   5.287   0.896
  385TIP3    H2 1101   1.331   5.302   0.766
  386TIP3   OH2 1102   4.242   3.424   1.220
  386TIP3    H1 1103   4.249   3.350   1.279
  386TIP3    H2 1104   4.218   3.498   1.276
  387TIP3   OH2 1105   6.904   1.254   2.128
  387TIP3    H1 1106   6.856   1.236   2.209
  387TIP3    H2 1107   6.881   1.345   2.107
  388TIP3   OH2 1108   4.701   3.787   3.310
  388TIP3    H1 1109   4.665   3.785   3.399
  388TIP3    H2 1110   4.624   3.789   3.254
  389TIP3   OH2 1111   4.752   6.879   0.528
  389TIP3    H1 1112   4.706   6.930   0.460
  389TIP3    H2 1113   4.682   6.846   0.584
  390TIP3   OH2 1114   4.334   0.051   0.609
  390TIP3    H1 1115   4.351  -0.041   0.591
  390TIP3    H2 1116   4.245   0.066   0.580
  391TIP3   OH2 1117   1.011   1.221   0.799
  391TIP3    H1 1118   1.106   1.232   0.796
  391TIP3    H2 1119   0.997   1.126   0.794
  392TIP3   OH2 1120   2.972   0.931   1.256
  392TIP3    H1 1121   2.988   0.901   1.167
  392TIP3    H2 1122   2.974   1.026   1.250
  393TIP3   OH2 1123   2.401   1.946   3.955
  393TIP3    H1 1124   2.483   1.985   3.987
  393TIP3    H2 1125   2.427   1.863   3.915
  394TIP3   OH2 1126   0.438   0.994   4.573
  394TIP3    H1 1127   0.412   1.048   4.499
  394TIP3    H2 1128   0.502   0.933   4.536
  395TIP3   OH2 1129   3.773   4.823   1.581
  395TIP3    H1 1130   3.747   4.826   1.489
  395TIP3    H2 1131   3.858   4.780   1.580
  396TIP3   OH2 1132   0.658   1.136   3.434
  396TIP3    H1 1133   0.660   1.129   3.530
  396TIP3    H2 1134   0.598   1.208   3.416
  397TIP3   OH2 1135   1.711   4.806   3.921
  397TIP3    H1 1136   1.705   4.902   3.920
  397TIP3    H2 1137   1.789   4.788   3.974
  398TIP3   OH2 1138   5.359   1.850   4.297
  398TIP3    H1 1139   5.300   1.857   4.373
  398TIP3    H2 1140   5.317   1.786   4.241
  399TIP3   OH2 1141   1.252   6.512   2.159
  399TIP3    H1 1142   1.241   6.592   2.211
  399TIP3    H2 1143   1.324   6.465   2.202
  400TIP3   OH2 1144   0.010   7.440   3.034
  400TIP3    H1 1145  -0.066   7.454   2.977
  400TIP3    H2 1146   0.005   7.347   3.057
  401TIP3   OH2 1147   6.227   6.170   5.318
  401TIP3    H1 1148   6.168   6.214   5.379
  401TIP3    H2 1149   6.237   6.082   5.353
  402TIP3   OH2 1150   2.983   2.396   2.508
  402TIP3    H1 1151   3.005   2.357   2.424
  402TIP3    H2 1152   2.902   2.352   2.535
  403TIP3   OH2 1153   7.437   5.404   3.361
  403TIP3    H1 1154   7.449   5.404   3.456
  403TIP3    H2 1155   7.398   5.489   3.342
  404TIP3   OH2 1156   5.950   1.216   2.592
  404TIP3    H1 1157   5.980   1.268   2.518
  404TIP3    H2 1158   5.955   1.276   2.667
  405TIP3   OH2 1159   1.743   6.081   1.432
  405TIP3    H1 1160   1.764   6.039   1.349
  405TIP3    H2 1161   1.823   6.127   1.456
  406TIP3   OH2 1162   7.758   3.445   2.305
  406TIP3    H1 1163   7.795   3.531   2.285
  406TIP3    H2 1164   7.748   3.403   2.220
  407TIP3   OH2 1165   5.345   5.578   4.975
  407TIP3    H1 1166   5.377   5.664   5.000
  407TIP3    H2 1167   5.418   5.539   4.926
  408TIP3   OH2 1168   5.050   0.660   2.526
  408TIP3    H1 1169   4.957   0.647   2.540
  408TIP3    H2 1170   5.070   0.609   2.447
  409TIP3   OH2 1171   3.934   6.498   3.870
  409TIP3    H1 1172   4.030   6.502   3.870
  409TIP3    H2 1173   3.914   6.405   3.883
  410TIP3   OH2 1174   3.635   1.767   2.052
  410TIP3    H1 1175   3.728   1.769   2.031
  410TIP3    H2 1176   3.603   1.854   2.029
  411TIP3   OH2 1177   6.102   2.125   3.187
  411TIP3    H1 1178   6.120   2.047   3.240
  411TIP3    H2 1179   6.068   2.091   3.104
  412TIP3   OH2 1180   7.437   3.074   0.335
  412TIP3    H1 1181   7.501   3.135   0.373
  412TIP3    H2 1182   7.377   3.055   0.407
  413TIP3   OH2 1183   0.935   7.789   4.154
  413TIP3    H1 1184   0.937   7.798   4.250
  413TIP3    H2 1185   0.857   7.736   4.137
  414TIP3   OH2 1186   3.654   4.399   1.772
  414TIP3    H1 1187   3.560   4.410   1.784
  414TIP3    H2 1188   3.674   4.314   1.812
  415TIP3   OH2 1189   3.568   1.262   6.168
  415TIP3    H1 1190   3.656   1.229   6.152
  415TIP3    H2 1191   3.563   1.275   6.263
  416TIP3   OH2 1192   2.098   1.573   4.542
  416TIP3    H1 1193   2.150   1.643   4.502
  416TIP3    H2 1194   2.039   1.618   4.602
  417TIP3   OH2 1195   5.215   5.886   4.666
  417TIP3    H1 1196   5.217   5.981   4.655
  417TIP3    H2 1197   5.154   5.871   4.739
  418TIP3   OH2 1198   6.649   4.020   2.181
  418TIP3    H1 1199   6.688   4.011   2.094
  418TIP3    H2 1200   6.680   3.944   2.230
  419TIP3   OH2 1201   7.585   7.688   1.963
  419TIP3    H1 1202   7.681   7.681   1.959
  419TIP3    H2 1203   7.564   7.754   1.897
  420TIP3   OH2 1204   6.688   3.524   0.789
  420TIP3    H1 1205   6.595   3.548   0.783
  420TIP3    H2 1206   6.725   3.586   0.851
  421TIP3   OH2 1207   2.731   7.087   6.498
  421TIP3    H1 1208   2.739   6.993   6.481
  421TIP3    H2 1209   2.686   7.121   6.420
  422TIP3   OH2 1210   6.197   5.328   0.069
  422TIP3    H1 1211   6.231   5.413   0.040
  422TIP3    H2 1212   6.271   5.268   0.058
  423TIP3   OH2 1213   6.501   0.144   5.776
  423TIP3    H1 1214   6.560   0.219   5.782
  423TIP3    H2 1215   6.436   0.170   5.710
  424TIP3   OH2 1216   4.508   6.918   5.509
  424TIP3    H1 1217   4.433   6.862   5.491
  424TIP3    H2 1218   4.479   6.976   5.580
  425TIP3   OH2 1219   2.730   6.620   0.284
  425TIP3    H1 1220   2.680   6.615   0.203
  425TIP3    H2 1221   2.760   6.711   0.288
  426TIP3   OH2 1222   4.190   3.943   1.855
  426TIP3    H1 1223   4.284   3.961   1.849
  426TIP3    H2 1224   4.152   3.996   1.785
  427TIP3   OH2 1225   8.271   5.440   5.229
  427TIP3    H1 1226   8.260   5.361   5.281
  427TIP3    H2 1227   8.351   5.426   5.179
  428TIP3   OH2 1228   3.826   7.812   2.337
  428TIP3    H1 1229   3.843   7.800   2.430
  428TIP3    H2 1230   3.805   7.724   2.306
  429TIP3   OH2 1231   5.046   6.865   1.219
  429TIP3    H1 1232   5.035   6.824   1.133
  429TIP3    H2 1233   5.048   6.793   1.281
  430TIP3   OH2 1234   2.257   4.456   3.686
  430TIP3    H1 1235   2.220   4.537   3.721
  430TIP3    H2 1236   2.223   4.451   3.597
  431TIP3   OH2 1237   5.165   2.048   6.429
  431TIP3    H1 1238   5.193   1.988   6.497
  431TIP3    H2 1239   5.235   2.114   6.425
  432TIP3   OH2 1240   7.143   7.352   4.673
  432TIP3    H1 1241   7.076   7.383   4.612
  432TIP3    H2 1242   7.205   7.304   4.619
  433TIP3   OH2 1243   2.502   4.502   5.511
  433TIP3    H1 1244   2.489   4.577   5.453
  433TIP3    H2 1245   2.482   4.537   5.599
  434TIP3   OH2 1246   3.639   2.085   5.964
  434TIP3    H1 1247   3.640   2.040   5.880
  434TIP3    H2 1248   3.624   2.177   5.941
  435TIP3   OH2 1249   0.497   0.708   3.409
  435TIP3    H1 1250   0.524   0.619   3.389
  435TIP3    H2 1251   0.565   0.763   3.372
  436TIP3   OH2 1252   3.256   7.044   2.660
  436TIP3    H1 1253   3.215   7.089   2.586
  436TIP3    H2 1254   3.273   7.113   2.724
  437TIP3   OH2 1255   3.100   7.577   0.479
  437TIP3    H1 1256   3.146   7.660   0.474
  437TIP3    H2 1257   3.144   7.529   0.549
  438TIP3   OH2 1258   6.425   4.263   1.105
  438TIP3    H1 1259   6.340   4.239   1.069
  438TIP3    H2 1260   6.420   4.358   1.117
  439TIP3   OH2 1261   4.622   0.234   3.768
  439TIP3    H1 1262   4.598   0.289   3.694
  439TIP3    H2 1263   4.605   0.144   3.738
  440TIP3   OH2 1264   6.503   5.537   6.132
  440TIP3    H1 1265   6.424   5.484   6.146
  440TIP3    H2 1266   6.472   5.627   6.136
  441TIP3   OH2 1267   4.049   1.560   6.033
  441TIP3    H1 1268   3.981   1.530   6.093
  441TIP3    H2 1269   4.050   1.495   5.963
  442TIP3   OH2 1270   5.216   3.254   5.347
  442TIP3    H1 1271   5.209   3.327   5.409
  442TIP3    H2 1272   5.126   3.235   5.321
  443TIP3   OH2 1273   3.220   1.005   5.759
  443TIP3    H1 1274   3.143   0.983   5.811
  443TIP3    H2 1275   3.290   1.018   5.822
  444TIP3   OH2 1276   4.413   6.024   2.802
  444TIP3    H1 1277   4.404   5.931   2.781
  444TIP3    H2 1278   4.505   6.044   2.785
  445TIP3   OH2 1279   0.087   0.448   0.527
  445TIP3    H1 1280   0.119   0.515   0.466
  445TIP3    H2 1281   0.056   0.497   0.602
  446TIP3   OH2 1282   0.520   4.747   0.606
  446TIP3    H1 1283   0.598   4.741   0.662
  446TIP3    H2 1284   0.464   4.675   0.635
  447TIP3   OH2 1285   0.378   2.769   5.942
  447TIP3    H1 1286   0.446   2.702   5.944
  447TIP3    H2 1287   0.408   2.832   5.877
  448TIP3   OH2 1288   2.519   5.336   0.928
  448TIP3    H1 1289   2.512   5.431   0.918
  448TIP3    H2 1290   2.589   5.310   0.868
  449TIP3   OH2 1291   8.122   2.029   2.127
  449TIP3    H1 1292   8.029   2.038   2.148
  449TIP3    H2 1293   8.125   2.010   2.034
  450TIP3   OH2 1294   7.059   7.780   5.737
  450TIP3    H1 1295   7.100   7.845   5.679
  450TIP3    H2 1296   7.010   7.832   5.800
  451TIP3   OH2 1297   5.776   1.658   2.703
  451TIP3    H1 1298   5.768   1.736   2.649
  451TIP3    H2 1299   5.720   1.593   2.660
  452TIP3   OH2 1300   6.388   2.256   6.665
  452TIP3    H1 1301   6.470   2.306   6.672
  452TIP3    H2 1302   6.323   2.320   6.636
  453TIP3   OH2 1303   3.139   7.583   3.836
  453TIP3    H1 1304   3.151   7.614   3.926
  453TIP3    H2 1305   3.180   7.651   3.782
  454TIP3   OH2 1306   8.317   2.550   6.340
  454TIP3    H1 1307   8.342   2.576   6.429
  454TIP3    H2 1308   8.231   2.589   6.327
  455TIP3   OH2 1309   1.462   6.124   2.065
  455TIP3    H1 1310   1.486   6.208   2.026
  455TIP3    H2 1311   1.483   6.059   1.997
  456TIP3   OH2 1312   1.259   7.313   6.485
  456TIP3    H1 1313   1.289   7.358   6.564
  456TIP3    H2 1314   1.335   7.313   6.427
  457TIP3   OH2 1315   3.982   0.401   4.118
  457TIP3    H1 1316   4.007   0.470   4.179
  457TIP3    H2 1317   3.982   0.321   4.171
  458TIP3   OH2 1318   3.608   0.540   5.730
  458TIP3    H1 1319   3.626   0.456   5.771
  458TIP3    H2 1320   3.622   0.526   5.637
  459TIP3   OH2 1321   7.657   3.126   2.836
  459TIP3    H1 1322   7.603   3.181   2.779
  459TIP3    H2 1323   7.623   3.037   2.824
  460TIP3   OH2 1324   5.688   1.864   0.872
  460TIP3    H1 1325   5.680   1.782   0.919
  460TIP3    H2 1326   5.679   1.932   0.939
  461TIP3   OH2 1327   3.923   2.818   4.432
  461TIP3    H1 1328   4.004   2.774   4.457
  461TIP3    H2 1329   3.949   2.877   4.361
  462TIP3   OH2 1330   2.134   0.984   1.955
  462TIP3    H1 1331   2.072   0.917   1.925
  462TIP3    H2 1332   2.203   0.934   1.999
  463TIP3   OH2 1333   3.329   4.762   0.291
  463TIP3    H1 1334   3.398   4.811   0.335
  463TIP3    H2 1335   3.360   4.752   0.201
  464TIP3   OH2 1336   3.190   0.175   5.766
  464TIP3    H1 1337   3.237   0.187   5.684
  464TIP3    H2 1338   3.119   0.239   5.762
  465TIP3   OH2 1339   2.113   1.451   5.217
  465TIP3    H1 1340   2.074   1.477   5.301
  465TIP3    H2 1341   2.200   1.418   5.240
  466TIP3   OH2 1342   1.318   6.989   6.550
  466TIP3    H1 1343   1.275   7.071   6.527
  466TIP3    H2 1344   1.246   6.929   6.572
  467TIP3   OH2 1345   1.058   3.579   0.970
  467TIP3    H1 1346   1.090   3.667   0.986
  467TIP3    H2 1347   1.131   3.522   0.992
  468TIP3   OH2 1348   0.040   3.824   3.851
  468TIP3    H1 1349   0.009   3.902   3.896
  468TIP3    H2 1350   0.126   3.806   3.891
  469TIP3   OH2 1351   5.851   0.724   2.034
  469TIP3    H1 1352   5.930   0.728   1.980
  469TIP3    H2 1353   5.862   0.645   2.086
  470TIP3   OH2 1354   2.110   4.080   0.578
  470TIP3    H1 1355   2.109   4.011   0.643
  470TIP3    H2 1356   2.018   4.090   0.553
  471TIP3   OH2 1357   5.991   6.997   6.512
  471TIP3    H1 1358   5.982   7.014   6.606
  471TIP3    H2 1359   5.902   6.976   6.484
  472TIP3   OH2 1360   5.536   1.488   2.450
  472TIP3    H1 1361   5.610   1.457   2.398
  472TIP3    H2 1362   5.522   1.420   2.516
  473TIP3   OH2 1363   5.305   0.829   3.857
  473TIP3    H1 1364   5.325   0.840   3.950
  473TIP3    H2 1365   5.210   0.830   3.853
  474TIP3   OH2 1366   5.442   2.789   4.875
  474TIP3    H1 1367   5.407   2.818   4.960
  474TIP3    H2 1368   5.537   2.799   4.884
  475TIP3   OH2 1369   0.839   1.618   4.923
  475TIP3    H1 1370   0.928   1.591   4.897
  475TIP3    H2 1371   0.853   1.695   4.978
  476TIP3   OH2 1372   4.833   1.755   1.844
  476TIP3    H1 1373   4.805   1.811   1.916
  476TIP3    H2 1374   4.762   1.692   1.833
  477TIP3   OH2 1375   1.828   2.955   5.941
  477TIP3    H1 1376   1.866   2.898   5.873
  477TIP3    H2 1377   1.738   2.971   5.912
  478TIP3   OH2 1378   1.977   2.819   5.028
  478TIP3    H1 1379   1.973   2.740   5.083
  478TIP3    H2 1380   1.976   2.892   5.089
  479TIP3   OH2 1381   7.104   0.177   3.226
  479TIP3    H1 1382   7.126   0.108   3.164
  479TIP3    H2 1383   7.013   0.158   3.251
  480TIP3   OH2 1384   7.706   4.062   5.693
  480TIP3    H1 1385   7.751   4.015   5.763
  480TIP3    H2 1386   7.681   4.145   5.732
  481TIP3   OH2 1387   5.495   3.192   6.089
  481TIP3    H1 1388   5.567   3.196   6.026
  481TIP3    H2 1389   5.449   3.111   6.066
  482TIP3   OH2 1390   4.840   6.846   5.800
  482TIP3    H1 1391   4.775   6.826   5.732
  482TIP3    H2 1392   4.871   6.760   5.830
  483TIP3   OH2 1393   0.819   3.445   0.943
  483TIP3    H1 1394   0.764   3.490   1.007
  483TIP3    H2 1395   0.908   3.472   0.964
  484TIP3   OH2 1396   2.275   0.423   3.751
  484TIP3    H1 1397   2.189   0.448   3.716
  484TIP3    H2 1398   2.328   0.503   3.743
  485TIP3   OH2 1399   1.768   3.264   5.684
  485TIP3    H1 1400   1.831   3.327   5.719
  485TIP3    H2 1401   1.684   3.309   5.689
  486TIP3   OH2 1402   2.677   5.067   1.618
  486TIP3    H1 1403   2.584   5.071   1.596
  486TIP3    H2 1404   2.699   4.974   1.614
  487TIP3   OH2 1405   2.241   0.686   2.589
  487TIP3    H1 1406   2.296   0.756   2.555
  487TIP3    H2 1407   2.298   0.609   2.589
  488TIP3   OH2 1408   7.914   5.686   3.858
  488TIP3    H1 1409   7.837   5.640   3.890
  488TIP3    H2 1410   7.962   5.711   3.938
  489TIP3   OH2 1411   4.941   0.192   5.330
  489TIP3    H1 1412   4.869   0.130   5.340
  489TIP3    H2 1413   4.933   0.250   5.406
  490TIP3   OH2 1414   1.343   7.178   5.711
  490TIP3    H1 1415   1.316   7.196   5.622
  490TIP3    H2 1416   1.372   7.086   5.709
  491TIP3   OH2 1417   1.148   2.886   6.643
  491TIP3    H1 1418   1.100   2.843   6.713
  491TIP3    H2 1419   1.184   2.815   6.590
  492TIP3   OH2 1420   1.103   3.363   3.227
  492TIP3    H1 1421   1.094   3.268   3.233
  492TIP3    H2 1422   1.099   3.382   3.134
  493TIP3   OH2 1423   2.524   2.096   0.099
  493TIP3    H1 1424   2.567   2.014   0.075
  493TIP3    H2 1425   2.507   2.089   0.193
  494TIP3   OH2 1426   6.575   3.145   1.971
  494TIP3    H1 1427   6.499   3.088   1.960
  494TIP3    H2 1428   6.556   3.221   1.917
  495TIP3   OH2 1429   1.816   6.711   3.629
  495TIP3    H1 1430   1.899   6.667   3.614
  495TIP3    H2 1431   1.755   6.668   3.568
  496TIP3   OH2 1432   0.595   4.590   2.078
  496TIP3    H1 1433   0.643   4.622   2.154
  496TIP3    H2 1434   0.569   4.669   2.031
  497TIP3   OH2 1435   8.219   3.318   0.161
  497TIP3    H1 1436   8.305   3.337   0.124
  497TIP3    H2 1437   8.229   3.337   0.255
  498TIP3   OH2 1438   2.243   1.288   6.400
  498TIP3    H1 1439   2.252   1.364   6.344
  498TIP3    H2 1440   2.332   1.259   6.417
  499TIP3   OH2 1441   0.152   7.035   0.629
  499TIP3    H1 1442   0.086   7.081   0.680
  499TIP3    H2 1443   0.190   7.102   0.573
  500TIP3   OH2 1444   3.444   3.402   3.418
  500TIP3    H1 1445   3.439   3.416   3.324
  500TIP3    H2 1446   3.417   3.485   3.457
  501TIP3   OH2 1447   3.059   0.874   4.617
  501TIP3    H1 1448   2.980   0.825   4.594
  501TIP3    H2 1449   3.131   0.815   4.595
  502TIP3   OH2 1450   6.527   5.998   3.601
  502TIP3    H1 1451   6.558   5.942   3.672
  502TIP3    H2 1452   6.601   6.057   3.584
  503TIP3   OH2 1453   4.603   3.746   4.462
  503TIP3    H1 1454   4.582   3.835   4.489
  503TIP3    H2 1455   4.518   3.707   4.442
  504TIP3   OH2 1456   3.188   5.462   0.552
  504TIP3    H1 1457   3.236   5.545   0.558
  504TIP3    H2 1458   3.174   5.436   0.643
  505TIP3   OH2 1459   0.443   6.986   1.326
  505TIP3    H1 1460   0.399   7.063   1.362
  505TIP3    H2 1461   0.495   7.020   1.253
  506TIP3   OH2 1462   5.047   0.490   5.335
  506TIP3    H1 1463   5.083   0.441   5.261
  506TIP3    H2 1464   5.114   0.557   5.354
  507TIP3   OH2 1465   3.864   6.431   4.177
  507TIP3    H1 1466   3.917   6.510   4.189
  507TIP3    H2 1467   3.789   6.461   4.126
  508TIP3   OH2 1468   3.968   3.673   4.135
  508TIP3    H1 1469   3.983   3.723   4.055
  508TIP3    H2 1470   3.963   3.582   4.105
  509TIP3   OH2 1471   3.635   2.782   0.638
  509TIP3    H1 1472   3.669   2.751   0.554
  509TIP3    H2 1473   3.608   2.872   0.622
  510TIP3   OH2 1474   4.054   2.266   1.841
  510TIP3    H1 1475   4.097   2.198   1.892
  510TIP3    H2 1476   4.066   2.240   1.750
  511TIP3   OH2 1477   8.001   6.216   4.245
  511TIP3    H1 1478   8.086   6.260   4.248
  511TIP3    H2 1479   8.021   6.124   4.260
  512TIP3   OH2 1480   2.909   5.772   2.106
  512TIP3    H1 1481   2.967   5.803   2.037
  512TIP3    H2 1482   2.821   5.790   2.072
  513TIP3   OH2 1483   1.406   2.023   4.047
  513TIP3    H1 1484   1.321   2.019   4.090
  513TIP3    H2 1485   1.439   1.933   4.050
  514TIP3   OH2 1486   6.033   7.705   0.934
  514TIP3    H1 1487   6.117   7.739   0.904
  514TIP3    H2 1488   5.988   7.780   0.970
  515TIP3   OH2 1489   6.192   7.374   3.391
  515TIP3    H1 1490   6.224   7.450   3.341
  515TIP3    H2 1491   6.220   7.298   3.340
  516TIP3   OH2 1492   5.380   5.276   6.047
  516TIP3    H1 1493   5.392   5.310   6.135
  516TIP3    H2 1494   5.421   5.341   5.990
  517TIP3   OH2 1495   4.136   2.174   0.463
  517TIP3    H1 1496   4.109   2.135   0.545
  517TIP3    H2 1497   4.231   2.179   0.468
  518TIP3   OH2 1498   5.737   5.107   4.976
  518TIP3    H1 1499   5.713   5.192   5.012
  518TIP3    H2 1500   5.667   5.049   5.004
  519TIP3   OH2 1501   0.985   7.658   5.864
  519TIP3    H1 1502   1.064   7.604   5.854
  519TIP3    H2 1503   0.914   7.594   5.869
  520TIP3   OH2 1504   4.709   0.189   5.087
  520TIP3    H1 1505   4.692   0.125   5.156
  520TIP3    H2 1506   4.720   0.272   5.133
  521TIP3   OH2 1507   2.589   4.665   3.717
  521TIP3    H1 1508   2.578   4.593   3.655
  521TIP3    H2 1509   2.500   4.692   3.738
  522TIP3   OH2 1510   0.201   5.132   6.715
  522TIP3    H1 1511   0.162   5.199   6.659
  522TIP3    H2 1512   0.217   5.058   6.657
  523TIP3   OH2 1513   2.317   6.225   6.074
  523TIP3    H1 1514   2.330   6.157   6.140
  523TIP3    H2 1515   2.355   6.304   6.113
  524TIP3   OH2 1516   5.105   5.015   4.625
  524TIP3    H1 1517   5.072   4.988   4.540
  524TIP3    H2 1518   5.127   4.934   4.670
  525TIP3   OH2 1519   7.004   7.430   6.296
  525TIP3    H1 1520   7.071   7.416   6.229
  525TIP3    H2 1521   7.047   7.487   6.360
  526TIP3   OH2 1522   1.699   1.451   1.200
  526TIP3    H1 1523   1.724   1.489   1.285
  526TIP3    H2 1524   1.623   1.503   1.172
  527TIP3   OH2 1525   7.650   4.697   6.255
  527TIP3    H1 1526   7.571   4.661   6.213
  527TIP3    H2 1527   7.645   4.665   6.345
  528TIP3   OH2 1528   8.076   2.346   4.544
  528TIP3    H1 1529   8.079   2.329   4.450
  528TIP3    H2 1530   8.159   2.312   4.577
  529TIP3   OH2 1531   2.272   3.162   0.153
  529TIP3    H1 1532   2.256   3.096   0.085
  529TIP3    H2 1533   2.256   3.245   0.109
  530TIP3   OH2 1534   2.566   5.480   5.245
  530TIP3    H1 1535   2.540   5.553   5.188
  530TIP3    H2 1536   2.662   5.479   5.239
  531TIP3   OH2 1537   1.868   4.679   4.087
  531TIP3    H1 1538   1.852   4.585   4.089
  531TIP3    H2 1539   1.832   4.712   4.169
  532TIP3   OH2 1540   2.594   0.432   0.127
  532TIP3    H1 1541   2.580   0.385   0.044
  532TIP3    H2 1542   2.516   0.412   0.179
  533TIP3   OH2 1543   5.969   6.299   4.906
  533TIP3    H1 1544   5.936   6.212   4.925
  533TIP3    H2 1545   6.009   6.327   4.989
  534TIP3   OH2 1546   0.066   4.913   1.767
  534TIP3    H1 1547   0.063   4.818   1.780
  534TIP3    H2 1548   0.160   4.934   1.766
  535TIP3   OH2 1549   7.169   3.105   3.988
  535TIP3    H1 1550   7.200   3.075   3.903
  535TIP3    H2 1551   7.142   3.026   4.034
  536TIP3   OH2 1552   2.235   1.731   2.510
  536TIP3    H1 1553   2.222   1.781   2.590
  536TIP3    H2 1554   2.152   1.737   2.464
  537TIP3   OH2 1555   1.362   2.075   0.548
  537TIP3    H1 1556   1.371   2.110   0.460
  537TIP3    H2 1557   1.386   1.983   0.540
  538TIP3   OH2 1558   0.178   2.387   3.602
  538TIP3    H1 1559   0.260   2.401   3.649
  538TIP3    H2 1560   0.116   2.447   3.644
  539TIP3   OH2 1561   2.246   5.246   2.648
  539TIP3    H1 1562   2.326   5.295   2.668
  539TIP3    H2 1563   2.175   5.309   2.661
  540TIP3   OH2 1564   0.706   6.179   6.331
  540TIP3    H1 1565   0.732   6.249   6.271
  540TIP3    H2 1566   0.706   6.220   6.417
  541TIP3   OH2 1567   7.230   5.136   2.216
  541TIP3    H1 1568   7.290   5.153   2.289
  541TIP3    H2 1569   7.149   5.180   2.241
  542TIP3   OH2 1570   5.792   6.238   2.190
  542TIP3    H1 1571   5.767   6.283   2.271
  542TIP3    H2 1572   5.758   6.150   2.201
  543TIP3   OH2 1573   2.713   2.543   1.182
  543TIP3    H1 1574   2.675   2.472   1.233
  543TIP3    H2 1575   2.756   2.500   1.108
  544TIP3   OH2 1576   2.108   1.680   4.244
  544TIP3    H1 1577   2.056   1.722   4.175
  544TIP3    H2 1578   2.046   1.670   4.317
  545TIP3   OH2 1579   6.751   1.054   4.455
  545TIP3    H1 1580   6.689   1.127   4.448
  545TIP3    H2 1581   6.822   1.088   4.509
  546TIP3   OH2 1582   1.119   1.538   3.125
  546TIP3    H1 1583   1.156   1.606   3.068
  546TIP3    H2 1584   1.144   1.456   3.083
  547TIP3   OH2 1585   4.053   7.604   0.236
  547TIP3    H1 1586   4.105   7.528   0.263
  547TIP3    H2 1587   4.109   7.650   0.173
  548TIP3   OH2 1588   0.282   7.508   5.447
  548TIP3    H1 1589   0.256   7.501   5.355
  548TIP3    H2 1590   0.200   7.518   5.495
  549TIP3   OH2 1591   3.300   5.549   6.113
  549TIP3    H1 1592   3.338   5.462   6.120
  549TIP3    H2 1593   3.369   5.603   6.076
  550TIP3   OH2 1594   0.805   3.737   0.276
  550TIP3    H1 1595   0.819   3.713   0.367
  550TIP3    H2 1596   0.711   3.754   0.270
  551TIP3   OH2 1597   6.780   1.854   5.113
  551TIP3    H1 1598   6.747   1.897   5.034
  551TIP3    H2 1599   6.747   1.908   5.185
  552TIP3   OH2 1600   3.113   6.271   5.972
  552TIP3    H1 1601   3.196   6.226   5.990
  552TIP3    H2 1602   3.133   6.364   5.982
  553TIP3   OH2 1603   3.799   1.293   1.118
  553TIP3    H1 1604   3.800   1.317   1.210
  553TIP3    H2 1605   3.870   1.344   1.079
  554TIP3   OH2 1606   3.641   7.745   4.485
  554TIP3    H1 1607   3.592   7.814   4.529
  554TIP3    H2 1608   3.616   7.665   4.531
  555TIP3   OH2 1609   2.172   2.380   3.729
  555TIP3    H1 1610   2.254   2.332   3.715
  555TIP3    H2 1611   2.130   2.381   3.642
  556TIP3   OH2 1612   1.349   0.426   2.852
  556TIP3    H1 1613   1.434   0.401   2.886
  556TIP3    H2 1614   1.352   0.522   2.847
  557TIP3   OH2 1615   3.978   2.046   2.400
  557TIP3    H1 1616   4.050   2.060   2.462
  557TIP3    H2 1617   3.936   1.966   2.431
  558TIP3   OH2 1618   0.017   6.644   6.591
  558TIP3    H1 1619  -0.003   6.668   6.681
  558TIP3    H2 1620   0.112   6.646   6.586
  559TIP3   OH2 1621   2.205   2.529   5.121
  559TIP3    H1 1622   2.230   2.440   5.095
  559TIP3    H2 1623   2.270   2.552   5.188
  560TIP3   OH2 1624   4.240   5.954   3.014
  560TIP3    H1 1625   4.274   5.984   2.930
  560TIP3    H2 1626   4.306   5.892   3.045
  561TIP3   OH2 1627   2.192   7.176   4.616
  561TIP3    H1 1628   2.257   7.127   4.667
  561TIP3    H2 1629   2.244   7.231   4.558
  562TIP3   OH2 1630   4.601   0.782   5.325
  562TIP3    H1 1631   4.514   0.815   5.305
  562TIP3    H2 1632   4.657   0.860   5.321
  563TIP3   OH2 1633   4.854   3.649   2.333
  563TIP3    H1 1634   4.802   3.621   2.409
  563TIP3    H2 1635   4.938   3.674   2.370
  564TIP3   OH2 1636   1.232   4.618   6.470
  564TIP3    H1 1637   1.240   4.585   6.560
  564TIP3    H2 1638   1.318   4.605   6.431
  565TIP3   OH2 1639   5.375   0.787   6.377
  565TIP3    H1 1640   5.360   0.697   6.407
  565TIP3    H2 1641   5.379   0.780   6.281
  566TIP3   OH2 1642   7.366   5.067   1.371
  566TIP3    H1 1643   7.392   5.066   1.279
  566TIP3    H2 1644   7.272   5.086   1.369
  567TIP3   OH2 1645   5.328   5.580   3.812
  567TIP3    H1 1646   5.379   5.608   3.736
  567TIP3    H2 1647   5.246   5.547   3.776
  568TIP3   OH2 1648   5.180   6.787   5.530
  568TIP3    H1 1649   5.162   6.783   5.624
  568TIP3    H2 1650   5.181   6.695   5.502
  569TIP3   OH2 1651   6.522   2.417   1.954
  569TIP3    H1 1652   6.496   2.419   2.046
  569TIP3    H2 1653   6.441   2.437   1.906
  570TIP3   OH2 1654   3.731   0.191   1.586
  570TIP3    H1 1655   3.782   0.148   1.655
  570TIP3    H2 1656   3.659   0.131   1.569
  571TIP3   OH2 1657   5.992   3.391   2.506
  571TIP3    H1 1658   6.026   3.388   2.416
  571TIP3    H2 1659   5.949   3.306   2.518
  572TIP3   OH2 1660   5.412   0.862   4.699
  572TIP3    H1 1661   5.504   0.864   4.724
  572TIP3    H2 1662   5.384   0.953   4.698
  573TIP3   OH2 1663   8.185   5.670   6.542
  573TIP3    H1 1664   8.231   5.694   6.623
  573TIP3    H2 1665   8.109   5.620   6.571
  574TIP3   OH2 1666   7.315   2.835   2.279
  574TIP3    H1 1667   7.291   2.753   2.235
  574TIP3    H2 1668   7.241   2.853   2.337
  575TIP3   OH2 1669   4.140   6.371   0.981
  575TIP3    H1 1670   4.090   6.356   1.061
  575TIP3    H2 1671   4.172   6.461   0.990
  576TIP3   OH2 1672   4.993   1.464   6.329
  576TIP3    H1 1673   5.049   1.429   6.398
  576TIP3    H2 1674   4.925   1.513   6.375
  577TIP3   OH2 1675   3.347   7.496   1.266
  577TIP3    H1 1676   3.420   7.436   1.282
  577TIP3    H2 1677   3.354   7.562   1.335
  578TIP3   OH2 1678   2.321   2.904   3.083
  578TIP3    H1 1679   2.234   2.943   3.077
  578TIP3    H2 1680   2.360   2.920   2.997
  579TIP3   OH2 1681   7.283   6.469   2.462
  579TIP3    H1 1682   7.346   6.532   2.428
  579TIP3    H2 1683   7.199   6.497   2.424
  580TIP3   OH2 1684   3.735   3.417   3.006
  580TIP3    H1 1685   3.822   3.448   2.982
  580TIP3    H2 1686   3.709   3.473   3.079
  581TIP3   OH2 1687   8.159   3.397   4.049
  581TIP3    H1 1688   8.209   3.321   4.020
  581TIP3    H2 1689   8.078   3.360   4.084
  582TIP3   OH2 1690   6.742   0.045   0.838
  582TIP3    H1 1691   6.823  -0.003   0.853
  582TIP3    H2 1692   6.769   0.136   0.826
  583TIP3   OH2 1693   0.393   7.621   6.467
  583TIP3    H1 1694   0.473   7.589   6.426
  583TIP3    H2 1695   0.378   7.707   6.428
  584TIP3   OH2 1696   3.159   5.972   0.816
  584TIP3    H1 1697   3.214   5.895   0.802
  584TIP3    H2 1698   3.089   5.942   0.874
  585TIP3   OH2 1699   2.736   3.126   4.146
  585TIP3    H1 1700   2.759   3.188   4.215
  585TIP3    H2 1701   2.707   3.181   4.073
  586TIP3   OH2 1702   7.224   6.951   4.975
  586TIP3    H1 1703   7.136   6.951   4.937
  586TIP3    H2 1704   7.209   6.955   5.070
  587TIP3   OH2 1705   0.618   3.298   6.362
  587TIP3    H1 1706   0.703   3.296   6.318
  587TIP3    H2 1707   0.565   3.235   6.314
  588TIP3   OH2 1708   8.016   6.674   4.070
  588TIP3    H1 1709   7.954   6.616   4.114
  588TIP3    H2 1710   8.060   6.720   4.141
  589TIP3   OH2 1711   7.035   4.023   4.785
  589TIP3    H1 1712   7.064   4.104   4.744
  589TIP3    H2 1713   6.940   4.021   4.769
  590TIP3   OH2 1714   5.648   3.276   4.463
  590TIP3    H1 1715   5.667   3.345   4.400
  590TIP3    H2 1716   5.565   3.301   4.502
  591TIP3   OH2 1717   0.852   0.909   2.540
  591TIP3    H1 1718   0.895   0.975   2.594
  591TIP3    H2 1719   0.799   0.960   2.478
  592TIP3   OH2 1720   6.609   0.798   1.728
  592TIP3    H1 1721   6.572   0.847   1.655
  592TIP3    H2 1722   6.618   0.709   1.695
  593TIP3   OH2 1723   4.265   4.511   6.255
  593TIP3    H1 1724   4.200   4.487   6.189
  593TIP3    H2 1725   4.345   4.466   6.227
  594TIP3   OH2 1726   1.768   6.945   3.403
  594TIP3    H1 1727   1.695   6.886   3.384
  594TIP3    H2 1728   1.782   6.993   3.322
  595TIP3   OH2 1729   0.199   5.873   0.343
  595TIP3    H1 1730   0.221   5.917   0.262
  595TIP3    H2 1731   0.106   5.854   0.336
  596TIP3   OH2 1732   3.378   2.713   2.267
  596TIP3    H1 1733   3.447   2.646   2.267
  596TIP3    H2 1734   3.303   2.671   2.309
  597TIP3   OH2 1735   6.338   4.715   5.380
  597TIP3    H1 1736   6.352   4.784   5.445
  597TIP3    H2 1737   6.424   4.674   5.370
  598TIP3   OH2 1738   0.830   3.286   4.924
  598TIP3    H1 1739   0.752   3.253   4.880
  598TIP3    H2 1740   0.863   3.354   4.865
  599TIP3   OH2 1741   3.196   1.830   1.465
  599TIP3    H1 1742   3.209   1.824   1.560
  599TIP3    H2 1743   3.138   1.906   1.454
  600TIP3   OH2 1744   6.771   0.288   2.378
  600TIP3    H1 1745   6.857   0.253   2.401
  600TIP3    H2 1746   6.711   0.216   2.398
  601TIP3   OH2 1747   1.673   5.473   6.508
  601TIP3    H1 1748   1.746   5.415   6.487
  601TIP3    H2 1749   1.705   5.527   6.580
  602TIP3   OH2 1750   0.012   2.167   3.584
  602TIP3    H1 1751   0.091   2.218   3.601
  602TIP3    H2 1752  -0.050   2.231   3.550
  603TIP3   OH2 1753   6.484   6.286   3.024
  603TIP3    H1 1754   6.429   6.319   2.953
  603TIP3    H2 1755   6.487   6.358   3.088
  604TIP3   OH2 1756   2.852   0.518   5.582
  604TIP3    H1 1757   2.806   0.483   5.506
  604TIP3    H2 1758   2.783   0.547   5.641
  605TIP3   OH2 1759   2.816   5.457   5.149
  605TIP3    H1 1760   2.887   5.497   5.200
  605TIP3    H2 1761   2.837   5.477   5.058
  606TIP3   OH2 1762   5.509   5.453   1.459
  606TIP3    H1 1763   5.468   5.507   1.527
  606TIP3    H2 1764   5.442   5.446   1.391
  607TIP3   OH2 1765   8.153   1.447   4.552
  607TIP3    H1 1766   8.199   1.475   4.631
  607TIP3    H2 1767   8.205   1.482   4.480
  608TIP3   OH2 1768   6.313   4.579   2.816
  608TIP3    H1 1769   6.310   4.549   2.725
  608TIP3    H2 1770   6.402   4.611   2.828
  609TIP3   OH2 1771   2.690   7.139   2.311
  609TIP3    H1 1772   2.768   7.188   2.339
  609TIP3    H2 1773   2.724   7.069   2.256
  610TIP3   OH2 1774   7.000   2.316   4.384
  610TIP3    H1 1775   6.907   2.335   4.380
  610TIP3    H2 1776   7.008   2.255   4.458
  611TIP3   OH2 1777   1.119   2.932   0.335
  611TIP3    H1 1778   1.121   2.961   0.427
  611TIP3    H2 1779   1.189   2.983   0.293
  612TIP3   OH2 1780   2.502   3.423   5.023
  612TIP3    H1 1781   2.480   3.478   5.099
  612TIP3    H2 1782   2.542   3.345   5.061
  613TIP3   OH2 1783   7.048   7.579   3.373
  613TIP3    H1 1784   7.126   7.526   3.359
  613TIP3    H2 1785   7.081   7.668   3.383
  614TIP3   OH2 1786   7.424   4.461   1.770
  614TIP3    H1 1787   7.486   4.474   1.842
  614TIP3    H2 1788   7.349   4.516   1.792
  615TIP3   OH2 1789   1.081   6.799   3.843
  615TIP3    H1 1790   1.087   6.743   3.920
  615TIP3    H2 1791   1.129   6.878   3.867
  616TIP3   OH2 1792   3.223   2.562   6.563
  616TIP3    H1 1793   3.246   2.529   6.650
  616TIP3    H2 1794   3.135   2.599   6.574
  617TIP3   OH2 1795   6.934   2.574   3.332
  617TIP3    H1 1796   6.916   2.623   3.252
  617TIP3    H2 1797   6.848   2.556   3.369
  618TIP3   OH2 1798   5.988   7.376   5.215
  618TIP3    H1 1799   6.037   7.402   5.137
  618TIP3    H2 1800   6.055   7.352   5.279
  619TIP3   OH2 1801   4.456   3.838   1.725
  619TIP3    H1 1802   4.471   3.761   1.779
  619TIP3    H2 1803   4.540   3.855   1.682
  620TIP3   OH2 1804   7.232   5.665   1.964
  620TIP3    H1 1805   7.218   5.582   2.010
  620TIP3    H2 1806   7.325   5.685   1.978
  621TIP3   OH2 1807   4.663   5.570   5.281
  621TIP3    H1 1808   4.608   5.517   5.224
  621TIP3    H2 1809   4.722   5.617   5.221
  622TIP3   OH2 1810   0.761   5.027   1.814
  622TIP3    H1 1811   0.702   5.072   1.753
  622TIP3    H2 1812   0.788   5.096   1.876
  623TIP3   OH2 1813   4.975   3.501   0.408
  623TIP3    H1 1814   5.003   3.422   0.455
  623TIP3    H2 1815   5.003   3.487   0.318
  624TIP3   OH2 1816   5.384   3.627   2.892
  624TIP3    H1 1817   5.393   3.687   2.966
  624TIP3    H2 1818   5.363   3.684   2.818
  625TIP3   OH2 1819   5.678   7.049   3.379
  625TIP3    H1 1820   5.609   7.072   3.317
  625TIP3    H2 1821   5.758   7.049   3.326
  626TIP3   OH2 1822   3.726   5.669   2.264
  626TIP3    H1 1823   3.700   5.733   2.330
  626TIP3    H2 1824   3.809   5.702   2.230
  627TIP3   OH2 1825   5.947   6.639   3.585
  627TIP3    H1 1826   5.873   6.690   3.552
  627TIP3    H2 1827   6.023   6.676   3.541
  628TIP3   OH2 1828   0.929   4.738   6.165
  628TIP3    H1 1829   0.838   4.743   6.192
  628TIP3    H2 1830   0.955   4.648   6.184
  629TIP3   OH2 1831   4.135   7.531   1.125
  629TIP3    H1 1832   4.044   7.557   1.139
  629TIP3    H2 1833   4.131   7.469   1.051
  630TIP3   OH2 1834   4.685   1.184   3.353
  630TIP3    H1 1835   4.678   1.171   3.448
  630TIP3    H2 1836   4.707   1.097   3.320
  631TIP3   OH2 1837   0.148   2.148   4.020
  631TIP3    H1 1838   0.054   2.129   4.010
  631TIP3    H2 1839   0.181   2.078   4.077
  632TIP3   OH2 1840   2.777   0.955   3.557
  632TIP3    H1 1841   2.720   0.884   3.588
  632TIP3    H2 1842   2.865   0.925   3.579
  633TIP3   OH2 1843   6.756   0.076   3.587
  633TIP3    H1 1844   6.714   0.130   3.655
  633TIP3    H2 1845   6.687   0.018   3.557
  634TIP3   OH2 1846   7.881   3.774   5.314
  634TIP3    H1 1847   7.800   3.728   5.293
  634TIP3    H2 1848   7.852   3.853   5.361
  635TIP3   OH2 1849   3.646   7.429   5.113
  635TIP3    H1 1850   3.729   7.452   5.071
  635TIP3    H2 1851   3.664   7.434   5.207
  636TIP3   OH2 1852   3.837   6.161   0.496
  636TIP3    H1 1853   3.785   6.215   0.556
  636TIP3    H2 1854   3.871   6.090   0.550
  637TIP3   OH2 1855   6.389   6.648   0.481
  637TIP3    H1 1856   6.349   6.576   0.432
  637TIP3    H2 1857   6.471   6.665   0.435
  638TIP3   OH2 1858   4.544   3.356   5.303
  638TIP3    H1 1859   4.456   3.379   5.331
  638TIP3    H2 1860   4.583   3.439   5.274
  639TIP3   OH2 1861   5.052   7.458   2.323
  639TIP3    H1 1862   5.111   7.534   2.329
  639TIP3    H2 1863   4.973   7.493   2.280
  640TIP3   OH2 1864   8.085   2.308   3.196
  640TIP3    H1 1865   7.998   2.270   3.209
  640TIP3    H2 1866   8.125   2.307   3.283
  641TIP3   OH2 1867   6.207   0.843   4.312
  641TIP3    H1 1868   6.166   0.759   4.294
  641TIP3    H2 1869   6.217   0.845   4.407
  642TIP3   OH2 1870   0.499   6.085   1.420
  642TIP3    H1 1871   0.515   6.088   1.325
  642TIP3    H2 1872   0.415   6.130   1.431
  643TIP3   OH2 1873   0.676   4.336   4.281
  643TIP3    H1 1874   0.715   4.418   4.252
  643TIP3    H2 1875   0.582   4.353   4.284
  644TIP3   OH2 1876   1.432   4.525   6.301
  644TIP3    H1 1877   1.445   4.494   6.211
  644TIP3    H2 1878   1.510   4.577   6.319
  645TIP3   OH2 1879   7.876   0.308   3.988
  645TIP3    H1 1880   7.834   0.227   4.018
  645TIP3    H2 1881   7.861   0.310   3.894
  646TIP3   OH2 1882   7.928   1.504   0.320
  646TIP3    H1 1883   7.888   1.448   0.386
  646TIP3    H2 1884   7.874   1.491   0.242
  647TIP3   OH2 1885   1.251   1.480   1.658
  647TIP3    H1 1886   1.237   1.386   1.644
  647TIP3    H2 1887   1.221   1.522   1.578
  648TIP3   OH2 1888   6.180   0.212   0.383
  648TIP3    H1 1889   6.246   0.184   0.320
  648TIP3    H2 1890   6.140   0.290   0.343
  649TIP3   OH2 1891   4.329   1.648   3.773
  649TIP3    H1 1892   4.271   1.679   3.704
  649TIP3    H2 1893   4.306   1.700   3.850
  650TIP3   OH2 1894   4.647   0.234   0.343
  650TIP3    H1 1895   4.678   0.322   0.366
  650TIP3    H2 1896   4.554   0.234   0.367
  651TIP3   OH2 1897   4.593   4.215   4.800
  651TIP3    H1 1898   4.501   4.200   4.822
  651TIP3    H2 1899   4.639   4.210   4.884
  652TIP3   OH2 1900   5.704   6.250   4.186
  652TIP3    H1 1901   5.761   6.185   4.146
  652TIP3    H2 1902   5.757   6.290   4.255
  653TIP3   OH2 1903   1.588   0.426   6.526
  653TIP3    H1 1904   1.609   0.509   6.568
  653TIP3    H2 1905   1.528   0.449   6.455
  654TIP3   OH2 1906   5.351   3.158   0.620
  654TIP3    H1 1907   5.389   3.091   0.562
  654TIP3    H2 1908   5.354   3.118   0.707
  655TIP3   OH2 1909   1.431   0.077   2.280
  655TIP3    H1 1910   1.357   0.071   2.220
  655TIP3    H2 1911   1.482  -0.002   2.264
  656TIP3   OH2 1912   3.729   7.351   6.140
  656TIP3    H1 1913   3.670   7.340   6.065
  656TIP3    H2 1914   3.700   7.432   6.181
  657TIP3   OH2 1915   6.910   4.087   2.783
  657TIP3    H1 1916   6.975   4.021   2.808
  657TIP3    H2 1917   6.884   4.126   2.866
  658TIP3   OH2 1918   3.505   7.269   0.767
  658TIP3    H1 1919   3.473   7.186   0.803
  658TIP3    H2 1920   3.584   7.245   0.719
  659TIP3   OH2 1921   8.227   4.170   1.373
  659TIP3    H1 1922   8.174   4.203   1.301
  659TIP3    H2 1923   8.249   4.248   1.424
  660TIP3   OH2 1924   7.932   7.080   5.326
  660TIP3    H1 1925   7.889   7.157   5.287
  660TIP3    H2 1926   7.861   7.016   5.334
  661TIP3   OH2 1927   7.704   3.924   4.233
  661TIP3    H1 1928   7.652   3.990   4.188
  661TIP3    H2 1929   7.705   3.849   4.173
  662TIP3   OH2 1930   0.955   2.050   4.437
  662TIP3    H1 1931   0.957   1.969   4.488
  662TIP3    H2 1932   1.044   2.058   4.402
  663TIP3   OH2 1933   1.698   3.167   3.019
  663TIP3    H1 1934   1.632   3.164   3.088
  663TIP3    H2 1935   1.687   3.253   2.979
  664TIP3   OH2 1936   3.363   6.404   2.799
  664TIP3    H1 1937   3.338   6.448   2.880
  664TIP3    H2 1938   3.305   6.328   2.794
  665TIP3   OH2 1939   7.135   4.104   6.014
  665TIP3    H1 1940   7.160   4.186   5.971
  665TIP3    H2 1941   7.104   4.131   6.100
  666TIP3   OH2 1942   6.225   7.184   4.676
  666TIP3    H1 1943   6.270   7.181   4.592
  666TIP3    H2 1944   6.165   7.258   4.669
  667TIP3   OH2 1945   8.244   3.748   1.087
  667TIP3    H1 1946   8.151   3.740   1.067
  667TIP3    H2 1947   8.250   3.824   1.145
  668TIP3   OH2 1948   0.931   2.220   6.410
  668TIP3    H1 1949   0.974   2.253   6.489
  668TIP3    H2 1950   0.990   2.151   6.379
  669TIP3   OH2 1951   4.302   2.659   2.691
  669TIP3    H1 1952   4.266   2.678   2.778
  669TIP3    H2 1953   4.237   2.601   2.651
  670TIP3   OH2 1954   2.911   1.421   4.210
  670TIP3    H1 1955   2.952   1.339   4.183
  670TIP3    H2 1956   2.979   1.487   4.194
  671TIP3   OH2 1957   0.645   1.160   0.861
  671TIP3    H1 1958   0.668   1.075   0.822
  671TIP3    H2 1959   0.555   1.175   0.833
  672TIP3   OH2 1960   4.945   1.993   3.108
  672TIP3    H1 1961   4.915   1.907   3.078
  672TIP3    H2 1962   5.016   1.974   3.168
  673TIP3   OH2 1963   7.389   6.131   3.420
  673TIP3    H1 1964   7.308   6.141   3.369
  673TIP3    H2 1965   7.450   6.089   3.360
  674TIP3   OH2 1966   6.561   2.684   2.427
  674TIP3    H1 1967   6.653   2.673   2.450
  674TIP3    H2 1968   6.513   2.633   2.492
  675TIP3   OH2 1969   6.863   3.869   1.580
  675TIP3    H1 1970   6.823   3.804   1.638
  675TIP3    H2 1971   6.842   3.839   1.492
  676TIP3   OH2 1972   6.197   6.725   5.131
  676TIP3    H1 1973   6.123   6.668   5.153
  676TIP3    H2 1974   6.188   6.800   5.191
  677TIP3   OH2 1975   6.621   5.996   6.138
  677TIP3    H1 1976   6.539   6.009   6.186
  677TIP3    H2 1977   6.688   6.038   6.191
  678TIP3   OH2 1978   7.124   3.963   4.448
  678TIP3    H1 1979   7.041   4.001   4.478
  678TIP3    H2 1980   7.114   3.956   4.353
  679TIP3   OH2 1981   5.808   6.714   6.621
  679TIP3    H1 1982   5.784   6.749   6.706
  679TIP3    H2 1983   5.767   6.774   6.558
  680TIP3   OH2 1984   6.608   6.843   2.797
  680TIP3    H1 1985   6.555   6.923   2.797
  680TIP3    H2 1986   6.692   6.870   2.762
  681TIP3   OH2 1987   2.606   4.480   3.202
  681TIP3    H1 1988   2.605   4.572   3.175
  681TIP3    H2 1989   2.695   4.451   3.182
  682TIP3   OH2 1990   7.636   1.272   1.594
  682TIP3    H1 1991   7.698   1.202   1.576
  682TIP3    H2 1992   7.557   1.248   1.545
  683TIP3   OH2 1993   2.646   5.324   4.211
  683TIP3    H1 1994   2.559   5.325   4.170
  683TIP3    H2 1995   2.702   5.368   4.147
  684TIP3   OH2 1996   5.021   0.427   4.571
  684TIP3    H1 1997   5.007   0.333   4.581
  684TIP3    H2 1998   5.055   0.456   4.655
  685TIP3   OH2 1999   2.893   2.861   3.345
  685TIP3    H1 2000   2.847   2.778   3.359
  685TIP3    H2 2001   2.939   2.849   3.261
  686TIP3   OH2 2002   3.280   6.441   0.304
  686TIP3    H1 2003   3.213   6.388   0.261
  686TIP3    H2 2004   3.354   6.439   0.244
  687TIP3   OH2 2005   5.938   5.497   4.251
  687TIP3    H1 2006   5.981   5.429   4.199
  687TIP3    H2 2007   5.847   5.468   4.258
  688TIP3   OH2 2008   4.147   7.463   0.835
  688TIP3    H1 2009   4.151   7.501   0.748
  688TIP3    H2 2010   4.059   7.427   0.842
  689TIP3   OH2 2011   5.859   2.890   2.270
  689TIP3    H1 2012   5.888   2.833   2.340
  689TIP3    H2 2013   5.925   2.880   2.201
  690TIP3   OH2 2014   6.622   5.781   5.758
  690TIP3    H1 2015   6.665   5.817   5.681
  690TIP3    H2 2016   6.693   5.765   5.821
  691TIP3   OH2 2017   6.944   2.809   3.980
  691TIP3    H1 2018   6.854   2.841   3.990
  691TIP3    H2 2019   6.938   2.715   3.995
  692TIP3   OH2 2020   3.932   3.325   0.646
  692TIP3    H1 2021   3.958   3.329   0.738
  692TIP3    H2 2022   3.965   3.240   0.615
  693TIP3   OH2 2023   4.294   4.229   6.480
  693TIP3    H1 2024   4.212   4.236   6.431
  693TIP3    H2 2025   4.331   4.317   6.478
  694TIP3   OH2 2026   4.368   1.616   0.641
  694TIP3    H1 2027   4.461   1.604   0.625
  694TIP3    H2 2028   4.364   1.682   0.711
  695TIP3   OH2 2029   2.469   2.199   4.739
  695TIP3    H1 2030   2.389   2.217   4.691
  695TIP3    H2 2031   2.536   2.190   4.672
  696TIP3   OH2 2032   1.786   4.876   5.196
  696TIP3    H1 2033   1.835   4.949   5.233
  696TIP3    H2 2034   1.852   4.823   5.152
  697TIP3   OH2 2035   1.657   5.724   3.123
  697TIP3    H1 2036   1.718   5.664   3.165
  697TIP3    H2 2037   1.608   5.670   3.061
  698TIP3   OH2 2038   7.198   7.388   3.245
  698TIP3    H1 2039   7.237   7.319   3.192
  698TIP3    H2 2040   7.128   7.424   3.191
  699TIP3   OH2 2041   4.721   2.561   6.550
  699TIP3    H1 2042   4.762   2.611   6.620
  699TIP3    H2 2043   4.791   2.548   6.485
  700TIP3   OH2 2044   2.321   6.708   0.323
  700TIP3    H1 2045   2.298   6.768   0.395
  700TIP3    H2 2046   2.321   6.763   0.245
  701TIP3   OH2 2047   5.573   2.636   0.696
  701TIP3    H1 2048   5.488   2.599   0.721
  701TIP3    H2 2049   5.635   2.563   0.707
  702TIP3   OH2 2050   0.417   4.820   5.443
  702TIP3    H1 2051   0.483   4.751   5.435
  702TIP3    H2 2052   0.388   4.815   5.534
  703TIP3   OH2 2053   0.688   2.542   3.355
  703TIP3    H1 2054   0.750   2.565   3.286
  703TIP3    H2 2055   0.733   2.474   3.406
  704TIP3   OH2 2056   3.673   6.181   5.833
  704TIP3    H1 2057   3.608   6.210   5.897
  704TIP3    H2 2058   3.622   6.139   5.764
  705TIP3   OH2 2059   6.126   4.501   6.448
  705TIP3    H1 2060   6.031   4.506   6.437
  705TIP3    H2 2061   6.154   4.438   6.382
  706TIP3   OH2 2062   7.689   6.815   4.021
  706TIP3    H1 2063   7.607   6.847   4.058
  706TIP3    H2 2064   7.727   6.761   4.090
  707TIP3   OH2 2065   3.329   0.869   5.300
  707TIP3    H1 2066   3.282   0.940   5.257
  707TIP3    H2 2067   3.278   0.852   5.380
  708TIP3   OH2 2068   7.814   2.295   4.534
  708TIP3    H1 2069   7.907   2.313   4.545
  708TIP3    H2 2070   7.783   2.271   4.621
  709TIP3   OH2 2071   6.575   3.867   2.954
  709TIP3    H1 2072   6.609   3.842   2.868
  709TIP3    H2 2073   6.653   3.876   3.009
  710TIP3   OH2 2074   0.369   5.388   3.822
  710TIP3    H1 2075   0.452   5.342   3.819
  710TIP3    H2 2076   0.324   5.351   3.898
  711TIP3   OH2 2077   6.092   6.280   6.107
  711TIP3    H1 2078   6.089   6.305   6.199
  711TIP3    H2 2079   6.101   6.363   6.059
  712TIP3   OH2 2080   1.841   1.314   4.840
  712TIP3    H1 2081   1.753   1.328   4.874
  712TIP3    H2 2082   1.851   1.219   4.837
  713TIP3   OH2 2083   7.838   3.305   3.341
  713TIP3    H1 2084   7.811   3.285   3.251
  713TIP3    H2 2085   7.922   3.260   3.352
  714TIP3   OH2 2086   1.090   5.439   3.597
  714TIP3    H1 2087   1.165   5.489   3.631
  714TIP3    H2 2088   1.031   5.505   3.562
  715TIP3   OH2 2089   5.919   1.683   0.158
  715TIP3    H1 2090   5.831   1.651   0.174
  715TIP3    H2 2091   5.976   1.608   0.177
  716TIP3   OH2 2092   2.009   2.878   0.962
  716TIP3    H1 2093   1.943   2.947   0.969
  716TIP3    H2 2094   1.981   2.811   1.025
  717TIP3   OH2 2095   1.990   4.749   1.401
  717TIP3    H1 2096   1.944   4.687   1.345
  717TIP3    H2 2097   1.974   4.835   1.361
  718TIP3   OH2 2098   1.410   7.196   2.113
  718TIP3    H1 2099   1.483   7.221   2.056
  718TIP3    H2 2100   1.413   7.259   2.185
  719TIP3   OH2 2101   4.810   2.778   3.353
  719TIP3    H1 2102   4.737   2.729   3.391
  719TIP3    H2 2103   4.776   2.810   3.269
  720TIP3   OH2 2104   2.201   3.428   4.453
  720TIP3    H1 2105   2.226   3.503   4.506
  720TIP3    H2 2106   2.146   3.375   4.510
  721TIP3   OH2 2107   0.480   0.151   2.251
  721TIP3    H1 2108   0.420   0.097   2.200
  721TIP3    H2 2109   0.524   0.090   2.309
  722TIP3   OH2 2110   8.045   3.705   2.641
  722TIP3    H1 2111   8.023   3.758   2.564
  722TIP3    H2 2112   8.070   3.769   2.708
  723TIP3   OH2 2113   5.040   5.220   0.387
  723TIP3    H1 2114   4.967   5.273   0.419
  723TIP3    H2 2115   4.999   5.141   0.353
  724TIP3   OH2 2116   7.219   3.422   3.505
  724TIP3    H1 2117   7.151   3.355   3.511
  724TIP3    H2 2118   7.177   3.496   3.464
  725TIP3   OH2 2119   3.258   0.207   1.089
  725TIP3    H1 2120   3.312   0.151   1.145
  725TIP3    H2 2121   3.322   0.259   1.039
  726TIP3   OH2 2122   5.433   0.676   5.484
  726TIP3    H1 2123   5.377   0.749   5.459
  726TIP3    H2 2124   5.511   0.686   5.430
  727TIP3   OH2 2125   6.562   5.370   2.074
  727TIP3    H1 2126   6.477   5.413   2.084
  727TIP3    H2 2127   6.616   5.407   2.144
  728TIP3   OH2 2128   2.346   1.502   3.278
  728TIP3    H1 2129   2.351   1.598   3.272
  728TIP3    H2 2130   2.436   1.474   3.293
  729TIP3   OH2 2131   3.698   5.396   4.359
  729TIP3    H1 2132   3.618   5.422   4.405
  729TIP3    H2 2133   3.693   5.442   4.275
  730TIP3   OH2 2134   6.006   0.782   2.839
  730TIP3    H1 2135   6.072   0.715   2.856
  730TIP3    H2 2136   6.055   0.864   2.834
  731TIP3   OH2 2137   3.734   1.338   2.932
  731TIP3    H1 2138   3.708   1.410   2.874
  731TIP3    H2 2139   3.811   1.301   2.891
  732TIP3   OH2 2140   8.087   0.622   6.345
  732TIP3    H1 2141   8.129   0.554   6.292
  732TIP3    H2 2142   8.091   0.701   6.290
  733TIP3   OH2 2143   4.052   2.722   0.912
  733TIP3    H1 2144   4.123   2.781   0.940
  733TIP3    H2 2145   3.999   2.775   0.852
  734TIP3   OH2 2146   7.174   6.610   4.031
  734TIP3    H1 2147   7.234   6.649   4.095
  734TIP3    H2 2148   7.087   6.625   4.067
  735TIP3   OH2 2149   3.717   3.066   5.155
  735TIP3    H1 2150   3.705   3.127   5.083
  735TIP3    H2 2151   3.804   3.085   5.190
  736TIP3   OH2 2152   8.028   2.557   5.413
  736TIP3    H1 2153   7.963   2.627   5.411
  736TIP3    H2 2154   7.978   2.477   5.427
  737TIP3   OH2 2155   1.230   7.117   0.784
  737TIP3    H1 2156   1.161   7.183   0.772
  737TIP3    H2 2157   1.312   7.167   0.783
  738TIP3   OH2 2158   7.925   5.033   6.646
  738TIP3    H1 2159   8.012   4.994   6.636
  738TIP3    H2 2160   7.943   5.124   6.669
  739TIP3   OH2 2161   5.716   2.066   6.132
  739TIP3    H1 2162   5.621   2.057   6.129
  739TIP3    H2 2163   5.745   2.040   6.045
  740TIP3   OH2 2164   5.291   5.542   0.951
  740TIP3    H1 2165   5.202   5.561   0.981
  740TIP3    H2 2166   5.286   5.546   0.856
  741TIP3   OH2 2167   7.691   2.104   5.685
  741TIP3    H1 2168   7.647   2.140   5.608
  741TIP3    H2 2169   7.678   2.010   5.679
  742TIP3   OH2 2170   3.266   5.317   1.377
  742TIP3    H1 2171   3.297   5.289   1.463
  742TIP3    H2 2172   3.298   5.406   1.367
  743TIP3   OH2 2173   8.238   0.417   5.353
  743TIP3    H1 2174   8.187   0.391   5.277
  743TIP3    H2 2175   8.278   0.336   5.385
  744TIP3   OH2 2176   7.124   0.982   3.933
  744TIP3    H1 2177   7.092   0.982   3.843
  744TIP3    H2 2178   7.054   1.024   3.984
  745TIP3   OH2 2179   5.748   2.063   6.534
  745TIP3    H1 2180   5.708   2.114   6.605
  745TIP3    H2 2181   5.792   2.128   6.479
  746TIP3   OH2 2182   4.435   2.159   3.584
  746TIP3    H1 2183   4.488   2.158   3.505
  746TIP3    H2 2184   4.355   2.206   3.559
  747TIP3   OH2 2185   2.293   3.477   4.795
  747TIP3    H1 2186   2.384   3.454   4.811
  747TIP3    H2 2187   2.252   3.393   4.771
  748TIP3   OH2 2188   0.282   1.650   0.526
  748TIP3    H1 2189   0.255   1.695   0.446
  748TIP3    H2 2190   0.272   1.557   0.506
  749TIP3   OH2 2191   7.081   5.358   0.886
  749TIP3    H1 2192   7.124   5.443   0.891
  749TIP3    H2 2193   7.092   5.330   0.796
  750TIP3   OH2 2194   1.241   6.011   6.226
  750TIP3    H1 2195   1.229   5.929   6.275
  750TIP3    H2 2196   1.157   6.056   6.235
  751TIP3   OH2 2197   3.201   7.670   4.169
  751TIP3    H1 2198   3.226   7.732   4.237
  751TIP3    H2 2199   3.183   7.588   4.216
  752TIP3   OH2 2200   5.563   3.034   2.885
  752TIP3    H1 2201   5.563   3.089   2.964
  752TIP3    H2 2202   5.471   3.028   2.861
  753TIP3   OH2 2203   1.037   2.031   1.284
  753TIP3    H1 2204   1.058   1.947   1.243
  753TIP3    H2 2205   1.045   2.015   1.378
  754TIP3   OH2 2206   6.378   3.756   1.263
  754TIP3    H1 2207   6.396   3.774   1.171
  754TIP3    H2 2208   6.403   3.837   1.309
  755TIP3   OH2 2209   6.812   0.792   2.908
  755TIP3    H1 2210   6.728   0.828   2.937
  755TIP3    H2 2211   6.874   0.818   2.975
  756TIP3   OH2 2212   6.167   2.639   0.502
  756TIP3    H1 2213   6.173   2.734   0.489
  756TIP3    H2 2214   6.190   2.626   0.594
  757TIP3   OH2 2215   5.440   5.298   0.970
  757TIP3    H1 2216   5.398   5.226   0.923
  757TIP3    H2 2217   5.391   5.376   0.943
  758TIP3   OH2 2218   2.894   7.368   1.659
  758TIP3    H1 2219   2.882   7.306   1.588
  758TIP3    H2 2220   2.809   7.409   1.671
  759TIP3   OH2 2221   6.344   4.692   6.435
  759TIP3    H1 2222   6.279   4.624   6.419
  759TIP3    H2 2223   6.389   4.664   6.514
  760TIP3   OH2 2224   5.115   7.557   5.607
  760TIP3    H1 2225   5.104   7.519   5.520
  760TIP3    H2 2226   5.210   7.564   5.617
  761TIP3   OH2 2227   1.088   7.213   4.380
  761TIP3    H1 2228   1.160   7.210   4.443
  761TIP3    H2 2229   1.084   7.125   4.344
  762TIP3   OH2 2230   0.337   1.816   4.738
  762TIP3    H1 2231   0.279   1.756   4.784
  762TIP3    H2 2232   0.411   1.761   4.711
  763TIP3   OH2 2233   7.903   0.935   3.971
  763TIP3    H1 2234   7.932   0.878   4.043
  763TIP3    H2 2235   7.902   0.877   3.895
  764TIP3   OH2 2236   1.603   6.321   4.468
  764TIP3    H1 2237   1.582   6.229   4.459
  764TIP3    H2 2238   1.561   6.348   4.550
  765TIP3   OH2 2239   2.924   2.009   5.868
  765TIP3    H1 2240   2.891   1.939   5.812
  765TIP3    H2 2241   2.925   2.086   5.811
  766TIP3   OH2 2242   0.505   3.465   5.287
  766TIP3    H1 2243   0.489   3.557   5.310
  766TIP3    H2 2244   0.594   3.464   5.254
  767TIP3   OH2 2245   2.127   0.377   4.995
  767TIP3    H1 2246   2.089   0.313   4.935
  767TIP3    H2 2247   2.051   0.425   5.029
  768TIP3   OH2 2248   7.354   5.083   1.106
  768TIP3    H1 2249   7.368   5.176   1.087
  768TIP3    H2 2250   7.413   5.037   1.047
  769TIP3   OH2 2251   5.518   6.950   0.057
  769TIP3    H1 2252   5.481   7.036   0.076
  769TIP3    H2 2253   5.452   6.907   0.003
  770TIP3   OH2 2254   3.876   2.147   2.894
  770TIP3    H1 2255   3.965   2.137   2.928
  770TIP3    H2 2256   3.871   2.239   2.865
  771TIP3   OH2 2257   7.412   6.613   1.670
  771TIP3    H1 2258   7.475   6.610   1.598
  771TIP3    H2 2259   7.338   6.663   1.636
  772TIP3   OH2 2260   3.186   1.907   6.622
  772TIP3    H1 2261   3.101   1.898   6.666
  772TIP3    H2 2262   3.215   1.996   6.645
  773TIP3   OH2 2263   0.840   5.086   4.019
  773TIP3    H1 2264   0.919   5.066   4.069
  773TIP3    H2 2265   0.843   5.181   4.006
  774TIP3   OH2 2266   4.219   5.311   0.725
  774TIP3    H1 2267   4.207   5.248   0.797
  774TIP3    H2 2268   4.294   5.278   0.676
  775TIP3   OH2 2269   5.726   6.656   4.783
  775TIP3    H1 2270   5.795   6.625   4.724
  775TIP3    H2 2271   5.648   6.662   4.728
  776TIP3   OH2 2272   7.618   4.970   6.318
  776TIP3    H1 2273   7.588   5.001   6.232
  776TIP3    H2 2274   7.641   4.879   6.303
  777TIP3   OH2 2275   3.417   0.530   3.562
  777TIP3    H1 2276   3.388   0.559   3.649
  777TIP3    H2 2277   3.513   0.529   3.568
  778TIP3   OH2 2278   3.267   6.181   6.669
  778TIP3    H1 2279   3.349   6.189   6.619
  778TIP3    H2 2280   3.256   6.266   6.711
  779TIP3   OH2 2281   2.826   6.352   0.113
  779TIP3    H1 2282   2.883   6.328   0.039
  779TIP3    H2 2283   2.738   6.354   0.075
  780TIP3   OH2 2284   4.204   1.440   2.542
  780TIP3    H1 2285   4.160   1.357   2.525
  780TIP3    H2 2286   4.275   1.418   2.603
  781TIP3   OH2 2287   4.769   7.795   5.364
  781TIP3    H1 2288   4.842   7.798   5.302
  781TIP3    H2 2289   4.726   7.711   5.346
  782TIP3   OH2 2290   6.941   7.673   0.569
  782TIP3    H1 2291   7.016   7.732   0.563
  782TIP3    H2 2292   6.891   7.689   0.490
  783TIP3   OH2 2293   4.811   4.379   5.394
  783TIP3    H1 2294   4.831   4.459   5.442
  783TIP3    H2 2295   4.745   4.334   5.448
  784TIP3   OH2 2296   2.499   3.603   4.552
  784TIP3    H1 2297   2.529   3.590   4.642
  784TIP3    H2 2298   2.502   3.515   4.513
  785TIP3   OH2 2299   3.214   1.928   1.793
  785TIP3    H1 2300   3.249   2.007   1.753
  785TIP3    H2 2301   3.280   1.902   1.857
  786TIP3   OH2 2302   6.961   2.366   3.072
  786TIP3    H1 2303   6.909   2.306   3.125
  786TIP3    H2 2304   7.041   2.318   3.051
  787TIP3   OH2 2305   7.373   4.747   3.550
  787TIP3    H1 2306   7.364   4.814   3.483
  787TIP3    H2 2307   7.379   4.795   3.632
  788TIP3   OH2 2308   6.112   3.893   1.897
  788TIP3    H1 2309   6.076   3.918   1.811
  788TIP3    H2 2310   6.117   3.975   1.945
  789TIP3   OH2 2311   3.089   6.702   0.140
  789TIP3    H1 2312   3.149   6.663   0.076
  789TIP3    H2 2313   3.017   6.736   0.087
  790TIP3   OH2 2314   4.930   3.059   6.597
  790TIP3    H1 2315   4.956   3.149   6.579
  790TIP3    H2 2316   4.926   3.053   6.692
  791TIP3   OH2 2317   2.105   4.013   2.466
  791TIP3    H1 2318   2.139   3.925   2.450
  791TIP3    H2 2319   2.173   4.056   2.517
  792TIP3   OH2 2320   3.101   2.677   4.515
  792TIP3    H1 2321   3.019   2.691   4.469
  792TIP3    H2 2322   3.164   2.658   4.445
  793TIP3   OH2 2323   4.993   1.176   2.280
  793TIP3    H1 2324   5.021   1.122   2.354
  793TIP3    H2 2325   4.984   1.264   2.317
  794TIP3   OH2 2326   3.376   7.631   0.499
  794TIP3    H1 2327   3.358   7.541   0.527
  794TIP3    H2 2328   3.409   7.675   0.578
  795TIP3   OH2 2329   5.254   3.720   4.129
  795TIP3    H1 2330   5.211   3.804   4.112
  795TIP3    H2 2331   5.192   3.654   4.097
  796TIP3   OH2 2332   2.340   2.479   3.258
  796TIP3    H1 2333   2.299   2.403   3.300
  796TIP3    H2 2334   2.428   2.448   3.235
  797TIP3   OH2 2335   4.408   4.554   1.610
  797TIP3    H1 2336   4.487   4.585   1.565
  797TIP3    H2 2337   4.416   4.459   1.612
  798TIP3   OH2 2338   3.073   4.414   0.672
  798TIP3    H1 2339   3.122   4.332   0.666
  798TIP3    H2 2340   3.116   4.472   0.608
  799TIP3   OH2 2341   5.229   4.783   0.746
  799TIP3    H1 2342   5.283   4.854   0.780
  799TIP3    H2 2343   5.151   4.783   0.802
  800TIP3   OH2 2344   7.628   7.659   0.323
  800TIP3    H1 2345   7.623   7.565   0.336
  800TIP3    H2 2346   7.548   7.681   0.274
  801TIP3   OH2 2347   0.128   7.602   0.380
  801TIP3    H1 2348   0.126   7.680   0.435
  801TIP3    H2 2349   0.216   7.602   0.343
  802TIP3   OH2 2350   5.419   2.940   6.713
  802TIP3    H1 2351   5.480   2.983   6.653
  802TIP3    H2 2352   5.474   2.912   6.787
  803TIP3   OH2 2353   1.787   3.206   0.265
  803TIP3    H1 2354   1.741   3.241   0.342
  803TIP3    H2 2355   1.721   3.154   0.220
  804TIP3   OH2 2356   2.329   1.424   6.086
  804TIP3    H1 2357   2.265   1.479   6.041
  804TIP3    H2 2358   2.294   1.335   6.077
  805TIP3   OH2 2359   2.677   2.734   0.060
  805TIP3    H1 2360   2.583   2.744   0.043
  805TIP3    H2 2361   2.696   2.793   0.132
  806TIP3   OH2 2362   7.693   6.332   0.414
  806TIP3    H1 2363   7.664   6.267   0.479
  806TIP3    H2 2364   7.632   6.405   0.425
  807TIP3   OH2 2365   4.448   5.816   3.498
  807TIP3    H1 2366   4.372   5.763   3.521
  807TIP3    H2 2367   4.414   5.905   3.485
  808TIP3   OH2 2368   4.948   0.993   1.278
  808TIP3    H1 2369   4.909   0.943   1.206
  808TIP3    H2 2370   4.918   0.949   1.357
  809TIP3   OH2 2371   2.521   5.986   2.106
  809TIP3    H1 2372   2.475   6.055   2.154
  809TIP3    H2 2373   2.600   5.969   2.157
  810TIP3   OH2 2374   5.755   6.758   3.443
  810TIP3    H1 2375   5.755   6.853   3.444
  810TIP3    H2 2376   5.805   6.734   3.365
  811TIP3   OH2 2377   7.612   1.580   5.331
  811TIP3    H1 2378   7.684   1.574   5.394
  811TIP3    H2 2379   7.559   1.653   5.362
  812TIP3   OH2 2380   3.629   2.676   2.508
  812TIP3    H1 2381   3.573   2.635   2.574
  812TIP3    H2 2382   3.622   2.618   2.432
  813TIP3   OH2 2383   2.726   4.829   2.064
  813TIP3    H1 2384   2.787   4.847   1.992
  813TIP3    H2 2385   2.667   4.762   2.029
  814TIP3   OH2 2386   2.593   3.166   5.757
  814TIP3    H1 2387   2.640   3.244   5.729
  814TIP3    H2 2388   2.637   3.139   5.838
  815TIP3   OH2 2389   7.716   7.318   3.741
  815TIP3    H1 2390   7.662   7.396   3.729
  815TIP3    H2 2391   7.657   7.254   3.780
  816TIP3   OH2 2392   3.254   3.913   3.085
  816TIP3    H1 2393   3.324   3.911   3.150
  816TIP3    H2 2394   3.251   4.004   3.055
  817TIP3   OH2 2395   7.068   0.105   5.983
  817TIP3    H1 2396   7.127   0.147   5.921
  817TIP3    H2 2397   7.125   0.067   6.049
  818TIP3   OH2 2398   5.803   3.147   2.995
  818TIP3    H1 2399   5.716   3.143   3.035
  818TIP3    H2 2400   5.833   3.056   2.996
  819TIP3   OH2 2401   8.295   3.058   0.100
  819TIP3    H1 2402   8.277   3.030   0.010
  819TIP3    H2 2403   8.256   3.146   0.105
  820TIP3   OH2 2404   7.692   5.954   3.757
  820TIP3    H1 2405   7.618   5.978   3.813
  820TIP3    H2 2406   7.753   5.909   3.816
  821TIP3   OH2 2407   5.039   0.528   1.318
  821TIP3    H1 2408   5.040   0.537   1.413
  821TIP3    H2 2409   5.092   0.601   1.286
  822TIP3   OH2 2410   5.120   5.678   2.811
  822TIP3    H1 2411   5.171   5.701   2.889
  822TIP3    H2 2412   5.046   5.627   2.846
  823TIP3   OH2 2413   3.039   0.153   2.111
  823TIP3    H1 2414   3.101   0.145   2.039
  823TIP3    H2 2415   2.954   0.160   2.069
  824TIP3   OH2 2416   4.336   1.528   4.500
  824TIP3    H1 2417   4.302   1.527   4.410
  824TIP3    H2 2418   4.414   1.583   4.496
  825TIP3   OH2 2419   4.139   0.587   3.888
  825TIP3    H1 2420   4.216   0.606   3.836
  825TIP3    H2 2421   4.172   0.572   3.976
  826TIP3   OH2 2422   7.903   2.804   0.859
  826TIP3    H1 2423   7.813   2.773   0.873
  826TIP3    H2 2424   7.937   2.748   0.790
  827TIP3   OH2 2425   3.164   6.013   2.051
  827TIP3    H1 2426   3.256   6.026   2.076
  827TIP3    H2 2427   3.118   6.088   2.089
  828TIP3   OH2 2428   3.942   5.895   0.397
  828TIP3    H1 2429   3.861   5.866   0.356
  828TIP3    H2 2430   3.926   5.884   0.491
  829TIP3   OH2 2431   3.322   4.201   4.573
  829TIP3    H1 2432   3.229   4.184   4.563
  829TIP3    H2 2433   3.337   4.193   4.668
  830TIP3   OH2 2434   5.145   7.289   0.584
  830TIP3    H1 2435   5.211   7.357   0.599
  830TIP3    H2 2436   5.195   7.214   0.551
  831TIP3   OH2 2437   6.310   7.811   6.245
  831TIP3    H1 2438   6.339   7.720   6.252
  831TIP3    H2 2439   6.363   7.847   6.174
  832TIP3   OH2 2440   2.662   1.077   2.347
  832TIP3    H1 2441   2.595   1.033   2.294
  832TIP3    H2 2442   2.645   1.170   2.334
  833TIP3   OH2 2443   3.246   2.839   2.076
  833TIP3    H1 2444   3.318   2.811   2.019
  833TIP3    H2 2445   3.265   2.799   2.161
  834TIP3   OH2 2446   5.641   7.252   2.790
  834TIP3    H1 2447   5.676   7.300   2.715
  834TIP3    H2 2448   5.670   7.302   2.866
  835TIP3   OH2 2449   2.456   7.773   5.539
  835TIP3    H1 2450   2.461   7.867   5.523
  835TIP3    H2 2451   2.521   7.758   5.607
  836TIP3   OH2 2452   8.206   3.287   4.870
  836TIP3    H1 2453   8.204   3.229   4.795
  836TIP3    H2 2454   8.291   3.270   4.911
  837TIP3   OH2 2455   4.297   3.699   5.543
  837TIP3    H1 2456   4.315   3.791   5.560
  837TIP3    H2 2457   4.383   3.657   5.545
  838TIP3   OH2 2458   5.996   1.848   0.963
  838TIP3    H1 2459   5.977   1.925   0.910
  838TIP3    H2 2460   6.004   1.881   1.052
  839TIP3   OH2 2461   2.436   1.457   1.667
  839TIP3    H1 2462   2.453   1.363   1.665
  839TIP3    H2 2463   2.495   1.491   1.735
  840TIP3   OH2 2464   4.785   0.446   5.120
  840TIP3    H1 2465   4.799   0.489   5.036
  840TIP3    H2 2466   4.873   0.440   5.159
  841TIP3   OH2 2467   0.319   2.633   6.636
  841TIP3    H1 2468   0.330   2.546   6.675
  841TIP3    H2 2469   0.224   2.648   6.638
  842TIP3   OH2 2470   6.222   4.057   2.313
  842TIP3    H1 2471   6.169   4.084   2.387
  842TIP3    H2 2472   6.308   4.097   2.329
  843TIP3   OH2 2473   0.673   3.133   1.200
  843TIP3    H1 2474   0.732   3.206   1.215
  843TIP3    H2 2475   0.614   3.134   1.276
  844TIP3   OH2 2476   2.217   4.436   4.291
  844TIP3    H1 2477   2.265   4.383   4.355
  844TIP3    H2 2478   2.129   4.442   4.325
  845TIP3   OH2 2479   3.894   1.664   3.477
  845TIP3    H1 2480   3.840   1.589   3.449
  845TIP3    H2 2481   3.883   1.729   3.408
  846TIP3   OH2 2482   1.152   7.612   4.469
  846TIP3    H1 2483   1.091   7.543   4.447
  846TIP3    H2 2484   1.113   7.692   4.433
  847TIP3   OH2 2485   7.555   5.531   2.880
  847TIP3    H1 2486   7.520   5.618   2.900
  847TIP3    H2 2487   7.514   5.507   2.797
  848TIP3   OH2 2488   4.283   0.983   3.904
  848TIP3    H1 2489   4.254   1.060   3.855
  848TIP3    H2 2490   4.335   1.018   3.976
  849TIP3   OH2 2491   0.304   1.031   5.393
  849TIP3    H1 2492   0.366   0.960   5.407
  849TIP3    H2 2493   0.218   0.991   5.404
  850TIP3   OH2 2494   4.911   4.872   0.149
  850TIP3    H1 2495   4.929   4.945   0.090
  850TIP3    H2 2496   4.815   4.868   0.154
  851TIP3   OH2 2497   0.025   4.902   0.186
  851TIP3    H1 2498   0.103   4.882   0.134
  851TIP3    H2 2499  -0.048   4.883   0.127
  852TIP3   OH2 2500   2.815   5.655   2.643
  852TIP3    H1 2501   2.746   5.654   2.577
  852TIP3    H2 2502   2.778   5.608   2.718
  853TIP3   OH2 2503   4.669   1.252   6.510
  853TIP3    H1 2504   4.720   1.285   6.583
  853TIP3    H2 2505   4.702   1.163   6.495
  854TIP3   OH2 2506   0.570   6.907   4.774
  854TIP3    H1 2507   0.548   6.890   4.683
  854TIP3    H2 2508   0.598   6.999   4.776
  855TIP3   OH2 2509   6.900   4.048   3.574
  855TIP3    H1 2510   6.956   4.039   3.651
  855TIP3    H2 2511   6.813   4.023   3.604
  856TIP3   OH2 2512   2.125   3.921   5.042
  856TIP3    H1 2513   2.120   3.836   4.998
  856TIP3    H2 2514   2.144   3.900   5.133
  857TIP3   OH2 2515   2.406   1.261   3.646
  857TIP3    H1 2516   2.383   1.272   3.553
  857TIP3    H2 2517   2.330   1.217   3.684
  858TIP3   OH2 2518   0.892   5.615   6.331
  858TIP3    H1 2519   0.870   5.706   6.313
  858TIP3    H2 2520   0.969   5.598   6.277
  859TIP3   OH2 2521   5.536   7.818   5.149
  859TIP3    H1 2522   5.529   7.749   5.215
  859TIP3    H2 2523   5.627   7.814   5.120
  860TIP3   OH2 2524   5.054   4.680   4.553
  860TIP3    H1 2525   5.119   4.734   4.598
  860TIP3    H2 2526   4.973   4.697   4.600
  861TIP3   OH2 2527   5.461   6.083   6.637
  861TIP3    H1 2528   5.416   6.027   6.700
  861TIP3    H2 2529   5.543   6.107   6.680
  862TIP3   OH2 2530   7.796   5.936   6.028
  862TIP3    H1 2531   7.732   5.867   6.046
  862TIP3    H2 2532   7.805   5.982   6.111
  863TIP3   OH2 2533   3.282   3.570   1.251
  863TIP3    H1 2534   3.334   3.491   1.268
  863TIP3    H2 2535   3.347   3.638   1.231
  864TIP3   OH2 2536   1.848   4.337   5.744
  864TIP3    H1 2537   1.860   4.246   5.716
  864TIP3    H2 2538   1.753   4.348   5.747
  865TIP3   OH2 2539   0.244   7.693   4.119
  865TIP3    H1 2540   0.304   7.648   4.059
  865TIP3    H2 2541   0.167   7.712   4.065
  866TIP3   OH2 2542   4.410   7.625   3.452
  866TIP3    H1 2543   4.427   7.573   3.531
  866TIP3    H2 2544   4.459   7.580   3.383
  867TIP3   OH2 2545   1.769   1.954   2.755
  867TIP3    H1 2546   1.757   1.973   2.662
  867TIP3    H2 2547   1.683   1.925   2.785
  868TIP3   OH2 2548   4.991   6.345   6.103
  868TIP3    H1 2549   4.952   6.430   6.124
  868TIP3    H2 2550   4.929   6.305   6.042
  869TIP3   OH2 2551   1.193   2.991   5.194
  869TIP3    H1 2552   1.114   2.976   5.141
  869TIP3    H2 2553   1.211   2.906   5.235
  870TIP3   OH2 2554   5.315   6.486   2.485
  870TIP3    H1 2555   5.274   6.559   2.439
  870TIP3    H2 2556   5.391   6.526   2.529
  871TIP3   OH2 2557   2.102   1.932   1.879
  871TIP3    H1 2558   2.194   1.957   1.888
  871TIP3    H2 2559   2.105   1.848   1.831
  872TIP3   OH2 2560   2.562   3.239   3.486
  872TIP3    H1 2561   2.515   3.191   3.418
  872TIP3    H2 2562   2.493   3.286   3.534
  873TIP3   OH2 2563   7.561   4.601   5.627
  873TIP3    H1 2564   7.627   4.532   5.623
  873TIP3    H2 2565   7.503   4.575   5.698
  874TIP3   OH2 2566   2.263   5.771   5.663
  874TIP3    H1 2567   2.235   5.681   5.682
  874TIP3    H2 2568   2.357   5.764   5.650
  875TIP3   OH2 2569   4.334   7.414   3.016
  875TIP3    H1 2570   4.276   7.407   2.940
  875TIP3    H2 2571   4.297   7.486   3.067
  876TIP3   OH2 2572   3.975   7.174   3.861
  876TIP3    H1 2573   4.039   7.175   3.790
  876TIP3    H2 2574   4.019   7.129   3.932
  877TIP3   OH2 2575   5.102   7.037   5.800
  877TIP3    H1 2576   5.036   6.975   5.830
  877TIP3    H2 2577   5.071   7.065   5.714
  878TIP3   OH2 2578   4.059   1.904   3.780
  878TIP3    H1 2579   4.002   1.958   3.725
  878TIP3    H2 2580   4.101   1.966   3.839
  879TIP3   OH2 2581   5.332   0.516   0.070
  879TIP3    H1 2582   5.362   0.428   0.091
  879TIP3    H2 2583   5.345   0.566   0.151
  880TIP3   OH2 2584   4.283   6.306   2.186
  880TIP3    H1 2585   4.373   6.306   2.153
  880TIP3    H2 2586   4.235   6.361   2.124
  881TIP3   OH2 2587   0.075   7.234   2.750
  881TIP3    H1 2588  -0.018   7.226   2.773
  881TIP3    H2 2589   0.081   7.199   2.662
  882TIP3   OH2 2590   4.335   2.551   4.644
  882TIP3    H1 2591   4.252   2.598   4.640
  882TIP3    H2 2592   4.338   2.517   4.734
  883TIP3   OH2 2593   5.594   7.345   3.467
  883TIP3    H1 2594   5.688   7.337   3.453
  883TIP3    H2 2595   5.583   7.431   3.508
  884TIP3   OH2 2596   5.102   3.516   4.832
  884TIP3    H1 2597   5.028   3.462   4.860
  884TIP3    H2 2598   5.179   3.471   4.867
  885TIP3   OH2 2599   7.807   1.279   2.402
  885TIP3    H1 2600   7.873   1.216   2.373
  885TIP3    H2 2601   7.832   1.361   2.361
  886TIP3   OH2 2602   5.517   7.159   5.507
  886TIP3    H1 2603   5.455   7.092   5.476
  886TIP3    H2 2604   5.596   7.110   5.529
  887TIP3   OH2 2605   6.293   0.104   3.777
  887TIP3    H1 2606   6.318   0.042   3.846
  887TIP3    H2 2607   6.370   0.160   3.767
  888TIP3   OH2 2608   4.820   2.054   4.055
  888TIP3    H1 2609   4.772   2.106   4.120
  888TIP3    H2 2610   4.887   2.009   4.105
  889TIP3   OH2 2611   4.744   2.796   2.069
  889TIP3    H1 2612   4.656   2.832   2.059
  889TIP3    H2 2613   4.791   2.827   1.991
  890TIP3   OH2 2614   5.239   0.663   1.210
  890TIP3    H1 2615   5.221   0.599   1.141
  890TIP3    H2 2616   5.333   0.677   1.206
  891TIP3   OH2 2617   4.442   3.071   4.483
  891TIP3    H1 2618   4.454   3.140   4.418
  891TIP3    H2 2619   4.531   3.044   4.506
  892TIP3   OH2 2620   4.453   3.476   1.044
  892TIP3    H1 2621   4.424   3.502   0.957
  892TIP3    H2 2622   4.372   3.450   1.089
  893TIP3   OH2 2623   4.168   2.922   3.949
  893TIP3    H1 2624   4.218   2.997   3.980
  893TIP3    H2 2625   4.228   2.848   3.956
  894TIP3   OH2 2626   3.723   4.179   1.930
  894TIP3    H1 2627   3.762   4.101   1.892
  894TIP3    H2 2628   3.771   4.193   2.011
  895TIP3   OH2 2629   7.862   3.677   5.774
  895TIP3    H1 2630   7.913   3.754   5.799
  895TIP3    H2 2631   7.778   3.689   5.818
  896TIP3   OH2 2632   3.929   7.127   6.627
  896TIP3    H1 2633   3.889   7.041   6.643
  896TIP3    H2 2634   4.024   7.110   6.633
  897TIP3   OH2 2635   5.832   0.950   0.790
  897TIP3    H1 2636   5.739   0.931   0.799
  897TIP3    H2 2637   5.876   0.866   0.802
  898TIP3   OH2 2638   3.475   5.652   1.973
  898TIP3    H1 2639   3.481   5.612   2.059
  898TIP3    H2 2640   3.534   5.600   1.918
  899TIP3   OH2 2641   5.881   4.474   3.001
  899TIP3    H1 2642   5.857   4.543   2.940
  899TIP3    H2 2643   5.811   4.474   3.067
  900TIP3   OH2 2644  -0.014   3.744   2.261
  900TIP3    H1 2645   0.023   3.743   2.349
  900TIP3    H2 2646   0.019   3.664   2.220
  901TIP3   OH2 2647   7.773   4.810   6.650
  901TIP3    H1 2648   7.813   4.895   6.635
  901TIP3    H2 2649   7.820   4.773   6.725
  902TIP3   OH2 2650   2.723   3.654   3.791
  902TIP3    H1 2651   2.729   3.569   3.748
  902TIP3    H2 2652   2.777   3.712   3.737
  903TIP3   OH2 2653   1.645   5.370   3.475
  903TIP3    H1 2654   1.718   5.309   3.484
  903TIP3    H2 2655   1.684   5.448   3.435
  904TIP3   OH2 2656   7.409   4.004   5.787
  904TIP3    H1 2657   7.446   4.089   5.811
  904TIP3    H2 2658   7.337   4.024   5.727
  905TIP3   OH2 2659   2.805   0.393   2.544
  905TIP3    H1 2660   2.785   0.306   2.510
  905TIP3    H2 2661   2.776   0.453   2.475
  906TIP3   OH2 2662   4.251   3.205   6.071
  906TIP3    H1 2663   4.238   3.112   6.093
  906TIP3    H2 2664   4.230   3.210   5.977
  907TIP3   OH2 2665   5.500   1.692   1.383
  907TIP3    H1 2666   5.445   1.746   1.327
  907TIP3    H2 2667   5.439   1.650   1.443
  908TIP3   OH2 2668   6.953   7.241   0.870
  908TIP3    H1 2669   6.888   7.215   0.804
  908TIP3    H2 2670   7.008   7.305   0.825
  909TIP3   OH2 2671   3.214   3.882   0.970
  909TIP3    H1 2672   3.201   3.975   0.950
  909TIP3    H2 2673   3.307   3.868   0.955
  910TIP3   OH2 2674   3.028   1.395   2.644
  910TIP3    H1 2675   2.942   1.363   2.674
  910TIP3    H2 2676   3.023   1.389   2.548
  911TIP3   OH2 2677   2.714   6.305   3.589
  911TIP3    H1 2678   2.723   6.294   3.494
  911TIP3    H2 2679   2.718   6.216   3.623
  912TIP3   OH2 2680   6.985   3.917   6.638
  912TIP3    H1 2681   6.949   3.860   6.570
  912TIP3    H2 2682   6.938   3.892   6.718
  913TIP3   OH2 2683   6.150   7.803   2.424
  913TIP3    H1 2684   6.144   7.712   2.393
  913TIP3    H2 2685   6.102   7.802   2.508
  914TIP3   OH2 2686   6.767   5.775   1.358
  914TIP3    H1 2687   6.733   5.774   1.268
  914TIP3    H2 2688   6.731   5.695   1.398
  915TIP3   OH2 2689   3.414   3.333   2.174
  915TIP3    H1 2690   3.475   3.404   2.153
  915TIP3    H2 2691   3.434   3.310   2.265
  916TIP3   OH2 2692   5.064   3.390   6.434
  916TIP3    H1 2693   5.148   3.351   6.455
  916TIP3    H2 2694   5.060   3.390   6.338
  917TIP3   OH2 2695   8.125   0.422   4.685
  917TIP3    H1 2696   8.168   0.379   4.759
  917TIP3    H2 2697   8.195   0.434   4.621
  918TIP3   OH2 2698   1.993   2.582   5.719
  918TIP3    H1 2699   1.905   2.608   5.750
  918TIP3    H2 2700   1.989   2.487   5.715
  919TIP3   OH2 2701   6.189   3.639   2.093
  919TIP3    H1 2702   6.178   3.629   1.998
  919TIP3    H2 2703   6.283   3.639   2.107
  920TIP3   OH2 2704   8.225   6.845   0.413
  920TIP3    H1 2705   8.201   6.911   0.348
  920TIP3    H2 2706   8.168   6.771   0.394
  921TIP3   OH2 2707   6.868   5.677   0.298
  921TIP3    H1 2708   6.850   5.625   0.220
  921TIP3    H2 2709   6.825   5.761   0.281
  922TIP3   OH2 2710   8.154   3.650   4.891
  922TIP3    H1 2711   8.124   3.560   4.894
  922TIP3    H2 2712   8.133   3.685   4.978
  923TIP3   OH2 2713   4.015   4.372   5.208
  923TIP3    H1 2714   4.103   4.333   5.216
  923TIP3    H2 2715   4.017   4.419   5.125
  924TIP3   OH2 2716   0.133   2.900   3.701
  924TIP3    H1 2717   0.177   2.978   3.668
  924TIP3    H2 2718   0.203   2.839   3.722
  925TIP3   OH2 2719   6.119   3.331   0.408
  925TIP3    H1 2720   6.109   3.418   0.369
  925TIP3    H2 2721   6.035   3.288   0.392
  926TIP3   OH2 2722   2.525   7.083   3.172
  926TIP3    H1 2723   2.501   6.995   3.200
  926TIP3    H2 2724   2.456   7.108   3.110
  927TIP3   OH2 2725   5.825   6.386   3.528
  927TIP3    H1 2726   5.896   6.362   3.469
  927TIP3    H2 2727   5.853   6.469   3.567
  928TIP3   OH2 2728   3.917   0.754   3.854
  928TIP3    H1 2729   3.928   0.797   3.769
  928TIP3    H2 2730   3.985   0.686   3.854
  929TIP3   OH2 2731   5.903   5.432   3.471
  929TIP3    H1 2732   5.843   5.429   3.546
  929TIP3    H2 2733   5.977   5.486   3.501
  930TIP3   OH2 2734   0.658   4.388   3.919
  930TIP3    H1 2735   0.716   4.334   3.972
  930TIP3    H2 2736   0.635   4.332   3.844
  931TIP3   OH2 2737   7.993   4.501   6.589
  931TIP3    H1 2738   8.006   4.434   6.656
  931TIP3    H2 2739   7.987   4.583   6.639
  932TIP3   OH2 2740   0.663   5.918   0.692
  932TIP3    H1 2741   0.723   5.950   0.624
  932TIP3    H2 2742   0.579   5.958   0.670
  933TIP3   OH2 2743   3.850   2.780   5.745
  933TIP3    H1 2744   3.925   2.771   5.685
  933TIP3    H2 2745   3.784   2.827   5.693
  934TIP3   OH2 2746   6.046   6.651   2.906
  934TIP3    H1 2747   6.016   6.631   2.818
  934TIP3    H2 2748   6.036   6.569   2.954
  935TIP3   OH2 2749   0.906   4.283   6.590
  935TIP3    H1 2750   0.821   4.325   6.601
  935TIP3    H2 2751   0.894   4.224   6.515
  936TIP3   OH2 2752   2.063   2.209   1.839
  936TIP3    H1 2753   2.094   2.119   1.847
  936TIP3    H2 2754   2.127   2.261   1.887
  937TIP3   OH2 2755   0.391   3.455   0.081
  937TIP3    H1 2756   0.403   3.546   0.054
  937TIP3    H2 2757   0.474   3.412   0.058
  938TIP3   OH2 2758   0.673   1.514   0.669
  938TIP3    H1 2759   0.737   1.448   0.641
  938TIP3    H2 2760   0.595   1.464   0.692
  939TIP3   OH2 2761   4.033   7.529   5.154
  939TIP3    H1 2762   4.038   7.478   5.234
  939TIP3    H2 2763   4.121   7.564   5.141
  940TIP3   OH2 2764   5.140   2.704   2.414
  940TIP3    H1 2765   5.096   2.641   2.357
  940TIP3    H2 2766   5.232   2.679   2.411
  941TIP3   OH2 2767   4.307   2.250   4.437
  941TIP3    H1 2768   4.344   2.217   4.519
  941TIP3    H2 2769   4.227   2.295   4.464
  942TIP3   OH2 2770   0.568   7.368   1.428
  942TIP3    H1 2771   0.507   7.421   1.479
  942TIP3    H2 2772   0.574   7.285   1.476
  943TIP3   OH2 2773   6.967   1.861   3.567
  943TIP3    H1 2774   7.038   1.802   3.593
  943TIP3    H2 2775   6.901   1.804   3.527
  944TIP3   OH2 2776   5.429   3.110   1.254
  944TIP3    H1 2777   5.337   3.130   1.270
  944TIP3    H2 2778   5.433   3.014   1.253
  945TIP3   OH2 2779   5.680   1.522   5.239
  945TIP3    H1 2780   5.760   1.504   5.289
  945TIP3    H2 2781   5.699   1.601   5.190
  946TIP3   OH2 2782   7.993   1.329   3.705
  946TIP3    H1 2783   8.016   1.377   3.785
  946TIP3    H2 2784   8.063   1.264   3.696
  947TIP3   OH2 2785   6.229   3.308   4.721
  947TIP3    H1 2786   6.273   3.369   4.661
  947TIP3    H2 2787   6.300   3.272   4.774
  948TIP3   OH2 2788   6.399   5.160   1.530
  948TIP3    H1 2789   6.489   5.158   1.496
  948TIP3    H2 2790   6.380   5.253   1.542
  949TIP3   OH2 2791   7.183   4.082   4.029
  949TIP3    H1 2792   7.220   4.148   4.089
  949TIP3    H2 2793   7.101   4.056   4.071
  950TIP3   OH2 2794   7.187   0.936   6.311
  950TIP3    H1 2795   7.230   1.007   6.263
  950TIP3    H2 2796   7.209   0.857   6.261
  951TIP3   OH2 2797   5.176   6.913   1.897
  951TIP3    H1 2798   5.248   6.879   1.951
  951TIP3    H2 2799   5.097   6.879   1.938
  952TIP3   OH2 2800   6.005   4.818   4.450
  952TIP3    H1 2801   6.061   4.830   4.527
  952TIP3    H2 2802   5.973   4.728   4.458
  953TIP3   OH2 2803   5.102   7.205   6.566
  953TIP3    H1 2804   5.112   7.298   6.551
  953TIP3    H2 2805   5.144   7.163   6.491
  954TIP3   OH2 2806   6.994   0.332   3.693
  954TIP3    H1 2807   6.907   0.319   3.732
  954TIP3    H2 2808   7.051   0.273   3.742
  955TIP3   OH2 2809   1.665   5.930   2.553
  955TIP3    H1 2810   1.594   5.946   2.615
  955TIP3    H2 2811   1.622   5.922   2.468
  956TIP3   OH2 2812   4.020   6.660   5.678
  956TIP3    H1 2813   4.103   6.656   5.726
  956TIP3    H2 2814   3.999   6.568   5.659
  957TIP3   OH2 2815   3.747   2.450   5.547
  957TIP3    H1 2816   3.783   2.429   5.633
  957TIP3    H2 2817   3.725   2.365   5.508
  958TIP3   OH2 2818   7.942   1.748   6.070
  958TIP3    H1 2819   7.885   1.818   6.040
  958TIP3    H2 2820   8.030   1.773   6.040
  959TIP3   OH2 2821   1.710   2.982   5.276
  959TIP3    H1 2822   1.803   2.971   5.253
  959TIP3    H2 2823   1.663   2.929   5.212
  960TIP3   OH2 2824   5.508   4.029   3.041
  960TIP3    H1 2825   5.418   4.061   3.036
  960TIP3    H2 2826   5.504   3.953   3.099
  961TIP3   OH2 2827   6.454   4.496   4.176
  961TIP3    H1 2828   6.419   4.500   4.265
  961TIP3    H2 2829   6.450   4.586   4.144
  962TIP3   OH2 2830   7.866   2.789   3.908
  962TIP3    H1 2831   7.779   2.817   3.878
  962TIP3    H2 2832   7.895   2.859   3.967
  963TIP3   OH2 2833   1.256   0.314   4.594
  963TIP3    H1 2834   1.290   0.317   4.505
  963TIP3    H2 2835   1.328   0.342   4.649
  964TIP3   OH2 2836   8.132   5.151   1.699
  964TIP3    H1 2837   8.089   5.214   1.641
  964TIP3    H2 2838   8.172   5.205   1.767
  965TIP3   OH2 2839   0.619   6.760   1.182
  965TIP3    H1 2840   0.619   6.854   1.163
  965TIP3    H2 2841   0.662   6.753   1.267
  966TIP3   OH2 2842   6.066   3.475   0.072
  966TIP3    H1 2843   5.987   3.453   0.122
  966TIP3    H2 2844   6.084   3.397   0.020
  967TIP3   OH2 2845   5.961   5.018   4.845
  967TIP3    H1 2846   5.891   5.033   4.909
  967TIP3    H2 2847   5.966   4.923   4.835
  968TIP3   OH2 2848   3.395   4.744   3.484
  968TIP3    H1 2849   3.457   4.790   3.540
  968TIP3    H2 2850   3.448   4.706   3.414
  969TIP3   OH2 2851   7.892   6.100   4.788
  969TIP3    H1 2852   7.969   6.135   4.832
  969TIP3    H2 2853   7.909   6.114   4.695
  970TIP3   OH2 2854   1.291   2.451   1.052
  970TIP3    H1 2855   1.385   2.443   1.041
  970TIP3    H2 2856   1.276   2.436   1.146
  971TIP3   OH2 2857   4.049   3.641   0.581
  971TIP3    H1 2858   3.962   3.678   0.593
  971TIP3    H2 2859   4.109   3.715   0.589
  972TIP3   OH2 2860   7.667   4.733   1.329
  972TIP3    H1 2861   7.709   4.818   1.344
  972TIP3    H2 2862   7.625   4.712   1.412
  973TIP3   OH2 2863   5.312   7.104   2.514
  973TIP3    H1 2864   5.304   7.044   2.439
  973TIP3    H2 2865   5.356   7.181   2.478
  974TIP3   OH2 2866   1.663   3.655   1.624
  974TIP3    H1 2867   1.618   3.721   1.677
  974TIP3    H2 2868   1.698   3.593   1.689
  975TIP3   OH2 2869   2.053   6.635   2.076
  975TIP3    H1 2870   2.131   6.588   2.106
  975TIP3    H2 2871   2.017   6.675   2.156
  976TIP3   OH2 2872   0.872   0.920   5.128
  976TIP3    H1 2873   0.777   0.928   5.128
  976TIP3    H2 2874   0.893   0.885   5.041
  977TIP3   OH2 2875   1.336   2.569   2.097
  977TIP3    H1 2876   1.417   2.579   2.147
  977TIP3    H2 2877   1.285   2.506   2.148
  978TIP3   OH2 2878   6.483   4.293   3.422
  978TIP3    H1 2879   6.488   4.387   3.405
  978TIP3    H2 2880   6.559   4.274   3.476
  979TIP3   OH2 2881   3.457   5.308   0.254
  979TIP3    H1 2882   3.419   5.220   0.258
  979TIP3    H2 2883   3.548   5.296   0.282
  980TIP3   OH2 2884   2.231   6.120   3.937
  980TIP3    H1 2885   2.234   6.032   3.900
  980TIP3    H2 2886   2.193   6.108   4.024
  981TIP3   OH2 2887   0.212   2.203   5.745
  981TIP3    H1 2888   0.236   2.155   5.666
  981TIP3    H2 2889   0.171   2.283   5.712
  982TIP3   OH2 2890   6.078   3.928   2.956
  982TIP3    H1 2891   6.029   3.955   2.878
  982TIP3    H2 2892   6.038   3.978   3.028
  983TIP3   OH2 2893   7.199   7.790   1.415
  983TIP3    H1 2894   7.275   7.807   1.470
  983TIP3    H2 2895   7.177   7.698   1.433
  984TIP3   OH2 2896   6.599   2.426   0.051
  984TIP3    H1 2897   6.530   2.384  -0.001
  984TIP3    H2 2898   6.599   2.378   0.134
  985TIP3   OH2 2899   7.596   6.150   5.265
  985TIP3    H1 2900   7.509   6.187   5.281
  985TIP3    H2 2901   7.579   6.059   5.241
  986TIP3   OH2 2902   4.397   2.085   0.792
  986TIP3    H1 2903   4.471   2.042   0.833
  986TIP3    H2 2904   4.357   2.136   0.862
  987TIP3   OH2 2905   5.122   3.764   6.561
  987TIP3    H1 2906   5.082   3.851   6.570
  987TIP3    H2 2907   5.151   3.742   6.650
  988TIP3   OH2 2908   6.411   3.639   5.720
  988TIP3    H1 2909   6.493   3.626   5.672
  988TIP3    H2 2910   6.430   3.708   5.783
  989TIP3   OH2 2911   6.112   2.720   4.503
  989TIP3    H1 2912   6.061   2.784   4.553
  989TIP3    H2 2913   6.138   2.655   4.568
  990TIP3   OH2 2914   1.231   4.888   6.562
  990TIP3    H1 2915   1.282   4.945   6.505
  990TIP3    H2 2916   1.205   4.815   6.507
  991TIP3   OH2 2917   1.191   0.575   0.149
  991TIP3    H1 2918   1.203   0.591   0.055
  991TIP3    H2 2919   1.277   0.594   0.187
  992TIP3   OH2 2920   8.224   6.650   0.756
  992TIP3    H1 2921   8.272   6.665   0.674
  992TIP3    H2 2922   8.191   6.737   0.780
  993TIP3   OH2 2923   7.864   3.617   0.305
  993TIP3    H1 2924   7.811   3.539   0.294
  993TIP3    H2 2925   7.832   3.677   0.238
  994TIP3   OH2 2926   6.161   3.942   3.662
  994TIP3    H1 2927   6.077   3.949   3.618
  994TIP3    H2 2928   6.139   3.920   3.753
  995TIP3   OH2 2929   0.411   6.233   3.851
  995TIP3    H1 2930   0.332   6.220   3.800
  995TIP3    H2 2931   0.384   6.287   3.925
  996TIP3   OH2 2932   7.860   0.395   1.449
  996TIP3    H1 2933   7.848   0.360   1.361
  996TIP3    H2 2934   7.773   0.426   1.475
  997TIP3   OH2 2935   1.635   4.292   6.558
  997TIP3    H1 2936   1.656   4.222   6.496
  997TIP3    H2 2937   1.687   4.367   6.528
  998TIP3   OH2 2938   4.385   1.369   5.463
  998TIP3    H1 2939   4.386   1.350   5.369
  998TIP3    H2 2940   4.305   1.329   5.495
  999TIP3   OH2 2941   5.449   0.336   3.834
  999TIP3    H1 2942   5.454   0.286   3.915
  999TIP3    H2 2943   5.448   0.428   3.863
 1000TIP3   OH2 2944   5.226   2.774   5.622
 1000TIP3    H1 2945   5.305   2.826   5.606
 1000TIP3    H2 2946   5.226   2.709   5.552
 1001TIP3   OH2 2947   7.360   7.564   4.468
 1001TIP3    H1 2948   7.417   7.576   4.544
 1001TIP3    H2 2949   7.273   7.586   4.500
 1002TIP3   OH2 2950   0.571   2.953   5.511
 1002TIP3    H1 2951   0.658   2.993   5.521
 1002TIP3    H2 2952   0.540   2.986   5.427
 1003TIP3   OH2 2953   2.137   4.968   4.308
 1003TIP3    H1 2954   2.180   5.026   4.371
 1003TIP3    H2 2955   2.102   5.027   4.241
 1004TIP3   OH2 2956   7.863   4.513   0.180
 1004TIP3    H1 2957   7.907   4.553   0.254
 1004TIP3    H2 2958   7.814   4.440   0.217
 1005TIP3   OH2 2959   3.516   2.515   6.164
 1005TIP3    H1 2960   3.506   2.449   6.096
 1005TIP3    H2 2961   3.429   2.525   6.201
 1006TIP3   OH2 2962   5.513   5.946   4.376
 1006TIP3    H1 2963   5.432   5.895   4.379
 1006TIP3    H2 2964   5.505   6.007   4.450
 1007TIP3   OH2 2965   5.711   6.943   5.529
 1007TIP3    H1 2966   5.802   6.943   5.560
 1007TIP3    H2 2967   5.664   6.888   5.590
 1008TIP3   OH2 2968   1.671   0.633   4.234
 1008TIP3    H1 2969   1.694   0.725   4.247
 1008TIP3    H2 2970   1.740   0.584   4.280
 1009TIP3   OH2 2971   5.462   4.949   1.906
 1009TIP3    H1 2972   5.375   4.982   1.927
 1009TIP3    H2 2973   5.454   4.913   1.818
 1010TIP3   OH2 2974   1.358   7.595   2.784
 1010TIP3    H1 2975   1.335   7.660   2.850
 1010TIP3    H2 2976   1.278   7.543   2.773
 1011TIP3   OH2 2977   5.255   3.963   2.181
 1011TIP3    H1 2978   5.198   3.890   2.158
 1011TIP3    H2 2979   5.201   4.041   2.170
 1012TIP3   OH2 2980   0.380   4.449   0.205
 1012TIP3    H1 2981   0.422   4.434   0.120
 1012TIP3    H2 2982   0.380   4.363   0.247
 1013TIP3   OH2 2983   3.429   7.032   1.758
 1013TIP3    H1 2984   3.500   6.969   1.767
 1013TIP3    H2 2985   3.458   7.109   1.807
 1014TIP3   OH2 2986   4.467   1.881   6.136
 1014TIP3    H1 2987   4.526   1.809   6.159
 1014TIP3    H2 2988   4.399   1.840   6.083
 1015TIP3   OH2 2989   1.436   2.960   6.041
 1015TIP3    H1 2990   1.400   2.875   6.014
 1015TIP3    H2 2991   1.488   2.989   5.966
 1016TIP3   OH2 2992   3.735   0.686   4.214
 1016TIP3    H1 2993   3.702   0.653   4.130
 1016TIP3    H2 2994   3.791   0.760   4.192
 1017TIP3   OH2 2995   5.437   7.760   5.415
 1017TIP3    H1 2996   5.409   7.736   5.326
 1017TIP3    H2 2997   5.457   7.676   5.457
 1018TIP3   OH2 2998   5.597   5.945   2.476
 1018TIP3    H1 2999   5.627   5.867   2.523
 1018TIP3    H2 3000   5.515   5.969   2.520
 1019TIP3   OH2 3001   6.491   6.119   0.100
 1019TIP3    H1 3002   6.423   6.054   0.081
 1019TIP3    H2 3003   6.513   6.156   0.014
 1020TIP3   OH2 3004   0.976   6.828   1.479
 1020TIP3    H1 3005   1.031   6.895   1.518
 1020TIP3    H2 3006   0.913   6.805   1.548
 1021TIP3   OH2 3007   2.089   3.284   1.458
 1021TIP3    H1 3008   2.123   3.316   1.374
 1021TIP3    H2 3009   2.138   3.203   1.475
 1022TIP3   OH2 3010   7.385   3.858   6.318
 1022TIP3    H1 3011   7.417   3.925   6.258
 1022TIP3    H2 3012   7.290   3.858   6.306
 1023TIP3   OH2 3013   6.562   7.798   0.679
 1023TIP3    H1 3014   6.533   7.880   0.718
 1023TIP3    H2 3015   6.581   7.820   0.587
 1024TIP3   OH2 3016   1.305   1.730   2.973
 1024TIP3    H1 3017   1.385   1.708   3.020
 1024TIP3    H2 3018   1.287   1.821   2.997
 1025TIP3   OH2 3019   2.920   3.494   0.484
 1025TIP3    H1 3020   2.901   3.521   0.394
 1025TIP3    H2 3021   3.007   3.532   0.502
 1026TIP3   OH2 3022   2.142   5.346   3.534
 1026TIP3    H1 3023   2.212   5.296   3.491
 1026TIP3    H2 3024   2.069   5.345   3.471
 1027TIP3   OH2 3025   3.465   7.267   1.916
 1027TIP3    H1 3026   3.414   7.298   1.841
 1027TIP3    H2 3027   3.513   7.344   1.946
 1028TIP3   OH2 3028   6.015   2.894   1.215
 1028TIP3    H1 3029   6.075   2.876   1.287
 1028TIP3    H2 3030   6.057   2.965   1.166
 1029TIP3   OH2 3031   3.714   5.925   2.715
 1029TIP3    H1 3032   3.810   5.931   2.721
 1029TIP3    H2 3033   3.697   5.831   2.705
 1030TIP3   OH2 3034   6.366   3.474   4.463
 1030TIP3    H1 3035   6.408   3.557   4.442
 1030TIP3    H2 3036   6.275   3.497   4.483
 1031TIP3   OH2 3037   3.461   3.353   1.011
 1031TIP3    H1 3038   3.455   3.446   0.991
 1031TIP3    H2 3039   3.554   3.334   1.012
 1032TIP3   OH2 3040   1.858   2.204   6.535
 1032TIP3    H1 3041   1.851   2.172   6.445
 1032TIP3    H2 3042   1.916   2.280   6.528
 1033TIP3   OH2 3043   4.605   2.636   0.242
 1033TIP3    H1 3044   4.680   2.579   0.262
 1033TIP3    H2 3045   4.637   2.692   0.171
 1034TIP3   OH2 3046   6.161   3.039   4.751
 1034TIP3    H1 3047   6.188   3.129   4.737
 1034TIP3    H2 3048   6.131   3.037   4.843
 1035TIP3   OH2 3049   3.756   6.044   6.112
 1035TIP3    H1 3050   3.719   6.010   6.030
 1035TIP3    H2 3051   3.773   6.136   6.094
 1036TIP3   OH2 3052   6.998   4.914   0.651
 1036TIP3    H1 3053   6.920   4.967   0.639
 1036TIP3    H2 3054   6.967   4.833   0.690
 1037TIP3   OH2 3055   1.088   6.195   1.846
 1037TIP3    H1 3056   0.999   6.231   1.853
 1037TIP3    H2 3057   1.084   6.135   1.772
 1038TIP3   OH2 3058   2.587   2.342   3.266
 1038TIP3    H1 3059   2.673   2.350   3.226
 1038TIP3    H2 3060   2.603   2.348   3.360
 1039TIP3   OH2 3061   4.457   5.344   3.959
 1039TIP3    H1 3062   4.478   5.366   4.050
 1039TIP3    H2 3063   4.439   5.250   3.961
 1040TIP3   OH2 3064   4.600   4.578   3.206
 1040TIP3    H1 3065   4.565   4.589   3.117
 1040TIP3    H2 3066   4.527   4.599   3.263
 1041TIP3   OH2 3067   6.155   1.199   1.197
 1041TIP3    H1 3068   6.217   1.151   1.252
 1041TIP3    H2 3069   6.193   1.285   1.186
 1042TIP3   OH2 3070   2.124   6.020   0.327
 1042TIP3    H1 3071   2.059   5.985   0.388
 1042TIP3    H2 3072   2.171   5.943   0.295
 1043TIP3   OH2 3073   4.173   2.078   3.967
 1043TIP3    H1 3074   4.245   2.077   4.029
 1043TIP3    H2 3075   4.161   2.171   3.946
 1044TIP3   OH2 3076   7.463   7.450   1.973
 1044TIP3    H1 3077   7.499   7.538   1.962
 1044TIP3    H2 3078   7.399   7.441   1.903
 1045TIP3   OH2 3079   1.535   1.323   3.476
 1045TIP3    H1 3080   1.605   1.264   3.448
 1045TIP3    H2 3081   1.578   1.406   3.494
 1046TIP3   OH2 3082   6.686   3.701   4.409
 1046TIP3    H1 3083   6.626   3.673   4.477
 1046TIP3    H2 3084   6.634   3.701   4.329
 1047TIP3   OH2 3085   3.559   6.441   4.944
 1047TIP3    H1 3086   3.624   6.412   5.008
 1047TIP3    H2 3087   3.538   6.363   4.893
 1048TIP3   OH2 3088   4.392   5.843   5.856
 1048TIP3    H1 3089   4.403   5.765   5.801
 1048TIP3    H2 3090   4.399   5.916   5.796
 1049TIP3   OH2 3091   5.204   1.481   3.765
 1049TIP3    H1 3092   5.186   1.570   3.736
 1049TIP3    H2 3093   5.215   1.487   3.860
 1050TIP3   OH2 3094   7.464   2.211   2.945
 1050TIP3    H1 3095   7.491   2.165   3.025
 1050TIP3    H2 3096   7.539   2.204   2.887
 1051TIP3   OH2 3097   3.878   4.710   6.515
 1051TIP3    H1 3098   3.808   4.776   6.514
 1051TIP3    H2 3099   3.915   4.713   6.427
 1052TIP3   OH2 3100   6.355   3.315   3.937
 1052TIP3    H1 3101   6.279   3.262   3.958
 1052TIP3    H2 3102   6.430   3.259   3.957
 1053TIP3   OH2 3103   3.611   0.141   1.113
 1053TIP3    H1 3104   3.570   0.130   1.199
 1053TIP3    H2 3105   3.575   0.224   1.080
 1054TIP3   OH2 3106   0.316   2.077   4.891
 1054TIP3    H1 3107   0.311   1.994   4.845
 1054TIP3    H2 3108   0.325   2.053   4.983
 1055TIP3   OH2 3109   1.816   1.738   0.408
 1055TIP3    H1 3110   1.866   1.699   0.336
 1055TIP3    H2 3111   1.738   1.773   0.366
 1056TIP3   OH2 3112   4.200   4.281   1.929
 1056TIP3    H1 3113   4.127   4.295   1.868
 1056TIP3    H2 3114   4.266   4.344   1.901
 1057TIP3   OH2 3115   5.066   4.767   3.218
 1057TIP3    H1 3116   5.030   4.700   3.275
 1057TIP3    H2 3117   5.021   4.755   3.134
 1058TIP3   OH2 3118   3.598   2.027   5.307
 1058TIP3    H1 3119   3.579   1.942   5.346
 1058TIP3    H2 3120   3.664   2.009   5.241
 1059TIP3   OH2 3121   4.009   3.778   6.105
 1059TIP3    H1 3122   4.060   3.858   6.093
 1059TIP3    H2 3123   3.977   3.784   6.195
 1060TIP3   OH2 3124   5.965   4.449   3.771
 1060TIP3    H1 3125   5.959   4.355   3.758
 1060TIP3    H2 3126   6.056   4.470   3.751
 1061TIP3   OH2 3127   1.368   0.400   3.384
 1061TIP3    H1 3128   1.424   0.441   3.449
 1061TIP3    H2 3129   1.331   0.473   3.334
 1062TIP3   OH2 3130   4.830   7.080   2.774
 1062TIP3    H1 3131   4.851   7.030   2.853
 1062TIP3    H2 3132   4.905   7.138   2.762
 1063TIP3   OH2 3133   7.768   6.855   5.368
 1063TIP3    H1 3134   7.809   6.804   5.299
 1063TIP3    H2 3135   7.704   6.797   5.407
 1064TIP3   OH2 3136   3.400   2.922   3.195
 1064TIP3    H1 3137   3.422   2.843   3.244
 1064TIP3    H2 3138   3.485   2.960   3.170
 1065TIP3   OH2 3139   5.406   6.603   4.708
 1065TIP3    H1 3140   5.401   6.632   4.617
 1065TIP3    H2 3141   5.457   6.523   4.706
 1066TIP3   OH2 3142   6.706   2.344   1.051
 1066TIP3    H1 3143   6.743   2.358   1.139
 1066TIP3    H2 3144   6.775   2.298   1.003
 1067TIP3   OH2 3145   1.525   7.152   3.582
 1067TIP3    H1 3146   1.521   7.199   3.665
 1067TIP3    H2 3147   1.490   7.065   3.602
 1068TIP3   OH2 3148   5.138   6.717   0.692
 1068TIP3    H1 3149   5.158   6.633   0.733
 1068TIP3    H2 3150   5.085   6.695   0.616
 1069TIP3   OH2 3151   2.862   2.328   4.993
 1069TIP3    H1 3152   2.896   2.324   4.904
 1069TIP3    H2 3153   2.936   2.307   5.049
 1070TIP3   OH2 3154   1.884   7.076   0.023
 1070TIP3    H1 3155   1.804   7.026   0.041
 1070TIP3    H2 3156   1.950   7.010   0.002
 1071TIP3   OH2 3157   4.434   1.141   3.183
 1071TIP3    H1 3158   4.446   1.148   3.278
 1071TIP3    H2 3159   4.455   1.228   3.149
 1072TIP3   OH2 3160   1.892   0.754   6.218
 1072TIP3    H1 3161   1.978   0.752   6.177
 1072TIP3    H2 3162   1.883   0.843   6.251
 1073TIP3   OH2 3163   3.878   7.403   3.976
 1073TIP3    H1 3164   3.897   7.310   3.959
 1073TIP3    H2 3165   3.783   7.406   3.990
 1074TIP3   OH2 3166   7.272   1.762   1.776
 1074TIP3    H1 3167   7.226   1.680   1.796
 1074TIP3    H2 3168   7.277   1.764   1.680
 1075TIP3   OH2 3169   6.593   0.678   1.971
 1075TIP3    H1 3170   6.596   0.718   1.884
 1075TIP3    H2 3171   6.659   0.608   1.967
 1076TIP3   OH2 3172   6.623   4.900   3.979
 1076TIP3    H1 3173   6.641   4.880   3.887
 1076TIP3    H2 3174   6.529   4.916   3.983
 1077TIP3   OH2 3175   6.610   6.525   0.235
 1077TIP3    H1 3176   6.517   6.510   0.255
 1077TIP3    H2 3177   6.627   6.614   0.266
 1078TIP3   OH2 3178   6.237   5.209   0.889
 1078TIP3    H1 3179   6.267   5.123   0.917
 1078TIP3    H2 3180   6.316   5.261   0.879
 1079TIP3   OH2 3181   6.477   6.051   1.976
 1079TIP3    H1 3182   6.538   5.978   1.965
 1079TIP3    H2 3183   6.507   6.096   2.055
 1080TIP3   OH2 3184   0.465   3.518   5.766
 1080TIP3    H1 3185   0.426   3.432   5.773
 1080TIP3    H2 3186   0.559   3.502   5.774
 1081TIP3   OH2 3187   1.428   2.095   6.299
 1081TIP3    H1 3188   1.420   2.056   6.386
 1081TIP3    H2 3189   1.382   2.179   6.306
 1082TIP3   OH2 3190   4.998   4.815   0.887
 1082TIP3    H1 3191   4.997   4.846   0.977
 1082TIP3    H2 3192   4.935   4.743   0.885
 1083TIP3   OH2 3193   3.864   7.043   2.932
 1083TIP3    H1 3194   3.940   7.025   2.987
 1083TIP3    H2 3195   3.807   7.097   2.987
 1084TIP3   OH2 3196   8.132   3.684   4.376
 1084TIP3    H1 3197   8.102   3.717   4.461
 1084TIP3    H2 3198   8.066   3.715   4.314
 1085TIP3   OH2 3199   6.409   3.784   3.789
 1085TIP3    H1 3200   6.358   3.703   3.784
 1085TIP3    H2 3201   6.389   3.830   3.708
 1086TIP3   OH2 3202   1.731   1.788   3.843
 1086TIP3    H1 3203   1.683   1.866   3.813
 1086TIP3    H2 3204   1.817   1.796   3.801
 1087TIP3   OH2 3205   6.030   7.326   2.215
 1087TIP3    H1 3206   6.042   7.274   2.295
 1087TIP3    H2 3207   5.943   7.301   2.183
 1088TIP3   OH2 3208   0.269   4.450   5.863
 1088TIP3    H1 3209   0.328   4.412   5.798
 1088TIP3    H2 3210   0.219   4.375   5.896
 1089TIP3   OH2 3211   0.233   5.857   1.163
 1089TIP3    H1 3212   0.264   5.807   1.088
 1089TIP3    H2 3213   0.256   5.947   1.143
 1090TIP3   OH2 3214   4.260   3.845   2.689
 1090TIP3    H1 3215   4.220   3.930   2.710
 1090TIP3    H2 3216   4.186   3.786   2.675
 1091TIP3   OH2 3217   3.740   6.850   2.778
 1091TIP3    H1 3218   3.784   6.912   2.836
 1091TIP3    H2 3219   3.647   6.873   2.785
 1092TIP3   OH2 3220   2.829   0.026   4.502
 1092TIP3    H1 3221   2.771   0.006   4.429
 1092TIP3    H2 3222   2.772   0.068   4.567
 1093TIP3   OH2 3223   0.447   4.317   2.524
 1093TIP3    H1 3224   0.356   4.337   2.545
 1093TIP3    H2 3225   0.444   4.276   2.438
 1094TIP3   OH2 3226   6.788   0.254   4.926
 1094TIP3    H1 3227   6.814   0.256   5.018
 1094TIP3    H2 3228   6.828   0.333   4.888
 1095TIP3   OH2 3229   7.876   6.955   6.053
 1095TIP3    H1 3230   7.883   7.032   5.997
 1095TIP3    H2 3231   7.966   6.936   6.080
 1096TIP3   OH2 3232   2.409   3.282   6.635
 1096TIP3    H1 3233   2.348   3.351   6.608
 1096TIP3    H2 3234   2.447   3.250   6.553
 1097TIP3   OH2 3235   2.402   6.757   2.875
 1097TIP3    H1 3236   2.442   6.734   2.791
 1097TIP3    H2 3237   2.459   6.716   2.940
 1098TIP3   OH2 3238   7.369   5.563   4.631
 1098TIP3    H1 3239   7.439   5.588   4.692
 1098TIP3    H2 3240   7.296   5.621   4.653
 1099TIP3   OH2 3241   3.187   5.116   4.414
 1099TIP3    H1 3242   3.121   5.070   4.362
 1099TIP3    H2 3243   3.238   5.047   4.456
 1100TIP3   OH2 3244   3.054   4.361   5.175
 1100TIP3    H1 3245   3.146   4.379   5.196
 1100TIP3    H2 3246   3.021   4.314   5.251
 1101TIP3   OH2 3247   7.394   2.242   1.677
 1101TIP3    H1 3248   7.336   2.177   1.718
 1101TIP3    H2 3249   7.473   2.240   1.731
 1102TIP3   OH2 3250   0.466   6.966   5.867
 1102TIP3    H1 3251   0.521   7.043   5.882
 1102TIP3    H2 3252   0.393   6.998   5.814
 1103TIP3   OH2 3253   2.946   2.485   6.005
 1103TIP3    H1 3254   2.904   2.449   6.083
 1103TIP3    H2 3255   2.942   2.580   6.018
 1104TIP3   OH2 3256   5.529   5.857   0.669
 1104TIP3    H1 3257   5.584   5.803   0.727
 1104TIP3    H2 3258   5.449   5.871   0.720
 1105TIP3   OH2 3259   7.983   1.735   4.614
 1105TIP3    H1 3260   7.948   1.823   4.598
 1105TIP3    H2 3261   7.941   1.680   4.548
 1106TIP3   OH2 3262   5.304   2.383   0.121
 1106TIP3    H1 3263   5.280   2.405   0.031
 1106TIP3    H2 3264   5.221   2.372   0.166
 1107TIP3   OH2 3265   5.028   6.579   4.445
 1107TIP3    H1 3266   5.037   6.593   4.540
 1107TIP3    H2 3267   4.947   6.528   4.436
 1108TIP3   OH2 3268   2.314   7.301   3.534
 1108TIP3    H1 3269   2.292   7.210   3.512
 1108TIP3    H2 3270   2.410   7.301   3.540
 1109TIP3   OH2 3271   1.439   2.373   0.209
 1109TIP3    H1 3272   1.426   2.425   0.130
 1109TIP3    H2 3273   1.534   2.374   0.222
 1110TIP3   OH2 3274   2.363   2.063   1.707
 1110TIP3    H1 3275   2.312   2.092   1.632
 1110TIP3    H2 3276   2.449   2.042   1.671
 1111TIP3   OH2 3277   2.112   3.488   0.801
 1111TIP3    H1 3278   2.192   3.526   0.765
 1111TIP3    H2 3279   2.057   3.563   0.822
 1112TIP3   OH2 3280   0.384   3.406   4.040
 1112TIP3    H1 3281   0.340   3.323   4.052
 1112TIP3    H2 3282   0.466   3.384   3.995
 1113TIP3   OH2 3283   1.852   6.240   6.773
 1113TIP3    H1 3284   1.800   6.205   6.845
 1113TIP3    H2 3285   1.885   6.162   6.728
 1114TIP3   OH2 3286   2.837   5.039   1.396
 1114TIP3    H1 3287   2.802   4.950   1.389
 1114TIP3    H2 3288   2.825   5.062   1.488
 1115TIP3   OH2 3289   0.291   5.641   6.609
 1115TIP3    H1 3290   0.356   5.575   6.585
 1115TIP3    H2 3291   0.296   5.644   6.705
 1116TIP3   OH2 3292   3.886   6.221   3.911
 1116TIP3    H1 3293   3.865   6.134   3.879
 1116TIP3    H2 3294   3.914   6.208   4.001
 1117TIP3   OH2 3295   3.571   1.975   6.394
 1117TIP3    H1 3296   3.647   2.015   6.435
 1117TIP3    H2 3297   3.552   2.030   6.318
 1118TIP3   OH2 3298   0.988   5.755   5.026
 1118TIP3    H1 3299   0.999   5.677   4.971
 1118TIP3    H2 3300   1.072   5.765   5.071
 1119TIP3   OH2 3301   0.097   5.755   5.767
 1119TIP3    H1 3302   0.188   5.782   5.780
 1119TIP3    H2 3303   0.049   5.793   5.841
 1120TIP3   OH2 3304   5.800   0.752   5.816
 1120TIP3    H1 3305   5.708   0.778   5.808
 1120TIP3    H2 3306   5.807   0.715   5.904
 1121TIP3   OH2 3307   4.188   3.895   1.276
 1121TIP3    H1 3308   4.269   3.946   1.271
 1121TIP3    H2 3309   4.128   3.940   1.216
 1122TIP3   OH2 3310   6.458   7.485   5.108
 1122TIP3    H1 3311   6.513   7.514   5.180
 1122TIP3    H2 3312   6.385   7.547   5.108
 1123TIP3   OH2 3313   7.073   5.331   3.807
 1123TIP3    H1 3314   7.021   5.261   3.846
 1123TIP3    H2 3315   7.041   5.335   3.716
 1124TIP3   OH2 3316   4.772   1.255   0.639
 1124TIP3    H1 3317   4.697   1.256   0.580
 1124TIP3    H2 3318   4.775   1.343   0.675
 1125TIP3   OH2 3319   6.045   4.672   3.492
 1125TIP3    H1 3320   6.040   4.627   3.408
 1125TIP3    H2 3321   6.100   4.616   3.547
 1126TIP3   OH2 3322   3.362   5.308   2.071
 1126TIP3    H1 3323   3.395   5.389   2.110
 1126TIP3    H2 3324   3.440   5.255   2.055
 1127TIP3   OH2 3325   2.971   5.208   1.583
 1127TIP3    H1 3326   2.889   5.223   1.630
 1127TIP3    H2 3327   3.008   5.296   1.572
 1128TIP3   OH2 3328   7.674   5.976   2.392
 1128TIP3    H1 3329   7.589   5.958   2.351
 1128TIP3    H2 3330   7.696   6.064   2.361
 1129TIP3   OH2 3331   3.329   0.531   3.819
 1129TIP3    H1 3332   3.236   0.549   3.809
 1129TIP3    H2 3333   3.361   0.600   3.878
 1130TIP3   OH2 3334   6.545   7.200   2.248
 1130TIP3    H1 3335   6.616   7.242   2.199
 1130TIP3    H2 3336   6.516   7.128   2.191
 1131TIP3   OH2 3337   6.500   7.373   4.736
 1131TIP3    H1 3338   6.489   7.323   4.817
 1131TIP3    H2 3339   6.508   7.464   4.765
 1132TIP3   OH2 3340   5.537   1.941   0.324
 1132TIP3    H1 3341   5.511   1.857   0.363
 1132TIP3    H2 3342   5.531   2.003   0.397
 1133TIP3   OH2 3343   6.944   0.213   0.640
 1133TIP3    H1 3344   6.892   0.191   0.562
 1133TIP3    H2 3345   7.031   0.233   0.606
 1134TIP3   OH2 3346   3.382   7.724   0.231
 1134TIP3    H1 3347   3.373   7.699   0.323
 1134TIP3    H2 3348   3.469   7.693   0.206
 1135TIP3   OH2 3349   7.562   2.813   1.312
 1135TIP3    H1 3350   7.470   2.825   1.288
 1135TIP3    H2 3351   7.599   2.763   1.239
 1136TIP3   OH2 3352   5.485   2.645   6.492
 1136TIP3    H1 3353   5.447   2.607   6.571
 1136TIP3    H2 3354   5.466   2.581   6.423
 1137TIP3   OH2 3355   1.910   6.137   2.017
 1137TIP3    H1 3356   1.843   6.074   2.043
 1137TIP3    H2 3357   1.927   6.116   1.925
 1138TIP3   OH2 3358   1.684   2.315   6.733
 1138TIP3    H1 3359   1.717   2.404   6.746
 1138TIP3    H2 3360   1.748   2.274   6.675
 1139TIP3   OH2 3361   2.195   3.490   5.079
 1139TIP3    H1 3362   2.180   3.560   5.015
 1139TIP3    H2 3363   2.279   3.452   5.054
 1140TIP3   OH2 3364   4.162   6.778   6.050
 1140TIP3    H1 3365   4.181   6.685   6.039
 1140TIP3    H2 3366   4.127   6.806   5.966
 1141TIP3   OH2 3367   0.120   4.440   6.416
 1141TIP3    H1 3368   0.163   4.515   6.457
 1141TIP3    H2 3369   0.031   4.470   6.400
 1142TIP3   OH2 3370   8.026   0.251   6.395
 1142TIP3    H1 3371   8.086   0.274   6.324
 1142TIP3    H2 3372   7.946   0.225   6.350
 1143TIP3   OH2 3373   0.788   5.589   5.556
 1143TIP3    H1 3374   0.757   5.567   5.468
 1143TIP3    H2 3375   0.878   5.556   5.558
 1144TIP3   OH2 3376   5.701   2.638   3.457
 1144TIP3    H1 3377   5.733   2.698   3.390
 1144TIP3    H2 3378   5.701   2.691   3.537
 1145TIP3   OH2 3379   4.462   3.961   6.776
 1145TIP3    H1 3380   4.421   3.875   6.786
 1145TIP3    H2 3381   4.404   4.009   6.717
 1146TIP3   OH2 3382   2.116   5.399   5.443
 1146TIP3    H1 3383   2.195   5.443   5.476
 1146TIP3    H2 3384   2.096   5.334   5.511
 1147TIP3   OH2 3385   5.278   1.588   5.879
 1147TIP3    H1 3386   5.371   1.569   5.896
 1147TIP3    H2 3387   5.235   1.575   5.963
 1148TIP3   OH2 3388   3.008   3.989   3.612
 1148TIP3    H1 3389   2.996   4.076   3.652
 1148TIP3    H2 3390   2.977   3.928   3.679
 1149TIP3   OH2 3391   1.942   3.536   4.328
 1149TIP3    H1 3392   2.010   3.482   4.367
 1149TIP3    H2 3393   1.974   3.626   4.337
 1150TIP3   OH2 3394   1.151   6.125   4.684
 1150TIP3    H1 3395   1.074   6.149   4.633
 1150TIP3    H2 3396   1.185   6.047   4.641
 1151TIP3   OH2 3397   4.981   0.838   5.616
 1151TIP3    H1 3398   4.914   0.899   5.645
 1151TIP3    H2 3399   4.951   0.809   5.529
 1152TIP3   OH2 3400   1.440   1.911   2.723
 1152TIP3    H1 3401   1.488   1.899   2.805
 1152TIP3    H2 3402   1.348   1.901   2.747
 1153TIP3   OH2 3403   6.916   7.435   5.390
 1153TIP3    H1 3404   7.004   7.420   5.424
 1153TIP3    H2 3405   6.878   7.347   5.385
 1154TIP3   OH2 3406   5.639   2.505   4.200
 1154TIP3    H1 3407   5.548   2.506   4.171
 1154TIP3    H2 3408   5.635   2.482   4.293
 1155TIP3   OH2 3409   0.941   7.179   6.142
 1155TIP3    H1 3410   0.912   7.120   6.072
 1155TIP3    H2 3411   0.940   7.266   6.103
 1156TIP3   OH2 3412   0.134   2.077   1.577
 1156TIP3    H1 3413   0.111   2.168   1.592
 1156TIP3    H2 3414   0.069   2.027   1.627
 1157TIP3   OH2 3415   1.757   4.030   0.969
 1157TIP3    H1 3416   1.743   4.033   0.874
 1157TIP3    H2 3417   1.763   3.937   0.989
 1158TIP3   OH2 3418   5.114   0.671   3.446
 1158TIP3    H1 3419   5.081   0.588   3.482
 1158TIP3    H2 3420   5.084   0.737   3.509
 1159TIP3   OH2 3421   6.646   7.274   3.453
 1159TIP3    H1 3422   6.734   7.285   3.490
 1159TIP3    H2 3423   6.632   7.352   3.399
 1160TIP3   OH2 3424   4.288   0.829   1.760
 1160TIP3    H1 3425   4.284   0.739   1.725
 1160TIP3    H2 3426   4.231   0.879   1.703
 1161TIP3   OH2 3427   0.744   2.894   2.038
 1161TIP3    H1 3428   0.732   2.980   1.996
 1161TIP3    H2 3429   0.762   2.915   2.130
 1162TIP3   OH2 3430   0.075   3.626   6.633
 1162TIP3    H1 3431   0.167   3.653   6.631
 1162TIP3    H2 3432   0.064   3.573   6.554
 1163TIP3   OH2 3433   2.130   5.210   1.021
 1163TIP3    H1 3434   2.130   5.129   1.072
 1163TIP3    H2 3435   2.038   5.224   0.999
 1164TIP3   OH2 3436   5.437   7.633   0.191
 1164TIP3    H1 3437   5.430   7.565   0.124
 1164TIP3    H2 3438   5.520   7.615   0.235
 1165TIP3   OH2 3439   3.207   2.249   4.893
 1165TIP3    H1 3440   3.166   2.330   4.862
 1165TIP3    H2 3441   3.176   2.182   4.832
 1166TIP3   OH2 3442   4.444   2.507   4.373
 1166TIP3    H1 3443   4.410   2.418   4.372
 1166TIP3    H2 3444   4.444   2.532   4.465
 1167TIP3   OH2 3445   6.085   0.606   1.917
 1167TIP3    H1 3446   6.171   0.619   1.876
 1167TIP3    H2 3447   6.105   0.586   2.008
 1168TIP3   OH2 3448   1.525   6.933   2.417
 1168TIP3    H1 3449   1.564   7.018   2.438
 1168TIP3    H2 3450   1.502   6.939   2.325
 1169TIP3   OH2 3451   7.307   5.383   3.623
 1169TIP3    H1 3452   7.247   5.363   3.551
 1169TIP3    H2 3453   7.253   5.378   3.702
 1170TIP3   OH2 3454   1.948   7.629   6.446
 1170TIP3    H1 3455   1.898   7.603   6.369
 1170TIP3    H2 3456   1.955   7.549   6.498
 1171TIP3   OH2 3457   2.862   7.356   2.803
 1171TIP3    H1 3458   2.800   7.346   2.731
 1171TIP3    H2 3459   2.811   7.392   2.875
 1172TIP3   OH2 3460   6.119   0.196   2.860
 1172TIP3    H1 3461   6.111   0.223   2.768
 1172TIP3    H2 3462   6.115   0.277   2.909
 1173TIP3   OH2 3463   7.312   3.364   5.550
 1173TIP3    H1 3464   7.327   3.407   5.634
 1173TIP3    H2 3465   7.392   3.381   5.500
 1174TIP3   OH2 3466   5.577   5.191   2.431
 1174TIP3    H1 3467   5.485   5.216   2.431
 1174TIP3    H2 3468   5.600   5.181   2.338
 1175TIP3   OH2 3469   7.339   0.259   1.691
 1175TIP3    H1 3470   7.256   0.296   1.661
 1175TIP3    H2 3471   7.340   0.171   1.655
 1176TIP3   OH2 3472   2.577   0.828   2.205
 1176TIP3    H1 3473   2.596   0.734   2.201
 1176TIP3    H2 3474   2.591   0.859   2.115
 1177TIP3   OH2 3475   5.162   1.503   0.414
 1177TIP3    H1 3476   5.106   1.523   0.339
 1177TIP3    H2 3477   5.123   1.424   0.452
 1178TIP3   OH2 3478   2.054   1.293   3.556
 1178TIP3    H1 3479   2.087   1.322   3.641
 1178TIP3    H2 3480   2.133   1.273   3.506
 1179TIP3   OH2 3481   7.372   7.353   0.863
 1179TIP3    H1 3482   7.307   7.422   0.848
 1179TIP3    H2 3483   7.452   7.385   0.821
 1180TIP3   OH2 3484   0.217   6.454   3.531
 1180TIP3    H1 3485   0.195   6.516   3.600
 1180TIP3    H2 3486   0.135   6.440   3.484
 1181TIP3   OH2 3487   5.800   4.864   6.522
 1181TIP3    H1 3488   5.734   4.865   6.453
 1181TIP3    H2 3489   5.846   4.780   6.511
 1182TIP3   OH2 3490   4.387   6.129   3.477
 1182TIP3    H1 3491   4.302   6.146   3.435
 1182TIP3    H2 3492   4.438   6.208   3.459
 1183TIP3   OH2 3493   7.992   3.273   0.950
 1183TIP3    H1 3494   7.950   3.192   0.979
 1183TIP3    H2 3495   7.983   3.273   0.855
 1184TIP3   OH2 3496   3.027   0.128   2.411
 1184TIP3    H1 3497   3.080   0.051   2.430
 1184TIP3    H2 3498   3.054   0.156   2.323
 1185TIP3   OH2 3499   3.437   2.616   5.209
 1185TIP3    H1 3500   3.374   2.667   5.158
 1185TIP3    H2 3501   3.516   2.670   5.210
 1186TIP3   OH2 3502   7.404   5.808   1.560
 1186TIP3    H1 3503   7.345   5.786   1.487
 1186TIP3    H2 3504   7.417   5.725   1.606
 1187TIP3   OH2 3505   4.997   6.402   3.393
 1187TIP3    H1 3506   5.031   6.461   3.325
 1187TIP3    H2 3507   5.063   6.404   3.462
 1188TIP3   OH2 3508   3.136   2.962   3.474
 1188TIP3    H1 3509   3.131   2.926   3.386
 1188TIP3    H2 3510   3.213   3.020   3.472
 1189TIP3   OH2 3511   4.534   2.260   5.812
 1189TIP3    H1 3512   4.524   2.222   5.724
 1189TIP3    H2 3513   4.580   2.194   5.862
 1190TIP3   OH2 3514   7.524   4.968   3.479
 1190TIP3    H1 3515   7.493   4.998   3.565
 1190TIP3    H2 3516   7.596   5.028   3.458
 1191TIP3   OH2 3517   2.000   2.079   6.746
 1191TIP3    H1 3518   1.992   2.145   6.815
 1191TIP3    H2 3519   1.950   2.115   6.672
 1192TIP3   OH2 3520   4.295   5.051   5.019
 1192TIP3    H1 3521   4.279   5.050   4.925
 1192TIP3    H2 3522   4.384   5.016   5.028
 1193TIP3   OH2 3523   3.897   5.001   4.215
 1193TIP3    H1 3524   3.928   4.968   4.299
 1193TIP3    H2 3525   3.929   5.091   4.211
 1194TIP3   OH2 3526   2.656   4.875   4.035
 1194TIP3    H1 3527   2.699   4.795   4.006
 1194TIP3    H2 3528   2.688   4.888   4.125
 1195TIP3   OH2 3529   6.872   7.742   1.346
 1195TIP3    H1 3530   6.856   7.654   1.382
 1195TIP3    H2 3531   6.921   7.787   1.415
 1196TIP3   OH2 3532   0.813   1.420   2.784
 1196TIP3    H1 3533   0.797   1.514   2.793
 1196TIP3    H2 3534   0.829   1.407   2.690
 1197TIP3   OH2 3535   0.375   4.282   5.677
 1197TIP3    H1 3536   0.421   4.225   5.738
 1197TIP3    H2 3537   0.376   4.235   5.594
 1198TIP3   OH2 3538   1.686   3.276   4.655
 1198TIP3    H1 3539   1.692   3.288   4.560
 1198TIP3    H2 3540   1.593   3.262   4.672
 1199TIP3   OH2 3541   1.405   4.024   1.024
 1199TIP3    H1 3542   1.429   3.968   1.098
 1199TIP3    H2 3543   1.363   4.100   1.065
 1200TIP3   OH2 3544   0.464   1.074   3.204
 1200TIP3    H1 3545   0.516   1.057   3.282
 1200TIP3    H2 3546   0.378   1.100   3.237
 1201TIP3   OH2 3547   1.507   6.093   0.582
 1201TIP3    H1 3548   1.537   6.177   0.546
 1201TIP3    H2 3549   1.412   6.100   0.582
 1202TIP3   OH2 3550   7.641   2.817   0.502
 1202TIP3    H1 3551   7.620   2.907   0.528
 1202TIP3    H2 3552   7.600   2.762   0.568
 1203TIP3   OH2 3553   2.233   6.447   2.111
 1203TIP3    H1 3554   2.262   6.421   2.023
 1203TIP3    H2 3555   2.193   6.369   2.148
 1204TIP3   OH2 3556   1.759   5.495   2.991
 1204TIP3    H1 3557   1.800   5.439   3.056
 1204TIP3    H2 3558   1.831   5.523   2.934
 1205TIP3   OH2 3559   3.194   6.271   5.160
 1205TIP3    H1 3560   3.200   6.242   5.070
 1205TIP3    H2 3561   3.250   6.212   5.210
 1206TIP3   OH2 3562   0.908   7.399   0.288
 1206TIP3    H1 3563   0.829   7.357   0.253
 1206TIP3    H2 3564   0.877   7.450   0.363
 1207TIP3   OH2 3565   1.231   3.517   2.174
 1207TIP3    H1 3566   1.179   3.510   2.094
 1207TIP3    H2 3567   1.170   3.552   2.239
 1208TIP3   OH2 3568   7.723   5.072  -0.030
 1208TIP3    H1 3569   7.737   4.984   0.005
 1208TIP3    H2 3570   7.785   5.127   0.018
 1209TIP3   OH2 3571   2.866   5.380   6.065
 1209TIP3    H1 3572   2.840   5.468   6.038
 1209TIP3    H2 3573   2.784   5.339   6.095
 1210TIP3   OH2 3574   8.192   4.698   1.824
 1210TIP3    H1 3575   8.145   4.752   1.887
 1210TIP3    H2 3576   8.134   4.694   1.748
 1211TIP3   OH2 3577   0.717   5.272   1.091
 1211TIP3    H1 3578   0.811   5.279   1.108
 1211TIP3    H2 3579   0.679   5.348   1.135
 1212TIP3   OH2 3580   2.938   0.605   1.120
 1212TIP3    H1 3581   2.922   0.527   1.173
 1212TIP3    H2 3582   3.033   0.617   1.122
 1213TIP3   OH2 3583   3.214   1.646   1.754
 1213TIP3    H1 3584   3.196   1.598   1.835
 1213TIP3    H2 3585   3.190   1.736   1.774
 1214TIP3   OH2 3586   3.111   1.130   1.621
 1214TIP3    H1 3587   3.141   1.095   1.705
 1214TIP3    H2 3588   3.022   1.096   1.611
 1215TIP3   OH2 3589   6.134   4.199   1.048
 1215TIP3    H1 3590   6.056   4.192   0.993
 1215TIP3    H2 3591   6.202   4.232   0.989
 1216TIP3   OH2 3592   7.905   6.866   4.752
 1216TIP3    H1 3593   7.897   6.931   4.682
 1216TIP3    H2 3594   7.905   6.917   4.833
 1217TIP3   OH2 3595   6.630   1.806   3.645
 1217TIP3    H1 3596   6.653   1.713   3.648
 1217TIP3    H2 3597   6.690   1.847   3.707
 1218TIP3   OH2 3598   7.755   5.358   0.318
 1218TIP3    H1 3599   7.835   5.389   0.362
 1218TIP3    H2 3600   7.775   5.267   0.296
 1219TIP3   OH2 3601   1.518   5.883   0.944
 1219TIP3    H1 3602   1.593   5.936   0.917
 1219TIP3    H2 3603   1.479   5.932   1.016
 1220TIP3   OH2 3604   5.969   6.036   6.041
 1220TIP3    H1 3605   6.040   5.976   6.064
 1220TIP3    H2 3606   5.998   6.121   6.075
 1221TIP3   OH2 3607   0.048   6.558   0.988
 1221TIP3    H1 3608   0.007   6.556   0.901
 1221TIP3    H2 3609   0.002   6.627   1.035
 1222TIP3   OH2 3610   8.283   6.164   0.161
 1222TIP3    H1 3611   8.247   6.152   0.249
 1222TIP3    H2 3612   8.308   6.077   0.133
 1223TIP3   OH2 3613   2.141   6.193   2.160
 1223TIP3    H1 3614   2.055   6.176   2.122
 1223TIP3    H2 3615   2.140   6.147   2.244
 1224TIP3   OH2 3616   6.689   1.920   1.612
 1224TIP3    H1 3617   6.666   1.943   1.703
 1224TIP3    H2 3618   6.766   1.865   1.620
 1225TIP3   OH2 3619   0.842   2.323   1.299
 1225TIP3    H1 3620   0.912   2.324   1.234
 1225TIP3    H2 3621   0.887   2.330   1.383
 1226TIP3   OH2 3622   0.441   1.193   3.930
 1226TIP3    H1 3623   0.533   1.166   3.926
 1226TIP3    H2 3624   0.421   1.223   3.841
 1227TIP3   OH2 3625   6.414   5.275   4.076
 1227TIP3    H1 3626   6.332   5.239   4.109
 1227TIP3    H2 3627   6.408   5.369   4.093
 1228TIP3   OH2 3628   2.838   2.218   1.115
 1228TIP3    H1 3629   2.802   2.249   1.199
 1228TIP3    H2 3630   2.883   2.137   1.137
 1229TIP3   OH2 3631   1.553   6.873   2.146
 1229TIP3    H1 3632   1.638   6.918   2.142
 1229TIP3    H2 3633   1.575   6.780   2.138
 1230TIP3   OH2 3634   3.354   6.550   6.457
 1230TIP3    H1 3635   3.338   6.468   6.410
 1230TIP3    H2 3636   3.328   6.531   6.548
 1231TIP3   OH2 3637   7.836   4.195   6.716
 1231TIP3    H1 3638   7.921   4.205   6.673
 1231TIP3    H2 3639   7.855   4.205   6.809
 1232TIP3   OH2 3640   1.583   2.427   0.994
 1232TIP3    H1 3641   1.625   2.353   0.950
 1232TIP3    H2 3642   1.580   2.495   0.927
 1233TIP3   OH2 3643   2.090   5.401   3.165
 1233TIP3    H1 3644   2.169   5.394   3.112
 1233TIP3    H2 3645   2.102   5.480   3.217
 1234TIP3   OH2 3646   0.896   1.392   2.504
 1234TIP3    H1 3647   0.815   1.406   2.454
 1234TIP3    H2 3648   0.965   1.428   2.448
 1235TIP3   OH2 3649   5.482   3.206   5.272
 1235TIP3    H1 3650   5.400   3.231   5.315
 1235TIP3    H2 3651   5.462   3.209   5.178
 1236TIP3   OH2 3652   2.463   3.587   1.252
 1236TIP3    H1 3653   2.438   3.568   1.162
 1236TIP3    H2 3654   2.537   3.530   1.270
 1237TIP3   OH2 3655   1.861   0.840   0.881
 1237TIP3    H1 3656   1.898   0.911   0.828
 1237TIP3    H2 3657   1.841   0.771   0.817
 1238TIP3   OH2 3658   1.987   0.316   0.587
 1238TIP3    H1 3659   1.973   0.249   0.520
 1238TIP3    H2 3660   1.935   0.391   0.556
 1239TIP3   OH2 3661   6.335   4.675   3.301
 1239TIP3    H1 3662   6.307   4.613   3.369
 1239TIP3    H2 3663   6.259   4.682   3.243
 1240TIP3   OH2 3664   1.455   6.680   2.539
 1240TIP3    H1 3665   1.372   6.653   2.499
 1240TIP3    H2 3666   1.487   6.749   2.480
 1241TIP3   OH2 3667   7.710   7.305   3.174
 1241TIP3    H1 3668   7.649   7.231   3.169
 1241TIP3    H2 3669   7.654   7.382   3.181
 1242TIP3   OH2 3670   7.404   5.379   4.435
 1242TIP3    H1 3671   7.385   5.429   4.355
 1242TIP3    H2 3672   7.414   5.446   4.503
 1243TIP3   OH2 3673   0.418   0.758   1.997
 1243TIP3    H1 3674   0.511   0.748   1.977
 1243TIP3    H2 3675   0.388   0.824   1.934
 1244TIP3   OH2 3676   1.979   1.944   1.175
 1244TIP3    H1 3677   1.932   2.016   1.135
 1244TIP3    H2 3678   1.911   1.886   1.209
 1245TIP3   OH2 3679   6.712   0.706   5.652
 1245TIP3    H1 3680   6.717   0.757   5.571
 1245TIP3    H2 3681   6.618   0.701   5.671
 1246TIP3   OH2 3682   2.023   2.206   2.333
 1246TIP3    H1 3683   2.018   2.272   2.264
 1246TIP3    H2 3684   2.085   2.242   2.397
 1247TIP3   OH2 3685   4.473   7.625   2.658
 1247TIP3    H1 3686   4.446   7.675   2.581
 1247TIP3    H2 3687   4.532   7.558   2.623
 1248TIP3   OH2 3688   5.755   3.428   2.117
 1248TIP3    H1 3689   5.742   3.453   2.208
 1248TIP3    H2 3690   5.818   3.356   2.121
 1249TIP3   OH2 3691   0.530   0.414   4.991
 1249TIP3    H1 3692   0.615   0.390   5.028
 1249TIP3    H2 3693   0.468   0.354   5.033
 1250TIP3   OH2 3694   3.176   0.518   4.776
 1250TIP3    H1 3695   3.185   0.573   4.698
 1250TIP3    H2 3696   3.196   0.576   4.849
 1251TIP3   OH2 3697   4.953   0.290   1.592
 1251TIP3    H1 3698   4.887   0.270   1.658
 1251TIP3    H2 3699   4.970   0.384   1.602
 1252TIP3   OH2 3700   1.957   6.996   4.888
 1252TIP3    H1 3701   1.958   7.085   4.924
 1252TIP3    H2 3702   2.045   6.984   4.852
 1253TIP3   OH2 3703   1.845   1.655   1.918
 1253TIP3    H1 3704   1.875   1.694   1.836
 1253TIP3    H2 3705   1.829   1.563   1.896
 1254TIP3   OH2 3706   3.522   0.244   4.066
 1254TIP3    H1 3707   3.527   0.321   4.123
 1254TIP3    H2 3708   3.539   0.170   4.124
 1255TIP3   OH2 3709   1.724   7.189   6.474
 1255TIP3    H1 3710   1.737   7.098   6.501
 1255TIP3    H2 3711   1.637   7.211   6.505
 1256TIP3   OH2 3712   2.111   6.020   2.373
 1256TIP3    H1 3713   2.132   6.005   2.465
 1256TIP3    H2 3714   2.103   5.932   2.335
 1257TIP3   OH2 3715   6.158   0.343   5.762
 1257TIP3    H1 3716   6.155   0.380   5.674
 1257TIP3    H2 3717   6.082   0.285   5.766
 1258TIP3   OH2 3718   2.326   3.582   0.645
 1258TIP3    H1 3719   2.316   3.587   0.550
 1258TIP3    H2 3720   2.415   3.549   0.658
 1259TIP3   OH2 3721   5.482   3.456   5.632
 1259TIP3    H1 3722   5.544   3.403   5.583
 1259TIP3    H2 3723   5.446   3.397   5.698
 1260TIP3   OH2 3724   3.081   5.100   0.077
 1260TIP3    H1 3725   3.046   5.133  -0.005
 1260TIP3    H2 3726   3.174   5.123   0.075
 1261TIP3   OH2 3727   1.352   0.952   5.194
 1261TIP3    H1 3728   1.392   0.866   5.179
 1261TIP3    H2 3729   1.268   0.947   5.148
 1262TIP3   OH2 3730   1.168   2.255   0.180
 1262TIP3    H1 3731   1.093   2.313   0.197
 1262TIP3    H2 3732   1.244   2.309   0.199
 1263TIP3   OH2 3733   5.203   4.085   5.119
 1263TIP3    H1 3734   5.169   4.134   5.194
 1263TIP3    H2 3735   5.218   3.997   5.153
 1264TIP3   OH2 3736  -0.022   0.623   5.557
 1264TIP3    H1 3737   0.051   0.611   5.619
 1264TIP3    H2 3738  -0.017   0.546   5.500
 1265TIP3   OH2 3739   6.430   4.491   1.270
 1265TIP3    H1 3740   6.429   4.579   1.309
 1265TIP3    H2 3741   6.346   4.453   1.296
 1266TIP3   OH2 3742   0.619   5.751   4.788
 1266TIP3    H1 3743   0.531   5.717   4.776
 1266TIP3    H2 3744   0.607   5.845   4.806
 1267TIP3   OH2 3745   2.503   1.033   2.663
 1267TIP3    H1 3746   2.591   1.055   2.693
 1267TIP3    H2 3747   2.445   1.086   2.718
 1268TIP3   OH2 3748   4.413   5.736   2.276
 1268TIP3    H1 3749   4.444   5.824   2.252
 1268TIP3    H2 3750   4.319   5.747   2.291
 1269TIP3   OH2 3751   2.675   7.049   4.752
 1269TIP3    H1 3752   2.723   7.123   4.714
 1269TIP3    H2 3753   2.727   7.025   4.829
 1270TIP3   OH2 3754   2.437   5.933   3.685
 1270TIP3    H1 3755   2.407   6.024   3.696
 1270TIP3    H2 3756   2.384   5.883   3.748
 1271TIP3   OH2 3757   4.400   0.704   6.514
 1271TIP3    H1 3758   4.419   0.784   6.562
 1271TIP3    H2 3759   4.371   0.641   6.580
 1272TIP3   OH2 3760   7.156   0.174   6.707
 1272TIP3    H1 3761   7.138   0.214   6.622
 1272TIP3    H2 3762   7.112   0.089   6.703
 1273TIP3   OH2 3763   1.169   7.175   1.959
 1273TIP3    H1 3764   1.191   7.082   1.961
 1273TIP3    H2 3765   1.229   7.216   2.021
 1274TIP3   OH2 3766   3.454   1.525   1.148
 1274TIP3    H1 3767   3.500   1.596   1.192
 1274TIP3    H2 3768   3.367   1.524   1.187
 1275TIP3   OH2 3769   2.718   2.884   2.449
 1275TIP3    H1 3770   2.799   2.896   2.400
 1275TIP3    H2 3771   2.652   2.931   2.398
 1276TIP3   OH2 3772   6.318   2.425   2.174
 1276TIP3    H1 3773   6.266   2.471   2.108
 1276TIP3    H2 3774   6.295   2.333   2.162
 1277TIP3   OH2 3775   3.535   7.132   4.108
 1277TIP3    H1 3776   3.626   7.151   4.088
 1277TIP3    H2 3777   3.535   7.108   4.201
 1278TIP3   OH2 3778   0.015   1.598   1.472
 1278TIP3    H1 3779  -0.065   1.572   1.426
 1278TIP3    H2 3780   0.086   1.558   1.421
 1279TIP3   OH2 3781   6.824   5.276   4.534
 1279TIP3    H1 3782   6.884   5.202   4.541
 1279TIP3    H2 3783   6.865   5.345   4.586
 1280TIP3   OH2 3784   3.983   4.507   4.026
 1280TIP3    H1 3785   3.894   4.520   3.992
 1280TIP3    H2 3786   3.982   4.551   4.111
 1281TIP3   OH2 3787   2.671   1.152   1.092
 1281TIP3    H1 3788   2.633   1.228   1.048
 1281TIP3    H2 3789   2.704   1.186   1.175
 1282TIP3   OH2 3790   0.726   5.506   3.353
 1282TIP3    H1 3791   0.655   5.520   3.416
 1282TIP3    H2 3792   0.745   5.412   3.358
 1283TIP3   OH2 3793   4.745   2.245   6.279
 1283TIP3    H1 3794   4.806   2.182   6.317
 1283TIP3    H2 3795   4.678   2.191   6.237
 1284TIP3   OH2 3796   6.983   1.464   3.769
 1284TIP3    H1 3797   7.017   1.479   3.857
 1284TIP3    H2 3798   6.982   1.369   3.760
 1285TIP3   OH2 3799   5.666   2.192   0.736
 1285TIP3    H1 3800   5.581   2.212   0.775
 1285TIP3    H2 3801   5.720   2.162   0.809
 1286TIP3   OH2 3802   7.447   7.755   5.163
 1286TIP3    H1 3803   7.360   7.720   5.144
 1286TIP3    H2 3804   7.476   7.707   5.240
 1287TIP3   OH2 3805   6.418   2.411   2.880
 1287TIP3    H1 3806   6.392   2.319   2.879
 1287TIP3    H2 3807   6.512   2.410   2.893
 1288TIP3   OH2 3808   7.504   0.849   6.426
 1288TIP3    H1 3809   7.445   0.924   6.433
 1288TIP3    H2 3810   7.566   0.861   6.498
 1289TIP3   OH2 3811   0.229   2.009   0.133
 1289TIP3    H1 3812   0.159   1.990   0.196
 1289TIP3    H2 3813   0.229   1.933   0.075
 1290TIP3   OH2 3814   7.413   4.793   0.705
 1290TIP3    H1 3815   7.484   4.738   0.670
 1290TIP3    H2 3816   7.342   4.732   0.722
 1291TIP3   OH2 3817   3.987   7.755   4.923
 1291TIP3    H1 3818   4.013   7.835   4.968
 1291TIP3    H2 3819   4.069   7.710   4.905
 1292TIP3   OH2 3820   3.223   4.456   1.353
 1292TIP3    H1 3821   3.203   4.550   1.359
 1292TIP3    H2 3822   3.195   4.420   1.437
 1293TIP3   OH2 3823   4.090   1.795   3.130
 1293TIP3    H1 3824   4.027   1.728   3.105
 1293TIP3    H2 3825   4.098   1.786   3.225
 1294TIP3   OH2 3826   1.826   1.736   4.335
 1294TIP3    H1 3827   1.796   1.645   4.335
 1294TIP3    H2 3828   1.860   1.749   4.246
 1295TIP3   OH2 3829   5.448   7.476   6.159
 1295TIP3    H1 3830   5.354   7.471   6.140
 1295TIP3    H2 3831   5.490   7.457   6.075
 1296TIP3   OH2 3832   4.936   6.275   6.519
 1296TIP3    H1 3833   4.961   6.211   6.585
 1296TIP3    H2 3834   4.914   6.354   6.569
 1297TIP3   OH2 3835   0.096   2.878   1.167
 1297TIP3    H1 3836   0.071   2.822   1.094
 1297TIP3    H2 3837   0.022   2.938   1.178
 1298TIP3   OH2 3838   0.860   6.280   3.321
 1298TIP3    H1 3839   0.802   6.337   3.370
 1298TIP3    H2 3840   0.860   6.316   3.232
 1299TIP3   OH2 3841   7.166   3.740   5.092
 1299TIP3    H1 3842   7.191   3.728   5.001
 1299TIP3    H2 3843   7.200   3.827   5.115
 1300TIP3   OH2 3844   3.954   6.771   1.498
 1300TIP3    H1 3845   3.891   6.702   1.480
 1300TIP3    H2 3846   3.910   6.852   1.472
 1301TIP3   OH2 3847   8.246   5.740   2.871
 1301TIP3    H1 3848   8.180   5.771   2.810
 1301TIP3    H2 3849   8.197   5.689   2.936
 1302TIP3   OH2 3850   4.240   3.548   4.037
 1302TIP3    H1 3851   4.167   3.523   3.980
 1302TIP3    H2 3852   4.214   3.517   4.124
 1303TIP3   OH2 3853   1.187   0.231   0.784
 1303TIP3    H1 3854   1.242   0.238   0.862
 1303TIP3    H2 3855   1.234   0.279   0.717
 1304TIP3   OH2 3856   7.972   6.054   3.501
 1304TIP3    H1 3857   7.996   5.969   3.538
 1304TIP3    H2 3858   7.968   6.113   3.576
 1305TIP3   OH2 3859   6.531   3.831   1.892
 1305TIP3    H1 3860   6.616   3.792   1.870
 1305TIP3    H2 3861   6.487   3.841   1.808
 1306TIP3   OH2 3862   6.219   2.946   5.254
 1306TIP3    H1 3863   6.146   2.996   5.291
 1306TIP3    H2 3864   6.282   3.012   5.225
 1307TIP3   OH2 3865   6.675   1.530   5.555
 1307TIP3    H1 3866   6.667   1.577   5.472
 1307TIP3    H2 3867   6.681   1.438   5.531
 1308TIP3   OH2 3868   5.888   4.868   3.568
 1308TIP3    H1 3869   5.948   4.795   3.554
 1308TIP3    H2 3870   5.831   4.838   3.640
 1309TIP3   OH2 3871   0.564   3.670   0.031
 1309TIP3    H1 3872   0.583   3.746  -0.025
 1309TIP3    H2 3873   0.557   3.707   0.119
 1310TIP3   OH2 3874   2.201   1.684   1.766
 1310TIP3    H1 3875   2.152   1.603   1.779
 1310TIP3    H2 3876   2.245   1.673   1.683
 1311TIP3   OH2 3877   5.257   0.200   0.567
 1311TIP3    H1 3878   5.174   0.152   0.576
 1311TIP3    H2 3879   5.251   0.240   0.480
 1312TIP3   OH2 3880   4.161   0.345   2.464
 1312TIP3    H1 3881   4.074   0.384   2.452
 1312TIP3    H2 3882   4.198   0.341   2.375
 1313TIP3   OH2 3883   6.460   7.780   4.996
 1313TIP3    H1 3884   6.390   7.740   4.944
 1313TIP3    H2 3885   6.534   7.720   4.988
 1314TIP3   OH2 3886   4.184   1.650   5.460
 1314TIP3    H1 3887   4.198   1.626   5.368
 1314TIP3    H2 3888   4.218   1.576   5.510
 1315TIP3   OH2 3889   5.150   0.620   5.067
 1315TIP3    H1 3890   5.134   0.677   5.142
 1315TIP3    H2 3891   5.239   0.640   5.039
 1316TIP3   OH2 3892   7.098   7.424   1.475
 1316TIP3    H1 3893   7.070   7.396   1.388
 1316TIP3    H2 3894   7.018   7.451   1.519
 1317TIP3   OH2 3895   6.780   4.268   5.522
 1317TIP3    H1 3896   6.786   4.252   5.428
 1317TIP3    H2 3897   6.775   4.363   5.530
 1318TIP3   OH2 3898   2.959   5.472   2.005
 1318TIP3    H1 3899   3.014   5.481   1.927
 1318TIP3    H2 3900   2.933   5.561   2.027
 1319TIP3   OH2 3901   7.211   5.253   4.612
 1319TIP3    H1 3902   7.260   5.292   4.540
 1319TIP3    H2 3903   7.176   5.172   4.577
 1320TIP3   OH2 3904   8.097   5.691   0.498
 1320TIP3    H1 3905   8.143   5.737   0.428
 1320TIP3    H2 3906   8.090   5.756   0.569
 1321TIP3   OH2 3907   2.861   6.776   5.401
 1321TIP3    H1 3908   2.832   6.685   5.403
 1321TIP3    H2 3909   2.826   6.814   5.482
 1322TIP3   OH2 3910   3.265   7.823   3.954
 1322TIP3    H1 3911   3.339   7.882   3.967
 1322TIP3    H2 3912   3.266   7.764   4.029
 1323TIP3   OH2 3913   0.885   5.738   2.899
 1323TIP3    H1 3914   0.806   5.774   2.858
 1323TIP3    H2 3915   0.883   5.645   2.878
 1324TIP3   OH2 3916   2.991   2.842   5.524
 1324TIP3    H1 3917   2.986   2.773   5.590
 1324TIP3    H2 3918   3.038   2.801   5.451
 1325TIP3   OH2 3919   1.466   2.667   4.861
 1325TIP3    H1 3920   1.547   2.616   4.875
 1325TIP3    H2 3921   1.407   2.606   4.817
 1326TIP3   OH2 3922   8.011   2.629   2.461
 1326TIP3    H1 3923   8.047   2.658   2.544
 1326TIP3    H2 3924   8.078   2.651   2.396
 1327TIP3   OH2 3925   5.719   2.250   4.755
 1327TIP3    H1 3926   5.691   2.161   4.732
 1327TIP3    H2 3927   5.637   2.299   4.766
 1328TIP3   OH2 3928   7.253   1.185   3.788
 1328TIP3    H1 3929   7.308   1.263   3.783
 1328TIP3    H2 3930   7.315   1.112   3.791
 1329TIP3   OH2 3931   3.568   6.505   4.614
 1329TIP3    H1 3932   3.528   6.536   4.695
 1329TIP3    H2 3933   3.594   6.415   4.633
 1330TIP3   OH2 3934   0.432   7.458   2.388
 1330TIP3    H1 3935   0.364   7.395   2.365
 1330TIP3    H2 3936   0.479   7.418   2.461
 1331TIP3   OH2 3937   5.650   6.591   3.087
 1331TIP3    H1 3938   5.591   6.661   3.116
 1331TIP3    H2 3939   5.636   6.585   2.993
 1332TIP3   OH2 3940   1.937   0.346   0.880
 1332TIP3    H1 3941   2.004   0.409   0.908
 1332TIP3    H2 3942   1.922   0.367   0.787
 1333TIP3   OH2 3943   6.855   4.559   5.520
 1333TIP3    H1 3944   6.799   4.562   5.442
 1333TIP3    H2 3945   6.944   4.554   5.486
 1334TIP3   OH2 3946   5.198   3.339   5.054
 1334TIP3    H1 3947   5.208   3.279   4.981
 1334TIP3    H2 3948   5.219   3.287   5.132
 1335TIP3   OH2 3949   2.701   2.466   2.377
 1335TIP3    H1 3950   2.668   2.388   2.334
 1335TIP3    H2 3951   2.633   2.489   2.441
 1336TIP3   OH2 3952   3.528   5.986   4.877
 1336TIP3    H1 3953   3.446   6.034   4.893
 1336TIP3    H2 3954   3.556   5.958   4.965
 1337TIP3   OH2 3955   7.395   4.592   6.175
 1337TIP3    H1 3956   7.310   4.637   6.182
 1337TIP3    H2 3957   7.384   4.514   6.230
 1338TIP3   OH2 3958   2.326   3.894   5.897
 1338TIP3    H1 3959   2.390   3.931   5.958
 1338TIP3    H2 3960   2.272   3.968   5.870
 1339TIP3   OH2 3961   7.805   4.854   6.024
 1339TIP3    H1 3962   7.852   4.820   6.100
 1339TIP3    H2 3963   7.813   4.784   5.958
 1340TIP3   OH2 3964   5.294   7.292   0.299
 1340TIP3    H1 3965   5.234   7.279   0.226
 1340TIP3    H2 3966   5.355   7.218   0.294
 1341TIP3   OH2 3967   7.310   5.105   6.144
 1341TIP3    H1 3968   7.277   5.192   6.121
 1341TIP3    H2 3969   7.404   5.109   6.125
 1342TIP3   OH2 3970   4.996   0.372   0.803
 1342TIP3    H1 3971   5.082   0.368   0.845
 1342TIP3    H2 3972   4.938   0.323   0.862
 1343TIP3   OH2 3973   6.812   5.473   3.893
 1343TIP3    H1 3974   6.778   5.493   3.806
 1343TIP3    H2 3975   6.780   5.385   3.912
 1344TIP3   OH2 3976   3.491   5.586   1.596
 1344TIP3    H1 3977   3.439   5.579   1.516
 1344TIP3    H2 3978   3.445   5.652   1.648
 1345TIP3   OH2 3979   2.825   3.651   4.922
 1345TIP3    H1 3980   2.840   3.745   4.916
 1345TIP3    H2 3981   2.856   3.628   5.010
 1346TIP3   OH2 3982   7.615   4.190   3.579
 1346TIP3    H1 3983   7.640   4.259   3.518
 1346TIP3    H2 3984   7.533   4.155   3.544
 1347TIP3   OH2 3985   5.503   3.877   5.706
 1347TIP3    H1 3986   5.474   3.967   5.689
 1347TIP3    H2 3987   5.598   3.884   5.716
 1348TIP3   OH2 3988   7.435   7.400   0.173
 1348TIP3    H1 3989   7.349   7.361   0.191
 1348TIP3    H2 3990   7.435   7.415   0.078
 1349TIP3   OH2 3991   7.263   1.244   2.830
 1349TIP3    H1 3992   7.318   1.309   2.873
 1349TIP3    H2 3993   7.266   1.268   2.737
 1350TIP3   OH2 3994   3.730   6.857   0.718
 1350TIP3    H1 3995   3.642   6.865   0.754
 1350TIP3    H2 3996   3.787   6.853   0.795
 1351TIP3   OH2 3997   0.660   1.777   0.138
 1351TIP3    H1 3998   0.717   1.703   0.161
 1351TIP3    H2 3999   0.618   1.801   0.221
 1352TIP3   OH2 4000   1.086   3.351   1.764
 1352TIP3    H1 4001   1.117   3.313   1.846
 1352TIP3    H2 4002   1.136   3.305   1.696
 1353TIP3   OH2 4003   0.045   4.336   2.790
 1353TIP3    H1 4004  -0.022   4.288   2.741
 1353TIP3    H2 4005   0.000   4.362   2.871
 1354TIP3   OH2 4006   0.116   0.070   3.270
 1354TIP3    H1 4007   0.039   0.092   3.217
 1354TIP3    H2 4008   0.185   0.052   3.206
 1355TIP3   OH2 4009   6.793   6.932   1.018
 1355TIP3    H1 4010   6.809   6.893   0.932
 1355TIP3    H2 4011   6.789   6.858   1.078
 1356TIP3   OH2 4012   1.662   3.422   3.022
 1356TIP3    H1 4013   1.616   3.505   3.035
 1356TIP3    H2 4014   1.754   3.443   3.039
 1357TIP3   OH2 4015   4.568   0.910   3.888
 1357TIP3    H1 4016   4.477   0.922   3.859
 1357TIP3    H2 4017   4.605   0.998   3.889
 1358TIP3   OH2 4018   0.911   1.782   3.358
 1358TIP3    H1 4019   0.846   1.744   3.300
 1358TIP3    H2 4020   0.954   1.706   3.399
 1359TIP3   OH2 4021   2.304   0.120   0.094
 1359TIP3    H1 4022   2.360   0.083   0.163
 1359TIP3    H2 4023   2.216   0.116   0.129
 1360TIP3   OH2 4024   1.958   5.015   5.652
 1360TIP3    H1 4025   1.935   5.038   5.562
 1360TIP3    H2 4026   1.935   4.923   5.660
 1361TIP3   OH2 4027   6.072   3.210   5.030
 1361TIP3    H1 4028   6.122   3.266   5.090
 1361TIP3    H2 4029   6.017   3.271   4.981
 1362TIP3   OH2 4030   6.226   1.494   4.385
 1362TIP3    H1 4031   6.293   1.520   4.449
 1362TIP3    H2 4032   6.238   1.554   4.312
 1363TIP3   OH2 4033   0.532   5.888   3.469
 1363TIP3    H1 4034   0.471   5.832   3.422
 1363TIP3    H2 4035   0.564   5.833   3.541
 1364TIP3   OH2 4036   0.329   5.554   1.411
 1364TIP3    H1 4037   0.375   5.477   1.443
 1364TIP3    H2 4038   0.350   5.623   1.474
 1365TIP3   OH2 4039   4.440   1.955   2.088
 1365TIP3    H1 4040   4.490   1.956   2.170
 1365TIP3    H2 4041   4.507   1.969   2.020
 1366TIP3   OH2 4042   0.024   5.470   3.706
 1366TIP3    H1 4043  -0.040   5.436   3.768
 1366TIP3    H2 4044   0.081   5.395   3.686
 1367TIP3   OH2 4045   1.241   3.296   1.972
 1367TIP3    H1 4046   1.327   3.319   1.938
 1367TIP3    H2 4047   1.251   3.300   2.067
 1368TIP3   OH2 4048   6.342   6.015   4.792
 1368TIP3    H1 4049   6.423   6.060   4.768
 1368TIP3    H2 4050   6.308   6.066   4.865
 1369TIP3   OH2 4051   3.455   3.735   5.366
 1369TIP3    H1 4052   3.416   3.648   5.360
 1369TIP3    H2 4053   3.470   3.748   5.459
 1370TIP3   OH2 4054   3.003   6.608   1.434
 1370TIP3    H1 4055   3.054   6.676   1.477
 1370TIP3    H2 4056   3.054   6.587   1.355
 1371TIP3   OH2 4057   1.958   1.621   0.220
 1371TIP3    H1 4058   1.970   1.673   0.141
 1371TIP3    H2 4059   1.916   1.540   0.189
 1372TIP3   OH2 4060   6.473   4.130   2.369
 1372TIP3    H1 4061   6.501   4.075   2.295
 1372TIP3    H2 4062   6.502   4.218   2.346
 1373TIP3   OH2 4063   5.255   2.385   5.938
 1373TIP3    H1 4064   5.182   2.427   5.893
 1373TIP3    H2 4065   5.315   2.456   5.959
 1374TIP3   OH2 4066   1.020   0.136   0.205
 1374TIP3    H1 4067   0.967   0.087   0.141
 1374TIP3    H2 4068   1.021   0.225   0.171
 1375TIP3   OH2 4069   7.222   4.191   4.671
 1375TIP3    H1 4070   7.308   4.214   4.707
 1375TIP3    H2 4071   7.227   4.097   4.657
 1376TIP3   OH2 4072   7.466   7.115   2.383
 1376TIP3    H1 4073   7.528   7.188   2.380
 1376TIP3    H2 4074   7.462   7.083   2.293
 1377TIP3   OH2 4075   7.285   2.346   0.964
 1377TIP3    H1 4076   7.351   2.295   1.011
 1377TIP3    H2 4077   7.208   2.343   1.022
 1378TIP3   OH2 4078   6.943   0.776   2.377
 1378TIP3    H1 4079   6.930   0.838   2.449
 1378TIP3    H2 4080   6.900   0.695   2.407
 1379TIP3   OH2 4081   4.646   5.813   4.466
 1379TIP3    H1 4082   4.616   5.799   4.556
 1379TIP3    H2 4083   4.577   5.864   4.425
 1380TIP3   OH2 4084   3.941   5.204   6.080
 1380TIP3    H1 4085   3.970   5.224   5.991
 1380TIP3    H2 4086   3.895   5.121   6.071
 1381TIP3   OH2 4087   5.875   6.474   6.763
 1381TIP3    H1 4088   5.869   6.548   6.703
 1381TIP3    H2 4089   5.784   6.443   6.772
 1382TIP3   OH2 4090   4.550   7.280   4.293
 1382TIP3    H1 4091   4.506   7.197   4.276
 1382TIP3    H2 4092   4.632   7.255   4.337
 1383TIP3   OH2 4093   5.459   1.155   0.645
 1383TIP3    H1 4094   5.530   1.219   0.648
 1383TIP3    H2 4095   5.488   1.084   0.703
 1384TIP3   OH2 4096   4.352   4.019   0.448
 1384TIP3    H1 4097   4.354   4.115   0.454
 1384TIP3    H2 4098   4.444   3.993   0.450
 1385TIP3   OH2 4099   1.199   3.404   4.794
 1385TIP3    H1 4100   1.125   3.438   4.744
 1385TIP3    H2 4101   1.163   3.328   4.840
 1386TIP3   OH2 4102   0.311   6.214   4.410
 1386TIP3    H1 4103   0.299   6.166   4.328
 1386TIP3    H2 4104   0.273   6.157   4.477
 1387TIP3   OH2 4105   4.665   6.491   1.983
 1387TIP3    H1 4106   4.713   6.434   1.923
 1387TIP3    H2 4107   4.634   6.563   1.928
 1388TIP3   OH2 4108   1.495   5.608   6.367
 1388TIP3    H1 4109   1.507   5.594   6.273
 1388TIP3    H2 4110   1.557   5.548   6.408
 1389TIP3   OH2 4111   4.571   0.227   5.566
 1389TIP3    H1 4112   4.652   0.267   5.596
 1389TIP3    H2 4113   4.569   0.141   5.608
 1390TIP3   OH2 4114  -0.023   5.018   1.484
 1390TIP3    H1 4115   0.019   4.952   1.428
 1390TIP3    H2 4116  -0.007   5.101   1.439
 1391TIP3   OH2 4117   5.007   7.344   1.657
 1391TIP3    H1 4118   4.995   7.275   1.722
 1391TIP3    H2 4119   4.972   7.306   1.576
 1392TIP3   OH2 4120   6.028   3.846   1.449
 1392TIP3    H1 4121   6.008   3.888   1.533
 1392TIP3    H2 4122   6.035   3.918   1.387
 1393TIP3   OH2 4123   4.853   7.636   5.998
 1393TIP3    H1 4124   4.911   7.705   5.965
 1393TIP3    H2 4125   4.782   7.632   5.933
 1394TIP3   OH2 4126   7.518   4.178   4.713
 1394TIP3    H1 4127   7.591   4.238   4.706
 1394TIP3    H2 4128   7.554   4.100   4.754
 1395TIP3   OH2 4129   2.012   5.250   4.058
 1395TIP3    H1 4130   1.951   5.235   4.131
 1395TIP3    H2 4131   2.014   5.345   4.048
 1396TIP3   OH2 4132   0.857   3.636   0.515
 1396TIP3    H1 4133   0.926   3.675   0.569
 1396TIP3    H2 4134   0.784   3.623   0.576
 1397TIP3   OH2 4135   3.778   6.887   6.603
 1397TIP3    H1 4136   3.750   6.808   6.556
 1397TIP3    H2 4137   3.739   6.878   6.690
 1398TIP3   OH2 4138   5.641   7.003   2.868
 1398TIP3    H1 4139   5.562   6.976   2.822
 1398TIP3    H2 4140   5.658   7.092   2.837
 1399TIP3   OH2 4141   6.424   6.765   3.644
 1399TIP3    H1 4142   6.482   6.771   3.568
 1399TIP3    H2 4143   6.421   6.672   3.665
 1400TIP3   OH2 4144   2.477   7.651   0.909
 1400TIP3    H1 4145   2.421   7.708   0.856
 1400TIP3    H2 4146   2.434   7.648   0.995
 1401TIP3   OH2 4147   6.509   0.449   4.169
 1401TIP3    H1 4148   6.563   0.459   4.248
 1401TIP3    H2 4149   6.453   0.374   4.188
 1402TIP3   OH2 4150   6.361   7.827   4.053
 1402TIP3    H1 4151   6.338   7.856   4.142
 1402TIP3    H2 4152   6.403   7.742   4.066
 1403TIP3   OH2 4153   4.033   5.909   6.415
 1403TIP3    H1 4154   4.065   5.997   6.398
 1403TIP3    H2 4155   4.111   5.853   6.404
 1404TIP3   OH2 4156   0.402   3.901   6.400
 1404TIP3    H1 4157   0.455   3.902   6.321
 1404TIP3    H2 4158   0.432   3.977   6.450
 1405TIP3   OH2 4159   4.349   4.820   3.145
 1405TIP3    H1 4160   4.322   4.733   3.175
 1405TIP3    H2 4161   4.389   4.861   3.221
 1406TIP3   OH2 4162   2.013   7.031   3.212
 1406TIP3    H1 4163   1.930   7.062   3.177
 1406TIP3    H2 4164   2.023   6.943   3.177
 1407TIP3   OH2 4165   1.388   0.577   5.976
 1407TIP3    H1 4166   1.321   0.614   6.033
 1407TIP3    H2 4167   1.471   0.589   6.023
 1408TIP3   OH2 4168   1.037   0.295   4.748
 1408TIP3    H1 4169   1.029   0.379   4.794
 1408TIP3    H2 4170   1.125   0.295   4.711
 1409TIP3   OH2 4171   0.726   2.925   2.316
 1409TIP3    H1 4172   0.647   2.961   2.356
 1409TIP3    H2 4173   0.792   2.994   2.327
 1410TIP3   OH2 4174   2.725   5.203   5.221
 1410TIP3    H1 4175   2.645   5.227   5.268
 1410TIP3    H2 4176   2.762   5.287   5.192
 1411TIP3   OH2 4177   7.156   1.783   2.551
 1411TIP3    H1 4178   7.102   1.862   2.550
 1411TIP3    H2 4179   7.229   1.805   2.609
 1412TIP3   OH2 4180   5.556   7.273   1.200
 1412TIP3    H1 4181   5.546   7.249   1.108
 1412TIP3    H2 4182   5.547   7.190   1.248
 1413TIP3   OH2 4183   4.935   6.268   0.455
 1413TIP3    H1 4184   4.865   6.203   0.455
 1413TIP3    H2 4185   4.894   6.348   0.423
 1414TIP3   OH2 4186   2.508   4.985   3.459
 1414TIP3    H1 4187   2.459   5.041   3.518
 1414TIP3    H2 4188   2.590   5.033   3.443
 1415TIP3   OH2 4189   7.011   1.132   5.222
 1415TIP3    H1 4190   7.086   1.190   5.233
 1415TIP3    H2 4191   6.942   1.189   5.188
 1416TIP3   OH2 4192   4.067   0.986   6.716
 1416TIP3    H1 4193   3.984   1.030   6.735
 1416TIP3    H2 4194   4.131   1.057   6.717
 1417TIP3   OH2 4195   5.342   2.944   1.580
 1417TIP3    H1 4196   5.403   3.011   1.551
 1417TIP3    H2 4197   5.397   2.882   1.628
 1418TIP3   OH2 4198   5.476   4.729   2.084
 1418TIP3    H1 4199   5.530   4.795   2.040
 1418TIP3    H2 4200   5.397   4.722   2.030
 1419TIP3   OH2 4201   6.831   6.261   5.994
 1419TIP3    H1 4202   6.736   6.273   5.991
 1419TIP3    H2 4203   6.866   6.350   6.003
 1420TIP3   OH2 4204   2.951   1.394   1.097
 1420TIP3    H1 4205   2.998   1.420   1.018
 1420TIP3    H2 4206   2.985   1.307   1.117
 1421TIP3   OH2 4207   3.376   5.601   3.896
 1421TIP3    H1 4208   3.361   5.528   3.956
 1421TIP3    H2 4209   3.441   5.656   3.940
 1422TIP3   OH2 4210   0.838   1.489   2.160
 1422TIP3    H1 4211   0.760   1.475   2.213
 1422TIP3    H2 4212   0.824   1.575   2.119
 1423TIP3   OH2 4213   3.318   3.228   5.090
 1423TIP3    H1 4214   3.372   3.297   5.053
 1423TIP3    H2 4215   3.228   3.260   5.082
 1424TIP3   OH2 4216   5.056   1.461   4.602
 1424TIP3    H1 4217   5.059   1.546   4.557
 1424TIP3    H2 4218   5.149   1.439   4.616
 1425TIP3   OH2 4219   0.330   7.098   5.359
 1425TIP3    H1 4220   0.356   7.189   5.348
 1425TIP3    H2 4221   0.412   7.052   5.379
 1426TIP3   OH2 4222   1.428   4.726   0.624
 1426TIP3    H1 4223   1.387   4.640   0.615
 1426TIP3    H2 4224   1.450   4.751   0.534
 1427TIP3   OH2 4225   2.812   5.903   2.461
 1427TIP3    H1 4226   2.881   5.863   2.408
 1427TIP3    H2 4227   2.852   5.915   2.547
 1428TIP3   OH2 4228   4.093   4.862   2.115
 1428TIP3    H1 4229   4.047   4.870   2.199
 1428TIP3    H2 4230   4.149   4.939   2.111
 1429TIP3   OH2 4231   2.934   0.905   2.064
 1429TIP3    H1 4232   2.895   0.837   2.009
 1429TIP3    H2 4233   2.971   0.857   2.139
 1430TIP3   OH2 4234   2.272   0.183   3.361
 1430TIP3    H1 4235   2.201   0.211   3.418
 1430TIP3    H2 4236   2.233   0.117   3.303
 1431TIP3   OH2 4237   4.460   7.487   1.829
 1431TIP3    H1 4238   4.509   7.548   1.775
 1431TIP3    H2 4239   4.523   7.420   1.854
 1432TIP3   OH2 4240   5.654   2.704   0.445
 1432TIP3    H1 4241   5.631   2.699   0.537
 1432TIP3    H2 4242   5.606   2.779   0.412
 1433TIP3   OH2 4243   6.574   7.001   3.827
 1433TIP3    H1 4244   6.611   6.968   3.745
 1433TIP3    H2 4245   6.596   6.934   3.891
 1434TIP3   OH2 4246   4.529   3.155   6.416
 1434TIP3    H1 4247   4.603   3.095   6.413
 1434TIP3    H2 4248   4.556   3.222   6.480
 1435TIP3   OH2 4249   1.977   0.417   6.021
 1435TIP3    H1 4250   1.916   0.386   6.088
 1435TIP3    H2 4251   2.043   0.467   6.070
 1436TIP3   OH2 4252   6.964   4.392   4.137
 1436TIP3    H1 4253   6.979   4.470   4.191
 1436TIP3    H2 4254   6.904   4.339   4.189
 1437TIP3   OH2 4255   4.686   1.170   3.023
 1437TIP3    H1 4256   4.780   1.185   3.034
 1437TIP3    H2 4257   4.648   1.200   3.105
 1438TIP3   OH2 4258   6.637   3.477   4.610
 1438TIP3    H1 4259   6.585   3.470   4.690
 1438TIP3    H2 4260   6.605   3.406   4.554
 1439TIP3   OH2 4261   6.751   2.165   1.478
 1439TIP3    H1 4262   6.713   2.078   1.475
 1439TIP3    H2 4263   6.754   2.188   1.571
 1440TIP3   OH2 4264   3.452   3.872   3.265
 1440TIP3    H1 4265   3.459   3.862   3.360
 1440TIP3    H2 4266   3.488   3.791   3.229
 1441TIP3   OH2 4267   4.608   2.245   2.085
 1441TIP3    H1 4268   4.570   2.251   2.172
 1441TIP3    H2 4269   4.557   2.305   2.032
 1442TIP3   OH2 4270   3.973   3.708   5.150
 1442TIP3    H1 4271   4.027   3.721   5.072
 1442TIP3    H2 4272   3.911   3.782   5.149
 1443TIP3   OH2 4273   3.052   7.611   6.641
 1443TIP3    H1 4274   3.021   7.589   6.728
 1443TIP3    H2 4275   3.064   7.526   6.598
 1444TIP3   OH2 4276   4.486   7.655   2.309
 1444TIP3    H1 4277   4.412   7.610   2.350
 1444TIP3    H2 4278   4.499   7.734   2.361
 1445TIP3   OH2 4279   5.375   2.684   1.422
 1445TIP3    H1 4280   5.366   2.688   1.518
 1445TIP3    H2 4281   5.285   2.673   1.391
 1446TIP3   OH2 4282   7.973   2.871   4.233
 1446TIP3    H1 4283   8.021   2.788   4.223
 1446TIP3    H2 4284   7.881   2.846   4.233
 1447TIP3   OH2 4285   7.541   3.741   3.064
 1447TIP3    H1 4286   7.598   3.674   3.102
 1447TIP3    H2 4287   7.558   3.820   3.116
 1448TIP3   OH2 4288   5.210   7.753   2.222
 1448TIP3    H1 4289   5.284   7.773   2.279
 1448TIP3    H2 4290   5.248   7.748   2.134
 1449TIP3   OH2 4291   4.579   2.974   5.723
 1449TIP3    H1 4292   4.564   3.068   5.715
 1449TIP3    H2 4293   4.652   2.967   5.785
 1450TIP3   OH2 4294   5.161   2.435   3.284
 1450TIP3    H1 4295   5.241   2.472   3.321
 1450TIP3    H2 4296   5.128   2.376   3.351
 1451TIP3   OH2 4297   3.721   2.361   1.783
 1451TIP3    H1 4298   3.802   2.412   1.786
 1451TIP3    H2 4299   3.748   2.272   1.804
 1452TIP3   OH2 4300   1.865   5.997   4.417
 1452TIP3    H1 4301   1.830   5.991   4.506
 1452TIP3    H2 4302   1.910   6.082   4.414
 1453TIP3   OH2 4303   6.422   4.336   3.731
 1453TIP3    H1 4304   6.514   4.358   3.747
 1453TIP3    H2 4305   6.388   4.310   3.817
 1454TIP3   OH2 4306   5.118   7.266   3.948
 1454TIP3    H1 4307   5.136   7.272   3.854
 1454TIP3    H2 4308   5.158   7.184   3.975
 1455TIP3   OH2 4309   1.947   3.364   0.081
 1455TIP3    H1 4310   1.920   3.338   0.169
 1455TIP3    H2 4311   1.873   3.339   0.025
 1456TIP3   OH2 4312   4.872   3.940   3.081
 1456TIP3    H1 4313   4.863   3.996   3.157
 1456TIP3    H2 4314   4.851   3.852   3.113
 1457TIP3   OH2 4315   1.623   1.530   3.879
 1457TIP3    H1 4316   1.640   1.624   3.871
 1457TIP3    H2 4317   1.684   1.489   3.818
 1458TIP3   OH2 4318   3.288   6.758   4.508
 1458TIP3    H1 4319   3.372   6.792   4.539
 1458TIP3    H2 4320   3.296   6.761   4.412
 1459TIP3   OH2 4321   0.388   1.215   5.604
 1459TIP3    H1 4322   0.360   1.151   5.538
 1459TIP3    H2 4323   0.427   1.162   5.673
 1460TIP3   OH2 4324   3.791   3.297   0.990
 1460TIP3    H1 4325   3.761   3.253   0.910
 1460TIP3    H2 4326   3.846   3.368   0.958
 1461TIP3   OH2 4327   1.023   3.069   1.992
 1461TIP3    H1 4328   1.013   2.991   1.937
 1461TIP3    H2 4329   1.116   3.068   2.017
 1462TIP3   OH2 4330   0.713   2.861   4.999
 1462TIP3    H1 4331   0.708   2.824   4.911
 1462TIP3    H2 4332   0.662   2.800   5.053
 1463TIP3   OH2 4333   4.773   1.313   5.575
 1463TIP3    H1 4334   4.709   1.300   5.505
 1463TIP3    H2 4335   4.841   1.368   5.537
 1464TIP3   OH2 4336   3.313   5.566   0.987
 1464TIP3    H1 4337   3.288   5.504   1.055
 1464TIP3    H2 4338   3.363   5.633   1.033
 1465TIP3   OH2 4339   5.689   5.561   0.111
 1465TIP3    H1 4340   5.601   5.560   0.148
 1465TIP3    H2 4341   5.747   5.561   0.187
 1466TIP3   OH2 4342   1.474   3.251   0.194
 1466TIP3    H1 4343   1.461   3.168   0.241
 1466TIP3    H2 4344   1.387   3.275   0.164
 1467TIP3   OH2 4345   3.755   4.074   6.629
 1467TIP3    H1 4346   3.695   4.100   6.699
 1467TIP3    H2 4347   3.720   4.116   6.551
 1468TIP3   OH2 4348   8.156   1.338   1.023
 1468TIP3    H1 4349   8.235   1.288   1.002
 1468TIP3    H2 4350   8.104   1.280   1.078
 1469TIP3   OH2 4351   1.871   5.960   3.020
 1469TIP3    H1 4352   1.786   5.999   2.999
 1469TIP3    H2 4353   1.850   5.880   3.067
 1470TIP3   OH2 4354   4.773   6.557   4.093
 1470TIP3    H1 4355   4.863   6.530   4.078
 1470TIP3    H2 4356   4.732   6.553   4.006
 1471TIP3   OH2 4357   0.514   3.438   1.799
 1471TIP3    H1 4358   0.525   3.389   1.880
 1471TIP3    H2 4359   0.602   3.467   1.776
 1472TIP3   OH2 4360   4.499   1.916   2.356
 1472TIP3    H1 4361   4.515   1.824   2.335
 1472TIP3    H2 4362   4.490   1.918   2.451
 1473TIP3   OH2 4363   1.821   2.483   1.844
 1473TIP3    H1 4364   1.830   2.464   1.937
 1473TIP3    H2 4365   1.836   2.577   1.837
 1474TIP3   OH2 4366   6.102   4.947   6.253
 1474TIP3    H1 4367   6.193   4.929   6.278
 1474TIP3    H2 4368   6.088   4.893   6.175
 1475TIP3   OH2 4369   0.011   0.295   0.049
 1475TIP3    H1 4370   0.031   0.290   0.142
 1475TIP3    H2 4371   0.029   0.207   0.015
 1476TIP3   OH2 4372   6.212   0.535   4.253
 1476TIP3    H1 4373   6.307   0.532   4.268
 1476TIP3    H2 4374   6.193   0.455   4.204
 1477TIP3   OH2 4375   0.894   4.900   1.578
 1477TIP3    H1 4376   0.901   4.899   1.674
 1477TIP3    H2 4377   0.806   4.867   1.560
 1478TIP3   OH2 4378   1.684   2.645   5.192
 1478TIP3    H1 4379   1.671   2.684   5.106
 1478TIP3    H2 4380   1.778   2.654   5.209
 1479TIP3   OH2 4381   0.602   1.110   2.002
 1479TIP3    H1 4382   0.571   1.105   1.912
 1479TIP3    H2 4383   0.669   1.179   2.001
 1480TIP3   OH2 4384   5.740   3.072   5.225
 1480TIP3    H1 4385   5.755   2.994   5.278
 1480TIP3    H2 4386   5.652   3.100   5.248
 1481TIP3   OH2 4387   8.168   7.335   0.657
 1481TIP3    H1 4388   8.185   7.352   0.564
 1481TIP3    H2 4389   8.190   7.417   0.701
 1482TIP3   OH2 4390   1.727   7.760   2.324
 1482TIP3    H1 4391   1.678   7.734   2.402
 1482TIP3    H2 4392   1.660   7.771   2.256
 1483TIP3   OH2 4393   6.072   5.926   3.244
 1483TIP3    H1 4394   6.082   5.898   3.153
 1483TIP3    H2 4395   6.073   5.844   3.294
 1484TIP3   OH2 4396   1.240   3.682   4.607
 1484TIP3    H1 4397   1.219   3.775   4.615
 1484TIP3    H2 4398   1.206   3.644   4.689
 1485TIP3   OH2 4399   6.128   6.313   4.527
 1485TIP3    H1 4400   6.126   6.234   4.582
 1485TIP3    H2 4401   6.185   6.373   4.574
 1486TIP3   OH2 4402   2.794   1.894   5.476
 1486TIP3    H1 4403   2.709   1.855   5.457
 1486TIP3    H2 4404   2.776   1.957   5.546
 1487TIP3   OH2 4405   7.298   5.013   6.744
 1487TIP3    H1 4406   7.260   5.070   6.677
 1487TIP3    H2 4407   7.383   4.989   6.709
 1488TIP3   OH2 4408   4.906   3.259   5.317
 1488TIP3    H1 4409   4.873   3.187   5.262
 1488TIP3    H2 4410   4.857   3.251   5.399
 1489TIP3   OH2 4411   6.339   3.994   2.596
 1489TIP3    H1 4412   6.395   4.039   2.532
 1489TIP3    H2 4413   6.299   4.065   2.646
 1490TIP3   OH2 4414   7.250   6.812   0.289
 1490TIP3    H1 4415   7.222   6.742   0.229
 1490TIP3    H2 4416   7.174   6.827   0.345
 1491TIP3   OH2 4417   0.255   4.875   1.467
 1491TIP3    H1 4418   0.266   4.966   1.496
 1491TIP3    H2 4419   0.245   4.882   1.372
 1492TIP3   OH2 4420   0.362   5.113   2.094
 1492TIP3    H1 4421   0.377   5.025   2.059
 1492TIP3    H2 4422   0.437   5.164   2.064
 1493TIP3   OH2 4423   3.440   1.183   2.298
 1493TIP3    H1 4424   3.407   1.245   2.363
 1493TIP3    H2 4425   3.443   1.099   2.344
 1494TIP3   OH2 4426   6.034   7.499   1.587
 1494TIP3    H1 4427   5.996   7.586   1.599
 1494TIP3    H2 4428   5.960   7.444   1.562
 1495TIP3   OH2 4429   8.248   2.405   4.189
 1495TIP3    H1 4430   8.343   2.413   4.191
 1495TIP3    H2 4431   8.232   2.311   4.181
 1496TIP3   OH2 4432   0.028   1.575   3.205
 1496TIP3    H1 4433   0.120   1.601   3.198
 1496TIP3    H2 4434  -0.019   1.656   3.223
 1497TIP3   OH2 4435   6.287   7.756   2.149
 1497TIP3    H1 4436   6.347   7.815   2.101
 1497TIP3    H2 4437   6.210   7.810   2.165
 1498TIP3   OH2 4438   0.407   2.212   6.157
 1498TIP3    H1 4439   0.403   2.120   6.128
 1498TIP3    H2 4440   0.396   2.263   6.077
 1499TIP3   OH2 4441   1.903   5.366   3.802
 1499TIP3    H1 4442   1.931   5.281   3.770
 1499TIP3    H2 4443   1.984   5.412   3.825
 1500TIP3   OH2 4444   1.459   3.508   1.462
 1500TIP3    H1 4445   1.519   3.539   1.394
 1500TIP3    H2 4446   1.506   3.523   1.544
 1501TIP3   OH2 4447   5.657   0.367   3.306
 1501TIP3    H1 4448   5.712   0.437   3.271
 1501TIP3    H2 4449   5.588   0.413   3.354
 1502TIP3   OH2 4450   7.595   2.083   4.042
 1502TIP3    H1 4451   7.530   2.148   4.067
 1502TIP3    H2 4452   7.663   2.089   4.110
 1503TIP3   OH2 4453   2.662   3.742   0.481
 1503TIP3    H1 4454   2.647   3.713   0.571
 1503TIP3    H2 4455   2.758   3.743   0.472
 1504TIP3   OH2 4456   1.343   7.005   6.210
 1504TIP3    H1 4457   1.270   7.014   6.272
 1504TIP3    H2 4458   1.340   7.084   6.158
 1505TIP3   OH2 4459   2.175   2.815   4.706
 1505TIP3    H1 4460   2.130   2.744   4.660
 1505TIP3    H2 4461   2.111   2.886   4.708
 1506TIP3   OH2 4462   3.368   3.998   1.570
 1506TIP3    H1 4463   3.404   4.082   1.541
 1506TIP3    H2 4464   3.444   3.950   1.604
 1507TIP3   OH2 4465   0.850   1.490   5.816
 1507TIP3    H1 4466   0.894   1.407   5.794
 1507TIP3    H2 4467   0.800   1.470   5.895
 1508TIP3   OH2 4468   0.577   7.199   2.805
 1508TIP3    H1 4469   0.499   7.216   2.857
 1508TIP3    H2 4470   0.644   7.176   2.869
 1509TIP3   OH2 4471   0.190   1.911   0.681
 1509TIP3    H1 4472   0.105   1.953   0.669
 1509TIP3    H2 4473   0.245   1.949   0.612
 1510TIP3   OH2 4474   8.179   2.961   0.851
 1510TIP3    H1 4475   8.187   2.987   0.943
 1510TIP3    H2 4476   8.109   2.896   0.851
 1511TIP3   OH2 4477   4.642   1.115   1.718
 1511TIP3    H1 4478   4.667   1.187   1.777
 1511TIP3    H2 4479   4.671   1.145   1.631
 1512TIP3   OH2 4480   0.975   1.562   5.564
 1512TIP3    H1 4481   0.906   1.526   5.620
 1512TIP3    H2 4482   0.981   1.500   5.491
 1513TIP3   OH2 4483   7.059   1.842   0.800
 1513TIP3    H1 4484   7.147   1.835   0.838
 1513TIP3    H2 4485   7.011   1.768   0.836
 1514TIP3   OH2 4486   4.365   2.775   6.302
 1514TIP3    H1 4487   4.411   2.819   6.374
 1514TIP3    H2 4488   4.433   2.728   6.255
 1515TIP3   OH2 4489   0.009   5.595   3.255
 1515TIP3    H1 4490   0.056   5.520   3.290
 1515TIP3    H2 4491  -0.078   5.561   3.234
 1516TIP3   OH2 4492   0.095   5.083   5.022
 1516TIP3    H1 4493   0.001   5.080   5.038
 1516TIP3    H2 4494   0.104   5.120   4.934
 1517TIP3   OH2 4495   7.888   0.471   3.414
 1517TIP3    H1 4496   7.795   0.482   3.433
 1517TIP3    H2 4497   7.895   0.384   3.375
 1518TIP3   OH2 4498   3.260   7.760   5.259
 1518TIP3    H1 4499   3.336   7.703   5.251
 1518TIP3    H2 4500   3.185   7.704   5.238
 1519TIP3   OH2 4501   2.387   0.571   1.191
 1519TIP3    H1 4502   2.404   0.618   1.109
 1519TIP3    H2 4503   2.311   0.614   1.229
 1520TIP3   OH2 4504   1.527   2.985   2.304
 1520TIP3    H1 4505   1.603   3.040   2.324
 1520TIP3    H2 4506   1.540   2.907   2.358
 1521TIP3   OH2 4507   0.810   2.973   4.642
 1521TIP3    H1 4508   0.777   2.909   4.704
 1521TIP3    H2 4509   0.772   3.056   4.671
 1522TIP3   OH2 4510   5.674   3.177   5.803
 1522TIP3    H1 4511   5.749   3.221   5.765
 1522TIP3    H2 4512   5.708   3.135   5.882
 1523TIP3   OH2 4513   6.964   0.891   6.766
 1523TIP3    H1 4514   7.022   0.909   6.692
 1523TIP3    H2 4515   6.949   0.976   6.806
 1524TIP3   OH2 4516   4.940   3.539   6.012
 1524TIP3    H1 4517   4.974   3.605   5.952
 1524TIP3    H2 4518   4.968   3.568   6.099
 1525TIP3   OH2 4519   3.807   4.552   3.790
 1525TIP3    H1 4520   3.774   4.594   3.710
 1525TIP3    H2 4521   3.747   4.582   3.859
 1526TIP3   OH2 4522   5.780   7.522   6.108
 1526TIP3    H1 4523   5.763   7.558   6.021
 1526TIP3    H2 4524   5.724   7.573   6.166
 1527TIP3   OH2 4525   2.076   3.930   4.111
 1527TIP3    H1 4526   2.134   3.972   4.175
 1527TIP3    H2 4527   2.097   3.836   4.118
 1528TIP3   OH2 4528   2.862   1.887   6.327
 1528TIP3    H1 4529   2.790   1.941   6.358
 1528TIP3    H2 4530   2.941   1.932   6.358
 1529TIP3   OH2 4531   4.781   0.968   6.506
 1529TIP3    H1 4532   4.787   0.932   6.594
 1529TIP3    H2 4533   4.775   0.891   6.449
 1530TIP3   OH2 4534   3.818   3.721   2.355
 1530TIP3    H1 4535   3.728   3.738   2.382
 1530TIP3    H2 4536   3.816   3.635   2.315
 1531TIP3   OH2 4537   7.417   0.650   2.953
 1531TIP3    H1 4538   7.430   0.602   2.871
 1531TIP3    H2 4539   7.323   0.671   2.954
 1532TIP3   OH2 4540   4.829   1.545   0.978
 1532TIP3    H1 4541   4.916   1.504   0.983
 1532TIP3    H2 4542   4.783   1.495   0.912
 1533TIP3   OH2 4543   4.964   0.610   4.371
 1533TIP3    H1 4544   4.970   0.525   4.415
 1533TIP3    H2 4545   4.909   0.663   4.428
 1534TIP3   OH2 4546   5.832   4.794   5.835
 1534TIP3    H1 4547   5.907   4.824   5.885
 1534TIP3    H2 4548   5.786   4.874   5.809
 1535TIP3   OH2 4549   0.697   2.169   1.960
 1535TIP3    H1 4550   0.682   2.082   1.997
 1535TIP3    H2 4551   0.750   2.153   1.882
 1536TIP3   OH2 4552   4.589   6.880   5.142
 1536TIP3    H1 4553   4.585   6.797   5.190
 1536TIP3    H2 4554   4.653   6.864   5.072
 1537TIP3   OH2 4555   4.028   4.311   3.853
 1537TIP3    H1 4556   4.119   4.283   3.863
 1537TIP3    H2 4557   4.018   4.383   3.915
 1538TIP3   OH2 4558   2.219   5.785   5.345
 1538TIP3    H1 4559   2.205   5.739   5.428
 1538TIP3    H2 4560   2.134   5.826   5.326
 1539TIP3   OH2 4561   2.187   5.557   6.029
 1539TIP3    H1 4562   2.181   5.527   5.938
 1539TIP3    H2 4563   2.137   5.638   6.030
 1540TIP3   OH2 4564   1.766   7.499   5.913
 1540TIP3    H1 4565   1.746   7.414   5.873
 1540TIP3    H2 4566   1.850   7.524   5.876
 1541TIP3   OH2 4567   0.957   4.425   0.798
 1541TIP3    H1 4568   1.006   4.490   0.848
 1541TIP3    H2 4569   1.022   4.387   0.738
 1542TIP3   OH2 4570   6.994   5.741   2.873
 1542TIP3    H1 4571   6.913   5.692   2.865
 1542TIP3    H2 4572   6.971   5.831   2.850
 1543TIP3   OH2 4573   3.649   6.384   1.440
 1543TIP3    H1 4574   3.711   6.446   1.402
 1543TIP3    H2 4575   3.566   6.431   1.443
 1544TIP3   OH2 4576   7.768   4.410   5.023
 1544TIP3    H1 4577   7.814   4.490   4.999
 1544TIP3    H2 4578   7.741   4.424   5.113
 1545TIP3   OH2 4579   1.342   3.728   2.386
 1545TIP3    H1 4580   1.378   3.663   2.446
 1545TIP3    H2 4581   1.300   3.793   2.443
 1546TIP3   OH2 4582   1.737   6.999   0.863
 1546TIP3    H1 4583   1.751   7.072   0.923
 1546TIP3    H2 4584   1.775   7.027   0.780
 1547TIP3   OH2 4585   4.580   3.404   6.565
 1547TIP3    H1 4586   4.512   3.409   6.632
 1547TIP3    H2 4587   4.613   3.494   6.557
 1548TIP3   OH2 4588   0.855   1.776   5.801
 1548TIP3    H1 4589   0.854   1.682   5.785
 1548TIP3    H2 4590   0.902   1.812   5.726
 1549TIP3   OH2 4591   5.204   6.721   2.355
 1549TIP3    H1 4592   5.113   6.739   2.380
 1549TIP3    H2 4593   5.239   6.806   2.329
 1550TIP3   OH2 4594   0.927   7.191   1.885
 1550TIP3    H1 4595   0.884   7.251   1.945
 1550TIP3    H2 4596   1.020   7.201   1.903
 1551TIP3   OH2 4597   3.203   6.779   0.904
 1551TIP3    H1 4598   3.252   6.785   0.822
 1551TIP3    H2 4599   3.241   6.847   0.960
 1552TIP3   OH2 4600   6.436   1.736   4.851
 1552TIP3    H1 4601   6.445   1.792   4.928
 1552TIP3    H2 4602   6.451   1.794   4.777
 1553TIP3   OH2 4603   2.319   1.150   2.908
 1553TIP3    H1 4604   2.290   1.225   2.855
 1553TIP3    H2 4605   2.294   1.073   2.857
 1554TIP3   OH2 4606   3.812   3.687   3.157
 1554TIP3    H1 4607   3.895   3.734   3.160
 1554TIP3    H2 4608   3.753   3.744   3.109
 1555TIP3   OH2 4609   2.088   0.145   4.203
 1555TIP3    H1 4610   2.024   0.074   4.192
 1555TIP3    H2 4611   2.075   0.175   4.293
 1556TIP3   OH2 4612   6.120   3.895   0.319
 1556TIP3    H1 4613   6.141   3.898   0.226
 1556TIP3    H2 4614   6.047   3.955   0.330
 1557TIP3   OH2 4615   5.602   4.103   3.530
 1557TIP3    H1 4616   5.644   4.134   3.611
 1557TIP3    H2 4617   5.663   4.127   3.461
 1558TIP3   OH2 4618   4.883   7.609   3.244
 1558TIP3    H1 4619   4.821   7.674   3.278
 1558TIP3    H2 4620   4.965   7.658   3.234
 1559TIP3   OH2 4621   7.936   4.434   1.037
 1559TIP3    H1 4622   7.902   4.487   1.109
 1559TIP3    H2 4623   7.889   4.466   0.960
 1560TIP3   OH2 4624   3.750   2.184   0.529
 1560TIP3    H1 4625   3.688   2.158   0.597
 1560TIP3    H2 4626   3.820   2.119   0.534
 1561TIP3   OH2 4627   0.402   7.502   1.590
 1561TIP3    H1 4628   0.368   7.588   1.565
 1561TIP3    H2 4629   0.339   7.469   1.654
 1562TIP3   OH2 4630   1.598   1.930   1.718
 1562TIP3    H1 4631   1.523   1.871   1.717
 1562TIP3    H2 4632   1.563   2.014   1.689
 1563TIP3   OH2 4633   1.761   5.927   2.081
 1563TIP3    H1 4634   1.741   5.858   2.144
 1563TIP3    H2 4635   1.831   5.890   2.027
 1564TIP3   OH2 4636   2.088   5.057   2.500
 1564TIP3    H1 4637   2.151   5.109   2.550
 1564TIP3    H2 4638   2.036   5.122   2.453
 1565TIP3   OH2 4639   3.443   7.736   1.111
 1565TIP3    H1 4640   3.371   7.675   1.094
 1565TIP3    H2 4641   3.469   7.767   1.025
 1566TIP3   OH2 4642   2.669   0.988   1.977
 1566TIP3    H1 4643   2.640   1.075   1.949
 1566TIP3    H2 4644   2.763   0.997   1.993
 1567TIP3   OH2 4645   0.775   2.495   0.378
 1567TIP3    H1 4646   0.808   2.564   0.435
 1567TIP3    H2 4647   0.780   2.416   0.431
 1568TIP3   OH2 4648   6.819   6.371   2.631
 1568TIP3    H1 4649   6.771   6.427   2.692
 1568TIP3    H2 4650   6.909   6.371   2.666
 1569TIP3   OH2 4651   7.225   1.569   3.261
 1569TIP3    H1 4652   7.270   1.529   3.187
 1569TIP3    H2 4653   7.226   1.502   3.329
 1570TIP3   OH2 4654   6.194   7.534   5.769
 1570TIP3    H1 4655   6.159   7.451   5.738
 1570TIP3    H2 4656   6.264   7.555   5.707
 1571TIP3   OH2 4657   1.458   2.430   2.365
 1571TIP3    H1 4658   1.499   2.374   2.299
 1571TIP3    H2 4659   1.366   2.435   2.338
 1572TIP3   OH2 4660   3.459   2.930   4.644
 1572TIP3    H1 4661   3.422   2.913   4.731
 1572TIP3    H2 4662   3.550   2.903   4.651
 1573TIP3   OH2 4663   5.786   1.603   2.964
 1573TIP3    H1 4664   5.774   1.628   2.873
 1573TIP3    H2 4665   5.756   1.679   3.014
 1574TIP3   OH2 4666   6.213   0.722   1.538
 1574TIP3    H1 4667   6.227   0.631   1.512
 1574TIP3    H2 4668   6.301   0.759   1.545
 1575TIP3   OH2 4669   5.029   4.089   0.756
 1575TIP3    H1 4670   5.070   4.175   0.745
 1575TIP3    H2 4671   5.093   4.027   0.721
 1576TIP3   OH2 4672   6.085   2.219   6.719
 1576TIP3    H1 4673   6.068   2.222   6.813
 1576TIP3    H2 4674   6.131   2.301   6.701
 1577TIP3   OH2 4675   7.237   2.407   6.089
 1577TIP3    H1 4676   7.279   2.375   6.009
 1577TIP3    H2 4677   7.210   2.496   6.068
 1578TIP3   OH2 4678   1.478   3.143   1.266
 1578TIP3    H1 4679   1.498   3.224   1.314
 1578TIP3    H2 4680   1.474   3.075   1.334
 1579TIP3   OH2 4681   4.501   6.653   6.055
 1579TIP3    H1 4682   4.576   6.593   6.057
 1579TIP3    H2 4683   4.513   6.706   5.977
 1580TIP3   OH2 4684   2.664   6.223   4.119
 1580TIP3    H1 4685   2.569   6.222   4.129
 1580TIP3    H2 4686   2.687   6.316   4.124
 1581TIP3   OH2 4687   2.984   6.790   5.795
 1581TIP3    H1 4688   2.964   6.857   5.730
 1581TIP3    H2 4689   3.069   6.754   5.767
 1582TIP3   OH2 4690   6.478   7.086   1.808
 1582TIP3    H1 4691   6.537   7.054   1.740
 1582TIP3    H2 4692   6.397   7.037   1.795
 1583TIP3   OH2 4693   6.394   4.306   2.982
 1583TIP3    H1 4694   6.405   4.353   2.899
 1583TIP3    H2 4695   6.320   4.350   3.024
 1584TIP3   OH2 4696   4.779   1.820   3.496
 1584TIP3    H1 4697   4.726   1.791   3.422
 1584TIP3    H2 4698   4.720   1.874   3.548
 1585TIP3   OH2 4699   2.354   2.173   1.012
 1585TIP3    H1 4700   2.393   2.093   1.048
 1585TIP3    H2 4701   2.281   2.142   0.959
 1586TIP3   OH2 4702   2.972   6.271   0.606
 1586TIP3    H1 4703   2.968   6.340   0.539
 1586TIP3    H2 4704   2.884   6.269   0.644
 1587TIP3   OH2 4705   0.050   4.578   0.015
 1587TIP3    H1 4706   0.026   4.615   0.099
 1587TIP3    H2 4707   0.002   4.495   0.010
 1588TIP3   OH2 4708   2.289   4.478   6.717
 1588TIP3    H1 4709   2.232   4.413   6.676
 1588TIP3    H2 4710   2.377   4.441   6.709
 1589TIP3   OH2 4711   6.598   1.577   1.790
 1589TIP3    H1 4712   6.536   1.619   1.730
 1589TIP3    H2 4713   6.614   1.643   1.857
 1590TIP3   OH2 4714   7.158   5.171   4.243
 1590TIP3    H1 4715   7.253   5.161   4.247
 1590TIP3    H2 4716   7.144   5.265   4.228
 1591TIP3   OH2 4717   3.060   7.705   2.736
 1591TIP3    H1 4718   3.009   7.662   2.667
 1591TIP3    H2 4719   3.009   7.782   2.759
 1592TIP3   OH2 4720   3.068   1.389   1.684
 1592TIP3    H1 4721   3.095   1.411   1.773
 1592TIP3    H2 4722   3.081   1.294   1.678
 1593TIP3   OH2 4723   2.205   3.222   0.698
 1593TIP3    H1 4724   2.161   3.302   0.727
 1593TIP3    H2 4725   2.218   3.235   0.604
 1594TIP3   OH2 4726   6.706   0.011   3.962
 1594TIP3    H1 4727   6.693   0.024   4.056
 1594TIP3    H2 4728   6.754   0.088   3.934
 1595TIP3   OH2 4729   7.661   3.415   1.754
 1595TIP3    H1 4730   7.582   3.373   1.722
 1595TIP3    H2 4731   7.656   3.505   1.722
 1596TIP3   OH2 4732   0.400   1.604   6.234
 1596TIP3    H1 4733   0.389   1.585   6.141
 1596TIP3    H2 4734   0.428   1.521   6.272
 1597TIP3   OH2 4735   2.897   5.626   3.755
 1597TIP3    H1 4736   2.973   5.578   3.788
 1597TIP3    H2 4737   2.854   5.565   3.696
 1598TIP3   OH2 4738   6.021   4.122   3.145
 1598TIP3    H1 4739   5.942   4.133   3.198
 1598TIP3    H2 4740   6.092   4.155   3.199
 1599TIP3   OH2 4741   0.565   6.272   2.410
 1599TIP3    H1 4742   0.536   6.180   2.410
 1599TIP3    H2 4743   0.500   6.318   2.463
 1600TIP3   OH2 4744   5.422   6.467   1.418
 1600TIP3    H1 4745   5.504   6.492   1.375
 1600TIP3    H2 4746   5.398   6.384   1.377
 1601TIP3   OH2 4747   4.293   6.736   5.504
 1601TIP3    H1 4748   4.290   6.647   5.538
 1601TIP3    H2 4749   4.202   6.758   5.486
 1602TIP3   OH2 4750   5.698   2.841   4.882
 1602TIP3    H1 4751   5.777   2.854   4.935
 1602TIP3    H2 4752   5.715   2.890   4.801
 1603TIP3   OH2 4753   1.480   1.281   4.647
 1603TIP3    H1 4754   1.555   1.244   4.601
 1603TIP3    H2 4755   1.516   1.317   4.728
 1604TIP3   OH2 4756   5.016   6.419   1.175
 1604TIP3    H1 4757   4.957   6.421   1.250
 1604TIP3    H2 4758   5.043   6.327   1.169
 1605TIP3   OH2 4759   4.105   1.785   2.300
 1605TIP3    H1 4760   4.129   1.876   2.318
 1605TIP3    H2 4761   4.044   1.763   2.370
 1606TIP3   OH2 4762   3.352   6.766   0.623
 1606TIP3    H1 4763   3.424   6.733   0.570
 1606TIP3    H2 4764   3.273   6.735   0.579
 1607TIP3   OH2 4765   7.609   6.811   2.257
 1607TIP3    H1 4766   7.684   6.763   2.223
 1607TIP3    H2 4767   7.577   6.863   2.182
 1608TIP3   OH2 4768   6.365   2.128   2.277
 1608TIP3    H1 4769   6.280   2.084   2.280
 1608TIP3    H2 4770   6.397   2.124   2.367
 1609TIP3   OH2 4771   1.117   3.292   6.444
 1609TIP3    H1 4772   1.049   3.307   6.378
 1609TIP3    H2 4773   1.132   3.198   6.443
 1610TIP3   OH2 4774   2.162   2.365   0.640
 1610TIP3    H1 4775   2.144   2.318   0.722
 1610TIP3    H2 4776   2.099   2.329   0.578
 1611TIP3   OH2 4777   2.865   6.215   2.594
 1611TIP3    H1 4778   2.775   6.220   2.561
 1611TIP3    H2 4779   2.870   6.130   2.637
 1612TIP3   OH2 4780   6.102   5.787   3.481
 1612TIP3    H1 4781   6.105   5.748   3.568
 1612TIP3    H2 4782   6.178   5.845   3.478
 1613TIP3   OH2 4783   3.959   6.807   2.230
 1613TIP3    H1 4784   4.047   6.775   2.250
 1613TIP3    H2 4785   3.968   6.903   2.229
 1614TIP3   OH2 4786   2.655   6.466   1.213
 1614TIP3    H1 4787   2.586   6.460   1.278
 1614TIP3    H2 4788   2.731   6.425   1.254
 1615TIP3   OH2 4789   2.933   1.607   1.583
 1615TIP3    H1 4790   2.964   1.697   1.593
 1615TIP3    H2 4791   3.003   1.553   1.620
 1616TIP3   OH2 4792   5.279   5.468   5.204
 1616TIP3    H1 4793   5.363   5.450   5.248
 1616TIP3    H2 4794   5.305   5.504   5.119
 1617TIP3   OH2 4795   7.589   6.718   2.799
 1617TIP3    H1 4796   7.588   6.643   2.858
 1617TIP3    H2 4797   7.528   6.780   2.838
 1618TIP3   OH2 4798   4.189   7.808   4.452
 1618TIP3    H1 4799   4.097   7.783   4.444
 1618TIP3    H2 4800   4.194   7.893   4.409
 1619TIP3   OH2 4801   0.862   4.399   1.550
 1619TIP3    H1 4802   0.869   4.305   1.535
 1619TIP3    H2 4803   0.952   4.428   1.562
 1620TIP3   OH2 4804   2.127   7.437   0.441
 1620TIP3    H1 4805   2.153   7.350   0.471
 1620TIP3    H2 4806   2.131   7.433   0.346
 1621TIP3   OH2 4807   6.770   4.101   3.965
 1621TIP3    H1 4808   6.839   4.155   3.928
 1621TIP3    H2 4809   6.693   4.158   3.967
 1622TIP3   OH2 4810   1.116   5.844   2.238
 1622TIP3    H1 4811   1.141   5.897   2.162
 1622TIP3    H2 4812   1.027   5.872   2.258
 1623TIP3   OH2 4813   6.893   6.501   1.846
 1623TIP3    H1 4814   6.945   6.426   1.818
 1623TIP3    H2 4815   6.957   6.562   1.884
 1624TIP3   OH2 4816   7.752   2.614   3.089
 1624TIP3    H1 4817   7.726   2.687   3.144
 1624TIP3    H2 4818   7.689   2.544   3.111
 1625TIP3   OH2 4819   7.377   2.627   3.449
 1625TIP3    H1 4820   7.369   2.720   3.428
 1625TIP3    H2 4821   7.367   2.623   3.544
 1626TIP3   OH2 4822   7.732   7.302   1.514
 1626TIP3    H1 4823   7.730   7.377   1.455
 1626TIP3    H2 4824   7.671   7.239   1.475
 1627TIP3   OH2 4825   7.979   4.630   1.258
 1627TIP3    H1 4826   7.959   4.723   1.251
 1627TIP3    H2 4827   7.928   4.599   1.333
 1628TIP3   OH2 4828   4.410   1.086   4.481
 1628TIP3    H1 4829   4.429   0.995   4.503
 1628TIP3    H2 4830   4.481   1.112   4.423
 1629TIP3   OH2 4831   0.230   6.060   6.076
 1629TIP3    H1 4832   0.257   5.969   6.085
 1629TIP3    H2 4833   0.302   6.110   6.115
 1630TIP3   OH2 4834   3.684   1.850   3.838
 1630TIP3    H1 4835   3.732   1.771   3.862
 1630TIP3    H2 4836   3.649   1.882   3.921
 1631TIP3   OH2 4837   1.921   5.779   1.745
 1631TIP3    H1 4838   1.936   5.684   1.753
 1631TIP3    H2 4839   1.970   5.817   1.817
 1632TIP3   OH2 4840   4.834   2.228   0.772
 1632TIP3    H1 4841   4.892   2.269   0.835
 1632TIP3    H2 4842   4.848   2.278   0.691
 1633TIP3   OH2 4843   7.195   4.411   1.455
 1633TIP3    H1 4844   7.276   4.446   1.418
 1633TIP3    H2 4845   7.204   4.316   1.449
 1634TIP3   OH2 4846   7.854   2.116   2.111
 1634TIP3    H1 4847   7.852   2.140   2.019
 1634TIP3    H2 4848   7.768   2.140   2.145
 1635TIP3   OH2 4849   8.202   7.332   6.552
 1635TIP3    H1 4850   8.147   7.261   6.586
 1635TIP3    H2 4851   8.272   7.341   6.616
 1636TIP3   OH2 4852   0.418   0.575   4.795
 1636TIP3    H1 4853   0.420   0.520   4.872
 1636TIP3    H2 4854   0.491   0.636   4.807
 1637TIP3   OH2 4855   5.168   0.871   0.916
 1637TIP3    H1 4856   5.087   0.823   0.897
 1637TIP3    H2 4857   5.237   0.806   0.906
 1638TIP3   OH2 4858   7.025   4.026   2.162
 1638TIP3    H1 4859   7.114   4.033   2.196
 1638TIP3    H2 4860   6.971   4.074   2.225
 1639TIP3   OH2 4861   4.641   3.716   4.171
 1639TIP3    H1 4862   4.572   3.769   4.132
 1639TIP3    H2 4863   4.624   3.722   4.266
 1640TIP3   OH2 4864   5.474   7.035   3.190
 1640TIP3    H1 4865   5.423   6.957   3.170
 1640TIP3    H2 4866   5.561   7.017   3.154
 1641TIP3   OH2 4867   3.514   3.562   1.511
 1641TIP3    H1 4868   3.583   3.586   1.449
 1641TIP3    H2 4869   3.440   3.617   1.487
 1642TIP3   OH2 4870   4.552   1.649   2.343
 1642TIP3    H1 4871   4.608   1.590   2.294
 1642TIP3    H2 4872   4.465   1.637   2.304
 1643TIP3   OH2 4873   0.726   1.948   6.289
 1643TIP3    H1 4874   0.813   1.907   6.287
 1643TIP3    H2 4875   0.726   2.007   6.213
 1644TIP3   OH2 4876   4.155   4.709   4.869
 1644TIP3    H1 4877   4.117   4.746   4.948
 1644TIP3    H2 4878   4.233   4.662   4.899
 1645TIP3   OH2 4879   0.568   2.307   5.018
 1645TIP3    H1 4880   0.478   2.316   4.989
 1645TIP3    H2 4881   0.595   2.220   4.989
 1646TIP3   OH2 4882   0.135   3.602   4.027
 1646TIP3    H1 4883   0.098   3.600   4.115
 1646TIP3    H2 4884   0.224   3.569   4.038
 1647TIP3   OH2 4885   3.422   1.546   5.109
 1647TIP3    H1 4886   3.378   1.463   5.096
 1647TIP3    H2 4887   3.455   1.570   5.022
 1648TIP3   OH2 4888   4.255   2.208   5.938
 1648TIP3    H1 4889   4.336   2.236   5.895
 1648TIP3    H2 4890   4.186   2.250   5.887
 1649TIP3   OH2 4891   8.040   4.229   4.428
 1649TIP3    H1 4892   8.055   4.139   4.401
 1649TIP3    H2 4893   7.961   4.256   4.382
 1650TIP3   OH2 4894   1.111   7.108   6.352
 1650TIP3    H1 4895   1.048   7.126   6.283
 1650TIP3    H2 4896   1.120   7.191   6.398
 1651TIP3   OH2 4897   6.998   6.296   6.717
 1651TIP3    H1 4898   7.078   6.300   6.665
 1651TIP3    H2 4899   7.029   6.283   6.807
 1652TIP3   OH2 4900   4.984  -0.001   5.007
 1652TIP3    H1 4901   5.071   0.030   5.033
 1652TIP3    H2 4902   4.924   0.058   5.053
 1653TIP3   OH2 4903   1.585   3.706   6.424
 1653TIP3    H1 4904   1.519   3.687   6.490
 1653TIP3    H2 4905   1.588   3.626   6.370
 1654TIP3   OH2 4906   5.388   6.945   3.457
 1654TIP3    H1 4907   5.466   6.974   3.409
 1654TIP3    H2 4908   5.422   6.878   3.517
 1655TIP3   OH2 4909   6.787   2.875   4.499
 1655TIP3    H1 4910   6.761   2.894   4.409
 1655TIP3    H2 4911   6.705   2.861   4.546
 1656TIP3   OH2 4912   6.499   0.569   1.279
 1656TIP3    H1 4913   6.554   0.546   1.204
 1656TIP3    H2 4914   6.441   0.639   1.246
 1657TIP3   OH2 4915   0.646   4.959   1.386
 1657TIP3    H1 4916   0.633   4.868   1.413
 1657TIP3    H2 4917   0.583   4.972   1.314
 1658TIP3   OH2 4918   7.112   7.063   1.358
 1658TIP3    H1 4919   7.036   7.089   1.411
 1658TIP3    H2 4920   7.086   7.084   1.268
 1659TIP3   OH2 4921   1.155   1.610   4.116
 1659TIP3    H1 4922   1.072   1.658   4.112
 1659TIP3    H2 4923   1.217   1.666   4.069
 1660TIP3   OH2 4924   7.648   4.286   6.319
 1660TIP3    H1 4925   7.595   4.230   6.262
 1660TIP3    H2 4926   7.635   4.250   6.407
 1661TIP3   OH2 4927   7.848   1.978   2.874
 1661TIP3    H1 4928   7.826   1.960   2.782
 1661TIP3    H2 4929   7.941   1.959   2.880
 1662TIP3   OH2 4930   1.538   3.953   3.266
 1662TIP3    H1 4931   1.442   3.952   3.261
 1662TIP3    H2 4932   1.564   3.864   3.242
 1663TIP3   OH2 4933   4.515   6.243   2.077
 1663TIP3    H1 4934   4.502   6.257   1.983
 1663TIP3    H2 4935   4.608   6.262   2.092
 1664TIP3   OH2 4936   7.953   5.449   6.350
 1664TIP3    H1 4937   7.899   5.370   6.350
 1664TIP3    H2 4938   8.028   5.428   6.406
 1665TIP3   OH2 4939   6.827   0.924   5.183
 1665TIP3    H1 4940   6.909   0.961   5.217
 1665TIP3    H2 4941   6.854   0.846   5.135
 1666TIP3   OH2 4942   3.394   7.432   6.581
 1666TIP3    H1 4943   3.399   7.476   6.666
 1666TIP3    H2 4944   3.303   7.441   6.553
 1667TIP3   OH2 4945   8.183   2.190   6.674
 1667TIP3    H1 4946   8.159   2.278   6.705
 1667TIP3    H2 4947   8.107   2.136   6.692
 1668TIP3   OH2 4948   6.648   5.210   5.407
 1668TIP3    H1 4949   6.730   5.215   5.458
 1668TIP3    H2 4950   6.677   5.188   5.319
 1669TIP3   OH2 4951   7.085   3.194   6.279
 1669TIP3    H1 4952   7.050   3.108   6.300
 1669TIP3    H2 4953   7.167   3.176   6.233
 1670TIP3   OH2 4954   4.488   4.252   3.011
 1670TIP3    H1 4955   4.494   4.216   3.100
 1670TIP3    H2 4956   4.536   4.189   2.957
 1671TIP3   OH2 4957   0.176   4.099   2.171
 1671TIP3    H1 4958   0.192   4.174   2.113
 1671TIP3    H2 4959   0.183   4.022   2.115
 1672TIP3   OH2 4960   1.734   4.101   0.668
 1672TIP3    H1 4961   1.774   4.027   0.621
 1672TIP3    H2 4962   1.659   4.125   0.613
 1673TIP3   OH2 4963   1.722   2.607   2.953
 1673TIP3    H1 4964   1.800   2.662   2.943
 1673TIP3    H2 4965   1.708   2.604   3.048
 1674TIP3   OH2 4966   7.052   3.225   3.198
 1674TIP3    H1 4967   7.145   3.202   3.196
 1674TIP3    H2 4968   7.047   3.300   3.257
 1675TIP3   OH2 4969   0.954   6.682   4.380
 1675TIP3    H1 4970   0.916   6.755   4.429
 1675TIP3    H2 4971   1.048   6.690   4.395
 1676TIP3   OH2 4972   6.869   0.466   5.697
 1676TIP3    H1 4973   6.827   0.400   5.752
 1676TIP3    H2 4974   6.796   0.521   5.667
 1677TIP3   OH2 4975   4.916   3.097   1.563
 1677TIP3    H1 4976   4.822   3.106   1.582
 1677TIP3    H2 4977   4.936   3.006   1.587
 1678TIP3   OH2 4978   2.235   7.717   2.971
 1678TIP3    H1 4979   2.141   7.719   2.990
 1678TIP3    H2 4980   2.268   7.799   3.009
 1679TIP3   OH2 4981   3.425   1.970   1.950
 1679TIP3    H1 4982   3.458   2.029   1.882
 1679TIP3    H2 4983   3.474   1.993   2.028
 1680TIP3   OH2 4984   6.112   6.784   3.420
 1680TIP3    H1 4985   6.082   6.756   3.334
 1680TIP3    H2 4986   6.195   6.829   3.403
 1681TIP3   OH2 4987   4.844   4.959   5.427
 1681TIP3    H1 4988   4.843   4.883   5.369
 1681TIP3    H2 4989   4.881   4.926   5.509
 1682TIP3   OH2 4990   7.062   1.441   0.162
 1682TIP3    H1 4991   7.021   1.493   0.094
 1682TIP3    H2 4992   7.022   1.355   0.154
 1683TIP3   OH2 4993   7.173   5.921   3.787
 1683TIP3    H1 4994   7.177   6.013   3.758
 1683TIP3    H2 4995   7.239   5.877   3.733
 1684TIP3   OH2 4996   7.057   4.534   2.173
 1684TIP3    H1 4997   7.106   4.497   2.246
 1684TIP3    H2 4998   7.050   4.462   2.110
 1685TIP3   OH2 4999   1.713   1.161   1.323
 1685TIP3    H1 5000   1.640   1.223   1.333
 1685TIP3    H2 5001   1.789   1.216   1.308
 1686TIP3   OH2 5002   6.133   6.737   3.985
 1686TIP3    H1 5003   6.144   6.643   3.975
 1686TIP3    H2 5004   6.200   6.776   3.929
 1687TIP3   OH2 5005   4.454   6.733   6.445
 1687TIP3    H1 5006   4.415   6.646   6.436
 1687TIP3    H2 5007   4.541   6.724   6.405
 1688TIP3   OH2 5008   4.318   3.351   1.674
 1688TIP3    H1 5009   4.412   3.336   1.675
 1688TIP3    H2 5010   4.308   3.444   1.690
 1689TIP3   OH2 5011   5.433   3.864   1.185
 1689TIP3    H1 5012   5.342   3.861   1.214
 1689TIP3    H2 5013   5.429   3.900   1.096
 1690TIP3   OH2 5014   0.239   0.266   3.800
 1690TIP3    H1 5015   0.178   0.213   3.852
 1690TIP3    H2 5016   0.324   0.251   3.842
 1691TIP3   OH2 5017   1.357   5.761   6.746
 1691TIP3    H1 5018   1.412   5.791   6.674
 1691TIP3    H2 5019   1.295   5.833   6.759
 1692TIP3   OH2 5020   6.990   7.387   1.238
 1692TIP3    H1 5021   7.018   7.437   1.162
 1692TIP3    H2 5022   6.924   7.326   1.204
 1693TIP3   OH2 5023   0.656   1.057   0.065
 1693TIP3    H1 5024   0.585   1.007   0.024
 1693TIP3    H2 5025   0.703   0.992   0.118
 1694TIP3   OH2 5026   6.060   3.271   1.884
 1694TIP3    H1 5027   6.137   3.273   1.827
 1694TIP3    H2 5028   5.987   3.251   1.825
 1695TIP3   OH2 5029   7.556   7.543   2.520
 1695TIP3    H1 5030   7.522   7.598   2.591
 1695TIP3    H2 5031   7.532   7.454   2.545
 1696TIP3   OH2 5032   3.938   2.892   1.899
 1696TIP3    H1 5033   3.862   2.838   1.878
 1696TIP3    H2 5034   4.002   2.871   1.831
 1697TIP3   OH2 5035   3.666   7.304   6.729
 1697TIP3    H1 5036   3.657   7.392   6.767
 1697TIP3    H2 5037   3.580   7.264   6.740
 1698TIP3   OH2 5038   7.529   3.343   4.767
 1698TIP3    H1 5039   7.467   3.404   4.728
 1698TIP3    H2 5040   7.568   3.298   4.692
 1699TIP3   OH2 5041   3.267   5.342   5.217
 1699TIP3    H1 5042   3.286   5.432   5.244
 1699TIP3    H2 5043   3.231   5.301   5.295
 1700TIP3   OH2 5044   5.043   7.805   0.831
 1700TIP3    H1 5045   5.087   7.846   0.905
 1700TIP3    H2 5046   5.035   7.713   0.857
 1701TIP3   OH2 5047   0.868   1.955   2.349
 1701TIP3    H1 5048   0.944   2.011   2.367
 1701TIP3    H2 5049   0.793   2.012   2.362
 1702TIP3   OH2 5050   4.973   6.983   5.205
 1702TIP3    H1 5051   5.026   7.028   5.271
 1702TIP3    H2 5052   4.950   7.051   5.142
 1703TIP3   OH2 5053   2.415   5.063   0.289
 1703TIP3    H1 5054   2.405   5.057   0.384
 1703TIP3    H2 5055   2.509   5.074   0.275
 1704TIP3   OH2 5056   6.885   6.716   4.706
 1704TIP3    H1 5057   6.873   6.766   4.787
 1704TIP3    H2 5058   6.919   6.780   4.643
 1705TIP3   OH2 5059   4.142   4.131   5.449
 1705TIP3    H1 5060   4.116   4.106   5.360
 1705TIP3    H2 5061   4.205   4.064   5.475
 1706TIP3   OH2 5062   1.220   6.730   2.351
 1706TIP3    H1 5063   1.217   6.795   2.421
 1706TIP3    H2 5064   1.128   6.713   2.330
 1707TIP3   OH2 5065   5.099   3.501   3.365
 1707TIP3    H1 5066   5.049   3.581   3.383
 1707TIP3    H2 5067   5.082   3.444   3.440
 1708TIP3   OH2 5068   3.964   3.858   0.890
 1708TIP3    H1 5069   3.927   3.878   0.804
 1708TIP3    H2 5070   3.993   3.942   0.924
 1709TIP3   OH2 5071   1.215   4.359   0.756
 1709TIP3    H1 5072   1.230   4.265   0.754
 1709TIP3    H2 5073   1.244   4.391   0.670
 1710TIP3   OH2 5074   7.789   7.525   6.191
 1710TIP3    H1 5075   7.728   7.486   6.254
 1710TIP3    H2 5076   7.871   7.534   6.240
 1711TIP3   OH2 5077   1.634   2.576   4.426
 1711TIP3    H1 5078   1.708   2.594   4.368
 1711TIP3    H2 5079   1.567   2.537   4.369
 1712TIP3   OH2 5080   2.231   2.736   4.318
 1712TIP3    H1 5081   2.153   2.773   4.359
 1712TIP3    H2 5082   2.198   2.668   4.259
 1713TIP3   OH2 5083   7.838   7.636   0.675
 1713TIP3    H1 5084   7.802   7.704   0.618
 1713TIP3    H2 5085   7.824   7.555   0.627
 1714TIP3   OH2 5086   0.166   1.052   6.159
 1714TIP3    H1 5087   0.178   0.975   6.104
 1714TIP3    H2 5088   0.238   1.047   6.223
 1715TIP3   OH2 5089   1.066   4.177   0.294
 1715TIP3    H1 5090   1.032   4.175   0.204
 1715TIP3    H2 5091   1.042   4.092   0.331
 1716TIP3   OH2 5092   8.193   2.056   2.745
 1716TIP3    H1 5093   8.141   1.977   2.759
 1716TIP3    H2 5094   8.206   2.093   2.832
 1717TIP3   OH2 5095   0.595   6.330   1.761
 1717TIP3    H1 5096   0.560   6.247   1.726
 1717TIP3    H2 5097   0.549   6.397   1.711
 1718TIP3   OH2 5098   1.615   7.674   3.377
 1718TIP3    H1 5099   1.708   7.698   3.379
 1718TIP3    H2 5100   1.597   7.644   3.466
 1719TIP3   OH2 5101   3.991   5.114   5.550
 1719TIP3    H1 5102   4.006   5.040   5.492
 1719TIP3    H2 5103   3.969   5.186   5.491
 1720TIP3   OH2 5104   1.114   1.732   5.938
 1720TIP3    H1 5105   1.024   1.749   5.910
 1720TIP3    H2 5106   1.147   1.668   5.876
 1721TIP3   OH2 5107   4.995   2.900   1.303
 1721TIP3    H1 5108   5.031   2.971   1.249
 1721TIP3    H2 5109   4.902   2.920   1.310
 1722TIP3   OH2 5110   1.694   2.904   6.232
 1722TIP3    H1 5111   1.680   2.835   6.168
 1722TIP3    H2 5112   1.701   2.984   6.180
 1723TIP3   OH2 5113   1.062   2.842   3.706
 1723TIP3    H1 5114   1.112   2.924   3.704
 1723TIP3    H2 5115   1.033   2.835   3.797
 1724TIP3   OH2 5116   5.990   6.927   3.793
 1724TIP3    H1 5117   6.085   6.921   3.799
 1724TIP3    H2 5118   5.972   6.929   3.700
 1725TIP3   OH2 5119   0.240   4.252   1.878
 1725TIP3    H1 5120   0.186   4.329   1.858
 1725TIP3    H2 5121   0.321   4.288   1.914
 1726TIP3   OH2 5122   1.332   5.347   6.436
 1726TIP3    H1 5123   1.254   5.325   6.385
 1726TIP3    H2 5124   1.376   5.415   6.386
 1727TIP3   OH2 5125   5.117   1.775   4.146
 1727TIP3    H1 5126   5.137   1.762   4.053
 1727TIP3    H2 5127   5.115   1.870   4.157
 1728TIP3   OH2 5128   7.512   2.119   6.534
 1728TIP3    H1 5129   7.582   2.175   6.570
 1728TIP3    H2 5130   7.526   2.121   6.439
 1729TIP3   OH2 5131   7.882   5.682   1.392
 1729TIP3    H1 5132   7.948   5.742   1.428
 1729TIP3    H2 5133   7.895   5.686   1.297
 1730TIP3   OH2 5134   5.793   0.366   0.200
 1730TIP3    H1 5135   5.786   0.363   0.105
 1730TIP3    H2 5136   5.831   0.281   0.224
 1731TIP3   OH2 5137   6.122   3.681   4.790
 1731TIP3    H1 5138   6.161   3.660   4.875
 1731TIP3    H2 5139   6.075   3.763   4.806
 1732TIP3   OH2 5140   0.005   2.377   1.953
 1732TIP3    H1 5141   0.067   2.346   2.019
 1732TIP3    H2 5142   0.049   2.363   1.870
 1733TIP3   OH2 5143   2.114   5.080   2.850
 1733TIP3    H1 5144   2.077   5.052   2.934
 1733TIP3    H2 5145   2.096   5.174   2.846
 1734TIP3   OH2 5146   3.246   2.996   5.192
 1734TIP3    H1 5147   3.152   3.000   5.211
 1734TIP3    H2 5148   3.269   3.086   5.168
 1735TIP3   OH2 5149   7.138   1.658   3.639
 1735TIP3    H1 5150   7.061   1.610   3.670
 1735TIP3    H2 5151   7.188   1.677   3.719
 1736TIP3   OH2 5152   3.715   5.079   5.721
 1736TIP3    H1 5153   3.758   5.070   5.636
 1736TIP3    H2 5154   3.775   5.038   5.783
 1737TIP3   OH2 5155   6.950   4.841   3.907
 1737TIP3    H1 5156   6.900   4.797   3.838
 1737TIP3    H2 5157   6.911   4.809   3.989
 1738TIP3   OH2 5158   0.350   4.041   6.755
 1738TIP3    H1 5159   0.292   4.115   6.736
 1738TIP3    H2 5160   0.416   4.044   6.686
 1739TIP3   OH2 5161   0.187   0.871   4.651
 1739TIP3    H1 5162   0.261   0.924   4.623
 1739TIP3    H2 5163   0.142   0.848   4.570
 1740TIP3   OH2 5164   2.728   4.852   0.363
 1740TIP3    H1 5165   2.716   4.845   0.268
 1740TIP3    H2 5166   2.647   4.817   0.400
 1741TIP3   OH2 5167   6.723   4.380   1.613
 1741TIP3    H1 5168   6.766   4.311   1.664
 1741TIP3    H2 5169   6.669   4.427   1.677
 1742TIP3   OH2 5170   0.741   3.348   0.550
 1742TIP3    H1 5171   0.804   3.335   0.479
 1742TIP3    H2 5172   0.783   3.310   0.627
 1743TIP3   OH2 5173   6.047   5.846   4.323
 1743TIP3    H1 5174   6.082   5.892   4.399
 1743TIP3    H2 5175   5.976   5.792   4.358
 1744TIP3   OH2 5176   1.046   5.229   2.951
 1744TIP3    H1 5177   1.034   5.207   3.043
 1744TIP3    H2 5178   0.990   5.168   2.903
 1745TIP3   OH2 5179   6.734   5.917   5.538
 1745TIP3    H1 5180   6.825   5.893   5.520
 1745TIP3    H2 5181   6.689   5.903   5.454
 1746TIP3   OH2 5182   5.449   4.757   0.582
 1746TIP3    H1 5183   5.436   4.818   0.509
 1746TIP3    H2 5184   5.371   4.767   0.636
 1747TIP3   OH2 5185   5.811   3.287   3.396
 1747TIP3    H1 5186   5.819   3.192   3.391
 1747TIP3    H2 5187   5.890   3.320   3.352
 1748TIP3   OH2 5188   2.522   7.038   2.870
 1748TIP3    H1 5189   2.445   7.095   2.861
 1748TIP3    H2 5190   2.488   6.950   2.855
 1749TIP3   OH2 5191   4.597   1.675   3.834
 1749TIP3    H1 5192   4.519   1.625   3.810
 1749TIP3    H2 5193   4.564   1.758   3.868
 1750TIP3   OH2 5194   3.215   4.711   6.414
 1750TIP3    H1 5195   3.203   4.796   6.456
 1750TIP3    H2 5196   3.127   4.673   6.410
 1751TIP3   OH2 5197   5.176   6.021   2.190
 1751TIP3    H1 5198   5.167   6.097   2.247
 1751TIP3    H2 5199   5.091   5.978   2.192
 1752TIP3   OH2 5200   2.226   0.640   2.201
 1752TIP3    H1 5201   2.163   0.689   2.253
 1752TIP3    H2 5202   2.206   0.548   2.219
 1753TIP3   OH2 5203   0.029   0.225   2.004
 1753TIP3    H1 5204   0.022   0.317   2.030
 1753TIP3    H2 5205   0.121   0.212   1.983
 1754TIP3   OH2 5206   4.358   1.111   1.912
 1754TIP3    H1 5207   4.331   1.020   1.897
 1754TIP3    H2 5208   4.340   1.155   1.829
 1755TIP3   OH2 5209   0.606   6.708   4.565
 1755TIP3    H1 5210   0.609   6.620   4.603
 1755TIP3    H2 5211   0.580   6.693   4.474
 1756TIP3   OH2 5212   4.287   2.961   2.436
 1756TIP3    H1 5213   4.277   3.044   2.389
 1756TIP3    H2 5214   4.302   2.987   2.527
 1757TIP3   OH2 5215   3.236   4.413   0.088
 1757TIP3    H1 5216   3.202   4.367   0.165
 1757TIP3    H2 5217   3.172   4.396   0.020
 1758TIP3   OH2 5218   6.809   5.072   2.228
 1758TIP3    H1 5219   6.750   5.114   2.291
 1758TIP3    H2 5220   6.804   4.979   2.248
 1759TIP3   OH2 5221   4.432   1.812   5.301
 1759TIP3    H1 5222   4.352   1.846   5.340
 1759TIP3    H2 5223   4.501   1.835   5.363
 1760TIP3   OH2 5224   0.017   7.014   3.367
 1760TIP3    H1 5225   0.060   6.935   3.335
 1760TIP3    H2 5226  -0.069   7.012   3.325
 1761TIP3   OH2 5227   3.140   3.119   1.783
 1761TIP3    H1 5228   3.170   3.139   1.871
 1761TIP3    H2 5229   3.089   3.038   1.793
 1762TIP3   OH2 5230   6.757   7.609   5.219
 1762TIP3    H1 5231   6.801   7.549   5.280
 1762TIP3    H2 5232   6.811   7.688   5.220
 1763TIP3   OH2 5233   5.072   0.758   3.166
 1763TIP3    H1 5234   5.139   0.824   3.151
 1763TIP3    H2 5235   5.090   0.725   3.255
 1764TIP3   OH2 5236   0.878   6.612   5.119
 1764TIP3    H1 5237   0.898   6.523   5.149
 1764TIP3    H2 5238   0.793   6.604   5.076
 1765TIP3   OH2 5239   0.827   5.054   4.424
 1765TIP3    H1 5240   0.909   5.007   4.407
 1765TIP3    H2 5241   0.768   4.988   4.459
 1766TIP3   OH2 5242   5.577   2.877   2.526
 1766TIP3    H1 5243   5.605   2.961   2.562
 1766TIP3    H2 5244   5.566   2.894   2.432
 1767TIP3   OH2 5245   6.662   4.004   3.697
 1767TIP3    H1 5246   6.580   4.039   3.663
 1767TIP3    H2 5247   6.664   4.031   3.789
 1768TIP3   OH2 5248   4.321   0.047   3.165
 1768TIP3    H1 5249   4.294  -0.022   3.227
 1768TIP3    H2 5250   4.389   0.095   3.212
 1769TIP3   OH2 5251   5.961   4.499   0.919
 1769TIP3    H1 5252   6.037   4.510   0.976
 1769TIP3    H2 5253   5.950   4.405   0.911
 1770TIP3   OH2 5254   1.908   6.361   5.937
 1770TIP3    H1 5255   1.978   6.303   5.910
 1770TIP3    H2 5256   1.841   6.353   5.869
 1771TIP3   OH2 5257   6.822   4.718   2.088
 1771TIP3    H1 5258   6.843   4.700   1.997
 1771TIP3    H2 5259   6.808   4.632   2.127
 1772TIP3   OH2 5260   0.574   6.598   0.960
 1772TIP3    H1 5261   0.607   6.633   0.877
 1772TIP3    H2 5262   0.621   6.648   1.027
 1773TIP3   OH2 5263   2.667   7.667   0.429
 1773TIP3    H1 5264   2.574   7.677   0.408
 1773TIP3    H2 5265   2.669   7.670   0.525
 1774TIP3   OH2 5266   1.437   6.841   0.325
 1774TIP3    H1 5267   1.416   6.908   0.260
 1774TIP3    H2 5268   1.352   6.805   0.351
 1775TIP3   OH2 5269   6.365   7.274   1.288
 1775TIP3    H1 5270   6.455   7.246   1.275
 1775TIP3    H2 5271   6.329   7.284   1.200
 1776TIP3   OH2 5272   8.182   7.701   1.886
 1776TIP3    H1 5273   8.120   7.708   1.814
 1776TIP3    H2 5274   8.140   7.641   1.948
 1777TIP3   OH2 5275   4.794   1.477   1.316
 1777TIP3    H1 5276   4.832   1.392   1.296
 1777TIP3    H2 5277   4.860   1.540   1.287
 1778TIP3   OH2 5278   1.506   6.530   5.634
 1778TIP3    H1 5279   1.553   6.555   5.714
 1778TIP3    H2 5280   1.570   6.477   5.586
 1779TIP3   OH2 5281   6.318   5.170   5.464
 1779TIP3    H1 5282   6.287   5.081   5.479
 1779TIP3    H2 5283   6.259   5.205   5.397
 1780TIP3   OH2 5284   0.469   6.486   4.706
 1780TIP3    H1 5285   0.436   6.511   4.620
 1780TIP3    H2 5286   0.411   6.529   4.768
 1781TIP3   OH2 5287   3.550   6.125   2.686
 1781TIP3    H1 5288   3.598   6.048   2.717
 1781TIP3    H2 5289   3.502   6.094   2.609
 1782TIP3   OH2 5290   4.553   7.465   1.150
 1782TIP3    H1 5291   4.490   7.406   1.108
 1782TIP3    H2 5292   4.601   7.409   1.210
 1783TIP3   OH2 5293   5.110   4.062   5.809
 1783TIP3    H1 5294   5.074   4.069   5.721
 1783TIP3    H2 5295   5.046   4.107   5.864
 1784TIP3   OH2 5296   4.325   5.560   1.439
 1784TIP3    H1 5297   4.241   5.519   1.459
 1784TIP3    H2 5298   4.385   5.486   1.426
 1785TIP3   OH2 5299   6.443   4.935   5.991
 1785TIP3    H1 5300   6.465   4.860   5.936
 1785TIP3    H2 5301   6.351   4.953   5.970
 1786TIP3   OH2 5302   7.143   2.715   1.437
 1786TIP3    H1 5303   7.181   2.760   1.513
 1786TIP3    H2 5304   7.187   2.752   1.362
 1787TIP3   OH2 5305   6.950   3.742   4.354
 1787TIP3    H1 5306   7.001   3.704   4.426
 1787TIP3    H2 5307   6.859   3.717   4.374
 1788TIP3   OH2 5308   7.869   5.415   5.024
 1788TIP3    H1 5309   7.912   5.474   5.087
 1788TIP3    H2 5310   7.776   5.429   5.038
 1789TIP3   OH2 5311   6.683   3.406   2.247
 1789TIP3    H1 5312   6.700   3.378   2.337
 1789TIP3    H2 5313   6.667   3.500   2.253
 1790TIP3   OH2 5314   6.175   0.975   0.696
 1790TIP3    H1 5315   6.115   1.003   0.764
 1790TIP3    H2 5316   6.120   0.966   0.618
 1791TIP3   OH2 5317   3.982   6.277   1.181
 1791TIP3    H1 5318   3.996   6.355   1.235
 1791TIP3    H2 5319   3.928   6.220   1.236
 1792TIP3   OH2 5320   3.744   1.616   6.586
 1792TIP3    H1 5321   3.822   1.624   6.531
 1792TIP3    H2 5322   3.690   1.551   6.540
 1793TIP3   OH2 5323   3.837   1.156   0.743
 1793TIP3    H1 5324   3.766   1.125   0.799
 1793TIP3    H2 5325   3.893   1.079   0.730
 1794TIP3   OH2 5326   1.476   4.216   2.752
 1794TIP3    H1 5327   1.485   4.222   2.657
 1794TIP3    H2 5328   1.504   4.302   2.784
 1795TIP3   OH2 5329   0.292   5.139   1.471
 1795TIP3    H1 5330   0.273   5.133   1.378
 1795TIP3    H2 5331   0.363   5.202   1.478
 1796TIP3   OH2 5332   3.010   3.533   1.198
 1796TIP3    H1 5333   2.981   3.495   1.280
 1796TIP3    H2 5334   3.103   3.551   1.211
 1797TIP3   OH2 5335   3.998   1.902   1.866
 1797TIP3    H1 5336   3.989   1.816   1.906
 1797TIP3    H2 5337   4.089   1.928   1.885
 1798TIP3   OH2 5338   2.267   1.197   3.387
 1798TIP3    H1 5339   2.310   1.112   3.380
 1798TIP3    H2 5340   2.238   1.216   3.298
 1799TIP3   OH2 5341   3.665   6.928   5.568
 1799TIP3    H1 5342   3.719   6.913   5.646
 1799TIP3    H2 5343   3.578   6.945   5.602
 1800TIP3   OH2 5344   4.532   6.667   1.818
 1800TIP3    H1 5345   4.446   6.700   1.845
 1800TIP3    H2 5346   4.582   6.746   1.797
 1801TIP3   OH2 5347   0.041   5.133   0.985
 1801TIP3    H1 5348   0.025   5.209   0.930
 1801TIP3    H2 5349   0.051   5.060   0.924
 1802TIP3   OH2 5350   6.685   0.203   1.551
 1802TIP3    H1 5351   6.772   0.239   1.569
 1802TIP3    H2 5352   6.699   0.108   1.547
 1803TIP3   OH2 5353   4.831   5.238   1.914
 1803TIP3    H1 5354   4.885   5.180   1.967
 1803TIP3    H2 5355   4.883   5.254   1.835
 1804TIP3   OH2 5356   0.700   1.480   5.587
 1804TIP3    H1 5357   0.736   1.412   5.530
 1804TIP3    H2 5358   0.738   1.462   5.673
 1805TIP3   OH2 5359   0.811   7.562   2.477
 1805TIP3    H1 5360   0.792   7.532   2.388
 1805TIP3    H2 5361   0.749   7.514   2.532
 1806TIP3   OH2 5362   1.229   3.867   0.612
 1806TIP3    H1 5363   1.282   3.838   0.537
 1806TIP3    H2 5364   1.256   3.809   0.684
 1807TIP3   OH2 5365   1.055   7.391   0.834
 1807TIP3    H1 5366   1.091   7.472   0.871
 1807TIP3    H2 5367   1.008   7.350   0.907
 1808TIP3   OH2 5368   7.856   4.141   4.977
 1808TIP3    H1 5369   7.804   4.075   5.024
 1808TIP3    H2 5370   7.807   4.222   4.987
 1809TIP3   OH2 5371   0.405   1.059   2.645
 1809TIP3    H1 5372   0.450   1.143   2.635
 1809TIP3    H2 5373   0.360   1.065   2.729
 1810TIP3   OH2 5374   8.138   2.418   0.650
 1810TIP3    H1 5375   8.190   2.389   0.576
 1810TIP3    H2 5376   8.192   2.401   0.727
 1811TIP3   OH2 5377   3.511   2.633   4.859
 1811TIP3    H1 5378   3.431   2.665   4.818
 1811TIP3    H2 5379   3.482   2.563   4.918
 1812TIP3   OH2 5380   2.165   0.868   4.240
 1812TIP3    H1 5381   2.215   0.939   4.280
 1812TIP3    H2 5382   2.108   0.835   4.309
 1813TIP3   OH2 5383   0.725   2.530   4.890
 1813TIP3    H1 5384   0.654   2.560   4.833
 1813TIP3    H2 5385   0.695   2.447   4.925
 1814TIP3   OH2 5386   5.139   4.601   5.361
 1814TIP3    H1 5387   5.063   4.658   5.351
 1814TIP3    H2 5388   5.137   4.544   5.285
 1815TIP3   OH2 5389   4.156   7.215   6.297
 1815TIP3    H1 5390   4.221   7.280   6.269
 1815TIP3    H2 5391   4.202   7.160   6.359
 1816TIP3   OH2 5392   1.373   5.682   0.823
 1816TIP3    H1 5393   1.417   5.760   0.855
 1816TIP3    H2 5394   1.329   5.711   0.743
 1817TIP3   OH2 5395   0.281   6.083   1.784
 1817TIP3    H1 5396   0.370   6.058   1.758
 1817TIP3    H2 5397   0.291   6.129   1.867
 1818TIP3   OH2 5398   7.095   6.780   6.769
 1818TIP3    H1 5399   7.141   6.714   6.716
 1818TIP3    H2 5400   7.134   6.771   6.856
 1819TIP3   OH2 5401   0.441   5.473   4.967
 1819TIP3    H1 5402   0.489   5.524   5.032
 1819TIP3    H2 5403   0.440   5.527   4.888
 1820TIP3   OH2 5404   1.297   4.466   4.634
 1820TIP3    H1 5405   1.385   4.433   4.653
 1820TIP3    H2 5406   1.253   4.392   4.592
 1821TIP3   OH2 5407   5.730   2.740   6.506
 1821TIP3    H1 5408   5.698   2.830   6.515
 1821TIP3    H2 5409   5.651   2.687   6.495
 1822TIP3   OH2 5410   3.493   3.288   0.349
 1822TIP3    H1 5411   3.420   3.315   0.294
 1822TIP3    H2 5412   3.464   3.310   0.438
 1823TIP3   OH2 5413   4.964   0.984   4.896
 1823TIP3    H1 5414   5.006   0.932   4.827
 1823TIP3    H2 5415   4.880   1.010   4.859
 1824TIP3   OH2 5416   8.024   5.198   1.233
 1824TIP3    H1 5417   7.998   5.219   1.323
 1824TIP3    H2 5418   8.118   5.214   1.231
 1825TIP3   OH2 5419   4.971   6.554   4.983
 1825TIP3    H1 5420   5.049   6.507   5.011
 1825TIP3    H2 5421   4.934   6.590   5.063
 1826TIP3   OH2 5422   2.030   2.277   1.381
 1826TIP3    H1 5423   2.003   2.337   1.450
 1826TIP3    H2 5424   2.077   2.207   1.426
 1827TIP3   OH2 5425   0.456   7.341   1.032
 1827TIP3    H1 5426   0.416   7.367   0.949
 1827TIP3    H2 5427   0.525   7.406   1.047
 1828TIP3   OH2 5428   7.790   4.619   5.202
 1828TIP3    H1 5429   7.804   4.618   5.296
 1828TIP3    H2 5430   7.835   4.698   5.172
 1829TIP3   OH2 5431   6.424   4.939   2.722
 1829TIP3    H1 5432   6.358   4.876   2.695
 1829TIP3    H2 5433   6.394   4.971   2.807
 1830TIP3   OH2 5434   1.208   1.561   5.721
 1830TIP3    H1 5435   1.134   1.569   5.661
 1830TIP3    H2 5436   1.285   1.575   5.666
 1831TIP3   OH2 5437   6.663   6.941   5.893
 1831TIP3    H1 5438   6.644   6.847   5.893
 1831TIP3    H2 5439   6.617   6.975   5.969
 1832TIP3   OH2 5440   0.296   1.687   2.289
 1832TIP3    H1 5441   0.248   1.645   2.359
 1832TIP3    H2 5442   0.386   1.654   2.298
 1833TIP3   OH2 5443   7.819   2.451   2.598
 1833TIP3    H1 5444   7.870   2.512   2.544
 1833TIP3    H2 5445   7.732   2.450   2.558
 1834TIP3   OH2 5446   1.006   3.055   2.293
 1834TIP3    H1 5447   1.055   3.137   2.295
 1834TIP3    H2 5448   0.996   3.036   2.199
 1835TIP3   OH2 5449   3.078   5.647   6.225
 1835TIP3    H1 5450   3.152   5.600   6.187
 1835TIP3    H2 5451   3.005   5.629   6.166
 1836TIP3   OH2 5452   6.074   4.760   1.508
 1836TIP3    H1 5453   5.986   4.750   1.471
 1836TIP3    H2 5454   6.088   4.679   1.557
 1837TIP3   OH2 5455   6.540   2.867   0.154
 1837TIP3    H1 5456   6.499   2.802   0.211
 1837TIP3    H2 5457   6.631   2.839   0.146
 1838TIP3   OH2 5458   4.396   6.034   3.727
 1838TIP3    H1 5459   4.414   6.086   3.648
 1838TIP3    H2 5460   4.411   6.094   3.799
 1839TIP3   OH2 5461   8.238   1.353   2.913
 1839TIP3    H1 5462   8.193   1.390   2.989
 1839TIP3    H2 5463   8.246   1.260   2.933
 1840TIP3   OH2 5464   3.892   6.325   2.190
 1840TIP3    H1 5465   3.966   6.363   2.237
 1840TIP3    H2 5466   3.841   6.280   2.258
 1841TIP3   OH2 5467   3.061   7.126   6.632
 1841TIP3    H1 5468   3.095   7.113   6.721
 1841TIP3    H2 5469   2.972   7.157   6.645
 1842TIP3   OH2 5470   1.989   6.521   5.229
 1842TIP3    H1 5471   2.025   6.503   5.142
 1842TIP3    H2 5472   2.033   6.602   5.256
 1843TIP3   OH2 5473   7.797   1.561   0.718
 1843TIP3    H1 5474   7.872   1.574   0.776
 1843TIP3    H2 5475   7.771   1.650   0.693
 1844TIP3   OH2 5476   6.755   3.708   1.809
 1844TIP3    H1 5477   6.835   3.743   1.849
 1844TIP3    H2 5478   6.745   3.621   1.846
 1845TIP3   OH2 5479   2.047   0.378   1.885
 1845TIP3    H1 5480   1.984   0.376   1.957
 1845TIP3    H2 5481   2.098   0.458   1.900
 1846TIP3   OH2 5482   6.149   4.055   5.347
 1846TIP3    H1 5483   6.214   3.985   5.337
 1846TIP3    H2 5484   6.082   4.017   5.404
 1847TIP3   OH2 5485   1.911   3.271   2.758
 1847TIP3    H1 5486   1.984   3.251   2.816
 1847TIP3    H2 5487   1.896   3.190   2.709
 1848TIP3   OH2 5488   5.456   4.338   4.861
 1848TIP3    H1 5489   5.433   4.248   4.836
 1848TIP3    H2 5490   5.416   4.350   4.947
 1849TIP3   OH2 5491   5.025   3.076   3.666
 1849TIP3    H1 5492   5.116   3.070   3.638
 1849TIP3    H2 5493   5.012   3.000   3.723
 1850TIP3   OH2 5494   7.187   7.070   5.650
 1850TIP3    H1 5495   7.238   7.102   5.725
 1850TIP3    H2 5496   7.248   7.012   5.603
 1851TIP3   OH2 5497   0.712   3.496   4.060
 1851TIP3    H1 5498   0.654   3.533   3.993
 1851TIP3    H2 5499   0.800   3.508   4.025
 1852TIP3   OH2 5500   4.698   4.246   1.052
 1852TIP3    H1 5501   4.761   4.308   1.017
 1852TIP3    H2 5502   4.735   4.218   1.135
 1853TIP3   OH2 5503   0.195   6.285   1.981
 1853TIP3    H1 5504   0.244   6.328   2.051
 1853TIP3    H2 5505   0.103   6.293   2.009
 1854TIP3   OH2 5506   0.317   5.316   3.073
 1854TIP3    H1 5507   0.239   5.350   3.117
 1854TIP3    H2 5508   0.378   5.296   3.143
 1855TIP3   OH2 5509   6.182   6.747   4.497
 1855TIP3    H1 5510   6.154   6.815   4.558
 1855TIP3    H2 5511   6.196   6.794   4.414
 1856TIP3   OH2 5512   7.217   4.247   2.649
 1856TIP3    H1 5513   7.194   4.275   2.738
 1856TIP3    H2 5514   7.221   4.151   2.655
 1857TIP3   OH2 5515   4.347   5.430   6.337
 1857TIP3    H1 5516   4.274   5.369   6.342
 1857TIP3    H2 5517   4.316   5.500   6.279
 1858TIP3   OH2 5518   5.725   6.812   0.193
 1858TIP3    H1 5519   5.648   6.838   0.142
 1858TIP3    H2 5520   5.715   6.858   0.276
 1859TIP3   OH2 5521   2.747   2.131   5.348
 1859TIP3    H1 5522   2.759   2.040   5.374
 1859TIP3    H2 5523   2.817   2.179   5.393
 1860TIP3   OH2 5524   3.159   7.704   6.395
 1860TIP3    H1 5525   3.201   7.789   6.407
 1860TIP3    H2 5526   3.094   7.699   6.465
 1861TIP3   OH2 5527   3.517   2.225   6.185
 1861TIP3    H1 5528   3.585   2.199   6.122
 1861TIP3    H2 5529   3.453   2.154   6.183
 1862TIP3   OH2 5530   4.657   5.438   4.549
 1862TIP3    H1 5531   4.636   5.349   4.575
 1862TIP3    H2 5532   4.578   5.471   4.507
 1863TIP3   OH2 5533   5.031   0.203   6.692
 1863TIP3    H1 5534   5.043   0.139   6.622
 1863TIP3    H2 5535   4.944   0.239   6.676
 1864TIP3   OH2 5536   5.642   5.736   4.875
 1864TIP3    H1 5537   5.632   5.798   4.947
 1864TIP3    H2 5538   5.569   5.755   4.816
 1865TIP3   OH2 5539   2.057   7.368   3.910
 1865TIP3    H1 5540   1.997   7.420   3.963
 1865TIP3    H2 5541   2.033   7.278   3.929
 1866TIP3   OH2 5542   2.656   6.022   0.673
 1866TIP3    H1 5543   2.698   5.962   0.736
 1866TIP3    H2 5544   2.691   5.996   0.588
 1867TIP3   OH2 5545   4.274   7.457   4.244
 1867TIP3    H1 5546   4.319   7.456   4.328
 1867TIP3    H2 5547   4.310   7.533   4.198
 1868TIP3   OH2 5548   8.170   4.860   3.035
 1868TIP3    H1 5549   8.260   4.880   3.011
 1868TIP3    H2 5550   8.178   4.801   3.110
 1869TIP3   OH2 5551   6.178   3.859   6.225
 1869TIP3    H1 5552   6.224   3.934   6.187
 1869TIP3    H2 5553   6.085   3.882   6.217
 1870TIP3   OH2 5554   5.793   1.132   2.943
 1870TIP3    H1 5555   5.881   1.119   2.979
 1870TIP3    H2 5556   5.758   1.044   2.931
 1871TIP3   OH2 5557   4.889   7.330   2.525
 1871TIP3    H1 5558   4.946   7.385   2.470
 1871TIP3    H2 5559   4.887   7.245   2.480
 1872TIP3   OH2 5560   0.897   7.170   1.383
 1872TIP3    H1 5561   0.873   7.242   1.324
 1872TIP3    H2 5562   0.823   7.161   1.442
 1873TIP3   OH2 5563   0.122   3.771   0.104
 1873TIP3    H1 5564   0.195   3.766   0.165
 1873TIP3    H2 5565   0.118   3.864   0.078
 1874TIP3   OH2 5566   6.349   0.501   0.852
 1874TIP3    H1 5567   6.289   0.426   0.850
 1874TIP3    H2 5568   6.366   0.515   0.945
 1875TIP3   OH2 5569   0.089   7.044   6.517
 1875TIP3    H1 5570   0.042   7.080   6.441
 1875TIP3    H2 5571   0.181   7.047   6.491
 1876TIP3   OH2 5572   7.849   1.256   6.383
 1876TIP3    H1 5573   7.843   1.344   6.345
 1876TIP3    H2 5574   7.887   1.202   6.313
 1877TIP3   OH2 5575   8.003   2.185   0.300
 1877TIP3    H1 5576   7.992   2.280   0.298
 1877TIP3    H2 5577   8.086   2.171   0.348
 1878TIP3   OH2 5578   7.561   0.609   2.058
 1878TIP3    H1 5579   7.623   0.559   2.110
 1878TIP3    H2 5580   7.518   0.543   2.003
 1879TIP3   OH2 5581   5.483   4.872   6.017
 1879TIP3    H1 5582   5.505   4.781   5.999
 1879TIP3    H2 5583   5.545   4.900   6.084
 1880TIP3   OH2 5584   2.057   1.687   1.121
 1880TIP3    H1 5585   2.050   1.777   1.152
 1880TIP3    H2 5586   2.127   1.648   1.174
 1881TIP3   OH2 5587   0.006   0.083   2.808
 1881TIP3    H1 5588   0.017   0.165   2.759
 1881TIP3    H2 5589   0.087   0.035   2.791
 1882TIP3   OH2 5590   4.344   2.395   4.917
 1882TIP3    H1 5591   4.326   2.374   5.008
 1882TIP3    H2 5592   4.436   2.420   4.916
 1883TIP3   OH2 5593   5.381  -0.046   0.663
 1883TIP3    H1 5594   5.318   0.022   0.639
 1883TIP3    H2 5595   5.353  -0.074   0.750
 1884TIP3   OH2 5596   3.591   7.764   3.040
 1884TIP3    H1 5597   3.603   7.829   2.970
 1884TIP3    H2 5598   3.498   7.767   3.060
 1885TIP3   OH2 5599   6.057   2.328   1.533
 1885TIP3    H1 5600   6.015   2.337   1.619
 1885TIP3    H2 5601   6.148   2.353   1.548
 1886TIP3   OH2 5602   4.142   2.798   3.362
 1886TIP3    H1 5603   4.085   2.854   3.414
 1886TIP3    H2 5604   4.178   2.856   3.294
 1887TIP3   OH2 5605   4.047   4.563   3.447
 1887TIP3    H1 5606   4.105   4.616   3.393
 1887TIP3    H2 5607   4.058   4.597   3.536
 1888TIP3   OH2 5608   7.798   2.295   3.283
 1888TIP3    H1 5609   7.804   2.372   3.340
 1888TIP3    H2 5610   7.821   2.221   3.340
 1889TIP3   OH2 5611   4.780   4.964   5.775
 1889TIP3    H1 5612   4.798   5.055   5.801
 1889TIP3    H2 5613   4.828   4.911   5.839
 1890TIP3   OH2 5614   2.790   1.696   0.157
 1890TIP3    H1 5615   2.785   1.632   0.087
 1890TIP3    H2 5616   2.821   1.645   0.233
 1891TIP3   OH2 5617   4.336   6.208   3.068
 1891TIP3    H1 5618   4.425   6.192   3.100
 1891TIP3    H2 5619   4.300   6.120   3.054
 1892TIP3   OH2 5620   3.931   6.580   0.312
 1892TIP3    H1 5621   3.957   6.521   0.382
 1892TIP3    H2 5622   3.851   6.541   0.276
 1893TIP3   OH2 5623   3.749   3.553   0.590
 1893TIP3    H1 5624   3.684   3.544   0.520
 1893TIP3    H2 5625   3.803   3.474   0.582
 1894TIP3   OH2 5626   6.869   1.737   3.873
 1894TIP3    H1 5627   6.795   1.682   3.898
 1894TIP3    H2 5628   6.942   1.706   3.927
 1895TIP3   OH2 5629   7.674   2.804   4.758
 1895TIP3    H1 5630   7.702   2.876   4.702
 1895TIP3    H2 5631   7.581   2.820   4.772
 1896TIP3   OH2 5632   4.759   3.242   5.840
 1896TIP3    H1 5633   4.767   3.150   5.866
 1896TIP3    H2 5634   4.665   3.260   5.841
 1897TIP3   OH2 5635   2.930   7.438   0.136
 1897TIP3    H1 5636   2.851   7.421   0.084
 1897TIP3    H2 5637   2.957   7.527   0.110
 1898TIP3   OH2 5638   3.358   4.431   2.072
 1898TIP3    H1 5639   3.401   4.494   2.014
 1898TIP3    H2 5640   3.424   4.411   2.139
 1899TIP3   OH2 5641   7.364   4.842   4.549
 1899TIP3    H1 5642   7.396   4.755   4.526
 1899TIP3    H2 5643   7.285   4.854   4.495
 1900TIP3   OH2 5644   0.341   2.817   2.395
 1900TIP3    H1 5645   0.357   2.911   2.400
 1900TIP3    H2 5646   0.421   2.777   2.430
 1901TIP3   OH2 5647   2.326   6.049   5.057
 1901TIP3    H1 5648   2.321   6.139   5.026
 1901TIP3    H2 5649   2.314   6.055   5.152
 1902TIP3   OH2 5650   3.168   5.918   0.161
 1902TIP3    H1 5651   3.189   5.918   0.254
 1902TIP3    H2 5652   3.182   5.828   0.133
 1903TIP3   OH2 5653   5.690   1.049   6.124
 1903TIP3    H1 5654   5.709   0.964   6.164
 1903TIP3    H2 5655   5.598   1.066   6.146
 1904TIP3   OH2 5656   4.944   0.684   0.864
 1904TIP3    H1 5657   4.947   0.598   0.907
 1904TIP3    H2 5658   4.912   0.666   0.776
 1905TIP3   OH2 5659   7.690   4.049   0.715
 1905TIP3    H1 5660   7.608   4.026   0.671
 1905TIP3    H2 5661   7.704   3.980   0.779
 1906TIP3   OH2 5662   4.012   7.361   4.216
 1906TIP3    H1 5663   4.104   7.383   4.232
 1906TIP3    H2 5664   3.997   7.390   4.126
 1907TIP3   OH2 5665   2.456   1.479   6.338
 1907TIP3    H1 5666   2.422   1.463   6.250
 1907TIP3    H2 5667   2.455   1.574   6.348
 1908TIP3   OH2 5668   2.289   1.616   4.881
 1908TIP3    H1 5669   2.227   1.546   4.904
 1908TIP3    H2 5670   2.249   1.659   4.806
 1909TIP3   OH2 5671   5.229   7.815   5.071
 1909TIP3    H1 5672   5.306   7.852   5.114
 1909TIP3    H2 5673   5.263   7.743   5.018
 1910TIP3   OH2 5674   0.912   6.849   6.072
 1910TIP3    H1 5675   0.954   6.814   6.151
 1910TIP3    H2 5676   0.834   6.895   6.105
 1911TIP3   OH2 5677   4.078   1.999   2.729
 1911TIP3    H1 5678   4.140   1.969   2.795
 1911TIP3    H2 5679   3.995   1.956   2.753
 1912TIP3   OH2 5680   3.628   0.877   6.440
 1912TIP3    H1 5681   3.567   0.847   6.507
 1912TIP3    H2 5682   3.686   0.803   6.425
 1913TIP3   OH2 5683   6.112   1.593   2.198
 1913TIP3    H1 5684   6.167   1.656   2.245
 1913TIP3    H2 5685   6.074   1.538   2.267
 1914TIP3   OH2 5686   0.689   7.058   3.480
 1914TIP3    H1 5687   0.756   6.995   3.455
 1914TIP3    H2 5688   0.738   7.135   3.508
 1915TIP3   OH2 5689   5.371   7.031   0.913
 1915TIP3    H1 5690   5.335   6.988   0.991
 1915TIP3    H2 5691   5.304   7.020   0.846
 1916TIP3   OH2 5692   2.207   0.135   2.478
 1916TIP3    H1 5693   2.231   0.133   2.385
 1916TIP3    H2 5694   2.223   0.045   2.509
 1917TIP3   OH2 5695   2.721   4.419   4.950
 1917TIP3    H1 5696   2.677   4.336   4.932
 1917TIP3    H2 5697   2.740   4.416   5.044
 1918TIP3   OH2 5698   3.178   0.490   0.238
 1918TIP3    H1 5699   3.113   0.473   0.306
 1918TIP3    H2 5700   3.127   0.498   0.157
 1919TIP3   OH2 5701   3.908   6.200   4.679
 1919TIP3    H1 5702   3.863   6.252   4.746
 1919TIP3    H2 5703   3.985   6.253   4.656
 1920TIP3   OH2 5704   6.124   1.533   1.566
 1920TIP3    H1 5705   6.161   1.478   1.635
 1920TIP3    H2 5706   6.065   1.474   1.518
 1921TIP3   OH2 5707   3.514   4.732   6.578
 1921TIP3    H1 5708   3.546   4.815   6.544
 1921TIP3    H2 5709   3.574   4.711   6.650
 1922TIP3   OH2 5710   7.363   6.247   6.341
 1922TIP3    H1 5711   7.362   6.317   6.276
 1922TIP3    H2 5712   7.451   6.209   6.334
 1923TIP3   OH2 5713   4.802   1.912   2.355
 1923TIP3    H1 5714   4.710   1.938   2.363
 1923TIP3    H2 5715   4.851   1.993   2.368
 1924TIP3   OH2 5716   4.543   6.775   5.820
 1924TIP3    H1 5717   4.572   6.864   5.843
 1924TIP3    H2 5718   4.537   6.775   5.725
 1925TIP3   OH2 5719   1.652   2.860   0.194
 1925TIP3    H1 5720   1.694   2.805   0.127
 1925TIP3    H2 5721   1.707   2.850   0.272
 1926TIP3   OH2 5722   7.815   1.254   4.501
 1926TIP3    H1 5723   7.766   1.184   4.546
 1926TIP3    H2 5724   7.903   1.248   4.537
 1927TIP3   OH2 5725   6.564   7.204   0.886
 1927TIP3    H1 5726   6.535   7.290   0.917
 1927TIP3    H2 5727   6.541   7.144   0.956
 1928TIP3   OH2 5728   4.888   6.413   4.692
 1928TIP3    H1 5729   4.889   6.334   4.745
 1928TIP3    H2 5730   4.920   6.482   4.751
 1929TIP3   OH2 5731   3.982   2.553   0.151
 1929TIP3    H1 5732   4.040   2.477   0.149
 1929TIP3    H2 5733   4.038   2.627   0.130
 1930TIP3   OH2 5734   7.674   0.496   6.006
 1930TIP3    H1 5735   7.709   0.512   6.094
 1930TIP3    H2 5736   7.741   0.443   5.963
 1931TIP3   OH2 5737   7.814   6.665   3.606
 1931TIP3    H1 5738   7.845   6.627   3.688
 1931TIP3    H2 5739   7.733   6.618   3.587
 1932TIP3   OH2 5740   2.951   5.233   4.581
 1932TIP3    H1 5741   2.981   5.279   4.502
 1932TIP3    H2 5742   3.026   5.178   4.606
 1933TIP3   OH2 5743   2.531   4.892   5.991
 1933TIP3    H1 5744   2.588   4.939   5.931
 1933TIP3    H2 5745   2.442   4.912   5.961
 1934TIP3   OH2 5746   4.775   5.908   3.085
 1934TIP3    H1 5747   4.748   5.817   3.083
 1934TIP3    H2 5748   4.699   5.955   3.121
 1935TIP3   OH2 5749   5.023   7.652   0.243
 1935TIP3    H1 5750   4.958   7.655   0.313
 1935TIP3    H2 5751   5.102   7.690   0.282
 1936TIP3   OH2 5752   0.698   2.187   1.525
 1936TIP3    H1 5753   0.720   2.210   1.435
 1936TIP3    H2 5754   0.604   2.170   1.524
 1937TIP3   OH2 5755   1.175   4.810   1.902
 1937TIP3    H1 5756   1.115   4.874   1.863
 1937TIP3    H2 5757   1.244   4.862   1.941
 1938TIP3   OH2 5758   7.264   2.446   1.312
 1938TIP3    H1 5759   7.208   2.381   1.355
 1938TIP3    H2 5760   7.217   2.469   1.232
 1939TIP3   OH2 5761   7.966   6.171   0.739
 1939TIP3    H1 5762   7.888   6.136   0.784
 1939TIP3    H2 5763   7.957   6.266   0.745
 1940TIP3   OH2 5764   5.923   6.551   6.111
 1940TIP3    H1 5765   5.916   6.456   6.114
 1940TIP3    H2 5766   5.869   6.581   6.185
 1941TIP3   OH2 5767   5.494   3.687   6.015
 1941TIP3    H1 5768   5.533   3.724   5.936
 1941TIP3    H2 5769   5.504   3.592   6.005
 1942TIP3   OH2 5770   5.210   1.937   1.407
 1942TIP3    H1 5771   5.192   1.962   1.498
 1942TIP3    H2 5772   5.181   2.012   1.355
 1943TIP3   OH2 5773   2.732   0.891   5.838
 1943TIP3    H1 5774   2.673   0.871   5.765
 1943TIP3    H2 5775   2.738   0.808   5.887
 1944TIP3   OH2 5776   2.928   2.587   2.277
 1944TIP3    H1 5777   2.956   2.535   2.202
 1944TIP3    H2 5778   2.894   2.524   2.340
 1945TIP3   OH2 5779   3.070   3.483   3.945
 1945TIP3    H1 5780   3.041   3.428   3.872
 1945TIP3    H2 5781   2.994   3.487   4.004
 1946TIP3   OH2 5782   4.423   6.558   4.221
 1946TIP3    H1 5783   4.478   6.523   4.291
 1946TIP3    H2 5784   4.410   6.484   4.162
 1947TIP3   OH2 5785   1.205   6.798   0.461
 1947TIP3    H1 5786   1.231   6.751   0.539
 1947TIP3    H2 5787   1.142   6.863   0.491
 1948TIP3   OH2 5788   5.579   3.497   1.464
 1948TIP3    H1 5789   5.648   3.560   1.441
 1948TIP3    H2 5790   5.550   3.462   1.380
 1949TIP3   OH2 5791   3.686   1.569   1.567
 1949TIP3    H1 5792   3.741   1.576   1.644
 1949TIP3    H2 5793   3.600   1.543   1.601
 1950TIP3   OH2 5794   3.159   5.064   3.566
 1950TIP3    H1 5795   3.071   5.031   3.545
 1950TIP3    H2 5796   3.208   5.057   3.484
 1951TIP3   OH2 5797   5.153   6.698   5.812
 1951TIP3    H1 5798   5.205   6.718   5.890
 1951TIP3    H2 5799   5.075   6.655   5.845
 1952TIP3   OH2 5800   4.669   0.743   4.075
 1952TIP3    H1 5801   4.695   0.658   4.039
 1952TIP3    H2 5802   4.654   0.798   3.998
 1953TIP3   OH2 5803   1.827   3.130   1.120
 1953TIP3    H1 5804   1.892   3.175   1.066
 1953TIP3    H2 5805   1.749   3.125   1.064
 1954TIP3   OH2 5806   3.690   7.508   5.379
 1954TIP3    H1 5807   3.781   7.479   5.380
 1954TIP3    H2 5808   3.681   7.560   5.459
 1955TIP3   OH2 5809   3.707   2.163   6.556
 1955TIP3    H1 5810   3.639   2.221   6.522
 1955TIP3    H2 5811   3.786   2.217   6.560
 1956TIP3   OH2 5812   7.578   3.502   1.474
 1956TIP3    H1 5813   7.556   3.580   1.525
 1956TIP3    H2 5814   7.673   3.507   1.462
 1957TIP3   OH2 5815   4.430   1.466   5.871
 1957TIP3    H1 5816   4.345   1.424   5.876
 1957TIP3    H2 5817   4.444   1.482   5.778
 1958TIP3   OH2 5818   7.749   2.559   2.249
 1958TIP3    H1 5819   7.836   2.530   2.275
 1958TIP3    H2 5820   7.755   2.655   2.249
 1959TIP3   OH2 5821   5.736   3.553   2.390
 1959TIP3    H1 5822   5.783   3.573   2.471
 1959TIP3    H2 5823   5.676   3.482   2.413
 1960TIP3   OH2 5824   5.126   4.758   0.398
 1960TIP3    H1 5825   5.107   4.826   0.463
 1960TIP3    H2 5826   5.066   4.687   0.420
 1961TIP3   OH2 5827   5.660   2.109   1.812
 1961TIP3    H1 5828   5.579   2.059   1.803
 1961TIP3    H2 5829   5.728   2.052   1.777
 1962TIP3   OH2 5830   1.149   6.905   5.912
 1962TIP3    H1 5831   1.129   6.814   5.935
 1962TIP3    H2 5832   1.113   6.956   5.984
 1963TIP3   OH2 5833   5.159   0.102   6.459
 1963TIP3    H1 5834   5.151   0.012   6.489
 1963TIP3    H2 5835   5.239   0.134   6.500
 1964TIP3   OH2 5836   3.541   3.947   5.711
 1964TIP3    H1 5837   3.517   3.954   5.804
 1964TIP3    H2 5838   3.544   3.853   5.695
 1965TIP3   OH2 5839   1.134   0.926   1.075
 1965TIP3    H1 5840   1.152   0.872   0.999
 1965TIP3    H2 5841   1.220   0.956   1.105
 1966TIP3   OH2 5842   5.640   5.977   2.193
 1966TIP3    H1 5843   5.577   6.044   2.163
 1966TIP3    H2 5844   5.619   5.965   2.286
 1967TIP3   OH2 5845   1.346   2.930   4.631
 1967TIP3    H1 5846   1.355   2.944   4.537
 1967TIP3    H2 5847   1.435   2.911   4.661
 1968TIP3   OH2 5848  -0.006   4.593   6.098
 1968TIP3    H1 5849   0.084   4.613   6.125
 1968TIP3    H2 5850  -0.018   4.501   6.122
 1969TIP3   OH2 5851   1.264   4.121   2.920
 1969TIP3    H1 5852   1.323   4.179   2.872
 1969TIP3    H2 5853   1.275   4.035   2.880
 1970TIP3   OH2 5854   7.038   1.331   2.985
 1970TIP3    H1 5855   7.117   1.283   2.958
 1970TIP3    H2 5856   6.970   1.300   2.924
 1971TIP3   OH2 5857   2.972   1.704   4.495
 1971TIP3    H1 5858   2.931   1.726   4.412
 1971TIP3    H2 5859   2.938   1.616   4.516
 1972TIP3   OH2 5860   3.727   3.588   1.227
 1972TIP3    H1 5861   3.779   3.569   1.305
 1972TIP3    H2 5862   3.782   3.559   1.154
 1973TIP3   OH2 5863   4.552   5.931   4.067
 1973TIP3    H1 5864   4.636   5.963   4.034
 1973TIP3    H2 5865   4.532   5.855   4.012
 1974TIP3   OH2 5866   6.600   4.901   0.727
 1974TIP3    H1 5867   6.654   4.862   0.796
 1974TIP3    H2 5868   6.660   4.917   0.655
 1975TIP3   OH2 5869   0.233   3.970   5.355
 1975TIP3    H1 5870   0.232   3.875   5.370
 1975TIP3    H2 5871   0.156   3.987   5.301
 1976TIP3   OH2 5872   7.230   1.942   4.555
 1976TIP3    H1 5873   7.297   1.944   4.486
 1976TIP3    H2 5874   7.198   1.852   4.555
 1977TIP3   OH2 5875   4.443   2.818   1.929
 1977TIP3    H1 5876   4.505   2.887   1.907
 1977TIP3    H2 5877   4.365   2.838   1.878
 1978TIP3   OH2 5878   0.614   1.821   0.391
 1978TIP3    H1 5879   0.573   1.819   0.478
 1978TIP3    H2 5880   0.660   1.738   0.385
 1979TIP3   OH2 5881   2.412   2.208   6.234
 1979TIP3    H1 5882   2.455   2.198   6.319
 1979TIP3    H2 5883   2.333   2.258   6.252
 1980TIP3   OH2 5884   2.489   3.863   4.451
 1980TIP3    H1 5885   2.550   3.916   4.503
 1980TIP3    H2 5886   2.505   3.774   4.480
 1981TIP3   OH2 5887   3.262   2.161   5.878
 1981TIP3    H1 5888   3.307   2.112   5.809
 1981TIP3    H2 5889   3.255   2.098   5.950
 1982TIP3   OH2 5890   5.697   0.371   0.700
 1982TIP3    H1 5891   5.674   0.286   0.663
 1982TIP3    H2 5892   5.690   0.432   0.626
 1983TIP3   OH2 5893   1.492   5.442   0.742
 1983TIP3    H1 5894   1.429   5.509   0.770
 1983TIP3    H2 5895   1.570   5.491   0.717
 1984TIP3   OH2 5896   6.093   0.588   4.839
 1984TIP3    H1 5897   6.026   0.570   4.905
 1984TIP3    H2 5898   6.155   0.647   4.883
 1985TIP3   OH2 5899   6.158   0.520   3.493
 1985TIP3    H1 5900   6.243   0.483   3.472
 1985TIP3    H2 5901   6.166   0.552   3.582
 1986TIP3   OH2 5902   5.182   7.351   4.364
 1986TIP3    H1 5903   5.230   7.409   4.304
 1986TIP3    H2 5904   5.091   7.378   4.355
 1987TIP3   OH2 5905   1.927   6.833   3.008
 1987TIP3    H1 5906   1.928   6.743   2.976
 1987TIP3    H2 5907   1.838   6.847   3.039
 1988TIP3   OH2 5908   1.404   7.676   5.431
 1988TIP3    H1 5909   1.321   7.628   5.425
 1988TIP3    H2 5910   1.420   7.683   5.526
 1989TIP3   OH2 5911   7.935   2.082   5.814
 1989TIP3    H1 5912   7.883   2.065   5.736
 1989TIP3    H2 5913   8.024   2.057   5.789
 1990TIP3   OH2 5914   3.295   2.966   6.466
 1990TIP3    H1 5915   3.375   2.982   6.416
 1990TIP3    H2 5916   3.294   2.871   6.480
 1991TIP3   OH2 5917   6.113   0.795   5.494
 1991TIP3    H1 5918   6.049   0.724   5.490
 1991TIP3    H2 5919   6.081   0.852   5.565
 1992TIP3   OH2 5920   3.990   6.422   3.062
 1992TIP3    H1 5921   3.934   6.375   3.123
 1992TIP3    H2 5922   3.977   6.515   3.085
 1993TIP3   OH2 5923   7.781   5.746   1.909
 1993TIP3    H1 5924   7.787   5.829   1.862
 1993TIP3    H2 5925   7.751   5.683   1.844
 1994TIP3   OH2 5926   1.106   5.164   0.375
 1994TIP3    H1 5927   1.083   5.074   0.351
 1994TIP3    H2 5928   1.024   5.212   0.369
 1995TIP3   OH2 5929   6.007   4.090   2.507
 1995TIP3    H1 5930   6.007   3.999   2.535
 1995TIP3    H2 5931   6.026   4.140   2.586
 1996TIP3   OH2 5932   3.914   5.087   2.203
 1996TIP3    H1 5933   3.918   5.022   2.273
 1996TIP3    H2 5934   3.997   5.134   2.209
 1997TIP3   OH2 5935   1.247   5.077   0.599
 1997TIP3    H1 5936   1.238   5.128   0.679
 1997TIP3    H2 5937   1.209   5.131   0.531
 1998TIP3   OH2 5938   3.485   6.282   6.528
 1998TIP3    H1 5939   3.555   6.260   6.466
 1998TIP3    H2 5940   3.529   6.337   6.594
 1999TIP3   OH2 5941   4.587   5.185   2.878
 1999TIP3    H1 5942   4.581   5.213   2.786
 1999TIP3    H2 5943   4.562   5.262   2.928
 2000TIP3   OH2 5944   1.487   0.253   1.427
 2000TIP3    H1 5945   1.488   0.328   1.367
 2000TIP3    H2 5946   1.528   0.182   1.378
 2001TIP3   OH2 5947   6.423   7.804   2.720
 2001TIP3    H1 5948   6.501   7.790   2.665
 2001TIP3    H2 5949   6.422   7.898   2.737
 2002TIP3   OH2 5950   0.594   0.041   6.472
 2002TIP3    H1 5951   0.657   0.065   6.403
 2002TIP3    H2 5952   0.520   0.003   6.424
 2003TIP3   OH2 5953   5.340   7.177   5.819
 2003TIP3    H1 5954   5.265   7.118   5.828
 2003TIP3    H2 5955   5.416   7.120   5.827
 2004TIP3   OH2 5956   6.895   4.446   1.309
 2004TIP3    H1 5957   6.804   4.415   1.314
 2004TIP3    H2 5958   6.944   4.386   1.364
 2005TIP3   OH2 5959   1.876   1.691   2.184
 2005TIP3    H1 5960   1.878   1.786   2.170
 2005TIP3    H2 5961   1.875   1.654   2.096
 2006TIP3   OH2 5962   3.826   2.834   3.066
 2006TIP3    H1 5963   3.766   2.760   3.065
 2006TIP3    H2 5964   3.910   2.797   3.093
 2007TIP3   OH2 5965   7.922   4.980   4.897
 2007TIP3    H1 5966   7.832   4.947   4.891
 2007TIP3    H2 5967   7.954   4.977   4.806
 2008TIP3   OH2 5968   7.780   3.442   5.975
 2008TIP3    H1 5969   7.820   3.424   5.890
 2008TIP3    H2 5970   7.723   3.517   5.960
 2009TIP3   OH2 5971   6.371   2.376   1.530
 2009TIP3    H1 5972   6.449   2.419   1.496
 2009TIP3    H2 5973   6.398   2.339   1.614
 2010TIP3   OH2 5974   6.406   4.703   0.811
 2010TIP3    H1 5975   6.469   4.679   0.744
 2010TIP3    H2 5976   6.459   4.733   0.885
 2011TIP3   OH2 5977   5.148   6.498   0.416
 2011TIP3    H1 5978   5.057   6.524   0.430
 2011TIP3    H2 5979   5.143   6.420   0.361
 2012TIP3   OH2 5980   6.292   3.977   4.915
 2012TIP3    H1 5981   6.211   3.968   4.865
 2012TIP3    H2 5982   6.308   4.071   4.919
 2013TIP3   OH2 5983   5.522   6.120   5.765
 2013TIP3    H1 5984   5.529   6.041   5.711
 2013TIP3    H2 5985   5.608   6.132   5.804
 2014TIP3   OH2 5986   4.159   1.806   5.709
 2014TIP3    H1 5987   4.194   1.893   5.688
 2014TIP3    H2 5988   4.173   1.755   5.629
 2015TIP3   OH2 5989   7.210   0.780   5.132
 2015TIP3    H1 5990   7.299   0.744   5.132
 2015TIP3    H2 5991   7.181   0.772   5.222
 2016TIP3   OH2 5992   2.318   6.016   0.757
 2016TIP3    H1 5993   2.338   6.087   0.818
 2016TIP3    H2 5994   2.237   5.979   0.790
 2017TIP3   OH2 5995   7.502   7.063   0.816
 2017TIP3    H1 5996   7.458   7.148   0.818
 2017TIP3    H2 5997   7.594   7.084   0.834
 2018TIP3   OH2 5998   4.933   6.203   2.384
 2018TIP3    H1 5999   4.934   6.146   2.307
 2018TIP3    H2 6000   4.862   6.170   2.438
 2019TIP3   OH2 6001   3.075   6.404   3.661
 2019TIP3    H1 6002   3.032   6.319   3.661
 2019TIP3    H2 6003   3.164   6.386   3.690
 2020TIP3   OH2 6004   1.722   6.421   3.503
 2020TIP3    H1 6005   1.785   6.451   3.437
 2020TIP3    H2 6006   1.666   6.359   3.457
 2021TIP3   OH2 6007   0.984   7.748   0.694
 2021TIP3    H1 6008   0.897   7.713   0.713
 2021TIP3    H2 6009   1.028   7.752   0.779
 2022TIP3   OH2 6010   8.058   5.985   3.824
 2022TIP3    H1 6011   8.104   5.901   3.815
 2022TIP3    H2 6012   8.104   6.030   3.895
 2023TIP3   OH2 6013   1.015   7.271   0.585
 2023TIP3    H1 6014   1.001   7.300   0.674
 2023TIP3    H2 6015   1.041   7.350   0.537
 2024TIP3   OH2 6016   5.088   1.772   3.703
 2024TIP3    H1 6017   5.006   1.812   3.731
 2024TIP3    H2 6018   5.064   1.720   3.626
 2025TIP3   OH2 6019   7.589   1.450   0.071
 2025TIP3    H1 6020   7.509   1.422   0.117
 2025TIP3    H2 6021   7.648   1.375   0.078
 2026TIP3   OH2 6022   2.337   5.603   4.376
 2026TIP3    H1 6023   2.320   5.529   4.434
 2026TIP3    H2 6024   2.275   5.670   4.404
 2027TIP3   OH2 6025   4.296   7.241   3.241
 2027TIP3    H1 6026   4.318   7.317   3.186
 2027TIP3    H2 6027   4.378   7.217   3.283
 2028TIP3   OH2 6028   4.136   3.610   6.369
 2028TIP3    H1 6029   4.114   3.582   6.280
 2028TIP3    H2 6030   4.205   3.550   6.397
 2029TIP3   OH2 6031   0.370   6.581   1.950
 2029TIP3    H1 6032   0.380   6.497   1.994
 2029TIP3    H2 6033   0.439   6.637   1.988
 2030TIP3   OH2 6034   6.236   1.407   3.205
 2030TIP3    H1 6035   6.182   1.368   3.273
 2030TIP3    H2 6036   6.189   1.487   3.180
 2031TIP3   OH2 6037   1.720   7.724   4.152
 2031TIP3    H1 6038   1.724   7.811   4.193
 2031TIP3    H2 6039   1.627   7.704   4.148
 2032TIP3   OH2 6040   4.633   6.889   4.018
 2032TIP3    H1 6041   4.628   6.794   4.025
 2032TIP3    H2 6042   4.717   6.911   4.058
 2033TIP3   OH2 6043   1.450   2.475   5.256
 2033TIP3    H1 6044   1.420   2.437   5.174
 2033TIP3    H2 6045   1.509   2.545   5.230
 2034TIP3   OH2 6046   6.719   5.784   1.674
 2034TIP3    H1 6047   6.704   5.697   1.711
 2034TIP3    H2 6048   6.686   5.778   1.584
 2035TIP3   OH2 6049   0.279   4.883   3.678
 2035TIP3    H1 6050   0.188   4.887   3.648
 2035TIP3    H2 6051   0.274   4.905   3.772
 2036TIP3   OH2 6052   5.318   2.922   6.101
 2036TIP3    H1 6053   5.228   2.902   6.126
 2036TIP3    H2 6054   5.371   2.881   6.168
 2037TIP3   OH2 6055   5.260   6.293   2.734
 2037TIP3    H1 6056   5.187   6.247   2.775
 2037TIP3    H2 6057   5.265   6.258   2.645
 2038TIP3   OH2 6058   2.913   4.930   1.866
 2038TIP3    H1 6059   2.916   5.024   1.885
 2038TIP3    H2 6060   2.873   4.924   1.780
 2039TIP3   OH2 6061   1.337   7.025   2.688
 2039TIP3    H1 6062   1.403   7.080   2.730
 2039TIP3    H2 6063   1.387   6.963   2.635
 2040TIP3   OH2 6064   6.139   3.109   3.671
 2040TIP3    H1 6065   6.225   3.137   3.640
 2040TIP3    H2 6066   6.153   3.020   3.704
 2041TIP3   OH2 6067   7.378   3.435   0.598
 2041TIP3    H1 6068   7.367   3.370   0.668
 2041TIP3    H2 6069   7.303   3.493   0.607
 2042TIP3   OH2 6070   4.309   2.809   1.268
 2042TIP3    H1 6071   4.376   2.764   1.216
 2042TIP3    H2 6072   4.299   2.754   1.346
 2043TIP3   OH2 6073   2.782   3.369   4.279
 2043TIP3    H1 6074   2.798   3.442   4.219
 2043TIP3    H2 6075   2.868   3.335   4.300
 2044TIP3   OH2 6076   6.479   3.519   3.534
 2044TIP3    H1 6077   6.447   3.605   3.562
 2044TIP3    H2 6078   6.535   3.489   3.605
 2045TIP3   OH2 6079   7.402   4.450   0.020
 2045TIP3    H1 6080   7.401   4.362  -0.017
 2045TIP3    H2 6081   7.431   4.438   0.111
 2046TIP3   OH2 6082   2.407   4.090   6.713
 2046TIP3    H1 6083   2.465   4.044   6.774
 2046TIP3    H2 6084   2.370   4.020   6.658
 2047TIP3   OH2 6085   6.726   4.937   4.405
 2047TIP3    H1 6086   6.634   4.945   4.383
 2047TIP3    H2 6087   6.769   5.002   4.349
 2048TIP3   OH2 6088   1.639   5.964   4.968
 2048TIP3    H1 6089   1.644   5.995   4.878
 2048TIP3    H2 6090   1.725   5.983   5.005
 2049TIP3   OH2 6091   2.979   1.244   5.905
 2049TIP3    H1 6092   2.996   1.200   5.988
 2049TIP3    H2 6093   3.029   1.325   5.909
 2050TIP3   OH2 6094   0.499   1.555   0.975
 2050TIP3    H1 6095   0.443   1.632   0.977
 2050TIP3    H2 6096   0.471   1.507   0.898
 2051TIP3   OH2 6097   5.693   0.090   4.560
 2051TIP3    H1 6098   5.771   0.138   4.532
 2051TIP3    H2 6099   5.728   0.016   4.609
 2052TIP3   OH2 6100   5.711   5.938   5.094
 2052TIP3    H1 6101   5.740   6.015   5.142
 2052TIP3    H2 6102   5.638   5.903   5.146
 2053TIP3   OH2 6103   6.121   3.839   0.046
 2053TIP3    H1 6104   6.129   3.856  -0.048
 2053TIP3    H2 6105   6.046   3.893   0.074
 2054TIP3   OH2 6106   6.148   3.893   4.570
 2054TIP3    H1 6107   6.061   3.867   4.599
 2054TIP3    H2 6108   6.143   3.893   4.474
 2055TIP3   OH2 6109   5.521   3.277   1.061
 2055TIP3    H1 6110   5.520   3.206   1.125
 2055TIP3    H2 6111   5.588   3.338   1.093
 2056TIP3   OH2 6112   6.351   0.681   5.380
 2056TIP3    H1 6113   6.430   0.729   5.405
 2056TIP3    H2 6114   6.283   0.717   5.437
 2057TIP3   OH2 6115   2.745   4.294   4.025
 2057TIP3    H1 6116   2.769   4.371   4.077
 2057TIP3    H2 6117   2.737   4.224   4.089
 2058TIP3   OH2 6118   7.230   6.004   1.669
 2058TIP3    H1 6119   7.298   5.949   1.629
 2058TIP3    H2 6120   7.149   5.955   1.657
 2059TIP3   OH2 6121   1.419   5.497   6.743
 2059TIP3    H1 6122   1.375   5.581   6.733
 2059TIP3    H2 6123   1.460   5.481   6.658
 2060TIP3   OH2 6124   5.855   7.337   3.420
 2060TIP3    H1 6125   5.886   7.247   3.412
 2060TIP3    H2 6126   5.918   7.388   3.369
 2061TIP3   OH2 6127   0.269   2.292   4.298
 2061TIP3    H1 6128   0.334   2.224   4.277
 2061TIP3    H2 6129   0.187   2.243   4.310
 2062TIP3   OH2 6130   0.516   1.384   4.607
 2062TIP3    H1 6131   0.504   1.316   4.673
 2062TIP3    H2 6132   0.499   1.466   4.653
 2063TIP3   OH2 6133   0.206   3.050   3.441
 2063TIP3    H1 6134   0.169   3.137   3.456
 2063TIP3    H2 6135   0.131   2.992   3.440
 2064TIP3   OH2 6136   3.133   3.625   0.930
 2064TIP3    H1 6137   3.179   3.708   0.946
 2064TIP3    H2 6138   3.110   3.594   1.018
 2065TIP3   OH2 6139   3.002   1.335   1.416
 2065TIP3    H1 6140   2.992   1.346   1.511
 2065TIP3    H2 6141   3.081   1.283   1.406
 2066TIP3   OH2 6142   3.775   3.016   4.191
 2066TIP3    H1 6143   3.739   2.996   4.104
 2066TIP3    H2 6144   3.718   2.969   4.252
 2067TIP3   OH2 6145   3.904   1.632   5.133
 2067TIP3    H1 6146   3.984   1.579   5.135
 2067TIP3    H2 6147   3.851   1.593   5.064
 2068TIP3   OH2 6148   2.273   6.623   1.260
 2068TIP3    H1 6149   2.300   6.713   1.279
 2068TIP3    H2 6150   2.232   6.629   1.173
 2069TIP3   OH2 6151   4.186   7.012   0.114
 2069TIP3    H1 6152   4.143   7.028   0.198
 2069TIP3    H2 6153   4.148   7.077   0.055
 2070TIP3   OH2 6154   2.123   1.711   6.574
 2070TIP3    H1 6155   2.103   1.789   6.523
 2070TIP3    H2 6156   2.038   1.679   6.603
 2071TIP3   OH2 6157   1.174   4.218   1.323
 2071TIP3    H1 6158   1.255   4.191   1.366
 2071TIP3    H2 6159   1.108   4.214   1.392
 2072TIP3   OH2 6160   3.836   1.434   2.367
 2072TIP3    H1 6161   3.791   1.409   2.287
 2072TIP3    H2 6162   3.912   1.376   2.372
 2073TIP3   OH2 6163   6.176   5.669   4.123
 2073TIP3    H1 6164   6.258   5.638   4.160
 2073TIP3    H2 6165   6.118   5.680   4.199
 2074TIP3   OH2 6166   2.176   4.831   3.507
 2074TIP3    H1 6167   2.097   4.794   3.469
 2074TIP3    H2 6168   2.247   4.782   3.465
 2075TIP3   OH2 6169   1.014   7.294   5.755
 2075TIP3    H1 6170   1.089   7.354   5.764
 2075TIP3    H2 6171   0.941   7.342   5.793
 2076TIP3   OH2 6172   1.955   2.503   0.281
 2076TIP3    H1 6173   2.018   2.447   0.328
 2076TIP3    H2 6174   2.000   2.586   0.271
 2077TIP3   OH2 6175   4.163   6.855   4.716
 2077TIP3    H1 6176   4.130   6.768   4.694
 2077TIP3    H2 6177   4.258   6.845   4.720
 2078TIP3   OH2 6178   3.546   4.250   6.205
 2078TIP3    H1 6179   3.590   4.307   6.142
 2078TIP3    H2 6180   3.459   4.288   6.215
 2079TIP3   OH2 6181   5.543   4.473   1.496
 2079TIP3    H1 6182   5.504   4.490   1.410
 2079TIP3    H2 6183   5.604   4.401   1.481
 2080TIP3   OH2 6184   5.855   3.580   4.473
 2080TIP3    H1 6185   5.885   3.655   4.523
 2080TIP3    H2 6186   5.931   3.520   4.472
 2081TIP3   OH2 6187   7.093   2.903   4.190
 2081TIP3    H1 6188   7.165   2.840   4.191
 2081TIP3    H2 6189   7.025   2.860   4.138
 2082TIP3   OH2 6190   0.598   2.840   0.754
 2082TIP3    H1 6191   0.505   2.863   0.759
 2082TIP3    H2 6192   0.639   2.897   0.819
 2083TIP3   OH2 6193   1.455   0.975   5.983
 2083TIP3    H1 6194   1.385   0.946   5.924
 2083TIP3    H2 6195   1.456   1.071   5.974
 2084TIP3   OH2 6196   4.674   5.182   0.401
 2084TIP3    H1 6197   4.680   5.224   0.315
 2084TIP3    H2 6198   4.744   5.117   0.401
 2085TIP3   OH2 6199   1.537   4.173   4.926
 2085TIP3    H1 6200   1.563   4.265   4.916
 2085TIP3    H2 6201   1.466   4.175   4.990
 2086TIP3   OH2 6202   4.671   3.309   0.885
 2086TIP3    H1 6203   4.673   3.404   0.892
 2086TIP3    H2 6204   4.578   3.286   0.890
 2087TIP3   OH2 6205   1.014   7.489   6.459
 2087TIP3    H1 6206   0.951   7.457   6.523
 2087TIP3    H2 6207   1.094   7.438   6.475
 2088TIP3   OH2 6208   3.642   1.471   0.011
 2088TIP3    H1 6209   3.689   1.502  -0.066
 2088TIP3    H2 6210   3.668   1.532   0.081
 2089TIP3   OH2 6211   7.440   3.966   1.054
 2089TIP3    H1 6212   7.350   4.001   1.051
 2089TIP3    H2 6213   7.495   4.044   1.057
 2090TIP3   OH2 6214   2.516   4.329   6.698
 2090TIP3    H1 6215   2.582   4.306   6.764
 2090TIP3    H2 6216   2.469   4.247   6.682
 2091TIP3   OH2 6217   5.946   4.984   3.140
 2091TIP3    H1 6218   6.018   4.993   3.077
 2091TIP3    H2 6219   5.947   5.067   3.188
 2092TIP3   OH2 6220   2.857   5.249   2.912
 2092TIP3    H1 6221   2.922   5.180   2.929
 2092TIP3    H2 6222   2.790   5.206   2.859
 2093TIP3   OH2 6223   0.320   0.297   5.617
 2093TIP3    H1 6224   0.326   0.279   5.710
 2093TIP3    H2 6225   0.403   0.268   5.581
 2094TIP3   OH2 6226   2.686   3.935   4.627
 2094TIP3    H1 6227   2.754   3.933   4.694
 2094TIP3    H2 6228   2.673   4.028   4.609
 2095TIP3   OH2 6229   1.563   1.058   4.424
 2095TIP3    H1 6230   1.634   1.107   4.467
 2095TIP3    H2 6231   1.564   0.972   4.466
 2096TIP3   OH2 6232   0.210   6.833   3.930
 2096TIP3    H1 6233   0.221   6.836   3.835
 2096TIP3    H2 6234   0.172   6.918   3.952
 2097TIP3   OH2 6235   6.486   7.565   6.725
 2097TIP3    H1 6236   6.567   7.514   6.713
 2097TIP3    H2 6237   6.423   7.503   6.761
 2098TIP3   OH2 6238   1.191   4.966   4.616
 2098TIP3    H1 6239   1.116   4.910   4.597
 2098TIP3    H2 6240   1.267   4.912   4.596
 2099TIP3   OH2 6241   2.510   4.742   5.371
 2099TIP3    H1 6242   2.500   4.830   5.406
 2099TIP3    H2 6243   2.604   4.731   5.359
 2100TIP3   OH2 6244   7.974   6.419   5.965
 2100TIP3    H1 6245   7.960   6.511   5.985
 2100TIP3    H2 6246   8.068   6.406   5.974
 2101TIP3   OH2 6247   3.654   7.140   5.408
 2101TIP3    H1 6248   3.667   7.064   5.465
 2101TIP3    H2 6249   3.688   7.214   5.459
 2102TIP3   OH2 6250   7.196   7.139   3.105
 2102TIP3    H1 6251   7.109   7.142   3.145
 2102TIP3    H2 6252   7.241   7.068   3.151
 2103TIP3   OH2 6253   5.748   2.901   1.258
 2103TIP3    H1 6254   5.726   2.933   1.171
 2103TIP3    H2 6255   5.834   2.861   1.248
 2104TIP3   OH2 6256   5.834   3.236   1.713
 2104TIP3    H1 6257   5.783   3.287   1.776
 2104TIP3    H2 6258   5.865   3.300   1.650
 2105TIP3   OH2 6259   3.411   2.718   0.391
 2105TIP3    H1 6260   3.448   2.807   0.382
 2105TIP3    H2 6261   3.329   2.731   0.437
 2106TIP3   OH2 6262   2.657   5.711   3.835
 2106TIP3    H1 6263   2.688   5.793   3.872
 2106TIP3    H2 6264   2.736   5.657   3.826
 2107TIP3   OH2 6265   3.043   1.847   3.124
 2107TIP3    H1 6266   3.050   1.755   3.099
 2107TIP3    H2 6267   2.955   1.855   3.162
 2108TIP3   OH2 6268   0.948   4.657   1.987
 2108TIP3    H1 6269   0.900   4.707   2.054
 2108TIP3    H2 6270   1.027   4.708   1.972
 2109TIP3   OH2 6271   3.798   3.309   2.613
 2109TIP3    H1 6272   3.845   3.343   2.536
 2109TIP3    H2 6273   3.734   3.248   2.576
 2110TIP3   OH2 6274   3.020   4.584   3.986
 2110TIP3    H1 6275   2.952   4.640   3.948
 2110TIP3    H2 6276   3.048   4.527   3.914
 2111TIP3   OH2 6277   5.775   5.113   4.638
 2111TIP3    H1 6278   5.853   5.149   4.594
 2111TIP3    H2 6279   5.790   5.132   4.731
 2112TIP3   OH2 6280   3.651   4.218   4.776
 2112TIP3    H1 6281   3.684   4.302   4.808
 2112TIP3    H2 6282   3.557   4.221   4.792
 2113TIP3   OH2 6283   5.930   0.081   0.514
 2113TIP3    H1 6284   6.000   0.119   0.567
 2113TIP3    H2 6285   5.934   0.129   0.431
 2114TIP3   OH2 6286   8.267   6.252   6.558
 2114TIP3    H1 6287   8.307   6.242   6.645
 2114TIP3    H2 6288   8.194   6.312   6.571
 2115TIP3   OH2 6289   3.650   3.993   6.211
 2115TIP3    H1 6290   3.621   4.081   6.232
 2115TIP3    H2 6291   3.632   3.983   6.118
 2116TIP3   OH2 6292   0.567   6.174   2.024
 2116TIP3    H1 6293   0.602   6.149   1.938
 2116TIP3    H2 6294   0.635   6.229   2.063
 2117TIP3   OH2 6295   2.412   3.636   1.537
 2117TIP3    H1 6296   2.477   3.606   1.599
 2117TIP3    H2 6297   2.449   3.616   1.451
 2118TIP3   OH2 6298   7.468   1.804   3.515
 2118TIP3    H1 6299   7.411   1.843   3.581
 2118TIP3    H2 6300   7.475   1.712   3.540
 2119TIP3   OH2 6301   2.249   6.022   1.957
 2119TIP3    H1 6302   2.256   6.039   2.051
 2119TIP3    H2 6303   2.277   6.104   1.916
 2120TIP3   OH2 6304   5.906   5.733   2.401
 2120TIP3    H1 6305   5.947   5.809   2.442
 2120TIP3    H2 6306   5.826   5.718   2.452
 2121TIP3   OH2 6307   6.910   5.855   3.837
 2121TIP3    H1 6308   6.873   5.862   3.749
 2121TIP3    H2 6309   7.002   5.878   3.826
 2122TIP3   OH2 6310   5.033   1.802   5.444
 2122TIP3    H1 6311   5.072   1.755   5.519
 2122TIP3    H2 6312   5.036   1.738   5.373
 2123TIP3   OH2 6313   6.171   5.473   5.554
 2123TIP3    H1 6314   6.240   5.444   5.615
 2123TIP3    H2 6315   6.101   5.505   5.611
 2124TIP3   OH2 6316   5.447   6.238   5.432
 2124TIP3    H1 6317   5.465   6.320   5.478
 2124TIP3    H2 6318   5.444   6.263   5.339
 2125TIP3   OH2 6319   5.364   7.429   0.809
 2125TIP3    H1 6320   5.398   7.510   0.847
 2125TIP3    H2 6321   5.347   7.451   0.717
 2126TIP3   OH2 6322   6.167   6.924   4.700
 2126TIP3    H1 6323   6.201   7.012   4.714
 2126TIP3    H2 6324   6.230   6.866   4.744
 2127TIP3   OH2 6325   0.515   3.997   4.269
 2127TIP3    H1 6326   0.557   3.954   4.195
 2127TIP3    H2 6327   0.445   4.049   4.230
 2128TIP3   OH2 6328   2.984   2.254   5.478
 2128TIP3    H1 6329   3.066   2.214   5.449
 2128TIP3    H2 6330   2.983   2.242   5.573
 2129TIP3   OH2 6331   5.508   2.411   0.437
 2129TIP3    H1 6332   5.442   2.469   0.400
 2129TIP3    H2 6333   5.592   2.452   0.415
 2130TIP3   OH2 6334   7.333   7.148   2.741
 2130TIP3    H1 6335   7.302   7.070   2.786
 2130TIP3    H2 6336   7.418   7.122   2.704
 2131TIP3   OH2 6337   4.113   4.096   3.328
 2131TIP3    H1 6338   4.135   4.070   3.417
 2131TIP3    H2 6339   4.074   4.184   3.337
 2132TIP3   OH2 6340   5.137   5.321   4.840
 2132TIP3    H1 6341   5.073   5.292   4.775
 2132TIP3    H2 6342   5.084   5.341   4.917
 2133TIP3   OH2 6343   3.905   6.610   0.884
 2133TIP3    H1 6344   3.881   6.702   0.897
 2133TIP3    H2 6345   4.000   6.609   0.890
 2134TIP3   OH2 6346   3.994   5.190   3.426
 2134TIP3    H1 6347   3.952   5.152   3.503
 2134TIP3    H2 6348   4.082   5.152   3.424
 2135TIP3   OH2 6349   0.199   4.287   2.580
 2135TIP3    H1 6350   0.152   4.289   2.663
 2135TIP3    H2 6351   0.164   4.209   2.536
 2136TIP3   OH2 6352   8.146   3.488   0.624
 2136TIP3    H1 6353   8.061   3.459   0.591
 2136TIP3    H2 6354   8.209   3.456   0.559
 2137TIP3   OH2 6355   5.025   1.397   1.505
 2137TIP3    H1 6356   4.969   1.353   1.441
 2137TIP3    H2 6357   5.048   1.480   1.464
 2138TIP3   OH2 6358   0.608   1.412   3.743
 2138TIP3    H1 6359   0.516   1.440   3.738
 2138TIP3    H2 6360   0.645   1.438   3.659
 2139TIP3   OH2 6361   4.116   6.479  -0.014
 2139TIP3    H1 6362   4.161   6.467   0.069
 2139TIP3    H2 6363   4.126   6.572  -0.034
 2140TIP3   OH2 6364   4.627   4.620   1.374
 2140TIP3    H1 6365   4.655   4.711   1.369
 2140TIP3    H2 6366   4.559   4.612   1.307
 2141TIP3   OH2 6367   0.864   7.579   1.468
 2141TIP3    H1 6368   0.933   7.605   1.529
 2141TIP3    H2 6369   0.783   7.586   1.519
 2142TIP3   OH2 6370   5.725   4.116   3.275
 2142TIP3    H1 6371   5.716   4.021   3.269
 2142TIP3    H2 6372   5.639   4.150   3.249
 2143TIP3   OH2 6373   1.689   2.486   4.858
 2143TIP3    H1 6374   1.743   2.412   4.831
 2143TIP3    H2 6375   1.745   2.562   4.848
 2144TIP3   OH2 6376   0.457   1.347   3.416
 2144TIP3    H1 6377   0.366   1.333   3.388
 2144TIP3    H2 6378   0.471   1.441   3.404
 2145TIP3   OH2 6379   1.180   3.774   6.429
 2145TIP3    H1 6380   1.215   3.706   6.372
 2145TIP3    H2 6381   1.144   3.726   6.504
 2146TIP3   OH2 6382   5.282   6.652   6.544
 2146TIP3    H1 6383   5.203   6.649   6.598
 2146TIP3    H2 6384   5.303   6.560   6.526
 2147TIP3   OH2 6385   0.074   4.455   2.138
 2147TIP3    H1 6386   0.103   4.473   2.049
 2147TIP3    H2 6387   0.017   4.379   2.130
 2148TIP3   OH2 6388   3.794   5.921   3.412
 2148TIP3    H1 6389   3.724   5.860   3.435
 2148TIP3    H2 6390   3.791   5.988   3.480
 2149TIP3   OH2 6391   0.660   3.210   4.129
 2149TIP3    H1 6392   0.614   3.277   4.078
 2149TIP3    H2 6393   0.684   3.255   4.211
 2150TIP3   OH2 6394   8.193   0.141   1.444
 2150TIP3    H1 6395   8.122   0.154   1.381
 2150TIP3    H2 6396   8.149   0.121   1.526
 2151TIP3   OH2 6397   7.115   6.699   2.241
 2151TIP3    H1 6398   7.053   6.696   2.313
 2151TIP3    H2 6399   7.124   6.608   2.213
 2152TIP3   OH2 6400   4.081   5.082   1.815
 2152TIP3    H1 6401   4.162   5.106   1.859
 2152TIP3    H2 6402   4.109   5.054   1.727
 2153TIP3   OH2 6403   2.207   4.567   6.364
 2153TIP3    H1 6404   2.254   4.650   6.375
 2153TIP3    H2 6405   2.165   4.575   6.279
 2154TIP3   OH2 6406   7.229   1.187   0.414
 2154TIP3    H1 6407   7.298   1.122   0.426
 2154TIP3    H2 6408   7.150   1.136   0.394
 2155TIP3   OH2 6409   4.225   4.998   1.073
 2155TIP3    H1 6410   4.172   5.019   1.150
 2155TIP3    H2 6411   4.165   5.010   0.999
 2156TIP3   OH2 6412   6.616   0.355   0.450
 2156TIP3    H1 6413   6.591   0.399   0.369
 2156TIP3    H2 6414   6.582   0.412   0.519
 2157TIP3   OH2 6415   4.592   0.835   4.540
 2157TIP3    H1 6416   4.682   0.805   4.548
 2157TIP3    H2 6417   4.562   0.801   4.456
 2158TIP3   OH2 6418   5.718   7.594   0.296
 2158TIP3    H1 6419   5.750   7.675   0.257
 2158TIP3    H2 6420   5.765   7.525   0.250
 2159TIP3   OH2 6421   5.686   6.310   5.648
 2159TIP3    H1 6422   5.651   6.375   5.709
 2159TIP3    H2 6423   5.623   6.238   5.652
 2160TIP3   OH2 6424   5.984   7.708   5.859
 2160TIP3    H1 6425   5.986   7.717   5.955
 2160TIP3    H2 6426   6.064   7.660   5.838
 2161TIP3   OH2 6427   5.451   1.272   2.071
 2161TIP3    H1 6428   5.545   1.252   2.075
 2161TIP3    H2 6429   5.443   1.360   2.108
 2162TIP3   OH2 6430   6.918   1.163   4.090
 2162TIP3    H1 6431   6.945   1.194   4.177
 2162TIP3    H2 6432   6.824   1.148   4.099
 2163TIP3   OH2 6433   5.653   4.413   5.968
 2163TIP3    H1 6434   5.696   4.409   5.882
 2163TIP3    H2 6435   5.604   4.331   5.973
 2164TIP3   OH2 6436   1.842   2.730   1.153
 2164TIP3    H1 6437   1.892   2.696   1.227
 2164TIP3    H2 6438   1.842   2.658   1.089
 2165TIP3   OH2 6439   7.152   0.101   0.223
 2165TIP3    H1 6440   7.197   0.146   0.151
 2165TIP3    H2 6441   7.076   0.060   0.181
 2166TIP3   OH2 6442   3.624   5.756   3.029
 2166TIP3    H1 6443   3.600   5.710   3.110
 2166TIP3    H2 6444   3.559   5.729   2.965
 2167TIP3   OH2 6445   5.018   7.028   5.493
 2167TIP3    H1 6446   5.077   6.955   5.474
 2167TIP3    H2 6447   4.939   6.987   5.528
 2168TIP3   OH2 6448   1.622   3.613   2.006
 2168TIP3    H1 6449   1.586   3.680   1.948
 2168TIP3    H2 6450   1.717   3.615   1.988
 2169TIP3   OH2 6451   3.862   7.384   5.803
 2169TIP3    H1 6452   3.830   7.473   5.783
 2169TIP3    H2 6453   3.919   7.396   5.879
 2170TIP3   OH2 6454   7.503   0.071   2.695
 2170TIP3    H1 6455   7.496   0.151   2.748
 2170TIP3    H2 6456   7.421   0.024   2.713
 2171TIP3   OH2 6457   0.702   7.033   6.175
 2171TIP3    H1 6458   0.668   6.988   6.253
 2171TIP3    H2 6459   0.634   7.098   6.154
 2172TIP3   OH2 6460   6.143   7.179   3.572
 2172TIP3    H1 6461   6.157   7.258   3.519
 2172TIP3    H2 6462   6.215   7.179   3.634
 2173TIP3   OH2 6463   8.067   0.852   6.177
 2173TIP3    H1 6464   7.971   0.851   6.179
 2173TIP3    H2 6465   8.089   0.927   6.122
 2174TIP3   OH2 6466   7.606   6.856   6.465
 2174TIP3    H1 6467   7.515   6.876   6.488
 2174TIP3    H2 6468   7.607   6.859   6.369
 2175TIP3   OH2 6469   5.868   4.165   4.856
 2175TIP3    H1 6470   5.846   4.214   4.935
 2175TIP3    H2 6471   5.795   4.182   4.796
 2176TIP3   OH2 6472   1.472   0.336   5.510
 2176TIP3    H1 6473   1.445   0.314   5.421
 2176TIP3    H2 6474   1.499   0.428   5.505
 2177TIP3   OH2 6475   3.097   5.095   4.826
 2177TIP3    H1 6476   3.140   5.179   4.840
 2177TIP3    H2 6477   3.004   5.113   4.837
 2178TIP3   OH2 6478   1.860   6.619   3.308
 2178TIP3    H1 6479   1.797   6.684   3.339
 2178TIP3    H2 6480   1.934   6.628   3.368
 2179TIP3   OH2 6481   6.044   0.495   2.487
 2179TIP3    H1 6482   6.038   0.399   2.492
 2179TIP3    H2 6483   5.968   0.526   2.536
 2180TIP3   OH2 6484   7.659   0.870   5.106
 2180TIP3    H1 6485   7.647   0.822   5.024
 2180TIP3    H2 6486   7.749   0.851   5.133
 2181TIP3   OH2 6487   1.916   1.768   4.067
 2181TIP3    H1 6488   1.824   1.751   4.051
 2181TIP3    H2 6489   1.962   1.732   3.991
 2182TIP3   OH2 6490   7.974   6.232   2.265
 2182TIP3    H1 6491   7.938   6.155   2.220
 2182TIP3    H2 6492   8.049   6.198   2.314
 2183TIP3   OH2 6493   1.088   0.283   5.086
 2183TIP3    H1 6494   1.090   0.267   5.180
 2183TIP3    H2 6495   1.085   0.195   5.047
 2184TIP3   OH2 6496   0.206   6.243   2.367
 2184TIP3    H1 6497   0.164   6.326   2.392
 2184TIP3    H2 6498   0.282   6.270   2.315
 2185TIP3   OH2 6499   3.454   4.270   5.079
 2185TIP3    H1 6500   3.451   4.364   5.063
 2185TIP3    H2 6501   3.544   4.254   5.109
 2186TIP3   OH2 6502   5.371   1.031   5.898
 2186TIP3    H1 6503   5.306   1.059   5.962
 2186TIP3    H2 6504   5.327   1.035   5.814
 2187TIP3   OH2 6505   3.218   2.744   5.069
 2187TIP3    H1 6506   3.241   2.836   5.080
 2187TIP3    H2 6507   3.149   2.745   5.003
 2188TIP3   OH2 6508   6.741   6.800   1.844
 2188TIP3    H1 6509   6.820   6.748   1.836
 2188TIP3    H2 6510   6.710   6.784   1.933
 2189TIP3   OH2 6511   3.038   7.095   5.174
 2189TIP3    H1 6512   3.061   7.003   5.188
 2189TIP3    H2 6513   2.999   7.122   5.257
 2190TIP3   OH2 6514   3.259   7.419   0.626
 2190TIP3    H1 6515   3.187   7.377   0.671
 2190TIP3    H2 6516   3.337   7.397   0.678
 2191TIP3   OH2 6517   3.981   2.572   2.894
 2191TIP3    H1 6518   3.984   2.565   2.990
 2191TIP3    H2 6519   4.072   2.588   2.869
 2192TIP3   OH2 6520   4.149   6.345   5.403
 2192TIP3    H1 6521   4.162   6.397   5.482
 2192TIP3    H2 6522   4.056   6.322   5.403
 2193TIP3   OH2 6523   6.766   7.618   5.616
 2193TIP3    H1 6524   6.853   7.583   5.599
 2193TIP3    H2 6525   6.764   7.634   5.711
 2194TIP3   OH2 6526   3.118   5.591   4.273
 2194TIP3    H1 6527   3.132   5.685   4.278
 2194TIP3    H2 6528   3.172   5.563   4.199
 2195TIP3   OH2 6529   0.299   1.848   6.651
 2195TIP3    H1 6530   0.274   1.937   6.678
 2195TIP3    H2 6531   0.332   1.859   6.562
 2196TIP3   OH2 6532   4.069   1.203   2.531
 2196TIP3    H1 6533   3.985   1.219   2.574
 2196TIP3    H2 6534   4.068   1.110   2.511
 2197TIP3   OH2 6535   1.407   4.212   1.466
 2197TIP3    H1 6536   1.405   4.169   1.551
 2197TIP3    H2 6537   1.444   4.299   1.484
 2198TIP3   OH2 6538   4.390   3.684   0.516
 2198TIP3    H1 6539   4.441   3.619   0.564
 2198TIP3    H2 6540   4.344   3.734   0.583
 2199TIP3   OH2 6541   2.936   0.097   4.887
 2199TIP3    H1 6542   2.985   0.166   4.932
 2199TIP3    H2 6543   2.952   0.019   4.939
 2200TIP3   OH2 6544   3.736   4.470   5.593
 2200TIP3    H1 6545   3.798   4.518   5.648
 2200TIP3    H2 6546   3.780   4.461   5.509
 2201TIP3   OH2 6547   3.561   6.676   0.461
 2201TIP3    H1 6548   3.636   6.735   0.467
 2201TIP3    H2 6549   3.599   6.589   0.450
 2202TIP3   OH2 6550   6.106   3.534   4.539
 2202TIP3    H1 6551   6.109   3.624   4.573
 2202TIP3    H2 6552   6.094   3.480   4.617
 2203TIP3   OH2 6553   5.692   0.912   1.618
 2203TIP3    H1 6554   5.669   0.838   1.675
 2203TIP3    H2 6555   5.625   0.912   1.550
 2204TIP3   OH2 6556   1.891   2.618   6.434
 2204TIP3    H1 6557   1.963   2.574   6.479
 2204TIP3    H2 6558   1.916   2.616   6.341
 2205TIP3   OH2 6559   7.726   0.388   1.218
 2205TIP3    H1 6560   7.695   0.461   1.164
 2205TIP3    H2 6561   7.648   0.356   1.264
 2206TIP3   OH2 6562   7.151   0.827   0.187
 2206TIP3    H1 6563   7.238   0.803   0.219
 2206TIP3    H2 6564   7.112   0.743   0.161
 2207TIP3   OH2 6565   2.601   4.499   6.297
 2207TIP3    H1 6566   2.593   4.582   6.343
 2207TIP3    H2 6567   2.656   4.519   6.221
 2208TIP3   OH2 6568   3.601   5.847   1.445
 2208TIP3    H1 6569   3.569   5.815   1.360
 2208TIP3    H2 6570   3.532   5.907   1.475
 2209TIP3   OH2 6571   2.385   0.040   3.086
 2209TIP3    H1 6572   2.290   0.029   3.096
 2209TIP3    H2 6573   2.422  -0.015   3.154
 2210TIP3   OH2 6574   4.174   1.604   0.363
 2210TIP3    H1 6575   4.259   1.645   0.346
 2210TIP3    H2 6576   4.117   1.676   0.388
 2211TIP3   OH2 6577   5.943   7.722   3.846
 2211TIP3    H1 6578   5.955   7.814   3.869
 2211TIP3    H2 6579   5.860   7.697   3.888
 2212TIP3   OH2 6580   7.732   7.393   4.258
 2212TIP3    H1 6581   7.664   7.331   4.285
 2212TIP3    H2 6582   7.713   7.473   4.309
 2213TIP3   OH2 6583   1.863   3.564   2.775
 2213TIP3    H1 6584   1.863   3.470   2.793
 2213TIP3    H2 6585   1.932   3.577   2.711
 2214TIP3   OH2 6586   8.310   6.089   1.165
 2214TIP3    H1 6587   8.237   6.051   1.118
 2214TIP3    H2 6588   8.377   6.105   1.098
 2215TIP3   OH2 6589   2.443   7.113   5.252
 2215TIP3    H1 6590   2.399   7.041   5.296
 2215TIP3    H2 6591   2.400   7.192   5.286
 2216TIP3   OH2 6592   4.274   4.633   2.641
 2216TIP3    H1 6593   4.349   4.584   2.607
 2216TIP3    H2 6594   4.234   4.671   2.563
 2217TIP3   OH2 6595   7.574   0.679   4.104
 2217TIP3    H1 6596   7.667   0.670   4.124
 2217TIP3    H2 6597   7.562   0.632   4.022
 2218TIP3   OH2 6598   7.446   0.100   4.323
 2218TIP3    H1 6599   7.365   0.146   4.304
 2218TIP3    H2 6600   7.501   0.165   4.368
 2219TIP3   OH2 6601   4.340   7.699   0.641
 2219TIP3    H1 6602   4.396   7.647   0.584
 2219TIP3    H2 6603   4.260   7.713   0.590
 2220TIP3   OH2 6604   6.895   6.214   3.760
 2220TIP3    H1 6605   6.988   6.197   3.744
 2220TIP3    H2 6606   6.889   6.228   3.855
 2221TIP3   OH2 6607   3.222   0.300   0.627
 2221TIP3    H1 6608   3.171   0.342   0.558
 2221TIP3    H2 6609   3.275   0.371   0.663
 2222TIP3   OH2 6610   3.766   2.501   0.651
 2222TIP3    H1 6611   3.756   2.557   0.574
 2222TIP3    H2 6612   3.774   2.413   0.615
 2223TIP3   OH2 6613   2.665   5.560   1.070
 2223TIP3    H1 6614   2.576   5.572   1.102
 2223TIP3    H2 6615   2.692   5.647   1.040
 2224TIP3   OH2 6616   1.231   2.773   5.678
 2224TIP3    H1 6617   1.221   2.866   5.700
 2224TIP3    H2 6618   1.194   2.765   5.590
 2225TIP3   OH2 6619   2.583   5.324   6.110
 2225TIP3    H1 6620   2.550   5.246   6.155
 2225TIP3    H2 6621   2.525   5.395   6.137
 2226TIP3   OH2 6622   5.901   0.262   4.258
 2226TIP3    H1 6623   5.984   0.223   4.287
 2226TIP3    H2 6624   5.883   0.330   4.324
 2227TIP3   OH2 6625   7.046   6.277   1.693
 2227TIP3    H1 6626   7.097   6.218   1.750
 2227TIP3    H2 6627   6.993   6.218   1.639
 2228TIP3   OH2 6628   2.227   7.159   0.963
 2228TIP3    H1 6629   2.151   7.207   0.930
 2228TIP3    H2 6630   2.195   7.070   0.977
 2229TIP3   OH2 6631   5.741   4.677   0.113
 2229TIP3    H1 6632   5.750   4.626   0.193
 2229TIP3    H2 6633   5.654   4.718   0.120
 2230TIP3   OH2 6634   5.774   1.331   1.300
 2230TIP3    H1 6635   5.829   1.363   1.228
 2230TIP3    H2 6636   5.762   1.407   1.356
 2231TIP3   OH2 6637   0.204   5.379   5.094
 2231TIP3    H1 6638   0.279   5.410   5.044
 2231TIP3    H2 6639   0.165   5.311   5.039
 2232TIP3   OH2 6640   0.136   7.001   4.223
 2232TIP3    H1 6641   0.152   7.035   4.135
 2232TIP3    H2 6642   0.049   7.034   4.246
 2233TIP3   OH2 6643   3.404   6.493   1.318
 2233TIP3    H1 6644   3.310   6.487   1.300
 2233TIP3    H2 6645   3.445   6.499   1.231
 2234TIP3   OH2 6646   6.827   2.110   0.083
 2234TIP3    H1 6647   6.900   2.145   0.032
 2234TIP3    H2 6648   6.815   2.173   0.154
 2235TIP3   OH2 6649   2.781   5.162   3.853
 2235TIP3    H1 6650   2.706   5.104   3.865
 2235TIP3    H2 6651   2.852   5.104   3.824
 2236TIP3   OH2 6652   6.481   1.974   5.014
 2236TIP3    H1 6653   6.531   1.993   5.093
 2236TIP3    H2 6654   6.540   1.994   4.942
 2237TIP3   OH2 6655   7.097   6.480   1.518
 2237TIP3    H1 6656   7.191   6.484   1.500
 2237TIP3    H2 6657   7.087   6.405   1.577
 2238TIP3   OH2 6658   2.736   2.775   4.868
 2238TIP3    H1 6659   2.714   2.750   4.957
 2238TIP3    H2 6660   2.661   2.747   4.815
 2239TIP3   OH2 6661   1.018   1.461   4.314
 2239TIP3    H1 6662   0.924   1.475   4.307
 2239TIP3    H2 6663   1.029   1.415   4.397
 2240TIP3   OH2 6664   2.835   0.656   2.436
 2240TIP3    H1 6665   2.811   0.748   2.447
 2240TIP3    H2 6666   2.930   0.658   2.421
 2241TIP3   OH2 6667   5.560   6.946   0.651
 2241TIP3    H1 6668   5.473   6.906   0.658
 2241TIP3    H2 6669   5.613   6.902   0.717
 2242TIP3   OH2 6670   0.779   4.780   3.618
 2242TIP3    H1 6671   0.789   4.866   3.658
 2242TIP3    H2 6672   0.817   4.719   3.681
 2243TIP3   OH2 6673   6.395   0.651   0.469
 2243TIP3    H1 6674   6.390   0.668   0.564
 2243TIP3    H2 6675   6.351   0.567   0.458
 2244TIP3   OH2 6676   1.039   7.844   3.024
 2244TIP3    H1 6677   0.952   7.807   3.039
 2244TIP3    H2 6678   1.032   7.936   3.050
 2245TIP3   OH2 6679   7.096   1.444   4.416
 2245TIP3    H1 6680   7.114   1.521   4.361
 2245TIP3    H2 6681   7.178   1.429   4.462
 2246TIP3   OH2 6682   2.269   7.055   3.671
 2246TIP3    H1 6683   2.235   6.972   3.705
 2246TIP3    H2 6684   2.353   7.066   3.714
 2247TIP3   OH2 6685   2.820   7.230   1.446
 2247TIP3    H1 6686   2.728   7.216   1.469
 2247TIP3    H2 6687   2.821   7.232   1.351
 2248TIP3   OH2 6688   8.122   2.637   2.961
 2248TIP3    H1 6689   8.096   2.613   3.050
 2248TIP3    H2 6690   8.064   2.586   2.904
 2249TIP3   OH2 6691   3.530   3.964   4.572
 2249TIP3    H1 6692   3.600   3.947   4.509
 2249TIP3    H2 6693   3.495   4.049   4.546
 2250TIP3   OH2 6694   4.273   3.558   0.220
 2250TIP3    H1 6695   4.356   3.518   0.246
 2250TIP3    H2 6696   4.209   3.524   0.283
 2251TIP3   OH2 6697   0.390   0.921   0.238
 2251TIP3    H1 6698   0.485   0.916   0.245
 2251TIP3    H2 6699   0.364   0.991   0.299
 2252TIP3   OH2 6700   1.532   6.555   6.295
 2252TIP3    H1 6701   1.614   6.594   6.265
 2252TIP3    H2 6702   1.512   6.488   6.229
 2253TIP3   OH2 6703   8.186   7.184   1.638
 2253TIP3    H1 6704   8.220   7.108   1.685
 2253TIP3    H2 6705   8.113   7.150   1.587
 2254TIP3   OH2 6706   0.868   1.183   1.660
 2254TIP3    H1 6707   0.773   1.192   1.654
 2254TIP3    H2 6708   0.884   1.156   1.751
 2255TIP3   OH2 6709   3.806   7.081   6.177
 2255TIP3    H1 6710   3.725   7.040   6.146
 2255TIP3    H2 6711   3.791   7.175   6.168
 2256TIP3   OH2 6712   3.434   4.656   5.877
 2256TIP3    H1 6713   3.454   4.577   5.826
 2256TIP3    H2 6714   3.376   4.707   5.822
 2257TIP3   OH2 6715   7.328   1.957   2.227
 2257TIP3    H1 6716   7.334   2.049   2.201
 2257TIP3    H2 6717   7.396   1.913   2.175
 2258TIP3   OH2 6718   3.994   0.948   2.462
 2258TIP3    H1 6719   3.994   0.866   2.510
 2258TIP3    H2 6720   3.919   0.942   2.403
 2259TIP3   OH2 6721   0.611   0.627   0.953
 2259TIP3    H1 6722   0.574   0.702   1.001
 2259TIP3    H2 6723   0.553   0.554   0.976
 2260TIP3   OH2 6724   7.459   0.291   0.563
 2260TIP3    H1 6725   7.543   0.320   0.598
 2260TIP3    H2 6726   7.422   0.235   0.632
 2261TIP3   OH2 6727   0.923   3.385   6.277
 2261TIP3    H1 6728   0.849   3.442   6.258
 2261TIP3    H2 6729   0.956   3.358   6.192
 2262TIP3   OH2 6730   0.860   7.314   6.609
 2262TIP3    H1 6731   0.778   7.266   6.622
 2262TIP3    H2 6732   0.928   7.255   6.644
 2263TIP3   OH2 6733   0.565   7.370   5.320
 2263TIP3    H1 6734   0.545   7.401   5.231
 2263TIP3    H2 6735   0.637   7.308   5.309
 2264TIP3   OH2 6736   6.062   2.929   2.074
 2264TIP3    H1 6737   6.128   2.996   2.093
 2264TIP3    H2 6738   6.086   2.894   1.988
 2265TIP3   OH2 6739   0.060   5.234   4.025
 2265TIP3    H1 6740   0.140   5.282   4.049
 2265TIP3    H2 6741   0.014   5.222   4.108
 2266TIP3   OH2 6742   2.456   3.072   6.046
 2266TIP3    H1 6743   2.531   3.055   5.989
 2266TIP3    H2 6744   2.415   2.986   6.058
 2267TIP3   OH2 6745   2.085   7.441   3.646
 2267TIP3    H1 6746   2.084   7.429   3.741
 2267TIP3    H2 6747   2.175   7.420   3.620
 2268TIP3   OH2 6748   6.314   1.164   1.432
 2268TIP3    H1 6749   6.379   1.234   1.431
 2268TIP3    H2 6750   6.232   1.208   1.409
 2269TIP3   OH2 6751   6.025   2.899   0.817
 2269TIP3    H1 6752   6.086   2.951   0.869
 2269TIP3    H2 6753   6.057   2.908   0.727
 2270TIP3   OH2 6754   1.764   6.668   2.637
 2270TIP3    H1 6755   1.686   6.669   2.581
 2270TIP3    H2 6756   1.762   6.582   2.679
 2271TIP3   OH2 6757   7.842   4.804   4.307
 2271TIP3    H1 6758   7.823   4.764   4.223
 2271TIP3    H2 6759   7.758   4.840   4.336
 2272TIP3   OH2 6760   6.381   2.069   6.346
 2272TIP3    H1 6761   6.407   2.008   6.277
 2272TIP3    H2 6762   6.347   2.012   6.416
 2273TIP3   OH2 6763   2.015   6.833   4.593
 2273TIP3    H1 6764   1.934   6.814   4.546
 2273TIP3    H2 6765   2.073   6.871   4.526
 2274TIP3   OH2 6766   7.211   2.999   6.637
 2274TIP3    H1 6767   7.193   3.088   6.607
 2274TIP3    H2 6768   7.171   2.995   6.724
 2275TIP3   OH2 6769   5.113   3.341   0.956
 2275TIP3    H1 6770   5.187   3.385   0.914
 2275TIP3    H2 6771   5.075   3.407   1.014
 2276TIP3   OH2 6772   1.279   5.948   5.967
 2276TIP3    H1 6773   1.305   5.964   6.058
 2276TIP3    H2 6774   1.187   5.920   5.973
 2277TIP3   OH2 6775   1.362   6.155   3.314
 2277TIP3    H1 6776   1.290   6.171   3.253
 2277TIP3    H2 6777   1.372   6.060   3.314
 2278TIP3   OH2 6778   5.427   5.338   4.324
 2278TIP3    H1 6779   5.390   5.261   4.366
 2278TIP3    H2 6780   5.350   5.387   4.293
 2279TIP3   OH2 6781   4.553   4.409   0.876
 2279TIP3    H1 6782   4.477   4.452   0.837
 2279TIP3    H2 6783   4.528   4.395   0.967
 2280TIP3   OH2 6784   8.131   5.161   5.759
 2280TIP3    H1 6785   8.121   5.256   5.749
 2280TIP3    H2 6786   8.042   5.128   5.771
 2281TIP3   OH2 6787   4.087   3.200   6.530
 2281TIP3    H1 6788   4.034   3.260   6.581
 2281TIP3    H2 6789   4.074   3.228   6.439
 2282TIP3   OH2 6790   4.496   6.689   3.267
 2282TIP3    H1 6791   4.460   6.604   3.243
 2282TIP3    H2 6792   4.469   6.747   3.195
 2283TIP3   OH2 6793   0.625   3.829   4.748
 2283TIP3    H1 6794   0.653   3.918   4.771
 2283TIP3    H2 6795   0.579   3.840   4.665
 2284TIP3   OH2 6796   6.310   7.665   0.722
 2284TIP3    H1 6797   6.400   7.694   0.705
 2284TIP3    H2 6798   6.274   7.732   0.780
 2285TIP3   OH2 6799   2.514   6.085   1.761
 2285TIP3    H1 6800   2.519   6.120   1.672
 2285TIP3    H2 6801   2.604   6.088   1.793
 2286TIP3   OH2 6802   7.191   0.224   4.331
 2286TIP3    H1 6803   7.120   0.232   4.396
 2286TIP3    H2 6804   7.200   0.312   4.295
 2287TIP3   OH2 6805   7.531   1.270   2.442
 2287TIP3    H1 6806   7.491   1.318   2.370
 2287TIP3    H2 6807   7.625   1.276   2.425
 2288TIP3   OH2 6808   4.323   1.338   4.926
 2288TIP3    H1 6809   4.330   1.347   4.831
 2288TIP3    H2 6810   4.270   1.413   4.953
 2289TIP3   OH2 6811   3.137   6.495   5.302
 2289TIP3    H1 6812   3.053   6.485   5.348
 2289TIP3    H2 6813   3.140   6.421   5.242
 2290TIP3   OH2 6814   5.084   2.624   4.643
 2290TIP3    H1 6815   5.057   2.596   4.556
 2290TIP3    H2 6816   5.011   2.602   4.700
 2291TIP3   OH2 6817   7.228   5.532   2.658
 2291TIP3    H1 6818   7.307   5.480   2.649
 2291TIP3    H2 6819   7.170   5.501   2.589
 2292TIP3   OH2 6820   6.792   3.474   4.221
 2292TIP3    H1 6821   6.873   3.495   4.175
 2292TIP3    H2 6822   6.736   3.550   4.206
 2293TIP3   OH2 6823   0.401   3.409   1.489
 2293TIP3    H1 6824   0.497   3.414   1.495
 2293TIP3    H2 6825   0.379   3.330   1.538
 2294TIP3   OH2 6826   5.084   2.057   4.170
 2294TIP3    H1 6827   5.104   2.044   4.263
 2294TIP3    H2 6828   5.150   2.119   4.139
 2295TIP3   OH2 6829   3.270   1.087   6.724
 2295TIP3    H1 6830   3.205   1.036   6.677
 2295TIP3    H2 6831   3.220   1.136   6.790
 2296TIP3   OH2 6832   0.515   2.241   2.153
 2296TIP3    H1 6833   0.580   2.212   2.217
 2296TIP3    H2 6834   0.559   2.233   2.068
 2297TIP3   OH2 6835   2.965   2.567   6.731
 2297TIP3    H1 6836   3.013   2.631   6.783
 2297TIP3    H2 6837   2.927   2.507   6.795
 2298TIP3   OH2 6838   4.494   1.869   5.757
 2298TIP3    H1 6839   4.421   1.931   5.751
 2298TIP3    H2 6840   4.487   1.815   5.679
 2299TIP3   OH2 6841   2.295   5.141   1.774
 2299TIP3    H1 6842   2.336   5.139   1.688
 2299TIP3    H2 6843   2.335   5.068   1.821
 2300TIP3   OH2 6844   6.211   6.073   1.313
 2300TIP3    H1 6845   6.166   6.027   1.384
 2300TIP3    H2 6846   6.141   6.104   1.256
 2301TIP3   OH2 6847   2.848   5.812   1.312
 2301TIP3    H1 6848   2.780   5.797   1.377
 2301TIP3    H2 6849   2.804   5.858   1.241
 2302TIP3   OH2 6850   7.428   1.195   4.511
 2302TIP3    H1 6851   7.362   1.168   4.447
 2302TIP3    H2 6852   7.486   1.119   4.520
 2303TIP3   OH2 6853   1.637  -0.047   3.519
 2303TIP3    H1 6854   1.585   0.021   3.563
 2303TIP3    H2 6855   1.702   0.002   3.469
 2304TIP3   OH2 6856   0.446   6.207   4.759
 2304TIP3    H1 6857   0.466   6.300   4.748
 2304TIP3    H2 6858   0.363   6.195   4.714
 2305TIP3   OH2 6859   2.793   7.459   6.118
 2305TIP3    H1 6860   2.748   7.541   6.142
 2305TIP3    H2 6861   2.881   7.487   6.094
 2306TIP3   OH2 6862   6.334   1.204   0.329
 2306TIP3    H1 6863   6.339   1.133   0.265
 2306TIP3    H2 6864   6.367   1.165   0.410
 2307TIP3   OH2 6865   2.100   3.072   1.249
 2307TIP3    H1 6866   2.009   3.065   1.218
 2307TIP3    H2 6867   2.120   3.165   1.241
 2308TIP3   OH2 6868   4.714   7.687   1.197
 2308TIP3    H1 6869   4.785   7.662   1.256
 2308TIP3    H2 6870   4.663   7.607   1.186
 2309TIP3   OH2 6871   4.301   5.050   2.671
 2309TIP3    H1 6872   4.238   5.038   2.743
 2309TIP3    H2 6873   4.253   5.102   2.606
 2310TIP3   OH2 6874   1.406   3.664   4.059
 2310TIP3    H1 6875   1.367   3.616   3.986
 2310TIP3    H2 6876   1.421   3.752   4.025
 2311TIP3   OH2 6877   0.316   4.855   3.327
 2311TIP3    H1 6878   0.275   4.771   3.345
 2311TIP3    H2 6879   0.408   4.834   3.311
 2312TIP3   OH2 6880   3.602   4.504   2.873
 2312TIP3    H1 6881   3.571   4.442   2.807
 2312TIP3    H2 6882   3.661   4.452   2.928
 2313TIP3   OH2 6883   4.111   7.657   2.104
 2313TIP3    H1 6884   4.040   7.595   2.117
 2313TIP3    H2 6885   4.138   7.682   2.192
 2314TIP3   OH2 6886   5.021   5.306   3.879
 2314TIP3    H1 6887   5.007   5.216   3.850
 2314TIP3    H2 6888   4.993   5.307   3.971
 2315TIP3   OH2 6889   4.634   6.430   0.965
 2315TIP3    H1 6890   4.575   6.460   1.034
 2315TIP3    H2 6891   4.703   6.382   1.012
 2316TIP3   OH2 6892   3.376   0.334   2.564
 2316TIP3    H1 6893   3.316   0.264   2.588
 2316TIP3    H2 6894   3.460   0.309   2.604
 2317TIP3   OH2 6895   4.467   3.591   6.061
 2317TIP3    H1 6896   4.377   3.567   6.081
 2317TIP3    H2 6897   4.460   3.666   6.001
 2318TIP3   OH2 6898   1.018   3.120   6.155
 2318TIP3    H1 6899   1.009   3.064   6.232
 2318TIP3    H2 6900   0.964   3.078   6.088
 2319TIP3   OH2 6901   3.220   5.865   0.420
 2319TIP3    H1 6902   3.280   5.830   0.486
 2319TIP3    H2 6903   3.188   5.947   0.459
 2320TIP3   OH2 6904   1.267   5.415   5.264
 2320TIP3    H1 6905   1.284   5.496   5.312
 2320TIP3    H2 6906   1.264   5.442   5.172
 2321TIP3   OH2 6907   1.645   2.609   6.123
 2321TIP3    H1 6908   1.650   2.526   6.170
 2321TIP3    H2 6909   1.680   2.589   6.036
 2322TIP3   OH2 6910   7.923   2.325   3.641
 2322TIP3    H1 6911   7.834   2.301   3.614
 2322TIP3    H2 6912   7.913   2.412   3.680
 2323TIP3   OH2 6913   4.903   1.324   4.269
 2323TIP3    H1 6914   4.927   1.410   4.232
 2323TIP3    H2 6915   4.901   1.339   4.363
 2324TIP3   OH2 6916   3.212   2.547   0.676
 2324TIP3    H1 6917   3.240   2.487   0.607
 2324TIP3    H2 6918   3.285   2.549   0.738
 2325TIP3   OH2 6919   0.170   6.068   0.728
 2325TIP3    H1 6920   0.102   6.083   0.662
 2325TIP3    H2 6921   0.180   5.973   0.732
 2326TIP3   OH2 6922   8.196   3.998   4.594
 2326TIP3    H1 6923   8.142   4.045   4.658
 2326TIP3    H2 6924   8.273   4.054   4.583
 2327TIP3   OH2 6925   6.974   2.862   5.693
 2327TIP3    H1 6926   6.934   2.917   5.625
 2327TIP3    H2 6927   6.913   2.868   5.767
 2328TIP3   OH2 6928   7.995   0.122   0.344
 2328TIP3    H1 6929   7.902   0.146   0.343
 2328TIP3    H2 6930   7.996   0.034   0.381
 2329TIP3   OH2 6931   1.401   6.513   5.187
 2329TIP3    H1 6932   1.495   6.505   5.173
 2329TIP3    H2 6933   1.383   6.458   5.263
 2330TIP3   OH2 6934   4.651   2.022   0.879
 2330TIP3    H1 6935   4.700   2.104   0.875
 2330TIP3    H2 6936   4.709   1.957   0.840
 2331TIP3   OH2 6937   7.540   0.243   5.134
 2331TIP3    H1 6938   7.614   0.262   5.191
 2331TIP3    H2 6939   7.465   0.240   5.193
 2332TIP3   OH2 6940   7.286   2.545   5.336
 2332TIP3    H1 6941   7.214   2.587   5.383
 2332TIP3    H2 6942   7.359   2.606   5.344
 2333TIP3   OH2 6943   6.511   4.623   3.906
 2333TIP3    H1 6944   6.568   4.700   3.913
 2333TIP3    H2 6945   6.562   4.560   3.855
 2334TIP3   OH2 6946   0.233   0.447   2.690
 2334TIP3    H1 6947   0.196   0.496   2.764
 2334TIP3    H2 6948   0.207   0.497   2.613
 2335TIP3   OH2 6949   2.223   4.312   5.288
 2335TIP3    H1 6950   2.279   4.372   5.237
 2335TIP3    H2 6951   2.159   4.280   5.225
 2336TIP3   OH2 6952   1.390   0.533   0.755
 2336TIP3    H1 6953   1.395   0.463   0.821
 2336TIP3    H2 6954   1.327   0.595   0.791
 2337TIP3   OH2 6955   0.978   6.337   4.966
 2337TIP3    H1 6956   0.950   6.309   5.053
 2337TIP3    H2 6957   0.898   6.362   4.921
 2338TIP3   OH2 6958   7.032   0.257   4.522
 2338TIP3    H1 6959   6.963   0.215   4.574
 2338TIP3    H2 6960   7.036   0.347   4.554
 2339TIP3   OH2 6961   2.997   0.160   1.121
 2339TIP3    H1 6962   2.933   0.220   1.160
 2339TIP3    H2 6963   3.078   0.210   1.118
 2340TIP3   OH2 6964   4.070   5.869   1.771
 2340TIP3    H1 6965   4.140   5.829   1.720
 2340TIP3    H2 6966   3.995   5.811   1.761
 2341TIP3   OH2 6967   3.248   2.958   3.725
 2341TIP3    H1 6968   3.198   2.955   3.643
 2341TIP3    H2 6969   3.195   3.013   3.783
 2342TIP3   OH2 6970   5.898   7.543   5.624
 2342TIP3    H1 6971   5.939   7.459   5.643
 2342TIP3    H2 6972   5.912   7.595   5.703
 2343TIP3   OH2 6973   2.825   1.025   6.225
 2343TIP3    H1 6974   2.862   1.094   6.279
 2343TIP3    H2 6975   2.755   1.068   6.176
 2344TIP3   OH2 6976   0.246   4.756   4.551
 2344TIP3    H1 6977   0.270   4.716   4.635
 2344TIP3    H2 6978   0.197   4.689   4.505
 2345TIP3   OH2 6979   7.846   6.688   5.931
 2345TIP3    H1 6980   7.835   6.704   5.837
 2345TIP3    H2 6981   7.838   6.775   5.971
 2346TIP3   OH2 6982   7.250   2.631   5.012
 2346TIP3    H1 6983   7.277   2.617   5.103
 2346TIP3    H2 6984   7.245   2.543   4.975
 2347TIP3   OH2 6985   8.164   1.135   5.476
 2347TIP3    H1 6986   8.125   1.051   5.453
 2347TIP3    H2 6987   8.089   1.189   5.503
 2348TIP3   OH2 6988   5.054   3.922   3.604
 2348TIP3    H1 6989   5.137   3.967   3.622
 2348TIP3    H2 6990   5.000   3.940   3.681
 2349TIP3   OH2 6991   4.488   4.238   3.819
 2349TIP3    H1 6992   4.561   4.288   3.783
 2349TIP3    H2 6993   4.429   4.224   3.744
 2350TIP3   OH2 6994   4.374   7.354   0.961
 2350TIP3    H1 6995   4.303   7.373   0.900
 2350TIP3    H2 6996   4.395   7.262   0.946
 2351TIP3   OH2 6997   8.131   2.592   1.218
 2351TIP3    H1 6998   8.111   2.506   1.255
 2351TIP3    H2 6999   8.092   2.655   1.279
 2352TIP3   OH2 7000   0.708   3.411   5.820
 2352TIP3    H1 7001   0.684   3.333   5.869
 2352TIP3    H2 7002   0.769   3.458   5.877
 2353TIP3   OH2 7003   6.231   5.782   1.059
 2353TIP3    H1 7004   6.218   5.869   1.023
 2353TIP3    H2 7005   6.188   5.784   1.144
 2354TIP3   OH2 7006   7.230   1.069   3.070
 2354TIP3    H1 7007   7.306   1.118   3.039
 2354TIP3    H2 7008   7.188   1.127   3.132
 2355TIP3   OH2 7009   6.785   2.904   5.868
 2355TIP3    H1 7010   6.732   2.984   5.864
 2355TIP3    H2 7011   6.818   2.902   5.958
 2356TIP3   OH2 7012   1.183   6.428   6.582
 2356TIP3    H1 7013   1.160   6.358   6.520
 2356TIP3    H2 7014   1.156   6.396   6.667
 2357TIP3   OH2 7015   4.261   0.787   0.573
 2357TIP3    H1 7016   4.213   0.715   0.613
 2357TIP3    H2 7017   4.346   0.787   0.616
 2358TIP3   OH2 7018   1.909   7.432   3.306
 2358TIP3    H1 7019   1.872   7.518   3.284
 2358TIP3    H2 7020   1.841   7.390   3.359
 2359TIP3   OH2 7021   1.428   5.943   4.009
 2359TIP3    H1 7022   1.342   5.982   4.001
 2359TIP3    H2 7023   1.463   5.978   4.092
 2360TIP3   OH2 7024   6.602   1.108   5.833
 2360TIP3    H1 7025   6.615   1.075   5.922
 2360TIP3    H2 7026   6.525   1.061   5.800
 2361TIP3   OH2 7027   1.323   3.631   3.029
 2361TIP3    H1 7028   1.252   3.691   3.009
 2361TIP3    H2 7029   1.301   3.550   2.981
 2362TIP3   OH2 7030   7.718   7.252   1.123
 2362TIP3    H1 7031   7.748   7.212   1.041
 2362TIP3    H2 7032   7.774   7.329   1.134
 2363TIP3   OH2 7033   6.008   2.844   6.454
 2363TIP3    H1 7034   6.060   2.832   6.534
 2363TIP3    H2 7035   5.925   2.799   6.473
 2364TIP3   OH2 7036   3.748   6.422   1.039
 2364TIP3    H1 7037   3.813   6.387   1.100
 2364TIP3    H2 7038   3.799   6.473   0.976
 2365TIP3   OH2 7039   5.763   0.793   2.435
 2365TIP3    H1 7040   5.805   0.840   2.363
 2365TIP3    H2 7041   5.732   0.861   2.494
 2366TIP3   OH2 7042   5.964   5.347   1.230
 2366TIP3    H1 7043   6.001   5.401   1.160
 2366TIP3    H2 7044   5.910   5.407   1.281
 2367TIP3   OH2 7045   2.776   5.199   6.475
 2367TIP3    H1 7046   2.682   5.190   6.493
 2367TIP3    H2 7047   2.795   5.291   6.494
 2368TIP3   OH2 7048   1.389   6.216   1.535
 2368TIP3    H1 7049   1.433   6.177   1.610
 2368TIP3    H2 7050   1.457   6.266   1.490
 2369TIP3   OH2 7051   2.647   0.188   4.881
 2369TIP3    H1 7052   2.726   0.134   4.888
 2369TIP3    H2 7053   2.651   0.223   4.792
 2370TIP3   OH2 7054   6.336   3.857   1.719
 2370TIP3    H1 7055   6.291   3.853   1.803
 2370TIP3    H2 7056   6.280   3.912   1.664
 2371TIP3   OH2 7057   5.943   0.636   1.669
 2371TIP3    H1 7058   6.004   0.696   1.627
 2371TIP3    H2 7059   5.977   0.624   1.757
 2372TIP3   OH2 7060   6.261   7.081   0.987
 2372TIP3    H1 7061   6.213   7.007   1.024
 2372TIP3    H2 7062   6.353   7.059   1.002
 2373TIP3   OH2 7063   0.608   2.609   3.810
 2373TIP3    H1 7064   0.604   2.514   3.800
 2373TIP3    H2 7065   0.660   2.639   3.735
 2374TIP3   OH2 7066   1.340   2.455   5.813
 2374TIP3    H1 7067   1.349   2.415   5.900
 2374TIP3    H2 7068   1.278   2.398   5.767
 2375TIP3   OH2 7069   5.022   3.780   4.824
 2375TIP3    H1 7070   5.063   3.694   4.836
 2375TIP3    H2 7071   4.965   3.770   4.747
 2376TIP3   OH2 7072   2.749   2.731   1.853
 2376TIP3    H1 7073   2.842   2.707   1.855
 2376TIP3    H2 7074   2.706   2.661   1.902
 2377TIP3   OH2 7075   4.881   5.312   2.862
 2377TIP3    H1 7076   4.848   5.253   2.794
 2377TIP3    H2 7077   4.921   5.255   2.927
 2378TIP3   OH2 7078   3.502   6.285   4.136
 2378TIP3    H1 7079   3.422   6.336   4.128
 2378TIP3    H2 7080   3.543   6.291   4.049
 2379TIP3   OH2 7081   0.110   5.516   0.224
 2379TIP3    H1 7082   0.136   5.571   0.149
 2379TIP3    H2 7083   0.017   5.502   0.212
 2380TIP3   OH2 7084   5.508   3.405   5.000
 2380TIP3    H1 7085   5.440   3.381   4.937
 2380TIP3    H2 7086   5.563   3.327   5.008
 2381TIP3   OH2 7087   1.034   3.646   2.412
 2381TIP3    H1 7088   1.056   3.714   2.349
 2381TIP3    H2 7089   0.992   3.577   2.361
 2382TIP3   OH2 7090   4.443   4.286   1.602
 2382TIP3    H1 7091   4.534   4.257   1.597
 2382TIP3    H2 7092   4.395   4.209   1.632
 2383TIP3   OH2 7093   7.044   5.299   0.605
 2383TIP3    H1 7094   6.992   5.379   0.613
 2383TIP3    H2 7095   7.073   5.297   0.514
 2384TIP3   OH2 7096   2.336   5.174   0.808
 2384TIP3    H1 7097   2.255   5.194   0.854
 2384TIP3    H2 7098   2.400   5.237   0.842
 2385TIP3   OH2 7099   7.451   3.062   5.148
 2385TIP3    H1 7100   7.372   3.035   5.195
 2385TIP3    H2 7101   7.454   3.003   5.072
 2386TIP3   OH2 7102   5.255   5.079   2.152
 2386TIP3    H1 7103   5.245   5.128   2.071
 2386TIP3    H2 7104   5.185   5.013   2.149
 2387TIP3   OH2 7105   2.289   7.398   1.861
 2387TIP3    H1 7106   2.246   7.329   1.912
 2387TIP3    H2 7107   2.361   7.428   1.916
 2388TIP3   OH2 7108   7.406   3.091   0.053
 2388TIP3    H1 7109   7.339   3.157   0.035
 2388TIP3    H2 7110   7.402   3.078   0.148
 2389TIP3   OH2 7111   7.132   6.078   6.300
 2389TIP3    H1 7112   7.061   6.141   6.314
 2389TIP3    H2 7113   7.211   6.132   6.295
 2390TIP3   OH2 7114   3.554   2.329   4.314
 2390TIP3    H1 7115   3.577   2.312   4.406
 2390TIP3    H2 7116   3.608   2.404   4.289
 2391TIP3   OH2 7117   0.765   0.043   0.913
 2391TIP3    H1 7118   0.799   0.117   0.863
 2391TIP3    H2 7119   0.812   0.046   0.996
 2392TIP3   OH2 7120   7.890   2.801   5.416
 2392TIP3    H1 7121   7.832   2.726   5.403
 2392TIP3    H2 7122   7.844   2.856   5.479
 2393TIP3   OH2 7123   0.482   3.294   5.516
 2393TIP3    H1 7124   0.475   3.358   5.445
 2393TIP3    H2 7125   0.409   3.315   5.574
 2394TIP3   OH2 7126   3.324   3.594   3.861
 2394TIP3    H1 7127   3.240   3.567   3.900
 2394TIP3    H2 7128   3.386   3.528   3.891
 2395TIP3   OH2 7129   5.410   3.468   2.341
 2395TIP3    H1 7130   5.475   3.496   2.277
 2395TIP3    H2 7131   5.453   3.398   2.391
 2396TIP3   OH2 7132   2.426   5.240   4.443
 2396TIP3    H1 7133   2.486   5.224   4.370
 2396TIP3    H2 7134   2.482   5.237   4.521
 2397TIP3   OH2 7135   5.111   2.978   4.347
 2397TIP3    H1 7136   5.181   3.042   4.334
 2397TIP3    H2 7137   5.092   2.945   4.259
 2398TIP3   OH2 7138   6.934   1.353   4.791
 2398TIP3    H1 7139   6.911   1.413   4.862
 2398TIP3    H2 7140   6.905   1.398   4.711
 2399TIP3   OH2 7141   5.545   2.029   4.166
 2399TIP3    H1 7142   5.621   1.979   4.196
 2399TIP3    H2 7143   5.470   1.986   4.206
 2400TIP3   OH2 7144   7.603   5.397   5.052
 2400TIP3    H1 7145   7.643   5.323   5.099
 2400TIP3    H2 7146   7.509   5.380   5.057
 2401TIP3   OH2 7147   5.595   0.433   4.214
 2401TIP3    H1 7148   5.578   0.355   4.161
 2401TIP3    H2 7149   5.682   0.419   4.250
 2402TIP3   OH2 7150   7.232   6.358   3.105
 2402TIP3    H1 7151   7.309   6.318   3.147
 2402TIP3    H2 7152   7.256   6.450   3.095
 2403TIP3   OH2 7153   2.640   7.518   1.310
 2403TIP3    H1 7154   2.618   7.596   1.259
 2403TIP3    H2 7155   2.733   7.504   1.292
 2404TIP3   OH2 7156   5.995   5.082   5.952
 2404TIP3    H1 7157   6.020   5.160   5.903
 2404TIP3    H2 7158   6.060   5.016   5.926
 2405TIP3   OH2 7159   3.004   2.236   2.282
 2405TIP3    H1 7160   2.952   2.218   2.204
 2405TIP3    H2 7161   3.016   2.151   2.324
 2406TIP3   OH2 7162   2.319   4.987   5.523
 2406TIP3    H1 7163   2.325   5.066   5.576
 2406TIP3    H2 7164   2.284   5.016   5.439
 2407TIP3   OH2 7165   0.103   2.786   1.560
 2407TIP3    H1 7166   0.137   2.773   1.471
 2407TIP3    H2 7167   0.021   2.833   1.547
 2408TIP3   OH2 7168   2.794   1.148   2.924
 2408TIP3    H1 7169   2.760   1.215   2.984
 2408TIP3    H2 7170   2.866   1.107   2.973
 2409TIP3   OH2 7171   5.672   0.466   0.431
 2409TIP3    H1 7172   5.689   0.452   0.338
 2409TIP3    H2 7173   5.611   0.540   0.433
 2410TIP3   OH2 7174   3.523   1.005   4.732
 2410TIP3    H1 7175   3.431   1.032   4.736
 2410TIP3    H2 7176   3.520   0.910   4.738
 2411TIP3   OH2 7177   0.447   1.382   0.063
 2411TIP3    H1 7178   0.356   1.402   0.042
 2411TIP3    H2 7179   0.496   1.406  -0.016
 2412TIP3   OH2 7180   2.341   1.368   1.379
 2412TIP3    H1 7181   2.349   1.400   1.468
 2412TIP3    H2 7182   2.404   1.419   1.329
 2413TIP3   OH2 7183   5.355   0.210   0.257
 2413TIP3    H1 7184   5.415   0.192   0.185
 2413TIP3    H2 7185   5.410   0.212   0.335
 2414TIP3   OH2 7186   7.971   2.586   3.716
 2414TIP3    H1 7187   7.984   2.615   3.806
 2414TIP3    H2 7188   7.896   2.637   3.685
 2415TIP3   OH2 7189   6.429   0.309   2.022
 2415TIP3    H1 7190   6.464   0.317   1.933
 2415TIP3    H2 7191   6.385   0.224   2.023
 2416TIP3   OH2 7192   3.597   5.308   5.325
 2416TIP3    H1 7193   3.573   5.331   5.235
 2416TIP3    H2 7194   3.520   5.330   5.376
 2417TIP3   OH2 7195   3.865   5.964   0.676
 2417TIP3    H1 7196   3.880   5.880   0.719
 2417TIP3    H2 7197   3.889   6.029   0.742
 2418TIP3   OH2 7198   4.054   5.040   6.727
 2418TIP3    H1 7199   4.110   5.117   6.742
 2418TIP3    H2 7200   3.988   5.071   6.665
 2419TIP3   OH2 7201   1.512   1.295   0.060
 2419TIP3    H1 7202   1.581   1.312  -0.004
 2419TIP3    H2 7203   1.447   1.364   0.044
 2420TIP3   OH2 7204   5.111   2.716   1.036
 2420TIP3    H1 7205   5.117   2.788   1.098
 2420TIP3    H2 7206   5.156   2.748   0.957
 2421TIP3   OH2 7207   5.395   3.833   4.852
 2421TIP3    H1 7208   5.413   3.923   4.879
 2421TIP3    H2 7209   5.397   3.783   4.934
 2422TIP3   OH2 7210   1.703   6.130   2.762
 2422TIP3    H1 7211   1.797   6.129   2.776
 2422TIP3    H2 7212   1.692   6.115   2.668
 2423TIP3   OH2 7213   7.073   5.087   0.986
 2423TIP3    H1 7214   7.088   5.180   0.965
 2423TIP3    H2 7215   7.115   5.039   0.915
 2424TIP3   OH2 7216   1.117   3.115   4.682
 2424TIP3    H1 7217   1.063   3.037   4.671
 2424TIP3    H2 7218   1.200   3.092   4.639
 2425TIP3   OH2 7219   5.343   2.319   4.973
 2425TIP3    H1 7220   5.419   2.266   4.948
 2425TIP3    H2 7221   5.283   2.256   5.014
 2426TIP3   OH2 7222   0.657   0.669   4.891
 2426TIP3    H1 7223   0.615   0.754   4.903
 2426TIP3    H2 7224   0.650   0.627   4.977
 2427TIP3   OH2 7225   6.931   4.686   3.593
 2427TIP3    H1 7226   6.969   4.738   3.522
 2427TIP3    H2 7227   6.994   4.617   3.610
 2428TIP3   OH2 7228   5.154   7.335   0.972
 2428TIP3    H1 7229   5.219   7.366   0.909
 2428TIP3    H2 7230   5.204   7.326   1.054
 2429TIP3   OH2 7231   4.587   2.096   6.569
 2429TIP3    H1 7232   4.650   2.026   6.585
 2429TIP3    H2 7233   4.637   2.176   6.581
 2430TIP3   OH2 7234   4.250   2.179   4.766
 2430TIP3    H1 7235   4.338   2.184   4.731
 2430TIP3    H2 7236   4.242   2.253   4.825
 2431TIP3   OH2 7237   1.093   0.018   3.870
 2431TIP3    H1 7238   1.096   0.080   3.944
 2431TIP3    H2 7239   1.008  -0.025   3.878
 2432TIP3   OH2 7240   3.686   6.642   6.498
 2432TIP3    H1 7241   3.596   6.674   6.490
 2432TIP3    H2 7242   3.679   6.560   6.546
 2433TIP3   OH2 7243   1.103   5.574   6.566
 2433TIP3    H1 7244   1.062   5.606   6.646
 2433TIP3    H2 7245   1.030   5.548   6.510
 2434TIP3   OH2 7246   7.716   6.858   3.075
 2434TIP3    H1 7247   7.735   6.854   2.981
 2434TIP3    H2 7248   7.671   6.941   3.086
 2435TIP3   OH2 7249   0.370   2.413   6.775
 2435TIP3    H1 7250   0.439   2.378   6.719
 2435TIP3    H2 7251   0.327   2.336   6.811
 2436TIP3   OH2 7252   7.236   2.065   6.329
 2436TIP3    H1 7253   7.269   2.149   6.361
 2436TIP3    H2 7254   7.173   2.037   6.395
 2437TIP3   OH2 7255   6.218   0.418   5.473
 2437TIP3    H1 7256   6.140   0.404   5.419
 2437TIP3    H2 7257   6.249   0.506   5.448
 2438TIP3   OH2 7258   6.229   5.306   3.566
 2438TIP3    H1 7259   6.319   5.287   3.541
 2438TIP3    H2 7260   6.195   5.222   3.597
 2439TIP3   OH2 7261   7.435   2.445   5.572
 2439TIP3    H1 7262   7.380   2.471   5.497
 2439TIP3    H2 7263   7.471   2.360   5.547
 2440TIP3   OH2 7264   6.169   1.423   6.112
 2440TIP3    H1 7265   6.137   1.480   6.182
 2440TIP3    H2 7266   6.206   1.483   6.047
 2441TIP3   OH2 7267   3.183   1.167   2.754
 2441TIP3    H1 7268   3.272   1.176   2.790
 2441TIP3    H2 7269   3.144   1.254   2.765
 2442TIP3   OH2 7270   7.912   1.111   1.080
 2442TIP3    H1 7271   7.859   1.173   1.029
 2442TIP3    H2 7272   7.910   1.147   1.169
 2443TIP3   OH2 7273   3.611   2.297   4.824
 2443TIP3    H1 7274   3.643   2.251   4.901
 2443TIP3    H2 7275   3.526   2.333   4.850
 2444TIP3   OH2 7276   6.925   6.990   1.582
 2444TIP3    H1 7277   6.830   6.985   1.586
 2444TIP3    H2 7278   6.953   6.899   1.568
 2445TIP3   OH2 7279   5.924   6.567   2.668
 2445TIP3    H1 7280   5.961   6.522   2.592
 2445TIP3    H2 7281   5.835   6.533   2.675
 2446TIP3   OH2 7282   4.263   1.452   1.063
 2446TIP3    H1 7283   4.192   1.515   1.049
 2446TIP3    H2 7284   4.223   1.382   1.116
 2447TIP3   OH2 7285   1.319   2.902   6.307
 2447TIP3    H1 7286   1.284   2.817   6.280
 2447TIP3    H2 7287   1.376   2.929   6.235
 2448TIP3   OH2 7288   7.224   6.245   5.497
 2448TIP3    H1 7289   7.259   6.162   5.465
 2448TIP3    H2 7290   7.274   6.263   5.577
 2449TIP3   OH2 7291   6.699   0.410   0.830
 2449TIP3    H1 7292   6.749   0.350   0.885
 2449TIP3    H2 7293   6.646   0.354   0.774
 2450TIP3   OH2 7294   3.439   1.036   0.493
 2450TIP3    H1 7295   3.533   1.026   0.477
 2450TIP3    H2 7296   3.413   1.109   0.436
 2451TIP3   OH2 7297   4.937   1.845   1.593
 2451TIP3    H1 7298   4.898   1.803   1.670
 2451TIP3    H2 7299   4.976   1.773   1.544
 2452TIP3   OH2 7300   1.998   7.029   5.568
 2452TIP3    H1 7301   2.080   6.984   5.585
 2452TIP3    H2 7302   2.019   7.095   5.502
 2453TIP3   OH2 7303   5.270   4.775   1.496
 2453TIP3    H1 7304   5.202   4.829   1.537
 2453TIP3    H2 7305   5.259   4.689   1.535
 2454TIP3   OH2 7306   0.830   2.954   5.623
 2454TIP3    H1 7307   0.911   2.954   5.573
 2454TIP3    H2 7308   0.831   3.037   5.671
 2455TIP3   OH2 7309   3.769   1.989   1.411
 2455TIP3    H1 7310   3.790   2.039   1.333
 2455TIP3    H2 7311   3.854   1.970   1.452
 2456TIP3   OH2 7312   3.529   3.460   5.805
 2456TIP3    H1 7313   3.531   3.385   5.865
 2456TIP3    H2 7314   3.494   3.423   5.723
 2457TIP3   OH2 7315   3.751   2.988   0.972
 2457TIP3    H1 7316   3.791   2.944   1.047
 2457TIP3    H2 7317   3.810   2.969   0.899
 2458TIP3   OH2 7318   6.464   6.579   5.101
 2458TIP3    H1 7319   6.385   6.529   5.084
 2458TIP3    H2 7320   6.503   6.538   5.178
 2459TIP3   OH2 7321   7.416   4.495   1.304
 2459TIP3    H1 7322   7.367   4.577   1.315
 2459TIP3    H2 7323   7.430   4.489   1.209
 2460TIP3   OH2 7324   0.974   5.143   1.363
 2460TIP3    H1 7325   0.899   5.091   1.392
 2460TIP3    H2 7326   1.048   5.104   1.410
 2461TIP3   OH2 7327   1.749   3.623   3.295
 2461TIP3    H1 7328   1.724   3.534   3.270
 2461TIP3    H2 7329   1.683   3.678   3.252
 2462TIP3   OH2 7330   3.242   5.171   3.072
 2462TIP3    H1 7331   3.217   5.248   3.021
 2462TIP3    H2 7332   3.287   5.114   3.010
 2463TIP3   OH2 7333   3.503   1.955   1.353
 2463TIP3    H1 7334   3.597   1.977   1.349
 2463TIP3    H2 7335   3.462   2.035   1.387
 2464TIP3   OH2 7336   5.766   5.145   3.749
 2464TIP3    H1 7337   5.753   5.160   3.843
 2464TIP3    H2 7338   5.769   5.233   3.711
 2465TIP3   OH2 7339   6.181   6.953   1.634
 2465TIP3    H1 7340   6.211   7.036   1.598
 2465TIP3    H2 7341   6.189   6.891   1.561
 2466TIP3   OH2 7342   2.832   7.418   4.389
 2466TIP3    H1 7343   2.781   7.440   4.311
 2466TIP3    H2 7344   2.911   7.470   4.381
 2467TIP3   OH2 7345   8.266   3.373   6.108
 2467TIP3    H1 7346   8.231   3.411   6.027
 2467TIP3    H2 7347   8.253   3.279   6.098
 2468TIP3   OH2 7348   7.039   6.992   2.029
 2468TIP3    H1 7349   7.128   7.026   2.039
 2468TIP3    H2 7350   7.051   6.904   1.994
 2469TIP3   OH2 7351   3.215   3.558   0.412
 2469TIP3    H1 7352   3.240   3.647   0.388
 2469TIP3    H2 7353   3.236   3.552   0.505
 2470TIP3   OH2 7354   2.089   2.593   5.470
 2470TIP3    H1 7355   2.091   2.610   5.564
 2470TIP3    H2 7356   2.141   2.513   5.459
 2471TIP3   OH2 7357   4.050   0.801   5.331
 2471TIP3    H1 7358   3.989   0.823   5.260
 2471TIP3    H2 7359   4.137   0.815   5.294
 2472TIP3   OH2 7360   2.419   7.367   5.799
 2472TIP3    H1 7361   2.421   7.438   5.863
 2472TIP3    H2 7362   2.351   7.307   5.832
 2473TIP3   OH2 7363   1.890   0.430   2.443
 2473TIP3    H1 7364   1.800   0.461   2.435
 2473TIP3    H2 7365   1.882   0.338   2.467
 2474TIP3   OH2 7366   4.106   1.390   4.623
 2474TIP3    H1 7367   4.142   1.312   4.665
 2474TIP3    H2 7368   4.183   1.442   4.598
 2475TIP3   OH2 7369   2.022   7.040   6.187
 2475TIP3    H1 7370   1.990   7.005   6.271
 2475TIP3    H2 7371   2.106   6.997   6.174
 2476TIP3   OH2 7372   1.630   5.046   4.240
 2476TIP3    H1 7373   1.619   5.093   4.157
 2476TIP3    H2 7374   1.713   5.079   4.275
 2477TIP3   OH2 7375   1.125   5.951   3.750
 2477TIP3    H1 7376   1.191   6.021   3.753
 2477TIP3    H2 7377   1.041   5.997   3.762
 2478TIP3   OH2 7378   1.661   5.264   0.092
 2478TIP3    H1 7379   1.614   5.320   0.031
 2478TIP3    H2 7380   1.731   5.319   0.126
 2479TIP3   OH2 7381   4.844   4.922   4.187
 2479TIP3    H1 7382   4.931   4.924   4.225
 2479TIP3    H2 7383   4.859   4.920   4.092
 2480TIP3   OH2 7384   8.081   3.511   5.465
 2480TIP3    H1 7385   8.120   3.458   5.536
 2480TIP3    H2 7386   8.087   3.601   5.497
 2481TIP3   OH2 7387   2.774   2.625   3.423
 2481TIP3    H1 7388   2.679   2.633   3.416
 2481TIP3    H2 7389   2.791   2.630   3.517
 2482TIP3   OH2 7390   0.792   5.588   0.403
 2482TIP3    H1 7391   0.741   5.614   0.480
 2482TIP3    H2 7392   0.731   5.593   0.330
 2483TIP3   OH2 7393   5.883   3.646   2.726
 2483TIP3    H1 7394   5.907   3.678   2.813
 2483TIP3    H2 7395   5.812   3.583   2.742
 2484TIP3   OH2 7396   4.513   0.956   6.796
 2484TIP3    H1 7397   4.435   1.009   6.810
 2484TIP3    H2 7398   4.554   0.992   6.718
 2485TIP3   OH2 7399   6.035   0.448   0.307
 2485TIP3    H1 7400   5.941   0.441   0.291
 2485TIP3    H2 7401   6.075   0.448   0.220
 2486TIP3   OH2 7402   0.707   3.292   6.088
 2486TIP3    H1 7403   0.747   3.221   6.039
 2486TIP3    H2 7404   0.617   3.263   6.103
 2487TIP3   OH2 7405   5.404   1.471   3.361
 2487TIP3    H1 7406   5.384   1.484   3.454
 2487TIP3    H2 7407   5.331   1.512   3.315
 2488TIP3   OH2 7408   1.255   6.047   4.965
 2488TIP3    H1 7409   1.173   6.067   4.919
 2488TIP3    H2 7410   1.244   6.085   5.052
 2489TIP3   OH2 7411   3.285   3.086   4.477
 2489TIP3    H1 7412   3.230   3.153   4.519
 2489TIP3    H2 7413   3.332   3.045   4.550
 2490TIP3   OH2 7414   4.158   7.665   2.367
 2490TIP3    H1 7415   4.073   7.629   2.392
 2490TIP3    H2 7416   4.149   7.759   2.380
 2491TIP3   OH2 7417   2.515   2.111   0.636
 2491TIP3    H1 7418   2.498   2.180   0.701
 2491TIP3    H2 7419   2.487   2.149   0.553
 2492TIP3   OH2 7420   7.964   2.945   1.803
 2492TIP3    H1 7421   7.941   2.883   1.872
 2492TIP3    H2 7422   7.922   3.027   1.829
 2493TIP3   OH2 7423   0.196   3.042   4.754
 2493TIP3    H1 7424   0.219   3.059   4.662
 2493TIP3    H2 7425   0.268   3.082   4.803
 2494TIP3   OH2 7426   7.335   6.654   1.141
 2494TIP3    H1 7427   7.423   6.619   1.124
 2494TIP3    H2 7428   7.347   6.749   1.147
 2495TIP3   OH2 7429   1.108   6.474   1.872
 2495TIP3    H1 7430   1.078   6.488   1.782
 2495TIP3    H2 7431   1.143   6.385   1.873
 2496TIP3   OH2 7432   2.207   3.491   1.642
 2496TIP3    H1 7433   2.280   3.546   1.615
 2496TIP3    H2 7434   2.160   3.472   1.561
 2497TIP3   OH2 7435   8.073   7.476   1.639
 2497TIP3    H1 7436   8.062   7.397   1.692
 2497TIP3    H2 7437   8.132   7.450   1.569
 2498TIP3   OH2 7438   6.797   5.943   6.459
 2498TIP3    H1 7439   6.800   5.997   6.538
 2498TIP3    H2 7440   6.809   6.005   6.387
 2499TIP3   OH2 7441   0.509   0.041   6.097
 2499TIP3    H1 7442   0.462   0.022   6.179
 2499TIP3    H2 7443   0.601   0.034   6.120
 2500TIP3   OH2 7444   4.965   7.020   3.546
 2500TIP3    H1 7445   4.893   6.995   3.603
 2500TIP3    H2 7446   5.042   6.980   3.587
 2501TIP3   OH2 7447   8.118   7.741   3.609
 2501TIP3    H1 7448   8.048   7.689   3.571
 2501TIP3    H2 7449   8.110   7.827   3.567
 2502TIP3   OH2 7450   2.435   3.098   5.555
 2502TIP3    H1 7451   2.345   3.094   5.587
 2502TIP3    H2 7452   2.488   3.070   5.630
 2503TIP3   OH2 7453   6.967   3.026   3.008
 2503TIP3    H1 7454   6.872   3.031   3.000
 2503TIP3    H2 7455   6.990   3.101   3.063
 2504TIP3   OH2 7456   2.823   4.567   5.857
 2504TIP3    H1 7457   2.773   4.611   5.788
 2504TIP3    H2 7458   2.907   4.612   5.857
 2505TIP3   OH2 7459   0.322   3.569   2.276
 2505TIP3    H1 7460   0.338   3.573   2.181
 2505TIP3    H2 7461   0.378   3.637   2.313
 2506TIP3   OH2 7462   5.373   7.306   1.787
 2506TIP3    H1 7463   5.390   7.222   1.744
 2506TIP3    H2 7464   5.457   7.332   1.824
 2507TIP3   OH2 7465   2.648   1.842   1.758
 2507TIP3    H1 7466   2.599   1.877   1.683
 2507TIP3    H2 7467   2.730   1.810   1.720
 2508TIP3   OH2 7468   3.507   0.417   1.116
 2508TIP3    H1 7469   3.428   0.441   1.068
 2508TIP3    H2 7470   3.482   0.419   1.208
 2509TIP3   OH2 7471   5.398   5.916   0.932
 2509TIP3    H1 7472   5.380   5.904   1.025
 2509TIP3    H2 7473   5.491   5.937   0.928
 2510TIP3   OH2 7474   1.943   5.846   5.338
 2510TIP3    H1 7475   1.869   5.786   5.351
 2510TIP3    H2 7476   1.903   5.932   5.329
 2511TIP3   OH2 7477   5.929   5.457   0.786
 2511TIP3    H1 7478   5.872   5.416   0.851
 2511TIP3    H2 7479   5.993   5.389   0.763
 2512TIP3   OH2 7480   3.599   5.121   1.731
 2512TIP3    H1 7481   3.642   5.100   1.814
 2512TIP3    H2 7482   3.611   5.042   1.678
 2513TIP3   OH2 7483   1.237   6.247   3.544
 2513TIP3    H1 7484   1.262   6.196   3.467
 2513TIP3    H2 7485   1.173   6.310   3.512
 2514TIP3   OH2 7486   2.789   4.524   2.199
 2514TIP3    H1 7487   2.754   4.613   2.204
 2514TIP3    H2 7488   2.712   4.467   2.195
 2515TIP3   OH2 7489   4.827   4.394   4.175
 2515TIP3    H1 7490   4.886   4.433   4.110
 2515TIP3    H2 7491   4.824   4.458   4.246
 2516TIP3   OH2 7492   6.580   2.249   4.593
 2516TIP3    H1 7493   6.511   2.184   4.578
 2516TIP3    H2 7494   6.619   2.224   4.677
 2517TIP3   OH2 7495   2.007   6.216   4.385
 2517TIP3    H1 7496   2.086   6.260   4.415
 2517TIP3    H2 7497   1.987   6.256   4.300
 2518TIP3   OH2 7498   2.501   5.734   0.276
 2518TIP3    H1 7499   2.546   5.742   0.192
 2518TIP3    H2 7500   2.535   5.652   0.313
 2519TIP3   OH2 7501   6.058   4.512   5.629
 2519TIP3    H1 7502   6.115   4.457   5.576
 2519TIP3    H2 7503   6.063   4.598   5.588
 2520TIP3   OH2 7504   6.232   5.301   3.265
 2520TIP3    H1 7505   6.290   5.226   3.275
 2520TIP3    H2 7506   6.190   5.310   3.351
 2521TIP3   OH2 7507   6.276   3.152   0.536
 2521TIP3    H1 7508   6.241   3.200   0.460
 2521TIP3    H2 7509   6.367   3.180   0.542
 2522TIP3   OH2 7510   6.678   0.075   2.613
 2522TIP3    H1 7511   6.670   0.134   2.688
 2522TIP3    H2 7512   6.771   0.055   2.608
 2523TIP3   OH2 7513   2.907   6.456   0.405
 2523TIP3    H1 7514   2.846   6.466   0.332
 2523TIP3    H2 7515   2.967   6.530   0.397
 2524TIP3   OH2 7516   2.281   0.242   5.181
 2524TIP3    H1 7517   2.370   0.271   5.163
 2524TIP3    H2 7518   2.225   0.293   5.123
 2525TIP3   OH2 7519   4.062   6.692   3.124
 2525TIP3    H1 7520   4.082   6.684   3.217
 2525TIP3    H2 7521   3.968   6.704   3.120
 2526TIP3   OH2 7522   5.237   5.084   1.525
 2526TIP3    H1 7523   5.215   5.149   1.458
 2526TIP3    H2 7524   5.168   5.019   1.519
 2527TIP3   OH2 7525   0.642   1.424   4.009
 2527TIP3    H1 7526   0.626   1.425   3.915
 2527TIP3    H2 7527   0.680   1.339   4.026
 2528TIP3   OH2 7528   7.190   1.401   3.491
 2528TIP3    H1 7529   7.119   1.458   3.519
 2528TIP3    H2 7530   7.249   1.398   3.567
 2529TIP3   OH2 7531   0.280   4.656   6.086
 2529TIP3    H1 7532   0.347   4.722   6.070
 2529TIP3    H2 7533   0.289   4.594   6.014
 2530TIP3   OH2 7534   1.236   7.606   0.923
 2530TIP3    H1 7535   1.319   7.570   0.953
 2530TIP3    H2 7536   1.206   7.661   0.994
 2531TIP3   OH2 7537   5.624   0.717   1.863
 2531TIP3    H1 7538   5.686   0.746   1.930
 2531TIP3    H2 7539   5.559   0.666   1.911
 2532TIP3   OH2 7540   2.274   3.005   6.439
 2532TIP3    H1 7541   2.202   2.958   6.397
 2532TIP3    H2 7542   2.301   3.070   6.373
 2533TIP3   OH2 7543   4.719   4.857   1.227
 2533TIP3    H1 7544   4.698   4.810   1.146
 2533TIP3    H2 7545   4.656   4.930   1.228
 2534TIP3   OH2 7546   7.823   3.952   5.948
 2534TIP3    H1 7547   7.834   4.040   5.984
 2534TIP3    H2 7548   7.800   3.898   6.024
 2535TIP3   OH2 7549   1.212   4.593   0.239
 2535TIP3    H1 7550   1.144   4.655   0.266
 2535TIP3    H2 7551   1.271   4.589   0.314
 2536TIP3   OH2 7552   1.459   1.735   4.028
 2536TIP3    H1 7553   1.536   1.766   4.074
 2536TIP3    H2 7554   1.459   1.640   4.041
 2537TIP3   OH2 7555   8.208   4.657   4.096
 2537TIP3    H1 7556   8.113   4.648   4.093
 2537TIP3    H2 7557   8.241   4.573   4.066
 2538TIP3   OH2 7558   1.089   4.858   3.760
 2538TIP3    H1 7559   1.123   4.866   3.670
 2538TIP3    H2 7560   0.999   4.888   3.754
 2539TIP3   OH2 7561   2.793   5.906   0.149
 2539TIP3    H1 7562   2.774   5.964   0.075
 2539TIP3    H2 7563   2.765   5.819   0.119
 2540TIP3   OH2 7564   5.249   5.767   0.745
 2540TIP3    H1 7565   5.270   5.834   0.810
 2540TIP3    H2 7566   5.159   5.786   0.719
 2541TIP3   OH2 7567   6.757   2.659   6.362
 2541TIP3    H1 7568   6.795   2.614   6.438
 2541TIP3    H2 7569   6.802   2.621   6.287
 2542TIP3   OH2 7570   8.179   0.234   5.170
 2542TIP3    H1 7571   8.122   0.214   5.244
 2542TIP3    H2 7572   8.255   0.176   5.181
 2543TIP3   OH2 7573   4.665   0.287   1.669
 2543TIP3    H1 7574   4.589   0.247   1.627
 2543TIP3    H2 7575   4.631   0.370   1.703
 2544TIP3   OH2 7576   0.434   4.496   3.097
 2544TIP3    H1 7577   0.384   4.427   3.142
 2544TIP3    H2 7578   0.436   4.469   3.005
 2545TIP3   OH2 7579   2.920   7.481   3.090
 2545TIP3    H1 7580   2.977   7.462   3.015
 2545TIP3    H2 7581   2.869   7.557   3.062
 2546TIP3   OH2 7582   6.433   1.733   1.112
 2546TIP3    H1 7583   6.524   1.710   1.133
 2546TIP3    H2 7584   6.381   1.688   1.178
 2547TIP3   OH2 7585   5.179   2.370   1.794
 2547TIP3    H1 7586   5.155   2.278   1.811
 2547TIP3    H2 7587   5.113   2.421   1.842
 2548TIP3   OH2 7588   4.306   7.412   5.031
 2548TIP3    H1 7589   4.385   7.377   4.990
 2548TIP3    H2 7590   4.239   7.345   5.015
 2549TIP3   OH2 7591   3.513   4.851   2.703
 2549TIP3    H1 7592   3.454   4.778   2.717
 2549TIP3    H2 7593   3.481   4.894   2.624
 2550TIP3   OH2 7594   7.564   1.184   6.309
 2550TIP3    H1 7595   7.577   1.256   6.248
 2550TIP3    H2 7596   7.652   1.162   6.339
 2551TIP3   OH2 7597   4.695   4.947   4.861
 2551TIP3    H1 7598   4.641   4.954   4.940
 2551TIP3    H2 7599   4.643   4.989   4.792
 2552TIP3   OH2 7600   7.722   0.399   1.729
 2552TIP3    H1 7601   7.768   0.321   1.698
 2552TIP3    H2 7602   7.717   0.388   1.824
 2553TIP3   OH2 7603   7.548   1.732   4.597
 2553TIP3    H1 7604   7.565   1.822   4.624
 2553TIP3    H2 7605   7.549   1.682   4.679
 2554TIP3   OH2 7606   0.740   7.502   4.662
 2554TIP3    H1 7607   0.821   7.473   4.621
 2554TIP3    H2 7608   0.677   7.508   4.590
 2555TIP3   OH2 7609   6.866   1.514   4.592
 2555TIP3    H1 7610   6.941   1.502   4.535
 2555TIP3    H2 7611   6.793   1.534   4.533
 2556TIP3   OH2 7612   6.652   1.119   4.138
 2556TIP3    H1 7613   6.625   1.143   4.226
 2556TIP3    H2 7614   6.570   1.103   4.092
 2557TIP3   OH2 7615   1.363   1.516   2.756
 2557TIP3    H1 7616   1.304   1.446   2.783
 2557TIP3    H2 7617   1.369   1.574   2.832
 2558TIP3   OH2 7618   2.578   5.520   0.642
 2558TIP3    H1 7619   2.508   5.561   0.693
 2558TIP3    H2 7620   2.651   5.581   0.649
 2559TIP3   OH2 7621   6.863   1.032   3.301
 2559TIP3    H1 7622   6.813   0.961   3.262
 2559TIP3    H2 7623   6.855   1.105   3.239
 2560TIP3   OH2 7624   8.263   1.697   6.301
 2560TIP3    H1 7625   8.293   1.665   6.216
 2560TIP3    H2 7626   8.310   1.780   6.314
 2561TIP3   OH2 7627   3.914   5.634   2.942
 2561TIP3    H1 7628   3.951   5.698   3.003
 2561TIP3    H2 7629   3.933   5.670   2.855
 2562TIP3   OH2 7630   3.514   1.301   1.020
 2562TIP3    H1 7631   3.610   1.303   1.029
 2562TIP3    H2 7632   3.482   1.359   1.088
 2563TIP3   OH2 7633   1.998   5.159   5.338
 2563TIP3    H1 7634   2.016   5.252   5.323
 2563TIP3    H2 7635   2.060   5.113   5.282
 2564TIP3   OH2 7636   3.466   3.186   6.248
 2564TIP3    H1 7637   3.399   3.254   6.259
 2564TIP3    H2 7638   3.428   3.127   6.182
 2565TIP3   OH2 7639   2.874   4.221   1.793
 2565TIP3    H1 7640   2.963   4.185   1.796
 2565TIP3    H2 7641   2.835   4.194   1.876
 2566TIP3   OH2 7642   2.879   2.930   1.532
 2566TIP3    H1 7643   2.831   2.855   1.498
 2566TIP3    H2 7644   2.960   2.893   1.568
 2567TIP3   OH2 7645   6.546   7.419   4.471
 2567TIP3    H1 7646   6.523   7.413   4.564
 2567TIP3    H2 7647   6.575   7.509   4.458
 2568TIP3   OH2 7648   5.962   0.963   0.520
 2568TIP3    H1 7649   5.888   0.977   0.461
 2568TIP3    H2 7650   5.924   0.966   0.608
 2569TIP3   OH2 7651   5.542   2.856   0.116
 2569TIP3    H1 7652   5.538   2.883   0.207
 2569TIP3    H2 7653   5.614   2.907   0.079
 2570TIP3   OH2 7654   2.255   4.650   0.011
 2570TIP3    H1 7655   2.325   4.630  -0.051
 2570TIP3    H2 7656   2.297   4.706   0.077
 2571TIP3   OH2 7657   0.132   4.420   5.558
 2571TIP3    H1 7658   0.178   4.451   5.479
 2571TIP3    H2 7659   0.193   4.358   5.598
 2572TIP3   OH2 7660   3.125   1.743   0.807
 2572TIP3    H1 7661   3.037   1.762   0.776
 2572TIP3    H2 7662   3.164   1.691   0.737
 2573TIP3   OH2 7663   1.959   5.548   0.520
 2573TIP3    H1 7664   2.021   5.485   0.485
 2573TIP3    H2 7665   2.010   5.601   0.580
 2574TIP3   OH2 7666   5.864   5.007   0.673
 2574TIP3    H1 7667   5.799   4.986   0.740
 2574TIP3    H2 7668   5.813   5.026   0.595
 2575TIP3   OH2 7669   5.725   1.267   1.672
 2575TIP3    H1 7670   5.770   1.194   1.715
 2575TIP3    H2 7671   5.780   1.343   1.692
 2576TIP3   OH2 7672   0.260   2.861   6.465
 2576TIP3    H1 7673   0.278   2.771   6.494
 2576TIP3    H2 7674   0.290   2.915   6.538
 2577TIP3   OH2 7675   6.826   7.218   0.064
 2577TIP3    H1 7676   6.807   7.275   0.139
 2577TIP3    H2 7677   6.753   7.233   0.004
 2578TIP3   OH2 7678   4.580   2.936   5.315
 2578TIP3    H1 7679   4.497   2.943   5.269
 2578TIP3    H2 7680   4.560   2.884   5.393
 2579TIP3   OH2 7681   0.089   3.970   0.326
 2579TIP3    H1 7682   0.039   3.897   0.363
 2579TIP3    H2 7683   0.120   4.018   0.403
 2580TIP3   OH2 7684   5.971   6.821   5.634
 2580TIP3    H1 7685   5.972   6.770   5.715
 2580TIP3    H2 7686   5.987   6.756   5.565
 2581TIP3   OH2 7687   4.700   5.285   3.660
 2581TIP3    H1 7688   4.776   5.341   3.679
 2581TIP3    H2 7689   4.721   5.244   3.576
 2582TIP3   OH2 7690   0.497   6.960   0.011
 2582TIP3    H1 7691   0.488   6.890   0.077
 2582TIP3    H2 7692   0.591   6.969  -0.001
 2583TIP3   OH2 7693   6.076   2.352   0.898
 2583TIP3    H1 7694   6.147   2.345   0.834
 2583TIP3    H2 7695   6.042   2.441   0.885
 2584TIP3   OH2 7696   5.034   3.302   5.913
 2584TIP3    H1 7697   4.955   3.258   5.880
 2584TIP3    H2 7698   5.001   3.380   5.958
 2585TIP3   OH2 7699   1.302   6.167   2.339
 2585TIP3    H1 7700   1.263   6.119   2.267
 2585TIP3    H2 7701   1.272   6.121   2.418
 2586TIP3   OH2 7702   3.585   2.510   2.825
 2586TIP3    H1 7703   3.513   2.448   2.828
 2586TIP3    H2 7704   3.663   2.456   2.814
 2587TIP3   OH2 7705   7.636   5.036   1.625
 2587TIP3    H1 7706   7.603   4.954   1.661
 2587TIP3    H2 7707   7.691   5.009   1.550
 2588TIP3   OH2 7708   1.068   2.274   6.626
 2588TIP3    H1 7709   1.157   2.240   6.634
 2588TIP3    H2 7710   1.069   2.355   6.678
 2589TIP3   OH2 7711   8.090   6.842   6.189
 2589TIP3    H1 7712   8.038   6.766   6.213
 2589TIP3    H2 7713   8.157   6.848   6.257
 2590TIP3   OH2 7714   2.060   4.091   3.196
 2590TIP3    H1 7715   1.975   4.051   3.217
 2590TIP3    H2 7716   2.111   4.019   3.158
 2591TIP3   OH2 7717   1.990   3.311   0.979
 2591TIP3    H1 7718   1.950   3.375   1.039
 2591TIP3    H2 7719   2.032   3.364   0.912
 2592TIP3   OH2 7720   3.960   4.568   2.706
 2592TIP3    H1 7721   3.943   4.490   2.759
 2592TIP3    H2 7722   4.015   4.536   2.634
 2593TIP3   OH2 7723   4.491   4.075   2.231
 2593TIP3    H1 7724   4.477   4.058   2.324
 2593TIP3    H2 7725   4.404   4.071   2.192
 2594TIP3   OH2 7726   1.244   0.585   3.254
 2594TIP3    H1 7727   1.208   0.674   3.253
 2594TIP3    H2 7728   1.170   0.529   3.233
 2595TIP3   OH2 7729   3.774   5.433   5.045
 2595TIP3    H1 7730   3.788   5.407   5.136
 2595TIP3    H2 7731   3.688   5.475   5.045
 2596TIP3   OH2 7732   8.049   6.642   1.084
 2596TIP3    H1 7733   8.088   6.566   1.127
 2596TIP3    H2 7734   8.122   6.702   1.069
 2597TIP3   OH2 7735   6.793   7.196   2.075
 2597TIP3    H1 7736   6.862   7.262   2.070
 2597TIP3    H2 7737   6.836   7.119   2.110
 2598TIP3   OH2 7738   0.287   4.164   3.649
 2598TIP3    H1 7739   0.235   4.208   3.583
 2598TIP3    H2 7740   0.284   4.072   3.625
 2599TIP3   OH2 7741   4.456   6.942   4.917
 2599TIP3    H1 7742   4.513   6.906   4.985
 2599TIP3    H2 7743   4.478   6.893   4.838
 2600TIP3   OH2 7744   2.282   0.097   6.475
 2600TIP3    H1 7745   2.206   0.092   6.534
 2600TIP3    H2 7746   2.246   0.130   6.393
 2601TIP3   OH2 7747   1.389   7.398   5.943
 2601TIP3    H1 7748   1.347   7.334   6.000
 2601TIP3    H2 7749   1.466   7.353   5.909
 2602TIP3   OH2 7750   7.120   3.341   4.145
 2602TIP3    H1 7751   7.119   3.274   4.077
 2602TIP3    H2 7752   7.091   3.295   4.224
 2603TIP3   OH2 7753   3.793   6.556   2.858
 2603TIP3    H1 7754   3.774   6.599   2.941
 2603TIP3    H2 7755   3.767   6.465   2.870
 2604TIP3   OH2 7756   6.968   2.858   0.973
 2604TIP3    H1 7757   6.903   2.815   1.028
 2604TIP3    H2 7758   7.025   2.905   1.034
 2605TIP3   OH2 7759   5.326   7.404   4.682
 2605TIP3    H1 7760   5.397   7.391   4.619
 2605TIP3    H2 7761   5.291   7.491   4.662
 2606TIP3   OH2 7762   0.979   6.364   2.754
 2606TIP3    H1 7763   0.965   6.312   2.833
 2606TIP3    H2 7764   1.021   6.444   2.785
 2607TIP3   OH2 7765   0.564   3.035   2.667
 2607TIP3    H1 7766   0.652   3.070   2.650
 2607TIP3    H2 7767   0.573   2.989   2.751
 2608TIP3   OH2 7768   4.967   2.284   4.682
 2608TIP3    H1 7769   4.936   2.290   4.772
 2608TIP3    H2 7770   5.055   2.247   4.690
 2609TIP3   OH2 7771   4.935   6.839   2.016
 2609TIP3    H1 7772   4.841   6.853   2.006
 2609TIP3    H2 7773   4.943   6.782   2.092
 2610TIP3   OH2 7774   4.991   5.869   0.621
 2610TIP3    H1 7775   4.909   5.889   0.575
 2610TIP3    H2 7776   4.991   5.773   0.628
 2611TIP3   OH2 7777   7.550   1.865   5.904
 2611TIP3    H1 7778   7.605   1.873   5.982
 2611TIP3    H2 7779   7.481   1.930   5.916
 2612TIP3   OH2 7780   3.412   0.018   2.246
 2612TIP3    H1 7781   3.418  -0.025   2.160
 2612TIP3    H2 7782   3.327  -0.008   2.280
 2613TIP3   OH2 7783   2.969   6.260   2.931
 2613TIP3    H1 7784   3.004   6.325   2.993
 2613TIP3    H2 7785   2.949   6.183   2.985
 2614TIP3   OH2 7786   5.797   1.695   5.048
 2614TIP3    H1 7787   5.740   1.772   5.053
 2614TIP3    H2 7788   5.871   1.724   4.994
 2615TIP3   OH2 7789   1.221   6.714   4.446
 2615TIP3    H1 7790   1.283   6.765   4.394
 2615TIP3    H2 7791   1.276   6.667   4.509
 2616TIP3   OH2 7792   3.015   4.444   5.686
 2616TIP3    H1 7793   3.097   4.399   5.664
 2616TIP3    H2 7794   2.949   4.375   5.684
 2617TIP3   OH2 7795   2.640   5.766   1.964
 2617TIP3    H1 7796   2.601   5.851   1.983
 2617TIP3    H2 7797   2.600   5.739   1.881
 2618TIP3   OH2 7798   2.167   4.715   6.648
 2618TIP3    H1 7799   2.075   4.703   6.625
 2618TIP3    H2 7800   2.199   4.627   6.665
 2619TIP3   OH2 7801   7.573   6.443   1.034
 2619TIP3    H1 7802   7.584   6.420   1.127
 2619TIP3    H2 7803   7.662   6.465   1.004
 2620TIP3   OH2 7804   4.912   2.028   6.342
 2620TIP3    H1 7805   4.924   2.000   6.251
 2620TIP3    H2 7806   4.996   2.011   6.384
 2621TIP3   OH2 7807   7.785   6.493   4.887
 2621TIP3    H1 7808   7.813   6.423   4.945
 2621TIP3    H2 7809   7.737   6.449   4.817
 2622TIP3   OH2 7810   8.189   5.867   0.314
 2622TIP3    H1 7811   8.165   5.952   0.351
 2622TIP3    H2 7812   8.114   5.843   0.260
 2623TIP3   OH2 7813   0.780   2.989   6.297
 2623TIP3    H1 7814   0.850   2.967   6.358
 2623TIP3    H2 7815   0.702   2.996   6.353
 2624TIP3   OH2 7816   6.032   1.372   0.481
 2624TIP3    H1 7817   6.108   1.361   0.423
 2624TIP3    H2 7818   5.999   1.283   0.493
 2625TIP3   OH2 7819   1.550   6.146   4.184
 2625TIP3    H1 7820   1.463   6.123   4.217
 2625TIP3    H2 7821   1.534   6.208   4.113
 2626TIP3   OH2 7822   7.406   3.585   3.304
 2626TIP3    H1 7823   7.471   3.515   3.295
 2626TIP3    H2 7824   7.450   3.651   3.358
 2627TIP3   OH2 7825   4.919   7.616   1.652
 2627TIP3    H1 7826   4.824   7.623   1.663
 2627TIP3    H2 7827   4.933   7.525   1.627
 2628TIP3   OH2 7828   5.264   2.771   3.486
 2628TIP3    H1 7829   5.321   2.695   3.477
 2628TIP3    H2 7830   5.323   2.842   3.511
 2629TIP3   OH2 7831   1.233   2.455   5.435
 2629TIP3    H1 7832   1.277   2.502   5.364
 2629TIP3    H2 7833   1.294   2.387   5.461
 2630TIP3   OH2 7834   4.535   4.456   4.338
 2630TIP3    H1 7835   4.472   4.419   4.399
 2630TIP3    H2 7836   4.620   4.426   4.369
 2631TIP3   OH2 7837   0.722   4.375   1.061
 2631TIP3    H1 7838   0.771   4.318   1.119
 2631TIP3    H2 7839   0.728   4.333   0.975
 2632TIP3   OH2 7840   6.323   2.841   5.586
 2632TIP3    H1 7841   6.238   2.807   5.559
 2632TIP3    H2 7842   6.380   2.764   5.588
 2633TIP3   OH2 7843   1.260   0.305   6.154
 2633TIP3    H1 7844   1.257   0.260   6.069
 2633TIP3    H2 7845   1.315   0.382   6.139
 2634TIP3   OH2 7846   1.078   7.509   0.101
 2634TIP3    H1 7847   1.061   7.463   0.019
 2634TIP3    H2 7848   0.991   7.523   0.139
 2635TIP3   OH2 7849   2.497   6.768   3.756
 2635TIP3    H1 7850   2.483   6.706   3.828
 2635TIP3    H2 7851   2.476   6.718   3.678
 2636TIP3   OH2 7852   7.241   5.099   5.287
 2636TIP3    H1 7853   7.330   5.103   5.321
 2636TIP3    H2 7854   7.185   5.121   5.362
 2637TIP3   OH2 7855   1.896   0.391   1.281
 2637TIP3    H1 7856   1.936   0.353   1.359
 2637TIP3    H2 7857   1.882   0.316   1.223
 2638TIP3   OH2 7858   4.484   0.797   4.256
 2638TIP3    H1 7859   4.442   0.875   4.220
 2638TIP3    H2 7860   4.551   0.773   4.192
 2639TIP3   OH2 7861   3.888   2.381   6.675
 2639TIP3    H1 7862   3.848   2.467   6.686
 2639TIP3    H2 7863   3.946   2.371   6.751
 2640TIP3   OH2 7864   6.942   1.275   1.373
 2640TIP3    H1 7865   6.876   1.208   1.355
 2640TIP3    H2 7866   7.021   1.244   1.330
 2641TIP3   OH2 7867   0.296   6.686   0.261
 2641TIP3    H1 7868   0.388   6.707   0.245
 2641TIP3    H2 7869   0.265   6.756   0.318
 2642TIP3   OH2 7870   6.271   4.784   1.811
 2642TIP3    H1 7871   6.280   4.878   1.825
 2642TIP3    H2 7872   6.322   4.744   1.882
 2643TIP3   OH2 7873   0.913   6.635   0.549
 2643TIP3    H1 7874   0.989   6.577   0.539
 2643TIP3    H2 7875   0.911   6.655   0.642
 2644TIP3   OH2 7876   3.346   5.153   4.167
 2644TIP3    H1 7877   3.313   5.165   4.256
 2644TIP3    H2 7878   3.377   5.062   4.165
 2645TIP3   OH2 7879   5.105   2.997   5.007
 2645TIP3    H1 7880   5.057   2.921   4.975
 2645TIP3    H2 7881   5.040   3.068   5.009
 2646TIP3   OH2 7882   2.749   5.313   1.753
 2646TIP3    H1 7883   2.777   5.284   1.839
 2646TIP3    H2 7884   2.717   5.234   1.710
 2647TIP3   OH2 7885   0.726   7.135   5.318
 2647TIP3    H1 7886   0.676   7.065   5.359
 2647TIP3    H2 7887   0.796   7.154   5.380
 2648TIP3   OH2 7888   1.882   5.931   6.420
 2648TIP3    H1 7889   1.904   5.846   6.383
 2648TIP3    H2 7890   1.819   5.969   6.359
 2649TIP3   OH2 7891   0.155   7.202   5.077
 2649TIP3    H1 7892   0.083   7.230   5.133
 2649TIP3    H2 7893   0.173   7.112   5.104
 2650TIP3   OH2 7894   4.124   5.969   3.690
 2650TIP3    H1 7895   4.209   5.926   3.678
 2650TIP3    H2 7896   4.060   5.898   3.681
 2651TIP3   OH2 7897   1.099   2.058   2.423
 2651TIP3    H1 7898   1.131   1.981   2.471
 2651TIP3    H2 7899   1.179   2.099   2.389
 2652TIP3   OH2 7900   0.823   7.435   5.907
 2652TIP3    H1 7901   0.761   7.363   5.896
 2652TIP3    H2 7902   0.779   7.497   5.964
 2653TIP3   OH2 7903   2.953   4.182   5.406
 2653TIP3    H1 7904   2.905   4.235   5.470
 2653TIP3    H2 7905   2.950   4.093   5.442
 2654TIP3   OH2 7906   4.747   2.968   6.382
 2654TIP3    H1 7907   4.740   2.873   6.378
 2654TIP3    H2 7908   4.801   2.985   6.459
 2655TIP3   OH2 7909   6.644   1.403   6.278
 2655TIP3    H1 7910   6.688   1.454   6.210
 2655TIP3    H2 7911   6.644   1.461   6.354
 2656TIP3   OH2 7912   0.718   7.559   5.137
 2656TIP3    H1 7913   0.681   7.471   5.133
 2656TIP3    H2 7914   0.766   7.570   5.055
 2657TIP3   OH2 7915   1.472   7.252   0.739
 2657TIP3    H1 7916   1.457   7.341   0.770
 2657TIP3    H2 7917   1.567   7.247   0.727
 2658TIP3   OH2 7918   1.086   5.774   5.602
 2658TIP3    H1 7919   1.181   5.783   5.610
 2658TIP3    H2 7920   1.059   5.732   5.683
 2659TIP3   OH2 7921   5.843   6.886   2.602
 2659TIP3    H1 7922   5.816   6.813   2.658
 2659TIP3    H2 7923   5.923   6.854   2.559
 2660TIP3   OH2 7924   1.974   7.168   1.468
 2660TIP3    H1 7925   1.975   7.257   1.502
 2660TIP3    H2 7926   1.884   7.155   1.439
 2661TIP3   OH2 7927   3.281   4.470   5.282
 2661TIP3    H1 7928   3.251   4.509   5.364
 2661TIP3    H2 7929   3.315   4.543   5.231
 2662TIP3   OH2 7930   1.830   0.584   0.502
 2662TIP3    H1 7931   1.773   0.539   0.439
 2662TIP3    H2 7932   1.771   0.645   0.547
 2663TIP3   OH2 7933   1.319   4.345   2.524
 2663TIP3    H1 7934   1.270   4.278   2.476
 2663TIP3    H2 7935   1.264   4.366   2.599
 2664TIP3   OH2 7936   5.398   7.568   5.649
 2664TIP3    H1 7937   5.429   7.481   5.627
 2664TIP3    H2 7938   5.478   7.618   5.667
 2665TIP3   OH2 7939   4.127   2.302   5.702
 2665TIP3    H1 7940   4.132   2.387   5.659
 2665TIP3    H2 7941   4.076   2.247   5.642
 2666TIP3   OH2 7942   6.335   2.565   1.789
 2666TIP3    H1 7943   6.246   2.570   1.754
 2666TIP3    H2 7944   6.387   2.620   1.731
 2667TIP3   OH2 7945   8.136   4.373   0.408
 2667TIP3    H1 7946   8.188   4.294   0.420
 2667TIP3    H2 7947   8.183   4.424   0.342
 2668TIP3   OH2 7948   3.518   1.202   5.763
 2668TIP3    H1 7949   3.500   1.137   5.831
 2668TIP3    H2 7950   3.598   1.170   5.721
 2669TIP3   OH2 7951   5.280   3.262   3.904
 2669TIP3    H1 7952   5.266   3.222   3.818
 2669TIP3    H2 7953   5.311   3.190   3.959
 2670TIP3   OH2 7954   0.047   0.724   1.349
 2670TIP3    H1 7955   0.076   0.730   1.258
 2670TIP3    H2 7956  -0.034   0.672   1.345
 2671TIP3   OH2 7957   3.223   1.100   0.667
 2671TIP3    H1 7958   3.153   1.156   0.633
 2671TIP3    H2 7959   3.293   1.108   0.602
 2672TIP3   OH2 7960   8.272   1.163   3.775
 2672TIP3    H1 7961   8.279   1.251   3.738
 2672TIP3    H2 7962   8.346   1.155   3.834
 2673TIP3   OH2 7963   0.392   2.503   6.294
 2673TIP3    H1 7964   0.424   2.562   6.362
 2673TIP3    H2 7965   0.331   2.556   6.243
 2674TIP3   OH2 7966   6.749   6.231   2.972
 2674TIP3    H1 7967   6.666   6.237   3.019
 2674TIP3    H2 7968   6.792   6.315   2.989
 2675TIP3   OH2 7969   5.678   2.990   4.474
 2675TIP3    H1 7970   5.592   2.958   4.500
 2675TIP3    H2 7971   5.667   3.084   4.463
 2676TIP3   OH2 7972   8.306   0.489   2.089
 2676TIP3    H1 7973   8.238   0.513   2.026
 2676TIP3    H2 7974   8.320   0.568   2.141
 2677TIP3   OH2 7975   7.425   0.112   2.139
 2677TIP3    H1 7976   7.514   0.079   2.142
 2677TIP3    H2 7977   7.370   0.034   2.130
 2678TIP3   OH2 7978   4.786   3.681   0.593
 2678TIP3    H1 7979   4.807   3.625   0.668
 2678TIP3    H2 7980   4.723   3.630   0.542
 2679TIP3   OH2 7981   7.549   7.519   0.689
 2679TIP3    H1 7982   7.581   7.597   0.733
 2679TIP3    H2 7983   7.628   7.479   0.651
 2680TIP3   OH2 7984   6.508   2.222   5.251
 2680TIP3    H1 7985   6.594   2.198   5.218
 2680TIP3    H2 7986   6.526   2.272   5.331
 2681TIP3   OH2 7987   4.737   5.655   0.583
 2681TIP3    H1 7988   4.643   5.638   0.582
 2681TIP3    H2 7989   4.758   5.667   0.676
 2682TIP3   OH2 7990   4.166   7.361   0.300
 2682TIP3    H1 7991   4.149   7.317   0.217
 2682TIP3    H2 7992   4.249   7.408   0.287
 2683TIP3   OH2 7993   5.651   3.773   6.313
 2683TIP3    H1 7994   5.675   3.694   6.264
 2683TIP3    H2 7995   5.594   3.742   6.383
 2684TIP3   OH2 7996   6.787   5.192   5.166
 2684TIP3    H1 7997   6.749   5.190   5.078
 2684TIP3    H2 7998   6.882   5.185   5.151
 2685TIP3   OH2 7999   6.688   5.724   5.047
 2685TIP3    H1 8000   6.681   5.738   4.953
 2685TIP3    H2 8001   6.670   5.631   5.060
 2686TIP3   OH2 8002   1.548   5.942   2.308
 2686TIP3    H1 8003   1.495   5.867   2.279
 2686TIP3    H2 8004   1.549   6.001   2.233
 2687TIP3   OH2 8005   1.307   4.172   3.215
 2687TIP3    H1 8006   1.314   4.127   3.131
 2687TIP3    H2 8007   1.397   4.196   3.237
 2688TIP3   OH2 8008   2.576   7.389   3.577
 2688TIP3    H1 8009   2.661   7.348   3.559
 2688TIP3    H2 8010   2.598   7.474   3.616
 2689TIP3   OH2 8011   1.490   6.113   6.261
 2689TIP3    H1 8012   1.408   6.091   6.215
 2689TIP3    H2 8013   1.474   6.200   6.297
 2690TIP3   OH2 8014   3.424   7.755   1.768
 2690TIP3    H1 8015   3.483   7.804   1.711
 2690TIP3    H2 8016   3.467   7.756   1.854
 2691TIP3   OH2 8017   4.841   2.122   2.123
 2691TIP3    H1 8018   4.864   2.154   2.210
 2691TIP3    H2 8019   4.757   2.163   2.104
 2692TIP3   OH2 8020   2.319   5.310   5.133
 2692TIP3    H1 8021   2.409   5.336   5.154
 2692TIP3    H2 8022   2.266   5.385   5.158
 2693TIP3   OH2 8023   7.876   7.146   4.268
 2693TIP3    H1 8024   7.807   7.204   4.236
 2693TIP3    H2 8025   7.895   7.089   4.194
 2694TIP3   OH2 8026   3.475   2.081   3.254
 2694TIP3    H1 8027   3.380   2.094   3.260
 2694TIP3    H2 8028   3.492   2.070   3.160
 2695TIP3   OH2 8029   7.271   0.708   5.687
 2695TIP3    H1 8030   7.211   0.709   5.761
 2695TIP3    H2 8031   7.274   0.616   5.660
 2696TIP3   OH2 8032   6.468   3.057   5.410
 2696TIP3    H1 8033   6.396   3.028   5.467
 2696TIP3    H2 8034   6.501   2.976   5.371
 2697TIP3   OH2 8035   4.374   7.179   1.764
 2697TIP3    H1 8036   4.386   7.188   1.670
 2697TIP3    H2 8037   4.443   7.235   1.802
 2698TIP3   OH2 8038   0.797   7.504   5.469
 2698TIP3    H1 8039   0.728   7.471   5.411
 2698TIP3    H2 8040   0.865   7.436   5.466
 2699TIP3   OH2 8041   1.798   5.651   6.664
 2699TIP3    H1 8042   1.816   5.745   6.672
 2699TIP3    H2 8043   1.762   5.626   6.748
 2700TIP3   OH2 8044   3.187   6.761   6.569
 2700TIP3    H1 8045   3.212   6.691   6.509
 2700TIP3    H2 8046   3.153   6.714   6.646
 2701TIP3   OH2 8047   2.514   2.529   6.213
 2701TIP3    H1 8048   2.483   2.618   6.193
 2701TIP3    H2 8049   2.543   2.533   6.304
 2702TIP3   OH2 8050   4.476   7.233   0.186
 2702TIP3    H1 8051   4.527   7.312   0.167
 2702TIP3    H2 8052   4.429   7.215   0.104
 2703TIP3   OH2 8053   2.056   3.006   3.061
 2703TIP3    H1 8054   1.984   3.004   2.998
 2703TIP3    H2 8055   2.028   3.070   3.127
 2704TIP3   OH2 8056   2.461   0.290   4.067
 2704TIP3    H1 8057   2.414   0.373   4.056
 2704TIP3    H2 8058   2.531   0.295   4.001
 2705TIP3   OH2 8059   3.992   0.542   0.984
 2705TIP3    H1 8060   3.937   0.472   1.020
 2705TIP3    H2 8061   4.049   0.567   1.057
 2706TIP3   OH2 8062   7.017   2.666   3.594
 2706TIP3    H1 8063   7.005   2.647   3.501
 2706TIP3    H2 8064   6.992   2.585   3.639
 2707TIP3   OH2 8065   0.680   7.280   0.161
 2707TIP3    H1 8066   0.712   7.195   0.190
 2707TIP3    H2 8067   0.691   7.279   0.066
 2708TIP3   OH2 8068   4.675   1.823   2.876
 2708TIP3    H1 8069   4.642   1.765   2.808
 2708TIP3    H2 8070   4.747   1.870   2.835
 2709TIP3   OH2 8071   7.934   4.633   4.937
 2709TIP3    H1 8072   7.894   4.697   4.879
 2709TIP3    H2 8073   7.971   4.685   5.008
 2710TIP3   OH2 8074   7.494   2.917   3.560
 2710TIP3    H1 8075   7.542   2.999   3.552
 2710TIP3    H2 8076   7.447   2.909   3.477
 2711TIP3   OH2 8077   3.592   0.032   3.476
 2711TIP3    H1 8078   3.521   0.096   3.485
 2711TIP3    H2 8079   3.672   0.084   3.489
 2712TIP3   OH2 8080   5.737   3.480   4.756
 2712TIP3    H1 8081   5.666   3.440   4.807
 2712TIP3    H2 8082   5.707   3.569   4.738
 2713TIP3   OH2 8083   5.917   3.883   3.545
 2713TIP3    H1 8084   5.867   3.810   3.582
 2713TIP3    H2 8085   5.930   3.858   3.453
 2714TIP3   OH2 8086   2.771   3.638   3.068
 2714TIP3    H1 8087   2.744   3.563   3.120
 2714TIP3    H2 8088   2.864   3.650   3.089
 2715TIP3   OH2 8089   4.067   4.001   6.408
 2715TIP3    H1 8090   3.992   3.953   6.372
 2715TIP3    H2 8091   4.089   4.065   6.340
 2716TIP3   OH2 8092   2.535   1.545   1.330
 2716TIP3    H1 8093   2.588   1.531   1.252
 2716TIP3    H2 8094   2.597   1.541   1.403
 2717TIP3   OH2 8095   2.138   6.959   0.278
 2717TIP3    H1 8096   2.067   7.022   0.269
 2717TIP3    H2 8097   2.208   7.008   0.321
 2718TIP3   OH2 8098   5.894   7.475   0.108
 2718TIP3    H1 8099   5.865   7.518   0.028
 2718TIP3    H2 8100   5.969   7.528   0.138
 2719TIP3   OH2 8101   2.030   2.767   2.859
 2719TIP3    H1 8102   1.990   2.853   2.875
 2719TIP3    H2 8103   2.009   2.747   2.767
 2720TIP3   OH2 8104   0.157   6.250   3.714
 2720TIP3    H1 8105   0.198   6.306   3.649
 2720TIP3    H2 8106   0.131   6.172   3.666
 2721TIP3   OH2 8107   0.720   3.808   5.315
 2721TIP3    H1 8108   0.762   3.893   5.306
 2721TIP3    H2 8109   0.673   3.795   5.232
 2722TIP3   OH2 8110   6.882   4.198   1.420
 2722TIP3    H1 8111   6.946   4.164   1.483
 2722TIP3    H2 8112   6.798   4.167   1.453
 2723TIP3   OH2 8113   4.123   0.647   6.576
 2723TIP3    H1 8114   4.111   0.600   6.493
 2723TIP3    H2 8115   4.200   0.702   6.562
 2724TIP3   OH2 8116   5.480   3.906   1.704
 2724TIP3    H1 8117   5.416   3.835   1.702
 2724TIP3    H2 8118   5.450   3.968   1.637
 2725TIP3   OH2 8119   5.357   1.918   4.642
 2725TIP3    H1 8120   5.380   1.938   4.732
 2725TIP3    H2 8121   5.427   1.958   4.590
 2726TIP3   OH2 8122   3.190   5.954   2.770
 2726TIP3    H1 8123   3.222   6.044   2.765
 2726TIP3    H2 8124   3.233   5.909   2.696
 2727TIP3   OH2 8125   4.314   4.502   5.813
 2727TIP3    H1 8126   4.358   4.543   5.888
 2727TIP3    H2 8127   4.307   4.572   5.749
 2728TIP3   OH2 8128   0.513   2.576   0.775
 2728TIP3    H1 8129   0.605   2.551   0.785
 2728TIP3    H2 8130   0.517   2.668   0.747
 2729TIP3   OH2 8131   5.436   2.953   4.194
 2729TIP3    H1 8132   5.408   3.016   4.261
 2729TIP3    H2 8133   5.381   2.876   4.208
 2730TIP3   OH2 8134   2.862   5.490   6.482
 2730TIP3    H1 8135   2.910   5.487   6.565
 2730TIP3    H2 8136   2.927   5.463   6.416
 2731TIP3   OH2 8137   1.353   2.534   0.564
 2731TIP3    H1 8138   1.291   2.598   0.600
 2731TIP3    H2 8139   1.387   2.576   0.485
 2732TIP3   OH2 8140   3.621   2.702   5.946
 2732TIP3    H1 8141   3.643   2.609   5.954
 2732TIP3    H2 8142   3.657   2.728   5.861
 2733TIP3   OH2 8143   4.928   0.112   2.745
 2733TIP3    H1 8144   4.889   0.194   2.776
 2733TIP3    H2 8145   4.975   0.078   2.821
 2734TIP3   OH2 8146   7.262   1.930   0.459
 2734TIP3    H1 8147   7.342   1.949   0.410
 2734TIP3    H2 8148   7.194   1.925   0.392
 2735TIP3   OH2 8149   3.486   0.757   0.791
 2735TIP3    H1 8150   3.517   0.762   0.881
 2735TIP3    H2 8151   3.565   0.745   0.738
 2736TIP3   OH2 8152   3.396   6.168   5.386
 2736TIP3    H1 8153   3.476   6.185   5.337
 2736TIP3    H2 8154   3.392   6.238   5.451
 2737TIP3   OH2 8155   4.358   4.402   5.500
 2737TIP3    H1 8156   4.390   4.489   5.523
 2737TIP3    H2 8157   4.270   4.416   5.466
 2738TIP3   OH2 8158   3.630   1.373   2.194
 2738TIP3    H1 8159   3.576   1.420   2.129
 2738TIP3    H2 8160   3.573   1.303   2.226
 2739TIP3   OH2 8161   3.506   7.179   2.768
 2739TIP3    H1 8162   3.575   7.188   2.703
 2739TIP3    H2 8163   3.502   7.085   2.786
 2740TIP3   OH2 8164   2.882   1.081   3.288
 2740TIP3    H1 8165   2.973   1.059   3.267
 2740TIP3    H2 8166   2.841   0.996   3.306
 2741TIP3   OH2 8167   5.399   1.644   0.376
 2741TIP3    H1 8168   5.335   1.576   0.397
 2741TIP3    H2 8169   5.477   1.619   0.424
 2742TIP3   OH2 8170   5.487   4.272   1.274
 2742TIP3    H1 8171   5.493   4.366   1.256
 2742TIP3    H2 8172   5.438   4.236   1.200
 2743TIP3   OH2 8173   2.299   3.374   5.386
 2743TIP3    H1 8174   2.249   3.426   5.324
 2743TIP3    H2 8175   2.272   3.284   5.368
 2744TIP3   OH2 8176   2.175   2.048   3.863
 2744TIP3    H1 8177   2.133   2.083   3.942
 2744TIP3    H2 8178   2.259   2.015   3.893
 2745TIP3   OH2 8179   2.345   0.833   2.023
 2745TIP3    H1 8180   2.291   0.763   2.058
 2745TIP3    H2 8181   2.434   0.808   2.045
 2746TIP3   OH2 8182   5.553   6.361   4.677
 2746TIP3    H1 8183   5.571   6.363   4.771
 2746TIP3    H2 8184   5.639   6.374   4.636
 2747TIP3   OH2 8185   2.228   5.901   5.902
 2747TIP3    H1 8186   2.140   5.931   5.924
 2747TIP3    H2 8187   2.223   5.878   5.809
 2748TIP3   OH2 8188   1.095   1.712   0.557
 2748TIP3    H1 8189   1.032   1.782   0.536
 2748TIP3    H2 8190   1.042   1.644   0.597
 2749TIP3   OH2 8191   1.131   3.033   1.139
 2749TIP3    H1 8192   1.220   3.009   1.112
 2749TIP3    H2 8193   1.077   3.014   1.062
 2750TIP3   OH2 8194   0.938   3.420   6.619
 2750TIP3    H1 8195   0.953   3.352   6.684
 2750TIP3    H2 8196   1.007   3.407   6.554
 2751TIP3   OH2 8197   5.431   7.312   2.362
 2751TIP3    H1 8198   5.494   7.380   2.339
 2751TIP3    H2 8199   5.420   7.261   2.281
 2752TIP3   OH2 8200   7.888   0.883   0.836
 2752TIP3    H1 8201   7.794   0.870   0.847
 2752TIP3    H2 8202   7.917   0.810   0.781
 2753TIP3   OH2 8203   0.928   2.424   2.142
 2753TIP3    H1 8204   0.881   2.389   2.217
 2753TIP3    H2 8205   0.860   2.437   2.075
 2754TIP3   OH2 8206   7.644   0.957   6.615
 2754TIP3    H1 8207   7.703   0.903   6.668
 2754TIP3    H2 8208   7.672   1.047   6.632
 2755TIP3   OH2 8209   5.494   6.121   4.911
 2755TIP3    H1 8210   5.480   6.199   4.857
 2755TIP3    H2 8211   5.584   6.096   4.893
 2756TIP3   OH2 8212   1.985   4.561   5.833
 2756TIP3    H1 8213   1.934   4.480   5.835
 2756TIP3    H2 8214   1.964   4.600   5.748
 2757TIP3   OH2 8215   0.714   7.741   0.975
 2757TIP3    H1 8216   0.700   7.802   0.903
 2757TIP3    H2 8217   0.758   7.793   1.042
 2758TIP3   OH2 8218   7.470   4.078   1.482
 2758TIP3    H1 8219   7.547   4.082   1.424
 2758TIP3    H2 8220   7.498   4.123   1.561
 2759TIP3   OH2 8221   3.409   5.681   4.401
 2759TIP3    H1 8222   3.427   5.589   4.418
 2759TIP3    H2 8223   3.398   5.721   4.487
 2760TIP3   OH2 8224   6.259   4.730   1.273
 2760TIP3    H1 8225   6.204   4.720   1.350
 2760TIP3    H2 8226   6.264   4.825   1.259
 2761TIP3   OH2 8227   3.933   7.613   2.531
 2761TIP3    H1 8228   3.872   7.566   2.588
 2761TIP3    H2 8229   3.976   7.675   2.588
 2762TIP3   OH2 8230   3.127   5.286   5.781
 2762TIP3    H1 8231   3.032   5.293   5.772
 2762TIP3    H2 8232   3.149   5.200   5.745
 2763TIP3   OH2 8233   4.147   2.404   0.865
 2763TIP3    H1 8234   4.233   2.406   0.823
 2763TIP3    H2 8235   4.118   2.313   0.855
 2764TIP3   OH2 8236   1.474   5.641   2.397
 2764TIP3    H1 8237   1.561   5.664   2.427
 2764TIP3    H2 8238   1.478   5.547   2.380
 2765TIP3   OH2 8239   6.568   3.462   6.602
 2765TIP3    H1 8240   6.502   3.415   6.550
 2765TIP3    H2 8241   6.651   3.439   6.561
 2766TIP3   OH2 8242   3.387   0.372   1.344
 2766TIP3    H1 8243   3.451   0.322   1.394
 2766TIP3    H2 8244   3.374   0.452   1.394
 2767TIP3   OH2 8245   5.371   2.740   3.078
 2767TIP3    H1 8246   5.429   2.754   3.152
 2767TIP3    H2 8247   5.334   2.826   3.059
 2768TIP3   OH2 8248   1.185   0.761   4.565
 2768TIP3    H1 8249   1.228   0.715   4.636
 2768TIP3    H2 8250   1.256   0.803   4.517
 2769TIP3   OH2 8251   0.824   5.899   3.528
 2769TIP3    H1 8252   0.745   5.878   3.578
 2769TIP3    H2 8253   0.845   5.988   3.554
 2770TIP3   OH2 8254   3.974   5.316   1.388
 2770TIP3    H1 8255   4.017   5.387   1.436
 2770TIP3    H2 8256   3.942   5.257   1.456
 2771TIP3   OH2 8257   8.002   4.224   0.084
 2771TIP3    H1 8258   8.061   4.268   0.023
 2771TIP3    H2 8259   7.926   4.202   0.030
 2772TIP3   OH2 8260   1.332   7.186   4.573
 2772TIP3    H1 8261   1.408   7.128   4.562
 2772TIP3    H2 8262   1.357   7.267   4.529
 2773TIP3   OH2 8263   3.618   0.375   0.571
 2773TIP3    H1 8264   3.659   0.315   0.509
 2773TIP3    H2 8265   3.562   0.431   0.518
 2774TIP3   OH2 8266   1.281   6.391   3.143
 2774TIP3    H1 8267   1.219   6.322   3.119
 2774TIP3    H2 8268   1.270   6.402   3.237
 2775TIP3   OH2 8269   5.720   5.710   2.587
 2775TIP3    H1 8270   5.658   5.642   2.613
 2775TIP3    H2 8271   5.772   5.726   2.665
 2776TIP3   OH2 8272   0.091   3.522   0.762
 2776TIP3    H1 8273   0.020   3.524   0.698
 2776TIP3    H2 8274   0.104   3.429   0.780
 2777TIP3   OH2 8275   4.284   4.335   5.183
 2777TIP3    H1 8276   4.312   4.246   5.201
 2777TIP3    H2 8277   4.344   4.390   5.235
 2778TIP3   OH2 8278   1.262   6.604   4.916
 2778TIP3    H1 8279   1.297   6.546   4.983
 2778TIP3    H2 8280   1.215   6.545   4.856
 2779TIP3   OH2 8281   0.103   5.977   2.829
 2779TIP3    H1 8282   0.056   5.900   2.860
 2779TIP3    H2 8283   0.062   5.998   2.745
 2780TIP3   OH2 8284   0.278   0.784   0.783
 2780TIP3    H1 8285   0.319   0.833   0.712
 2780TIP3    H2 8286   0.308   0.828   0.863
 2781TIP3   OH2 8287   3.472   1.509   5.399
 2781TIP3    H1 8288   3.414   1.434   5.414
 2781TIP3    H2 8289   3.464   1.528   5.305
 2782TIP3   OH2 8290   3.602   0.947   5.306
 2782TIP3    H1 8291   3.642   0.864   5.330
 2782TIP3    H2 8292   3.508   0.927   5.298
 2783TIP3   OH2 8293   2.723   6.085   2.267
 2783TIP3    H1 8294   2.761   6.031   2.335
 2783TIP3    H2 8295   2.656   6.137   2.312
 2784TIP3   OH2 8296   3.822   0.148   0.485
 2784TIP3    H1 8297   3.795   0.149   0.393
 2784TIP3    H2 8298   3.779   0.072   0.522
 2785TIP3   OH2 8299   1.543   7.325   1.880
 2785TIP3    H1 8300   1.616   7.377   1.845
 2785TIP3    H2 8301   1.464   7.371   1.849
 2786TIP3   OH2 8302   0.170   4.487   0.860
 2786TIP3    H1 8303   0.172   4.426   0.935
 2786TIP3    H2 8304   0.077   4.502   0.844
 2787TIP3   OH2 8305   7.541   3.405   2.102
 2787TIP3    H1 8306   7.628   3.436   2.079
 2787TIP3    H2 8307   7.543   3.311   2.084
 2788TIP3   OH2 8308   7.402   4.042   5.419
 2788TIP3    H1 8309   7.393   4.017   5.510
 2788TIP3    H2 8310   7.401   4.138   5.420
 2789TIP3   OH2 8311   4.001   4.313   5.592
 2789TIP3    H1 8312   4.026   4.398   5.555
 2789TIP3    H2 8313   4.053   4.249   5.544
 2790TIP3   OH2 8314   7.631   7.248   1.851
 2790TIP3    H1 8315   7.543   7.267   1.884
 2790TIP3    H2 8316   7.671   7.193   1.919
 2791TIP3   OH2 8317   3.149   1.563   4.705
 2791TIP3    H1 8318   3.165   1.488   4.648
 2791TIP3    H2 8319   3.087   1.618   4.657
 2792TIP3   OH2 8320   1.391   0.801   2.139
 2792TIP3    H1 8321   1.362   0.785   2.049
 2792TIP3    H2 8322   1.384   0.896   2.150
 2793TIP3   OH2 8323   3.202   2.361   3.931
 2793TIP3    H1 8324   3.239   2.363   3.842
 2793TIP3    H2 8325   3.275   2.335   3.987
 2794TIP3   OH2 8326   7.461   0.501   4.298
 2794TIP3    H1 8327   7.419   0.433   4.246
 2794TIP3    H2 8328   7.508   0.554   4.234
 2795TIP3   OH2 8329   4.072   5.332   2.702
 2795TIP3    H1 8330   4.102   5.263   2.642
 2795TIP3    H2 8331   3.977   5.321   2.706
 2796TIP3   OH2 8332   3.914   7.331   0.901
 2796TIP3    H1 8333   3.893   7.377   0.983
 2796TIP3    H2 8334   3.829   7.308   0.864
 2797TIP3   OH2 8335   1.553   5.928   5.899
 2797TIP3    H1 8336   1.463   5.930   5.931
 2797TIP3    H2 8337   1.546   5.890   5.811
 2798TIP3   OH2 8338   5.175   1.022   0.691
 2798TIP3    H1 8339   5.256   1.069   0.712
 2798TIP3    H2 8340   5.185   0.937   0.735
 2799TIP3   OH2 8341   7.682   2.587   0.369
 2799TIP3    H1 8342   7.634   2.566   0.289
 2799TIP3    H2 8343   7.635   2.662   0.407
 2800TIP3   OH2 8344   1.288   7.606   3.574
 2800TIP3    H1 8345   1.242   7.657   3.508
 2800TIP3    H2 8346   1.376   7.594   3.538
 2801TIP3   OH2 8347   3.551   2.248   0.183
 2801TIP3    H1 8348   3.543   2.308   0.109
 2801TIP3    H2 8349   3.604   2.296   0.247
 2802TIP3   OH2 8350   2.968   3.183   2.825
 2802TIP3    H1 8351   2.943   3.090   2.821
 2802TIP3    H2 8352   3.061   3.183   2.801
 2803TIP3   OH2 8353   0.954   0.952   4.865
 2803TIP3    H1 8354   0.994   1.033   4.897
 2803TIP3    H2 8355   0.873   0.982   4.823
 2804TIP3   OH2 8356   0.881   3.092   3.929
 2804TIP3    H1 8357   0.838   3.147   3.863
 2804TIP3    H2 8358   0.885   3.148   4.006
 2805TIP3   OH2 8359   7.332   5.533   0.583
 2805TIP3    H1 8360   7.389   5.466   0.545
 2805TIP3    H2 8361   7.252   5.529   0.531
 2806TIP3   OH2 8362   6.820   2.973   4.833
 2806TIP3    H1 8363   6.884   2.935   4.773
 2806TIP3    H2 8364   6.736   2.959   4.790
 2807TIP3   OH2 8365   1.959   4.261   4.050
 2807TIP3    H1 8366   1.874   4.259   4.094
 2807TIP3    H2 8367   2.021   4.235   4.117
 2808TIP3   OH2 8368   0.402   3.424   6.711
 2808TIP3    H1 8369   0.398   3.499   6.653
 2808TIP3    H2 8370   0.428   3.460   6.796
 2809TIP3   OH2 8371   0.243   5.062   3.875
 2809TIP3    H1 8372   0.156   5.032   3.901
 2809TIP3    H2 8373   0.253   5.148   3.917
 2810TIP3   OH2 8374   5.926   1.996   6.798
 2810TIP3    H1 8375   5.978   2.069   6.766
 2810TIP3    H2 8376   5.926   1.933   6.725
 2811TIP3   OH2 8377   3.138   1.654   3.600
 2811TIP3    H1 8378   3.069   1.655   3.666
 2811TIP3    H2 8379   3.203   1.716   3.632
 2812TIP3   OH2 8380   7.930   3.798   3.260
 2812TIP3    H1 8381   7.937   3.840   3.346
 2812TIP3    H2 8382   7.993   3.727   3.263
 2813TIP3   OH2 8383   2.389   7.080   1.720
 2813TIP3    H1 8384   2.335   7.126   1.784
 2813TIP3    H2 8385   2.341   7.088   1.638
 2814TIP3   OH2 8386   4.284   0.306   0.926
 2814TIP3    H1 8387   4.211   0.363   0.900
 2814TIP3    H2 8388   4.316   0.343   1.008
 2815TIP3   OH2 8389   3.921   0.668   6.761
 2815TIP3    H1 8390   3.965   0.658   6.677
 2815TIP3    H2 8391   3.973   0.733   6.808
 2816TIP3   OH2 8392   7.560   5.650   5.673
 2816TIP3    H1 8393   7.561   5.613   5.585
 2816TIP3    H2 8394   7.627   5.719   5.671
 2817TIP3   OH2 8395   2.656   6.954   4.180
 2817TIP3    H1 8396   2.681   6.932   4.090
 2817TIP3    H2 8397   2.737   6.988   4.219
 2818TIP3   OH2 8398   3.824   4.352   3.000
 2818TIP3    H1 8399   3.890   4.361   2.931
 2818TIP3    H2 8400   3.875   4.329   3.078
 2819TIP3   OH2 8401   0.061   6.087   1.613
 2819TIP3    H1 8402   0.087   6.029   1.542
 2819TIP3    H2 8403   0.141   6.133   1.638
 2820TIP3   OH2 8404   6.417   1.635   0.752
 2820TIP3    H1 8405   6.351   1.694   0.789
 2820TIP3    H2 8406   6.500   1.680   0.768
 2821TIP3   OH2 8407   0.694   2.991   0.947
 2821TIP3    H1 8408   0.710   3.058   1.014
 2821TIP3    H2 8409   0.728   2.910   0.985
 2822TIP3   OH2 8410   0.640   0.223   1.148
 2822TIP3    H1 8411   0.680   0.144   1.183
 2822TIP3    H2 8412   0.713   0.284   1.135
 2823TIP3   OH2 8413   5.951   2.384   4.643
 2823TIP3    H1 8414   5.880   2.320   4.640
 2823TIP3    H2 8415   5.906   2.467   4.660
 2824TIP3   OH2 8416   4.701   6.057   2.525
 2824TIP3    H1 8417   4.706   5.962   2.534
 2824TIP3    H2 8418   4.635   6.071   2.456
 2825TIP3   OH2 8419   7.769   7.507   6.657
 2825TIP3    H1 8420   7.698   7.522   6.595
 2825TIP3    H2 8421   7.772   7.587   6.710
 2826TIP3   OH2 8422   2.560   1.684   6.630
 2826TIP3    H1 8423   2.486   1.707   6.573
 2826TIP3    H2 8424   2.632   1.665   6.570
 2827TIP3   OH2 8425   7.238   5.940   4.961
 2827TIP3    H1 8426   7.288   5.990   4.897
 2827TIP3    H2 8427   7.148   5.973   4.953
 2828TIP3   OH2 8428   1.690   1.901   2.364
 2828TIP3    H1 8429   1.770   1.912   2.313
 2828TIP3    H2 8430   1.670   1.808   2.358
 2829TIP3   OH2 8431   1.469   2.750   5.442
 2829TIP3    H1 8432   1.514   2.750   5.357
 2829TIP3    H2 8433   1.376   2.745   5.419
 2830TIP3   OH2 8434   2.200   3.191   3.418
 2830TIP3    H1 8435   2.286   3.159   3.391
 2830TIP3    H2 8436   2.220   3.264   3.476
 2831TIP3   OH2 8437   5.517   1.752   2.816
 2831TIP3    H1 8438   5.571   1.812   2.867
 2831TIP3    H2 8439   5.440   1.737   2.870
 2832TIP3   OH2 8440   3.712   3.420   6.032
 2832TIP3    H1 8441   3.690   3.459   6.117
 2832TIP3    H2 8442   3.738   3.494   5.977
 2833TIP3   OH2 8443   3.883   2.720   2.564
 2833TIP3    H1 8444   3.793   2.691   2.553
 2833TIP3    H2 8445   3.886   2.756   2.653
 2834TIP3   OH2 8446   3.551   3.467   0.055
 2834TIP3    H1 8447   3.536   3.408  -0.019
 2834TIP3    H2 8448   3.463   3.490   0.086
 2835TIP3   OH2 8449   3.992   7.602   1.825
 2835TIP3    H1 8450   4.034   7.516   1.829
 2835TIP3    H2 8451   4.014   7.644   1.907
 2836TIP3   OH2 8452   1.374   7.806   4.318
 2836TIP3    H1 8453   1.406   7.735   4.262
 2836TIP3    H2 8454   1.450   7.831   4.371
 2837TIP3   OH2 8455   1.187   2.250   3.640
 2837TIP3    H1 8456   1.178   2.180   3.704
 2837TIP3    H2 8457   1.240   2.316   3.684
 2838TIP3   OH2 8458   4.552   5.095   1.222
 2838TIP3    H1 8459   4.506   5.131   1.146
 2838TIP3    H2 8460   4.613   5.164   1.248
 2839TIP3   OH2 8461   6.893   7.014   0.311
 2839TIP3    H1 8462   6.916   7.107   0.311
 2839TIP3    H2 8463   6.910   6.985   0.221
 2840TIP3   OH2 8464   0.566   0.210   5.501
 2840TIP3    H1 8465   0.656   0.209   5.467
 2840TIP3    H2 8466   0.544   0.118   5.513
 2841TIP3   OH2 8467   2.547   1.706   4.943
 2841TIP3    H1 8468   2.486   1.672   4.878
 2841TIP3    H2 8469   2.532   1.801   4.943
 2842TIP3   OH2 8470   0.870   5.406   6.018
 2842TIP3    H1 8471   0.907   5.443   6.099
 2842TIP3    H2 8472   0.816   5.333   6.048
 2843TIP3   OH2 8473   0.128   5.919   1.413
 2843TIP3    H1 8474   0.164   5.860   1.346
 2843TIP3    H2 8475   0.156   6.006   1.386
 2844TIP3   OH2 8476   4.941   2.421   6.122
 2844TIP3    H1 8477   4.872   2.371   6.166
 2844TIP3    H2 8478   4.967   2.365   6.048
 2845TIP3   OH2 8479   2.572   7.774   1.187
 2845TIP3    H1 8480   2.628   7.792   1.111
 2845TIP3    H2 8481   2.613   7.820   1.259
 2846TIP3   OH2 8482   4.550   7.226   3.312
 2846TIP3    H1 8483   4.554   7.211   3.406
 2846TIP3    H2 8484   4.639   7.207   3.281
 2847TIP3   OH2 8485   5.756   4.039   5.485
 2847TIP3    H1 8486   5.798   3.967   5.438
 2847TIP3    H2 8487   5.759   4.013   5.577
 2848TIP3   OH2 8488   4.384   0.934   1.477
 2848TIP3    H1 8489   4.293   0.956   1.498
 2848TIP3    H2 8490   4.396   0.967   1.388
 2849TIP3   OH2 8491   2.612   1.766   5.285
 2849TIP3    H1 8492   2.614   1.701   5.215
 2849TIP3    H2 8493   2.549   1.832   5.256
 2850TIP3   OH2 8494   1.110   3.601   1.444
 2850TIP3    H1 8495   1.152   3.534   1.499
 2850TIP3    H2 8496   1.051   3.551   1.387
 2851TIP3   OH2 8497   4.800   3.832   3.775
 2851TIP3    H1 8498   4.739   3.791   3.713
 2851TIP3    H2 8499   4.743   3.873   3.841
 2852TIP3   OH2 8500   5.620   1.155   4.572
 2852TIP3    H1 8501   5.634   1.105   4.492
 2852TIP3    H2 8502   5.618   1.090   4.642
 2853TIP3   OH2 8503   2.015   4.474   2.308
 2853TIP3    H1 8504   1.939   4.522   2.272
 2853TIP3    H2 8505   1.979   4.390   2.336
 2854TIP3   OH2 8506   6.695   2.469   3.802
 2854TIP3    H1 8507   6.602   2.491   3.799
 2854TIP3    H2 8508   6.717   2.446   3.712
 2855TIP3   OH2 8509   3.514   4.426   5.727
 2855TIP3    H1 8510   3.535   4.344   5.771
 2855TIP3    H2 8511   3.592   4.448   5.677
 2856TIP3   OH2 8512   0.675   7.718   2.011
 2856TIP3    H1 8513   0.609   7.683   1.950
 2856TIP3    H2 8514   0.757   7.715   1.962
 2857TIP3   OH2 8515   1.256   5.221   2.493
 2857TIP3    H1 8516   1.259   5.246   2.400
 2857TIP3    H2 8517   1.250   5.125   2.492
 2858TIP3   OH2 8518   4.134   1.489   5.203
 2858TIP3    H1 8519   4.216   1.438   5.195
 2858TIP3    H2 8520   4.070   1.425   5.234
 2859TIP3   OH2 8521   3.481   2.942   5.374
 2859TIP3    H1 8522   3.479   2.849   5.352
 2859TIP3    H2 8523   3.406   2.980   5.328
 2860TIP3   OH2 8524   3.965   3.379   5.278
 2860TIP3    H1 8525   4.044   3.422   5.311
 2860TIP3    H2 8526   3.898   3.398   5.344
 2861TIP3   OH2 8527   3.011   0.104   3.008
 2861TIP3    H1 8528   2.981   0.013   3.009
 2861TIP3    H2 8529   3.037   0.122   3.098
 2862TIP3   OH2 8530   3.952   7.366   5.402
 2862TIP3    H1 8531   3.941   7.273   5.386
 2862TIP3    H2 8532   3.993   7.371   5.489
 2863TIP3   OH2 8533   0.205   7.025   5.836
 2863TIP3    H1 8534   0.162   7.110   5.824
 2863TIP3    H2 8535   0.139   6.961   5.809
 2864TIP3   OH2 8536   5.349   5.522   0.644
 2864TIP3    H1 8537   5.259   5.523   0.674
 2864TIP3    H2 8538   5.376   5.614   0.644
 2865TIP3   OH2 8539   7.369   1.875   2.727
 2865TIP3    H1 8540   7.419   1.813   2.781
 2865TIP3    H2 8541   7.418   1.880   2.645
 2866TIP3   OH2 8542   5.316   6.345   1.035
 2866TIP3    H1 8543   5.381   6.361   0.967
 2866TIP3    H2 8544   5.247   6.294   0.991
 2867TIP3   OH2 8545   6.820   3.654   3.799
 2867TIP3    H1 8546   6.865   3.677   3.880
 2867TIP3    H2 8547   6.851   3.717   3.735
 2868TIP3   OH2 8548   7.514   7.482   3.128
 2868TIP3    H1 8549   7.471   7.415   3.075
 2868TIP3    H2 8550   7.450   7.553   3.133
 2869TIP3   OH2 8551   4.691   4.859   3.184
 2869TIP3    H1 8552   4.611   4.878   3.135
 2869TIP3    H2 8553   4.688   4.764   3.198
 2870TIP3   OH2 8554   2.842   3.248   3.335
 2870TIP3    H1 8555   2.774   3.310   3.360
 2870TIP3    H2 8556   2.891   3.293   3.266
 2871TIP3   OH2 8557   1.811   4.882   0.140
 2871TIP3    H1 8558   1.836   4.948   0.205
 2871TIP3    H2 8559   1.854   4.911   0.059
 2872TIP3   OH2 8560   0.185   2.534   0.570
 2872TIP3    H1 8561   0.241   2.557   0.496
 2872TIP3    H2 8562   0.228   2.459   0.611
 2873TIP3   OH2 8563   1.865   2.019   1.545
 2873TIP3    H1 8564   1.864   2.100   1.597
 2873TIP3    H2 8565   1.811   2.038   1.469
 2874TIP3   OH2 8566   2.770   7.740   4.382
 2874TIP3    H1 8567   2.699   7.720   4.442
 2874TIP3    H2 8568   2.835   7.786   4.436
 2875TIP3   OH2 8569   6.995   5.287   2.277
 2875TIP3    H1 8570   6.947   5.205   2.287
 2875TIP3    H2 8571   6.930   5.349   2.243
 2876TIP3   OH2 8572   2.989   0.505   5.926
 2876TIP3    H1 8573   2.985   0.447   5.850
 2876TIP3    H2 8574   3.068   0.479   5.973
 2877TIP3   OH2 8575   4.548   3.834   4.846
 2877TIP3    H1 8576   4.605   3.839   4.769
 2877TIP3    H2 8577   4.464   3.870   4.815
 2878TIP3   OH2 8578   8.289   0.800   5.011
 2878TIP3    H1 8579   8.323   0.775   5.097
 2878TIP3    H2 8580   8.258   0.718   4.972
 2879TIP3   OH2 8581   2.824   4.479   1.337
 2879TIP3    H1 8582   2.908   4.440   1.313
 2879TIP3    H2 8583   2.786   4.506   1.254
 2880TIP3   OH2 8584   2.339   2.366   4.227
 2880TIP3    H1 8585   2.415   2.352   4.283
 2880TIP3    H2 8586   2.374   2.372   4.138
 2881TIP3   OH2 8587   5.828   2.833   3.031
 2881TIP3    H1 8588   5.830   2.806   2.939
 2881TIP3    H2 8589   5.909   2.883   3.043
 2882TIP3   OH2 8590   8.276   4.279   3.168
 2882TIP3    H1 8591   8.235   4.254   3.251
 2882TIP3    H2 8592   8.211   4.332   3.123
 2883TIP3   OH2 8593   2.032   7.716   3.638
 2883TIP3    H1 8594   2.116   7.724   3.681
 2883TIP3    H2 8595   2.014   7.622   3.637
 2884TIP3   OH2 8596   3.301   5.831   3.247
 2884TIP3    H1 8597   3.300   5.917   3.205
 2884TIP3    H2 8598   3.227   5.834   3.308
 2885TIP3   OH2 8599   1.606   2.886   5.021
 2885TIP3    H1 8600   1.554   2.837   4.957
 2885TIP3    H2 8601   1.574   2.976   5.013
 2886TIP3   OH2 8602   2.690   4.818   2.861
 2886TIP3    H1 8603   2.624   4.884   2.879
 2886TIP3    H2 8604   2.679   4.797   2.768
 2887TIP3   OH2 8605   2.704   5.014   5.806
 2887TIP3    H1 8606   2.672   5.027   5.716
 2887TIP3    H2 8607   2.794   5.046   5.804
 2888TIP3   OH2 8608   2.083   0.178   2.858
 2888TIP3    H1 8609   2.123   0.093   2.841
 2888TIP3    H2 8610   2.140   0.241   2.814
 2889TIP3   OH2 8611   2.492   2.334   1.177
 2889TIP3    H1 8612   2.453   2.267   1.120
 2889TIP3    H2 8613   2.427   2.404   1.179
 2890TIP3   OH2 8614   4.567   0.252   6.746
 2890TIP3    H1 8615   4.572   0.205   6.830
 2890TIP3    H2 8616   4.507   0.200   6.693
 2891TIP3   OH2 8617   4.657   2.807   6.672
 2891TIP3    H1 8618   4.623   2.768   6.752
 2891TIP3    H2 8619   4.735   2.854   6.700
 2892TIP3   OH2 8620   3.900   0.097   1.381
 2892TIP3    H1 8621   3.827   0.114   1.440
 2892TIP3    H2 8622   3.862   0.048   1.308
 2893TIP3   OH2 8623   1.601   4.754   3.215
 2893TIP3    H1 8624   1.630   4.776   3.126
 2893TIP3    H2 8625   1.609   4.835   3.264
 2894TIP3   OH2 8626   4.941   4.920   0.654
 2894TIP3    H1 8627   4.951   4.859   0.727
 2894TIP3    H2 8628   4.889   4.992   0.689
 2895TIP3   OH2 8629   2.784   0.652   6.016
 2895TIP3    H1 8630   2.835   0.698   6.083
 2895TIP3    H2 8631   2.848   0.596   5.972
 2896TIP3   OH2 8632   7.853   6.765   4.421
 2896TIP3    H1 8633   7.791   6.739   4.353
 2896TIP3    H2 8634   7.801   6.766   4.501
 2897TIP3   OH2 8635   1.112   0.128   5.324
 2897TIP3    H1 8636   1.122   0.155   5.415
 2897TIP3    H2 8637   1.183   0.066   5.309
 2898TIP3   OH2 8638   6.966   2.451   2.362
 2898TIP3    H1 8639   6.898   2.481   2.422
 2898TIP3    H2 8640   6.951   2.502   2.282
 2899TIP3   OH2 8641   2.943   0.561   2.707
 2899TIP3    H1 8642   2.917   0.522   2.623
 2899TIP3    H2 8643   2.861   0.570   2.755
 2900TIP3   OH2 8644   4.036   7.244   4.949
 2900TIP3    H1 8645   3.996   7.175   5.003
 2900TIP3    H2 8646   4.108   7.200   4.904
 2901TIP3   OH2 8647   7.239   4.223   5.029
 2901TIP3    H1 8648   7.177   4.153   5.047
 2901TIP3    H2 8649   7.188   4.304   5.036
 2902TIP3   OH2 8650   5.388   0.790   3.420
 2902TIP3    H1 8651   5.328   0.725   3.454
 2902TIP3    H2 8652   5.442   0.816   3.495
 2903TIP3   OH2 8653   2.168  -0.021   1.050
 2903TIP3    H1 8654   2.095  -0.013   1.112
 2903TIP3    H2 8655   2.128  -0.006   0.964
 2904TIP3   OH2 8656   2.340   7.367   4.471
 2904TIP3    H1 8657   2.386   7.347   4.390
 2904TIP3    H2 8658   2.408   7.394   4.532
 2905TIP3   OH2 8659   1.185   1.907   5.741
 2905TIP3    H1 8660   1.259   1.847   5.730
 2905TIP3    H2 8661   1.192   1.937   5.832
 2906TIP3   OH2 8662   4.913   5.846   1.496
 2906TIP3    H1 8663   4.951   5.786   1.432
 2906TIP3    H2 8664   4.934   5.808   1.581
 2907TIP3   OH2 8665   0.048   5.207   1.283
 2907TIP3    H1 8666   0.092   5.124   1.264
 2907TIP3    H2 8667   0.095   5.272   1.231
 2908TIP3   OH2 8668   4.243   5.372   2.268
 2908TIP3    H1 8669   4.256   5.427   2.191
 2908TIP3    H2 8670   4.151   5.385   2.292
 2909TIP3   OH2 8671   5.520   4.831   0.146
 2909TIP3    H1 8672   5.473   4.871   0.073
 2909TIP3    H2 8673   5.521   4.899   0.214
 2910TIP3   OH2 8674   3.422   5.738   4.680
 2910TIP3    H1 8675   3.424   5.656   4.729
 2910TIP3    H2 8676   3.473   5.799   4.733
 2911TIP3   OH2 8677   7.865   5.478   1.605
 2911TIP3    H1 8678   7.888   5.556   1.555
 2911TIP3    H2 8679   7.770   5.485   1.618
 2912TIP3   OH2 8680   1.754   5.454   4.007
 2912TIP3    H1 8681   1.808   5.409   3.942
 2912TIP3    H2 8682   1.769   5.547   3.992
 2913TIP3   OH2 8683   0.096   7.308   3.585
 2913TIP3    H1 8684   0.069   7.219   3.608
 2913TIP3    H2 8685   0.130   7.345   3.667
 2914TIP3   OH2 8686   7.703   6.488   2.621
 2914TIP3    H1 8687   7.743   6.455   2.541
 2914TIP3    H2 8688   7.697   6.583   2.607
 2915TIP3   OH2 8689   1.436   3.458   2.533
 2915TIP3    H1 8690   1.358   3.475   2.586
 2915TIP3    H2 8691   1.431   3.364   2.513
 2916TIP3   OH2 8692   1.661   5.867   0.519
 2916TIP3    H1 8693   1.608   5.939   0.554
 2916TIP3    H2 8694   1.650   5.796   0.582
 2917TIP3   OH2 8695   5.116   3.677   5.803
 2917TIP3    H1 8696   5.051   3.722   5.747
 2917TIP3    H2 8697   5.170   3.627   5.741
 2918TIP3   OH2 8698   3.580   4.841   6.338
 2918TIP3    H1 8699   3.496   4.870   6.374
 2918TIP3    H2 8700   3.564   4.833   6.243
 2919TIP3   OH2 8701   1.457   1.578   6.333
 2919TIP3    H1 8702   1.408   1.654   6.302
 2919TIP3    H2 8703   1.451   1.515   6.262
 2920TIP3   OH2 8704   0.359   2.910   1.673
 2920TIP3    H1 8705   0.346   2.987   1.617
 2920TIP3    H2 8706   0.447   2.880   1.652
 2921TIP3   OH2 8707   4.758   2.267   3.481
 2921TIP3    H1 8708   4.725   2.273   3.391
 2921TIP3    H2 8709   4.770   2.358   3.508
 2922TIP3   OH2 8710   1.437   1.857   5.646
 2922TIP3    H1 8711   1.523   1.834   5.612
 2922TIP3    H2 8712   1.383   1.868   5.568
 2923TIP3   OH2 8713   0.263   3.683   0.341
 2923TIP3    H1 8714   0.286   3.590   0.338
 2923TIP3    H2 8715   0.220   3.694   0.426
 2924TIP3   OH2 8716   2.687   6.935   0.922
 2924TIP3    H1 8717   2.682   6.872   0.994
 2924TIP3    H2 8718   2.767   6.984   0.938
 2925TIP3   OH2 8719   2.035   6.028   6.076
 2925TIP3    H1 8720   2.048   6.096   6.010
 2925TIP3    H2 8721   1.943   6.004   6.068
 2926TIP3   OH2 8722   2.197   1.109   3.767
 2926TIP3    H1 8723   2.241   1.039   3.816
 2926TIP3    H2 8724   2.106   1.081   3.762
 2927TIP3   OH2 8725   5.055   1.303   3.624
 2927TIP3    H1 8726   4.989   1.369   3.601
 2927TIP3    H2 8727   5.125   1.353   3.667
 2928TIP3   OH2 8728   4.238   5.412   5.311
 2928TIP3    H1 8729   4.308   5.462   5.268
 2928TIP3    H2 8730   4.268   5.402   5.401
 2929TIP3   OH2 8731   2.338   2.279   2.999
 2929TIP3    H1 8732   2.364   2.224   2.925
 2929TIP3    H2 8733   2.417   2.327   3.023
 2930TIP3   OH2 8734   6.956   5.565   4.338
 2930TIP3    H1 8735   7.023   5.511   4.297
 2930TIP3    H2 8736   6.936   5.520   4.420
 2931TIP3   OH2 8737   0.595   3.879   0.596
 2931TIP3    H1 8738   0.509   3.881   0.639
 2931TIP3    H2 8739   0.608   3.786   0.576
 2932TIP3   OH2 8740   7.808   0.875   1.909
 2932TIP3    H1 8741   7.901   0.872   1.928
 2932TIP3    H2 8742   7.777   0.955   1.952
 2933TIP3   OH2 8743   7.135   4.428   0.280
 2933TIP3    H1 8744   7.063   4.405   0.222
 2933TIP3    H2 8745   7.138   4.524   0.279
 2934TIP3   OH2 8746   8.072   4.759   2.315
 2934TIP3    H1 8747   8.088   4.713   2.397
 2934TIP3    H2 8748   8.029   4.841   2.342
 2935TIP3   OH2 8749   0.051   7.167   5.499
 2935TIP3    H1 8750   0.026   7.122   5.579
 2935TIP3    H2 8751   0.144   7.149   5.488
 2936TIP3   OH2 8752   4.957   7.747   4.386
 2936TIP3    H1 8753   4.923   7.813   4.326
 2936TIP3    H2 8754   5.051   7.744   4.367
 2937TIP3   OH2 8755   1.395   4.742   4.650
 2937TIP3    H1 8756   1.463   4.723   4.585
 2937TIP3    H2 8757   1.334   4.668   4.643
 2938TIP3   OH2 8758   0.712   2.033   4.240
 2938TIP3    H1 8759   0.704   1.967   4.172
 2938TIP3    H2 8760   0.765   1.992   4.309
 2939TIP3   OH2 8761   1.123   3.945   5.297
 2939TIP3    H1 8762   1.118   3.983   5.385
 2939TIP3    H2 8763   1.102   3.852   5.310
 2940TIP3   OH2 8764   3.258   4.508   0.480
 2940TIP3    H1 8765   3.271   4.512   0.385
 2940TIP3    H2 8766   3.336   4.464   0.513
 2941TIP3   OH2 8767   1.123   6.349   2.490
 2941TIP3    H1 8768   1.128   6.371   2.583
 2941TIP3    H2 8769   1.214   6.348   2.461
 2942TIP3   OH2 8770   7.877   5.007   1.453
 2942TIP3    H1 8771   7.912   5.086   1.493
 2942TIP3    H2 8772   7.910   5.008   1.363
 2943TIP3   OH2 8773   7.225   5.409   1.698
 2943TIP3    H1 8774   7.191   5.498   1.711
 2943TIP3    H2 8775   7.154   5.363   1.653
 2944TIP3   OH2 8776   2.939   5.527   4.613
 2944TIP3    H1 8777   2.943   5.435   4.585
 2944TIP3    H2 8778   2.856   5.559   4.577
 2945TIP3   OH2 8779   3.765   1.639   0.213
 2945TIP3    H1 8780   3.719   1.601   0.288
 2945TIP3    H2 8781   3.777   1.731   0.237
 2946TIP3   OH2 8782   1.754   3.348   4.411
 2946TIP3    H1 8783   1.807   3.427   4.399
 2946TIP3    H2 8784   1.736   3.318   4.322
 2947TIP3   OH2 8785   0.680   4.823   3.937
 2947TIP3    H1 8786   0.752   4.874   3.974
 2947TIP3    H2 8787   0.717   4.736   3.923
 2948TIP3   OH2 8788   5.340   3.274   1.930
 2948TIP3    H1 8789   5.360   3.186   1.962
 2948TIP3    H2 8790   5.244   3.277   1.927
 2949TIP3   OH2 8791   4.990   6.055   3.166
 2949TIP3    H1 8792   4.922   5.991   3.145
 2949TIP3    H2 8793   5.067   6.002   3.187
 2950TIP3   OH2 8794   2.426   4.178   4.056
 2950TIP3    H1 8795   2.337   4.206   4.037
 2950TIP3    H2 8796   2.481   4.244   4.015
 2951TIP3   OH2 8797   3.133   0.671   6.500
 2951TIP3    H1 8798   3.109   0.584   6.530
 2951TIP3    H2 8799   3.083   0.731   6.557
 2952TIP3   OH2 8800   2.411   7.208   6.366
 2952TIP3    H1 8801   2.481   7.219   6.302
 2952TIP3    H2 8802   2.421   7.118   6.398
 2953TIP3   OH2 8803   2.989   6.091   3.487
 2953TIP3    H1 8804   3.007   6.005   3.447
 2953TIP3    H2 8805   2.894   6.100   3.483
 2954TIP3   OH2 8806   3.199   1.022   3.763
 2954TIP3    H1 8807   3.218   0.987   3.850
 2954TIP3    H2 8808   3.200   1.117   3.775
 2955TIP3   OH2 8809   5.488   1.323   1.537
 2955TIP3    H1 8810   5.425   1.274   1.590
 2955TIP3    H2 8811   5.574   1.297   1.571
 2956TIP3   OH2 8812   7.495   3.536   2.870
 2956TIP3    H1 8813   7.587   3.519   2.855
 2956TIP3    H2 8814   7.494   3.605   2.936
 2957TIP3   OH2 8815   5.579   0.046   6.352
 2957TIP3    H1 8816   5.564   0.019   6.443
 2957TIP3    H2 8817   5.613  -0.033   6.309
 2958TIP3   OH2 8818   0.297   2.753   1.379
 2958TIP3    H1 8819   0.321   2.762   1.287
 2958TIP3    H2 8820   0.378   2.774   1.427
 2959TIP3   OH2 8821   2.886   7.033   3.365
 2959TIP3    H1 8822   2.969   7.072   3.339
 2959TIP3    H2 8823   2.836   7.026   3.284
 2960TIP3   OH2 8824   4.283   3.586   0.799
 2960TIP3    H1 8825   4.248   3.675   0.807
 2960TIP3    H2 8826   4.241   3.550   0.721
 2961TIP3   OH2 8827   2.642   5.518   3.415
 2961TIP3    H1 8828   2.636   5.605   3.454
 2961TIP3    H2 8829   2.726   5.519   3.368
 2962TIP3   OH2 8830   7.716   3.707   1.983
 2962TIP3    H1 8831   7.683   3.788   2.022
 2962TIP3    H2 8832   7.785   3.736   1.924
 2963TIP3   OH2 8833   6.419   4.755   4.512
 2963TIP3    H1 8834   6.371   4.779   4.591
 2963TIP3    H2 8835   6.511   4.752   4.540
 2964TIP3   OH2 8836   5.578   6.713   5.633
 2964TIP3    H1 8837   5.579   6.679   5.722
 2964TIP3    H2 8838   5.490   6.750   5.622
 2965TIP3   OH2 8839   1.283   4.020   6.533
 2965TIP3    H1 8840   1.364   4.044   6.487
 2965TIP3    H2 8841   1.252   3.942   6.489
 2966TIP3   OH2 8842   1.232   1.263   6.240
 2966TIP3    H1 8843   1.147   1.307   6.228
 2966TIP3    H2 8844   1.275   1.271   6.155
 2967TIP3   OH2 8845   0.760   7.420   1.780
 2967TIP3    H1 8846   0.821   7.350   1.756
 2967TIP3    H2 8847   0.775   7.434   1.874
 2968TIP3   OH2 8848   2.238   3.411   0.053
 2968TIP3    H1 8849   2.144   3.425   0.047
 2968TIP3    H2 8850   2.266   3.392  -0.036
 2969TIP3   OH2 8851   1.111   3.312   0.180
 2969TIP3    H1 8852   1.080   3.256   0.109
 2969TIP3    H2 8853   1.074   3.398   0.161
 2970TIP3   OH2 8854   3.797   6.393   5.061
 2970TIP3    H1 8855   3.847   6.459   5.109
 2970TIP3    H2 8856   3.860   6.324   5.042
 2971TIP3   OH2 8857   1.280   7.273   1.122
 2971TIP3    H1 8858   1.268   7.217   1.200
 2971TIP3    H2 8859   1.192   7.281   1.085
 2972TIP3   OH2 8860   7.059   2.007   4.247
 2972TIP3    H1 8861   7.023   2.057   4.320
 2972TIP3    H2 8862   7.146   1.979   4.277
 2973TIP3   OH2 8863   3.358   1.371   6.461
 2973TIP3    H1 8864   3.317   1.373   6.547
 2973TIP3    H2 8865   3.331   1.454   6.420
 2974TIP3   OH2 8866   1.816   4.515   6.431
 2974TIP3    H1 8867   1.837   4.527   6.523
 2974TIP3    H2 8868   1.853   4.591   6.387
 2975TIP3   OH2 8869  -0.045   7.597   0.711
 2975TIP3    H1 8870   0.035   7.544   0.712
 2975TIP3    H2 8871  -0.016   7.686   0.691
 2976TIP3   OH2 8872   3.400   5.018   4.824
 2976TIP3    H1 8873   3.427   5.028   4.915
 2976TIP3    H2 8874   3.319   5.068   4.817
 2977TIP3   OH2 8875   6.817   6.876   2.160
 2977TIP3    H1 8876   6.858   6.936   2.222
 2977TIP3    H2 8877   6.878   6.874   2.085
 2978TIP3   OH2 8878   0.461   0.825   5.252
 2978TIP3    H1 8879   0.371   0.817   5.221
 2978TIP3    H2 8880   0.484   0.737   5.282
 2979TIP3   OH2 8881   6.273   5.988   3.517
 2979TIP3    H1 8882   6.363   5.979   3.484
 2979TIP3    H2 8883   6.283   6.010   3.609
 2980TIP3   OH2 8884   6.489   3.939   5.783
 2980TIP3    H1 8885   6.580   3.964   5.797
 2980TIP3    H2 8886   6.475   3.950   5.688
 2981TIP3   OH2 8887   3.987   4.516   0.245
 2981TIP3    H1 8888   3.943   4.601   0.256
 2981TIP3    H2 8889   3.949   4.479   0.166
 2982TIP3   OH2 8890   6.214   0.737   2.311
 2982TIP3    H1 8891   6.243   0.653   2.276
 2982TIP3    H2 8892   6.220   0.726   2.406
 2983TIP3   OH2 8893   5.933   3.089   2.534
 2983TIP3    H1 8894   5.982   3.077   2.615
 2983TIP3    H2 8895   5.989   3.052   2.466
 2984TIP3   OH2 8896   0.411   6.700   4.887
 2984TIP3    H1 8897   0.322   6.732   4.873
 2984TIP3    H2 8898   0.468   6.768   4.850
 2985TIP3   OH2 8899   7.900   2.089   3.419
 2985TIP3    H1 8900   7.940   2.056   3.499
 2985TIP3    H2 8901   7.875   2.010   3.371
 2986TIP3   OH2 8902   0.655   4.695   5.866
 2986TIP3    H1 8903   0.589   4.738   5.920
 2986TIP3    H2 8904   0.604   4.652   5.796
 2987TIP3   OH2 8905   4.122   3.377   5.582
 2987TIP3    H1 8906   4.108   3.470   5.563
 2987TIP3    H2 8907   4.038   3.346   5.614
 2988TIP3   OH2 8908   5.476   0.478   6.122
 2988TIP3    H1 8909   5.391   0.509   6.092
 2988TIP3    H2 8910   5.457   0.401   6.175
 2989TIP3   OH2 8911   8.339   0.268   3.055
 2989TIP3    H1 8912   8.258   0.294   3.098
 2989TIP3    H2 8913   8.332   0.305   2.967
 2990TIP3   OH2 8914   4.470   2.338   1.850
 2990TIP3    H1 8915   4.397   2.331   1.911
 2990TIP3    H2 8916   4.449   2.276   1.780
 2991TIP3   OH2 8917   5.485   6.417   2.228
 2991TIP3    H1 8918   5.543   6.433   2.303
 2991TIP3    H2 8919   5.445   6.332   2.246
 2992TIP3   OH2 8920   3.271   3.531   2.352
 2992TIP3    H1 8921   3.296   3.574   2.434
 2992TIP3    H2 8922   3.255   3.440   2.377
 2993TIP3   OH2 8923   3.602   0.375   0.859
 2993TIP3    H1 8924   3.586   0.425   0.939
 2993TIP3    H2 8925   3.570   0.431   0.788
 2994TIP3   OH2 8926   1.475   1.829   0.498
 2994TIP3    H1 8927   1.503   1.744   0.530
 2994TIP3    H2 8928   1.496   1.828   0.405
 2995TIP3   OH2 8929   1.116   2.024   1.584
 2995TIP3    H1 8930   1.133   1.996   1.674
 2995TIP3    H2 8931   1.104   2.119   1.591
 2996TIP3   OH2 8932   5.265   5.091   6.682
 2996TIP3    H1 8933   5.271   5.025   6.752
 2996TIP3    H2 8934   5.355   5.106   6.656
 2997TIP3   OH2 8935   5.333   1.219   5.237
 2997TIP3    H1 8936   5.271   1.167   5.185
 2997TIP3    H2 8937   5.389   1.261   5.172
 2998TIP3   OH2 8938   1.853   0.502   4.434
 2998TIP3    H1 8939   1.806   0.517   4.516
 2998TIP3    H2 8940   1.944   0.490   4.459
 2999TIP3   OH2 8941   0.082   6.584   4.036
 2999TIP3    H1 8942   0.114   6.675   4.037
 2999TIP3    H2 8943   0.011   6.583   4.101
 3000TIP3   OH2 8944   2.099   3.363   1.856
 3000TIP3    H1 8945   2.110   3.269   1.841
 3000TIP3    H2 8946   2.137   3.404   1.778
 3001TIP3   OH2 8947   1.312   5.108   4.328
 3001TIP3    H1 8948   1.240   5.156   4.288
 3001TIP3    H2 8949   1.284   5.091   4.418
 3002TIP3   OH2 8950   7.095   2.071   6.554
 3002TIP3    H1 8951   7.079   2.000   6.616
 3002TIP3    H2 8952   7.008   2.100   6.528
 3003TIP3   OH2 8953   1.491   7.061   1.840
 3003TIP3    H1 8954   1.496   7.045   1.934
 3003TIP3    H2 8955   1.524   7.150   1.829
 3004TIP3   OH2 8956   4.245   4.732   6.556
 3004TIP3    H1 8957   4.246   4.637   6.551
 3004TIP3    H2 8958   4.199   4.752   6.637
 3005TIP3   OH2 8959   1.419   2.079   1.563
 3005TIP3    H1 8960   1.326   2.055   1.558
 3005TIP3    H2 8961   1.420   2.174   1.550
 3006TIP3   OH2 8962   5.680   7.406   4.752
 3006TIP3    H1 8963   5.622   7.373   4.821
 3006TIP3    H2 8964   5.631   7.392   4.671
 3007TIP3   OH2 8965   8.282  -0.030   2.154
 3007TIP3    H1 8966   8.273   0.061   2.127
 3007TIP3    H2 8967   8.258  -0.030   2.247
 3008TIP3   OH2 8968   2.471   3.486   2.951
 3008TIP3    H1 8969   2.464   3.561   2.893
 3008TIP3    H2 8970   2.532   3.426   2.906
 3009TIP3   OH2 8971   3.493   5.102   5.491
 3009TIP3    H1 8972   3.587   5.101   5.474
 3009TIP3    H2 8973   3.466   5.192   5.470
 3010TIP3   OH2 8974   7.735   2.586   5.359
 3010TIP3    H1 8975   7.726   2.503   5.313
 3010TIP3    H2 8976   7.673   2.644   5.316
 3011TIP3   OH2 8977   1.275   1.168   5.419
 3011TIP3    H1 8978   1.322   1.101   5.469
 3011TIP3    H2 8979   1.306   1.157   5.329
 3012TIP3   OH2 8980   5.619   6.958   5.253
 3012TIP3    H1 8981   5.632   6.953   5.348
 3012TIP3    H2 8982   5.569   6.879   5.231
 3013TIP3   OH2 8983   1.949   3.860   0.646
 3013TIP3    H1 8984   1.880   3.809   0.603
 3013TIP3    H2 8985   1.968   3.811   0.726
 3014TIP3   OH2 8986   5.511   6.363   3.165
 3014TIP3    H1 8987   5.470   6.377   3.251
 3014TIP3    H2 8988   5.553   6.446   3.145
 3015TIP3   OH2 8989   3.769   3.451   2.263
 3015TIP3    H1 8990   3.742   3.364   2.292
 3015TIP3    H2 8991   3.715   3.469   2.186
 3016TIP3   OH2 8992   3.588   1.870   4.101
 3016TIP3    H1 8993   3.613   1.910   4.184
 3016TIP3    H2 8994   3.494   1.884   4.094
 3017TIP3   OH2 8995   2.912   4.759   3.198
 3017TIP3    H1 8996   2.963   4.678   3.203
 3017TIP3    H2 8997   2.934   4.807   3.278
 3018TIP3   OH2 8998   5.911   2.734   0.324
 3018TIP3    H1 8999   5.831   2.718   0.375
 3018TIP3    H2 9000   5.952   2.648   0.317
 3019TIP3   OH2 9001   6.457   5.823   0.601
 3019TIP3    H1 9002   6.455   5.830   0.506
 3019TIP3    H2 9003   6.539   5.864   0.627
 3020TIP3   OH2 9004   1.828   4.628   1.207
 3020TIP3    H1 9005   1.751   4.573   1.200
 3020TIP3    H2 9006   1.830   4.677   1.125
 3021TIP3   OH2 9007   0.649   0.368   4.240
 3021TIP3    H1 9008   0.574   0.409   4.197
 3021TIP3    H2 9009   0.706   0.442   4.263
 3022TIP3   OH2 9010   7.477   6.075   2.784
 3022TIP3    H1 9011   7.540   6.094   2.853
 3022TIP3    H2 9012   7.472   5.979   2.782
 3023TIP3   OH2 9013   6.034   5.670   1.233
 3023TIP3    H1 9014   6.064   5.622   1.155
 3023TIP3    H2 9015   5.939   5.656   1.234
 3024TIP3   OH2 9016   0.766   0.309   3.128
 3024TIP3    H1 9017   0.690   0.351   3.088
 3024TIP3    H2 9018   0.732   0.227   3.163
 3025TIP3   OH2 9019   2.463   3.567   5.248
 3025TIP3    H1 9020   2.454   3.660   5.227
 3025TIP3    H2 9021   2.457   3.563   5.343
 3026TIP3   OH2 9022   4.212   0.237   6.636
 3026TIP3    H1 9023   4.136   0.190   6.603
 3026TIP3    H2 9024   4.228   0.306   6.572
 3027TIP3   OH2 9025   6.929   3.127   0.667
 3027TIP3    H1 9026   7.014   3.153   0.703
 3027TIP3    H2 9027   6.897   3.205   0.622
 3028TIP3   OH2 9028   3.409   3.883   4.948
 3028TIP3    H1 9029   3.400   3.788   4.940
 3028TIP3    H2 9030   3.461   3.895   5.028
 3029TIP3   OH2 9031   6.526   1.532   6.716
 3029TIP3    H1 9032   6.439   1.492   6.711
 3029TIP3    H2 9033   6.526   1.580   6.799
 3030TIP3   OH2 9034   5.829   4.684   1.428
 3030TIP3    H1 9035   5.877   4.615   1.476
 3030TIP3    H2 9036   5.761   4.712   1.489
 3031TIP3   OH2 9037   6.827   2.655   2.491
 3031TIP3    H1 9038   6.893   2.678   2.557
 3031TIP3    H2 9039   6.865   2.685   2.409
 3032TIP3   OH2 9040   0.060   4.797   3.941
 3032TIP3    H1 9041   0.018   4.739   4.004
 3032TIP3    H2 9042   0.147   4.814   3.977
 3033TIP3   OH2 9043   4.851   4.473   5.128
 3033TIP3    H1 9044   4.946   4.480   5.120
 3033TIP3    H2 9045   4.835   4.470   5.222
 3034TIP3   OH2 9046   2.576   5.934   5.065
 3034TIP3    H1 9047   2.492   5.972   5.038
 3034TIP3    H2 9048   2.641   5.980   5.013
 3035TIP3   OH2 9049   3.887   2.527   3.977
 3035TIP3    H1 9050   3.888   2.623   3.976
 3035TIP3    H2 9051   3.825   2.503   3.908
 3036TIP3   OH2 9052   6.996   2.449   5.096
 3036TIP3    H1 9053   6.980   2.542   5.077
 3036TIP3    H2 9054   6.912   2.406   5.077
 3037TIP3   OH2 9055   7.498   2.198   0.579
 3037TIP3    H1 9056   7.564   2.263   0.603
 3037TIP3    H2 9057   7.483   2.148   0.659
 3038TIP3   OH2 9058   1.806   1.791   1.314
 3038TIP3    H1 9059   1.730   1.839   1.348
 3038TIP3    H2 9060   1.802   1.706   1.356
 3039TIP3   OH2 9061   1.231   1.215   1.530
 3039TIP3    H1 9062   1.253   1.136   1.579
 3039TIP3    H2 9063   1.179   1.184   1.455
 3040TIP3   OH2 9064   3.482   7.656   5.120
 3040TIP3    H1 9065   3.497   7.565   5.144
 3040TIP3    H2 9066   3.524   7.665   5.034
 3041TIP3   OH2 9067   3.265   3.543   0.673
 3041TIP3    H1 9068   3.215   3.566   0.751
 3041TIP3    H2 9069   3.351   3.582   0.688
 3042TIP3   OH2 9070   1.189   4.480   1.193
 3042TIP3    H1 9071   1.200   4.389   1.220
 3042TIP3    H2 9072   1.230   4.485   1.107
 3043TIP3   OH2 9073   7.431   5.623   2.410
 3043TIP3    H1 9074   7.350   5.620   2.462
 3043TIP3    H2 9075   7.491   5.677   2.463
 3044TIP3   OH2 9076   4.389   4.608   4.163
 3044TIP3    H1 9077   4.315   4.601   4.222
 3044TIP3    H2 9078   4.460   4.560   4.206
 3045TIP3   OH2 9079   1.025   6.982   0.535
 3045TIP3    H1 9080   1.021   7.074   0.562
 3045TIP3    H2 9081   0.936   6.949   0.550
 3046TIP3   OH2 9082   8.156   5.658   2.287
 3046TIP3    H1 9083   8.244   5.645   2.252
 3046TIP3    H2 9084   8.112   5.574   2.273
 3047TIP3   OH2 9085   6.561   2.851   5.248
 3047TIP3    H1 9086   6.615   2.796   5.190
 3047TIP3    H2 9087   6.536   2.925   5.194
 3048TIP3   OH2 9088   1.589   4.065   3.511
 3048TIP3    H1 9089   1.571   3.998   3.445
 3048TIP3    H2 9090   1.633   4.017   3.582
 3049TIP3   OH2 9091   2.637   0.583   4.909
 3049TIP3    H1 9092   2.702   0.518   4.934
 3049TIP3    H2 9093   2.621   0.633   4.989
 3050TIP3   OH2 9094   8.017   5.595   5.164
 3050TIP3    H1 9095   8.019   5.688   5.143
 3050TIP3    H2 9096   8.108   5.574   5.188
 3051TIP3   OH2 9097   2.853   5.691   4.235
 3051TIP3    H1 9098   2.940   5.653   4.246
 3051TIP3    H2 9099   2.870   5.780   4.203
 3052TIP3   OH2 9100   3.026   3.728   3.097
 3052TIP3    H1 9101   3.070   3.813   3.096
 3052TIP3    H2 9102   3.066   3.679   3.026
 3053TIP3   OH2 9103   4.173   1.226   5.591
 3053TIP3    H1 9104   4.231   1.151   5.606
 3053TIP3    H2 9105   4.100   1.190   5.541
 3054TIP3   OH2 9106   6.501   7.573   5.566
 3054TIP3    H1 9107   6.589   7.606   5.581
 3054TIP3    H2 9108   6.510   7.515   5.490
 3055TIP3   OH2 9109   4.012   0.963   3.237
 3055TIP3    H1 9110   3.967   1.013   3.305
 3055TIP3    H2 9111   4.104   0.962   3.264
 3056TIP3   OH2 9112   1.561   7.639   1.310
 3056TIP3    H1 9113   1.651   7.650   1.278
 3056TIP3    H2 9114   1.520   7.724   1.293
 3057TIP3   OH2 9115   5.960   4.553   4.032
 3057TIP3    H1 9116   5.961   4.648   4.023
 3057TIP3    H2 9117   5.998   4.521   3.950
 3058TIP3   OH2 9118   0.101   6.005   3.591
 3058TIP3    H1 9119   0.020   6.001   3.541
 3058TIP3    H2 9120   0.110   5.918   3.629
 3059TIP3   OH2 9121   5.014   4.055   4.902
 3059TIP3    H1 9122   5.027   3.980   4.845
 3059TIP3    H2 9123   5.083   4.049   4.967
 3060TIP3   OH2 9124   5.618   5.509   4.469
 3060TIP3    H1 9125   5.526   5.484   4.464
 3060TIP3    H2 9126   5.665   5.438   4.425
 3061TIP3   OH2 9127   1.960   2.555   6.185
 3061TIP3    H1 9128   2.033   2.503   6.150
 3061TIP3    H2 9129   1.887   2.538   6.125
 3062TIP3   OH2 9130   4.725   7.488   6.191
 3062TIP3    H1 9131   4.785   7.540   6.138
 3062TIP3    H2 9132   4.638   7.505   6.154
 3063TIP3   OH2 9133   7.799   3.471   3.564
 3063TIP3    H1 9134   7.779   3.407   3.633
 3063TIP3    H2 9135   7.811   3.418   3.485
 3064TIP3   OH2 9136   5.970   6.448   1.021
 3064TIP3    H1 9137   5.960   6.504   0.944
 3064TIP3    H2 9138   5.880   6.428   1.048
 3065TIP3   OH2 9139   2.637   4.069   5.211
 3065TIP3    H1 9140   2.675   4.020   5.284
 3065TIP3    H2 9141   2.592   4.143   5.252
 3066TIP3   OH2 9142   5.941   1.192   4.385
 3066TIP3    H1 9143   5.939   1.120   4.322
 3066TIP3    H2 9144   5.901   1.266   4.339
 3067TIP3   OH2 9145   1.912   1.989   2.220
 3067TIP3    H1 9146   1.969   2.058   2.254
 3067TIP3    H2 9147   1.884   2.021   2.134
 3068TIP3   OH2 9148   4.811   4.629   5.572
 3068TIP3    H1 9149   4.885   4.689   5.576
 3068TIP3    H2 9150   4.746   4.674   5.518
 3069TIP3   OH2 9151   5.826   0.001   1.122
 3069TIP3    H1 9152   5.774   0.079   1.144
 3069TIP3    H2 9153   5.901   0.005   1.181
 3070TIP3   OH2 9154   1.445   7.818   4.720
 3070TIP3    H1 9155   1.452   7.825   4.815
 3070TIP3    H2 9156   1.529   7.849   4.687
 3071TIP3   OH2 9157   0.564   1.958   2.067
 3071TIP3    H1 9158   0.536   1.987   2.154
 3071TIP3    H2 9159   0.531   1.868   2.061
 3072TIP3   OH2 9160   4.242   4.060   2.117
 3072TIP3    H1 9161   4.208   4.150   2.112
 3072TIP3    H2 9162   4.230   4.026   2.029
 3073TIP3   OH2 9163   7.409   1.582   1.292
 3073TIP3    H1 9164   7.358   1.514   1.248
 3073TIP3    H2 9165   7.451   1.630   1.221
 3074TIP3   OH2 9166   3.859   4.039   4.730
 3074TIP3    H1 9167   3.860   3.993   4.646
 3074TIP3    H2 9168   3.773   4.082   4.732
 3075TIP3   OH2 9169   3.201   5.124   5.580
 3075TIP3    H1 9170   3.189   5.082   5.495
 3075TIP3    H2 9171   3.262   5.196   5.562
 3076TIP3   OH2 9172   7.008   5.153   6.613
 3076TIP3    H1 9173   6.921   5.166   6.575
 3076TIP3    H2 9174   6.991   5.134   6.706
 3077TIP3   OH2 9175   6.769   2.258   2.004
 3077TIP3    H1 9176   6.684   2.301   1.990
 3077TIP3    H2 9177   6.817   2.318   2.060
 3078TIP3   OH2 9178   2.730   2.144   4.655
 3078TIP3    H1 9179   2.800   2.084   4.632
 3078TIP3    H2 9180   2.774   2.221   4.689
 3079TIP3   OH2 9181   6.807   7.192   3.788
 3079TIP3    H1 9182   6.779   7.280   3.814
 3079TIP3    H2 9183   6.728   7.139   3.798
 3080TIP3   OH2 9184   2.031   1.860   4.620
 3080TIP3    H1 9185   2.105   1.916   4.644
 3080TIP3    H2 9186   2.001   1.823   4.703
 3081TIP3   OH2 9187   5.332   5.623   6.444
 3081TIP3    H1 9188   5.424   5.599   6.446
 3081TIP3    H2 9189   5.325   5.685   6.370
 3082TIP3   OH2 9190   7.868   7.593   1.837
 3082TIP3    H1 9191   7.926   7.597   1.913
 3082TIP3    H2 9192   7.889   7.510   1.795
 3083TIP3   OH2 9193   4.138   7.121   3.426
 3083TIP3    H1 9194   4.193   7.154   3.355
 3083TIP3    H2 9195   4.048   7.143   3.399
 3084TIP3   OH2 9196   0.788   7.482   0.976
 3084TIP3    H1 9197   0.799   7.472   1.071
 3084TIP3    H2 9198   0.778   7.576   0.963
 3085TIP3   OH2 9199   6.230   1.239   2.263
 3085TIP3    H1 9200   6.184   1.269   2.185
 3085TIP3    H2 9201   6.209   1.146   2.268
 3086TIP3   OH2 9202   0.743   3.622   6.550
 3086TIP3    H1 9203   0.647   3.613   6.546
 3086TIP3    H2 9204   0.773   3.539   6.585
 3087TIP3   OH2 9205   2.711   7.602   5.507
 3087TIP3    H1 9206   2.696   7.630   5.597
 3087TIP3    H2 9207   2.700   7.507   5.510
 3088TIP3   OH2 9208   0.347   4.321   1.114
 3088TIP3    H1 9209   0.277   4.264   1.083
 3088TIP3    H2 9210   0.428   4.273   1.095
 3089TIP3   OH2 9211   7.346   6.832   0.782
 3089TIP3    H1 9212   7.384   6.917   0.804
 3089TIP3    H2 9213   7.422   6.773   0.775
 3090TIP3   OH2 9214   2.233   2.105   5.070
 3090TIP3    H1 9215   2.274   2.040   5.127
 3090TIP3    H2 9216   2.297   2.176   5.065
 3091TIP3   OH2 9217   2.949   4.343   5.963
 3091TIP3    H1 9218   2.920   4.430   5.938
 3091TIP3    H2 9219   3.032   4.331   5.917
 3092TIP3   OH2 9220   1.667   2.121   3.607
 3092TIP3    H1 9221   1.641   2.077   3.688
 3092TIP3    H2 9222   1.716   2.198   3.636
 3093TIP3   OH2 9223   4.900   0.082   2.023
 3093TIP3    H1 9224   4.955   0.141   2.074
 3093TIP3    H2 9225   4.962   0.025   1.977
 3094TIP3   OH2 9226   6.513   0.255   3.696
 3094TIP3    H1 9227   6.478   0.305   3.622
 3094TIP3    H2 9228   6.529   0.321   3.763
 3095TIP3   OH2 9229   1.762   0.934   2.393
 3095TIP3    H1 9230   1.775   0.989   2.471
 3095TIP3    H2 9231   1.798   0.986   2.321
 3096TIP3   OH2 9232   7.727   7.695   1.623
 3096TIP3    H1 9233   7.780   7.681   1.701
 3096TIP3    H2 9234   7.645   7.648   1.641
 3097TIP3   OH2 9235   7.114   2.379   3.436
 3097TIP3    H1 9236   7.039   2.435   3.416
 3097TIP3    H2 9237   7.179   2.402   3.370
 3098TIP3   OH2 9238   2.173   7.786   3.359
 3098TIP3    H1 9239   2.216   7.768   3.443
 3098TIP3    H2 9240   2.241   7.772   3.293
 3099TIP3   OH2 9241   6.525   2.476   6.491
 3099TIP3    H1 9242   6.430   2.472   6.477
 3099TIP3    H2 9243   6.563   2.454   6.406
 3100TIP3   OH2 9244   4.104   1.139   2.885
 3100TIP3    H1 9245   4.192   1.114   2.860
 3100TIP3    H2 9246   4.071   1.065   2.935
 3101TIP3   OH2 9247   3.232   1.627   1.012
 3101TIP3    H1 9248   3.247   1.685   1.087
 3101TIP3    H2 9249   3.203   1.685   0.942
 3102TIP3   OH2 9250   8.068   5.778   3.159
 3102TIP3    H1 9251   8.147   5.826   3.186
 3102TIP3    H2 9252   7.997   5.822   3.206
 3103TIP3   OH2 9253   2.043   1.929   6.426
 3103TIP3    H1 9254   2.060   1.984   6.502
 3103TIP3    H2 9255   2.051   1.989   6.352
 3104TIP3   OH2 9256   6.338   4.211   4.257
 3104TIP3    H1 9257   6.385   4.181   4.334
 3104TIP3    H2 9258   6.270   4.269   4.290
 3105TIP3   OH2 9259   8.023   5.968   5.617
 3105TIP3    H1 9260   8.047   5.956   5.709
 3105TIP3    H2 9261   8.083   5.911   5.569
 3106TIP3   OH2 9262   7.977   0.221   1.627
 3106TIP3    H1 9263   7.948   0.292   1.569
 3106TIP3    H2 9264   7.930   0.144   1.596
 3107TIP3   OH2 9265   7.287   2.001   1.296
 3107TIP3    H1 9266   7.315   1.930   1.353
 3107TIP3    H2 9267   7.341   2.076   1.323
 3108TIP3   OH2 9268   6.210   6.030   0.988
 3108TIP3    H1 9269   6.166   6.097   0.935
 3108TIP3    H2 9270   6.264   6.081   1.049
 3109TIP3   OH2 9271   4.029   4.870   6.058
 3109TIP3    H1 9272   4.039   4.813   6.134
 3109TIP3    H2 9273   4.110   4.859   6.009
 3110TIP3   OH2 9274   4.083   5.417   3.586
 3110TIP3    H1 9275   4.073   5.379   3.498
 3110TIP3    H2 9276   4.165   5.381   3.619
 3111TIP3   OH2 9277   4.682   2.066   3.659
 3111TIP3    H1 9278   4.730   2.137   3.617
 3111TIP3    H2 9279   4.592   2.075   3.628
 3112TIP3   OH2 9280   6.894   1.611   0.845
 3112TIP3    H1 9281   6.853   1.687   0.803
 3112TIP3    H2 9282   6.821   1.552   0.863
 3113TIP3   OH2 9283   6.835   0.442   6.611
 3113TIP3    H1 9284   6.767   0.501   6.644
 3113TIP3    H2 9285   6.873   0.488   6.536
 3114TIP3   OH2 9286   4.170   2.497   3.699
 3114TIP3    H1 9287   4.089   2.529   3.657
 3114TIP3    H2 9288   4.143   2.420   3.748
 3115TIP3   OH2 9289   2.800   3.619   6.109
 3115TIP3    H1 9290   2.829   3.638   6.020
 3115TIP3    H2 9291   2.770   3.528   6.105
 3116TIP3   OH2 9292   8.211   4.068   3.899
 3116TIP3    H1 9293   8.222   4.070   3.804
 3116TIP3    H2 9294   8.117   4.070   3.913
 3117TIP3   OH2 9295   3.833   5.750   0.030
 3117TIP3    H1 9296   3.786   5.817  -0.020
 3117TIP3    H2 9297   3.795   5.667   0.001
 3118TIP3   OH2 9298   7.268   7.159   0.289
 3118TIP3    H1 9299   7.277   7.114   0.374
 3118TIP3    H2 9300   7.178   7.142   0.262
 3119TIP3   OH2 9301   7.369   5.331   3.992
 3119TIP3    H1 9302   7.407   5.397   4.050
 3119TIP3    H2 9303   7.425   5.333   3.914
 3120TIP3   OH2 9304   5.457   2.480   2.118
 3120TIP3    H1 9305   5.456   2.400   2.172
 3120TIP3    H2 9306   5.462   2.448   2.028
 3121TIP3   OH2 9307   6.791   4.213   4.256
 3121TIP3    H1 9308   6.729   4.236   4.188
 3121TIP3    H2 9309   6.747   4.144   4.306
 3122TIP3   OH2 9310   0.607   5.587   3.121
 3122TIP3    H1 9311   0.658   5.536   3.057
 3122TIP3    H2 9312   0.647   5.567   3.205
 3123TIP3   OH2 9313   2.843   1.037   0.393
 3123TIP3    H1 9314   2.865   1.093   0.467
 3123TIP3    H2 9315   2.753   1.008   0.411
 3124TIP3   OH2 9316   1.052   3.217   6.757
 3124TIP3    H1 9317   1.122   3.165   6.719
 3124TIP3    H2 9318   1.026   3.169   6.836
 3125TIP3   OH2 9319   2.333   5.777   2.144
 3125TIP3    H1 9320   2.373   5.691   2.137
 3125TIP3    H2 9321   2.404   5.839   2.128
 3126TIP3   OH2 9322   6.904   3.045   5.497
 3126TIP3    H1 9323   6.853   3.126   5.495
 3126TIP3    H2 9324   6.994   3.073   5.483
 3127TIP3   OH2 9325   6.233   5.642   3.273
 3127TIP3    H1 9326   6.196   5.681   3.352
 3127TIP3    H2 9327   6.212   5.549   3.280
 3128TIP3   OH2 9328   7.625   1.138   5.129
 3128TIP3    H1 9329   7.657   1.051   5.151
 3128TIP3    H2 9330   7.566   1.125   5.055
 3129TIP3   OH2 9331   6.857   5.506   5.904
 3129TIP3    H1 9332   6.767   5.479   5.883
 3129TIP3    H2 9333   6.883   5.563   5.832
 3130TIP3   OH2 9334   5.975   4.893   5.186
 3130TIP3    H1 9335   5.913   4.965   5.178
 3130TIP3    H2 9336   5.930   4.818   5.147
 3131TIP3   OH2 9337   0.730   3.221   5.594
 3131TIP3    H1 9338   0.751   3.276   5.670
 3131TIP3    H2 9339   0.635   3.226   5.587
 3132TIP3   OH2 9340   5.984   4.366   6.721
 3132TIP3    H1 9341   5.899   4.323   6.721
 3132TIP3    H2 9342   6.038   4.316   6.660
 3133TIP3   OH2 9343   0.760   4.020   0.434
 3133TIP3    H1 9344   0.844   4.007   0.477
 3133TIP3    H2 9345   0.695   4.004   0.503
 3134TIP3   OH2 9346   3.972   5.370   3.853
 3134TIP3    H1 9347   3.981   5.378   3.758
 3134TIP3    H2 9348   4.024   5.292   3.875
 3135TIP3   OH2 9349   5.339   0.229   4.783
 3135TIP3    H1 9350   5.343   0.251   4.876
 3135TIP3    H2 9351   5.257   0.268   4.753
 3136TIP3   OH2 9352   2.923   7.330   2.276
 3136TIP3    H1 9353   2.902   7.317   2.184
 3136TIP3    H2 9354   2.921   7.425   2.288
 3137TIP3   OH2 9355   3.734   2.822   4.868
 3137TIP3    H1 9356   3.740   2.906   4.915
 3137TIP3    H2 9357   3.642   2.798   4.874
 3138TIP3   OH2 9358   0.443   7.524   0.504
 3138TIP3    H1 9359   0.424   7.606   0.550
 3138TIP3    H2 9360   0.437   7.547   0.411
 3139TIP3   OH2 9361   6.643   2.930   3.376
 3139TIP3    H1 9362   6.623   2.939   3.283
 3139TIP3    H2 9363   6.566   2.964   3.421
 3140TIP3   OH2 9364   3.053   0.374   1.518
 3140TIP3    H1 9365   3.001   0.331   1.450
 3140TIP3    H2 9366   2.990   0.394   1.587
 3141TIP3   OH2 9367   7.593   7.732   3.618
 3141TIP3    H1 9368   7.593   7.653   3.672
 3141TIP3    H2 9369   7.578   7.699   3.529
 3142TIP3   OH2 9370   3.716   5.256   3.630
 3142TIP3    H1 9371   3.691   5.204   3.554
 3142TIP3    H2 9372   3.685   5.344   3.610
 3143TIP3   OH2 9373   0.205   1.497   1.054
 3143TIP3    H1 9374   0.186   1.527   1.143
 3143TIP3    H2 9375   0.173   1.567   0.997
 3144TIP3   OH2 9376   2.424   7.689   2.624
 3144TIP3    H1 9377   2.414   7.784   2.618
 3144TIP3    H2 9378   2.373   7.654   2.550
 3145TIP3   OH2 9379   4.427   3.246   3.778
 3145TIP3    H1 9380   4.490   3.256   3.706
 3145TIP3    H2 9381   4.399   3.335   3.799
 3146TIP3   OH2 9382   0.616   1.453   1.428
 3146TIP3    H1 9383   0.701   1.472   1.388
 3146TIP3    H2 9384   0.633   1.458   1.523
 3147TIP3   OH2 9385   2.907   3.740   3.593
 3147TIP3    H1 9386   2.905   3.682   3.517
 3147TIP3    H2 9387   2.945   3.822   3.560
 3148TIP3   OH2 9388   0.359   6.944   6.548
 3148TIP3    H1 9389   0.423   6.999   6.503
 3148TIP3    H2 9390   0.373   6.856   6.511
 3149TIP3   OH2 9391   5.102   0.348   4.818
 3149TIP3    H1 9392   5.021   0.297   4.820
 3149TIP3    H2 9393   5.093   0.412   4.889
 3150TIP3   OH2 9394   5.750   7.374   3.000
 3150TIP3    H1 9395   5.692   7.356   3.073
 3150TIP3    H2 9396   5.838   7.366   3.037
 3151TIP3   OH2 9397   5.224   7.719   1.932
 3151TIP3    H1 9398   5.225   7.648   1.867
 3151TIP3    H2 9399   5.132   7.732   1.953
 3152TIP3   OH2 9400   0.897   4.816   5.164
 3152TIP3    H1 9401   0.822   4.787   5.112
 3152TIP3    H2 9402   0.906   4.750   5.232
 3153TIP3   OH2 9403   7.046   6.357   6.253
 3153TIP3    H1 9404   6.954   6.372   6.273
 3153TIP3    H2 9405   7.090   6.439   6.277
 3154TIP3   OH2 9406   3.589   3.473   3.816
 3154TIP3    H1 9407   3.619   3.511   3.733
 3154TIP3    H2 9408   3.552   3.388   3.792
 3155TIP3   OH2 9409   3.596   1.979   0.165
 3155TIP3    H1 9410   3.688   1.953   0.169
 3155TIP3    H2 9411   3.598   2.075   0.163
 3156TIP3   OH2 9412   1.108   0.521   5.552
 3156TIP3    H1 9413   1.024   0.539   5.594
 3156TIP3    H2 9414   1.150   0.456   5.608
 3157TIP3   OH2 9415   0.699   2.372   3.678
 3157TIP3    H1 9416   0.741   2.372   3.592
 3157TIP3    H2 9417   0.618   2.323   3.666
 3158TIP3   OH2 9418   2.595   1.417   3.387
 3158TIP3    H1 9419   2.656   1.417   3.313
 3158TIP3    H2 9420   2.606   1.331   3.427
 3159TIP3   OH2 9421   3.783   5.847   1.652
 3159TIP3    H1 9422   3.718   5.825   1.718
 3159TIP3    H2 9423   3.735   5.846   1.569
 3160TIP3   OH2 9424   1.683   0.695   6.552
 3160TIP3    H1 9425   1.751   0.640   6.512
 3160TIP3    H2 9426   1.732   0.754   6.610
 3161TIP3   OH2 9427   6.986   2.607   0.335
 3161TIP3    H1 9428   6.946   2.599   0.248
 3161TIP3    H2 9429   6.968   2.697   0.361
 3162TIP3   OH2 9430   8.134   3.489   1.670
 3162TIP3    H1 9431   8.146   3.473   1.576
 3162TIP3    H2 9432   8.056   3.437   1.693
 3163TIP3   OH2 9433   6.766   7.380   2.708
 3163TIP3    H1 9434   6.677   7.412   2.720
 3163TIP3    H2 9435   6.817   7.458   2.684
 3164TIP3   OH2 9436   3.118   5.470   1.754
 3164TIP3    H1 9437   3.056   5.467   1.681
 3164TIP3    H2 9438   3.186   5.531   1.724
 3165TIP3   OH2 9439   3.665   1.067   4.502
 3165TIP3    H1 9440   3.644   1.066   4.595
 3165TIP3    H2 9441   3.742   1.011   4.494
 3166TIP3   OH2 9442   7.890   6.000   2.093
 3166TIP3    H1 9443   7.985   5.992   2.107
 3166TIP3    H2 9444   7.879   5.998   1.998
 3167TIP3   OH2 9445   3.865   1.377   6.229
 3167TIP3    H1 9446   3.784   1.391   6.277
 3167TIP3    H2 9447   3.855   1.290   6.190
 3168TIP3   OH2 9448   0.459   7.114   2.354
 3168TIP3    H1 9449   0.425   7.164   2.428
 3168TIP3    H2 9450   0.447   7.023   2.380
 3169TIP3   OH2 9451   6.657   6.546   5.840
 3169TIP3    H1 9452   6.656   6.636   5.808
 3169TIP3    H2 9453   6.618   6.494   5.770
 3170TIP3   OH2 9454   1.395   2.181   1.948
 3170TIP3    H1 9455   1.375   2.104   2.000
 3170TIP3    H2 9456   1.315   2.233   1.949
 3171TIP3   OH2 9457   0.110   3.556   3.413
 3171TIP3    H1 9458   0.080   3.611   3.484
 3171TIP3    H2 9459   0.178   3.607   3.369
 3172TIP3   OH2 9460   7.384   4.534   6.534
 3172TIP3    H1 9461   7.472   4.528   6.572
 3172TIP3    H2 9462   7.386   4.615   6.482
 3173TIP3   OH2 9463   8.294   1.058   1.113
 3173TIP3    H1 9464   8.280   1.088   1.203
 3173TIP3    H2 9465   8.229   0.989   1.101
 3174TIP3   OH2 9466   4.612   5.976   6.675
 3174TIP3    H1 9467   4.705   5.955   6.686
 3174TIP3    H2 9468   4.593   6.036   6.747
 3175TIP3   OH2 9469   2.457   6.213   0.570
 3175TIP3    H1 9470   2.377   6.262   0.551
 3175TIP3    H2 9471   2.524   6.252   0.514
 3176TIP3   OH2 9472   1.083   1.840   2.622
 3176TIP3    H1 9473   1.037   1.908   2.672
 3176TIP3    H2 9474   1.013   1.784   2.590
 3177TIP3   OH2 9475   4.821   6.562   0.256
 3177TIP3    H1 9476   4.746   6.602   0.299
 3177TIP3    H2 9477   4.825   6.604   0.170
 3178TIP3   OH2 9478   3.694   6.298   2.411
 3178TIP3    H1 9479   3.727   6.210   2.425
 3178TIP3    H2 9480   3.609   6.286   2.370
 3179TIP3   OH2 9481   5.246   7.706   4.305
 3179TIP3    H1 9482   5.336   7.703   4.274
 3179TIP3    H2 9483   5.193   7.678   4.230
 3180TIP3   OH2 9484   7.483   4.260   3.184
 3180TIP3    H1 9485   7.413   4.323   3.164
 3180TIP3    H2 9486   7.540   4.306   3.245
 3181TIP3   OH2 9487   6.691   0.293   4.420
 3181TIP3    H1 9488   6.710   0.253   4.505
 3181TIP3    H2 9489   6.677   0.386   4.440
 3182TIP3   OH2 9490   3.571   2.123   0.761
 3182TIP3    H1 9491   3.583   2.028   0.764
 3182TIP3    H2 9492   3.480   2.138   0.787
 3183TIP3   OH2 9493   1.488   0.450   4.393
 3183TIP3    H1 9494   1.408   0.502   4.385
 3183TIP3    H2 9495   1.557   0.506   4.358
 3184TIP3   OH2 9496   4.574   6.946   1.533
 3184TIP3    H1 9497   4.490   6.907   1.510
 3184TIP3    H2 9498   4.560   7.041   1.524
 3185TIP3   OH2 9499   7.625   5.285   4.782
 3185TIP3    H1 9500   7.603   5.192   4.785
 3185TIP3    H2 9501   7.617   5.313   4.873
 3186TIP3   OH2 9502   5.964   1.236   6.032
 3186TIP3    H1 9503   6.048   1.282   6.037
 3186TIP3    H2 9504   5.985   1.146   6.057
 3187TIP3   OH2 9505   1.622   5.396   1.243
 3187TIP3    H1 9506   1.562   5.454   1.196
 3187TIP3    H2 9507   1.614   5.312   1.198
 3188TIP3   OH2 9508   3.934   1.534   3.055
 3188TIP3    H1 9509   3.844   1.504   3.061
 3188TIP3    H2 9510   3.960   1.512   2.965
 3189TIP3   OH2 9511   2.856   2.203   2.051
 3189TIP3    H1 9512   2.800   2.275   2.023
 3189TIP3    H2 9513   2.805   2.124   2.033
 3190TIP3   OH2 9514   5.562   6.434   3.537
 3190TIP3    H1 9515   5.541   6.342   3.548
 3190TIP3    H2 9516   5.657   6.439   3.544
 3191TIP3   OH2 9517   4.299   4.427   3.907
 3191TIP3    H1 9518   4.342   4.512   3.912
 3191TIP3    H2 9519   4.369   4.364   3.924
 3192TIP3   OH2 9520   1.030   1.769   2.898
 3192TIP3    H1 9521   1.112   1.742   2.858
 3192TIP3    H2 9522   1.055   1.829   2.968
 3193TIP3   OH2 9523   5.139   2.432   0.560
 3193TIP3    H1 9524   5.188   2.350   0.565
 3193TIP3    H2 9525   5.203   2.500   0.581
 3194TIP3   OH2 9526   1.960   1.988   5.775
 3194TIP3    H1 9527   1.941   1.895   5.768
 3194TIP3    H2 9528   1.920   2.026   5.697
 3195TIP3   OH2 9529   1.487   5.432   5.703
 3195TIP3    H1 9530   1.555   5.476   5.652
 3195TIP3    H2 9531   1.516   5.341   5.708
 3196TIP3   OH2 9532   7.902   4.870   1.162
 3196TIP3    H1 9533   7.816   4.908   1.147
 3196TIP3    H2 9534   7.961   4.922   1.106
 3197TIP3   OH2 9535   6.561   4.405   2.308
 3197TIP3    H1 9536   6.640   4.457   2.324
 3197TIP3    H2 9537   6.491   4.455   2.352
 3198TIP3   OH2 9538   6.582   4.297   0.428
 3198TIP3    H1 9539   6.611   4.373   0.377
 3198TIP3    H2 9540   6.488   4.312   0.442
 3199TIP3   OH2 9541   2.887   4.765   0.543
 3199TIP3    H1 9542   2.957   4.747   0.480
 3199TIP3    H2 9543   2.815   4.799   0.489
 3200TIP3   OH2 9544   8.260   3.904   4.205
 3200TIP3    H1 9545   8.314   3.826   4.203
 3200TIP3    H2 9546   8.221   3.904   4.293
 3201TIP3   OH2 9547   3.153   0.202   2.624
 3201TIP3    H1 9548   3.100   0.166   2.553
 3201TIP3    H2 9549   3.166   0.129   2.684
 3202TIP3   OH2 9550   2.594   5.731   3.066
 3202TIP3    H1 9551   2.504   5.761   3.051
 3202TIP3    H2 9552   2.585   5.638   3.087
 3203TIP3   OH2 9553   7.005   0.652   3.914
 3203TIP3    H1 9554   6.995   0.682   3.823
 3203TIP3    H2 9555   6.937   0.700   3.962
 3204TIP3   OH2 9556   2.138   7.796   0.008
 3204TIP3    H1 9557   2.224   7.765  -0.020
 3204TIP3    H2 9558   2.079   7.766  -0.061
 3205TIP3   OH2 9559   2.453   5.887   0.496
 3205TIP3    H1 9560   2.379   5.837   0.531
 3205TIP3    H2 9561   2.469   5.847   0.410
 3206TIP3   OH2 9562   2.647   5.687   1.520
 3206TIP3    H1 9563   2.693   5.603   1.520
 3206TIP3    H2 9564   2.682   5.733   1.596
 3207TIP3   OH2 9565   7.085   0.911   2.183
 3207TIP3    H1 9566   7.078   0.846   2.113
 3207TIP3    H2 9567   7.027   0.878   2.252
 3208TIP3   OH2 9568   2.715   1.966   2.022
 3208TIP3    H1 9569   2.714   1.902   2.093
 3208TIP3    H2 9570   2.674   1.921   1.948
 3209TIP3   OH2 9571   0.150   4.125   4.575
 3209TIP3    H1 9572   0.212   4.057   4.551
 3209TIP3    H2 9573   0.156   4.132   4.670
 3210TIP3   OH2 9574   3.764   6.938   5.826
 3210TIP3    H1 9575   3.729   7.026   5.819
 3210TIP3    H2 9576   3.725   6.902   5.905
 3211TIP3   OH2 9577   5.891   2.648   1.119
 3211TIP3    H1 9578   5.965   2.695   1.158
 3211TIP3    H2 9579   5.917   2.631   1.029
 3212TIP3   OH2 9580   1.791   7.407   2.204
 3212TIP3    H1 9581   1.853   7.463   2.252
 3212TIP3    H2 9582   1.709   7.415   2.252
 3213TIP3   OH2 9583   7.981   3.779   1.001
 3213TIP3    H1 9584   7.954   3.726   0.926
 3213TIP3    H2 9585   7.900   3.803   1.044
 3214TIP3   OH2 9586   1.838   5.613   2.192
 3214TIP3    H1 9587   1.755   5.565   2.193
 3214TIP3    H2 9588   1.904   5.545   2.209
 3215TIP3   OH2 9589   3.666   3.535   6.730
 3215TIP3    H1 9590   3.606   3.565   6.798
 3215TIP3    H2 9591   3.610   3.489   6.667
 3216TIP3   OH2 9592   3.223   5.822   3.830
 3216TIP3    H1 9593   3.297   5.877   3.804
 3216TIP3    H2 9594   3.263   5.737   3.849
 3217TIP3   OH2 9595   5.797   4.217   1.844
 3217TIP3    H1 9596   5.864   4.285   1.852
 3217TIP3    H2 9597   5.744   4.225   1.923
 3218TIP3   OH2 9598   1.029   5.859   0.285
 3218TIP3    H1 9599   1.043   5.952   0.269
 3218TIP3    H2 9600   0.955   5.856   0.346
 3219TIP3   OH2 9601   4.917   1.372   2.889
 3219TIP3    H1 9602   4.832   1.378   2.843
 3219TIP3    H2 9603   4.918   1.283   2.925
 3220TIP3   OH2 9604   4.665   1.381   2.789
 3220TIP3    H1 9605   4.629   1.313   2.732
 3220TIP3    H2 9606   4.595   1.400   2.851
 3221TIP3   OH2 9607   6.085   5.557   2.979
 3221TIP3    H1 9608   6.018   5.579   3.044
 3221TIP3    H2 9609   6.068   5.466   2.956
 3222TIP3   OH2 9610   7.626   6.290   5.742
 3222TIP3    H1 9611   7.571   6.218   5.711
 3222TIP3    H2 9612   7.645   6.268   5.833
 3223TIP3   OH2 9613   0.069   0.867   5.424
 3223TIP3    H1 9614   0.031   0.779   5.428
 3223TIP3    H2 9615   0.026   0.915   5.494
 3224TIP3   OH2 9616   4.942   3.779   0.318
 3224TIP3    H1 9617   5.014   3.800   0.377
 3224TIP3    H2 9618   4.912   3.692   0.346
 3225TIP3   OH2 9619   5.352   4.877   4.435
 3225TIP3    H1 9620   5.353   4.970   4.458
 3225TIP3    H2 9621   5.327   4.833   4.516
 3226TIP3   OH2 9622   3.377   4.910   4.443
 3226TIP3    H1 9623   3.416   4.897   4.357
 3226TIP3    H2 9624   3.367   4.822   4.479
 3227TIP3   OH2 9625   7.427   0.404   3.460
 3227TIP3    H1 9626   7.379   0.380   3.539
 3227TIP3    H2 9627   7.369   0.464   3.414
 3228TIP3   OH2 9628   8.262   3.862   0.546
 3228TIP3    H1 9629   8.186   3.806   0.566
 3228TIP3    H2 9630   8.336   3.818   0.588
 3229TIP3   OH2 9631   7.983   6.334   0.380
 3229TIP3    H1 9632   8.032   6.416   0.376
 3229TIP3    H2 9633   7.892   6.362   0.389
 3230TIP3   OH2 9634   6.173   0.983   2.586
 3230TIP3    H1 9635   6.126   1.030   2.655
 3230TIP3    H2 9636   6.118   0.991   2.509
 3231TIP3   OH2 9637   1.105   7.393   5.102
 3231TIP3    H1 9638   1.029   7.342   5.129
 3231TIP3    H2 9639   1.149   7.339   5.036
 3232TIP3   OH2 9640   5.514   5.241   5.688
 3232TIP3    H1 9641   5.438   5.298   5.675
 3232TIP3    H2 9642   5.559   5.278   5.764
 3233TIP3   OH2 9643   7.934   6.646   6.303
 3233TIP3    H1 9644   7.850   6.601   6.311
 3233TIP3    H2 9645   7.963   6.661   6.393
 3234TIP3   OH2 9646   1.499   6.182   6.724
 3234TIP3    H1 9647   1.561   6.111   6.706
 3234TIP3    H2 9648   1.512   6.244   6.652
 3235TIP3   OH2 9649   0.217   4.693   3.100
 3235TIP3    H1 9650   0.299   4.645   3.083
 3235TIP3    H2 9651   0.171   4.639   3.164
 3236TIP3   OH2 9652   0.897   3.192   3.083
 3236TIP3    H1 9653   0.967   3.141   3.125
 3236TIP3    H2 9654   0.943   3.264   3.040
 3237TIP3   OH2 9655   3.740   0.758   0.678
 3237TIP3    H1 9656   3.786   0.727   0.756
 3237TIP3    H2 9657   3.802   0.745   0.607
 3238TIP3   OH2 9658   4.994   3.584   5.419
 3238TIP3    H1 9659   4.994   3.518   5.489
 3238TIP3    H2 9660   5.073   3.637   5.436
 3239TIP3   OH2 9661   7.499   4.663   1.033
 3239TIP3    H1 9662   7.548   4.743   1.050
 3239TIP3    H2 9663   7.416   4.693   0.996
 3240TIP3   OH2 9664   5.339   7.461   0.524
 3240TIP3    H1 9665   5.434   7.476   0.515
 3240TIP3    H2 9666   5.316   7.406   0.449
 3241TIP3   OH2 9667   1.172   4.183   1.671
 3241TIP3    H1 9668   1.127   4.188   1.755
 3241TIP3    H2 9669   1.265   4.197   1.692
 3242TIP3   OH2 9670   1.707   3.644   2.512
 3242TIP3    H1 9671   1.720   3.665   2.420
 3242TIP3    H2 9672   1.756   3.710   2.560
 3243TIP3   OH2 9673   2.289   4.155   5.717
 3243TIP3    H1 9674   2.278   4.237   5.668
 3243TIP3    H2 9675   2.320   4.183   5.803
 3244TIP3   OH2 9676   1.691   0.732   3.937
 3244TIP3    H1 9677   1.705   0.676   3.860
 3244TIP3    H2 9678   1.779   0.763   3.960
 3245TIP3   OH2 9679   2.437   5.615   3.963
 3245TIP3    H1 9680   2.388   5.696   3.978
 3245TIP3    H2 9681   2.510   5.642   3.906
 3246TIP3   OH2 9682   0.285   0.198   2.633
 3246TIP3    H1 9683   0.354   0.183   2.698
 3246TIP3    H2 9684   0.264   0.291   2.643
 3247TIP3   OH2 9685   0.708   1.054   2.345
 3247TIP3    H1 9686   0.655   1.123   2.385
 3247TIP3    H2 9687   0.656   1.023   2.270
 3248TIP3   OH2 9688  -0.006   6.345   3.899
 3248TIP3    H1 9689   0.066   6.332   3.838
 3248TIP3    H2 9690   0.021   6.419   3.953
 3249TIP3   OH2 9691   7.229   0.433   5.241
 3249TIP3    H1 9692   7.202   0.454   5.151
 3249TIP3    H2 9693   7.190   0.347   5.258
 3250TIP3   OH2 9694   4.595   1.194   3.647
 3250TIP3    H1 9695   4.558   1.281   3.631
 3250TIP3    H2 9696   4.595   1.186   3.743
 3251TIP3   OH2 9697   7.675   6.614   3.213
 3251TIP3    H1 9698   7.677   6.691   3.156
 3251TIP3    H2 9699   7.767   6.587   3.221
 3252TIP3   OH2 9700   5.813   7.285   6.825
 3252TIP3    H1 9701   5.782   7.266   6.736
 3252TIP3    H2 9702   5.751   7.240   6.882
 3253TIP3   OH2 9703   3.127   1.766   0.248
 3253TIP3    H1 9704   3.202   1.779   0.190
 3253TIP3    H2 9705   3.109   1.672   0.245
 3254TIP3   OH2 9706   4.802   4.419   2.884
 3254TIP3    H1 9707   4.709   4.426   2.860
 3254TIP3    H2 9708   4.848   4.424   2.800
 3255TIP3   OH2 9709   5.082   7.217   4.613
 3255TIP3    H1 9710   5.140   7.268   4.557
 3255TIP3    H2 9711   5.002   7.268   4.619
 3256TIP3   OH2 9712   4.885   7.800   0.612
 3256TIP3    H1 9713   4.941   7.842   0.677
 3256TIP3    H2 9714   4.812   7.764   0.663
 3257TIP3   OH2 9715   1.267   5.857   4.592
 3257TIP3    H1 9716   1.313   5.873   4.674
 3257TIP3    H2 9717   1.255   5.762   4.589
 3258TIP3   OH2 9718   4.555   3.106   6.121
 3258TIP3    H1 9719   4.533   3.120   6.213
 3258TIP3    H2 9720   4.636   3.054   6.124
 3259TIP3   OH2 9721   8.027   1.132   5.156
 3259TIP3    H1 9722   8.045   1.085   5.237
 3259TIP3    H2 9723   8.061   1.074   5.087
 3260TIP3   OH2 9724   2.099   4.590   2.641
 3260TIP3    H1 9725   2.096   4.679   2.606
 3260TIP3    H2 9726   2.192   4.568   2.644
 3261TIP3   OH2 9727   4.735   3.935   0.676
 3261TIP3    H1 9728   4.681   3.868   0.717
 3261TIP3    H2 9729   4.772   3.893   0.598
 3262TIP3   OH2 9730   6.000   5.027   1.561
 3262TIP3    H1 9731   6.010   4.936   1.533
 3262TIP3    H2 9732   6.033   5.028   1.650
 3263TIP3   OH2 9733   7.086   2.728   2.655
 3263TIP3    H1 9734   7.128   2.780   2.723
 3263TIP3    H2 9735   7.103   2.776   2.574
 3264TIP3   OH2 9736   4.750   6.368   6.327
 3264TIP3    H1 9737   4.822   6.347   6.386
 3264TIP3    H2 9738   4.672   6.335   6.370
 3265TIP3   OH2 9739   7.548   2.489   4.924
 3265TIP3    H1 9740   7.480   2.502   4.858
 3265TIP3    H2 9741   7.616   2.552   4.901
 3266TIP3   OH2 9742   2.854   0.034   0.827
 3266TIP3    H1 9743   2.882  -0.041   0.879
 3266TIP3    H2 9744   2.933   0.087   0.817
 3267TIP3   OH2 9745   6.952   4.691   0.423
 3267TIP3    H1 9746   7.037   4.671   0.384
 3267TIP3    H2 9747   6.890   4.684   0.350
 3268TIP3   OH2 9748   6.135   2.547   4.731
 3268TIP3    H1 9749   6.076   2.590   4.792
 3268TIP3    H2 9750   6.091   2.465   4.708
 3269TIP3   OH2 9751   5.966   5.462   2.602
 3269TIP3    H1 9752   5.976   5.394   2.668
 3269TIP3    H2 9753   5.928   5.536   2.649
 3270TIP3   OH2 9754   4.894   4.838   5.021
 3270TIP3    H1 9755   4.906   4.926   5.057
 3270TIP3    H2 9756   4.824   4.848   4.956
 3271TIP3   OH2 9757   7.486   7.154   3.485
 3271TIP3    H1 9758   7.502   7.086   3.420
 3271TIP3    H2 9759   7.548   7.134   3.555
 3272TIP3   OH2 9760   1.350   2.218   5.520
 3272TIP3    H1 9761   1.365   2.204   5.614
 3272TIP3    H2 9762   1.429   2.184   5.478
 3273TIP3   OH2 9763   5.217   3.210   4.793
 3273TIP3    H1 9764   5.145   3.203   4.730
 3273TIP3    H2 9765   5.244   3.119   4.808
 3274TIP3   OH2 9766   8.079   1.332   6.175
 3274TIP3    H1 9767   8.160   1.354   6.220
 3274TIP3    H2 9768   8.032   1.415   6.169
 3275TIP3   OH2 9769   7.320   1.486   6.093
 3275TIP3    H1 9770   7.391   1.543   6.122
 3275TIP3    H2 9771   7.360   1.429   6.027
 3276TIP3   OH2 9772   2.596   2.347   6.024
 3276TIP3    H1 9773   2.589   2.429   6.072
 3276TIP3    H2 9774   2.651   2.367   5.948
 3277TIP3   OH2 9775   5.247   1.216   1.572
 3277TIP3    H1 9776   5.224   1.244   1.661
 3277TIP3    H2 9777   5.192   1.270   1.515
 3278TIP3   OH2 9778   4.136   7.290   3.639
 3278TIP3    H1 9779   4.154   7.234   3.564
 3278TIP3    H2 9780   4.117   7.376   3.601
 3279TIP3   OH2 9781   4.327   3.393   2.380
 3279TIP3    H1 9782   4.317   3.474   2.431
 3279TIP3    H2 9783   4.422   3.382   2.372
 3280TIP3   OH2 9784   2.774   7.021   2.765
 3280TIP3    H1 9785   2.702   7.022   2.829
 3280TIP3    H2 9786   2.745   7.081   2.696
 3281TIP3   OH2 9787   4.114   3.800   4.324
 3281TIP3    H1 9788   4.059   3.735   4.281
 3281TIP3    H2 9789   4.101   3.880   4.273
 3282TIP3   OH2 9790   5.407   2.969   4.528
 3282TIP3    H1 9791   5.350   3.031   4.483
 3282TIP3    H2 9792   5.351   2.925   4.590
 3283TIP3   OH2 9793   1.329   4.700   3.225
 3283TIP3    H1 9794   1.420   4.684   3.251
 3283TIP3    H2 9795   1.288   4.613   3.225
 3284TIP3   OH2 9796   0.914   0.973   2.851
 3284TIP3    H1 9797   0.909   1.032   2.776
 3284TIP3    H2 9798   0.989   0.916   2.832
 3285TIP3   OH2 9799   2.982   5.481   1.531
 3285TIP3    H1 9800   3.016   5.563   1.496
 3285TIP3    H2 9801   2.900   5.466   1.483
 3286TIP3   OH2 9802   3.568   4.520   5.128
 3286TIP3    H1 9803   3.554   4.612   5.106
 3286TIP3    H2 9804   3.633   4.522   5.198
 3287TIP3   OH2 9805   4.260   6.519   1.547
 3287TIP3    H1 9806   4.215   6.437   1.565
 3287TIP3    H2 9807   4.241   6.575   1.622
 3288TIP3   OH2 9808   7.402   1.471   6.489
 3288TIP3    H1 9809   7.482   1.453   6.439
 3288TIP3    H2 9810   7.424   1.443   6.579
 3289TIP3   OH2 9811   7.810   1.319   5.199
 3289TIP3    H1 9812   7.889   1.268   5.215
 3289TIP3    H2 9813   7.746   1.255   5.168
 3290TIP3   OH2 9814   1.077   5.535   1.813
 3290TIP3    H1 9815   1.016   5.552   1.742
 3290TIP3    H2 9816   1.138   5.609   1.811
 3291TIP3   OH2 9817   1.194   2.292   4.517
 3291TIP3    H1 9818   1.128   2.354   4.548
 3291TIP3    H2 9819   1.270   2.346   4.495
 3292TIP3   OH2 9820   6.338   2.651   1.123
 3292TIP3    H1 9821   6.346   2.561   1.092
 3292TIP3    H2 9822   6.272   2.647   1.191
 3293TIP3   OH2 9823   5.553   6.217   1.721
 3293TIP3    H1 9824   5.476   6.214   1.778
 3293TIP3    H2 9825   5.571   6.310   1.709
 3294TIP3   OH2 9826   0.285   0.219   5.090
 3294TIP3    H1 9827   0.226   0.179   5.027
 3294TIP3    H2 9828   0.337   0.147   5.125
 3295TIP3   OH2 9829   1.715   7.464   1.709
 3295TIP3    H1 9830   1.650   7.502   1.649
 3295TIP3    H2 9831   1.799   7.488   1.671
 3296TIP3   OH2 9832   6.362   6.172   6.171
 3296TIP3    H1 9833   6.382   6.115   6.246
 3296TIP3    H2 9834   6.267   6.168   6.162
 3297TIP3   OH2 9835   8.301   5.417   2.947
 3297TIP3    H1 9836   8.215   5.451   2.972
 3297TIP3    H2 9837   8.319   5.348   3.010
 3298TIP3   OH2 9838   0.293   7.088   4.853
 3298TIP3    H1 9839   0.372   7.075   4.906
 3298TIP3    H2 9840   0.227   7.118   4.915
 3299TIP3   OH2 9841   0.985   2.804   2.869
 3299TIP3    H1 9842   0.955   2.734   2.927
 3299TIP3    H2 9843   1.055   2.764   2.818
 3300TIP3   OH2 9844   0.709   0.645   2.356
 3300TIP3    H1 9845   0.639   0.651   2.421
 3300TIP3    H2 9846   0.694   0.561   2.312
 3301TIP3   OH2 9847   3.585   0.461   1.885
 3301TIP3    H1 9848   3.489   0.463   1.882
 3301TIP3    H2 9849   3.612   0.496   1.800
 3302TIP3   OH2 9850   8.191   0.470   1.204
 3302TIP3    H1 9851   8.181   0.477   1.299
 3302TIP3    H2 9852   8.103   0.480   1.170
 3303TIP3   OH2 9853   7.510   1.989   0.085
 3303TIP3    H1 9854   7.572   1.916   0.085
 3303TIP3    H2 9855   7.484   1.999   0.176
 3304TIP3   OH2 9856   3.172   7.431   2.155
 3304TIP3    H1 9857   3.196   7.366   2.089
 3304TIP3    H2 9858   3.085   7.460   2.130
 3305TIP3   OH2 9859   4.593   2.382   5.491
 3305TIP3    H1 9860   4.664   2.438   5.461
 3305TIP3    H2 9861   4.520   2.402   5.433
 3306TIP3   OH2 9862   6.140   3.422   2.267
 3306TIP3    H1 9863   6.117   3.484   2.198
 3306TIP3    H2 9864   6.228   3.392   2.243
 3307TIP3   OH2 9865   3.544   4.620   1.606
 3307TIP3    H1 9866   3.633   4.609   1.640
 3307TIP3    H2 9867   3.536   4.714   1.590
 3308TIP3   OH2 9868   7.813   0.542   4.111
 3308TIP3    H1 9869   7.830   0.466   4.056
 3308TIP3    H2 9870   7.857   0.522   4.193
 3309TIP3   OH2 9871   5.709   1.928   4.721
 3309TIP3    H1 9872   5.791   1.895   4.757
 3309TIP3    H2 9873   5.688   1.868   4.649
 3310TIP3   OH2 9874   1.563   5.220   3.202
 3310TIP3    H1 9875   1.631   5.273   3.160
 3310TIP3    H2 9876   1.495   5.283   3.226
 3311TIP3   OH2 9877   2.442   2.196   5.309
 3311TIP3    H1 9878   2.517   2.220   5.254
 3311TIP3    H2 9879   2.429   2.102   5.291
 3312TIP3   OH2 9880   6.002   0.129   4.696
 3312TIP3    H1 9881   6.008   0.223   4.677
 3312TIP3    H2 9882   5.951   0.124   4.777
 3313TIP3   OH2 9883   5.466   5.160   1.674
 3313TIP3    H1 9884   5.391   5.169   1.614
 3313TIP3    H2 9885   5.484   5.066   1.675
 3314TIP3   OH2 9886   0.735   1.567   0.374
 3314TIP3    H1 9887   0.815   1.553   0.426
 3314TIP3    H2 9888   0.723   1.484   0.328
 3315TIP3   OH2 9889   7.143   4.522   2.634
 3315TIP3    H1 9890   7.176   4.436   2.659
 3315TIP3    H2 9891   7.220   4.569   2.602
 3316TIP3   OH2 9892   0.630   4.202   3.381
 3316TIP3    H1 9893   0.581   4.274   3.420
 3316TIP3    H2 9894   0.722   4.230   3.385
 3317TIP3   OH2 9895   6.235   3.782   2.735
 3317TIP3    H1 9896   6.209   3.818   2.820
 3317TIP3    H2 9897   6.273   3.856   2.688
 3318TIP3   OH2 9898   0.541   0.805   4.278
 3318TIP3    H1 9899   0.584   0.747   4.215
 3318TIP3    H2 9900   0.505   0.876   4.225
 3319TIP3   OH2 9901   6.242   2.143   3.786
 3319TIP3    H1 9902   6.261   2.061   3.833
 3319TIP3    H2 9903   6.192   2.195   3.848
 3320TIP3   OH2 9904   1.609   1.258   5.348
 3320TIP3    H1 9905   1.644   1.331   5.398
 3320TIP3    H2 9906   1.685   1.208   5.320
 3321TIP3   OH2 9907   1.897   0.637   0.177
 3321TIP3    H1 9908   1.830   0.601   0.236
 3321TIP3    H2 9909   1.965   0.571   0.174
 3322TIP3   OH2 9910   7.526   0.362   1.410
 3322TIP3    H1 9911   7.462   0.326   1.349
 3322TIP3    H2 9912   7.500   0.328   1.496
 3323TIP3   OH2 9913   6.158   1.660   3.176
 3323TIP3    H1 9914   6.114   1.670   3.092
 3323TIP3    H2 9915   6.220   1.733   3.180
 3324TIP3   OH2 9916   1.582   4.914   2.477
 3324TIP3    H1 9917   1.574   4.830   2.431
 3324TIP3    H2 9918   1.620   4.973   2.412
 3325TIP3   OH2 9919   0.279   0.011   5.432
 3325TIP3    H1 9920   0.274  -0.072   5.384
 3325TIP3    H2 9921   0.317   0.072   5.369
 3326TIP3   OH2 9922   3.846   4.183   2.169
 3326TIP3    H1 9923   3.877   4.101   2.207
 3326TIP3    H2 9924   3.778   4.214   2.229
 3327TIP3   OH2 9925   0.719   5.348   2.978
 3327TIP3    H1 9926   0.794   5.304   2.938
 3327TIP3    H2 9927   0.686   5.407   2.909
 3328TIP3   OH2 9928   4.356   6.041   0.528
 3328TIP3    H1 9929   4.367   6.041   0.623
 3328TIP3    H2 9930   4.364   6.134   0.503
 3329TIP3   OH2 9931   2.506   0.049   6.220
 3329TIP3    H1 9932   2.492   0.107   6.145
 3329TIP3    H2 9933   2.418   0.036   6.256
 3330TIP3   OH2 9934   7.685   4.676   4.094
 3330TIP3    H1 9935   7.636   4.605   4.136
 3330TIP3    H2 9936   7.621   4.718   4.036
 3331TIP3   OH2 9937   1.834   4.347   2.887
 3331TIP3    H1 9938   1.795   4.272   2.931
 3331TIP3    H2 9939   1.854   4.316   2.799
 3332TIP3   OH2 9940   0.149   1.905   4.180
 3332TIP3    H1 9941   0.164   1.811   4.186
 3332TIP3    H2 9942   0.237   1.943   4.176
 3333TIP3   OH2 9943   6.390  -0.007   5.986
 3333TIP3    H1 9944   6.456  -0.009   6.054
 3333TIP3    H2 9945   6.428   0.048   5.917
 3334TIP3   OH2 9946   4.851   4.961   3.905
 3334TIP3    H1 9947   4.840   5.055   3.910
 3334TIP3    H2 9948   4.891   4.945   3.820
 3335TIP3   OH2 9949   1.485   6.435   0.179
 3335TIP3    H1 9950   1.464   6.424   0.087
 3335TIP3    H2 9951   1.578   6.412   0.185
 3336TIP3   OH2 9952   2.965   5.776   0.437
 3336TIP3    H1 9953   2.970   5.701   0.378
 3336TIP3    H2 9954   3.054   5.811   0.439
 3337TIP3   OH2 9955   4.413   1.043   4.153
 3337TIP3    H1 9956   4.492   1.086   4.187
 3337TIP3    H2 9957   4.348   1.113   4.149
 3338TIP3   OH2 9958   3.444   2.288   1.454
 3338TIP3    H1 9959   3.493   2.366   1.480
 3338TIP3    H2 9960   3.410   2.308   1.367
 3339TIP3   OH2 9961   7.016   1.657   6.160
 3339TIP3    H1 9962   7.088   1.701   6.117
 3339TIP3    H2 9963   7.051   1.571   6.184
 3340TIP3   OH2 9964   4.262   0.703   2.657
 3340TIP3    H1 9965   4.288   0.614   2.680
 3340TIP3    H2 9966   4.343   0.754   2.663
 3341TIP3   OH2 9967   1.518   2.411   6.312
 3341TIP3    H1 9968   1.455   2.354   6.354
 3341TIP3    H2 9969   1.555   2.463   6.383
 3342TIP3   OH2 9970   5.424   4.721   4.089
 3342TIP3    H1 9971   5.431   4.785   4.018
 3342TIP3    H2 9972   5.471   4.761   4.162
 3343TIP3   OH2 9973   3.592   4.019   0.658
 3343TIP3    H1 9974   3.509   4.059   0.631
 3343TIP3    H2 9975   3.572   3.976   0.741
 3344TIP3   OH2 9976   1.743   7.181   1.065
 3344TIP3    H1 9977   1.688   7.257   1.083
 3344TIP3    H2 9978   1.813   7.186   1.130
 3345TIP3   OH2 9979   7.702   2.402   0.559
 3345TIP3    H1 9980   7.677   2.467   0.493
 3345TIP3    H2 9981   7.723   2.453   0.637
 3346TIP3   OH2 9982   4.578   4.903   5.599
 3346TIP3    H1 9983   4.525   4.982   5.590
 3346TIP3    H2 9984   4.660   4.933   5.637
 3347TIP3   OH2 9985   2.015   6.160   1.503
 3347TIP3    H1 9986   2.066   6.179   1.581
 3347TIP3    H2 9987   2.068   6.098   1.453
 3348TIP3   OH2 9988   4.114   3.016   2.684
 3348TIP3    H1 9989   4.202   3.021   2.721
 3348TIP3    H2 9990   4.070   2.948   2.735
 3349TIP3   OH2 9991   4.533   4.790   0.581
 3349TIP3    H1 9992   4.545   4.882   0.601
 3349TIP3    H2 9993   4.444   4.770   0.609
 3350TIP3   OH2 9994   5.749   6.756   3.825
 3350TIP3    H1 9995   5.824   6.812   3.847
 3350TIP3    H2 9996   5.715   6.792   3.743
 3351TIP3   OH2 9997   3.551   4.189   0.372
 3351TIP3    H1 9998   3.558   4.276   0.334
 3351TIP3    H2 9999   3.493   4.200   0.447
 3352TIP3   OH210000   7.344   1.439   3.750
 3352TIP3    H110001   7.414   1.485   3.703
 3352TIP3    H210002   7.304   1.506   3.805
 3353TIP3   OH210003   7.710   4.782   4.829
 3353TIP3    H110004   7.665   4.747   4.907
 3353TIP3    H210005   7.685   4.723   4.758
 3354TIP3   OH210006   7.322   0.130   0.810
 3354TIP3    H110007   7.353   0.056   0.758
 3354TIP3    H210008   7.375   0.128   0.889
 3355TIP3   OH210009   2.478   4.607   4.549
 3355TIP3    H110010   2.521   4.691   4.537
 3355TIP3    H210011   2.549   4.544   4.552
 3356TIP3   OH210012   1.117   1.515   4.855
 3356TIP3    H110013   1.148   1.430   4.823
 3356TIP3    H210014   1.177   1.537   4.927
 3357TIP3   OH210015   6.625   2.963   2.676
 3357TIP3    H110016   6.694   2.951   2.611
 3357TIP3    H210017   6.640   2.893   2.740
 3358TIP3   OH210018   7.938   5.157   2.003
 3358TIP3    H110019   8.028   5.188   1.998
 3358TIP3    H210020   7.896   5.213   2.067
 3359TIP3   OH210021   2.413   5.298   5.912
 3359TIP3    H110022   2.372   5.212   5.926
 3359TIP3    H210023   2.492   5.297   5.966
 3360TIP3   OH210024   6.642   6.543   2.775
 3360TIP3    H110025   6.583   6.478   2.738
 3360TIP3    H210026   6.601   6.627   2.754
 3361TIP3   OH210027   2.438   0.309   0.983
 3361TIP3    H110028   2.403   0.241   0.926
 3361TIP3    H210029   2.379   0.311   1.058
 3362TIP3   OH210030   6.961   3.318   3.666
 3362TIP3    H110031   6.885   3.299   3.611
 3362TIP3    H210032   6.944   3.405   3.702
 3363TIP3   OH210033   3.157   3.278   0.414
 3363TIP3    H110034   3.098   3.353   0.418
 3363TIP3    H210035   3.206   3.282   0.497
 3364TIP3   OH210036   7.434   6.463   4.661
 3364TIP3    H110037   7.526   6.462   4.687
 3364TIP3    H210038   7.401   6.547   4.693
 3365TIP3   OH210039   6.674   4.490   0.245
 3365TIP3    H110040   6.591   4.482   0.200
 3365TIP3    H210041   6.704   4.579   0.225
 3366TIP3   OH210042   1.054   3.604   0.123
 3366TIP3    H110043   1.087   3.619   0.212
 3366TIP3    H210044   1.029   3.691   0.092
 3367TIP3   OH210045   1.334   7.083   1.595
 3367TIP3    H110046   1.239   7.072   1.597
 3367TIP3    H210047   1.359   7.100   1.686
 3368TIP3   OH210048   4.862   0.163   4.321
 3368TIP3    H110049   4.906   0.107   4.257
 3368TIP3    H210050   4.882   0.252   4.292
 3369TIP3   OH210051   7.229   4.566   4.799
 3369TIP3    H110052   7.189   4.513   4.729
 3369TIP3    H210053   7.321   4.539   4.799
 3370TIP3   OH210054   3.541   5.989   5.630
 3370TIP3    H110055   3.471   5.925   5.620
 3370TIP3    H210056   3.507   6.069   5.590
 3371TIP3   OH210057   3.264   3.943   2.113
 3371TIP3    H110058   3.180   3.988   2.104
 3371TIP3    H210059   3.329   4.012   2.104
 3372TIP3   OH210060   2.500   4.579   5.978
 3372TIP3    H110061   2.451   4.535   5.909
 3372TIP3    H210062   2.493   4.672   5.957
 3373TIP3   OH210063   5.936   2.183   2.088
 3373TIP3    H110064   5.866   2.118   2.091
 3373TIP3    H210065   5.919   2.240   2.163
 3374TIP3   OH210066   8.243   5.256   4.278
 3374TIP3    H110067   8.155   5.218   4.289
 3374TIP3    H210068   8.262   5.300   4.361
 3375TIP3   OH210069   6.803   3.306   5.487
 3375TIP3    H110070   6.832   3.341   5.572
 3375TIP3    H210071   6.864   3.344   5.424
 3376TIP3   OH210072   0.113   5.407   6.565
 3376TIP3    H110073   0.165   5.416   6.485
 3376TIP3    H210074   0.148   5.474   6.624
 3377TIP3   OH210075   3.051   0.407   3.380
 3377TIP3    H110076   3.012   0.428   3.465
 3377TIP3    H210077   3.057   0.491   3.335
 3378TIP3   OH210078   5.418   6.616   0.042
 3378TIP3    H110079   5.453   6.584   0.125
 3378TIP3    H210080   5.325   6.593   0.045
 3379TIP3   OH210081   2.009   1.493   6.342
 3379TIP3    H110082   1.925   1.534   6.362
 3379TIP3    H210083   2.065   1.565   6.315
 3380TIP3   OH210084   4.917   4.559   0.402
 3380TIP3    H110085   4.948   4.560   0.311
 3380TIP3    H210086   4.841   4.617   0.402
 3381TIP3   OH210087   1.825   5.436   2.608
 3381TIP3    H110088   1.752   5.414   2.667
 3381TIP3    H210089   1.808   5.526   2.581
 3382TIP3   OH210090   3.041   0.440   4.397
 3382TIP3    H110091   3.123   0.418   4.353
 3382TIP3    H210092   3.009   0.517   4.350
 3383TIP3   OH210093   6.756   0.724   6.726
 3383TIP3    H110094   6.819   0.792   6.750
 3383TIP3    H210095   6.694   0.722   6.798
 3384TIP3   OH210096   4.602   2.237   3.245
 3384TIP3    H110097   4.539   2.166   3.253
 3384TIP3    H210098   4.667   2.204   3.182
 3385TIP3   OH210099   4.835   0.104   5.820
 3385TIP3    H110100   4.930   0.096   5.810
 3385TIP3    H210101   4.801   0.021   5.786
 3386TIP3   OH210102   7.099   5.403   6.724
 3386TIP3    H110103   7.077   5.326   6.672
 3386TIP3    H210104   7.194   5.399   6.733
 3387TIP3   OH210105   0.233   4.749   0.932
 3387TIP3    H110106   0.328   4.762   0.932
 3387TIP3    H210107   0.221   4.659   0.900
 3388TIP3   OH210108   1.513   5.037   3.646
 3388TIP3    H110109   1.443   5.062   3.707
 3388TIP3    H210110   1.467   4.999   3.571
 3389TIP3   OH210111   2.462   5.132   3.678
 3389TIP3    H110112   2.462   5.218   3.720
 3389TIP3    H210113   2.468   5.069   3.749
 3390TIP3   OH210114   0.468   6.376   1.362
 3390TIP3    H110115   0.456   6.416   1.276
 3390TIP3    H210116   0.553   6.332   1.356
 3391TIP3   OH210117   1.365   4.300   6.499
 3391TIP3    H110118   1.416   4.329   6.423
 3391TIP3    H210119   1.428   4.293   6.570
 3392TIP3   OH210120   2.438   0.996   3.315
 3392TIP3    H110121   2.499   1.039   3.376
 3392TIP3    H210122   2.456   0.903   3.326
 3393TIP3   OH210123   1.436   2.301   6.578
 3393TIP3    H110124   1.450   2.389   6.542
 3393TIP3    H210125   1.477   2.304   6.664
 3394TIP3   OH210126   7.616   2.521   1.503
 3394TIP3    H110127   7.699   2.552   1.538
 3394TIP3    H210128   7.562   2.599   1.495
 3395TIP3   OH210129   7.564   1.838   6.426
 3395TIP3    H110130   7.473   1.811   6.415
 3395TIP3    H210131   7.559   1.932   6.442
 3396TIP3   OH210132   1.953   0.441   5.190
 3396TIP3    H110133   1.932   0.354   5.226
 3396TIP3    H210134   1.877   0.495   5.213
 3397TIP3   OH210135   8.250   6.498   1.271
 3397TIP3    H110136   8.316   6.565   1.291
 3397TIP3    H210137   8.260   6.434   1.341
 3398TIP3   OH210138   4.846   2.528   3.527
 3398TIP3    H110139   4.780   2.593   3.504
 3398TIP3    H210140   4.881   2.498   3.442
 3399TIP3   OH210141   2.701   7.245   5.330
 3399TIP3    H110142   2.631   7.183   5.350
 3399TIP3    H210143   2.688   7.316   5.393
 3400TIP3   OH210144   6.495   5.414   4.733
 3400TIP3    H110145   6.539   5.402   4.649
 3400TIP3    H210146   6.566   5.420   4.797
 3401TIP3   OH210147   4.197   6.160   6.706
 3401TIP3    H110148   4.127   6.095   6.702
 3401TIP3    H210149   4.277   6.109   6.707
 3402TIP3   OH210150   4.231   0.146   3.986
 3402TIP3    H110151   4.214   0.200   3.909
 3402TIP3    H210152   4.172   0.181   4.053
 3403TIP3   OH210153   2.651   1.221   4.672
 3403TIP3    H110154   2.649   1.264   4.587
 3403TIP3    H210155   2.736   1.177   4.675
 3404TIP3   OH210156   7.852   3.561   1.451
 3404TIP3    H110157   7.878   3.499   1.383
 3404TIP3    H210158   7.929   3.616   1.464
 3405TIP3   OH210159   6.889   5.027   1.536
 3405TIP3    H110160   6.833   4.969   1.588
 3405TIP3    H210161   6.965   5.042   1.592
 3406TIP3   OH210162   0.793   2.942   0.304
 3406TIP3    H110163   0.771   2.951   0.211
 3406TIP3    H210164   0.889   2.943   0.306
 3407TIP3   OH210165   1.483   4.627   5.797
 3407TIP3    H110166   1.431   4.697   5.836
 3407TIP3    H210167   1.568   4.668   5.778
 3408TIP3   OH210168   2.783   5.839   1.695
 3408TIP3    H110169   2.842   5.864   1.765
 3408TIP3    H210170   2.782   5.914   1.636
 3409TIP3   OH210171   8.020   4.860   1.621
 3409TIP3    H110172   7.972   4.892   1.544
 3409TIP3    H210173   7.962   4.794   1.659
 3410TIP3   OH210174   4.133   1.852   4.692
 3410TIP3    H110175   4.217   1.897   4.693
 3410TIP3    H210176   4.132   1.798   4.770
 3411TIP3   OH210177   7.215   7.457   1.815
 3411TIP3    H110178   7.224   7.456   1.720
 3411TIP3    H210179   7.141   7.515   1.831
 3412TIP3   OH210180   6.746   4.084   1.703
 3412TIP3    H110181   6.776   4.012   1.647
 3412TIP3    H210182   6.824   4.109   1.752
 3413TIP3   OH210183   0.700   1.774   0.708
 3413TIP3    H110184   0.612   1.810   0.707
 3413TIP3    H210185   0.689   1.682   0.682
 3414TIP3   OH210186   8.157   4.977   4.222
 3414TIP3    H110187   8.108   4.927   4.287
 3414TIP3    H210188   8.195   4.911   4.164
 3415TIP3   OH210189   7.185   4.626   3.290
 3415TIP3    H110190   7.268   4.656   3.252
 3415TIP3    H210191   7.189   4.531   3.285
 3416TIP3   OH210192   0.981   0.289   2.624
 3416TIP3    H110193   0.988   0.283   2.720
 3416TIP3    H210194   0.897   0.330   2.609
 3417TIP3   OH210195   4.342   4.237   5.742
 3417TIP3    H110196   4.340   4.259   5.649
 3417TIP3    H210197   4.317   4.318   5.786
 3418TIP3   OH210198   1.044   2.668   2.182
 3418TIP3    H110199   1.001   2.700   2.261
 3418TIP3    H210200   1.011   2.579   2.170
 3419TIP3   OH210201   2.143   3.887   0.148
 3419TIP3    H110202   2.195   3.911   0.225
 3419TIP3    H210203   2.170   3.797   0.129
 3420TIP3   OH210204   1.611   3.403   6.635
 3420TIP3    H110205   1.538   3.462   6.616
 3420TIP3    H210206   1.578   3.315   6.618
 3421TIP3   OH210207   6.185   0.279   2.249
 3421TIP3    H110208   6.118   0.259   2.315
 3421TIP3    H210209   6.161   0.225   2.173
 3422TIP3   OH210210   7.895   1.268   4.208
 3422TIP3    H110211   7.984   1.252   4.178
 3422TIP3    H210212   7.840   1.252   4.131
 3423TIP3   OH210213   4.090   3.246   4.444
 3423TIP3    H110214   3.997   3.244   4.422
 3423TIP3    H210215   4.096   3.197   4.526
 3424TIP3   OH210216   5.137   2.548   6.251
 3424TIP3    H110217   5.133   2.622   6.191
 3424TIP3    H210218   5.098   2.476   6.202
 3425TIP3   OH210219   1.984   3.895   1.138
 3425TIP3    H110220   2.055   3.953   1.108
 3425TIP3    H210221   2.020   3.851   1.215
 3426TIP3   OH210222   7.252   0.655   1.809
 3426TIP3    H110223   7.307   0.729   1.784
 3426TIP3    H210224   7.312   0.590   1.842
 3427TIP3   OH210225   2.674   7.469   2.977
 3427TIP3    H110226   2.579   7.466   2.984
 3427TIP3    H210227   2.707   7.435   3.060
 3428TIP3   OH210228   5.989   0.164   2.056
 3428TIP3    H110229   5.915   0.190   2.002
 3428TIP3    H210230   5.951   0.110   2.125
 3429TIP3   OH210231   2.029   7.727   3.980
 3429TIP3    H110232   1.962   7.676   3.936
 3429TIP3    H210233   2.055   7.674   4.056
 3430TIP3   OH210234   3.982   3.425   4.029
 3430TIP3    H110235   3.893   3.391   4.014
 3430TIP3    H210236   4.029   3.351   4.069
 3431TIP3   OH210237   3.515   2.288   2.004
 3431TIP3    H110238   3.522   2.384   1.998
 3431TIP3    H210239   3.536   2.258   1.915
 3432TIP3   OH210240   2.533   4.983   5.171
 3432TIP3    H110241   2.622   4.994   5.206
 3432TIP3    H210242   2.541   4.911   5.108
 3433TIP3   OH210243   2.902   6.398   5.676
 3433TIP3    H110244   2.972   6.367   5.734
 3433TIP3    H210245   2.868   6.476   5.718
 3434TIP3   OH210246   7.626   4.113   6.558
 3434TIP3    H110247   7.558   4.050   6.581
 3434TIP3    H210248   7.690   4.106   6.628
 3435TIP3   OH210249   5.298   4.268   5.501
 3435TIP3    H110250   5.240   4.247   5.427
 3435TIP3    H210251   5.382   4.288   5.460
 3436TIP3   OH210252   4.862   2.572   1.444
 3436TIP3    H110253   4.865   2.501   1.509
 3436TIP3    H210254   4.952   2.605   1.442
 3437TIP3   OH210255   4.314   6.449   3.227
 3437TIP3    H110256   4.224   6.472   3.252
 3437TIP3    H210257   4.304   6.375   3.167
 3438TIP3   OH210258   0.372   2.018   4.522
 3438TIP3    H110259   0.284   2.047   4.496
 3438TIP3    H210260   0.357   1.953   4.590
 3439TIP3   OH210261   7.148   0.585   6.475
 3439TIP3    H110262   7.156   0.489   6.479
 3439TIP3    H210263   7.075   0.600   6.415
 3440TIP3   OH210264   6.421   4.324   5.526
 3440TIP3    H110265   6.410   4.385   5.599
 3440TIP3    H210266   6.435   4.239   5.567
 3441TIP3   OH210267   4.605   5.753   0.004
 3441TIP3    H110268   4.520   5.794   0.020
 3441TIP3    H210269   4.669   5.821   0.024
 3442TIP3   OH210270   2.439   0.092   0.830
 3442TIP3    H110271   2.446   0.099   0.735
 3442TIP3    H210272   2.412   0.002   0.846
 3443TIP3   OH210273   6.100   4.919   5.750
 3443TIP3    H110274   6.157   4.922   5.673
 3443TIP3    H210275   6.011   4.924   5.714
 3444TIP3   OH210276   0.169   0.535   0.260
 3444TIP3    H110277   0.212   0.606   0.308
 3444TIP3    H210278   0.087   0.573   0.229
 3445TIP3   OH210279   1.266   7.001   3.847
 3445TIP3    H110280   1.327   6.932   3.819
 3445TIP3    H210281   1.238   7.043   3.766
 3446TIP3   OH210282   5.648   3.513   0.419
 3446TIP3    H110283   5.701   3.568   0.475
 3446TIP3    H210284   5.643   3.429   0.464
 3447TIP3   OH210285   7.803   6.717   5.667
 3447TIP3    H110286   7.864   6.678   5.605
 3447TIP3    H210287   7.733   6.651   5.676
 3448TIP3   OH210288   6.173   6.050   0.398
 3448TIP3    H110289   6.197   5.976   0.344
 3448TIP3    H210290   6.122   6.012   0.470
 3449TIP3   OH210291   5.370   6.847   0.436
 3449TIP3    H110292   5.338   6.883   0.519
 3449TIP3    H210293   5.309   6.879   0.370
 3450TIP3   OH210294   3.859   4.435   1.589
 3450TIP3    H110295   3.786   4.413   1.648
 3450TIP3    H210296   3.841   4.385   1.509
 3451TIP3   OH210297   8.005   7.637   4.221
 3451TIP3    H110298   7.990   7.594   4.137
 3451TIP3    H210299   7.956   7.719   4.215
 3452TIP3   OH210300   5.275   1.206   1.207
 3452TIP3    H110301   5.265   1.143   1.279
 3452TIP3    H210302   5.300   1.288   1.250
 3453TIP3   OH210303   1.619   0.224   5.911
 3453TIP3    H110304   1.651   0.218   5.821
 3453TIP3    H210305   1.527   0.198   5.905
 3454TIP3   OH210306   5.938   6.660   5.865
 3454TIP3    H110307   5.907   6.624   5.948
 3454TIP3    H210308   6.031   6.640   5.863
 3455TIP3   OH210309   5.541   5.838   1.392
 3455TIP3    H110310   5.633   5.844   1.415
 3455TIP3    H210311   5.495   5.882   1.464
 3456TIP3   OH210312   0.905   4.758   4.073
 3456TIP3    H110313   0.946   4.840   4.101
 3456TIP3    H210314   0.973   4.714   4.022
 3457TIP3   OH210315   6.950   7.634   3.655
 3457TIP3    H110316   6.990   7.589   3.729
 3457TIP3    H210317   7.023   7.651   3.595
 3458TIP3   OH210318   6.022   5.090   4.048
 3458TIP3    H110319   6.055   5.084   4.137
 3458TIP3    H210320   5.978   5.175   4.044
 3459TIP3   OH210321   7.428   5.815   0.755
 3459TIP3    H110322   7.456   5.828   0.664
 3459TIP3    H210323   7.339   5.782   0.748
 3460TIP3   OH210324   2.215   6.944   5.161
 3460TIP3    H110325   2.178   7.012   5.105
 3460TIP3    H210326   2.295   6.918   5.116
 3461TIP3   OH210327   7.967   2.039   6.733
 3461TIP3    H110328   7.937   2.089   6.809
 3461TIP3    H210329   7.899   1.972   6.720
 3462TIP3   OH210330   6.240   5.950   5.771
 3462TIP3    H110331   6.305   5.986   5.711
 3462TIP3    H210332   6.283   5.952   5.857
 3463TIP3   OH210333   1.910   5.009   0.356
 3463TIP3    H110334   1.921   4.923   0.397
 3463TIP3    H210335   1.883   5.067   0.427
 3464TIP3   OH210336   0.718   0.645   1.522
 3464TIP3    H110337   0.795   0.588   1.529
 3464TIP3    H210338   0.687   0.632   1.432
 3465TIP3   OH210339   4.266   1.899   1.293
 3465TIP3    H110340   4.297   1.910   1.203
 3465TIP3    H210341   4.231   1.984   1.317
 3466TIP3   OH210342   3.194   6.543   2.975
 3466TIP3    H110343   3.149   6.573   2.896
 3466TIP3    H210344   3.123   6.518   3.034
 3467TIP3   OH210345   2.278   6.538   6.722
 3467TIP3    H110346   2.325   6.568   6.800
 3467TIP3    H210347   2.301   6.445   6.714
 3468TIP3   OH210348   3.384   7.457   1.746
 3468TIP3    H110349   3.402   7.550   1.759
 3468TIP3    H210350   3.289   7.453   1.735
 3469TIP3   OH210351   7.509   1.740   2.128
 3469TIP3    H110352   7.535   1.800   2.058
 3469TIP3    H210353   7.557   1.659   2.109
 3470TIP3   OH210354   6.665   6.927   5.027
 3470TIP3    H110355   6.634   7.002   5.077
 3470TIP3    H210356   6.592   6.864   5.032
 3471TIP3   OH210357   4.259   5.336   5.916
 3471TIP3    H110358   4.267   5.397   5.843
 3471TIP3    H210359   4.174   5.294   5.905
 3472TIP3   OH210360   2.345   7.276   1.260
 3472TIP3    H110361   2.365   7.359   1.302
 3472TIP3    H210362   2.379   7.284   1.171
 3473TIP3   OH210363   6.034   5.308   5.808
 3473TIP3    H110364   5.974   5.353   5.747
 3473TIP3    H210365   6.023   5.354   5.891
 3474TIP3   OH210366   5.841   1.238   5.374
 3474TIP3    H110367   5.846   1.143   5.390
 3474TIP3    H210368   5.787   1.271   5.445
 3475TIP3   OH210369   2.907   6.671   3.773
 3475TIP3    H110370   3.000   6.649   3.782
 3475TIP3    H210371   2.900   6.707   3.685
 3476TIP3   OH210372   5.702   7.199   5.142
 3476TIP3    H110373   5.674   7.120   5.186
 3476TIP3    H210374   5.779   7.172   5.091
 3477TIP3   OH210375   3.388   3.044   0.752
 3477TIP3    H110376   3.332   2.970   0.729
 3477TIP3    H210377   3.457   3.006   0.806
 3478TIP3   OH210378   7.717   0.096   0.367
 3478TIP3    H110379   7.671   0.071   0.447
 3478TIP3    H210380   7.658   0.070   0.296
 3479TIP3   OH210381   3.661   4.917   0.945
 3479TIP3    H110382   3.724   4.854   0.980
 3479TIP3    H210383   3.713   4.997   0.932
 3480TIP3   OH210384   1.993   2.674   1.969
 3480TIP3    H110385   2.073   2.702   1.925
 3480TIP3    H210386   1.945   2.755   1.986
 3481TIP3   OH210387   0.781   1.906   3.000
 3481TIP3    H110388   0.790   1.878   2.909
 3481TIP3    H210389   0.871   1.912   3.033
 3482TIP3   OH210390   1.477   4.368   0.096
 3482TIP3    H110391   1.427   4.351   0.016
 3482TIP3    H210392   1.420   4.338   0.167
 3483TIP3   OH210393   6.600   6.312   1.097
 3483TIP3    H110394   6.584   6.269   1.013
 3483TIP3    H210395   6.549   6.261   1.160
 3484TIP3   OH210396   2.708   6.294   0.719
 3484TIP3    H110397   2.713   6.277   0.813
 3484TIP3    H210398   2.660   6.220   0.684
 3485TIP3   OH210399   5.409   1.903   6.357
 3485TIP3    H110400   5.347   1.831   6.361
 3485TIP3    H210401   5.450   1.895   6.271
 3486TIP3   OH210402   7.233   1.033   5.055
 3486TIP3    H110403   7.167   1.088   5.098
 3486TIP3    H210404   7.207   0.944   5.077
 3487TIP3   OH210405   3.716   1.429   5.999
 3487TIP3    H110406   3.788   1.457   6.055
 3487TIP3    H210407   3.645   1.408   6.060
 3488TIP3   OH210408   1.538   7.676   4.992
 3488TIP3    H110409   1.629   7.698   4.970
 3488TIP3    H210410   1.531   7.582   4.973
 3489TIP3   OH210411   2.764   7.507   5.814
 3489TIP3    H110412   2.758   7.482   5.906
 3489TIP3    H210413   2.856   7.532   5.801
 3490TIP3   OH210414   7.491   5.692   0.341
 3490TIP3    H110415   7.395   5.695   0.348
 3490TIP3    H210416   7.514   5.605   0.372
 3491TIP3   OH210417   7.174   4.909   4.354
 3491TIP3    H110418   7.139   4.890   4.267
 3491TIP3    H210419   7.215   4.995   4.345
 3492TIP3   OH210420   1.050   7.462   6.155
 3492TIP3    H110421   1.036   7.468   6.250
 3492TIP3    H210422   1.007   7.540   6.120
 3493TIP3   OH210423   0.528   4.248   3.725
 3493TIP3    H110424   0.447   4.222   3.680
 3493TIP3    H210425   0.519   4.212   3.813
 3494TIP3   OH210426   6.533   0.121   4.886
 3494TIP3    H110427   6.529   0.025   4.886
 3494TIP3    H210428   6.593   0.142   4.957
 3495TIP3   OH210429   5.209   5.859   5.677
 3495TIP3    H110430   5.116   5.839   5.681
 3495TIP3    H210431   5.214   5.949   5.645
 3496TIP3   OH210432   0.903   1.037   1.425
 3496TIP3    H110433   0.809   1.027   1.405
 3496TIP3    H210434   0.907   1.038   1.520
 3497TIP3   OH210435   6.263   1.767   2.387
 3497TIP3    H110436   6.337   1.706   2.384
 3497TIP3    H210437   6.302   1.853   2.375
 3498TIP3   OH210438   4.752   7.622   4.552
 3498TIP3    H110439   4.819   7.669   4.501
 3498TIP3    H210440   4.681   7.607   4.489
 3499TIP3   OH210441   2.668   3.361   0.432
 3499TIP3    H110442   2.636   3.392   0.517
 3499TIP3    H210443   2.746   3.413   0.415
 3500TIP3   OH210444   1.726   7.171   1.676
 3500TIP3    H110445   1.716   7.264   1.698
 3500TIP3    H210446   1.710   7.167   1.582
 3501TIP3   OH210447   5.585   3.722   2.590
 3501TIP3    H110448   5.610   3.633   2.613
 3501TIP3    H210449   5.573   3.766   2.674
 3502TIP3   OH210450   7.941   3.031   1.264
 3502TIP3    H110451   7.908   3.018   1.175
 3502TIP3    H210452   7.898   3.111   1.294
 3503TIP3   OH210453   7.044   1.147   1.731
 3503TIP3    H110454   6.984   1.222   1.730
 3503TIP3    H210455   7.030   1.106   1.815
 3504TIP3   OH210456   2.368   6.588   1.929
 3504TIP3    H110457   2.393   6.651   1.862
 3504TIP3    H210458   2.400   6.626   2.011
 3505TIP3   OH210459   6.117   5.840   2.974
 3505TIP3    H110460   6.101   5.746   2.967
 3505TIP3    H210461   6.178   5.860   2.903
 3506TIP3   OH210462   7.702   3.801   0.856
 3506TIP3    H110463   7.708   3.748   0.777
 3506TIP3    H210464   7.618   3.777   0.895
 3507TIP3   OH210465   7.116   5.725   5.296
 3507TIP3    H110466   7.026   5.696   5.311
 3507TIP3    H210467   7.138   5.776   5.374
 3508TIP3   OH210468   4.075   0.653   2.245
 3508TIP3    H110469   4.161   0.616   2.265
 3508TIP3    H210470   4.013   0.592   2.285
 3509TIP3   OH210471   2.791   0.043   3.373
 3509TIP3    H110472   2.716   0.086   3.413
 3509TIP3    H210473   2.753  -0.020   3.312
 3510TIP3   OH210474   4.759   3.510   1.800
 3510TIP3    H110475   4.779   3.467   1.883
 3510TIP3    H210476   4.816   3.466   1.736
 3511TIP3   OH210477   7.615   6.286   1.545
 3511TIP3    H110478   7.578   6.197   1.547
 3511TIP3    H210479   7.639   6.304   1.636
 3512TIP3   OH210480   0.478   4.569   4.062
 3512TIP3    H110481   0.526   4.504   4.011
 3512TIP3    H210482   0.546   4.614   4.113
 3513TIP3   OH210483   7.245   7.112   4.286
 3513TIP3    H110484   7.179   7.181   4.293
 3513TIP3    H210485   7.269   7.093   4.377
 3514TIP3   OH210486   0.105   0.585   2.489
 3514TIP3    H110487   0.079   0.614   2.401
 3514TIP3    H210488   0.048   0.635   2.548
 3515TIP3   OH210489   5.357   5.355   6.354
 3515TIP3    H110490   5.271   5.395   6.370
 3515TIP3    H210491   5.417   5.428   6.344
 3516TIP3   OH210492   2.352   4.569   1.707
 3516TIP3    H110493   2.393   4.487   1.678
 3516TIP3    H210494   2.274   4.541   1.755
 3517TIP3   OH210495   4.135   5.393   1.097
 3517TIP3    H110496   4.066   5.455   1.071
 3517TIP3    H210497   4.207   5.449   1.125
 3518TIP3   OH210498   7.732   1.258   3.736
 3518TIP3    H110499   7.822   1.280   3.710
 3518TIP3    H210500   7.678   1.284   3.661
 3519TIP3   OH210501   1.187  -0.003   6.549
 3519TIP3    H110502   1.267   0.011   6.498
 3519TIP3    H210503   1.216  -0.049   6.627
 3520TIP3   OH210504   1.625   7.310   2.977
 3520TIP3    H110505   1.628   7.262   2.894
 3520TIP3    H210506   1.616   7.401   2.952
 3521TIP3   OH210507   6.149   0.871   3.433
 3521TIP3    H110508   6.211   0.824   3.490
 3521TIP3    H210509   6.112   0.939   3.488
 3522TIP3   OH210510   1.308   1.101   4.929
 3522TIP3    H110511   1.340   1.164   4.994
 3522TIP3    H210512   1.285   1.024   4.980
 3523TIP3   OH210513   6.418   1.387   5.687
 3523TIP3    H110514   6.456   1.343   5.763
 3523TIP3    H210515   6.486   1.448   5.658
 3524TIP3   OH210516   4.963   4.578   3.368
 3524TIP3    H110517   4.918   4.528   3.300
 3524TIP3    H210518   4.934   4.539   3.450
 3525TIP3   OH210519   0.210   1.374   0.458
 3525TIP3    H110520   0.245   1.300   0.409
 3525TIP3    H210521   0.123   1.389   0.421
 3526TIP3   OH210522   1.626   7.520   2.785
 3526TIP3    H110523   1.536   7.548   2.769
 3526TIP3    H210524   1.671   7.600   2.811
 3527TIP3   OH210525   5.224   0.110   5.118
 3527TIP3    H110526   5.277   0.189   5.113
 3527TIP3    H210527   5.272   0.053   5.178
 3528TIP3   OH210528   0.743   2.864   3.054
 3528TIP3    H110529   0.834   2.885   3.075
 3528TIP3    H210530   0.692   2.903   3.126
 3529TIP3   OH210531   2.017   0.709   6.637
 3529TIP3    H110532   2.064   0.791   6.625
 3529TIP3    H210533   1.956   0.727   6.709
 3530TIP3   OH210534   4.434   4.675   4.731
 3530TIP3    H110535   4.456   4.764   4.758
 3530TIP3    H210536   4.417   4.629   4.812
 3531TIP3   OH210537   3.906   6.083   1.768
 3531TIP3    H110538   3.985   6.031   1.780
 3531TIP3    H210539   3.846   6.025   1.722
 3532TIP3   OH210540   6.810   7.248   6.362
 3532TIP3    H110541   6.873   7.306   6.320
 3532TIP3    H210542   6.742   7.308   6.395
 3533TIP3   OH210543   6.037   7.292   0.741
 3533TIP3    H110544   6.007   7.206   0.771
 3533TIP3    H210545   6.132   7.281   0.731
 3534TIP3   OH210546   2.264   1.953   0.563
 3534TIP3    H110547   2.296   1.890   0.628
 3534TIP3    H210548   2.173   1.970   0.589
 3535TIP3   OH210549   6.184   3.821   5.767
 3535TIP3    H110550   6.244   3.805   5.695
 3535TIP3    H210551   6.111   3.760   5.752
 3536TIP3   OH210552   4.783   2.673   1.753
 3536TIP3    H110553   4.830   2.754   1.732
 3536TIP3    H210554   4.704   2.678   1.700
 3537TIP3   OH210555   8.072   2.897   2.180
 3537TIP3    H110556   8.025   2.977   2.202
 3537TIP3    H210557   8.017   2.855   2.113
 3538TIP3   OH210558   7.882   0.347   5.887
 3538TIP3    H110559   7.938   0.279   5.926
 3538TIP3    H210560   7.871   0.319   5.796
 3539TIP3   OH210561   5.489   4.882   1.651
 3539TIP3    H110562   5.418   4.845   1.599
 3539TIP3    H210563   5.555   4.813   1.656
 3540TIP3   OH210564   3.433   5.060   2.493
 3540TIP3    H110565   3.394   5.076   2.579
 3540TIP3    H210566   3.358   5.052   2.434
 3541TIP3   OH210567   1.528   6.789   5.328
 3541TIP3    H110568   1.622   6.802   5.313
 3541TIP3    H210569   1.522   6.759   5.419
 3542TIP3   OH210570   6.420   3.686   0.999
 3542TIP3    H110571   6.436   3.682   0.904
 3542TIP3    H210572   6.411   3.595   1.025
 3543TIP3   OH210573   5.781   1.575   3.545
 3543TIP3    H110574   5.792   1.632   3.469
 3543TIP3    H210575   5.814   1.490   3.517
 3544TIP3   OH210576   7.510   4.457   4.122
 3544TIP3    H110577   7.477   4.409   4.046
 3544TIP3    H210578   7.434   4.504   4.156
 3545TIP3   OH210579   0.888   3.970   4.597
 3545TIP3    H110580   0.853   4.018   4.522
 3545TIP3    H210581   0.824   3.985   4.666
 3546TIP3   OH210582   3.690   6.551   2.538
 3546TIP3    H110583   3.700   6.458   2.518
 3546TIP3    H210584   3.620   6.580   2.479
 3547TIP3   OH210585   4.260   5.098   2.169
 3547TIP3    H110586   4.266   5.192   2.186
 3547TIP3    H210587   4.296   5.056   2.247
 3548TIP3   OH210588   1.732   1.554   3.535
 3548TIP3    H110589   1.815   1.564   3.488
 3548TIP3    H210590   1.755   1.503   3.613
 3549TIP3   OH210591   6.636   5.657   4.364
 3549TIP3    H110592   6.554   5.703   4.350
 3549TIP3    H210593   6.685   5.668   4.283
 3550TIP3   OH210594   1.492   2.142   0.908
 3550TIP3    H110595   1.527   2.163   0.822
 3550TIP3    H210596   1.481   2.047   0.907
 3551TIP3   OH210597   6.360   3.348   5.493
 3551TIP3    H110598   6.320   3.434   5.480
 3551TIP3    H210599   6.441   3.350   5.444
 3552TIP3   OH210600   4.871   0.555   0.633
 3552TIP3    H110601   4.806   0.519   0.572
 3552TIP3    H210602   4.901   0.480   0.684
 3553TIP3   OH210603   4.415   3.774   2.269
 3553TIP3    H110604   4.500   3.784   2.226
 3553TIP3    H210605   4.436   3.735   2.354
 3554TIP3   OH210606   8.011   7.233   5.948
 3554TIP3    H110607   8.011   7.216   6.042
 3554TIP3    H210608   7.998   7.327   5.940
 3555TIP3   OH210609   6.997   4.871   5.772
 3555TIP3    H110610   6.984   4.958   5.810
 3555TIP3    H210611   7.035   4.819   5.843
 3556TIP3   OH210612   7.649   0.565   4.491
 3556TIP3    H110613   7.582   0.528   4.434
 3556TIP3    H210614   7.688   0.636   4.439
 3557TIP3   OH210615   2.267   5.999   3.258
 3557TIP3    H110616   2.217   6.029   3.335
 3557TIP3    H210617   2.356   5.988   3.290
 3558TIP3   OH210618   1.405   6.567   4.573
 3558TIP3    H110619   1.466   6.565   4.647
 3558TIP3    H210620   1.459   6.587   4.497
 3559TIP3   OH210621   5.067   5.853   6.047
 3559TIP3    H110622   5.043   5.912   5.976
 3559TIP3    H210623   5.027   5.892   6.125
 3560TIP3   OH210624   7.042   7.738   5.047
 3560TIP3    H110625   7.068   7.700   4.964
 3560TIP3    H210626   7.111   7.712   5.108
 3561TIP3   OH210627   7.859   1.307   2.085
 3561TIP3    H110628   7.826   1.228   2.128
 3561TIP3    H210629   7.950   1.285   2.062
 3562TIP3   OH210630   3.430   6.976   0.231
 3562TIP3    H110631   3.450   7.053   0.179
 3562TIP3    H210632   3.344   6.994   0.269
 3563TIP3   OH210633   3.973   5.591   3.992
 3563TIP3    H110634   3.903   5.584   4.057
 3563TIP3    H210635   3.963   5.513   3.937
 3564TIP3   OH210636   5.190   5.321   1.427
 3564TIP3    H110637   5.247   5.383   1.381
 3564TIP3    H210638   5.102   5.360   1.421
 3565TIP3   OH210639   2.364   6.224   3.700
 3565TIP3    H110640   2.437   6.245   3.758
 3565TIP3    H210641   2.293   6.200   3.759
 3566TIP3   OH210642   7.459   4.250   2.376
 3566TIP3    H110643   7.489   4.341   2.380
 3566TIP3    H210644   7.441   4.227   2.467
 3567TIP3   OH210645   1.779   0.036   5.996
 3567TIP3    H110646   1.846   0.026   5.928
 3567TIP3    H210647   1.716   0.098   5.959
 3568TIP3   OH210648   7.725   7.768   2.771
 3568TIP3    H110649   7.780   7.729   2.703
 3568TIP3    H210650   7.715   7.700   2.837
 3569TIP3   OH210651   3.848   5.910   5.533
 3569TIP3    H110652   3.777   5.851   5.509
 3569TIP3    H210653   3.868   5.957   5.452
 3570TIP3   OH210654   0.281   1.994   3.437
 3570TIP3    H110655   0.271   1.900   3.452
 3570TIP3    H210656   0.200   2.032   3.471
 3571TIP3   OH210657   7.945   2.923   2.971
 3571TIP3    H110658   8.037   2.939   2.992
 3571TIP3    H210659   7.940   2.828   2.956
 3572TIP3   OH210660   7.973   2.195   6.464
 3572TIP3    H110661   7.969   2.102   6.442
 3572TIP3    H210662   8.059   2.207   6.504
 3573TIP3   OH210663   2.554   7.387   4.937
 3573TIP3    H110664   2.627   7.328   4.953
 3573TIP3    H210665   2.571   7.463   4.993
 3574TIP3   OH210666   3.059   3.889   4.523
 3574TIP3    H110667   3.068   3.975   4.482
 3574TIP3    H210668   3.126   3.887   4.591
 3575TIP3   OH210669   3.802   3.684   5.941
 3575TIP3    H110670   3.851   3.756   5.981
 3575TIP3    H210671   3.710   3.707   5.956
 3576TIP3   OH210672   3.818   2.947   6.228
 3576TIP3    H110673   3.879   2.923   6.159
 3576TIP3    H210674   3.809   3.042   6.220
 3577TIP3   OH210675   6.658   4.446   6.398
 3577TIP3    H110676   6.597   4.372   6.396
 3577TIP3    H210677   6.688   4.450   6.489
 3578TIP3   OH210678   7.133   1.464   2.135
 3578TIP3    H110679   7.159   1.499   2.221
 3578TIP3    H210680   7.139   1.369   2.146
 3579TIP3   OH210681   7.243   4.516   4.135
 3579TIP3    H110682   7.198   4.526   4.051
 3579TIP3    H210683   7.193   4.571   4.195
 3580TIP3   OH210684   1.855   4.772   6.593
 3580TIP3    H110685   1.852   4.857   6.635
 3580TIP3    H210686   1.784   4.774   6.529
 3581TIP3   OH210687   5.944   3.919   4.874
 3581TIP3    H110688   5.884   3.874   4.933
 3581TIP3    H210689   5.921   4.011   4.882
 3582TIP3   OH210690   0.227   3.326   3.290
 3582TIP3    H110691   0.321   3.335   3.271
 3582TIP3    H210692   0.207   3.403   3.343
 3583TIP3   OH210693   7.407   1.486   2.888
 3583TIP3    H110694   7.329   1.540   2.875
 3583TIP3    H210695   7.469   1.545   2.931
 3584TIP3   OH210696   3.993   5.207   4.763
 3584TIP3    H110697   4.079   5.169   4.750
 3584TIP3    H210698   3.953   5.207   4.676
 3585TIP3   OH210699   4.601   2.662   3.490
 3585TIP3    H110700   4.615   2.696   3.578
 3585TIP3    H210701   4.513   2.624   3.493
 3586TIP3   OH210702   2.234   3.477   2.732
 3586TIP3    H110703   2.213   3.405   2.792
 3586TIP3    H210704   2.316   3.451   2.690
 3587TIP3   OH210705   1.869   5.680   4.050
 3587TIP3    H110706   1.950   5.668   4.002
 3587TIP3    H210707   1.868   5.773   4.074
 3588TIP3   OH210708   3.479   2.410   5.041
 3588TIP3    H110709   3.479   2.484   5.103
 3588TIP3    H210710   3.460   2.334   5.096
 3589TIP3   OH210711   5.252   7.509   2.991
 3589TIP3    H110712   5.309   7.507   3.068
 3589TIP3    H210713   5.176   7.455   3.016
 3590TIP3   OH210714   4.150   0.967   5.123
 3590TIP3    H110715   4.061   0.982   5.155
 3590TIP3    H210716   4.152   1.010   5.037
 3591TIP3   OH210717   5.670   5.521   3.345
 3591TIP3    H110718   5.693   5.598   3.398
 3591TIP3    H210719   5.736   5.456   3.368
 3592TIP3   OH210720   4.852   3.636   3.984
 3592TIP3    H110721   4.880   3.711   3.932
 3592TIP3    H210722   4.764   3.658   4.014
 3593TIP3   OH210723   0.515   4.963   4.874
 3593TIP3    H110724   0.533   5.048   4.835
 3593TIP3    H210725   0.462   4.983   4.952
 3594TIP3   OH210726   2.384  -0.041   5.638
 3594TIP3    H110727   2.376  -0.023   5.544
 3594TIP3    H210728   2.439   0.031   5.671
 3595TIP3   OH210729   2.646   7.551   2.057
 3595TIP3    H110730   2.628   7.566   1.964
 3595TIP3    H210731   2.589   7.478   2.081
 3596TIP3   OH210732   6.136   0.901   6.384
 3596TIP3    H110733   6.099   0.874   6.468
 3596TIP3    H210734   6.169   0.819   6.346
 3597TIP3   OH210735   6.537   4.141   2.796
 3597TIP3    H110736   6.556   4.047   2.796
 3597TIP3    H210737   6.450   4.148   2.835
 3598TIP3   OH210738   3.177   3.096   4.831
 3598TIP3    H110739   3.123   3.018   4.842
 3598TIP3    H210740   3.114   3.167   4.821
 3599TIP3   OH210741   0.359   7.444   2.095
 3599TIP3    H110742   0.429   7.379   2.101
 3599TIP3    H210743   0.373   7.487   2.010
 3600TIP3   OH210744   8.080   2.810   5.911
 3600TIP3    H110745   8.089   2.773   5.824
 3600TIP3    H210746   8.121   2.747   5.969
 3601TIP3   OH210747   6.581   7.561   1.165
 3601TIP3    H110748   6.611   7.546   1.254
 3601TIP3    H210749   6.661   7.562   1.113
 3602TIP3   OH210750   6.061   7.393   4.919
 3602TIP3    H110751   6.079   7.487   4.920
 3602TIP3    H210752   6.037   7.374   4.829
 3603TIP3   OH210753   5.632   2.261   4.051
 3603TIP3    H110754   5.588   2.188   4.093
 3603TIP3    H210755   5.635   2.329   4.119
 3604TIP3   OH210756   7.494   1.655   1.021
 3604TIP3    H110757   7.430   1.717   0.985
 3604TIP3    H210758   7.578   1.700   1.014
 3605TIP3   OH210759   6.717   7.462   3.823
 3605TIP3    H110760   6.743   7.548   3.790
 3605TIP3    H210761   6.739   7.464   3.916
 3606TIP3   OH210762   5.447   4.586   6.026
 3606TIP3    H110763   5.412   4.543   5.948
 3606TIP3    H210764   5.520   4.530   6.053
 3607TIP3   OH210765   1.497   2.567   3.377
 3607TIP3    H110766   1.513   2.507   3.450
 3607TIP3    H210767   1.581   2.571   3.331
 3608TIP3   OH210768   3.625   5.504   6.406
 3608TIP3    H110769   3.557   5.439   6.385
 3608TIP3    H210770   3.576   5.582   6.432
 3609TIP3   OH210771   0.578   5.108   1.622
 3609TIP3    H110772   0.610   5.057   1.547
 3609TIP3    H210773   0.548   5.190   1.583
 3610TIP3   OH210774   1.709   0.156   1.744
 3610TIP3    H110775   1.631   0.208   1.727
 3610TIP3    H210776   1.686   0.099   1.817
 3611TIP3   OH210777   0.743   4.058   4.832
 3611TIP3    H110778   0.763   4.025   4.919
 3611TIP3    H210779   0.782   4.146   4.830
 3612TIP3   OH210780   3.477   3.109   4.086
 3612TIP3    H110781   3.445   3.066   4.166
 3612TIP3    H210782   3.414   3.179   4.070
 3613TIP3   OH210783   1.939   5.875   3.852
 3613TIP3    H110784   1.895   5.903   3.932
 3613TIP3    H210785   1.868   5.849   3.793
 3614TIP3   OH210786   3.440   3.714   6.644
 3614TIP3    H110787   3.473   3.697   6.556
 3614TIP3    H210788   3.390   3.635   6.666
 3615TIP3   OH210789   5.011   3.458   2.203
 3615TIP3    H110790   5.017   3.374   2.248
 3615TIP3    H210791   4.963   3.515   2.263
 3616TIP3   OH210792   0.731   2.445   5.204
 3616TIP3    H110793   0.711   2.370   5.148
 3616TIP3    H210794   0.769   2.406   5.283
 3617TIP3   OH210795   2.063   5.533   0.215
 3617TIP3    H110796   2.068   5.456   0.271
 3617TIP3    H210797   2.113   5.600   0.261
 3618TIP3   OH210798   2.800   4.089   4.292
 3618TIP3    H110799   2.770   3.999   4.282
 3618TIP3    H210800   2.894   4.084   4.280
 3619TIP3   OH210801   6.355   3.821   5.522
 3619TIP3    H110802   6.301   3.779   5.455
 3619TIP3    H210803   6.372   3.751   5.586
 3620TIP3   OH210804   4.255   2.777   0.618
 3620TIP3    H110805   4.281   2.869   0.607
 3620TIP3    H210806   4.324   2.740   0.674
 3621TIP3   OH210807   2.034   5.115   3.721
 3621TIP3    H110808   1.991   5.092   3.639
 3621TIP3    H210809   2.111   5.165   3.695
 3622TIP3   OH210810   4.688   2.338   6.699
 3622TIP3    H110811   4.669   2.403   6.631
 3622TIP3    H210812   4.660   2.380   6.781
 3623TIP3   OH210813   2.223   4.321   0.444
 3623TIP3    H110814   2.297   4.317   0.504
 3623TIP3    H210815   2.173   4.241   0.462
 3624TIP3   OH210816   3.942   3.527   3.686
 3624TIP3    H110817   3.878   3.547   3.618
 3624TIP3    H210818   3.923   3.437   3.712
 3625TIP3   OH210819   2.111   4.813   4.017
 3625TIP3    H110820   2.030   4.763   4.021
 3625TIP3    H210821   2.083   4.903   3.997
 3626TIP3   OH210822   6.527   6.549   5.396
 3626TIP3    H110823   6.480   6.486   5.451
 3626TIP3    H210824   6.618   6.541   5.424
 3627TIP3   OH210825   3.687   4.067   1.544
 3627TIP3    H110826   3.639   4.006   1.599
 3627TIP3    H210827   3.636   4.148   1.547
 3628TIP3   OH210828   5.584   2.306   0.055
 3628TIP3    H110829   5.630   2.261   0.125
 3628TIP3    H210830   5.506   2.344   0.097
 3629TIP3   OH210831   1.735   6.462   4.293
 3629TIP3    H110832   1.699   6.410   4.365
 3629TIP3    H210833   1.760   6.397   4.227
 3630TIP3   OH210834   4.394   1.861   0.359
 3630TIP3    H110835   4.459   1.794   0.340
 3630TIP3    H210836   4.431   1.911   0.432
 3631TIP3   OH210837   5.693   5.649   3.746
 3631TIP3    H110838   5.636   5.664   3.821
 3631TIP3    H210839   5.738   5.732   3.732
 3632TIP3   OH210840   5.920   4.450   1.519
 3632TIP3    H110841   5.850   4.388   1.502
 3632TIP3    H210842   5.966   4.414   1.595
 3633TIP3   OH210843   3.143   2.328   2.739
 3633TIP3    H110844   3.096   2.356   2.660
 3633TIP3    H210845   3.171   2.238   2.719
 3634TIP3   OH210846   8.138   0.406   3.185
 3634TIP3    H110847   8.127   0.492   3.145
 3634TIP3    H210848   8.052   0.385   3.222
 3635TIP3   OH210849   0.482   6.206   6.022
 3635TIP3    H110850   0.567   6.249   6.032
 3635TIP3    H210851   0.487   6.130   6.080
 3636TIP3   OH210852   1.392   0.904   3.283
 3636TIP3    H110853   1.332   0.864   3.220
 3636TIP3    H210854   1.473   0.920   3.233
 3637TIP3   OH210855   2.563   7.194   0.430
 3637TIP3    H110856   2.632   7.201   0.364
 3637TIP3    H210857   2.587   7.259   0.496
 3638TIP3   OH210858   3.921   0.876   5.842
 3638TIP3    H110859   3.934   0.846   5.751
 3638TIP3    H210860   3.954   0.804   5.895
 3639TIP3   OH210861   6.640   3.872   6.577
 3639TIP3    H110862   6.614   3.961   6.602
 3639TIP3    H210863   6.648   3.825   6.661
 3640TIP3   OH210864   0.022   3.463   3.811
 3640TIP3    H110865   0.069   3.517   3.874
 3640TIP3    H210866   0.017   3.377   3.853
 3641TIP3   OH210867   6.070   5.626   6.392
 3641TIP3    H110868   6.018   5.684   6.447
 3641TIP3    H210869   6.135   5.588   6.451
 3642TIP3   OH210870   2.199   6.280   0.354
 3642TIP3    H110871   2.159   6.194   0.343
 3642TIP3    H210872   2.207   6.291   0.449
 3643TIP3   OH210873   1.193   6.364   4.798
 3643TIP3    H110874   1.133   6.359   4.873
 3643TIP3    H210875   1.179   6.282   4.751
 3644TIP3   OH210876   1.797   2.228   4.237
 3644TIP3    H110877   1.873   2.189   4.193
 3644TIP3    H210878   1.744   2.263   4.166
 3645TIP3   OH210879   6.113   5.590   3.747
 3645TIP3    H110880   6.151   5.517   3.795
 3645TIP3    H210881   6.044   5.623   3.804
 3646TIP3   OH210882   5.297   5.080   0.889
 3646TIP3    H110883   5.216   5.130   0.895
 3646TIP3    H210884   5.288   5.011   0.955
 3647TIP3   OH210885   6.658   5.169   1.493
 3647TIP3    H110886   6.693   5.258   1.500
 3647TIP3    H210887   6.735   5.113   1.497
 3648TIP3   OH210888   2.577   3.890  -0.009
 3648TIP3    H110889   2.567   3.853   0.079
 3648TIP3    H210890   2.617   3.976   0.006
 3649TIP3   OH210891   7.888   3.011   5.916
 3649TIP3    H110892   7.947   2.938   5.896
 3649TIP3    H210893   7.810   2.994   5.863
 3650TIP3   OH210894   1.442   1.063   1.115
 3650TIP3    H110895   1.514   1.126   1.114
 3650TIP3    H210896   1.476   0.989   1.165
 3651TIP3   OH210897   7.695   3.142   6.107
 3651TIP3    H110898   7.750   3.099   6.042
 3651TIP3    H210899   7.609   3.147   6.066
 3652TIP3   OH210900   4.459   6.044   5.686
 3652TIP3    H110901   4.409   6.124   5.698
 3652TIP3    H210902   4.540   6.072   5.644
 3653TIP3   OH210903   8.153   3.949   2.712
 3653TIP3    H110904   8.156   3.934   2.617
 3653TIP3    H210905   8.087   4.017   2.723
 3654TIP3   OH210906   3.575   0.796   0.175
 3654TIP3    H110907   3.509   0.860   0.202
 3654TIP3    H210908   3.532   0.711   0.185
 3655TIP3   OH210909   7.843   4.943   2.353
 3655TIP3    H110910   7.799   4.986   2.426
 3655TIP3    H210911   7.842   5.009   2.283
 3656TIP3   OH210912   6.363   2.091   1.518
 3656TIP3    H110913   6.310   2.170   1.525
 3656TIP3    H210914   6.432   2.103   1.583
 3657TIP3   OH210915   1.183   2.081   3.833
 3657TIP3    H110916   1.265   2.032   3.823
 3657TIP3    H210917   1.146   2.048   3.914
 3658TIP3   OH210918   7.089   3.925   2.474
 3658TIP3    H110919   7.107   4.016   2.499
 3658TIP3    H210920   7.132   3.873   2.542
 3659TIP3   OH210921   6.844   3.559   6.084
 3659TIP3    H110922   6.858   3.604   6.001
 3659TIP3    H210923   6.752   3.534   6.082
 3660TIP3   OH210924   1.521   7.428   3.212
 3660TIP3    H110925   1.590   7.481   3.252
 3660TIP3    H210926   1.568   7.369   3.153
 3661TIP3   OH210927   1.738   2.997   4.482
 3661TIP3    H110928   1.705   2.933   4.545
 3661TIP3    H210929   1.682   3.074   4.495
 3662TIP3   OH210930   2.320   7.683   1.271
 3662TIP3    H110931   2.392   7.744   1.253
 3662TIP3    H210932   2.280   7.668   1.185
 3663TIP3   OH210933   2.404   4.716   3.416
 3663TIP3    H110934   2.447   4.796   3.446
 3663TIP3    H210935   2.464   4.646   3.440
 3664TIP3   OH210936   2.476   5.375   3.781
 3664TIP3    H110937   2.406   5.433   3.750
 3664TIP3    H210938   2.477   5.389   3.876
 3665TIP3   OH210939   5.374   1.110   4.808
 3665TIP3    H110940   5.458   1.148   4.831
 3665TIP3    H210941   5.344   1.067   4.888
 3666TIP3   OH210942   4.306   7.171   6.564
 3666TIP3    H110943   4.401   7.182   6.565
 3666TIP3    H210944   4.272   7.258   6.541
 3667TIP3   OH210945   0.908   0.717   0.345
 3667TIP3    H110946   0.919   0.622   0.349
 3667TIP3    H210947   0.997   0.750   0.336
 3668TIP3   OH210948   0.160   5.097   2.284
 3668TIP3    H110949   0.216   5.088   2.207
 3668TIP3    H210950   0.171   5.188   2.312
 3669TIP3   OH210951   5.548   7.291   4.956
 3669TIP3    H110952   5.604   7.248   5.020
 3669TIP3    H210953   5.513   7.367   5.002
 3670TIP3   OH210954   0.066   0.483   4.522
 3670TIP3    H110955   0.117   0.560   4.498
 3670TIP3    H210956   0.069   0.427   4.444
 3671TIP3   OH210957   1.699   6.380   5.423
 3671TIP3    H110958   1.625   6.321   5.407
 3671TIP3    H210959   1.692   6.445   5.352
 3672TIP3   OH210960   3.339   0.505   1.864
 3672TIP3    H110961   3.259   0.483   1.911
 3672TIP3    H210962   3.313   0.574   1.803
 3673TIP3   OH210963   4.781   6.856   4.935
 3673TIP3    H110964   4.870   6.852   4.969
 3673TIP3    H210965   4.785   6.808   4.852
 3674TIP3   OH210966   5.414   1.035   6.226
 3674TIP3    H110967   5.365   1.016   6.306
 3674TIP3    H210968   5.356   1.005   6.155
 3675TIP3   OH210969   3.280   2.041   6.199
 3675TIP3    H110970   3.214   1.982   6.163
 3675TIP3    H210971   3.238   2.127   6.200
 3676TIP3   OH210972   4.630   7.503   0.151
 3676TIP3    H110973   4.704   7.442   0.147
 3676TIP3    H210974   4.670   7.589   0.136
 3677TIP3   OH210975   1.381   4.707   1.194
 3677TIP3    H110976   1.409   4.673   1.109
 3677TIP3    H210977   1.328   4.637   1.232
 3678TIP3   OH210978   5.080   4.819   2.143
 3678TIP3    H110979   5.061   4.744   2.087
 3678TIP3    H210980   5.019   4.809   2.217
 3679TIP3   OH210981   4.722   7.058   2.526
 3679TIP3    H110982   4.760   7.079   2.611
 3679TIP3    H210983   4.665   6.983   2.543
 3680TIP3   OH210984   0.395   2.094   5.213
 3680TIP3    H110985   0.448   2.107   5.292
 3680TIP3    H210986   0.424   2.009   5.179
 3681TIP3   OH210987   2.016   2.387   4.558
 3681TIP3    H110988   2.092   2.362   4.610
 3681TIP3    H210989   2.042   2.369   4.467
 3682TIP3   OH210990   6.776   4.187   5.785
 3682TIP3    H110991   6.834   4.261   5.803
 3682TIP3    H210992   6.737   4.208   5.699
 3683TIP3   OH210993   4.492   2.225   4.667
 3683TIP3    H110994   4.530   2.248   4.582
 3683TIP3    H210995   4.509   2.301   4.722
 3684TIP3   OH210996   7.702   0.190   5.406
 3684TIP3    H110997   7.629   0.129   5.414
 3684TIP3    H210998   7.670   0.270   5.446
 3685TIP3   OH210999   3.796   0.251   2.361
 3685TIP3    H111000   3.801   0.156   2.366
 3685TIP3    H211001   3.707   0.269   2.332
 3686TIP3   OH211002   6.763   0.799   4.419
 3686TIP3    H111003   6.739   0.889   4.442
 3686TIP3    H211004   6.757   0.796   4.323
 3687TIP3   OH211005   1.459   5.644   1.489
 3687TIP3    H111006   1.446   5.710   1.421
 3687TIP3    H211007   1.552   5.653   1.513
 3688TIP3   OH211008   3.529   6.655   2.751
 3688TIP3    H111009   3.458   6.717   2.736
 3688TIP3    H211010   3.486   6.575   2.779
 3689TIP3   OH211011   4.814   4.752   4.675
 3689TIP3    H111012   4.788   4.828   4.727
 3689TIP3    H211013   4.774   4.678   4.720
 3690TIP3   OH211014   5.185   7.402   3.630
 3690TIP3    H111015   5.225   7.474   3.581
 3690TIP3    H211016   5.255   7.337   3.640
 3691TIP3   OH211017   3.786   0.738   1.475
 3691TIP3    H111018   3.765   0.656   1.429
 3691TIP3    H211019   3.881   0.744   1.471
 3692TIP3   OH211020   2.760   5.903   6.411
 3692TIP3    H111021   2.762   5.914   6.506
 3692TIP3    H211022   2.713   5.821   6.397
 3693TIP3   OH211023   7.135   6.944   5.273
 3693TIP3    H111024   7.073   6.871   5.276
 3693TIP3    H211025   7.080   7.022   5.282
 3694TIP3   OH211026   6.846   7.484   4.068
 3694TIP3    H111027   6.869   7.563   4.118
 3694TIP3    H211028   6.798   7.430   4.131
 3695TIP3   OH211029   3.321   2.092   3.512
 3695TIP3    H111030   3.282   2.047   3.438
 3695TIP3    H211031   3.287   2.181   3.508
 3696TIP3   OH211032   4.320   2.119   4.198
 3696TIP3    H111033   4.377   2.045   4.218
 3696TIP3    H211034   4.308   2.163   4.282
 3697TIP3   OH211035   7.998   3.184   6.190
 3697TIP3    H111036   8.042   3.265   6.214
 3697TIP3    H211037   7.905   3.201   6.208
 3698TIP3   OH211038   4.742  -0.032   3.007
 3698TIP3    H111039   4.666  -0.048   2.951
 3698TIP3    H211040   4.727   0.056   3.043
 3699TIP3   OH211041   7.552   3.987   3.215
 3699TIP3    H111042   7.468   3.958   3.250
 3699TIP3    H211043   7.550   4.082   3.224
 3700TIP3   OH211044   0.879   2.145   5.154
 3700TIP3    H111045   0.859   2.115   5.242
 3700TIP3    H211046   0.819   2.097   5.098
 3701TIP3   OH211047   6.136   5.112   6.504
 3701TIP3    H111048   6.155   5.031   6.550
 3701TIP3    H211049   6.138   5.088   6.411
 3702TIP3   OH211050   0.844   0.138   3.404
 3702TIP3    H111051   0.855   0.228   3.435
 3702TIP3    H211052   0.865   0.084   3.480
 3703TIP3   OH211053   7.647   1.642   5.019
 3703TIP3    H111054   7.621   1.627   5.110
 3703TIP3    H211055   7.742   1.653   5.023
 3704TIP3   OH211056   1.697   1.171   3.284
 3704TIP3    H111057   1.663   1.090   3.246
 3704TIP3    H211058   1.783   1.146   3.320
 3705TIP3   OH211059   4.570   2.849   0.938
 3705TIP3    H111060   4.589   2.810   1.023
 3705TIP3    H211061   4.657   2.861   0.898
 3706TIP3   OH211062   6.727   1.314   6.781
 3706TIP3    H111063   6.801   1.372   6.796
 3706TIP3    H211064   6.656   1.373   6.755
 3707TIP3   OH211065   0.367   4.224   4.172
 3707TIP3    H111066   0.272   4.222   4.169
 3707TIP3    H211067   0.388   4.301   4.224
 3708TIP3   OH211068   4.270   4.822   0.130
 3708TIP3    H111069   4.299   4.912   0.115
 3708TIP3    H211070   4.235   4.793   0.046
 3709TIP3   OH211071   5.495   6.363   0.791
 3709TIP3    H111072   5.552   6.425   0.744
 3709TIP3    H211073   5.407   6.399   0.780
 3710TIP3   OH211074   6.864   4.530   2.653
 3710TIP3    H111075   6.959   4.522   2.646
 3710TIP3    H211076   6.850   4.617   2.688
 3711TIP3   OH211077   8.301   3.202   1.448
 3711TIP3    H111078   8.215   3.173   1.418
 3711TIP3    H211079   8.289   3.294   1.472
 3712TIP3   OH211080   2.447   2.672   2.022
 3712TIP3    H111081   2.536   2.636   2.020
 3712TIP3    H211082   2.404   2.625   2.095
 3713TIP3   OH211083   4.770   1.891   6.558
 3713TIP3    H111084   4.781   1.928   6.471
 3713TIP3    H211085   4.786   1.797   6.547
 3714TIP3   OH211086   0.559   1.776   5.861
 3714TIP3    H111087   0.654   1.776   5.852
 3714TIP3    H211088   0.526   1.775   5.771
 3715TIP3   OH211089   5.042   5.635   3.919
 3715TIP3    H111090   5.028   5.686   4.000
 3715TIP3    H211091   5.005   5.549   3.939
 3716TIP3   OH211092   2.475   3.604   5.530
 3716TIP3    H111093   2.429   3.538   5.582
 3716TIP3    H211094   2.521   3.657   5.595
 3717TIP3   OH211095   3.010   0.784   1.755
 3717TIP3    H111096   2.948   0.738   1.811
 3717TIP3    H211097   2.957   0.849   1.708
 3718TIP3   OH211098   5.835   1.554   3.799
 3718TIP3    H111099   5.797   1.558   3.711
 3718TIP3    H211100   5.861   1.644   3.819
 3719TIP3   OH211101   5.480   4.047   5.256
 3719TIP3    H111102   5.410   3.988   5.284
 3719TIP3    H211103   5.482   4.114   5.324
 3720TIP3   OH211104   0.366   4.785   2.664
 3720TIP3    H111105   0.317   4.708   2.693
 3720TIP3    H211106   0.336   4.800   2.574
 3721TIP3   OH211107   4.397   2.140   1.631
 3721TIP3    H111108   4.397   2.049   1.659
 3721TIP3    H211109   4.305   2.164   1.628
 3722TIP3   OH211110   5.585   1.979   1.231
 3722TIP3    H111111   5.658   2.022   1.186
 3722TIP3    H211112   5.561   2.040   1.301
 3723TIP3   OH211113   1.559   5.088   0.321
 3723TIP3    H111114   1.608   5.118   0.244
 3723TIP3    H211115   1.510   5.165   0.350
 3724TIP3   OH211116   6.317   6.328   5.942
 3724TIP3    H111117   6.351   6.300   6.027
 3724TIP3    H211118   6.392   6.319   5.882
 3725TIP3   OH211119   5.554   3.193   3.116
 3725TIP3    H111120   5.488   3.255   3.086
 3725TIP3    H211121   5.556   3.204   3.211
 3726TIP3   OH211122   3.414  -0.039   3.851
 3726TIP3    H111123   3.431   0.052   3.828
 3726TIP3    H211124   3.443  -0.047   3.942
 3727TIP3   OH211125   4.696   6.517   4.933
 3727TIP3    H111126   4.610   6.559   4.944
 3727TIP3    H211127   4.759   6.587   4.953
 3728TIP3   OH211128   3.509   5.420   3.217
 3728TIP3    H111129   3.486   5.341   3.267
 3728TIP3    H211130   3.598   5.441   3.245
 3729TIP3   OH211131   1.409   1.572   5.550
 3729TIP3    H111132   1.494   1.529   5.544
 3729TIP3    H211133   1.394   1.607   5.462
 3730TIP3   OH211134   5.752   5.022   0.192
 3730TIP3    H111135   5.692   5.059   0.128
 3730TIP3    H211136   5.825   5.085   0.196
 3731TIP3   OH211137   8.306   1.735   2.506
 3731TIP3    H111138   8.251   1.709   2.432
 3731TIP3    H211139   8.245   1.739   2.580
 3732TIP3   OH211140   5.837   3.601   3.618
 3732TIP3    H111141   5.884   3.518   3.630
 3732TIP3    H211142   5.806   3.623   3.706
 3733TIP3   OH211143   7.636   1.620   3.313
 3733TIP3    H111144   7.585   1.684   3.361
 3733TIP3    H211145   7.618   1.537   3.357
 3734TIP3   OH211146   0.021   4.729   4.809
 3734TIP3    H111147   0.075   4.754   4.884
 3734TIP3    H211148   0.065   4.768   4.734
 3735TIP3   OH211149   7.927   2.439   2.863
 3735TIP3    H111150   7.848   2.469   2.909
 3735TIP3    H211151   7.905   2.444   2.770
 3736TIP3   OH211152   2.493   7.702   3.587
 3736TIP3    H111153   2.426   7.690   3.654
 3736TIP3    H211154   2.452   7.672   3.506
 3737TIP3   OH211155   6.464   1.740   5.997
 3737TIP3    H111156   6.410   1.770   6.071
 3737TIP3    H211157   6.446   1.647   5.991
 3738TIP3   OH211158   2.598   0.932   5.007
 3738TIP3    H111159   2.637   0.880   5.078
 3738TIP3    H211160   2.524   0.880   4.977
 3739TIP3   OH211161   6.898   6.691   1.510
 3739TIP3    H111162   6.815   6.665   1.550
 3739TIP3    H211163   6.956   6.617   1.526
 3740TIP3   OH211164   2.648  -0.012   2.217
 3740TIP3    H111165   2.594   0.005   2.140
 3740TIP3    H211166   2.726  -0.057   2.183
 3741TIP3   OH211167   1.696   0.652   3.343
 3741TIP3    H111168   1.613   0.634   3.299
 3741TIP3    H211169   1.752   0.690   3.276
 3742TIP3   OH211170   3.632   6.459   3.946
 3742TIP3    H111171   3.592   6.545   3.934
 3742TIP3    H211172   3.725   6.474   3.930
 3743TIP3   OH211173   5.681   2.877   1.522
 3743TIP3    H111174   5.676   2.960   1.570
 3743TIP3    H211175   5.695   2.903   1.431
 3744TIP3   OH211176   6.549   0.007   1.387
 3744TIP3    H111177   6.614  -0.041   1.437
 3744TIP3    H211178   6.600   0.067   1.332
 3745TIP3   OH211179   2.887   7.139   0.922
 3745TIP3    H111180   2.936   7.108   0.845
 3745TIP3    H211181   2.915   7.230   0.932
 3746TIP3   OH211182   6.951   3.690   4.076
 3746TIP3    H111183   6.972   3.712   4.167
 3746TIP3    H211184   7.010   3.745   4.024
 3747TIP3   OH211185   4.294   0.547   5.985
 3747TIP3    H111186   4.201   0.527   5.996
 3747TIP3    H211187   4.327   0.555   6.075
 3748TIP3   OH211188   3.611   7.380   4.001
 3748TIP3    H111189   3.549   7.408   4.068
 3748TIP3    H211190   3.580   7.294   3.973
 3749TIP3   OH211191   0.767   5.744   2.572
 3749TIP3    H111192   0.805   5.827   2.542
 3749TIP3    H211193   0.843   5.689   2.591
 3750TIP3   OH211194   7.885   6.232   4.542
 3750TIP3    H111195   7.973   6.235   4.504
 3750TIP3    H211196   7.832   6.189   4.476
 3751TIP3   OH211197   4.011   2.879   5.495
 3751TIP3    H111198   4.014   2.850   5.404
 3751TIP3    H211199   4.101   2.872   5.526
 3752TIP3   OH211200   2.974   3.364   5.622
 3752TIP3    H111201   2.986   3.277   5.585
 3752TIP3    H211202   2.880   3.376   5.628
 3753TIP3   OH211203   8.125   5.512   0.181
 3753TIP3    H111204   8.060   5.581   0.166
 3753TIP3    H211205   8.087   5.459   0.251
 3754TIP3   OH211206   4.965   7.541   0.938
 3754TIP3    H111207   4.887   7.517   0.888
 3754TIP3    H211208   5.021   7.464   0.936
 3755TIP3   OH211209   0.744   3.640   6.154
 3755TIP3    H111210   0.808   3.689   6.206
 3755TIP3    H211211   0.798   3.586   6.096
 3756TIP3   OH211212   0.360   5.798   5.780
 3756TIP3    H111213   0.335   5.889   5.767
 3756TIP3    H211214   0.455   5.800   5.793
 3757TIP3   OH211215   3.112   7.330   4.698
 3757TIP3    H111216   3.161   7.289   4.769
 3757TIP3    H211217   3.128   7.424   4.708
 3758TIP3   OH211218   4.162   5.861   2.409
 3758TIP3    H111219   4.197   5.833   2.494
 3758TIP3    H211220   4.142   5.954   2.420
 3759TIP3   OH211221   3.922   1.229   4.236
 3759TIP3    H111222   3.829   1.231   4.259
 3759TIP3    H211223   3.926   1.279   4.154
 3760TIP3   OH211224   4.008   0.639   1.793
 3760TIP3    H111225   4.100   0.613   1.780
 3760TIP3    H211226   3.971   0.567   1.845
 3761TIP3   OH211227   1.471   0.280   1.721
 3761TIP3    H111228   1.401   0.268   1.786
 3761TIP3    H211229   1.431   0.334   1.653
 3762TIP3   OH211230   6.625   0.861   5.009
 3762TIP3    H111231   6.542   0.845   5.052
 3762TIP3    H211232   6.676   0.912   5.072
 3763TIP3   OH211233   0.324   3.695   3.274
 3763TIP3    H111234   0.345   3.777   3.318
 3763TIP3    H211235   0.392   3.633   3.303
 3764TIP3   OH211236   7.525   0.343   5.802
 3764TIP3    H111237   7.564   0.425   5.830
 3764TIP3    H211238   7.554   0.279   5.867
 3765TIP3   OH211239   3.751   4.734   2.149
 3765TIP3    H111240   3.665   4.731   2.191
 3765TIP3    H211241   3.737   4.786   2.070
 3766TIP3   OH211242   0.992   7.249   1.075
 3766TIP3    H111243   0.956   7.297   1.149
 3766TIP3    H211244   0.956   7.161   1.084
 3767TIP3   OH211245   2.256   0.359   2.745
 3767TIP3    H111246   2.309   0.323   2.817
 3767TIP3    H211247   2.309   0.344   2.667
 3768TIP3   OH211248   8.172   0.796   4.720
 3768TIP3    H111249   8.110   0.782   4.649
 3768TIP3    H211250   8.154   0.725   4.782
 3769TIP3   OH211251   2.960   6.131   5.601
 3769TIP3    H111252   2.914   6.211   5.575
 3769TIP3    H211253   2.906   6.061   5.565
 3770TIP3   OH211254   4.209   7.742   0.886
 3770TIP3    H111255   4.244   7.729   0.798
 3770TIP3    H211256   4.201   7.654   0.922
 3771TIP3   OH211257   7.436   3.245   1.630
 3771TIP3    H111258   7.444   3.304   1.555
 3771TIP3    H211259   7.342   3.229   1.638
 3772TIP3   OH211260   7.278   0.104   3.970
 3772TIP3    H111261   7.244   0.076   3.885
 3772TIP3    H211262   7.200   0.106   4.027
 3773TIP3   OH211263   2.285   5.447   0.525
 3773TIP3    H111264   2.340   5.435   0.602
 3773TIP3    H211265   2.273   5.359   0.490
 3774TIP3   OH211266   8.020   1.693   2.603
 3774TIP3    H111267   8.092   1.635   2.628
 3774TIP3    H211268   8.031   1.706   2.509
 3775TIP3   OH211269   5.239   3.445   0.736
 3775TIP3    H111270   5.225   3.532   0.700
 3775TIP3    H211271   5.202   3.385   0.672
 3776TIP3   OH211272   4.162   1.102   6.147
 3776TIP3    H111273   4.179   1.026   6.203
 3776TIP3    H211274   4.152   1.065   6.059
 3777TIP3   OH211275   1.207   4.848   6.174
 3777TIP3    H111276   1.204   4.935   6.213
 3777TIP3    H211277   1.130   4.803   6.208
 3778TIP3   OH211278   7.718   0.488   0.905
 3778TIP3    H111279   7.643   0.520   0.854
 3778TIP3    H211280   7.757   0.420   0.850
 3779TIP3   OH211281   7.990   4.571  -0.042
 3779TIP3    H111282   8.056   4.631  -0.008
 3779TIP3    H211283   7.936   4.548   0.034
 3780TIP3   OH211284   4.882   3.142   4.973
 3780TIP3    H111285   4.803   3.150   5.027
 3780TIP3    H211286   4.877   3.216   4.912
 3781TIP3   OH211287   1.640   2.318   4.001
 3781TIP3    H111288   1.558   2.361   3.979
 3781TIP3    H211289   1.708   2.380   3.975
 3782TIP3   OH211290   2.538   2.930   4.112
 3782TIP3    H111291   2.605   2.995   4.133
 3782TIP3    H211292   2.511   2.952   4.023
 3783TIP3   OH211293   4.519   2.563   5.766
 3783TIP3    H111294   4.491   2.538   5.854
 3783TIP3    H211295   4.566   2.486   5.733
 3784TIP3   OH211296   2.644   4.735   3.112
 3784TIP3    H111297   2.718   4.774   3.159
 3784TIP3    H211298   2.669   4.736   3.020
 3785TIP3   OH211299   6.373   5.915   6.011
 3785TIP3    H111300   6.360   5.893   6.104
 3785TIP3    H211301   6.464   5.943   6.006
 3786TIP3   OH211302   5.867   2.346   4.270
 3786TIP3    H111303   5.806   2.384   4.206
 3786TIP3    H211304   5.925   2.418   4.294
 3787TIP3   OH211305   7.794   3.123   1.906
 3787TIP3    H111306   7.786   3.125   2.002
 3787TIP3    H211307   7.706   3.101   1.875
 3788TIP3   OH211308   5.024   2.859   1.651
 3788TIP3    H111309   5.100   2.806   1.628
 3788TIP3    H211310   5.059   2.930   1.704
 3789TIP3   OH211311   8.169   4.029   0.149
 3789TIP3    H111312   8.111   4.105   0.160
 3789TIP3    H211313   8.212   4.018   0.233
 3790TIP3   OH211314   3.688   6.640   1.656
 3790TIP3    H111315   3.727   6.567   1.704
 3790TIP3    H211316   3.595   6.636   1.678
 3791TIP3   OH211317   0.735   6.746   1.921
 3791TIP3    H111318   0.662   6.738   1.983
 3791TIP3    H211319   0.810   6.710   1.969
 3792TIP3   OH211320   6.152   5.562   0.405
 3792TIP3    H111321   6.153   5.631   0.472
 3792TIP3    H211322   6.150   5.610   0.322
 3793TIP3   OH211323   0.873   4.498   5.049
 3793TIP3    H111324   0.822   4.428   5.007
 3793TIP3    H211325   0.872   4.570   4.985
 3794TIP3   OH211326   6.687   4.443   3.762
 3794TIP3    H111327   6.705   4.470   3.672
 3794TIP3    H211328   6.771   4.410   3.794
 3795TIP3   OH211329   4.317   1.060   0.743
 3795TIP3    H111330   4.413   1.062   0.735
 3795TIP3    H211331   4.290   1.150   0.726
 3796TIP3   OH211332   7.950   4.908   2.877
 3796TIP3    H111333   7.882   4.903   2.944
 3796TIP3    H211334   8.030   4.884   2.924
 3797TIP3   OH211335   2.536   2.954   6.650
 3797TIP3    H111336   2.528   2.871   6.602
 3797TIP3    H211337   2.452   2.964   6.693
 3798TIP3   OH211338   3.385   4.640   1.183
 3798TIP3    H111339   3.291   4.622   1.190
 3798TIP3    H211340   3.390   4.732   1.160
 3799TIP3   OH211341   1.404   6.633   1.027
 3799TIP3    H111342   1.417   6.718   0.985
 3799TIP3    H211343   1.463   6.634   1.102
 3800TIP3   OH211344   4.784   4.431   1.494
 3800TIP3    H111345   4.856   4.430   1.431
 3800TIP3    H211346   4.723   4.495   1.459
 3801TIP3   OH211347   3.983   1.385   2.834
 3801TIP3    H111348   4.033   1.303   2.837
 3801TIP3    H211349   3.930   1.377   2.755
 3802TIP3   OH211350   4.758   6.982   4.560
 3802TIP3    H111351   4.715   6.936   4.487
 3802TIP3    H211352   4.782   7.067   4.523
 3803TIP3   OH211353   8.270   5.235   3.450
 3803TIP3    H111354   8.204   5.208   3.514
 3803TIP3    H211355   8.353   5.232   3.499
 3804TIP3   OH211356   7.426   0.065   6.038
 3804TIP3    H111357   7.511   0.056   5.994
 3804TIP3    H211358   7.383   0.137   5.991
 3805TIP3   OH211359   1.877   0.066   3.787
 3805TIP3    H111360   1.905   0.020   3.866
 3805TIP3    H211361   1.923   0.022   3.716
 3806TIP3   OH211362   0.674   5.181   2.491
 3806TIP3    H111363   0.596   5.174   2.436
 3806TIP3    H211364   0.654   5.255   2.550
 3807TIP3   OH211365   4.535   4.032   0.983
 3807TIP3    H111366   4.483   4.056   0.906
 3807TIP3    H211367   4.605   4.096   0.986
 3808TIP3   OH211368   2.913   7.760   1.406
 3808TIP3    H111369   2.962   7.689   1.364
 3808TIP3    H211370   2.874   7.808   1.332
 3809TIP3   OH211371   1.689   6.523   5.197
 3809TIP3    H111372   1.785   6.517   5.195
 3809TIP3    H211373   1.671   6.615   5.181
 3810TIP3   OH211374   2.929   3.002   2.000
 3810TIP3    H111375   3.003   3.042   2.046
 3810TIP3    H211376   2.862   3.070   1.998
 3811TIP3   OH211377   4.423   0.245   5.296
 3811TIP3    H111378   4.451   0.336   5.304
 3811TIP3    H211379   4.471   0.199   5.365
 3812TIP3   OH211380   6.291   1.179   5.967
 3812TIP3    H111381   6.285   1.273   5.983
 3812TIP3    H211382   6.216   1.142   6.014
 3813TIP3   OH211383   3.830   3.284   3.723
 3813TIP3    H111384   3.866   3.224   3.788
 3813TIP3    H211385   3.745   3.246   3.700
 3814TIP3   OH211386   0.320   1.142   2.910
 3814TIP3    H111387   0.297   1.233   2.889
 3814TIP3    H211388   0.333   1.142   3.004
 3815TIP3   OH211389   5.206   6.745   3.368
 3815TIP3    H111390   5.262   6.819   3.393
 3815TIP3    H211391   5.243   6.670   3.414
 3816TIP3   OH211392   2.968   1.689   2.430
 3816TIP3    H111393   2.971   1.697   2.526
 3816TIP3    H211394   3.058   1.669   2.405
 3817TIP3   OH211395   0.386   6.212   5.431
 3817TIP3    H111396   0.291   6.213   5.444
 3817TIP3    H211397   0.406   6.122   5.407
 3818TIP3   OH211398   7.348   2.577   6.614
 3818TIP3    H111399   7.368   2.657   6.565
 3818TIP3    H211400   7.252   2.570   6.607
 3819TIP3   OH211401   4.568   1.650   1.075
 3819TIP3    H111402   4.630   1.578   1.064
 3819TIP3    H211403   4.624   1.727   1.090
 3820TIP3   OH211404   7.179   3.175   0.771
 3820TIP3    H111405   7.251   3.113   0.775
 3820TIP3    H211406   7.186   3.225   0.853
 3821TIP3   OH211407   2.591   4.050   0.692
 3821TIP3    H111408   2.673   4.077   0.650
 3821TIP3    H211409   2.535   4.128   0.687
 3822TIP3   OH211410   6.805   4.941   6.649
 3822TIP3    H111411   6.818   5.006   6.717
 3822TIP3    H211412   6.829   4.985   6.568
 3823TIP3   OH211413   2.221   4.620   2.097
 3823TIP3    H111414   2.206   4.624   2.191
 3823TIP3    H211415   2.203   4.709   2.066
 3824TIP3   OH211416   3.917   7.536   2.884
 3824TIP3    H111417   3.922   7.441   2.880
 3824TIP3    H211418   4.005   7.566   2.858
 3825TIP3   OH211419   4.985   2.756   2.926
 3825TIP3    H111420   4.994   2.667   2.961
 3825TIP3    H211421   4.978   2.744   2.831
 3826TIP3   OH211422   1.470   3.853   1.234
 3826TIP3    H111423   1.546   3.884   1.283
 3826TIP3    H211424   1.412   3.818   1.301
 3827TIP3   OH211425   4.693   5.656   6.750
 3827TIP3    H111426   4.767   5.714   6.767
 3827TIP3    H211427   4.709   5.623   6.662
 3828TIP3   OH211428   4.711   0.267   6.014
 3828TIP3    H111429   4.730   0.217   5.934
 3828TIP3    H211430   4.744   0.355   5.996
 3829TIP3   OH211431   6.416   7.211   6.434
 3829TIP3    H111432   6.441   7.168   6.352
 3829TIP3    H211433   6.333   7.170   6.459
 3830TIP3   OH211434   1.613   6.853   2.759
 3830TIP3    H111435   1.617   6.844   2.854
 3830TIP3    H211436   1.682   6.795   2.726
 3831TIP3   OH211437   4.898   2.007   5.745
 3831TIP3    H111438   4.940   1.920   5.744
 3831TIP3    H211439   4.812   1.991   5.784
 3832TIP3   OH211440   8.010   4.395   5.320
 3832TIP3    H111441   8.057   4.322   5.278
 3832TIP3    H211442   7.921   4.390   5.284
 3833TIP3   OH211443   3.792   7.284   4.785
 3833TIP3    H111444   3.862   7.316   4.842
 3833TIP3    H211445   3.837   7.255   4.705
 3834TIP3   OH211446   6.700   5.557   0.919
 3834TIP3    H111447   6.697   5.645   0.881
 3834TIP3    H211448   6.791   5.546   0.947
 3835TIP3   OH211449   4.199   6.664   0.911
 3835TIP3    H111450   4.224   6.665   0.819
 3835TIP3    H211451   4.212   6.754   0.941
 3836TIP3   OH211452   6.677   3.178   4.599
 3836TIP3    H111453   6.632   3.167   4.515
 3836TIP3    H211454   6.761   3.217   4.576
 3837TIP3   OH211455   6.447   3.585   5.205
 3837TIP3    H111456   6.487   3.504   5.236
 3837TIP3    H211457   6.383   3.608   5.273
 3838TIP3   OH211458   4.802   7.654   0.400
 3838TIP3    H111459   4.726   7.704   0.370
 3838TIP3    H211460   4.826   7.696   0.483
 3839TIP3   OH211461   0.491   4.827   1.027
 3839TIP3    H111462   0.490   4.905   1.083
 3839TIP3    H211463   0.566   4.777   1.058
 3840TIP3   OH211464   2.672   0.416   3.499
 3840TIP3    H111465   2.711   0.420   3.412
 3840TIP3    H211466   2.739   0.376   3.554
 3841TIP3   OH211467   6.574   6.456   1.923
 3841TIP3    H111468   6.630   6.393   1.967
 3841TIP3    H211469   6.603   6.542   1.954
 3842TIP3   OH211470   2.358   7.416   6.595
 3842TIP3    H111471   2.356   7.327   6.559
 3842TIP3    H211472   2.429   7.414   6.659
 3843TIP3   OH211473   2.086   7.524   6.008
 3843TIP3    H111474   2.040   7.444   6.032
 3843TIP3    H211475   2.086   7.576   6.089
 3844TIP3   OH211476   6.361   6.232   3.956
 3844TIP3    H111477   6.306   6.174   3.903
 3844TIP3    H211478   6.350   6.199   4.046
 3845TIP3   OH211479   7.263   6.014   0.078
 3845TIP3    H111480   7.349   5.978   0.100
 3845TIP3    H211481   7.231   5.957   0.008
 3846TIP3   OH211482   4.630   2.874   0.493
 3846TIP3    H111483   4.655   2.803   0.553
 3846TIP3    H211484   4.668   2.848   0.409
 3847TIP3   OH211485   2.476   5.267   5.391
 3847TIP3    H111486   2.418   5.295   5.461
 3847TIP3    H211487   2.503   5.348   5.347
 3848TIP3   OH211488   3.641   6.651   6.067
 3848TIP3    H111489   3.698   6.613   6.001
 3848TIP3    H211490   3.698   6.706   6.121
 3849TIP3   OH211491   4.549   7.315   4.904
 3849TIP3    H111492   4.573   7.223   4.915
 3849TIP3    H211493   4.560   7.332   4.811
 3850TIP3   OH211494   0.438   2.538   3.249
 3850TIP3    H111495   0.504   2.529   3.318
 3850TIP3    H211496   0.443   2.456   3.200
 3851TIP3   OH211497   5.453   0.666   5.091
 3851TIP3    H111498   5.423   0.717   5.167
 3851TIP3    H211499   5.542   0.641   5.113
 3852TIP3   OH211500   4.064   5.903   3.376
 3852TIP3    H111501   3.968   5.911   3.372
 3852TIP3    H211502   4.095   5.992   3.388
 3853TIP3   OH211503   1.301   1.008   1.715
 3853TIP3    H111504   1.388   0.971   1.699
 3853TIP3    H211505   1.246   0.931   1.731
 3854TIP3   OH211506   2.812   0.243   4.164
 3854TIP3    H111507   2.758   0.169   4.191
 3854TIP3    H211508   2.895   0.231   4.211
 3855TIP3   OH211509   5.518   0.177   4.036
 3855TIP3    H111510   5.497   0.084   4.042
 3855TIP3    H211511   5.611   0.180   4.012
 3856TIP3   OH211512   0.915   2.808   1.554
 3856TIP3    H111513   0.824   2.826   1.532
 3856TIP3    H211514   0.958   2.795   1.469
 3857TIP3   OH211515   7.337   0.945   2.790
 3857TIP3    H111516   7.317   1.020   2.846
 3857TIP3    H211517   7.289   0.872   2.829
 3858TIP3   OH211518   4.665   6.312   0.388
 3858TIP3    H111519   4.671   6.291   0.481
 3858TIP3    H211520   4.579   6.352   0.378
 3859TIP3   OH211521   5.330   4.439   5.830
 3859TIP3    H111522   5.402   4.445   5.767
 3859TIP3    H211523   5.272   4.511   5.808
 3860TIP3   OH211524   8.224   1.751   4.078
 3860TIP3    H111525   8.200   1.708   4.160
 3860TIP3    H211526   8.317   1.734   4.069
 3861TIP3   OH211527   4.130   0.051   5.010
 3861TIP3    H111528   4.182  -0.028   5.002
 3861TIP3    H211529   4.142   0.080   5.100
 3862TIP3   OH211530   2.177   6.530   6.258
 3862TIP3    H111531   2.142   6.442   6.242
 3862TIP3    H211532   2.112   6.572   6.314
 3863TIP3   OH211533   0.417   5.572   2.014
 3863TIP3    H111534   0.475   5.636   2.056
 3863TIP3    H211535   0.475   5.523   1.955
 3864TIP3   OH211536   7.184   3.682   3.425
 3864TIP3    H111537   7.237   3.640   3.357
 3864TIP3    H211538   7.238   3.754   3.456
 3865TIP3   OH211539   1.122   4.181   3.414
 3865TIP3    H111540   1.185   4.166   3.343
 3865TIP3    H211541   1.175   4.176   3.494
 3866TIP3   OH211542   7.498   6.366   3.167
 3866TIP3    H111543   7.554   6.291   3.188
 3866TIP3    H211544   7.559   6.440   3.161
 3867TIP3   OH211545   0.168   0.988   6.568
 3867TIP3    H111546   0.117   1.066   6.588
 3867TIP3    H211547   0.103   0.919   6.554
 3868TIP3   OH211548   7.346   6.487   6.164
 3868TIP3    H111549   7.347   6.539   6.084
 3868TIP3    H211550   7.301   6.542   6.228
 3869TIP3   OH211551   6.675   1.300   2.287
 3869TIP3    H111552   6.619   1.234   2.248
 3869TIP3    H211553   6.695   1.360   2.215
 3870TIP3   OH211554   1.070   6.422   3.435
 3870TIP3    H111555   1.037   6.495   3.489
 3870TIP3    H211556   1.023   6.431   3.352
 3871TIP3   OH211557   1.426   3.750   5.258
 3871TIP3    H111558   1.493   3.700   5.306
 3871TIP3    H211559   1.475   3.797   5.191
 3872TIP3   OH211560   6.614   3.476   3.767
 3872TIP3    H111561   6.695   3.525   3.783
 3872TIP3    H211562   6.596   3.433   3.850
 3873TIP3   OH211563   1.590   5.818   0.269
 3873TIP3    H111564   1.633   5.839   0.352
 3873TIP3    H211565   1.517   5.761   0.294
 3874TIP3   OH211566   7.393   4.396   2.143
 3874TIP3    H111567   7.306   4.371   2.175
 3874TIP3    H211568   7.387   4.491   2.131
 3875TIP3   OH211569   4.360   6.912   3.124
 3875TIP3    H111570   4.318   6.856   3.058
 3875TIP3    H211571   4.427   6.959   3.076
 3876TIP3   OH211572   1.415   2.127   4.902
 3876TIP3    H111573   1.343   2.131   4.839
 3876TIP3    H211574   1.374   2.149   4.986
 3877TIP3   OH211575   7.880   6.447   4.162
 3877TIP3    H111576   7.931   6.382   4.210
 3877TIP3    H211577   7.855   6.403   4.081
 3878TIP3   OH211578   4.877   2.604   1.112
 3878TIP3    H111579   4.786   2.632   1.121
 3878TIP3    H211580   4.923   2.682   1.080
 3879TIP3   OH211581   2.986   3.896   2.847
 3879TIP3    H111582   3.040   3.818   2.835
 3879TIP3    H211583   3.047   3.965   2.873
 3880TIP3   OH211584   6.053   2.590   1.672
 3880TIP3    H111585   5.966   2.590   1.711
 3880TIP3    H211586   6.042   2.635   1.588
 3881TIP3   OH211587   4.011   2.273   2.621
 3881TIP3    H111588   4.039   2.192   2.664
 3881TIP3    H211589   4.071   2.282   2.547
 3882TIP3   OH211590   8.073   2.066   0.883
 3882TIP3    H111591   8.145   2.081   0.821
 3882TIP3    H211592   8.054   2.153   0.918
 3883TIP3   OH211593   6.932   1.439   5.890
 3883TIP3    H111594   6.954   1.493   5.815
 3883TIP3    H211595   6.999   1.370   5.891
 3884TIP3   OH211596   0.501   5.750   4.286
 3884TIP3    H111597   0.571   5.731   4.348
 3884TIP3    H211598   0.461   5.665   4.267
 3885TIP3   OH211599   6.314   1.635   1.363
 3885TIP3    H111600   6.238   1.634   1.422
 3885TIP3    H211601   6.342   1.544   1.358
 3886TIP3   OH211602   1.254   2.590   4.476
 3886TIP3    H111603   1.209   2.665   4.437
 3886TIP3    H211604   1.332   2.578   4.422
 3887TIP3   OH211605   2.758   3.252   2.528
 3887TIP3    H111606   2.714   3.252   2.443
 3887TIP3    H211607   2.695   3.209   2.587
 3888TIP3   OH211608   0.320   1.741   0.263
 3888TIP3    H111609   0.307   1.692   0.182
 3888TIP3    H211610   0.345   1.829   0.234
 3889TIP3   OH211611   6.315   3.396   5.850
 3889TIP3    H111612   6.334   3.478   5.805
 3889TIP3    H211613   6.281   3.338   5.781
 3890TIP3   OH211614   6.744   5.261   6.533
 3890TIP3    H111615   6.661   5.215   6.522
 3890TIP3    H211616   6.726   5.350   6.505
 3891TIP3   OH211617   7.076   7.372   5.863
 3891TIP3    H111618   7.164   7.411   5.855
 3891TIP3    H211619   7.041   7.375   5.774
 3892TIP3   OH211620   0.236   0.249   0.256
 3892TIP3    H111621   0.230   0.344   0.256
 3892TIP3    H211622   0.150   0.220   0.286
 3893TIP3   OH211623   3.581   1.590   0.911
 3893TIP3    H111624   3.590   1.504   0.870
 3893TIP3    H211625   3.497   1.587   0.956
 3894TIP3   OH211626   4.187   1.789   5.092
 3894TIP3    H111627   4.203   1.877   5.126
 3894TIP3    H211628   4.116   1.755   5.146
 3895TIP3   OH211629   4.469   4.504   6.552
 3895TIP3    H111630   4.407   4.464   6.612
 3895TIP3    H211631   4.543   4.443   6.549
 3896TIP3   OH211632   4.979   1.884   0.335
 3896TIP3    H111633   4.920   1.867   0.408
 3896TIP3    H211634   5.065   1.856   0.367
 3897TIP3   OH211635   2.561   0.957   0.703
 3897TIP3    H111636   2.525   1.044   0.688
 3897TIP3    H211637   2.540   0.938   0.794
 3898TIP3   OH211638   7.054   4.861   5.092
 3898TIP3    H111639   7.143   4.830   5.113
 3898TIP3    H211640   7.057   4.879   4.998
 3899TIP3   OH211641   4.848   1.786   5.114
 3899TIP3    H111642   4.919   1.730   5.147
 3899TIP3    H211643   4.843   1.857   5.177
 3900TIP3   OH211644   5.760   5.440   2.019
 3900TIP3    H111645   5.805   5.478   1.944
 3900TIP3    H211646   5.771   5.505   2.088
 3901TIP3   OH211647   5.709   0.696   4.891
 3901TIP3    H111648   5.765   0.639   4.945
 3901TIP3    H211649   5.676   0.638   4.822
 3902TIP3   OH211650   1.856   0.362   5.739
 3902TIP3    H111651   1.912   0.414   5.681
 3902TIP3    H211652   1.899   0.366   5.824
 3903TIP3   OH211653   4.286   4.673   2.059
 3903TIP3    H111654   4.208   4.728   2.068
 3903TIP3    H211655   4.274   4.603   2.123
 3904TIP3   OH211656   3.188   6.912   1.856
 3904TIP3    H111657   3.261   6.964   1.821
 3904TIP3    H211658   3.110   6.957   1.823
 3905TIP3   OH211659   2.260   3.522   2.048
 3905TIP3    H111660   2.222   3.495   1.964
 3905TIP3    H211661   2.193   3.498   2.113
 3906TIP3   OH211662   5.576   3.309   6.575
 3906TIP3    H111663   5.543   3.335   6.489
 3906TIP3    H211664   5.658   3.357   6.585
 3907TIP3   OH211665   2.020   1.004   5.994
 3907TIP3    H111666   2.039   1.012   5.901
 3907TIP3    H211667   1.924   0.998   5.998
 3908TIP3   OH211668   0.406   5.992   2.181
 3908TIP3    H111669   0.460   6.052   2.129
 3908TIP3    H211670   0.327   5.979   2.128
 3909TIP3   OH211671   7.964   2.143   6.086
 3909TIP3    H111672   7.972   2.237   6.101
 3909TIP3    H211673   7.953   2.134   5.992
 3910TIP3   OH211674   1.843   4.153   4.509
 3910TIP3    H111675   1.796   4.232   4.484
 3910TIP3    H211676   1.914   4.184   4.565
 3911TIP3   OH211677   5.993   1.590   5.755
 3911TIP3    H111678   6.031   1.677   5.747
 3911TIP3    H211679   6.027   1.542   5.680
 3912TIP3   OH211680   1.150   3.376   5.161
 3912TIP3    H111681   1.119   3.309   5.100
 3912TIP3    H211682   1.156   3.331   5.246
 3913TIP3   OH211683   2.855   4.648   1.042
 3913TIP3    H111684   2.884   4.615   0.957
 3913TIP3    H211685   2.760   4.662   1.032
 3914TIP3   OH211686   5.609   7.628   2.390
 3914TIP3    H111687   5.620   7.723   2.389
 3914TIP3    H211688   5.516   7.616   2.411
 3915TIP3   OH211689   2.668   7.268   2.648
 3915TIP3    H111690   2.674   7.329   2.574
 3915TIP3    H211691   2.578   7.278   2.679
 3916TIP3   OH211692   2.568   5.719   4.324
 3916TIP3    H111693   2.649   5.672   4.304
 3916TIP3    H211694   2.504   5.650   4.340
 3917TIP3   OH211695   4.313   6.046   4.154
 3917TIP3    H111696   4.243   5.991   4.119
 3917TIP3    H211697   4.392   6.012   4.112
 3918TIP3   OH211698   3.700   0.585   2.662
 3918TIP3    H111699   3.696   0.660   2.602
 3918TIP3    H211700   3.758   0.523   2.618
 3919TIP3   OH211701   8.114   5.910   2.187
 3919TIP3    H111702   8.112   5.818   2.215
 3919TIP3    H211703   8.199   5.942   2.215
 3920TIP3   OH211704   1.213   3.041   5.646
 3920TIP3    H111705   1.156   3.079   5.579
 3920TIP3    H211706   1.256   3.116   5.687
 3921TIP3   OH211707   0.702   1.341   1.079
 3921TIP3    H111708   0.665   1.262   1.039
 3921TIP3    H211709   0.632   1.406   1.072
 3922TIP3   OH211710   8.140   6.341   4.484
 3922TIP3    H111711   8.101   6.422   4.516
 3922TIP3    H211712   8.224   6.335   4.531
 3923TIP3   OH211713   7.342   6.441   0.835
 3923TIP3    H111714   7.339   6.363   0.779
 3923TIP3    H211715   7.411   6.423   0.898
 3924TIP3   OH211716   3.727   0.604   3.977
 3924TIP3    H111717   3.779   0.671   3.933
 3924TIP3    H211718   3.766   0.521   3.949
 3925TIP3   OH211719   4.731   2.723   4.547
 3925TIP3    H111720   4.805   2.784   4.540
 3925TIP3    H211721   4.679   2.756   4.620
 3926TIP3   OH211722   0.741   3.266   2.702
 3926TIP3    H111723   0.682   3.247   2.775
 3926TIP3    H211724   0.816   3.209   2.717
 3927TIP3   OH211725   0.654   3.325   0.112
 3927TIP3    H111726   0.605   3.245   0.129
 3927TIP3    H211727   0.702   3.341   0.193
 3928TIP3   OH211728   1.222   1.919   5.105
 3928TIP3    H111729   1.234   2.009   5.137
 3928TIP3    H211730   1.308   1.893   5.073
 3929TIP3   OH211731   6.803   2.157   3.163
 3929TIP3    H111732   6.800   2.070   3.122
 3929TIP3    H211733   6.852   2.144   3.244
 3930TIP3   OH211734   0.678   2.581   1.232
 3930TIP3    H111735   0.761   2.551   1.268
 3930TIP3    H211736   0.630   2.501   1.212
 3931TIP3   OH211737   3.319   3.147   3.409
 3931TIP3    H111738   3.375   3.205   3.461
 3931TIP3    H211739   3.380   3.085   3.368
 3932TIP3   OH211740   4.163   0.237   1.693
 3932TIP3    H111741   4.152   0.271   1.781
 3932TIP3    H211742   4.110   0.296   1.638
 3933TIP3   OH211743   2.124   5.714   1.558
 3933TIP3    H111744   2.187   5.681   1.623
 3933TIP3    H211745   2.044   5.729   1.608
 3934TIP3   OH211746   2.529   0.678   4.632
 3934TIP3    H111747   2.598   0.651   4.571
 3934TIP3    H211748   2.510   0.769   4.609
 3935TIP3   OH211749   3.226   0.132   1.931
 3935TIP3    H111750   3.311   0.087   1.935
 3935TIP3    H211751   3.207   0.138   1.838
 3936TIP3   OH211752   5.670   3.049   6.572
 3936TIP3    H111753   5.691   3.049   6.665
 3936TIP3    H211754   5.628   3.134   6.556
 3937TIP3   OH211755   6.287   1.269   4.896
 3937TIP3    H111756   6.330   1.351   4.875
 3937TIP3    H211757   6.215   1.294   4.953
 3938TIP3   OH211758   7.999   6.366   1.753
 3938TIP3    H111759   8.006   6.429   1.681
 3938TIP3    H211760   8.031   6.284   1.716
 3939TIP3   OH211761   0.283   6.964   6.101
 3939TIP3    H111762   0.283   7.007   6.016
 3939TIP3    H211763   0.297   7.035   6.164
 3940TIP3   OH211764   2.698   6.373   5.028
 3940TIP3    H111765   2.604   6.391   5.035
 3940TIP3    H211766   2.739   6.460   5.033
 3941TIP3   OH211767   5.597   1.798   1.778
 3941TIP3    H111768   5.547   1.850   1.715
 3941TIP3    H211769   5.541   1.794   1.856
 3942TIP3   OH211770   7.345   5.850   6.697
 3942TIP3    H111771   7.394   5.868   6.777
 3942TIP3    H211772   7.391   5.776   6.657
 3943TIP3   OH211773   8.101   6.957   5.487
 3943TIP3    H111774   8.078   7.010   5.411
 3943TIP3    H211775   8.097   7.018   5.561
 3944TIP3   OH211776  -0.009   5.929   1.846
 3944TIP3    H111777   0.035   5.993   1.791
 3944TIP3    H211778   0.061   5.875   1.882
 3945TIP3   OH211779   1.412   3.129   4.995
 3945TIP3    H111780   1.444   3.204   5.044
 3945TIP3    H211781   1.338   3.096   5.047
 3946TIP3   OH211782   1.500   3.122   5.480
 3946TIP3    H111783   1.540   3.050   5.529
 3946TIP3    H211784   1.538   3.116   5.393
 3947TIP3   OH211785   3.193   2.901   0.459
 3947TIP3    H111786   3.128   2.931   0.396
 3947TIP3    H211787   3.149   2.903   0.544
 3948TIP3   OH211788   1.201   0.395   0.380
 3948TIP3    H111789   1.219   0.487   0.401
 3948TIP3    H211790   1.107   0.392   0.365
 3949TIP3   OH211791   2.412   5.621   0.861
 3949TIP3    H111792   2.477   5.681   0.898
 3949TIP3    H211793   2.328   5.651   0.897
 3950TIP3   OH211794   8.190   4.992   0.602
 3950TIP3    H111795   8.237   4.939   0.666
 3950TIP3    H211796   8.248   5.066   0.585
 3951TIP3   OH211797   6.215   7.195   5.847
 3951TIP3    H111798   6.200   7.145   5.767
 3951TIP3    H211799   6.174   7.144   5.916
 3952TIP3   OH211800   0.545   7.126   1.800
 3952TIP3    H111801   0.577   7.151   1.886
 3952TIP3    H211802   0.507   7.039   1.813
 3953TIP3   OH211803   2.351   0.453   4.867
 3953TIP3    H111804   2.273   0.454   4.923
 3953TIP3    H211805   2.321   0.413   4.785
 3954TIP3   OH211806   3.086   6.271   0.872
 3954TIP3    H111807   3.041   6.281   0.788
 3954TIP3    H211808   3.143   6.195   0.860
 3955TIP3   OH211809   0.316   5.411   3.398
 3955TIP3    H111810   0.407   5.415   3.426
 3955TIP3    H211811   0.277   5.343   3.454
 3956TIP3   OH211812   0.559   0.529   5.725
 3956TIP3    H111813   0.504   0.506   5.801
 3956TIP3    H211814   0.537   0.620   5.707
 3957TIP3   OH211815   0.385   6.703   1.629
 3957TIP3    H111816   0.327   6.766   1.585
 3957TIP3    H211817   0.396   6.738   1.717
 3958TIP3   OH211818   3.104   5.729   4.582
 3958TIP3    H111819   3.191   5.698   4.558
 3958TIP3    H211820   3.050   5.650   4.583
 3959TIP3   OH211821   1.538   5.505   4.200
 3959TIP3    H111822   1.565   5.440   4.135
 3959TIP3    H211823   1.613   5.514   4.258
 3960TIP3   OH211824   4.237   3.435   4.285
 3960TIP3    H111825   4.185   3.365   4.325
 3960TIP3    H211826   4.321   3.394   4.264
 3961TIP3   OH211827   3.966   5.638   6.609
 3961TIP3    H111828   3.980   5.723   6.566
 3961TIP3    H211829   3.871   5.633   6.621
 3962TIP3   OH211830   4.181   4.030   3.921
 3962TIP3    H111831   4.245   3.964   3.894
 3962TIP3    H211832   4.097   3.990   3.902
 3963TIP3   OH211833   0.102   4.156   4.842
 3963TIP3    H111834   0.075   4.227   4.901
 3963TIP3    H211835   0.093   4.077   4.896
 3964TIP3   OH211836   2.396   0.465   1.983
 3964TIP3    H111837   2.355   0.464   1.896
 3964TIP3    H211838   2.375   0.552   2.018
 3965TIP3   OH211839   7.894   7.356   5.534
 3965TIP3    H111840   7.988   7.370   5.523
 3965TIP3    H211841   7.866   7.315   5.452
 3966TIP3   OH211842   4.061   5.480   1.575
 3966TIP3    H111843   4.095   5.446   1.658
 3966TIP3    H211844   3.992   5.542   1.600
 3967TIP3   OH211845   7.883   4.598   3.285
 3967TIP3    H111846   7.865   4.591   3.191
 3967TIP3    H211847   7.852   4.685   3.309
 3968TIP3   OH211848   2.850   3.885   1.884
 3968TIP3    H111849   2.918   3.901   1.818
 3968TIP3    H211850   2.896   3.845   1.957
 3969TIP3   OH211851   2.731   5.627   6.046
 3969TIP3    H111852   2.761   5.718   6.046
 3969TIP3    H211853   2.639   5.632   6.024
 3970TIP3   OH211854   7.882   7.579   3.522
 3970TIP3    H111855   7.912   7.488   3.518
 3970TIP3    H211856   7.787   7.572   3.517
 3971TIP3   OH211857   3.137  -0.045   1.301
 3971TIP3    H111858   3.100  -0.065   1.387
 3971TIP3    H211859   3.065  -0.005   1.253
 3972TIP3   OH211860   6.549   0.006   6.202
 3972TIP3    H111861   6.529   0.100   6.209
 3972TIP3    H211862   6.633  -0.004   6.247
 3973TIP3   OH211863   1.791   7.125   5.218
 3973TIP3    H111864   1.786   7.154   5.126
 3973TIP3    H211865   1.862   7.178   5.255
 3974TIP3   OH211866   3.604   1.525   2.474
 3974TIP3    H111867   3.572   1.591   2.411
 3974TIP3    H211868   3.685   1.493   2.435
 3975TIP3   OH211869   7.226   3.231   1.933
 3975TIP3    H111870   7.310   3.190   1.954
 3975TIP3    H211871   7.188   3.252   2.018
 3976TIP3   OH211872   8.137   4.752   5.680
 3976TIP3    H111873   8.046   4.724   5.667
 3976TIP3    H211874   8.183   4.673   5.708
 3977TIP3   OH211875   4.051   4.251   4.774
 3977TIP3    H111876   3.988   4.180   4.764
 3977TIP3    H211877   4.007   4.328   4.739
 3978TIP3   OH211878   7.963   2.633   0.660
 3978TIP3    H111879   8.042   2.579   0.658
 3978TIP3    H211880   7.893   2.574   0.686
 3979TIP3   OH211881   7.478   2.655   5.756
 3979TIP3    H111882   7.501   2.605   5.834
 3979TIP3    H211883   7.444   2.589   5.695
 3980TIP3   OH211884   4.437   4.137   4.254
 3980TIP3    H111885   4.496   4.147   4.179
 3980TIP3    H211886   4.363   4.194   4.234
 3981TIP3   OH211887   4.883   4.714   5.285
 3981TIP3    H111888   4.907   4.719   5.193
 3981TIP3    H211889   4.787   4.723   5.285
 3982TIP3   OH211890   5.359   3.383   3.025
 3982TIP3    H111891   5.268   3.388   3.054
 3982TIP3    H211892   5.376   3.467   2.983
 3983TIP3   OH211893   3.444   5.701   6.456
 3983TIP3    H111894   3.369   5.722   6.400
 3983TIP3    H211895   3.501   5.777   6.449
 3984TIP3   OH211896   2.457   1.492   4.397
 3984TIP3    H111897   2.421   1.578   4.417
 3984TIP3    H211898   2.408   1.461   4.321
 3985TIP3   OH211899   3.953   6.279   4.408
 3985TIP3    H111900   3.930   6.194   4.446
 3985TIP3    H211901   3.886   6.295   4.341
 3986TIP3   OH211902   7.463   4.258   5.198
 3986TIP3    H111903   7.410   4.316   5.251
 3986TIP3    H211904   7.401   4.193   5.165
 3987TIP3   OH211905   6.408   4.755   3.624
 3987TIP3    H111906   6.352   4.684   3.593
 3987TIP3    H211907   6.348   4.821   3.657
 3988TIP3   OH211908   0.759   5.880   5.069
 3988TIP3    H111909   0.708   5.878   4.988
 3988TIP3    H211910   0.847   5.852   5.043
 3989TIP3   OH211911   5.514   1.999   2.965
 3989TIP3    H111912   5.540   2.055   2.891
 3989TIP3    H211913   5.439   2.044   3.003
 3990TIP3   OH211914   1.954   0.297   3.462
 3990TIP3    H111915   1.879   0.286   3.520
 3990TIP3    H211916   2.003   0.371   3.500
 3991TIP3   OH211917   0.255   4.907   6.531
 3991TIP3    H111918   0.258   4.860   6.615
 3991TIP3    H211919   0.180   4.868   6.485
 3992TIP3   OH211920   1.835   1.353   3.713
 3992TIP3    H111921   1.908   1.332   3.655
 3992TIP3    H211922   1.805   1.268   3.746
 3993TIP3   OH211923   6.306   3.417   6.155
 3993TIP3    H111924   6.362   3.347   6.122
 3993TIP3    H211925   6.270   3.459   6.076
 3994TIP3   OH211926   0.675   4.638   3.386
 3994TIP3    H111927   0.641   4.553   3.413
 3994TIP3    H211928   0.681   4.688   3.468
 3995TIP3   OH211929   5.650   4.018   4.727
 3995TIP3    H111930   5.617   4.059   4.807
 3995TIP3    H211931   5.648   4.087   4.662
 3996TIP3   OH211932   3.360   2.673   0.097
 3996TIP3    H111933   3.270   2.641   0.100
 3996TIP3    H211934   3.380   2.696   0.188
 3997TIP3   OH211935   3.314   6.918   4.042
 3997TIP3    H111936   3.402   6.941   4.011
 3997TIP3    H211937   3.288   6.992   4.096
 3998TIP3   OH211938   6.908   2.856   0.458
 3998TIP3    H111939   6.942   2.881   0.544
 3998TIP3    H211940   6.843   2.924   0.437
 3999TIP3   OH211941   0.548   7.167   3.292
 3999TIP3    H111942   0.463   7.168   3.336
 3999TIP3    H211943   0.601   7.105   3.342
 4000TIP3   OH211944   2.937   1.953   1.042
 4000TIP3    H111945   2.865   1.920   1.095
 4000TIP3    H211946   3.016   1.916   1.082
 4001TIP3   OH211947   0.580   7.420   4.467
 4001TIP3    H111948   0.590   7.325   4.475
 4001TIP3    H211949   0.518   7.432   4.395
 4002TIP3   OH211950   4.492   7.367   3.659
 4002TIP3    H111951   4.519   7.276   3.652
 4002TIP3    H211952   4.416   7.365   3.718
 4003TIP3   OH211953   1.915   3.420   3.093
 4003TIP3    H111954   1.920   3.338   3.143
 4003TIP3    H211955   2.000   3.427   3.049
 4004TIP3   OH211956   8.038   2.911   3.580
 4004TIP3    H111957   8.016   2.858   3.503
 4004TIP3    H211958   8.034   3.001   3.548
 4005TIP3   OH211959   2.727   3.031   1.763
 4005TIP3    H111960   2.783   3.006   1.690
 4005TIP3    H211961   2.767   2.988   1.839
 4006TIP3   OH211962   3.832   3.964   1.343
 4006TIP3    H111963   3.898   4.032   1.339
 4006TIP3    H211964   3.778   3.987   1.419
 4007TIP3   OH211965   1.364   6.307   2.777
 4007TIP3    H111966   1.399   6.283   2.862
 4007TIP3    H211967   1.384   6.401   2.768
 4008TIP3   OH211968   5.160   6.960   6.661
 4008TIP3    H111969   5.250   6.929   6.673
 4008TIP3    H211970   5.168   7.055   6.655
 4009TIP3   OH211971   6.233   7.571   2.785
 4009TIP3    H111972   6.315   7.608   2.751
 4009TIP3    H211973   6.167   7.637   2.764
 4010TIP3   OH211974   3.411   6.747   6.214
 4010TIP3    H111975   3.491   6.737   6.163
 4010TIP3    H211976   3.409   6.669   6.271
 4011TIP3   OH211977   3.016   1.196   6.702
 4011TIP3    H111978   2.943   1.227   6.649
 4011TIP3    H211979   3.075   1.272   6.708
 4012TIP3   OH211980   5.939   3.241   4.123
 4012TIP3    H111981   5.960   3.311   4.061
 4012TIP3    H211982   6.014   3.181   4.118
 4013TIP3   OH211983   7.193   4.710   0.245
 4013TIP3    H111984   7.280   4.740   0.270
 4013TIP3    H211985   7.192   4.715   0.150
 4014TIP3   OH211986   6.772   2.594   5.476
 4014TIP3    H111987   6.848   2.537   5.462
 4014TIP3    H211988   6.807   2.683   5.467
 4015TIP3   OH211989   7.271   5.876   6.160
 4015TIP3    H111990   7.219   5.796   6.168
 4015TIP3    H211991   7.232   5.937   6.223
 4016TIP3   OH211992   7.927   3.698   4.159
 4016TIP3    H111993   8.013   3.677   4.124
 4016TIP3    H211994   7.865   3.662   4.096
 4017TIP3   OH211995   7.959   5.130   0.855
 4017TIP3    H111996   7.923   5.204   0.903
 4017TIP3    H211997   8.015   5.085   0.918
 4018TIP3   OH211998   5.529   5.444   6.688
 4018TIP3    H111999   5.489   5.357   6.684
 4018TIP3    H212000   5.608   5.437   6.633
 4019TIP3   OH212001   7.287   3.280   1.001
 4019TIP3    H112002   7.265   3.243   1.087
 4019TIP3    H212003   7.358   3.342   1.019
 4020TIP3   OH212004   3.962   6.380   2.662
 4020TIP3    H112005   3.885   6.357   2.714
 4020TIP3    H212006   4.024   6.415   2.727
 4021TIP3   OH212007   5.646   7.059   1.371
 4021TIP3    H112008   5.654   6.966   1.393
 4021TIP3    H212009   5.649   7.104   1.455
 4022TIP3   OH212010   8.062   5.862   5.051
 4022TIP3    H112011   8.111   5.944   5.053
 4022TIP3    H212012   8.027   5.858   4.962
 4023TIP3   OH212013   6.345   7.632   3.315
 4023TIP3    H112014   6.357   7.699   3.247
 4023TIP3    H212015   6.371   7.676   3.396
 4024TIP3   OH212016   3.685   1.599   4.171
 4024TIP3    H112017   3.638   1.683   4.164
 4024TIP3    H212018   3.777   1.624   4.178
 4025TIP3   OH212019   6.582   7.225   2.512
 4025TIP3    H112020   6.608   7.260   2.427
 4025TIP3    H212021   6.514   7.160   2.491
 4026TIP3   OH212022   6.798   7.641   2.151
 4026TIP3    H112023   6.705   7.637   2.175
 4026TIP3    H212024   6.801   7.704   2.079
 4027TIP3   OH212025   0.716   0.358   0.503
 4027TIP3    H112026   0.717   0.394   0.591
 4027TIP3    H212027   0.623   0.362   0.477
 4028TIP3   OH212028   2.310   6.668   2.296
 4028TIP3    H112029   2.382   6.711   2.250
 4028TIP3    H212030   2.306   6.581   2.257
 4029TIP3   OH212031   4.021   6.343   0.416
 4029TIP3    H112032   4.056   6.336   0.505
 4029TIP3    H212033   3.955   6.274   0.411
 4030TIP3   OH212034   7.630   3.266   5.209
 4030TIP3    H112035   7.690   3.258   5.135
 4030TIP3    H212036   7.580   3.185   5.209
 4031TIP3   OH212037   0.780   2.582   4.588
 4031TIP3    H112038   0.826   2.498   4.581
 4031TIP3    H212039   0.688   2.560   4.574
 4032TIP3   OH212040   0.498   3.921   5.619
 4032TIP3    H112041   0.550   3.887   5.691
 4032TIP3    H212042   0.486   4.014   5.640
 4033TIP3   OH212043   8.096   3.756   5.554
 4033TIP3    H112044   8.094   3.805   5.636
 4033TIP3    H212045   8.019   3.787   5.505
 4034TIP3   OH212046   8.152   0.531   4.344
 4034TIP3    H112047   8.177   0.540   4.436
 4034TIP3    H212048   8.062   0.499   4.347
 4035TIP3   OH212049   0.149   1.941   1.895
 4035TIP3    H112050   0.090   1.876   1.931
 4035TIP3    H212051   0.121   2.024   1.934
 4036TIP3   OH212052   1.974   4.111   2.145
 4036TIP3    H112053   1.960   4.017   2.138
 4036TIP3    H212054   1.906   4.149   2.089
 4037TIP3   OH212055   2.321   5.542   2.917
 4037TIP3    H112056   2.360   5.537   2.830
 4037TIP3    H212057   2.395   5.552   2.977
 4038TIP3   OH212058   5.949   2.105   0.842
 4038TIP3    H112059   5.994   2.098   0.758
 4038TIP3    H212060   6.000   2.169   0.891
 4039TIP3   OH212061   7.481   6.345   2.630
 4039TIP3    H112062   7.441   6.423   2.591
 4039TIP3    H212063   7.575   6.360   2.622
 4040TIP3   OH212064   3.320   4.124   6.522
 4040TIP3    H112065   3.310   4.078   6.606
 4040TIP3    H212066   3.414   4.140   6.515
 4041TIP3   OH212067   1.033   0.185   1.072
 4041TIP3    H112068   1.050   0.229   0.989
 4041TIP3    H212069   1.100   0.117   1.078
 4042TIP3   OH212070   4.930   5.650   1.710
 4042TIP3    H112071   4.867   5.605   1.767
 4042TIP3    H212072   4.909   5.620   1.622
 4043TIP3   OH212073   4.766   4.768   2.585
 4043TIP3    H112074   4.812   4.703   2.639
 4043TIP3    H212075   4.731   4.831   2.649
 4044TIP3   OH212076   1.086   3.387   2.925
 4044TIP3    H112077   1.141   3.317   2.890
 4044TIP3    H212078   1.062   3.440   2.849
 4045TIP3   OH212079   6.103   2.300   2.887
 4045TIP3    H112080   6.174   2.265   2.939
 4045TIP3    H212081   6.131   2.389   2.864
 4046TIP3   OH212082   7.541   6.825   0.365
 4046TIP3    H112083   7.548   6.739   0.407
 4046TIP3    H212084   7.448   6.833   0.343
 4047TIP3   OH212085   6.811   4.218   2.998
 4047TIP3    H112086   6.799   4.311   2.983
 4047TIP3    H212087   6.726   4.188   3.032
 4048TIP3   OH212088   6.930   7.626   2.650
 4048TIP3    H112089   7.019   7.658   2.634
 4048TIP3    H212090   6.873   7.694   2.614
 4049TIP3   OH212091   6.976   0.134   2.054
 4049TIP3    H112092   7.023   0.050   2.051
 4049TIP3    H212093   6.898   0.120   2.000
 4050TIP3   OH212094   4.685   4.898   3.490
 4050TIP3    H112095   4.616   4.961   3.511
 4050TIP3    H212096   4.679   4.886   3.396
 4051TIP3   OH212097   8.033   6.667   6.575
 4051TIP3    H112098   8.121   6.631   6.573
 4051TIP3    H212099   8.041   6.748   6.626
 4052TIP3   OH212100   1.835   3.620   4.632
 4052TIP3    H112101   1.805   3.687   4.570
 4052TIP3    H212102   1.854   3.669   4.712
 4053TIP3   OH212103   4.933   3.355   1.646
 4053TIP3    H112104   4.932   3.266   1.612
 4053TIP3    H212105   4.914   3.409   1.569
 4054TIP3   OH212106   1.254   0.364   2.071
 4054TIP3    H112107   1.205   0.354   1.989
 4054TIP3    H212108   1.214   0.302   2.132
 4055TIP3   OH212109   6.336   6.098   0.634
 4055TIP3    H112110   6.327   6.023   0.692
 4055TIP3    H212111   6.301   6.068   0.550
 4056TIP3   OH212112   1.507   1.412   0.312
 4056TIP3    H112113   1.449   1.488   0.299
 4056TIP3    H212114   1.463   1.341   0.264
 4057TIP3   OH212115   1.043   6.611   6.459
 4057TIP3    H112116   1.032   6.560   6.379
 4057TIP3    H212117   1.041   6.546   6.529
 4058TIP3   OH212118   5.317   4.040   4.684
 4058TIP3    H112119   5.351   3.955   4.711
 4058TIP3    H212120   5.327   4.042   4.589
 4059TIP3   OH212121   7.851   7.277   2.180
 4059TIP3    H112122   7.841   7.208   2.113
 4059TIP3    H212123   7.895   7.233   2.253
 4060TIP3   OH212124   1.593   1.809   3.297
 4060TIP3    H112125   1.687   1.815   3.313
 4060TIP3    H212126   1.556   1.779   3.381
 4061TIP3   OH212127   3.142   2.303   6.191
 4061TIP3    H112128   3.212   2.367   6.204
 4061TIP3    H212129   3.068   2.338   6.242
 4062TIP3   OH212130   8.055   1.737   5.759
 4062TIP3    H112131   8.092   1.783   5.834
 4062TIP3    H212132   8.012   1.660   5.796
 4063TIP3   OH212133   4.642   7.626   3.781
 4063TIP3    H112134   4.663   7.539   3.745
 4063TIP3    H212135   4.547   7.631   3.776
 4064TIP3   OH212136   1.693   1.792   5.200
 4064TIP3    H112137   1.714   1.882   5.175
 4064TIP3    H212138   1.758   1.770   5.266
 4065TIP3   OH212139   4.747   2.561   2.487
 4065TIP3    H112140   4.780   2.497   2.550
 4065TIP3    H212141   4.665   2.525   2.456
 4066TIP3   OH212142   1.315   1.464   4.468
 4066TIP3    H112143   1.333   1.546   4.516
 4066TIP3    H212144   1.364   1.397   4.517
 4067TIP3   OH212145   1.319   1.410   3.934
 4067TIP3    H112146   1.379   1.428   3.861
 4067TIP3    H212147   1.232   1.415   3.895
 4068TIP3   OH212148   5.279   2.432   4.704
 4068TIP3    H112149   5.259   2.384   4.784
 4068TIP3    H212150   5.210   2.498   4.698
 4069TIP3   OH212151   4.764   4.063   1.267
 4069TIP3    H112152   4.668   4.068   1.268
 4069TIP3    H212153   4.785   4.001   1.336
 4070TIP3   OH212154   7.444   1.001   4.896
 4070TIP3    H112155   7.361   1.014   4.942
 4070TIP3    H212156   7.435   0.914   4.857
 4071TIP3   OH212157   8.055   1.877   0.619
 4071TIP3    H112158   7.991   1.847   0.683
 4071TIP3    H212159   8.025   1.840   0.536
 4072TIP3   OH212160   3.987   0.692   4.848
 4072TIP3    H112161   3.986   0.603   4.883
 4072TIP3    H212162   3.902   0.729   4.872
 4073TIP3   OH212163   5.636   1.600   4.688
 4073TIP3    H112164   5.600   1.639   4.767
 4073TIP3    H212165   5.594   1.647   4.615
 4074TIP3   OH212166   0.872   0.054   6.575
 4074TIP3    H112167   0.820   0.106   6.637
 4074TIP3    H212168   0.820  -0.026   6.562
 4075TIP3   OH212169   7.864   3.126   4.408
 4075TIP3    H112170   7.914   3.171   4.476
 4075TIP3    H212171   7.926   3.111   4.338
 4076TIP3   OH212172   4.986   6.350   3.021
 4076TIP3    H112173   4.891   6.342   3.032
 4076TIP3    H212174   5.014   6.407   3.093
 4077TIP3   OH212175   1.619   6.205   5.903
 4077TIP3    H112176   1.687   6.138   5.916
 4077TIP3    H212177   1.546   6.156   5.864
 4078TIP3   OH212178   1.745   1.187   4.580
 4078TIP3    H112179   1.835   1.155   4.587
 4078TIP3    H212180   1.754   1.281   4.566
 4079TIP3   OH212181   0.153   1.452   0.011
 4079TIP3    H112182   0.071   1.502   0.005
 4079TIP3    H212183   0.130   1.375   0.063
 4080TIP3   OH212184   0.331   3.923   4.676
 4080TIP3    H112185   0.380   3.886   4.603
 4080TIP3    H212186   0.347   3.865   4.749
 4081TIP3   OH212187   2.722   3.965   6.404
 4081TIP3    H112188   2.722   3.950   6.309
 4081TIP3    H212189   2.722   4.060   6.413
 4082TIP3   OH212190   0.039   7.663   1.486
 4082TIP3    H112191   0.025   7.570   1.504
 4082TIP3    H212192  -0.044   7.694   1.450
 4083TIP3   OH212193   2.024   4.833   0.808
 4083TIP3    H112194   2.033   4.746   0.848
 4083TIP3    H212195   2.034   4.816   0.714
 4084TIP3   OH212196   2.962   4.115   2.997
 4084TIP3    H112197   2.905   4.071   2.935
 4084TIP3    H212198   2.926   4.093   3.083
 4085TIP3   OH212199   7.643   6.796   0.081
 4085TIP3    H112200   7.620   6.787   0.173
 4085TIP3    H212201   7.714   6.733   0.068
 4086TIP3   OH212202   2.880   3.957   2.563
 4086TIP3    H112203   2.877   3.879   2.619
 4086TIP3    H212204   2.871   4.030   2.624
 4087TIP3   OH212205   6.518   0.715   0.225
 4087TIP3    H112206   6.452   0.716   0.293
 4087TIP3    H212207   6.598   0.747   0.267
 4088TIP3   OH212208   2.217   2.861   1.388
 4088TIP3    H112209   2.282   2.870   1.318
 4088TIP3    H212210   2.140   2.907   1.355
 4089TIP3   OH212211   4.457   6.824   0.295
 4089TIP3    H112212   4.408   6.837   0.376
 4089TIP3    H212213   4.391   6.836   0.225
 4090TIP3   OH212214   3.360   2.765   5.581
 4090TIP3    H112215   3.446   2.744   5.544
 4090TIP3    H212216   3.298   2.718   5.525
 4091TIP3   OH212217   0.636   5.442   1.926
 4091TIP3    H112218   0.717   5.395   1.944
 4091TIP3    H212219   0.658   5.499   1.852
 4092TIP3   OH212220   6.215   3.062   1.338
 4092TIP3    H112221   6.310   3.056   1.333
 4092TIP3    H212222   6.197   3.156   1.330
 4093TIP3   OH212223   5.820   4.637   5.160
 4093TIP3    H112224   5.809   4.592   5.076
 4093TIP3    H212225   5.890   4.589   5.204
 4094TIP3   OH212226   2.411   7.457   2.996
 4094TIP3    H112227   2.336   7.502   3.036
 4094TIP3    H212228   2.401   7.366   3.024
 4095TIP3   OH212229   2.410   0.901   5.960
 4095TIP3    H112230   2.353   0.927   6.032
 4095TIP3    H212231   2.465   0.978   5.943
 4096TIP3   OH212232   6.513   0.343   1.757
 4096TIP3    H112233   6.575   0.343   1.684
 4096TIP3    H212234   6.435   0.384   1.722
 4097TIP3   OH212235   5.127   5.138   3.429
 4097TIP3    H112236   5.066   5.154   3.358
 4097TIP3    H212237   5.187   5.071   3.395
 4098TIP3   OH212238   5.911   3.302   1.012
 4098TIP3    H112239   5.968   3.375   1.036
 4098TIP3    H212240   5.961   3.224   1.035
 4099TIP3   OH212241   7.698   3.771   5.020
 4099TIP3    H112242   7.639   3.702   5.051
 4099TIP3    H212243   7.726   3.740   4.934
 4100TIP3   OH212244   3.858   6.782   5.023
 4100TIP3    H112245   3.869   6.713   5.089
 4100TIP3    H212246   3.937   6.835   5.032
 4101TIP3   OH212247   0.630   6.628   6.511
 4101TIP3    H112248   0.702   6.683   6.541
 4101TIP3    H212249   0.554   6.659   6.560
 4102TIP3   OH212250   5.810   2.353   6.731
 4102TIP3    H112251   5.904   2.344   6.718
 4102TIP3    H212252   5.799   2.441   6.768
 4103TIP3   OH212253   4.794   3.861   6.480
 4103TIP3    H112254   4.847   3.890   6.554
 4103TIP3    H212255   4.850   3.871   6.404
 4104TIP3   OH212256   4.437   3.635   2.518
 4104TIP3    H112257   4.513   3.596   2.561
 4104TIP3    H212258   4.381   3.664   2.590
 4105TIP3   OH212259   2.792   0.821   5.176
 4105TIP3    H112260   2.821   0.912   5.185
 4105TIP3    H212261   2.865   0.777   5.133
 4106TIP3   OH212262   0.126   5.024   4.363
 4106TIP3    H112263   0.124   4.938   4.322
 4106TIP3    H212264   0.051   5.070   4.327
 4107TIP3   OH212265   4.423   1.514   2.067
 4107TIP3    H112266   4.348   1.521   2.126
 4107TIP3    H212267   4.461   1.428   2.087
 4108TIP3   OH212268   3.477   5.486   3.651
 4108TIP3    H112269   3.417   5.524   3.715
 4108TIP3    H212270   3.512   5.561   3.603
 4109TIP3   OH212271   6.105   2.796   0.133
 4109TIP3    H112272   6.034   2.824   0.190
 4109TIP3    H212273   6.168   2.868   0.134
 4110TIP3   OH212274   7.113   2.693   5.509
 4110TIP3    H112275   7.053   2.754   5.552
 4110TIP3    H212276   7.134   2.629   5.576
 4111TIP3   OH212277   4.434   5.530   6.801
 4111TIP3    H112278   4.379   5.531   6.723
 4111TIP3    H212279   4.500   5.598   6.784
 4112TIP3   OH212280   6.034   4.421   1.205
 4112TIP3    H112281   6.099   4.423   1.275
 4112TIP3    H212282   6.069   4.358   1.141
 4113TIP3   OH212283   4.047   5.807   5.216
 4113TIP3    H112284   4.032   5.722   5.257
 4113TIP3    H212285   3.992   5.807   5.138
 4114TIP3   OH212286   8.301   3.007   6.062
 4114TIP3    H112287   8.215   2.966   6.049
 4114TIP3    H212288   8.308   3.018   6.157
 4115TIP3   OH212289   4.614   3.089   0.136
 4115TIP3    H112290   4.523   3.082   0.166
 4115TIP3    H212291   4.664   3.097   0.217
 4116TIP3   OH212292   0.095   1.332   0.724
 4116TIP3    H112293   0.161   1.307   0.659
 4116TIP3    H212294   0.133   1.307   0.808
 4117TIP3   OH212295   8.166   4.566   5.157
 4117TIP3    H112296   8.200   4.629   5.221
 4117TIP3    H212297   8.096   4.520   5.203
 4118TIP3   OH212298   7.624   6.169   5.988
 4118TIP3    H112299   7.666   6.085   6.003
 4118TIP3    H212300   7.667   6.228   6.051
 4119TIP3   OH212301   4.458   5.040   3.948
 4119TIP3    H112302   4.510   4.975   3.996
 4119TIP3    H212303   4.369   5.006   3.952
 4120TIP3   OH212304   2.986   4.820   0.114
 4120TIP3    H112305   3.039   4.892   0.080
 4120TIP3    H212306   2.986   4.754   0.045
 4121TIP3   OH212307   4.883   4.994   0.390
 4121TIP3    H112308   4.880   4.956   0.477
 4121TIP3    H212309   4.923   4.926   0.335
 4122TIP3   OH212310   3.246   7.380   3.301
 4122TIP3    H112311   3.302   7.396   3.225
 4122TIP3    H212312   3.164   7.349   3.263
 4123TIP3   OH212313   3.399   4.503   6.485
 4123TIP3    H112314   3.450   4.533   6.560
 4123TIP3    H212315   3.324   4.561   6.481
 4124TIP3   OH212316   2.424   7.382   2.739
 4124TIP3    H112317   2.401   7.422   2.823
 4124TIP3    H212318   2.340   7.360   2.699
 4125TIP3   OH212319   3.121   1.503   0.132
 4125TIP3    H112320   3.073   1.443   0.190
 4125TIP3    H212321   3.210   1.469   0.131
 4126TIP3   OH212322   7.814   7.206   2.859
 4126TIP3    H112323   7.801   7.189   2.766
 4126TIP3    H212324   7.823   7.119   2.898
 4127TIP3   OH212325   7.439   4.001   6.077
 4127TIP3    H112326   7.350   4.037   6.071
 4127TIP3    H212327   7.462   3.980   5.987
 4128TIP3   OH212328   7.373   0.040   1.489
 4128TIP3    H112329   7.450   0.045   1.432
 4128TIP3    H212330   7.303   0.080   1.437
 4129TIP3   OH212331   5.883   2.214   3.677
 4129TIP3    H112332   5.827   2.291   3.666
 4129TIP3    H212333   5.893   2.205   3.772
 4130TIP3   OH212334   1.717   0.592   2.856
 4130TIP3    H112335   1.685   0.657   2.793
 4130TIP3    H212336   1.776   0.536   2.805
 4131TIP3   OH212337   0.484   3.280   0.604
 4131TIP3    H112338   0.562   3.289   0.549
 4131TIP3    H212339   0.478   3.365   0.649
 4132TIP3   OH212340   1.022   0.588   1.890
 4132TIP3    H112341   1.070   0.611   1.811
 4132TIP3    H212342   0.942   0.546   1.858
 4133TIP3   OH212343   6.275   3.527   3.733
 4133TIP3    H112344   6.281   3.459   3.800
 4133TIP3    H212345   6.321   3.489   3.658
 4134TIP3   OH212346   5.828   7.022   2.307
 4134TIP3    H112347   5.844   6.939   2.262
 4134TIP3    H212348   5.743   7.010   2.350
 4135TIP3   OH212349   4.046   0.326   3.431
 4135TIP3    H112350   4.021   0.351   3.343
 4135TIP3    H212351   4.092   0.403   3.466
 4136TIP3   OH212352   3.027   4.489   1.820
 4136TIP3    H112353   2.951   4.432   1.830
 4136TIP3    H212354   3.056   4.506   1.910
 4137TIP3   OH212355   8.177   4.133   0.527
 4137TIP3    H112356   8.085   4.114   0.546
 4137TIP3    H212357   8.223   4.051   0.545
 4138TIP3   OH212358   0.078   2.254   0.694
 4138TIP3    H112359   0.071   2.174   0.642
 4138TIP3    H212360   0.170   2.277   0.691
 4139TIP3   OH212361   3.170   4.043   3.399
 4139TIP3    H112362   3.151   3.970   3.340
 4139TIP3    H212363   3.125   4.020   3.481
 4140TIP3   OH212364   5.298   4.734   2.310
 4140TIP3    H112365   5.374   4.762   2.259
 4140TIP3    H212366   5.222   4.755   2.255
 4141TIP3   OH212367   2.657   7.648   0.041
 4141TIP3    H112368   2.706   7.702   0.103
 4141TIP3    H212369   2.721   7.626  -0.027
 4142TIP3   OH212370   0.765   1.904   3.561
 4142TIP3    H112371   0.827   1.939   3.624
 4142TIP3    H212372   0.818   1.856   3.498
 4143TIP3   OH212373   6.039   7.193   0.450
 4143TIP3    H112374   5.979   7.231   0.514
 4143TIP3    H212375   5.982   7.148   0.388
 4144TIP3   OH212376   1.156   7.662   5.073
 4144TIP3    H112377   1.149   7.567   5.078
 4144TIP3    H212378   1.244   7.678   5.039
 4145TIP3   OH212379   2.911   0.438   4.642
 4145TIP3    H112380   2.992   0.433   4.693
 4145TIP3    H212381   2.939   0.462   4.554
 4146TIP3   OH212382   3.023   2.469   2.050
 4146TIP3    H112383   2.971   2.449   1.972
 4146TIP3    H212384   3.094   2.405   2.048
 4147TIP3   OH212385   1.838   1.594   0.634
 4147TIP3    H112386   1.800   1.641   0.560
 4147TIP3    H212387   1.879   1.517   0.595
 4148TIP3   OH212388   3.392   6.594   2.393
 4148TIP3    H112389   3.415   6.655   2.323
 4148TIP3    H212390   3.413   6.642   2.474
 4149TIP3   OH212391   3.602   3.523   2.059
 4149TIP3    H112392   3.608   3.618   2.072
 4149TIP3    H212393   3.590   3.513   1.964
 4150TIP3   OH212394   7.229   4.138   1.121
 4150TIP3    H112395   7.246   4.139   1.216
 4150TIP3    H212396   7.134   4.143   1.114
 4151TIP3   OH212397   6.559   4.172   3.131
 4151TIP3    H112398   6.497   4.205   3.067
 4151TIP3    H212399   6.522   4.196   3.216
 4152TIP3   OH212400   4.460   2.015   3.245
 4152TIP3    H112401   4.454   2.002   3.151
 4152TIP3    H212402   4.466   1.927   3.282
 4153TIP3   OH212403   0.480   4.851   6.011
 4153TIP3    H112404   0.506   4.909   6.083
 4153TIP3    H212405   0.441   4.909   5.945
 4154TIP3   OH212406   7.169   0.250   6.193
 4154TIP3    H112407   7.224   0.275   6.118
 4154TIP3    H212408   7.086   0.223   6.154
 4155TIP3   OH212409   7.248   2.673   0.996
 4155TIP3    H112410   7.329   2.671   0.945
 4155TIP3    H212411   7.227   2.581   1.011
 4156TIP3   OH212412   0.832   6.530   0.136
 4156TIP3    H112413   0.746   6.495   0.110
 4156TIP3    H212414   0.814   6.586   0.211
 4157TIP3   OH212415   1.028   3.303   2.518
 4157TIP3    H112416   0.988   3.354   2.448
 4157TIP3    H212417   0.954   3.272   2.571
 4158TIP3   OH212418   5.855   6.617   1.688
 4158TIP3    H112419   5.898   6.676   1.749
 4158TIP3    H212420   5.921   6.550   1.668
 4159TIP3   OH212421   3.063   7.140   2.442
 4159TIP3    H112422   3.020   7.208   2.390
 4159TIP3    H212423   2.996   7.074   2.455
 4160TIP3   OH212424   6.437   2.143   3.396
 4160TIP3    H112425   6.384   2.222   3.383
 4160TIP3    H212426   6.527   2.174   3.394
 4161TIP3   OH212427   6.563   1.189   1.065
 4161TIP3    H112428   6.629   1.134   1.023
 4161TIP3    H212429   6.487   1.185   1.007
 4162TIP3   OH212430   5.066   0.175   4.513
 4162TIP3    H112431   4.989   0.158   4.459
 4162TIP3    H212432   5.060   0.111   4.584
 4163TIP3   OH212433   5.281   4.031   6.428
 4163TIP3    H112434   5.226   4.013   6.504
 4163TIP3    H212435   5.222   4.073   6.365
 4164TIP3   OH212436   0.059   2.562   2.513
 4164TIP3    H112437  -0.009   2.609   2.463
 4164TIP3    H212438   0.012   2.525   2.587
 4165TIP3   OH212439   2.392   3.115   3.247
 4165TIP3    H112440   2.437   3.056   3.185
 4165TIP3    H212441   2.413   3.203   3.215
 4166TIP3   OH212442   7.261   2.440   1.848
 4166TIP3    H112443   7.334   2.416   1.904
 4166TIP3    H212444   7.282   2.403   1.762
 4167TIP3   OH212445   2.994   5.723   3.038
 4167TIP3    H112446   3.089   5.730   3.045
 4167TIP3    H212447   2.980   5.660   2.967
 4168TIP3   OH212448   0.602   3.892   3.748
 4168TIP3    H112449   0.650   3.930   3.822
 4168TIP3    H212450   0.601   3.961   3.682
 4169TIP3   OH212451   4.669   3.538   5.874
 4169TIP3    H112452   4.604   3.557   5.940
 4169TIP3    H212453   4.753   3.546   5.919
 4170TIP3   OH212454   3.178   5.742   2.022
 4170TIP3    H112455   3.264   5.742   1.980
 4170TIP3    H212456   3.162   5.833   2.045
 4171TIP3   OH212457   7.138   5.237   5.797
 4171TIP3    H112458   7.071   5.180   5.834
 4171TIP3    H212459   7.170   5.289   5.871
 4172TIP3   OH212460   4.199   2.605   1.981
 4172TIP3    H112461   4.176   2.657   2.057
 4172TIP3    H212462   4.155   2.648   1.907
 4173TIP3   OH212463   0.690   6.475   3.443
 4173TIP3    H112464   0.699   6.521   3.527
 4173TIP3    H212465   0.608   6.427   3.451
 4174TIP3   OH212466   5.180   3.051   6.335
 4174TIP3    H112467   5.212   2.983   6.395
 4174TIP3    H212468   5.106   3.010   6.290
 4175TIP3   OH212469   6.107   1.083   1.643
 4175TIP3    H112470   6.145   1.055   1.726
 4175TIP3    H212471   6.182   1.098   1.586
 4176TIP3   OH212472   7.950   1.365   4.812
 4176TIP3    H112473   7.974   1.395   4.725
 4176TIP3    H212474   8.031   1.329   4.848
 4177TIP3   OH212475   7.448   1.809   4.874
 4177TIP3    H112476   7.509   1.881   4.861
 4177TIP3    H212477   7.498   1.743   4.922
 4178TIP3   OH212478   0.917   5.615   1.577
 4178TIP3    H112479   0.949   5.530   1.547
 4178TIP3    H212480   0.915   5.669   1.498
 4179TIP3   OH212481   5.632   1.935   5.089
 4179TIP3    H112482   5.549   1.955   5.133
 4179TIP3    H212483   5.696   1.994   5.129
 4180TIP3   OH212484   5.525   6.714   3.601
 4180TIP3    H112485   5.499   6.623   3.608
 4180TIP3    H212486   5.604   6.712   3.545
 4181TIP3   OH212487   3.347   5.050   0.230
 4181TIP3    H112488   3.279   4.983   0.220
 4181TIP3    H212489   3.394   5.050   0.146
 4182TIP3   OH212490   2.225   2.571   4.826
 4182TIP3    H112491   2.224   2.566   4.922
 4182TIP3    H212492   2.236   2.664   4.808
 4183TIP3   OH212493   1.911   4.744   3.125
 4183TIP3    H112494   1.832   4.780   3.086
 4183TIP3    H212495   1.914   4.653   3.094
 4184TIP3   OH212496   0.268   3.928   1.087
 4184TIP3    H112497   0.223   3.882   1.016
 4184TIP3    H212498   0.198   3.971   1.136
 4185TIP3   OH212499   2.275   1.943   2.665
 4185TIP3    H112500   2.277   1.957   2.570
 4185TIP3    H212501   2.189   1.976   2.691
 4186TIP3   OH212502   6.328   5.389   0.548
 4186TIP3    H112503   6.361   5.463   0.598
 4186TIP3    H212504   6.256   5.424   0.496
 4187TIP3   OH212505   1.529   2.140   4.587
 4187TIP3    H112506   1.590   2.194   4.537
 4187TIP3    H212507   1.466   2.203   4.623
 4188TIP3   OH212508   2.028   4.197   4.300
 4188TIP3    H112509   2.115   4.233   4.317
 4188TIP3    H212510   1.994   4.175   4.386
 4189TIP3   OH212511   7.192   5.574   6.379
 4189TIP3    H112512   7.118   5.541   6.328
 4189TIP3    H212513   7.152   5.627   6.448
 4190TIP3   OH212514   5.762   5.274   6.280
 4190TIP3    H112515   5.805   5.196   6.245
 4190TIP3    H212516   5.681   5.281   6.229
 4191TIP3   OH212517   3.321   4.690   2.581
 4191TIP3    H112518   3.366   4.634   2.518
 4191TIP3    H212519   3.231   4.659   2.580
 4192TIP3   OH212520   2.955   7.551   2.043
 4192TIP3    H112521   2.885   7.498   2.005
 4192TIP3    H212522   2.952   7.633   1.994
 4193TIP3   OH212523   7.132   3.160   0.296
 4193TIP3    H112524   7.132   3.131   0.387
 4193TIP3    H212525   7.111   3.082   0.245
 4194TIP3   OH212526   3.730   6.325   0.705
 4194TIP3    H112527   3.674   6.380   0.759
 4194TIP3    H212528   3.763   6.258   0.764
 4195TIP3   OH212529   4.097   7.036   0.376
 4195TIP3    H112530   4.187   7.069   0.381
 4195TIP3    H212531   4.058   7.061   0.460
 4196TIP3   OH212532   1.498   7.125   6.661
 4196TIP3    H112533   1.445   7.166   6.729
 4196TIP3    H212534   1.440   7.062   6.619
 4197TIP3   OH212535   4.104   7.054   4.085
 4197TIP3    H112536   4.123   6.978   4.030
 4197TIP3    H212537   4.186   7.103   4.089
 4198TIP3   OH212538   0.546   0.061   1.908
 4198TIP3    H112539   0.507   0.148   1.917
 4198TIP3    H212540   0.491   0.017   1.843
 4199TIP3   OH212541   6.899   2.697   2.212
 4199TIP3    H112542   6.854   2.630   2.161
 4199TIP3    H212543   6.898   2.774   2.155
 4200TIP3   OH212544   5.228   3.966   0.078
 4200TIP3    H112545   5.182   3.891   0.040
 4200TIP3    H212546   5.158   4.026   0.103
 4201TIP3   OH212547   4.708   3.881   6.049
 4201TIP3    H112548   4.664   3.841   6.124
 4201TIP3    H212549   4.764   3.948   6.086
 4202TIP3   OH212550   6.045   3.239   3.145
 4202TIP3    H112551   5.983   3.243   3.072
 4202TIP3    H212552   6.131   3.247   3.104
 4203TIP3   OH212553   1.944   1.821   5.037
 4203TIP3    H112554   1.964   1.787   5.124
 4203TIP3    H212555   1.890   1.899   5.053
 4204TIP3   OH212556   1.674   2.710   0.829
 4204TIP3    H112557   1.710   2.625   0.802
 4204TIP3    H212558   1.645   2.751   0.748
 4205TIP3   OH212559   4.656   6.486   3.100
 4205TIP3    H112560   4.636   6.400   3.064
 4205TIP3    H212561   4.695   6.468   3.186
 4206TIP3   OH212562   6.918   2.404   6.347
 4206TIP3    H112563   6.984   2.354   6.298
 4206TIP3    H212564   6.856   2.338   6.377
 4207TIP3   OH212565   7.731   6.232   1.839
 4207TIP3    H112566   7.815   6.268   1.811
 4207TIP3    H212567   7.691   6.303   1.889
 4208TIP3   OH212568   4.394   6.911   6.208
 4208TIP3    H112569   4.383   6.879   6.298
 4208TIP3    H212570   4.416   6.832   6.158
 4209TIP3   OH212571   3.740   2.665   0.095
 4209TIP3    H112572   3.721   2.727   0.165
 4209TIP3    H212573   3.830   2.636   0.112
 4210TIP3   OH212574   4.960   4.566   1.306
 4210TIP3    H112575   4.951   4.661   1.299
 4210TIP3    H212576   5.009   4.553   1.387
 4211TIP3   OH212577   3.402   6.141   3.399
 4211TIP3    H112578   3.448   6.098   3.327
 4211TIP3    H212579   3.441   6.228   3.404
 4212TIP3   OH212580   0.144   4.276   6.019
 4212TIP3    H112581   0.209   4.211   6.047
 4212TIP3    H212582   0.079   4.276   6.089
 4213TIP3   OH212583   1.957   2.947   0.160
 4213TIP3    H112584   1.932   2.984   0.075
 4213TIP3    H212585   1.967   3.023   0.217
 4214TIP3   OH212586   4.559   4.179   4.501
 4214TIP3    H112587   4.488   4.234   4.535
 4214TIP3    H212588   4.530   4.155   4.413
 4215TIP3   OH212589   7.920   7.440   6.439
 4215TIP3    H112590   7.886   7.498   6.506
 4215TIP3    H212591   8.009   7.419   6.468
 4216TIP3   OH212592   4.847   1.016   0.294
 4216TIP3    H112593   4.824   0.950   0.360
 4216TIP3    H212594   4.798   0.989   0.216
 4217TIP3   OH212595   0.374   1.154   0.729
 4217TIP3    H112596   0.322   1.101   0.789
 4217TIP3    H212597   0.379   1.102   0.649
 4218TIP3   OH212598   1.004   0.470   3.173
 4218TIP3    H112599   0.985   0.504   3.086
 4218TIP3    H212600   0.920   0.435   3.204
 4219TIP3   OH212601   2.985   0.607   5.138
 4219TIP3    H112602   3.020   0.609   5.227
 4219TIP3    H212603   2.965   0.514   5.123
 4220TIP3   OH212604   7.774   2.024   0.283
 4220TIP3    H112605   7.779   2.012   0.189
 4220TIP3    H212606   7.861   2.058   0.307
 4221TIP3   OH212607   4.063   2.536   1.163
 4221TIP3    H112608   4.112   2.464   1.202
 4221TIP3    H212609   4.058   2.602   1.231
 4222TIP3   OH212610   1.001   0.524   4.857
 4222TIP3    H112611   0.925   0.580   4.843
 4222TIP3    H212612   1.028   0.540   4.947
 4223TIP3   OH212613   1.572   2.262   2.175
 4223TIP3    H112614   1.499   2.269   2.114
 4223TIP3    H212615   1.633   2.201   2.132
 4224TIP3   OH212616   7.575   2.423   6.603
 4224TIP3    H112617   7.578   2.453   6.513
 4224TIP3    H212618   7.482   2.428   6.627
 4225TIP3   OH212619   1.820   1.131   0.788
 4225TIP3    H112620   1.800   1.118   0.695
 4225TIP3    H212621   1.788   1.219   0.807
 4226TIP3   OH212622   7.813   3.908   3.842
 4226TIP3    H112623   7.877   3.915   3.913
 4226TIP3    H212624   7.842   3.831   3.792
 4227TIP3   OH212625   5.020   4.302   6.497
 4227TIP3    H112626   4.984   4.333   6.415
 4227TIP3    H212627   5.034   4.381   6.550
 4228TIP3   OH212628   6.667   2.555   4.741
 4228TIP3    H112629   6.582   2.598   4.752
 4228TIP3    H212630   6.651   2.486   4.678
 4229TIP3   OH212631   1.788   7.234   2.007
 4229TIP3    H112632   1.704   7.252   1.965
 4229TIP3    H212633   1.801   7.307   2.067
 4230TIP3   OH212634   3.242   6.286   4.726
 4230TIP3    H112635   3.231   6.378   4.701
 4230TIP3    H212636   3.194   6.237   4.660
 4231TIP3   OH212637   6.799   0.239   5.397
 4231TIP3    H112638   6.717   0.289   5.396
 4231TIP3    H212639   6.819   0.228   5.490
 4232TIP3   OH212640   7.657   4.062   1.286
 4232TIP3    H112641   7.752   4.061   1.290
 4232TIP3    H212642   7.636   4.125   1.216
 4233TIP3   OH212643   4.103   0.584   0.725
 4233TIP3    H112644   4.036   0.570   0.658
 4233TIP3    H212645   4.053   0.596   0.806
 4234TIP3   OH212646   4.362   1.074   1.219
 4234TIP3    H112647   4.328   1.017   1.149
 4234TIP3    H212648   4.441   1.112   1.182
 4235TIP3   OH212649   7.629   0.591   3.436
 4235TIP3    H112650   7.566   0.521   3.451
 4235TIP3    H212651   7.588   0.649   3.372
 4236TIP3   OH212652   1.299   3.334   3.489
 4236TIP3    H112653   1.228   3.337   3.553
 4236TIP3    H212654   1.265   3.283   3.416
 4237TIP3   OH212655   5.329   2.953   5.391
 4237TIP3    H112656   5.277   3.033   5.400
 4237TIP3    H212657   5.408   2.969   5.442
 4238TIP3   OH212658   3.887   6.031   5.306
 4238TIP3    H112659   3.946   5.958   5.286
 4238TIP3    H212660   3.925   6.106   5.260
 4239TIP3   OH212661   2.147   3.259   2.925
 4239TIP3    H112662   2.181   3.321   2.989
 4239TIP3    H212663   2.112   3.187   2.977
 4240TIP3   OH212664   6.825   3.829   2.389
 4240TIP3    H112665   6.791   3.901   2.442
 4240TIP3    H212666   6.919   3.831   2.403
 4241TIP3   OH212667   0.531   7.554   1.245
 4241TIP3    H112668   0.478   7.603   1.309
 4241TIP3    H212669   0.518   7.462   1.269
 4242TIP3   OH212670   4.733   4.009   2.154
 4242TIP3    H112671   4.650   4.053   2.175
 4242TIP3    H212672   4.790   4.080   2.124
 4243TIP3   OH212673   0.170   1.861   3.077
 4243TIP3    H112674   0.210   1.797   3.135
 4243TIP3    H212675   0.139   1.930   3.135
 4244TIP3   OH212676   4.921   7.731   2.866
 4244TIP3    H112677   4.952   7.643   2.846
 4244TIP3    H212678   4.826   7.726   2.855
 4245TIP3   OH212679   7.073   5.618   6.094
 4245TIP3    H112680   7.037   5.697   6.132
 4245TIP3    H212681   7.003   5.583   6.040
 4246TIP3   OH212682   1.828   2.037   4.710
 4246TIP3    H112683   1.915   2.001   4.691
 4246TIP3    H212684   1.786   2.046   4.624
 4247TIP3   OH212685   6.425   7.365   0.307
 4247TIP3    H112686   6.428   7.398   0.397
 4247TIP3    H212687   6.508   7.392   0.268
 4248TIP3   OH212688   4.190   1.640   6.759
 4248TIP3    H112689   4.158   1.592   6.683
 4248TIP3    H212690   4.166   1.731   6.741
 4249TIP3   OH212691   2.462   1.139   4.868
 4249TIP3    H112692   2.524   1.174   4.804
 4249TIP3    H212693   2.506   1.061   4.902
 4250TIP3   OH212694   1.230   4.241   4.514
 4250TIP3    H112695   1.223   4.152   4.548
 4250TIP3    H212696   1.312   4.241   4.465
 4251TIP3   OH212697   4.576   1.226   1.118
 4251TIP3    H112698   4.663   1.194   1.092
 4251TIP3    H212699   4.551   1.286   1.048
 4252TIP3   OH212700   6.322   3.450   0.785
 4252TIP3    H112701   6.241   3.410   0.753
 4252TIP3    H212702   6.379   3.453   0.709
 4253TIP3   OH212703   5.359   5.379   2.512
 4253TIP3    H112704   5.306   5.355   2.436
 4253TIP3    H212705   5.389   5.468   2.493
 4254TIP3   OH212706   8.225   2.015   5.068
 4254TIP3    H112707   8.249   2.028   4.976
 4254TIP3    H212708   8.224   2.103   5.105
 4255TIP3   OH212709   2.376   2.757   0.545
 4255TIP3    H112710   2.378   2.837   0.493
 4255TIP3    H212711   2.284   2.744   0.567
 4256TIP3   OH212712   2.789   6.593   5.816
 4256TIP3    H112713   2.837   6.674   5.833
 4256TIP3    H212714   2.745   6.573   5.899
 4257TIP3   OH212715   2.567   2.887   5.452
 4257TIP3    H112716   2.507   2.958   5.473
 4257TIP3    H212717   2.545   2.817   5.513
 4258TIP3   OH212718   5.366   3.698   5.553
 4258TIP3    H112719   5.390   3.768   5.615
 4258TIP3    H212720   5.392   3.617   5.598
 4259TIP3   OH212721   8.116   6.138   3.287
 4259TIP3    H112722   8.201   6.102   3.310
 4259TIP3    H212723   8.057   6.104   3.355
 4260TIP3   OH212724   7.060   0.873   0.898
 4260TIP3    H112725   7.133   0.868   0.837
 4260TIP3    H212726   7.050   0.967   0.916
 4261TIP3   OH212727   4.119   6.468   4.323
 4261TIP3    H112728   4.035   6.423   4.328
 4261TIP3    H212729   4.185   6.399   4.332
 4262TIP3   OH212730   1.238   4.642   2.459
 4262TIP3    H112731   1.263   4.549   2.454
 4262TIP3    H212732   1.301   4.687   2.403
 4263TIP3   OH212733   0.808   0.602   4.274
 4263TIP3    H112734   0.862   0.610   4.352
 4263TIP3    H212735   0.834   0.676   4.219
 4264TIP3   OH212736   1.807   7.421   1.346
 4264TIP3    H112737   1.874   7.383   1.290
 4264TIP3    H212738   1.837   7.509   1.365
 4265TIP3   OH212739   4.982   1.254   0.380
 4265TIP3    H112740   4.988   1.275   0.287
 4265TIP3    H212741   4.931   1.174   0.384
 4266TIP3   OH212742   0.873   4.668   6.764
 4266TIP3    H112743   0.912   4.695   6.848
 4266TIP3    H212744   0.814   4.740   6.741
 4267TIP3   OH212745   0.728   0.608   1.868
 4267TIP3    H112746   0.659   0.609   1.802
 4267TIP3    H212747   0.723   0.694   1.910
 4268TIP3   OH212748   3.051   1.968   2.348
 4268TIP3    H112749   3.057   1.968   2.252
 4268TIP3    H212750   2.988   1.899   2.368
 4269TIP3   OH212751   1.013   4.476   5.641
 4269TIP3    H112752   1.024   4.556   5.589
 4269TIP3    H212753   1.046   4.406   5.585
 4270TIP3   OH212754   1.556   1.656   5.882
 4270TIP3    H112755   1.548   1.748   5.907
 4270TIP3    H212756   1.515   1.651   5.795
 4271TIP3   OH212757   0.574   1.437   3.016
 4271TIP3    H112758   0.580   1.519   2.967
 4271TIP3    H212759   0.509   1.454   3.084
 4272TIP3   OH212760   4.061   3.796   2.060
 4272TIP3    H112761   4.121   3.855   2.014
 4272TIP3    H212762   3.998   3.769   1.993
 4273TIP3   OH212763   7.822   4.002   5.446
 4273TIP3    H112764   7.896   4.053   5.479
 4273TIP3    H212765   7.762   3.995   5.520
 4274TIP3   OH212766   1.704   5.668   1.599
 4274TIP3    H112767   1.719   5.719   1.679
 4274TIP3    H212768   1.769   5.597   1.604
 4275TIP3   OH212769   3.356   2.606   3.586
 4275TIP3    H112770   3.268   2.585   3.617
 4275TIP3    H212771   3.382   2.681   3.640
 4276TIP3   OH212772   1.214   1.730   0.797
 4276TIP3    H112773   1.144   1.779   0.840
 4276TIP3    H212774   1.187   1.725   0.705
 4277TIP3   OH212775   3.444   0.197   6.149
 4277TIP3    H112776   3.390   0.272   6.128
 4277TIP3    H212777   3.489   0.221   6.230
 4278TIP3   OH212778   3.643   7.496   4.573
 4278TIP3    H112779   3.657   7.443   4.494
 4278TIP3    H212780   3.698   7.454   4.639
 4279TIP3   OH212781   2.872   6.782   3.484
 4279TIP3    H112782   2.779   6.776   3.463
 4279TIP3    H212783   2.905   6.853   3.429
 4280TIP3   OH212784   1.783   4.689   4.668
 4280TIP3    H112785   1.792   4.750   4.595
 4280TIP3    H212786   1.764   4.605   4.627
 4281TIP3   OH212787   4.699   0.272   1.951
 4281TIP3    H112788   4.708   0.277   1.856
 4281TIP3    H212789   4.780   0.229   1.980
 4282TIP3   OH212790   8.238   5.227   6.274
 4282TIP3    H112791   8.283   5.236   6.190
 4282TIP3    H212792   8.193   5.143   6.269
 4283TIP3   OH212793   4.365   3.250   2.867
 4283TIP3    H112794   4.458   3.261   2.847
 4283TIP3    H212795   4.331   3.199   2.793
 4284TIP3   OH212796   7.884   1.335   0.527
 4284TIP3    H112797   7.852   1.419   0.557
 4284TIP3    H212798   7.878   1.278   0.603
 4285TIP3   OH212799   3.134   3.820   5.814
 4285TIP3    H112800   3.213   3.781   5.853
 4285TIP3    H212801   3.133   3.785   5.725
 4286TIP3   OH212802   3.987   0.762   5.588
 4286TIP3    H112803   3.995   0.786   5.496
 4286TIP3    H212804   4.053   0.694   5.601
 4287TIP3   OH212805   3.436   7.161   6.518
 4287TIP3    H112806   3.527   7.166   6.490
 4287TIP3    H212807   3.420   7.245   6.561
 4288TIP3   OH212808   7.558   5.679   5.096
 4288TIP3    H112809   7.606   5.606   5.056
 4288TIP3    H212810   7.577   5.671   5.189
 4289TIP3   OH212811   2.012   2.933   1.739
 4289TIP3    H112812   2.059   2.973   1.813
 4289TIP3    H212813   1.959   3.004   1.704
 4290TIP3   OH212814   5.916   4.507   4.941
 4290TIP3    H112815   5.942   4.489   4.851
 4290TIP3    H212816   5.987   4.471   4.994
 4291TIP3   OH212817   4.736   2.346   0.278
 4291TIP3    H112818   4.799   2.274   0.278
 4291TIP3    H212819   4.690   2.339   0.194
 4292TIP3   OH212820   6.728   6.933   6.221
 4292TIP3    H112821   6.811   6.974   6.195
 4292TIP3    H212822   6.754   6.861   6.278
 4293TIP3   OH212823   8.129   1.844   2.908
 4293TIP3    H112824   8.211   1.796   2.900
 4293TIP3    H212825   8.105   1.837   3.001
 4294TIP3   OH212826   5.642   5.201   4.002
 4294TIP3    H112827   5.598   5.281   3.972
 4294TIP3    H212828   5.572   5.136   4.009
 4295TIP3   OH212829   6.389   3.755   4.434
 4295TIP3    H112830   6.297   3.774   4.415
 4295TIP3    H212831   6.414   3.821   4.499
 4296TIP3   OH212832   0.023   3.953   1.260
 4296TIP3    H112833   0.050   3.909   1.341
 4296TIP3    H212834  -0.016   4.035   1.290
 4297TIP3   OH212835   4.660   4.366   2.607
 4297TIP3    H112836   4.747   4.406   2.609
 4297TIP3    H212837   4.675   4.273   2.623
 4298TIP3   OH212838   5.425   6.695   4.160
 4298TIP3    H112839   5.370   6.668   4.087
 4298TIP3    H212840   5.402   6.635   4.231
 4299TIP3   OH212841   7.462   0.595   6.373
 4299TIP3    H112842   7.480   0.689   6.377
 4299TIP3    H212843   7.458   0.567   6.464
 4300TIP3   OH212844   5.370   7.590   5.210
 4300TIP3    H112845   5.308   7.542   5.156
 4300TIP3    H212846   5.454   7.545   5.197
 4301TIP3   OH212847   3.705   2.723   1.821
 4301TIP3    H112848   3.741   2.637   1.846
 4301TIP3    H212849   3.664   2.707   1.736
 4302TIP3   OH212850   3.036   4.202   2.227
 4302TIP3    H112851   3.044   4.264   2.300
 4302TIP3    H212852   2.971   4.138   2.256
 4303TIP3   OH212853   4.819   0.529   2.533
 4303TIP3    H112854   4.832   0.471   2.608
 4303TIP3    H212855   4.804   0.471   2.459
 4304TIP3   OH212856   7.780   4.599   0.876
 4304TIP3    H112857   7.765   4.670   0.938
 4304TIP3    H212858   7.704   4.600   0.818
 4305TIP3   OH212859   3.853   4.959   0.678
 4305TIP3    H112860   3.813   4.996   0.756
 4305TIP3    H212861   3.895   4.879   0.708
 4306TIP3   OH212862   0.428   2.273   5.906
 4306TIP3    H112863   0.363   2.238   5.845
 4306TIP3    H212864   0.434   2.366   5.884
 4307TIP3   OH212865   4.243   5.590   0.768
 4307TIP3    H112866   4.152   5.594   0.797
 4307TIP3    H212867   4.258   5.497   0.750
 4308TIP3   OH212868   3.511   6.723   2.180
 4308TIP3    H112869   3.554   6.808   2.171
 4308TIP3    H212870   3.578   6.660   2.153
 4309TIP3   OH212871   6.320   6.801   4.900
 4309TIP3    H112872   6.384   6.732   4.883
 4309TIP3    H212873   6.270   6.769   4.975
 4310TIP3   OH212874   3.540   4.546   6.090
 4310TIP3    H112875   3.548   4.593   6.008
 4310TIP3    H212876   3.466   4.589   6.135
 4311TIP3   OH212877   6.083   1.813   5.282
 4311TIP3    H112878   6.032   1.888   5.251
 4311TIP3    H212879   6.154   1.851   5.333
 4312TIP3   OH212880   6.102   5.411   4.644
 4312TIP3    H112881   6.084   5.486   4.701
 4312TIP3    H212882   6.197   5.401   4.649
 4313TIP3   OH212883   1.020   3.226   5.546
 4313TIP3    H112884   0.930   3.195   5.535
 4313TIP3    H212885   1.065   3.198   5.467
 4314TIP3   OH212886   1.364   4.765   3.782
 4314TIP3    H112887   1.423   4.755   3.858
 4314TIP3    H212888   1.297   4.826   3.812
 4315TIP3   OH212889   4.215   4.773   2.413
 4315TIP3    H112890   4.127   4.809   2.401
 4315TIP3    H212891   4.214   4.691   2.364
 4316TIP3   OH212892   7.091   7.370   4.322
 4316TIP3    H112893   7.132   7.448   4.284
 4316TIP3    H212894   7.038   7.404   4.394
 4317TIP3   OH212895   3.767   6.879   2.448
 4317TIP3    H112896   3.830   6.882   2.375
 4317TIP3    H212897   3.806   6.818   2.510
 4318TIP3   OH212898   3.301   0.144   3.381
 4318TIP3    H112899   3.211   0.131   3.351
 4318TIP3    H212900   3.292   0.198   3.460
 4319TIP3   OH212901   7.519   2.743   2.451
 4319TIP3    H112902   7.531   2.648   2.447
 4319TIP3    H212903   7.435   2.758   2.407
 4320TIP3   OH212904   3.718   6.945   3.369
 4320TIP3    H112905   3.744   6.902   3.450
 4320TIP3    H212906   3.795   6.996   3.343
 4321TIP3   OH212907   2.142   1.707   6.249
 4321TIP3    H112908   2.225   1.730   6.291
 4321TIP3    H212909   2.103   1.791   6.224
 4322TIP3   OH212910   3.679   0.502   3.667
 4322TIP3    H112911   3.726   0.504   3.750
 4322TIP3    H212912   3.743   0.532   3.602
 4323TIP3   OH212913   5.373   5.914   1.197
 4323TIP3    H112914   5.304   5.849   1.210
 4323TIP3    H212915   5.445   5.884   1.253
 4324TIP3   OH212916   3.319   0.149   5.536
 4324TIP3    H112917   3.396   0.097   5.512
 4324TIP3    H212918   3.333   0.234   5.493
 4325TIP3   OH212919   6.133   6.327   5.529
 4325TIP3    H112920   6.227   6.346   5.524
 4325TIP3    H212921   6.116   6.318   5.623
 4326TIP3   OH212922   2.622   2.816   5.948
 4326TIP3    H112923   2.594   2.827   6.039
 4326TIP3    H212924   2.650   2.904   5.921
 4327TIP3   OH212925   2.146   5.486   1.075
 4327TIP3    H112926   2.054   5.468   1.097
 4327TIP3    H212927   2.192   5.407   1.104
 4328TIP3   OH212928   3.504   4.617   5.432
 4328TIP3    H112929   3.479   4.538   5.383
 4328TIP3    H212930   3.567   4.661   5.375
 4329TIP3   OH212931   4.227   5.680   3.381
 4329TIP3    H112932   4.150   5.736   3.369
 4329TIP3    H212933   4.232   5.666   3.476
 4330TIP3   OH212934   3.748   7.153   2.596
 4330TIP3    H112935   3.828   7.198   2.621
 4330TIP3    H212936   3.778   7.074   2.551
 4331TIP3   OH212937   0.602   4.710   1.481
 4331TIP3    H112938   0.626   4.633   1.429
 4331TIP3    H212939   0.599   4.678   1.571
 4332TIP3   OH212940   0.956   0.595   4.520
 4332TIP3    H112941   1.025   0.654   4.548
 4332TIP3    H212942   0.876   0.633   4.556
 4333TIP3   OH212943   4.288   4.709   3.625
 4333TIP3    H112944   4.349   4.727   3.697
 4333TIP3    H212945   4.206   4.685   3.669
 4334TIP3   OH212946   4.002   0.497   6.381
 4334TIP3    H112947   3.992   0.405   6.407
 4334TIP3    H212948   4.018   0.493   6.287
 4335TIP3   OH212949   1.602   2.795   0.554
 4335TIP3    H112950   1.556   2.742   0.488
 4335TIP3    H212951   1.689   2.809   0.517
 4336TIP3   OH212952   0.410   3.310   5.066
 4336TIP3    H112953   0.384   3.324   5.157
 4336TIP3    H212954   0.432   3.397   5.033
 4337TIP3   OH212955   4.282   1.602   6.261
 4337TIP3    H112956   4.279   1.639   6.173
 4337TIP3    H212957   4.249   1.513   6.251
 4338TIP3   OH212958   0.347   6.937   3.699
 4338TIP3    H112959   0.400   6.863   3.669
 4338TIP3    H212960   0.402   7.014   3.684
 4339TIP3   OH212961   1.537   3.921   3.954
 4339TIP3    H112962   1.630   3.908   3.973
 4339TIP3    H212963   1.504   3.972   4.028
 4340TIP3   OH212964   4.490   6.353   4.478
 4340TIP3    H112965   4.536   6.269   4.485
 4340TIP3    H212966   4.410   6.333   4.429
 4341TIP3   OH212967   4.700   3.487   3.679
 4341TIP3    H112968   4.666   3.574   3.659
 4341TIP3    H212969   4.664   3.431   3.610
 4342TIP3   OH212970   4.208   1.439   3.898
 4342TIP3    H112971   4.211   1.468   3.990
 4342TIP3    H212972   4.244   1.512   3.849
 4343TIP3   OH212973   2.385   5.014   4.887
 4343TIP3    H112974   2.433   5.097   4.893
 4343TIP3    H212975   2.420   4.961   4.958
 4344TIP3   OH212976   6.754   1.175   3.096
 4344TIP3    H112977   6.746   1.255   3.148
 4344TIP3    H212978   6.798   1.203   3.015
 4345TIP3   OH212979   6.488   5.782   2.568
 4345TIP3    H112980   6.549   5.755   2.499
 4345TIP3    H212981   6.468   5.873   2.547
 4346TIP3   OH212982   6.290   7.208   0.752
 4346TIP3    H112983   6.383   7.228   0.756
 4346TIP3    H212984   6.269   7.173   0.839
 4347TIP3   OH212985   0.171   1.590   6.610
 4347TIP3    H112986   0.177   1.552   6.523
 4347TIP3    H212987   0.219   1.673   6.604
 4348TIP3   OH212988   6.050   5.114   1.317
 4348TIP3    H112989   5.998   5.189   1.289
 4348TIP3    H212990   6.019   5.096   1.406
 4349TIP3   OH212991   3.035   2.686   6.320
 4349TIP3    H112992   3.065   2.753   6.382
 4349TIP3    H212993   2.981   2.734   6.257
 4350TIP3   OH212994   4.690   7.453   0.855
 4350TIP3    H112995   4.637   7.430   0.931
 4350TIP3    H212996   4.693   7.373   0.802
 4351TIP3   OH212997   6.439   2.378   3.825
 4351TIP3    H112998   6.357   2.383   3.875
 4351TIP3    H212999   6.506   2.356   3.890
 4352TIP3   OH213000   4.755   0.472   2.953
 4352TIP3    H113001   4.791   0.443   3.037
 4352TIP3    H213002   4.663   0.447   2.956
 4353TIP3   OH213003   0.140   6.535   4.812
 4353TIP3    H113004   0.079   6.584   4.868
 4353TIP3    H213005   0.186   6.477   4.873
 4354TIP3   OH213006   4.662   1.880   5.425
 4354TIP3    H113007   4.726   1.926   5.371
 4354TIP3    H213008   4.715   1.824   5.482
 4355TIP3   OH213009   3.026   3.822   0.644
 4355TIP3    H113010   3.043   3.911   0.674
 4355TIP3    H213011   3.025   3.828   0.548
 4356TIP3   OH213012   2.914   0.374   5.331
 4356TIP3    H113013   2.956   0.449   5.372
 4356TIP3    H213014   2.970   0.299   5.353
 4357TIP3   OH213015   3.338   5.758   0.793
 4357TIP3    H113016   3.341   5.703   0.872
 4357TIP3    H213017   3.359   5.698   0.722
 4358TIP3   OH213018   0.699   6.446   2.681
 4358TIP3    H113019   0.794   6.443   2.692
 4358TIP3    H213020   0.674   6.356   2.659
 4359TIP3   OH213021   0.905   1.714   6.189
 4359TIP3    H113022   0.960   1.649   6.145
 4359TIP3    H213023   0.933   1.711   6.280
 4360TIP3   OH213024   7.924   4.248   1.266
 4360TIP3    H113025   7.924   4.297   1.183
 4360TIP3    H213026   7.900   4.313   1.332
 4361TIP3   OH213027   0.428   7.465   3.053
 4361TIP3    H113028   0.442   7.512   2.971
 4361TIP3    H213029   0.405   7.376   3.026
 4362TIP3   OH213030   3.786   0.079   5.096
 4362TIP3    H113031   3.843   0.002   5.091
 4362TIP3    H213032   3.730   0.072   5.018
 4363TIP3   OH213033   4.685   3.862   2.519
 4363TIP3    H113034   4.757   3.876   2.457
 4363TIP3    H213035   4.709   3.782   2.565
 4364TIP3   OH213036   6.936   5.709   2.012
 4364TIP3    H113037   6.976   5.793   1.989
 4364TIP3    H213038   6.998   5.643   1.978
 4365TIP3   OH213039   3.274   7.098   1.226
 4365TIP3    H113040   3.319   7.059   1.301
 4365TIP3    H213041   3.343   7.112   1.162
 4366TIP3   OH213042   3.977   7.749   1.580
 4366TIP3    H113043   3.984   7.704   1.664
 4366TIP3    H213044   4.054   7.722   1.530
 4367TIP3   OH213045   7.335   4.978   2.901
 4367TIP3    H113046   7.261   4.925   2.929
 4367TIP3    H213047   7.386   4.991   2.981
 4368TIP3   OH213048   1.706   1.346   2.860
 4368TIP3    H113049   1.697   1.393   2.943
 4368TIP3    H213050   1.779   1.285   2.876
 4369TIP3   OH213051   2.338   1.461   6.641
 4369TIP3    H113052   2.424   1.481   6.604
 4369TIP3    H213053   2.278   1.521   6.597
 4370TIP3   OH213054   6.969   6.050   3.414
 4370TIP3    H113055   7.053   6.005   3.410
 4370TIP3    H213056   6.972   6.113   3.342
 4371TIP3   OH213057   0.972   5.591   0.195
 4371TIP3    H113058   1.003   5.681   0.200
 4371TIP3    H213059   0.896   5.589   0.252
 4372TIP3   OH213060   2.840   0.325   2.949
 4372TIP3    H113061   2.906   0.256   2.947
 4372TIP3    H213062   2.880   0.399   2.903
 4373TIP3   OH213063   0.580   3.639   3.860
 4373TIP3    H113064   0.595   3.722   3.814
 4373TIP3    H213065   0.494   3.610   3.829
 4374TIP3   OH213066   2.579   7.813   2.181
 4374TIP3    H113067   2.625   7.733   2.156
 4374TIP3    H213068   2.498   7.783   2.221
 4375TIP3   OH213069   8.075   2.065   0.061
 4375TIP3    H113070   7.999   2.011   0.041
 4375TIP3    H213071   8.050   2.113   0.139
 4376TIP3   OH213072   2.323   1.732   4.425
 4376TIP3    H113073   2.338   1.818   4.466
 4376TIP3    H213074   2.286   1.753   4.339
 4377TIP3   OH213075   5.926   3.395   1.471
 4377TIP3    H113076   5.896   3.485   1.458
 4377TIP3    H213077   5.891   3.347   1.396
 4378TIP3   OH213078   1.276   6.751   1.629
 4378TIP3    H113079   1.279   6.709   1.715
 4378TIP3    H213080   1.288   6.844   1.648
 4379TIP3   OH213081   7.299   6.107   1.946
 4379TIP3    H113082   7.341   6.033   1.902
 4379TIP3    H213083   7.334   6.184   1.900
 4380TIP3   OH213084   4.646   7.014   2.024
 4380TIP3    H113085   4.592   6.939   2.046
 4380TIP3    H213086   4.649   7.066   2.104
 4381TIP3   OH213087   2.772   0.201   1.972
 4381TIP3    H113088   2.790   0.176   1.881
 4381TIP3    H213089   2.690   0.157   1.993
 4382TIP3   OH213090   1.326   1.166   3.401
 4382TIP3    H113091   1.407   1.215   3.419
 4382TIP3    H213092   1.353   1.101   3.336
 4383TIP3   OH213093   3.338   7.424   3.040
 4383TIP3    H113094   3.275   7.463   2.979
 4383TIP3    H213095   3.422   7.433   2.995
 4384TIP3   OH213096   6.372   2.385   5.099
 4384TIP3    H113097   6.400   2.470   5.134
 4384TIP3    H213098   6.435   2.323   5.134
 4385TIP3   OH213099   5.688   0.507   5.690
 4385TIP3    H113100   5.676   0.430   5.745
 4385TIP3    H213101   5.706   0.578   5.751
 4386TIP3   OH213102   7.270   3.148   1.261
 4386TIP3    H113103   7.186   3.147   1.308
 4386TIP3    H213104   7.303   3.237   1.276
 4387TIP3   OH213105   7.673   6.750   2.540
 4387TIP3    H113106   7.608   6.744   2.470
 4387TIP3    H213107   7.622   6.774   2.618
 4388TIP3   OH213108   4.647   1.637   3.095
 4388TIP3    H113109   4.670   1.687   3.017
 4388TIP3    H213110   4.721   1.579   3.110
 4389TIP3   OH213111   3.391   2.240   4.114
 4389TIP3    H113112   3.456   2.244   4.043
 4389TIP3    H213113   3.429   2.292   4.184
 4390TIP3   OH213114   0.100   1.466   6.387
 4390TIP3    H113115   0.077   1.396   6.325
 4390TIP3    H213116   0.065   1.545   6.348
 4391TIP3   OH213117   7.402   3.526   4.601
 4391TIP3    H113118   7.394   3.488   4.514
 4391TIP3    H213119   7.313   3.524   4.636
 4392TIP3   OH213120   5.659   1.518   3.243
 4392TIP3    H113121   5.570   1.503   3.275
 4392TIP3    H213122   5.675   1.611   3.260
 4393TIP3   OH213123   6.302   1.112   3.123
 4393TIP3    H113124   6.315   1.186   3.064
 4393TIP3    H213125   6.290   1.151   3.209
 4394TIP3   OH213126   7.820   5.874   3.001
 4394TIP3    H113127   7.780   5.812   3.063
 4394TIP3    H213128   7.858   5.942   3.056
 4395TIP3   OH213129   7.026   1.384   0.758
 4395TIP3    H113130   6.993   1.367   0.669
 4395TIP3    H213131   6.975   1.459   0.788
 4396TIP3   OH213132   5.410   5.879   4.978
 4396TIP3    H113133   5.432   5.970   4.957
 4396TIP3    H213134   5.380   5.842   4.894
 4397TIP3   OH213135   3.204   1.436   0.463
 4397TIP3    H113136   3.248   1.519   0.481
 4397TIP3    H213137   3.122   1.441   0.513
 4398TIP3   OH213138   5.633   5.359   4.985
 4398TIP3    H113139   5.553   5.310   4.970
 4398TIP3    H213140   5.636   5.422   4.913
 4399TIP3   OH213141   2.157   2.066   4.786
 4399TIP3    H113142   2.194   2.027   4.865
 4399TIP3    H213143   2.137   2.156   4.811
 4400TIP3   OH213144   4.313   0.246   2.258
 4400TIP3    H113145   4.290   0.235   2.165
 4400TIP3    H213146   4.403   0.277   2.257
 4401TIP3   OH213147   2.673   5.062   4.329
 4401TIP3    H113148   2.764   5.070   4.356
 4401TIP3    H213149   2.665   5.122   4.255
 4402TIP3   OH213150   5.715   3.820   5.011
 4402TIP3    H113151   5.672   3.778   5.085
 4402TIP3    H213152   5.684   3.772   4.935
 4403TIP3   OH213153   2.790   3.227   1.982
 4403TIP3    H113154   2.742   3.223   1.899
 4403TIP3    H213155   2.770   3.314   2.017
 4404TIP3   OH213156   4.122   5.710   4.742
 4404TIP3    H113157   4.080   5.655   4.807
 4404TIP3    H213158   4.114   5.661   4.660
 4405TIP3   OH213159   3.816   1.229   1.729
 4405TIP3    H113160   3.899   1.268   1.700
 4405TIP3    H213161   3.791   1.171   1.657
 4406TIP3   OH213162   4.300   0.555   1.999
 4406TIP3    H113163   4.325   0.560   2.091
 4406TIP3    H213164   4.236   0.484   1.995
 4407TIP3   OH213165   3.708   1.219   5.485
 4407TIP3    H113166   3.683   1.150   5.423
 4407TIP3    H213167   3.730   1.172   5.566
 4408TIP3   OH213168   0.984   1.416   0.237
 4408TIP3    H113169   0.992   1.350   0.305
 4408TIP3    H213170   1.062   1.471   0.247
 4409TIP3   OH213171   5.901   7.760   2.100
 4409TIP3    H113172   5.981   7.736   2.053
 4409TIP3    H213173   5.846   7.802   2.033
 4410TIP3   OH213174   0.176   3.685   5.408
 4410TIP3    H113175   0.146   3.640   5.487
 4410TIP3    H213176   0.268   3.660   5.399
 4411TIP3   OH213177   3.084   2.031   4.697
 4411TIP3    H113178   3.014   1.970   4.723
 4411TIP3    H213179   3.072   2.042   4.603
 4412TIP3   OH213180   0.274   0.732   6.636
 4412TIP3    H113181   0.244   0.738   6.546
 4412TIP3    H213182   0.200   0.693   6.683
 4413TIP3   OH213183   0.358   5.547   6.064
 4413TIP3    H113184   0.428   5.532   6.000
 4413TIP3    H213185   0.389   5.505   6.144
 4414TIP3   OH213186   0.317   5.493   1.002
 4414TIP3    H113187   0.354   5.467   0.918
 4414TIP3    H213188   0.372   5.565   1.032
 4415TIP3   OH213189   5.562   5.953   2.991
 4415TIP3    H113190   5.491   5.981   2.933
 4415TIP3    H213191   5.628   6.022   2.982
 4416TIP3   OH213192   4.128   6.164   3.350
 4416TIP3    H113193   4.078   6.199   3.277
 4416TIP3    H213194   4.076   6.185   3.428
 4417TIP3   OH213195   7.426   7.727   4.261
 4417TIP3    H113196   7.409   7.675   4.340
 4417TIP3    H213197   7.344   7.722   4.211
 4418TIP3   OH213198   5.253   0.960   6.536
 4418TIP3    H113199   5.165   0.988   6.511
 4418TIP3    H213200   5.272   0.886   6.479
 4419TIP3   OH213201   3.073   0.667   3.926
 4419TIP3    H113202   3.075   0.707   4.013
 4419TIP3    H213203   3.006   0.599   3.932
 4420TIP3   OH213204   5.051   4.085   2.688
 4420TIP3    H113205   5.144   4.070   2.699
 4420TIP3    H213206   5.023   4.125   2.771
 4421TIP3   OH213207   3.276   4.975   0.829
 4421TIP3    H113208   3.239   5.044   0.773
 4421TIP3    H213209   3.203   4.915   0.843
 4422TIP3   OH213210   2.305   3.453   5.711
 4422TIP3    H113211   2.226   3.400   5.706
 4422TIP3    H213212   2.373   3.392   5.740
 4423TIP3   OH213213   5.375   3.218   0.234
 4423TIP3    H113214   5.292   3.192   0.194
 4423TIP3    H213215   5.398   3.145   0.292
 4424TIP3   OH213216   0.183   0.115   4.776
 4424TIP3    H113217   0.184   0.209   4.763
 4424TIP3    H213218   0.275   0.089   4.766
 4425TIP3   OH213219   0.962   1.037   1.909
 4425TIP3    H113220   0.923   1.101   1.967
 4425TIP3    H213221   0.975   0.959   1.964
 4426TIP3   OH213222   5.643   5.719   5.497
 4426TIP3    H113223   5.691   5.719   5.580
 4426TIP3    H213224   5.600   5.805   5.495
 4427TIP3   OH213225   8.023   2.709   5.090
 4427TIP3    H113226   8.043   2.663   5.172
 4427TIP3    H213227   8.050   2.799   5.106
 4428TIP3   OH213228   6.505   6.977   2.068
 4428TIP3    H113229   6.595   6.944   2.062
 4428TIP3    H213230   6.487   7.014   1.982
 4429TIP3   OH213231   0.148   1.914   6.309
 4429TIP3    H113232   0.103   1.982   6.359
 4429TIP3    H213233   0.188   1.960   6.235
 4430TIP3   OH213234   1.073   0.611   1.075
 4430TIP3    H113235   1.117   0.661   1.007
 4430TIP3    H213236   1.057   0.673   1.146
 4431TIP3   OH213237   3.766   4.978   6.061
 4431TIP3    H113238   3.857   4.949   6.065
 4431TIP3    H213239   3.723   4.914   6.003
 4432TIP3   OH213240   3.094   4.347   2.906
 4432TIP3    H113241   3.180   4.311   2.932
 4432TIP3    H213242   3.032   4.280   2.932
 4433TIP3   OH213243   4.188   3.576   6.065
 4433TIP3    H113244   4.157   3.490   6.037
 4433TIP3    H213245   4.111   3.633   6.059
 4434TIP3   OH213246   2.292   3.113   3.952
 4434TIP3    H113247   2.343   3.193   3.935
 4434TIP3    H213248   2.201   3.141   3.944
 4435TIP3   OH213249   2.803   7.249   1.180
 4435TIP3    H113250   2.817   7.179   1.117
 4435TIP3    H213251   2.732   7.302   1.142
 4436TIP3   OH213252   1.282   6.404   6.139
 4436TIP3    H113253   1.216   6.338   6.120
 4436TIP3    H213254   1.237   6.468   6.194
 4437TIP3   OH213255   5.323   0.433   4.110
 4437TIP3    H113256   5.331   0.391   4.195
 4437TIP3    H213257   5.409   0.472   4.095
 4438TIP3   OH213258   2.209   0.754   0.187
 4438TIP3    H113259   2.120   0.766   0.154
 4438TIP3    H213260   2.208   0.669   0.231
 4439TIP3   OH213261   3.710   5.961   1.137
 4439TIP3    H113262   3.632   5.910   1.161
 4439TIP3    H213263   3.706   6.039   1.193
 4440TIP3   OH213264   7.496   6.458   6.536
 4440TIP3    H113265   7.519   6.539   6.582
 4440TIP3    H213266   7.534   6.468   6.449
 4441TIP3   OH213267   5.536   2.316   3.786
 4441TIP3    H113268   5.441   2.331   3.778
 4441TIP3    H213269   5.549   2.293   3.877
 4442TIP3   OH213270   2.096   5.715   3.645
 4442TIP3    H113271   2.014   5.681   3.682
 4442TIP3    H213272   2.078   5.806   3.624
 4443TIP3   OH213273   6.999   2.869   4.643
 4443TIP3    H113274   6.929   2.882   4.579
 4443TIP3    H213275   7.029   2.779   4.628
 4444TIP3   OH213276   2.997   0.643   3.008
 4444TIP3    H113277   3.065   0.655   2.941
 4444TIP3    H213278   2.916   0.633   2.958
 4445TIP3   OH213279   3.090   4.120   4.298
 4445TIP3    H113280   3.082   4.215   4.285
 4445TIP3    H213281   3.151   4.091   4.230
 4446TIP3   OH213282   6.542   6.731   6.069
 4446TIP3    H113283   6.594   6.759   6.144
 4446TIP3    H213284   6.562   6.637   6.060
 4447TIP3   OH213285   5.207   3.633   1.721
 4447TIP3    H113286   5.299   3.607   1.719
 4447TIP3    H213287   5.209   3.724   1.752
 4448TIP3   OH213288   4.422   5.971   4.400
 4448TIP3    H113289   4.379   6.026   4.334
 4448TIP3    H213290   4.351   5.937   4.453
 4449TIP3   OH213291   2.776   6.108   1.818
 4449TIP3    H113292   2.773   6.177   1.884
 4449TIP3    H213293   2.860   6.064   1.833
 4450TIP3   OH213294   3.217   1.721   2.093
 4450TIP3    H113295   3.131   1.744   2.058
 4450TIP3    H213296   3.255   1.805   2.120
 4451TIP3   OH213297   5.562   5.445   3.913
 4451TIP3    H113298   5.619   5.522   3.922
 4451TIP3    H213299   5.477   5.481   3.887
 4452TIP3   OH213300   0.550   0.492   6.463
 4452TIP3    H113301   0.486   0.458   6.525
 4452TIP3    H213302   0.508   0.569   6.425
 4453TIP3   OH213303   0.920   6.121   1.429
 4453TIP3    H113304   0.917   6.113   1.333
 4453TIP3    H213305   0.877   6.041   1.460
 4454TIP3   OH213306   1.332   0.759   3.765
 4454TIP3    H113307   1.314   0.852   3.755
 4454TIP3    H213308   1.411   0.744   3.713
 4455TIP3   OH213309   1.463   0.289   5.243
 4455TIP3    H113310   1.477   0.382   5.226
 4455TIP3    H213311   1.530   0.245   5.191
 4456TIP3   OH213312   4.497   7.051   1.169
 4456TIP3    H113313   4.416   7.047   1.220
 4456TIP3    H213314   4.499   6.969   1.119
 4457TIP3   OH213315   7.130   6.811   1.006
 4457TIP3    H113316   7.182   6.850   0.935
 4457TIP3    H213317   7.151   6.718   1.003
 4458TIP3   OH213318   5.236   1.847   3.130
 4458TIP3    H113319   5.326   1.852   3.163
 4458TIP3    H213320   5.190   1.791   3.193
 4459TIP3   OH213321   8.183   6.981   4.532
 4459TIP3    H113322   8.209   6.972   4.624
 4459TIP3    H213323   8.242   7.047   4.497
 4460TIP3   OH213324   3.355   6.847   5.077
 4460TIP3    H113325   3.446   6.857   5.048
 4460TIP3    H213326   3.349   6.900   5.157
 4461TIP3   OH213327   2.049   7.754   5.508
 4461TIP3    H113328   2.135   7.714   5.518
 4461TIP3    H213329   1.987   7.681   5.512
 4462TIP3   OH213330   0.479   2.370   4.009
 4462TIP3    H113331   0.474   2.323   4.092
 4462TIP3    H213332   0.488   2.462   4.035
 4463TIP3   OH213333   1.687   0.371   3.374
 4463TIP3    H113334   1.736   0.452   3.360
 4463TIP3    H213335   1.623   0.393   3.442
 4464TIP3   OH213336   0.169   4.032   2.457
 4464TIP3    H113337   0.140   4.057   2.370
 4464TIP3    H213338   0.171   3.936   2.456
 4465TIP3   OH213339   6.730   2.158   5.133
 4465TIP3    H113340   6.755   2.146   5.042
 4465TIP3    H213341   6.813   2.159   5.181
 4466TIP3   OH213342   4.303   6.044   4.854
 4466TIP3    H113343   4.211   6.040   4.880
 4466TIP3    H213344   4.339   6.118   4.902
 4467TIP3   OH213345   6.542   7.631   1.941
 4467TIP3    H113346   6.513   7.722   1.937
 4467TIP3    H213347   6.561   7.608   1.850
 4468TIP3   OH213348   2.705   1.279   0.328
 4468TIP3    H113349   2.733   1.190   0.308
 4468TIP3    H213350   2.610   1.278   0.313
 4469TIP3   OH213351   6.168   3.333   1.333
 4469TIP3    H113352   6.088   3.355   1.381
 4469TIP3    H213353   6.226   3.408   1.348
 4470TIP3   OH213354   6.734   7.689   3.186
 4470TIP3    H113355   6.700   7.778   3.189
 4470TIP3    H213356   6.824   7.699   3.155
 4471TIP3   OH213357   1.763   7.599   0.880
 4471TIP3    H113358   1.830   7.617   0.946
 4471TIP3    H213359   1.746   7.684   0.840
 4472TIP3   OH213360   5.840   2.643   0.006
 4472TIP3    H113361   5.887   2.576   0.057
 4472TIP3    H213362   5.827   2.715   0.068
 4473TIP3   OH213363   0.805   1.266   0.500
 4473TIP3    H113364   0.785   1.188   0.551
 4473TIP3    H213365   0.845   1.232   0.420
 4474TIP3   OH213366   7.605   5.784   2.557
 4474TIP3    H113367   7.690   5.745   2.574
 4474TIP3    H213368   7.622   5.854   2.494
 4475TIP3   OH213369   3.705   0.689   3.307
 4475TIP3    H113370   3.656   0.758   3.354
 4475TIP3    H213371   3.747   0.639   3.377
 4476TIP3   OH213372   0.977   3.777   5.890
 4476TIP3    H113373   0.921   3.853   5.908
 4476TIP3    H213374   1.036   3.772   5.964
 4477TIP3   OH213375   4.522   0.568   0.262
 4477TIP3    H113376   4.434   0.573   0.298
 4477TIP3    H213377   4.514   0.607   0.174
 4478TIP3   OH213378   7.665   3.268   4.540
 4478TIP3    H113379   7.709   3.352   4.554
 4478TIP3    H213380   7.691   3.242   4.451
 4479TIP3   OH213381   2.532   7.444   0.199
 4479TIP3    H113382   2.591   7.514   0.174
 4479TIP3    H213383   2.575   7.364   0.169
 4480TIP3   OH213384   7.031   1.785   3.061
 4480TIP3    H113385   6.971   1.840   3.112
 4480TIP3    H213386   7.092   1.847   3.022
 4481TIP3   OH213387   1.751   4.781   0.627
 4481TIP3    H113388   1.784   4.773   0.538
 4481TIP3    H213389   1.657   4.765   0.620
 4482TIP3   OH213390   5.994   6.034   2.137
 4482TIP3    H113391   5.988   6.088   2.058
 4482TIP3    H213392   6.065   5.972   2.118
 4483TIP3   OH213393   6.430   7.454   2.635
 4483TIP3    H113394   6.345   7.411   2.631
 4483TIP3    H213395   6.463   7.451   2.545
 4484TIP3   OH213396   4.682   4.683   5.813
 4484TIP3    H113397   4.724   4.640   5.738
 4484TIP3    H213398   4.671   4.774   5.784
 4485TIP3   OH213399   5.872   7.163   1.254
 4485TIP3    H113400   5.857   7.212   1.173
 4485TIP3    H213401   5.785   7.140   1.285
 4486TIP3   OH213402   0.725   3.883   1.003
 4486TIP3    H113403   0.668   3.960   1.010
 4486TIP3    H213404   0.750   3.880   0.911
 4487TIP3   OH213405   2.146   0.654   6.090
 4487TIP3    H113406   2.202   0.655   6.013
 4487TIP3    H213407   2.202   0.689   6.160
 4488TIP3   OH213408   2.005   2.662   1.369
 4488TIP3    H113409   2.096   2.693   1.374
 4488TIP3    H213410   1.972   2.670   1.458
 4489TIP3   OH213411   1.012   2.426   1.494
 4489TIP3    H113412   0.938   2.480   1.521
 4489TIP3    H213413   1.061   2.481   1.434
 4490TIP3   OH213414   4.081   1.333   3.560
 4490TIP3    H113415   4.014   1.394   3.590
 4490TIP3    H213416   4.105   1.365   3.473
 4491TIP3   OH213417   6.962   6.135   0.109
 4491TIP3    H113418   6.917   6.209   0.149
 4491TIP3    H213419   7.007   6.172   0.033
 4492TIP3   OH213420   6.504   7.603   2.207
 4492TIP3    H113421   6.496   7.590   2.113
 4492TIP3    H213422   6.433   7.663   2.229
 4493TIP3   OH213423   3.387   1.548   0.175
 4493TIP3    H113424   3.342   1.632   0.164
 4493TIP3    H213425   3.408   1.520   0.086
 4494TIP3   OH213426   5.603   4.750   3.685
 4494TIP3    H113427   5.531   4.805   3.655
 4494TIP3    H213428   5.599   4.755   3.780
 4495TIP3   OH213429   3.844   6.557   0.615
 4495TIP3    H113430   3.812   6.466   0.611
 4495TIP3    H213431   3.858   6.573   0.709
 4496TIP3   OH213432   1.281   4.463   5.098
 4496TIP3    H113433   1.212   4.529   5.090
 4496TIP3    H213434   1.363   4.513   5.097
 4497TIP3   OH213435   5.502   5.241   2.155
 4497TIP3    H113436   5.572   5.233   2.090
 4497TIP3    H213437   5.445   5.166   2.138
 4498TIP3   OH213438   2.283   3.868   0.660
 4498TIP3    H113439   2.349   3.913   0.713
 4498TIP3    H213440   2.272   3.783   0.703
 4499TIP3   OH213441   3.139   3.457   4.977
 4499TIP3    H113442   3.072   3.437   4.911
 4499TIP3    H213443   3.090   3.476   5.056
 4500TIP3   OH213444   5.925   4.163   3.643
 4500TIP3    H113445   5.902   4.074   3.616
 4500TIP3    H213446   5.854   4.190   3.700
 4501TIP3   OH213447   7.139   1.582   2.876
 4501TIP3    H113448   7.093   1.665   2.893
 4501TIP3    H213449   7.091   1.517   2.928
 4502TIP3   OH213450   4.026   6.468   1.803
 4502TIP3    H113451   4.044   6.407   1.733
 4502TIP3    H213452   4.080   6.545   1.783
 4503TIP3   OH213453   2.187   3.996   3.876
 4503TIP3    H113454   2.202   4.089   3.894
 4503TIP3    H213455   2.122   3.969   3.940
 4504TIP3   OH213456   3.588   2.385   5.923
 4504TIP3    H113457   3.673   2.388   5.879
 4504TIP3    H213458   3.527   2.358   5.855
 4505TIP3   OH213459   1.454   6.373   6.520
 4505TIP3    H113460   1.370   6.398   6.557
 4505TIP3    H213461   1.479   6.447   6.464
 4506TIP3   OH213462   3.658   6.041   4.057
 4506TIP3    H113463   3.585   6.073   4.109
 4506TIP3    H213464   3.736   6.077   4.099
 4507TIP3   OH213465   6.543   2.317   0.337
 4507TIP3    H113466   6.478   2.264   0.383
 4507TIP3    H213467   6.551   2.396   0.390
 4508TIP3   OH213468   7.145   6.867   5.847
 4508TIP3    H113469   7.184   6.951   5.823
 4508TIP3    H213470   7.083   6.848   5.777
 4509TIP3   OH213471   1.513   3.066   1.970
 4509TIP3    H113472   1.419   3.086   1.969
 4509TIP3    H213473   1.546   3.111   2.048
 4510TIP3   OH213474   5.402   2.315   4.494
 4510TIP3    H113475   5.343   2.317   4.419
 4510TIP3    H213476   5.355   2.364   4.562
 4511TIP3   OH213477   6.362   3.136   5.102
 4511TIP3    H113478   6.279   3.118   5.059
 4511TIP3    H213479   6.347   3.217   5.151
 4512TIP3   OH213480   4.871   5.938   5.766
 4512TIP3    H113481   4.794   5.939   5.822
 4512TIP3    H213482   4.868   5.853   5.723
 4513TIP3   OH213483   2.833   1.515   5.799
 4513TIP3    H113484   2.871   1.517   5.711
 4513TIP3    H213485   2.845   1.425   5.829
 4514TIP3   OH213486   6.148   6.411   6.346
 4514TIP3    H113487   6.204   6.488   6.334
 4514TIP3    H213488   6.073   6.444   6.395
 4515TIP3   OH213489   5.156   2.558   3.023
 4515TIP3    H113490   5.221   2.626   3.042
 4515TIP3    H213491   5.161   2.499   3.098
 4516TIP3   OH213492   1.391   3.586   6.594
 4516TIP3    H113493   1.332   3.629   6.656
 4516TIP3    H213494   1.332   3.540   6.534
 4517TIP3   OH213495   0.033   7.346   1.916
 4517TIP3    H113496   0.060   7.257   1.941
 4517TIP3    H213497  -0.062   7.342   1.915
 4518TIP3   OH213498   6.752   0.585   6.107
 4518TIP3    H113499   6.811   0.649   6.068
 4518TIP3    H213500   6.674   0.586   6.051
 4519TIP3   OH213501   4.921   5.889   4.421
 4519TIP3    H113502   4.829   5.901   4.397
 4519TIP3    H213503   4.960   5.975   4.411
 4520TIP3   OH213504   7.165   1.963   2.895
 4520TIP3    H113505   7.077   1.972   2.859
 4520TIP3    H213506   7.216   1.923   2.825
 4521TIP3   OH213507   0.570   2.326   6.416
 4521TIP3    H113508   0.587   2.328   6.510
 4521TIP3    H213509   0.656   2.332   6.375
 4522TIP3   OH213510   1.341   2.354   3.214
 4522TIP3    H113511   1.374   2.442   3.233
 4522TIP3    H213512   1.418   2.298   3.223
 4523TIP3   OH213513   2.968   4.979   3.768
 4523TIP3    H113514   3.042   4.976   3.707
 4523TIP3    H213515   3.008   4.997   3.853
 4524TIP3   OH213516   6.134   7.457   1.066
 4524TIP3    H113517   6.080   7.504   1.003
 4524TIP3    H213518   6.072   7.422   1.130
 4525TIP3   OH213519   7.584   3.936   4.839
 4525TIP3    H113520   7.574   3.860   4.783
 4525TIP3    H213521   7.628   3.903   4.917
 4526TIP3   OH213522   1.924   6.722   2.293
 4526TIP3    H113523   1.911   6.656   2.361
 4526TIP3    H213524   1.839   6.730   2.251
 4527TIP3   OH213525   5.126   2.087   4.786
 4527TIP3    H113526   5.177   2.094   4.867
 4527TIP3    H213527   5.054   2.028   4.807
 4528TIP3   OH213528   0.352   2.537   4.387
 4528TIP3    H113529   0.350   2.441   4.381
 4528TIP3    H213530   0.393   2.565   4.305
 4529TIP3   OH213531   1.115   3.357   3.681
 4529TIP3    H113532   1.171   3.434   3.691
 4529TIP3    H213533   1.030   3.385   3.714
 4530TIP3   OH213534   5.078   0.430   3.916
 4530TIP3    H113535   5.149   0.400   3.973
 4530TIP3    H213536   5.000   0.387   3.948
 4531TIP3   OH213537   7.920   7.752   5.972
 4531TIP3    H113538   7.845   7.775   6.027
 4531TIP3    H213539   7.905   7.799   5.890
 4532TIP3   OH213540   4.323   3.144   0.182
 4532TIP3    H113541   4.264   3.098   0.241
 4532TIP3    H213542   4.290   3.124   0.094
 4533TIP3   OH213543   0.654   7.505   6.121
 4533TIP3    H113544   0.587   7.440   6.144
 4533TIP3    H213545   0.618   7.588   6.152
 4534TIP3   OH213546   4.519   4.576   2.521
 4534TIP3    H113547   4.560   4.661   2.540
 4534TIP3    H213548   4.588   4.512   2.538
 4535TIP3   OH213549   0.262   6.065   5.768
 4535TIP3    H113550   0.298   6.122   5.835
 4535TIP3    H213551   0.168   6.065   5.783
 4536TIP3   OH213552   1.682   2.775   6.782
 4536TIP3    H113553   1.704   2.800   6.692
 4536TIP3    H213554   1.760   2.728   6.813
 4537TIP3   OH213555   6.779   6.144   6.640
 4537TIP3    H113556   6.710   6.209   6.650
 4537TIP3    H213557   6.855   6.183   6.683
 4538TIP3   OH213558   3.698   1.128   6.432
 4538TIP3    H113559   3.714   1.040   6.397
 4538TIP3    H213560   3.641   1.113   6.507
 4539TIP3   OH213561   4.247   3.218   5.800
 4539TIP3    H113562   4.340   3.216   5.777
 4539TIP3    H213563   4.206   3.268   5.729
 4540TIP3   OH213564   2.816   3.110   6.230
 4540TIP3    H113565   2.908   3.114   6.258
 4540TIP3    H213566   2.766   3.121   6.311
 4541TIP3   OH213567   8.146   0.695   5.820
 4541TIP3    H113568   8.232   0.665   5.849
 4541TIP3    H213569   8.117   0.628   5.758
 4542TIP3   OH213570   4.779   2.469   5.707
 4542TIP3    H113571   4.741   2.467   5.794
 4542TIP3    H213572   4.802   2.377   5.689
 4543TIP3   OH213573   7.668   0.603   5.739
 4543TIP3    H113574   7.651   0.605   5.833
 4543TIP3    H213575   7.691   0.693   5.716
 4544TIP3   OH213576   8.374   7.072   0.942
 4544TIP3    H113577   8.407   7.121   0.866
 4544TIP3    H213578   8.324   7.137   0.992
 4545TIP3   OH213579   0.305   2.070   5.517
 4545TIP3    H113580   0.398   2.090   5.510
 4545TIP3    H213581   0.299   1.976   5.500
 4546TIP3   OH213582   6.569   0.473   4.969
 4546TIP3    H113583   6.620   0.391   4.970
 4546TIP3    H213584   6.509   0.464   5.043
 4547TIP3   OH213585   2.383   6.576   4.917
 4547TIP3    H113586   2.404   6.489   4.883
 4547TIP3    H213587   2.322   6.560   4.989
 4548TIP3   OH213588   7.316   0.738   0.980
 4548TIP3    H113589   7.256   0.666   0.997
 4548TIP3    H213590   7.267   0.816   1.008
 4549TIP3   OH213591   5.654   3.668   1.975
 4549TIP3    H113592   5.693   3.592   2.018
 4549TIP3    H213593   5.714   3.740   1.993
 4550TIP3   OH213594   0.408   3.591   4.269
 4550TIP3    H113595   0.412   3.554   4.181
 4550TIP3    H213596   0.497   3.584   4.303
 4551TIP3   OH213597   0.007   5.506   5.786
 4551TIP3    H113598   0.055   5.587   5.770
 4551TIP3    H213599   0.024   5.453   5.708
 4552TIP3   OH213600   5.620   4.555   0.524
 4552TIP3    H113601   5.692   4.578   0.583
 4552TIP3    H213602   5.557   4.626   0.535
 4553TIP3   OH213603   1.819   0.711   3.098
 4553TIP3    H113604   1.772   0.715   3.015
 4553TIP3    H213605   1.908   0.683   3.073
 4554TIP3   OH213606   4.282   5.546   6.579
 4554TIP3    H113607   4.271   5.639   6.555
 4554TIP3    H213608   4.321   5.506   6.501
 4555TIP3   OH213609   4.840   3.004   5.261
 4555TIP3    H113610   4.913   2.942   5.265
 4555TIP3    H213611   4.764   2.954   5.292
 4556TIP3   OH213612   1.775   5.479   4.863
 4556TIP3    H113613   1.798   5.545   4.798
 4556TIP3    H213614   1.704   5.429   4.823
 4557TIP3   OH213615   4.005   4.931   5.359
 4557TIP3    H113616   4.005   4.980   5.278
 4557TIP3    H213617   4.074   4.865   5.347
 4558TIP3   OH213618   3.399   2.710   4.457
 4558TIP3    H113619   3.397   2.800   4.424
 4558TIP3    H213620   3.475   2.708   4.516
 4559TIP3   OH213621   6.670   4.364   6.046
 4559TIP3    H113622   6.636   4.438   6.096
 4559TIP3    H213623   6.607   4.293   6.062
 4560TIP3   OH213624   2.631   3.258   2.301
 4560TIP3    H113625   2.656   3.185   2.244
 4560TIP3    H213626   2.623   3.332   2.241
 4561TIP3   OH213627   2.589   5.955   1.292
 4561TIP3    H113628   2.668   5.986   1.247
 4561TIP3    H213629   2.517   5.987   1.237
 4562TIP3   OH213630   2.327   2.539   2.227
 4562TIP3    H113631   2.249   2.586   2.256
 4562TIP3    H213632   2.365   2.505   2.307
 4563TIP3   OH213633   7.078   7.039   3.937
 4563TIP3    H113634   7.111   7.103   3.874
 4563TIP3    H213635   7.137   6.964   3.927
 4564TIP3   OH213636   5.385   2.549   4.111
 4564TIP3    H113637   5.350   2.610   4.176
 4564TIP3    H213638   5.332   2.470   4.122
 4565TIP3   OH213639   3.384   4.164   4.845
 4565TIP3    H113640   3.375   4.204   4.931
 4565TIP3    H213641   3.419   4.076   4.862
 4566TIP3   OH213642  -0.015   6.744   2.247
 4566TIP3    H113643   0.062   6.751   2.191
 4566TIP3    H213644   0.013   6.779   2.331
 4567TIP3   OH213645   1.138   7.699   4.758
 4567TIP3    H113646   1.213   7.648   4.730
 4567TIP3    H213647   1.108   7.744   4.679
 4568TIP3   OH213648   1.870   5.271   3.168
 4568TIP3    H113649   1.897   5.180   3.176
 4568TIP3    H213650   1.951   5.321   3.180
 4569TIP3   OH213651   4.301   4.185   4.892
 4569TIP3    H113652   4.215   4.199   4.853
 4569TIP3    H213653   4.283   4.127   4.967
 4570TIP3   OH213654   2.696   6.561   0.747
 4570TIP3    H113655   2.709   6.467   0.736
 4570TIP3    H213656   2.643   6.568   0.826
 4571TIP3   OH213657   4.266   1.904   1.030
 4571TIP3    H113658   4.321   1.848   0.976
 4571TIP3    H213659   4.182   1.860   1.032
 4572TIP3   OH213660   3.091   4.061   1.771
 4572TIP3    H113661   3.163   4.036   1.712
 4572TIP3    H213662   3.129   4.129   1.827
 4573TIP3   OH213663   2.618   5.093   5.559
 4573TIP3    H113664   2.533   5.049   5.554
 4573TIP3    H213665   2.603   5.179   5.520
 4574TIP3   OH213666   0.858   4.582   2.561
 4574TIP3    H113667   0.763   4.581   2.552
 4574TIP3    H213668   0.873   4.615   2.650
 4575TIP3   OH213669   5.197   2.936   3.001
 4575TIP3    H113670   5.114   2.888   2.992
 4575TIP3    H213671   5.239   2.926   2.916
 4576TIP3   OH213672   3.877   4.624   4.277
 4576TIP3    H113673   3.934   4.691   4.317
 4576TIP3    H213674   3.791   4.638   4.317
 4577TIP3   OH213675   4.127   0.570   3.485
 4577TIP3    H113676   4.186   0.537   3.553
 4577TIP3    H213677   4.178   0.637   3.439
 4578TIP3   OH213678   4.171   4.840   5.708
 4578TIP3    H113679   4.157   4.932   5.732
 4578TIP3    H213680   4.158   4.792   5.790
 4579TIP3   OH213681   5.088   2.432   2.208
 4579TIP3    H113682   5.007   2.387   2.232
 4579TIP3    H213683   5.155   2.392   2.264
 4580TIP3   OH213684   5.388   3.752   0.583
 4580TIP3    H113685   5.409   3.806   0.506
 4580TIP3    H213686   5.298   3.724   0.567
 4581TIP3   OH213687   7.825   0.922   3.709
 4581TIP3    H113688   7.914   0.957   3.717
 4581TIP3    H213689   7.830   0.857   3.639
 4582TIP3   OH213690   0.976   0.960   0.750
 4582TIP3    H113691   1.046   0.896   0.766
 4582TIP3    H213692   0.905   0.933   0.809
 4583TIP3   OH213693   4.875   1.538   6.006
 4583TIP3    H113694   4.829   1.492   5.936
 4583TIP3    H213695   4.881   1.474   6.077
 4584TIP3   OH213696   0.013   2.643   2.040
 4584TIP3    H113697  -0.039   2.564   2.056
 4584TIP3    H213698   0.042   2.634   1.949
 4585TIP3   OH213699   7.920   4.945   0.678
 4585TIP3    H113700   8.008   4.956   0.642
 4585TIP3    H213701   7.919   4.997   0.758
 4586TIP3   OH213702   0.237   6.490   6.135
 4586TIP3    H113703   0.195   6.567   6.174
 4586TIP3    H213704   0.215   6.418   6.195
 4587TIP3   OH213705   0.374   0.122   3.161
 4587TIP3    H113706   0.335   0.208   3.178
 4587TIP3    H213707   0.448   0.117   3.221
 4588TIP3   OH213708   0.782   2.616   4.053
 4588TIP3    H113709   0.752   2.606   3.962
 4588TIP3    H213710   0.831   2.698   4.053
 4589TIP3   OH213711   5.988   4.201   4.259
 4589TIP3    H113712   5.914   4.223   4.203
 4589TIP3    H213713   6.064   4.206   4.202
 4590TIP3   OH213714   7.324   6.670   5.952
 4590TIP3    H113715   7.285   6.755   5.971
 4590TIP3    H213716   7.294   6.650   5.863
 4591TIP3   OH213717   4.969   3.734   3.427
 4591TIP3    H113718   4.893   3.748   3.369
 4591TIP3    H213719   4.981   3.817   3.471
 4592TIP3   OH213720   1.576   5.814   1.247
 4592TIP3    H113721   1.649   5.752   1.258
 4592TIP3    H213722   1.616   5.900   1.263
 4593TIP3   OH213723   7.207   3.029   5.280
 4593TIP3    H113724   7.220   3.044   5.374
 4593TIP3    H213725   7.162   3.107   5.249
 4594TIP3   OH213726   0.286   6.605   2.713
 4594TIP3    H113727   0.221   6.536   2.720
 4594TIP3    H213728   0.237   6.686   2.732
 4595TIP3   OH213729   2.229   5.557   5.201
 4595TIP3    H113730   2.240   5.630   5.139
 4595TIP3    H213731   2.236   5.598   5.287
 4596TIP3   OH213732   1.920   5.311   2.012
 4596TIP3    H113733   2.006   5.330   1.974
 4596TIP3    H213734   1.939   5.265   2.094
 4597TIP3   OH213735   6.472   3.978   6.378
 4597TIP3    H113736   6.472   3.901   6.321
 4597TIP3    H213737   6.559   3.979   6.417
 4598TIP3   OH213738   2.066   6.302   0.958
 4598TIP3    H113739   2.092   6.342   0.876
 4598TIP3    H213740   1.981   6.342   0.979
 4599TIP3   OH213741   6.903   0.540   0.144
 4599TIP3    H113742   6.880   0.618   0.195
 4599TIP3    H213743   6.997   0.529   0.157
 4600TIP3   OH213744   8.197   2.417   2.674
 4600TIP3    H113745   8.191   2.321   2.672
 4600TIP3    H213746   8.160   2.441   2.760
 4601TIP3   OH213747   4.459   5.225   6.622
 4601TIP3    H113748   4.548   5.206   6.590
 4601TIP3    H213749   4.403   5.163   6.576
 4602TIP3   OH213750   2.000   7.309   0.872
 4602TIP3    H113751   2.049   7.387   0.846
 4602TIP3    H213752   1.923   7.309   0.815
 4603TIP3   OH213753   3.059   2.051   1.325
 4603TIP3    H113754   3.096   2.079   1.408
 4603TIP3    H213755   3.071   2.125   1.266
 4604TIP3   OH213756   3.094   4.821   4.709
 4604TIP3    H113757   3.021   4.834   4.648
 4604TIP3    H213758   3.110   4.908   4.747
 4605TIP3   OH213759   6.387   5.558   1.140
 4605TIP3    H113760   6.330   5.633   1.126
 4605TIP3    H213761   6.398   5.520   1.052
 4606TIP3   OH213762   6.094   4.743   2.414
 4606TIP3    H113763   6.105   4.809   2.346
 4606TIP3    H213764   6.000   4.745   2.434
 4607TIP3   OH213765   3.325   7.136   2.341
 4607TIP3    H113766   3.312   7.129   2.247
 4607TIP3    H213767   3.237   7.148   2.377
 4608TIP3   OH213768   5.630   3.819   2.310
 4608TIP3    H113769   5.616   3.828   2.405
 4608TIP3    H213770   5.644   3.725   2.297
 4609TIP3   OH213771   1.851   3.924   2.570
 4609TIP3    H113772   1.921   3.930   2.505
 4609TIP3    H213773   1.889   3.958   2.651
 4610TIP3   OH213774   3.372   4.218   1.288
 4610TIP3    H113775   3.324   4.301   1.293
 4610TIP3    H213776   3.402   4.213   1.197
 4611TIP3   OH213777   4.558   6.523   4.679
 4611TIP3    H113778   4.521   6.461   4.616
 4611TIP3    H213779   4.616   6.470   4.733
 4612TIP3   OH213780   7.104   1.252   3.260
 4612TIP3    H113781   7.066   1.302   3.186
 4612TIP3    H213782   7.136   1.320   3.319
 4613TIP3   OH213783   5.969   5.197   0.240
 4613TIP3    H113784   5.948   5.253   0.314
 4613TIP3    H213785   6.047   5.238   0.201
 4614TIP3   OH213786   1.810   6.029   3.407
 4614TIP3    H113787   1.794   6.123   3.415
 4614TIP3    H213788   1.741   5.998   3.348
 4615TIP3   OH213789   6.847   0.133   5.647
 4615TIP3    H113790   6.846   0.038   5.651
 4615TIP3    H213791   6.812   0.161   5.731
 4616TIP3   OH213792   4.218   4.165   0.084
 4616TIP3    H113793   4.126   4.165   0.112
 4616TIP3    H213794   4.255   4.244   0.122
 4617TIP3   OH213795   2.047   1.115   5.760
 4617TIP3    H113796   2.101   1.168   5.702
 4617TIP3    H213797   1.970   1.170   5.778
 4618TIP3   OH213798   5.845   4.700   2.504
 4618TIP3    H113799   5.772   4.757   2.529
 4618TIP3    H213800   5.802   4.622   2.469
 4619TIP3   OH213801   1.743   3.874   2.002
 4619TIP3    H113802   1.664   3.912   1.964
 4619TIP3    H213803   1.812   3.892   1.938
 4620TIP3   OH213804   3.527  -0.021   6.421
 4620TIP3    H113805   3.588   0.047   6.391
 4620TIP3    H213806   3.467   0.025   6.480
 4621TIP3   OH213807   4.102   0.868   4.223
 4621TIP3    H113808   4.148   0.842   4.143
 4621TIP3    H213809   4.020   0.906   4.193
 4622TIP3   OH213810   2.150   6.290   1.705
 4622TIP3    H113811   2.072   6.331   1.743
 4622TIP3    H213812   2.220   6.310   1.767
 4623TIP3   OH213813   2.632   3.065   2.947
 4623TIP3    H113814   2.647   3.141   2.891
 4623TIP3    H213815   2.683   3.084   3.026
 4624TIP3   OH213816   5.343   1.281   3.963
 4624TIP3    H113817   5.408   1.283   3.893
 4624TIP3    H213818   5.329   1.372   3.986
 4625TIP3   OH213819   8.019   3.079   5.444
 4625TIP3    H113820   7.930   3.043   5.443
 4625TIP3    H213821   8.074   3.007   5.476
 4626TIP3   OH213822   1.146   4.395   0.495
 4626TIP3    H113823   1.134   4.317   0.440
 4626TIP3    H213824   1.191   4.458   0.439
 4627TIP3   OH213825   6.633   6.559   4.052
 4627TIP3    H113826   6.689   6.582   4.126
 4627TIP3    H213827   6.544   6.561   4.087
 4628TIP3   OH213828   5.516   0.808   5.831
 4628TIP3    H113829   5.549   0.794   5.919
 4628TIP3    H213830   5.447   0.874   5.841
 4629TIP3   OH213831   5.372   7.576   2.512
 4629TIP3    H113832   5.341   7.498   2.468
 4629TIP3    H213833   5.374   7.552   2.605
 4630TIP3   OH213834   8.055   5.394   6.086
 4630TIP3    H113835   8.137   5.345   6.076
 4630TIP3    H213836   8.045   5.405   6.180
 4631TIP3   OH213837   2.878   7.280   6.761
 4631TIP3    H113838   2.818   7.351   6.737
 4631TIP3    H213839   2.963   7.323   6.771
 4632TIP3   OH213840   5.260   4.137   3.110
 4632TIP3    H113841   5.205   4.193   3.165
 4632TIP3    H213842   5.272   4.187   3.029
 4633TIP3   OH213843   6.334   0.468   6.200
 4633TIP3    H113844   6.249   0.431   6.224
 4633TIP3    H213845   6.352   0.432   6.114
 4634TIP3   OH213846   2.271   3.033   4.236
 4634TIP3    H113847   2.297   2.941   4.249
 4634TIP3    H213848   2.291   3.049   4.144
 4635TIP3   OH213849   6.282   7.126   0.337
 4635TIP3    H113850   6.328   7.210   0.331
 4635TIP3    H213851   6.198   7.149   0.378
 4636TIP3   OH213852   7.845   3.700   2.263
 4636TIP3    H113853   7.832   3.785   2.304
 4636TIP3    H213854   7.855   3.719   2.170
 4637TIP3   OH213855   0.846   3.288   3.399
 4637TIP3    H113856   0.876   3.373   3.433
 4637TIP3    H213857   0.837   3.302   3.305
 4638TIP3   OH213858   8.061   4.342   3.845
 4638TIP3    H113859   7.992   4.385   3.895
 4638TIP3    H213860   8.018   4.268   3.802
 4639TIP3   OH213861   1.737   3.754   0.918
 4639TIP3    H113862   1.641   3.756   0.914
 4639TIP3    H213863   1.758   3.666   0.947
 4640TIP3   OH213864   2.150   6.798   5.584
 4640TIP3    H113865   2.118   6.758   5.504
 4640TIP3    H213866   2.077   6.790   5.645
 4641TIP3   OH213867   7.950   0.841   4.952
 4641TIP3    H113868   8.043   0.864   4.941
 4641TIP3    H213869   7.949   0.746   4.952
 4642TIP3   OH213870   0.284   5.474   2.634
 4642TIP3    H113871   0.234   5.396   2.611
 4642TIP3    H213872   0.226   5.522   2.693
 4643TIP3   OH213873   3.001   7.725   6.178
 4643TIP3    H113874   3.060   7.699   6.250
 4643TIP3    H213875   3.014   7.658   6.111
 4644TIP3   OH213876   7.611   7.590   5.323
 4644TIP3    H113877   7.688   7.602   5.268
 4644TIP3    H213878   7.642   7.607   5.412
 4645TIP3   OH213879   7.284   5.368   3.025
 4645TIP3    H113880   7.265   5.451   2.982
 4645TIP3    H213881   7.376   5.352   3.007
 4646TIP3   OH213882   5.668   2.491   1.056
 4646TIP3    H113883   5.715   2.569   1.085
 4646TIP3    H213884   5.590   2.525   1.011
 4647TIP3   OH213885   3.321   0.553   0.663
 4647TIP3    H113886   3.386   0.622   0.661
 4647TIP3    H213887   3.243   0.593   0.624
 4648TIP3   OH213888   6.224   5.888   6.497
 4648TIP3    H113889   6.133   5.871   6.521
 4648TIP3    H213890   6.226   5.981   6.472
 4649TIP3   OH213891   3.405   7.741   2.811
 4649TIP3    H113892   3.381   7.655   2.774
 4649TIP3    H213893   3.334   7.799   2.782
 4650TIP3   OH213894   0.584   4.853   1.961
 4650TIP3    H113895   0.624   4.878   2.044
 4650TIP3    H213896   0.635   4.899   1.894
 4651TIP3   OH213897   2.090   1.998   0.025
 4651TIP3    H113898   2.112   1.956   0.108
 4651TIP3    H213899   2.170   1.989  -0.028
 4652TIP3   OH213900   7.345   5.668   3.298
 4652TIP3    H113901   7.250   5.653   3.292
 4652TIP3    H213902   7.368   5.706   3.213
 4653TIP3   OH213903   7.090   4.759   5.528
 4653TIP3    H113904   7.182   4.779   5.545
 4653TIP3    H213905   7.043   4.799   5.601
 4654TIP3   OH213906   6.286   0.680   2.838
 4654TIP3    H113907   6.314   0.588   2.845
 4654TIP3    H213908   6.352   0.728   2.888
 4655TIP3   OH213909   3.940   1.332   5.316
 4655TIP3    H113910   3.884   1.276   5.262
 4655TIP3    H213911   3.883   1.362   5.386
 4656TIP3   OH213912   8.053   2.223   4.297
 4656TIP3    H113913   8.085   2.133   4.290
 4656TIP3    H213914   7.992   2.233   4.224
 4657TIP3   OH213915   2.221   1.182   6.115
 4657TIP3    H113916   2.161   1.125   6.066
 4657TIP3    H213917   2.287   1.122   6.150
 4658TIP3   OH213918   2.030   3.823   2.102
 4658TIP3    H113919   2.113   3.793   2.140
 4658TIP3    H213920   2.054   3.854   2.015
 4659TIP3   OH213921   4.956   6.202   4.854
 4659TIP3    H113922   5.003   6.121   4.873
 4659TIP3    H213923   5.014   6.271   4.884
 4660TIP3   OH213924   0.656   4.664   6.177
 4660TIP3    H113925   0.655   4.729   6.107
 4660TIP3    H213926   0.602   4.702   6.246
 4661TIP3   OH213927   6.906   0.752   4.663
 4661TIP3    H113928   6.872   0.796   4.585
 4661TIP3    H213929   6.828   0.730   4.714
 4662TIP3   OH213930   5.338   5.114   2.697
 4662TIP3    H113931   5.406   5.063   2.741
 4662TIP3    H213932   5.279   5.048   2.661
 4663TIP3   OH213933   4.541   5.478   0.518
 4663TIP3    H113934   4.445   5.472   0.514
 4663TIP3    H213935   4.566   5.508   0.431
 4664TIP3   OH213936   0.785   0.227   3.913
 4664TIP3    H113937   0.816   0.156   3.970
 4664TIP3    H213938   0.820   0.307   3.954
 4665TIP3   OH213939   3.548   1.438   0.386
 4665TIP3    H113940   3.469   1.449   0.333
 4665TIP3    H213941   3.599   1.372   0.339
 4666TIP3   OH213942   4.345   2.987   5.194
 4666TIP3    H113943   4.302   2.946   5.119
 4666TIP3    H213944   4.338   3.081   5.177
 4667TIP3   OH213945   4.341   7.557   5.650
 4667TIP3    H113946   4.254   7.590   5.630
 4667TIP3    H213947   4.399   7.605   5.590
 4668TIP3   OH213948   8.291   0.328   2.707
 4668TIP3    H113949   8.221   0.376   2.751
 4668TIP3    H213950   8.357   0.395   2.688
 4669TIP3   OH213951   4.678   2.737   5.980
 4669TIP3    H113952   4.695   2.697   6.065
 4669TIP3    H213953   4.669   2.662   5.920
 4670TIP3   OH213954   5.261   4.913   6.417
 4670TIP3    H113955   5.177   4.939   6.456
 4670TIP3    H213956   5.237   4.857   6.343
 4671TIP3   OH213957   7.647   4.445   4.343
 4671TIP3    H113958   7.669   4.358   4.376
 4671TIP3    H213959   7.619   4.430   4.252
 4672TIP3   OH213960   6.945   0.944   5.553
 4672TIP3    H113961   6.995   0.877   5.507
 4672TIP3    H213962   6.853   0.926   5.530
 4673TIP3   OH213963   1.205   5.691   2.438
 4673TIP3    H113964   1.152   5.708   2.360
 4673TIP3    H213965   1.293   5.721   2.415
 4674TIP3   OH213966   3.802   6.971   1.429
 4674TIP3    H113967   3.729   7.012   1.475
 4674TIP3    H213968   3.866   7.041   1.417
 4675TIP3   OH213969   1.205   7.044   2.311
 4675TIP3    H113970   1.250   7.031   2.227
 4675TIP3    H213971   1.123   6.996   2.301
 4676TIP3   OH213972   2.327   1.722   1.279
 4676TIP3    H113973   2.276   1.714   1.360
 4676TIP3    H213974   2.405   1.669   1.294
 4677TIP3   OH213975   4.169   3.151   1.814
 4677TIP3    H113976   4.229   3.213   1.773
 4677TIP3    H213977   4.103   3.205   1.857
 4678TIP3   OH213978   7.716   2.303   5.896
 4678TIP3    H113979   7.710   2.222   5.845
 4678TIP3    H213980   7.706   2.373   5.832
 4679TIP3   OH213981   2.362   4.013   3.654
 4679TIP3    H113982   2.302   4.024   3.728
 4679TIP3    H213983   2.414   3.936   3.677
 4680TIP3   OH213984   5.534   0.976   6.566
 4680TIP3    H113985   5.440   0.963   6.573
 4680TIP3    H213986   5.564   0.904   6.510
 4681TIP3   OH213987   0.652   6.724   2.638
 4681TIP3    H113988   0.647   6.634   2.670
 4681TIP3    H213989   0.597   6.723   2.559
 4682TIP3   OH213990   1.312   5.071   3.855
 4682TIP3    H113991   1.294   5.147   3.911
 4682TIP3    H213992   1.228   5.050   3.815
 4683TIP3   OH213993   7.283   7.560   3.647
 4683TIP3    H113994   7.330   7.508   3.582
 4683TIP3    H213995   7.250   7.636   3.598
 4684TIP3   OH213996   3.814   1.111   6.102
 4684TIP3    H113997   3.858   1.057   6.167
 4684TIP3    H213998   3.773   1.049   6.042
 4685TIP3   OH213999   8.131   1.705   6.547
 4685TIP3    H114000   8.174   1.704   6.461
 4685TIP3    H214001   8.062   1.770   6.538
 4686TIP3   OH214002   5.573   0.525   4.720
 4686TIP3    H114003   5.553   0.432   4.708
 4686TIP3    H214004   5.577   0.561   4.631
 4687TIP3   OH214005   6.288   2.100   0.221
 4687TIP3    H114006   6.374   2.113   0.182
 4687TIP3    H214007   6.248   2.030   0.169
 4688TIP3   OH214008   6.704   6.515   1.243
 4688TIP3    H114009   6.784   6.469   1.268
 4688TIP3    H214010   6.662   6.457   1.180
 4689TIP3   OH214011   0.663   2.480   2.397
 4689TIP3    H114012   0.702   2.449   2.479
 4689TIP3    H214013   0.570   2.461   2.406
 4690TIP3   OH214014   3.771   7.448   3.520
 4690TIP3    H114015   3.720   7.401   3.454
 4690TIP3    H214016   3.757   7.399   3.601
 4691TIP3   OH214017   2.252   1.700   3.490
 4691TIP3    H114018   2.282   1.610   3.497
 4691TIP3    H214019   2.333   1.751   3.482
 4692TIP3   OH214020   2.445   6.830   6.149
 4692TIP3    H114021   2.464   6.923   6.140
 4692TIP3    H214022   2.351   6.822   6.130
 4693TIP3   OH214023   8.014   7.293   3.057
 4693TIP3    H114024   8.001   7.327   3.145
 4693TIP3    H214025   7.928   7.301   3.015
 4694TIP3   OH214026   5.688   4.252   1.486
 4694TIP3    H114027   5.696   4.201   1.406
 4694TIP3    H214028   5.625   4.204   1.539
 4695TIP3   OH214029   3.484   0.845   1.085
 4695TIP3    H114030   3.393   0.862   1.109
 4695TIP3    H214031   3.535   0.882   1.158
 4696TIP3   OH214032   8.083   0.599   4.899
 4696TIP3    H114033   8.084   0.551   4.817
 4696TIP3    H214034   8.077   0.531   4.967
 4697TIP3   OH214035   4.017   2.610   3.176
 4697TIP3    H114036   4.007   2.659   3.257
 4697TIP3    H214037   4.088   2.548   3.194
 4698TIP3   OH214038   3.131   2.063   2.634
 4698TIP3    H114039   3.082   2.069   2.551
 4698TIP3    H214040   3.070   2.021   2.694
 4699TIP3   OH214041   7.442   6.898   5.218
 4699TIP3    H114042   7.417   6.983   5.254
 4699TIP3    H214043   7.376   6.837   5.252
 4700TIP3   OH214044   7.221   5.783   4.018
 4700TIP3    H114045   7.235   5.840   3.942
 4700TIP3    H214046   7.160   5.716   3.986
 4701TIP3   OH214047   3.357   3.486   4.683
 4701TIP3    H114048   3.374   3.537   4.603
 4701TIP3    H214049   3.369   3.549   4.754
 4702TIP3   OH214050   1.908   6.360   0.562
 4702TIP3    H114051   1.957   6.406   0.494
 4702TIP3    H214052   1.962   6.369   0.641
 4703TIP3   OH214053   3.987   2.935   2.421
 4703TIP3    H114054   3.959   2.856   2.467
 4703TIP3    H214055   4.063   2.967   2.469
 4704TIP3   OH214056   4.370   2.626   3.848
 4704TIP3    H114057   4.446   2.665   3.806
 4704TIP3    H214058   4.319   2.589   3.776
 4705TIP3   OH214059   3.108   1.497   5.909
 4705TIP3    H114060   3.129   1.519   5.999
 4705TIP3    H214061   3.189   1.510   5.860
 4706TIP3   OH214062   4.750   1.417   4.809
 4706TIP3    H114063   4.753   1.495   4.753
 4706TIP3    H214064   4.822   1.429   4.871
 4707TIP3   OH214065   1.690   0.577   4.645
 4707TIP3    H114066   1.752   0.567   4.717
 4707TIP3    H214067   1.625   0.509   4.660
 4708TIP3   OH214068   7.581   4.998   4.767
 4708TIP3    H114069   7.637   4.927   4.799
 4708TIP3    H214070   7.509   5.001   4.830
 4709TIP3   OH214071   2.587   7.576   6.485
 4709TIP3    H114072   2.504   7.592   6.530
 4709TIP3    H214073   2.644   7.540   6.553
 4710TIP3   OH214074   7.415   7.105   0.519
 4710TIP3    H114075   7.485   7.064   0.570
 4710TIP3    H214076   7.335   7.067   0.553
 4711TIP3   OH214077   2.716   0.734   0.985
 4711TIP3    H114078   2.662   0.655   0.992
 4711TIP3    H214079   2.802   0.707   1.018
 4712TIP3   OH214080   3.105   6.934   1.569
 4712TIP3    H114081   3.150   6.860   1.611
 4712TIP3    H214082   3.129   6.926   1.477
 4713TIP3   OH214083   5.847   5.226   2.133
 4713TIP3    H114084   5.822   5.309   2.092
 4713TIP3    H214085   5.785   5.163   2.097
 4714TIP3   OH214086   3.332   1.199   5.558
 4714TIP3    H114087   3.414   1.209   5.607
 4714TIP3    H214088   3.280   1.137   5.609
 4715TIP3   OH214089   7.227   6.714   4.590
 4715TIP3    H114090   7.194   6.624   4.596
 4715TIP3    H214091   7.148   6.767   4.575
 4716TIP3   OH214092   5.730   7.236   6.518
 4716TIP3    H114093   5.766   7.285   6.445
 4716TIP3    H214094   5.709   7.150   6.481
 4717TIP3   OH214095   2.137   4.194   5.057
 4717TIP3    H114096   2.127   4.099   5.064
 4717TIP3    H214097   2.222   4.207   5.016
 4718TIP3   OH214098   4.595   1.398   0.101
 4718TIP3    H114099   4.689   1.380   0.097
 4718TIP3    H214100   4.559   1.325   0.152
 4719TIP3   OH214101   7.157   1.960   5.144
 4719TIP3    H114102   7.233   1.995   5.097
 4719TIP3    H214103   7.187   1.953   5.235
 4720TIP3   OH214104   6.382   2.654   2.951
 4720TIP3    H114105   6.416   2.569   2.923
 4720TIP3    H214106   6.293   2.635   2.982
 4721TIP3   OH214107   2.194   6.568   1.543
 4721TIP3    H114108   2.121   6.511   1.523
 4721TIP3    H214109   2.218   6.607   1.458
 4722TIP3   OH214110   1.131   3.490   5.614
 4722TIP3    H114111   1.086   3.406   5.614
 4722TIP3    H214112   1.061   3.554   5.598
 4723TIP3   OH214113   2.139   0.204   5.959
 4723TIP3    H114114   2.222   0.249   5.974
 4723TIP3    H214115   2.072   0.271   5.974
 4724TIP3   OH214116   0.472   4.436   5.299
 4724TIP3    H114117   0.539   4.481   5.351
 4724TIP3    H214118   0.446   4.362   5.354
 4725TIP3   OH214119   7.510   3.852   6.567
 4725TIP3    H114120   7.474   3.845   6.479
 4725TIP3    H214121   7.533   3.763   6.591
 4726TIP3   OH214122   1.337   6.658   1.884
 4726TIP3    H114123   1.419   6.612   1.864
 4726TIP3    H214124   1.281   6.591   1.925
 4727TIP3   OH214125   4.801   1.136   0.982
 4727TIP3    H114126   4.775   1.045   0.972
 4727TIP3    H214127   4.895   1.132   1.001
 4728TIP3   OH214128   8.049   7.374   4.307
 4728TIP3    H114129   7.966   7.344   4.270
 4728TIP3    H214130   8.064   7.459   4.266
 4729TIP3   OH214131   5.158   2.182   6.688
 4729TIP3    H114132   5.092   2.198   6.620
 4729TIP3    H214133   5.119   2.217   6.768
 4730TIP3   OH214134   3.308   1.859   5.718
 4730TIP3    H114135   3.343   1.881   5.804
 4730TIP3    H214136   3.383   1.826   5.668
 4731TIP3   OH214137   1.751   2.960   1.304
 4731TIP3    H114138   1.769   3.045   1.263
 4731TIP3    H214139   1.794   2.897   1.245
 4732TIP3   OH214140   4.461   2.218   1.374
 4732TIP3    H114141   4.440   2.154   1.442
 4732TIP3    H214142   4.377   2.241   1.335
 4733TIP3   OH214143   6.837   1.147   6.584
 4733TIP3    H114144   6.920   1.106   6.608
 4733TIP3    H214145   6.806   1.188   6.665
 4734TIP3   OH214146   3.140   6.122   3.711
 4734TIP3    H114147   3.100   6.102   3.626
 4734TIP3    H214148   3.075   6.095   3.775
 4735TIP3   OH214149   2.933   5.352   3.497
 4735TIP3    H114150   2.920   5.278   3.438
 4735TIP3    H214151   2.857   5.350   3.555
 4736TIP3   OH214152   5.539   7.247   0.898
 4736TIP3    H114153   5.493   7.317   0.852
 4736TIP3    H214154   5.476   7.175   0.900
 4737TIP3   OH214155   7.278   7.493   6.314
 4737TIP3    H114156   7.274   7.577   6.270
 4737TIP3    H214157   7.266   7.428   6.245
 4738TIP3   OH214158   4.839   0.852   5.121
 4738TIP3    H114159   4.887   0.902   5.055
 4738TIP3    H214160   4.752   0.839   5.083
 4739TIP3   OH214161   6.467   1.363   2.700
 4739TIP3    H114162   6.551   1.317   2.691
 4739TIP3    H214163   6.445   1.388   2.611
 4740TIP3   OH214164   1.908   4.899   2.663
 4740TIP3    H114165   1.939   4.950   2.588
 4740TIP3    H214166   1.958   4.934   2.737
 4741TIP3   OH214167   7.255   2.328   5.123
 4741TIP3    H114168   7.163   2.353   5.113
 4741TIP3    H214169   7.293   2.397   5.178
 4742TIP3   OH214170   6.717   3.690   1.013
 4742TIP3    H114171   6.629   3.714   0.985
 4742TIP3    H214172   6.704   3.625   1.082
 4743TIP3   OH214173   5.204   1.277   2.631
 4743TIP3    H114174   5.170   1.358   2.592
 4743TIP3    H214175   5.126   1.222   2.641
 4744TIP3   OH214176   8.274   5.406   2.685
 4744TIP3    H114177   8.351   5.355   2.661
 4744TIP3    H214178   8.276   5.410   2.781
 4745TIP3   OH214179   0.433   7.766   0.662
 4745TIP3    H114180   0.413   7.815   0.741
 4745TIP3    H214181   0.505   7.815   0.621
 4746TIP3   OH214182   7.663   2.355   5.191
 4746TIP3    H114183   7.627   2.382   5.107
 4746TIP3    H214184   7.734   2.295   5.169
 4747TIP3   OH214185   7.202   7.742   0.610
 4747TIP3    H114186   7.195   7.698   0.695
 4747TIP3    H214187   7.292   7.774   0.607
 4748TIP3   OH214188   6.915   0.628   6.364
 4748TIP3    H114189   6.869   0.601   6.284
 4748TIP3    H214190   6.923   0.723   6.356
 4749TIP3   OH214191   3.677   5.239   0.449
 4749TIP3    H114192   3.741   5.269   0.513
 4749TIP3    H214193   3.629   5.169   0.493
 4750TIP3   OH214194   0.872   0.555   5.670
 4750TIP3    H114195   0.915   0.542   5.754
 4750TIP3    H214196   0.790   0.506   5.678
 4751TIP3   OH214197   5.318   5.645   4.090
 4751TIP3    H114198   5.414   5.642   4.100
 4751TIP3    H214199   5.303   5.621   3.998
 4752TIP3   OH214200   7.315   6.320   4.034
 4752TIP3    H114201   7.250   6.273   4.087
 4752TIP3    H214202   7.289   6.412   4.040
 4753TIP3   OH214203   3.988   4.674   1.032
 4753TIP3    H114204   3.984   4.759   1.076
 4753TIP3    H214205   3.964   4.692   0.942
 4754TIP3   OH214206   1.569   3.465   6.293
 4754TIP3    H114207   1.617   3.438   6.216
 4754TIP3    H214208   1.549   3.384   6.339
 4755TIP3   OH214209   4.718   1.735   4.342
 4755TIP3    H114210   4.674   1.713   4.425
 4755TIP3    H214211   4.647   1.741   4.278
 4756TIP3   OH214212   6.327   5.204   5.839
 4756TIP3    H114213   6.386   5.231   5.769
 4756TIP3    H214214   6.251   5.262   5.831
 4757TIP3   OH214215   3.552   2.893   6.315
 4757TIP3    H114216   3.631   2.916   6.266
 4757TIP3    H214217   3.505   2.831   6.260
 4758TIP3   OH214218   2.635   6.494   4.162
 4758TIP3    H114219   2.611   6.557   4.230
 4758TIP3    H214220   2.730   6.504   4.153
 4759TIP3   OH214221   3.901   5.734   0.787
 4759TIP3    H114222   3.810   5.714   0.806
 4759TIP3    H214223   3.945   5.726   0.872
 4760TIP3   OH214224   7.777   5.810   5.720
 4760TIP3    H114225   7.815   5.891   5.754
 4760TIP3    H214226   7.853   5.756   5.697
 4761TIP3   OH214227   4.599   7.672   4.345
 4761TIP3    H114228   4.641   7.757   4.328
 4761TIP3    H214229   4.549   7.654   4.265
 4762TIP3   OH214230   5.359   4.874   1.279
 4762TIP3    H114231   5.439   4.826   1.257
 4762TIP3    H214232   5.324   4.829   1.356
 4763TIP3   OH214233   5.568   0.557   0.885
 4763TIP3    H114234   5.572   0.465   0.910
 4763TIP3    H214235   5.643   0.569   0.826
 4764TIP3   OH214236   3.443   4.965   3.662
 4764TIP3    H114237   3.385   4.997   3.592
 4764TIP3    H214238   3.457   5.041   3.718
 4765TIP3   OH214239   4.854   1.523   0.383
 4765TIP3    H114240   4.895   1.439   0.401
 4765TIP3    H214241   4.883   1.545   0.294
 4766TIP3   OH214242   7.692   3.179   1.421
 4766TIP3    H114243   7.648   3.219   1.496
 4766TIP3    H214244   7.703   3.087   1.446
 4767TIP3   OH214245   7.525   0.076   0.159
 4767TIP3    H114246   7.534   0.000   0.101
 4767TIP3    H214247   7.457   0.051   0.221
 4768TIP3   OH214248   5.188   6.117   5.201
 4768TIP3    H114249   5.280   6.136   5.184
 4768TIP3    H214250   5.153   6.197   5.239
 4769TIP3   OH214251   1.243   7.706   3.853
 4769TIP3    H114252   1.266   7.642   3.786
 4769TIP3    H214253   1.212   7.654   3.927
 4770TIP3   OH214254   2.307   4.937   4.622
 4770TIP3    H114255   2.310   4.959   4.715
 4770TIP3    H214256   2.255   5.007   4.583
 4771TIP3   OH214257   5.329   5.161   0.553
 4771TIP3    H114258   5.356   5.160   0.645
 4771TIP3    H214259   5.247   5.210   0.552
 4772TIP3   OH214260   8.061   0.825   3.428
 4772TIP3    H114261   8.127   0.841   3.362
 4772TIP3    H214262   8.094   0.869   3.507
 4773TIP3   OH214263   4.431   4.416   4.592
 4773TIP3    H114264   4.516   4.432   4.635
 4773TIP3    H214265   4.368   4.462   4.647
 4774TIP3   OH214266   2.479   5.718   1.248
 4774TIP3    H114267   2.476   5.660   1.324
 4774TIP3    H214268   2.517   5.799   1.281
 4775TIP3   OH214269   1.832   5.948   4.119
 4775TIP3    H114270   1.820   6.022   4.060
 4775TIP3    H214271   1.803   5.980   4.204
 4776TIP3   OH214272   4.149   4.421   6.030
 4776TIP3    H114273   4.205   4.450   5.958
 4776TIP3    H214274   4.066   4.399   5.988
 4777TIP3   OH214275   4.534   0.281   2.682
 4777TIP3    H114276   4.451   0.327   2.698
 4777TIP3    H214277   4.583   0.293   2.763
 4778TIP3   OH214278   3.286   7.218   4.881
 4778TIP3    H114279   3.376   7.197   4.859
 4778TIP3    H214280   3.291   7.296   4.935
 4779TIP3   OH214281   1.146   5.597   2.108
 4779TIP3    H114282   1.106   5.667   2.159
 4779TIP3    H214283   1.082   5.575   2.041
 4780TIP3   OH214284   5.709   0.727   6.562
 4780TIP3    H114285   5.671   0.694   6.644
 4780TIP3    H214286   5.722   0.648   6.509
 4781TIP3   OH214287   1.567   6.078   3.791
 4781TIP3    H114288   1.552   6.029   3.871
 4781TIP3    H214289   1.577   6.169   3.820
 4782TIP3   OH214290   1.911   5.777   0.219
 4782TIP3    H114291   1.906   5.823   0.136
 4782TIP3    H214292   1.945   5.691   0.197
 4783TIP3   OH214293   2.251   2.388   5.383
 4783TIP3    H114294   2.329   2.338   5.359
 4783TIP3    H214295   2.177   2.331   5.361
 4784TIP3   OH214296   4.096   6.490   6.533
 4784TIP3    H114297   4.006   6.461   6.520
 4784TIP3    H214298   4.092   6.586   6.525
 4785TIP3   OH214299   7.168   3.143   3.693
 4785TIP3    H114300   7.129   3.059   3.717
 4785TIP3    H214301   7.096   3.205   3.697
 4786TIP3   OH214302   8.010   0.062   5.596
 4786TIP3    H114303   8.073   0.079   5.666
 4786TIP3    H214304   8.062   0.021   5.526
 4787TIP3   OH214305   1.447   5.183   1.176
 4787TIP3    H114306   1.491   5.188   1.261
 4787TIP3    H214307   1.421   5.091   1.168
 4788TIP3   OH214308   6.091   5.008   5.421
 4788TIP3    H114309   6.022   4.988   5.357
 4788TIP3    H214310   6.055   5.081   5.472
 4789TIP3   OH214311   6.228   2.326   3.314
 4789TIP3    H114312   6.169   2.289   3.248
 4789TIP3    H214313   6.187   2.304   3.398
 4790TIP3   OH214314   1.552   0.198   3.609
 4790TIP3    H114315   1.603   0.214   3.688
 4790TIP3    H214316   1.461   0.201   3.637
 4791TIP3   OH214317   5.635   6.538   0.228
 4791TIP3    H114318   5.678   6.623   0.231
 4791TIP3    H214319   5.562   6.546   0.290
 4792TIP3   OH214320   2.955   3.783   4.090
 4792TIP3    H114321   3.002   3.790   4.007
 4792TIP3    H214322   2.922   3.871   4.106
 4793TIP3   OH214323   5.721   6.679   2.424
 4793TIP3    H114324   5.806   6.711   2.455
 4793TIP3    H214325   5.715   6.710   2.334
 4794TIP3   OH214326   3.110   7.541   1.713
 4794TIP3    H114327   3.089   7.634   1.708
 4794TIP3    H214328   3.038   7.497   1.668
 4795TIP3   OH214329   4.498   0.142   3.382
 4795TIP3    H114330   4.493   0.219   3.439
 4795TIP3    H214331   4.580   0.100   3.407
 4796TIP3   OH214332   2.811   3.440   4.630
 4796TIP3    H114333   2.850   3.505   4.570
 4796TIP3    H214334   2.727   3.478   4.655
 4797TIP3   OH214335   6.825   7.025   2.827
 4797TIP3    H114336   6.750   7.074   2.795
 4797TIP3    H214337   6.798   6.992   2.913
 4798TIP3   OH214338   3.592   1.934   3.482
 4798TIP3    H114339   3.526   1.993   3.446
 4798TIP3    H214340   3.635   1.897   3.405
 4799TIP3   OH214341   5.740   5.944   0.473
 4799TIP3    H114342   5.664   5.893   0.501
 4799TIP3    H214343   5.721   6.034   0.501
 4800TIP3   OH214344   4.448   0.085   1.173
 4800TIP3    H114345   4.437   0.059   1.082
 4800TIP3    H214346   4.383   0.155   1.187
 4801TIP3   OH214347   5.350   4.886   3.591
 4801TIP3    H114348   5.322   4.846   3.509
 4801TIP3    H214349   5.381   4.973   3.566
 4802TIP3   OH214350   0.863   3.365   0.319
 4802TIP3    H114351   0.949   3.353   0.278
 4802TIP3    H214352   0.859   3.459   0.337
 4803TIP3   OH214353   4.606   3.824   5.493
 4803TIP3    H114354   4.628   3.827   5.586
 4803TIP3    H214355   4.686   3.854   5.449
 4804TIP3   OH214356   5.047   7.203   2.144
 4804TIP3    H114357   5.088   7.285   2.118
 4804TIP3    H214358   4.987   7.227   2.215
 4805TIP3   OH214359   0.583   1.051   5.747
 4805TIP3    H114360   0.673   1.035   5.719
 4805TIP3    H214361   0.531   0.987   5.698
 4806TIP3   OH214362   7.258   3.965   5.193
 4806TIP3    H114363   7.328   3.971   5.257
 4806TIP3    H214364   7.192   4.026   5.223
 4807TIP3   OH214365   8.114   6.891   6.736
 4807TIP3    H114366   8.184   6.853   6.789
 4807TIP3    H214367   8.045   6.912   6.799
 4808TIP3   OH214368   5.558   4.978   5.774
 4808TIP3    H114369   5.513   4.951   5.854
 4808TIP3    H214370   5.536   5.070   5.763
 4809TIP3   OH214371   5.950   3.798   6.478
 4809TIP3    H114372   5.983   3.858   6.545
 4809TIP3    H214373   5.884   3.849   6.431
 4810TIP3   OH214374   2.224   5.755   0.292
 4810TIP3    H114375   2.318   5.749   0.276
 4810TIP3    H214376   2.216   5.754   0.388
 4811TIP3   OH214377   3.921   2.056   2.138
 4811TIP3    H114378   3.949   2.035   2.227
 4811TIP3    H214379   3.946   1.979   2.087
 4812TIP3   OH214380   1.156   0.090   5.593
 4812TIP3    H114381   1.177  -0.001   5.573
 4812TIP3    H214382   1.163   0.096   5.688
 4813TIP3   OH214383   5.308   1.537   5.026
 4813TIP3    H114384   5.342   1.452   5.054
 4813TIP3    H214385   5.228   1.549   5.077
 4814TIP3   OH214386   1.366   2.669   3.145
 4814TIP3    H114387   1.406   2.643   3.229
 4814TIP3    H214388   1.370   2.764   3.146
 4815TIP3   OH214389   3.463   5.740   0.003
 4815TIP3    H114390   3.441   5.665   0.058
 4815TIP3    H214391   3.449   5.708  -0.086
 4816TIP3   OH214392   0.635   7.452   2.694
 4816TIP3    H114393   0.622   7.377   2.752
 4816TIP3    H214394   0.592   7.524   2.739
 4817TIP3   OH214395   0.890   0.083   2.420
 4817TIP3    H114396   0.806   0.038   2.424
 4817TIP3    H214397   0.899   0.124   2.506
 4818TIP3   OH214398   3.177   7.228   4.449
 4818TIP3    H114399   3.155   7.140   4.480
 4818TIP3    H214400   3.166   7.284   4.525
 4819TIP3   OH214401   2.883   4.397   6.656
 4819TIP3    H114402   2.845   4.337   6.720
 4819TIP3    H214403   2.869   4.354   6.571
 4820TIP3   OH214404   7.515   5.904   6.286
 4820TIP3    H114405   7.444   5.905   6.222
 4820TIP3    H214406   7.520   5.813   6.316
 4821TIP3   OH214407   4.559   3.530   5.600
 4821TIP3    H114408   4.605   3.528   5.683
 4821TIP3    H214409   4.628   3.538   5.534
 4822TIP3   OH214410   4.557   0.188   6.347
 4822TIP3    H114411   4.601   0.141   6.275
 4822TIP3    H214412   4.629   0.215   6.405
 4823TIP3   OH214413   5.394   2.515   3.432
 4823TIP3    H114414   5.392   2.486   3.524
 4823TIP3    H214415   5.486   2.532   3.414
 4824TIP3   OH214416   3.190   3.994   0.497
 4824TIP3    H114417   3.234   4.066   0.541
 4824TIP3    H214418   3.252   3.922   0.500
 4825TIP3   OH214419   2.585   2.752   2.660
 4825TIP3    H114420   2.644   2.788   2.594
 4825TIP3    H214421   2.638   2.686   2.706
 4826TIP3   OH214422   6.415   6.481   3.669
 4826TIP3    H114423   6.429   6.428   3.747
 4826TIP3    H214424   6.320   6.476   3.654
 4827TIP3   OH214425   4.312   6.177   1.385
 4827TIP3    H114426   4.389   6.137   1.345
 4827TIP3    H214427   4.289   6.118   1.457
 4828TIP3   OH214428   6.685   1.578   4.384
 4828TIP3    H114429   6.705   1.666   4.352
 4828TIP3    H214430   6.639   1.536   4.312
 4829TIP3   OH214431   0.871   0.140   1.346
 4829TIP3    H114432   0.900   0.118   1.258
 4829TIP3    H214433   0.819   0.065   1.375
 4830TIP3   OH214434   4.268   0.771   4.467
 4830TIP3    H114435   4.315   0.770   4.384
 4830TIP3    H214436   4.191   0.824   4.450
 4831TIP3   OH214437   3.481   4.600   2.372
 4831TIP3    H114438   3.508   4.511   2.349
 4831TIP3    H214439   3.548   4.630   2.434
 4832TIP3   OH214440   5.004   6.422   2.737
 4832TIP3    H114441   5.098   6.414   2.749
 4832TIP3    H214442   4.965   6.374   2.810
 4833TIP3   OH214443   3.352   4.368   1.754
 4833TIP3    H114444   3.317   4.387   1.841
 4833TIP3    H214445   3.278   4.381   1.695
 4834TIP3   OH214446   7.560   7.496   1.666
 4834TIP3    H114447   7.497   7.453   1.608
 4834TIP3    H214448   7.610   7.424   1.705
 4835TIP3   OH214449   7.683   0.833   2.210
 4835TIP3    H114450   7.770   0.792   2.209
 4835TIP3    H214451   7.675   0.869   2.299
 4836TIP3   OH214452   0.013   3.198   3.904
 4836TIP3    H114453  -0.018   3.138   3.971
 4836TIP3    H214454   0.085   3.151   3.861
 4837TIP3   OH214455   7.101   4.166   6.642
 4837TIP3    H114456   7.143   4.202   6.720
 4837TIP3    H214457   7.071   4.080   6.668
 4838TIP3   OH214458   4.910   1.899   4.465
 4838TIP3    H114459   4.920   1.831   4.532
 4838TIP3    H214460   4.833   1.873   4.415
 4839TIP3   OH214461   0.911   6.386   1.506
 4839TIP3    H114462   0.968   6.454   1.470
 4839TIP3    H214463   0.953   6.304   1.481
 4840TIP3   OH214464   1.642   2.414   5.438
 4840TIP3    H114465   1.633   2.473   5.513
 4840TIP3    H214466   1.579   2.448   5.374
 4841TIP3   OH214467   4.463   6.466   0.749
 4841TIP3    H114468   4.491   6.444   0.837
 4841TIP3    H214469   4.460   6.562   0.748
 4842TIP3   OH214470   2.948   1.943   2.761
 4842TIP3    H114471   2.973   1.863   2.808
 4842TIP3    H214472   2.872   1.916   2.709
 4843TIP3   OH214473   7.993   6.442   2.037
 4843TIP3    H114474   7.961   6.362   2.079
 4843TIP3    H214475   7.983   6.426   1.944
 4844TIP3   OH214476   7.604   6.188   6.699
 4844TIP3    H114477   7.625   6.102   6.663
 4844TIP3    H214478   7.671   6.246   6.662
 4845TIP3   OH214479   7.526   0.639   4.939
 4845TIP3    H114480   7.479   0.674   4.864
 4845TIP3    H214481   7.576   0.565   4.904
 4846TIP3   OH214482   6.528   4.534   1.779
 4846TIP3    H114483   6.473   4.459   1.803
 4846TIP3    H214484   6.541   4.581   1.861
 4847TIP3   OH214485   4.960   5.285   1.662
 4847TIP3    H114486   5.055   5.278   1.650
 4847TIP3    H214487   4.936   5.365   1.615
 4848TIP3   OH214488   3.422   1.910   5.959
 4848TIP3    H114489   3.436   1.859   6.039
 4848TIP3    H214490   3.508   1.948   5.939
 4849TIP3   OH214491   7.312   5.894   0.497
 4849TIP3    H114492   7.284   5.978   0.462
 4849TIP3    H214493   7.407   5.902   0.505
 4850TIP3   OH214494   6.807   1.509   2.861
 4850TIP3    H114495   6.820   1.415   2.851
 4850TIP3    H214496   6.843   1.546   2.780
 4851TIP3   OH214497   2.282   5.583   1.738
 4851TIP3    H114498   2.313   5.671   1.761
 4851TIP3    H214499   2.358   5.541   1.696
 4852TIP3   OH214500   5.901   2.308   1.110
 4852TIP3    H114501   5.989   2.339   1.088
 4852TIP3    H214502   5.845   2.384   1.096
 4853TIP3   OH214503   3.164   6.971   0.295
 4853TIP3    H114504   3.119   6.886   0.296
 4853TIP3    H214505   3.106   7.029   0.246
 4854TIP3   OH214506   4.388   0.619   2.268
 4854TIP3    H114507   4.461   0.677   2.247
 4854TIP3    H214508   4.417   0.571   2.345
 4855TIP3   OH214509   6.370   4.256   4.896
 4855TIP3    H114510   6.293   4.312   4.907
 4855TIP3    H214511   6.384   4.252   4.801
 4856TIP3   OH214512   6.663   3.813   3.379
 4856TIP3    H114513   6.578   3.828   3.419
 4856TIP3    H214514   6.715   3.771   3.447
 4857TIP3   OH214515   1.810   0.890   4.270
 4857TIP3    H114516   1.747   0.950   4.230
 4857TIP3    H214517   1.816   0.919   4.361
 4858TIP3   OH214518   0.922   2.830   3.989
 4858TIP3    H114519   1.010   2.828   4.025
 4858TIP3    H214520   0.910   2.920   3.959
 4859TIP3   OH214521   5.372   6.355   5.700
 4859TIP3    H114522   5.406   6.265   5.706
 4859TIP3    H214523   5.424   6.404   5.764
 4860TIP3   OH214524   1.053   5.484   2.837
 4860TIP3    H114525   1.041   5.393   2.867
 4860TIP3    H214526   1.099   5.527   2.909
 4861TIP3   OH214527   1.826   7.471   0.147
 4861TIP3    H114528   1.735   7.468   0.178
 4861TIP3    H214529   1.827   7.544   0.085
 4862TIP3   OH214530   0.781   6.925   0.007
 4862TIP3    H114531   0.853   6.978  -0.027
 4862TIP3    H214532   0.777   6.946   0.100
 4863TIP3   OH214533   5.876   5.905   5.320
 4863TIP3    H114534   5.884   5.918   5.415
 4863TIP3    H214535   5.848   5.990   5.286
 4864TIP3   OH214536   3.086   2.622   3.644
 4864TIP3    H114537   3.042   2.540   3.619
 4864TIP3    H214538   3.032   2.691   3.605
 4865TIP3   OH214539   4.513   1.069   5.209
 4865TIP3    H114540   4.440   1.029   5.162
 4865TIP3    H214541   4.557   1.123   5.144
 4866TIP3   OH214542   6.965   6.901   5.601
 4866TIP3    H114543   6.875   6.901   5.568
 4866TIP3    H214544   6.990   6.993   5.604
 4867TIP3   OH214545   3.001   4.595   4.854
 4867TIP3    H114546   3.047   4.665   4.807
 4867TIP3    H214547   2.908   4.613   4.838
 4868TIP3   OH214548   2.492   0.977   0.076
 4868TIP3    H114549   2.466   0.897   0.030
 4868TIP3    H214550   2.573   0.953   0.121
 4869TIP3   OH214551   3.701   2.761   4.589
 4869TIP3    H114552   3.784   2.778   4.546
 4869TIP3    H214553   3.724   2.730   4.676
 4870TIP3   OH214554   5.521   1.886   3.327
 4870TIP3    H114555   5.504   1.828   3.402
 4870TIP3    H214556   5.527   1.974   3.366
 4871TIP3   OH214557   5.723   1.065   2.519
 4871TIP3    H114558   5.808   1.096   2.550
 4871TIP3    H214559   5.659   1.123   2.561
 4872TIP3   OH214560   5.005   3.809   0.046
 4872TIP3    H114561   4.919   3.848   0.036
 4872TIP3    H214562   5.010   3.782   0.137
 4873TIP3   OH214563   2.443   4.622   0.690
 4873TIP3    H114564   2.503   4.560   0.732
 4873TIP3    H214565   2.364   4.619   0.743
 4874TIP3   OH214566   4.929   3.931   6.213
 4874TIP3    H114567   4.998   3.996   6.229
 4874TIP3    H214568   4.965   3.873   6.146
 4875TIP3   OH214569   7.018   4.056   3.087
 4875TIP3    H114570   7.044   4.004   3.011
 4875TIP3    H214571   6.930   4.086   3.068
 4876TIP3   OH214572   7.985   4.206   6.444
 4876TIP3    H114573   8.054   4.141   6.459
 4876TIP3    H214574   7.914   4.157   6.403
 4877TIP3   OH214575   0.783   2.148   5.831
 4877TIP3    H114576   0.775   2.077   5.766
 4877TIP3    H214577   0.756   2.108   5.913
 4878TIP3   OH214578   6.467   3.802   6.166
 4878TIP3    H114579   6.501   3.735   6.106
 4878TIP3    H214580   6.406   3.853   6.113
 4879TIP3   OH214581   7.373   6.934   4.741
 4879TIP3    H114582   7.339   6.948   4.829
 4879TIP3    H214583   7.309   6.875   4.700
 4880TIP3   OH214584   2.455   2.448   5.683
 4880TIP3    H114585   2.370   2.440   5.726
 4880TIP3    H214586   2.470   2.363   5.642
 4881TIP3   OH214587   1.832   0.288   2.904
 4881TIP3    H114588   1.922   0.257   2.895
 4881TIP3    H214589   1.820   0.349   2.831
 4882TIP3   OH214590   1.464   2.106   0.287
 4882TIP3    H114591   1.444   2.049   0.212
 4882TIP3    H214592   1.444   2.194   0.255
 4883TIP3   OH214593   1.986   2.401   3.125
 4883TIP3    H114594   2.025   2.373   3.043
 4883TIP3    H214595   2.029   2.484   3.145
 4884TIP3   OH214596   6.921   7.680   2.968
 4884TIP3    H114597   6.960   7.764   2.994
 4884TIP3    H214598   6.947   7.669   2.876
 4885TIP3   OH214599   1.539   6.592   5.906
 4885TIP3    H114600   1.444   6.590   5.902
 4885TIP3    H214601   1.560   6.545   5.987
 4886TIP3   OH214602   2.219   5.039   6.208
 4886TIP3    H114603   2.313   5.056   6.207
 4886TIP3    H214604   2.187   5.088   6.284
 4887TIP3   OH214605   6.614   4.097   1.190
 4887TIP3    H114606   6.534   4.147   1.180
 4887TIP3    H214607   6.671   4.154   1.242
 4888TIP3   OH214608   4.193   4.115   2.773
 4888TIP3    H114609   4.233   4.163   2.701
 4888TIP3    H214610   4.226   4.159   2.852
 4889TIP3   OH214611   6.619   7.415   6.462
 4889TIP3    H114612   6.556   7.344   6.454
 4889TIP3    H214613   6.636   7.422   6.556
 4890TIP3   OH214614   4.858   3.939   1.498
 4890TIP3    H114615   4.796   3.865   1.496
 4890TIP3    H214616   4.938   3.902   1.533
 4891TIP3   OH214617   2.878   5.680   5.727
 4891TIP3    H114618   2.784   5.672   5.717
 4891TIP3    H214619   2.901   5.619   5.797
 4892TIP3   OH214620   4.942   7.743   1.885
 4892TIP3    H114621   4.961   7.706   1.799
 4892TIP3    H214622   4.883   7.816   1.867
 4893TIP3   OH214623   1.594   0.734   2.307
 4893TIP3    H114624   1.646   0.811   2.329
 4893TIP3    H214625   1.524   0.767   2.251
 4894TIP3   OH214626   6.065   0.621   0.521
 4894TIP3    H114627   6.060   0.566   0.443
 4894TIP3    H214628   6.071   0.711   0.488
 4895TIP3   OH214629   1.797   6.063   0.177
 4895TIP3    H114630   1.809   5.991   0.115
 4895TIP3    H214631   1.873   6.058   0.235
 4896TIP3   OH214632   3.392   6.196   3.782
 4896TIP3    H114633   3.390   6.288   3.807
 4896TIP3    H214634   3.304   6.178   3.749
 4897TIP3   OH214635   5.062   1.924   3.396
 4897TIP3    H114636   4.970   1.908   3.414
 4897TIP3    H214637   5.109   1.854   3.442
 4898TIP3   OH214638   2.841   7.477   0.502
 4898TIP3    H114639   2.787   7.540   0.455
 4898TIP3    H214640   2.930   7.510   0.494
 4899TIP3   OH214641   7.136   3.232   6.536
 4899TIP3    H114642   7.135   3.207   6.443
 4899TIP3    H214643   7.109   3.324   6.536
 4900TIP3   OH214644   1.922   1.599   2.733
 4900TIP3    H114645   2.009   1.560   2.721
 4900TIP3    H214646   1.916   1.665   2.665
 4901TIP3   OH214647   5.546   3.885   2.816
 4901TIP3    H114648   5.532   3.968   2.863
 4901TIP3    H214649   5.607   3.836   2.871
 4902TIP3   OH214650   6.515   6.784   5.282
 4902TIP3    H114651   6.519   6.694   5.313
 4902TIP3    H214652   6.476   6.778   5.195
 4903TIP3   OH214653   6.389   2.488   4.433
 4903TIP3    H114654   6.395   2.500   4.528
 4903TIP3    H214655   6.412   2.573   4.397
 4904TIP3   OH214656   3.598   1.195   5.197
 4904TIP3    H114657   3.599   1.111   5.242
 4904TIP3    H214658   3.514   1.234   5.221
 4905TIP3   OH214659   6.323   5.500   6.508
 4905TIP3    H114660   6.390   5.439   6.475
 4905TIP3    H214661   6.373   5.572   6.547
 4906TIP3   OH214662   3.483   0.492   4.813
 4906TIP3    H114663   3.399   0.448   4.796
 4906TIP3    H214664   3.535   0.426   4.859
 4907TIP3   OH214665   5.968   5.808   0.462
 4907TIP3    H114666   5.891   5.863   0.479
 4907TIP3    H214667   5.968   5.745   0.535
 4908TIP3   OH214668   5.768   1.417   4.007
 4908TIP3    H114669   5.726   1.337   3.974
 4908TIP3    H214670   5.793   1.466   3.928
 4909TIP3   OH214671   5.028   6.035   3.653
 4909TIP3    H114672   5.083   5.961   3.682
 4909TIP3    H214673   5.077   6.073   3.579
 4910TIP3   OH214674   1.261   3.228   2.236
 4910TIP3    H114675   1.345   3.243   2.279
 4910TIP3    H214676   1.214   3.311   2.243
 4911TIP3   OH214677   5.896   6.754   1.117
 4911TIP3    H114678   5.987   6.725   1.129
 4911TIP3    H214679   5.904   6.835   1.067
 4912TIP3   OH214680   4.678   1.232   5.032
 4912TIP3    H114681   4.722   1.169   4.975
 4912TIP3    H214682   4.684   1.315   4.985
 4913TIP3   OH214683   1.853   5.048   0.765
 4913TIP3    H114684   1.779   4.987   0.759
 4913TIP3    H214685   1.930   4.992   0.771
 4914TIP3   OH214686   2.412   6.816   1.683
 4914TIP3    H114687   2.415   6.826   1.588
 4914TIP3    H214688   2.409   6.906   1.716
 4915TIP3   OH214689   7.224   5.407   6.002
 4915TIP3    H114690   7.294   5.465   5.971
 4915TIP3    H214691   7.166   5.465   6.053
 4916TIP3   OH214692   4.708   4.794   1.814
 4916TIP3    H114693   4.703   4.706   1.776
 4916TIP3    H214694   4.696   4.853   1.741
 4917TIP3   OH214695   0.573   3.517   4.907
 4917TIP3    H114696   0.522   3.598   4.901
 4917TIP3    H214697   0.597   3.497   4.816
 4918TIP3   OH214698   4.764   5.659   2.116
 4918TIP3    H114699   4.787   5.574   2.079
 4918TIP3    H214700   4.794   5.655   2.206
 4919TIP3   OH214701   6.041   7.688   6.763
 4919TIP3    H114702   6.060   7.751   6.833
 4919TIP3    H214703   6.127   7.656   6.736
 4920TIP3   OH214704   0.679   7.240   4.775
 4920TIP3    H114705   0.719   7.322   4.746
 4920TIP3    H214706   0.606   7.226   4.714
 4921TIP3   OH214707   5.720   3.800   1.731
 4921TIP3    H114708   5.634   3.841   1.721
 4921TIP3    H214709   5.712   3.745   1.809
 4922TIP3   OH214710   7.734   4.555   5.894
 4922TIP3    H114711   7.813   4.552   5.947
 4922TIP3    H214712   7.665   4.523   5.952
 4923TIP3   OH214713   7.278   5.546   0.986
 4923TIP3    H114714   7.297   5.608   0.915
 4923TIP3    H214715   7.317   5.587   1.064
 4924TIP3   OH214716   6.270   0.135   4.607
 4924TIP3    H114717   6.194   0.108   4.660
 4924TIP3    H214718   6.302   0.215   4.650
 4925TIP3   OH214719   5.431   4.598   2.936
 4925TIP3    H114720   5.491   4.672   2.933
 4925TIP3    H214721   5.431   4.570   3.028
 4926TIP3   OH214722   0.157   0.295   6.125
 4926TIP3    H114723   0.192   0.321   6.040
 4926TIP3    H214724   0.229   0.309   6.186
 4927TIP3   OH214725   6.507   4.389   5.095
 4927TIP3    H114726   6.443   4.364   5.028
 4927TIP3    H214727   6.548   4.306   5.119
 4928TIP3   OH214728   2.577   6.893   2.414
 4928TIP3    H114729   2.564   6.814   2.361
 4928TIP3    H214730   2.491   6.935   2.414
 4929TIP3   OH214731   3.782   1.337   4.586
 4929TIP3    H114732   3.730   1.275   4.536
 4929TIP3    H214733   3.731   1.354   4.665
 4930TIP3   OH214734   4.356   6.167   5.321
 4930TIP3    H114735   4.290   6.235   5.336
 4930TIP3    H214736   4.439   6.215   5.316
 4931TIP3   OH214737   2.646   3.164   5.072
 4931TIP3    H114738   2.600   3.082   5.056
 4931TIP3    H214739   2.699   3.177   4.993
 4932TIP3   OH214740   1.668   6.433   4.748
 4932TIP3    H114741   1.621   6.516   4.756
 4932TIP3    H214742   1.682   6.405   4.838
 4933TIP3   OH214743   6.642   0.119   5.141
 4933TIP3    H114744   6.702   0.091   5.210
 4933TIP3    H214745   6.556   0.118   5.182
 4934TIP3   OH214746   1.192   1.869   6.468
 4934TIP3    H114747   1.236   1.929   6.528
 4934TIP3    H214748   1.263   1.822   6.424
 4935TIP3   OH214749   1.918   2.310   1.636
 4935TIP3    H114750   1.879   2.362   1.706
 4935TIP3    H214751   1.984   2.256   1.679
 4936TIP3   OH214752   1.352   4.761   2.241
 4936TIP3    H114753   1.338   4.829   2.175
 4936TIP3    H214754   1.445   4.743   2.238
 4937TIP3   OH214755   1.668   5.241   5.482
 4937TIP3    H114756   1.599   5.244   5.416
 4937TIP3    H214757   1.748   5.265   5.435
 4938TIP3   OH214758   7.349   3.597   5.245
 4938TIP3    H114759   7.278   3.638   5.197
 4938TIP3    H214760   7.305   3.548   5.315
 4939TIP3   OH214761   3.525   3.595   4.478
 4939TIP3    H114762   3.588   3.600   4.550
 4939TIP3    H214763   3.530   3.504   4.448
 4940TIP3   OH214764   7.163   1.987   5.846
 4940TIP3    H114765   7.080   2.033   5.836
 4940TIP3    H214766   7.217   2.047   5.897
 4941TIP3   OH214767   3.635   1.597   5.816
 4941TIP3    H114768   3.671   1.529   5.873
 4941TIP3    H214769   3.675   1.581   5.731
 4942TIP3   OH214770   7.213   5.977   1.156
 4942TIP3    H114771   7.223   6.026   1.074
 4942TIP3    H214772   7.134   5.924   1.142
 4943TIP3   OH214773   8.220   7.700   3.199
 4943TIP3    H114774   8.233   7.620   3.148
 4943TIP3    H214775   8.132   7.690   3.237
 4944TIP3   OH214776   0.558   6.455   0.122
 4944TIP3    H114777   0.486   6.483   0.066
 4944TIP3    H214778   0.534   6.367   0.151
 4945TIP3   OH214779   7.107   3.831   6.277
 4945TIP3    H114780   7.080   3.759   6.220
 4945TIP3    H214781   7.096   3.796   6.366
 4946TIP3   OH214782   7.477   1.092   3.886
 4946TIP3    H114783   7.422   1.123   3.958
 4946TIP3    H214784   7.565   1.087   3.922
 4947TIP3   OH214785   7.887   3.353   5.718
 4947TIP3    H114786   7.924   3.441   5.710
 4947TIP3    H214787   7.956   3.302   5.759
 4948TIP3   OH214788   4.466   6.457   2.870
 4948TIP3    H114789   4.379   6.458   2.908
 4948TIP3    H214790   4.517   6.515   2.927
 4949TIP3   OH214791   3.187   5.843   4.178
 4949TIP3    H114792   3.222   5.920   4.222
 4949TIP3    H214793   3.247   5.827   4.105
 4950TIP3   OH214794   2.539   7.470   2.478
 4950TIP3    H114795   2.511   7.382   2.452
 4950TIP3    H214796   2.477   7.495   2.547
 4951TIP3   OH214797   5.584   2.321   1.625
 4951TIP3    H114798   5.603   2.411   1.597
 4951TIP3    H214799   5.615   2.317   1.716
 4952TIP3   OH214800   1.513   1.836   6.502
 4952TIP3    H114801   1.563   1.884   6.568
 4952TIP3    H214802   1.576   1.821   6.431
 4953TIP3   OH214803   3.856   6.160   5.630
 4953TIP3    H114804   3.862   6.067   5.609
 4953TIP3    H214805   3.794   6.165   5.702
 4954TIP3   OH214806   7.852   0.956   3.290
 4954TIP3    H114807   7.921   0.926   3.349
 4954TIP3    H214808   7.817   0.876   3.252
 4955TIP3   OH214809   2.066   1.267   1.990
 4955TIP3    H114810   2.150   1.307   2.012
 4955TIP3    H214811   2.085   1.174   1.982
 4956TIP3   OH214812   2.167   2.306   0.322
 4956TIP3    H114813   2.104   2.245   0.362
 4956TIP3    H214814   2.178   2.273   0.232
 4957TIP3   OH214815   5.759   7.473   1.208
 4957TIP3    H114816   5.765   7.532   1.133
 4957TIP3    H214817   5.714   7.395   1.173
 4958TIP3   OH214818   4.054   3.392   0.908
 4958TIP3    H114819   4.109   3.470   0.917
 4958TIP3    H214820   4.101   3.324   0.957
 4959TIP3   OH214821   0.548   0.800   6.600
 4959TIP3    H114822   0.544   0.815   6.506
 4959TIP3    H214823   0.461   0.768   6.623
 4960TIP3   OH214824   3.504   5.847   6.706
 4960TIP3    H114825   3.470   5.800   6.782
 4960TIP3    H214826   3.441   5.829   6.636
 4961TIP3   OH214827   4.487   3.117   0.865
 4961TIP3    H114828   4.534   3.057   0.923
 4961TIP3    H214829   4.401   3.127   0.906
 4962TIP3   OH214830   1.684   2.511   0.179
 4962TIP3    H114831   1.767   2.516   0.227
 4962TIP3    H214832   1.708   2.532   0.088
 4963TIP3   OH214833   6.117   4.288   3.509
 4963TIP3    H114834   6.166   4.225   3.456
 4963TIP3    H214835   6.048   4.236   3.550
 4964TIP3   OH214836   2.787   5.683   0.654
 4964TIP3    H114837   2.829   5.730   0.583
 4964TIP3    H214838   2.854   5.677   0.722
 4965TIP3   OH214839   6.281   2.892   3.313
 4965TIP3    H114840   6.201   2.944   3.320
 4965TIP3    H214841   6.252   2.802   3.326
 4966TIP3   OH214842   3.624   1.967   2.735
 4966TIP3    H114843   3.638   2.056   2.703
 4966TIP3    H214844   3.533   1.947   2.713
 4967TIP3   OH214845   4.628   0.201   3.135
 4967TIP3    H114846   4.568   0.261   3.090
 4967TIP3    H214847   4.590   0.190   3.222
 4968TIP3   OH214848   2.985   5.004   1.177
 4968TIP3    H114849   2.958   5.009   1.269
 4968TIP3    H214850   3.019   5.091   1.157
 4969TIP3   OH214851   0.455   0.256   4.464
 4969TIP3    H114852   0.457   0.336   4.517
 4969TIP3    H214853   0.533   0.261   4.409
 4970TIP3   OH214854   6.784   7.314   0.336
 4970TIP3    H114855   6.875   7.299   0.362
 4970TIP3    H214856   6.744   7.356   0.413
 4971TIP3   OH214857   4.768   0.518   0.361
 4971TIP3    H114858   4.687   0.524   0.311
 4971TIP3    H214859   4.828   0.577   0.315
 4972TIP3   OH214860   4.664   5.641   3.554
 4972TIP3    H114861   4.621   5.590   3.621
 4972TIP3    H214862   4.604   5.713   3.536
 4973TIP3   OH214863   3.273   0.744   1.748
 4973TIP3    H114864   3.281   0.788   1.663
 4973TIP3    H214865   3.187   0.771   1.780
 4974TIP3   OH214866   1.154   2.977   0.616
 4974TIP3    H114867   1.230   2.976   0.674
 4974TIP3    H214868   1.109   3.059   0.635
 4975TIP3   OH214869   2.822   6.001   4.178
 4975TIP3    H114870   2.839   5.993   4.271
 4975TIP3    H214871   2.781   6.087   4.168
 4976TIP3   OH214872   4.824   2.026   0.610
 4976TIP3    H114873   4.909   1.983   0.614
 4976TIP3    H214874   4.824   2.086   0.685
 4977TIP3   OH214875   2.465   6.922   5.049
 4977TIP3    H114876   2.496   6.998   5.099
 4977TIP3    H214877   2.516   6.849   5.083
 4978TIP3   OH214878   4.797   3.781   1.887
 4978TIP3    H114879   4.805   3.702   1.835
 4978TIP3    H214880   4.752   3.753   1.967
 4979TIP3   OH214881   6.938   5.287   0.120
 4979TIP3    H114882   7.001   5.273   0.191
 4979TIP3    H214883   6.938   5.381   0.106
 4980TIP3   OH214884   4.994   7.140   1.866
 4980TIP3    H114885   5.033   7.055   1.843
 4980TIP3    H214886   5.009   7.148   1.960
 4981TIP3   OH214887   2.908   5.686   6.730
 4981TIP3    H114888   2.988   5.681   6.677
 4981TIP3    H214889   2.859   5.758   6.690
 4982TIP3   OH214890   8.211   4.948   2.174
 4982TIP3    H114891   8.307   4.946   2.173
 4982TIP3    H214892   8.185   4.865   2.214
 4983TIP3   OH214893   1.206   2.660   6.474
 4983TIP3    H114894   1.265   2.657   6.399
 4983TIP3    H214895   1.133   2.603   6.451
 4984TIP3   OH214896   5.826   0.965   5.458
 4984TIP3    H114897   5.828   0.875   5.425
 4984TIP3    H214898   5.737   0.976   5.491
 4985TIP3   OH214899   1.848   3.649   5.440
 4985TIP3    H114900   1.796   3.675   5.365
 4985TIP3    H214901   1.915   3.590   5.405
 4986TIP3   OH214902   0.087   4.995   4.646
 4986TIP3    H114903   0.104   5.087   4.667
 4986TIP3    H214904   0.139   4.980   4.567
 4987TIP3   OH214905   2.002   3.645   0.236
 4987TIP3    H114906   2.059   3.570   0.221
 4987TIP3    H214907   2.051   3.700   0.297
 4988TIP3   OH214908   7.857   3.845   1.780
 4988TIP3    H114909   7.935   3.790   1.789
 4988TIP3    H214910   7.885   3.932   1.806
 4989TIP3   OH214911   1.767   6.042   0.820
 4989TIP3    H114912   1.719   6.052   0.738
 4989TIP3    H214913   1.758   6.126   0.865
 4990TIP3   OH214914   0.784   2.460   6.251
 4990TIP3    H114915   0.847   2.512   6.201
 4990TIP3    H214916   0.828   2.443   6.334
 4991TIP3   OH214917   2.265   1.285   5.589
 4991TIP3    H114918   2.355   1.253   5.599
 4991TIP3    H214919   2.269   1.345   5.515
 4992TIP3   OH214920   5.351   6.186   5.979
 4992TIP3    H114921   5.281   6.129   5.947
 4992TIP3    H214922   5.423   6.172   5.918
 4993TIP3   OH214923   5.008   1.243   5.870
 4993TIP3    H114924   4.975   1.175   5.929
 4993TIP3    H214925   4.981   1.325   5.912
 4994TIP3   OH214926   0.641   0.411   4.705
 4994TIP3    H114927   0.608   0.465   4.778
 4994TIP3    H214928   0.669   0.474   4.639
 4995TIP3   OH214929   7.779   1.958   5.359
 4995TIP3    H114930   7.746   1.911   5.283
 4995TIP3    H214931   7.764   1.899   5.433
 4996TIP3   OH214932   6.801   0.548   2.441
 4996TIP3    H114933   6.713   0.556   2.478
 4996TIP3    H214934   6.802   0.463   2.398
 4997TIP3   OH214935   2.498   0.765   4.264
 4997TIP3    H114936   2.481   0.859   4.268
 4997TIP3    H214937   2.415   0.724   4.288
 4998TIP3   OH214938   2.107   0.901   0.692
 4998TIP3    H114939   2.154   0.901   0.776
 4998TIP3    H214940   2.123   0.988   0.656
 4999TIP3   OH214941   6.351   3.603   3.173
 4999TIP3    H114942   6.309   3.675   3.221
 4999TIP3    H214943   6.283   3.572   3.113
 5000TIP3   OH214944   4.902   0.996   6.063
 5000TIP3    H114945   4.842   1.049   6.116
 5000TIP3    H214946   4.847   0.928   6.026
 5001TIP3   OH214947   1.986   4.637   6.180
 5001TIP3    H114948   1.918   4.704   6.185
 5001TIP3    H214949   1.947   4.568   6.126
 5002TIP3   OH214950   2.549   4.729   6.503
 5002TIP3    H114951   2.605   4.801   6.472
 5002TIP3    H214952   2.547   4.739   6.598
 5003TIP3   OH214953   6.215   7.437   0.156
 5003TIP3    H114954   6.170   7.521   0.171
 5003TIP3    H214955   6.274   7.428   0.230
 5004TIP3   OH214956   2.876   4.724   6.620
 5004TIP3    H114957   2.943   4.792   6.622
 5004TIP3    H214958   2.871   4.698   6.528
 5005TIP3   OH214959   1.854   1.169   0.112
 5005TIP3    H114960   1.804   1.141   0.035
 5005TIP3    H214961   1.828   1.260   0.125
 5006TIP3   OH214962   1.705   1.366   0.796
 5006TIP3    H114963   1.768   1.437   0.784
 5006TIP3    H214964   1.655   1.365   0.714
 5007TIP3   OH214965   1.874   3.896   4.586
 5007TIP3    H114966   1.844   3.971   4.535
 5007TIP3    H214967   1.926   3.934   4.657
 5008TIP3   OH214968   5.202   1.149   3.448
 5008TIP3    H114969   5.158   1.207   3.510
 5008TIP3    H214970   5.197   1.062   3.488
 5009TIP3   OH214971   3.271   4.084   2.759
 5009TIP3    H114972   3.326   4.095   2.837
 5009TIP3    H214973   3.265   3.989   2.748
 5010TIP3   OH214974   1.188   5.776   6.400
 5010TIP3    H114975   1.177   5.710   6.469
 5010TIP3    H214976   1.214   5.725   6.322
 5011TIP3   OH214977   5.481   4.548   5.640
 5011TIP3    H114978   5.531   4.625   5.666
 5011TIP3    H214979   5.523   4.519   5.559
 5012TIP3   OH214980   7.019   1.487   0.454
 5012TIP3    H114981   7.052   1.490   0.364
 5012TIP3    H214982   6.966   1.408   0.458
 5013TIP3   OH214983   4.119   2.698   1.691
 5013TIP3    H114984   4.088   2.756   1.621
 5013TIP3    H214985   4.199   2.660   1.656
 5014TIP3   OH214986   2.263   5.757   5.013
 5014TIP3    H114987   2.271   5.849   5.039
 5014TIP3    H214988   2.312   5.751   4.931
 5015TIP3   OH214989   1.490   6.071   4.493
 5015TIP3    H114990   1.474   6.065   4.399
 5015TIP3    H214991   1.485   5.980   4.524
 5016TIP3   OH214992   2.490   1.750   6.346
 5016TIP3    H114993   2.557   1.783   6.406
 5016TIP3    H214994   2.520   1.778   6.260
 5017TIP3   OH214995   6.680   5.548   3.039
 5017TIP3    H114996   6.651   5.528   2.950
 5017TIP3    H214997   6.701   5.463   3.077
 5018TIP3   OH214998   2.776   3.475   5.357
 5018TIP3    H114999   2.692   3.476   5.403
 5018TIP3    H215000   2.791   3.382   5.338
 5019TIP3   OH215001   7.260   1.685   2.315
 5019TIP3    H115002   7.219   1.722   2.393
 5019TIP3    H215003   7.280   1.760   2.260
 5020TIP3   OH215004   7.223   0.825   6.612
 5020TIP3    H115005   7.219   0.781   6.697
 5020TIP3    H215006   7.218   0.754   6.548
 5021TIP3   OH215007   7.667   4.366   3.360
 5021TIP3    H115008   7.739   4.322   3.314
 5021TIP3    H215009   7.709   4.437   3.408
 5022TIP3   OH215010   4.328   0.615   3.064
 5022TIP3    H115011   4.336   0.711   3.063
 5022TIP3    H215012   4.234   0.598   3.070
 5023TIP3   OH215013   7.811   5.211   1.754
 5023TIP3    H115014   7.743   5.146   1.737
 5023TIP3    H215015   7.847   5.186   1.839
 5024TIP3   OH215016   7.003   2.086   4.510
 5024TIP3    H115017   6.934   2.021   4.526
 5024TIP3    H215018   7.083   2.043   4.540
 5025TIP3   OH215019   1.757   2.128   1.105
 5025TIP3    H115020   1.683   2.160   1.157
 5025TIP3    H215021   1.746   2.172   1.020
 5026TIP3   OH215022   7.244   3.086   2.697
 5026TIP3    H115023   7.337   3.078   2.672
 5026TIP3    H215024   7.206   3.138   2.627
 5027TIP3   OH215025   1.553   3.668   4.869
 5027TIP3    H115026   1.559   3.581   4.910
 5027TIP3    H215027   1.516   3.650   4.783
 5028TIP3   OH215028   3.638   5.731   5.481
 5028TIP3    H115029   3.590   5.813   5.474
 5028TIP3    H215030   3.571   5.663   5.478
 5029TIP3   OH215031   1.509   4.470   0.675
 5029TIP3    H115032   1.594   4.500   0.706
 5029TIP3    H215033   1.519   4.375   0.668
 5030TIP3   OH215034   5.153   3.064   0.122
 5030TIP3    H115035   5.086   3.081   0.056
 5030TIP3    H215036   5.109   3.015   0.191
 5031TIP3   OH215037   6.208   3.820   3.297
 5031TIP3    H115038   6.112   3.817   3.300
 5031TIP3    H215039   6.227   3.880   3.224
 5032TIP3   OH215040   5.932   0.503   4.379
 5032TIP3    H115041   5.999   0.528   4.315
 5032TIP3    H215042   5.981   0.484   4.459
 5033TIP3   OH215043   2.924   5.966   2.699
 5033TIP3    H115044   3.013   5.945   2.729
 5033TIP3    H215045   2.868   5.902   2.743
 5034TIP3   OH215046   3.094   0.725   2.207
 5034TIP3    H115047   3.170   0.720   2.265
 5034TIP3    H215048   3.090   0.639   2.166
 5035TIP3   OH215049   0.877   6.427   3.719
 5035TIP3    H115050   0.784   6.451   3.715
 5035TIP3    H215051   0.893   6.407   3.811
 5036TIP3   OH215052   1.012   3.001   5.906
 5036TIP3    H115053   1.070   2.989   5.831
 5036TIP3    H215054   0.941   2.938   5.891
 5037TIP3   OH215055   4.001   3.159   5.002
 5037TIP3    H115056   3.931   3.155   4.937
 5037TIP3    H215057   3.972   3.101   5.072
 5038TIP3   OH215058   4.667   1.477   0.753
 5038TIP3    H115059   4.587   1.438   0.789
 5038TIP3    H215060   4.644   1.502   0.664
 5039TIP3   OH215061   0.339   2.947   0.796
 5039TIP3    H115062   0.251   2.926   0.762
 5039TIP3    H215063   0.335   3.041   0.815
 5040TIP3   OH215064   1.935   4.380   4.990
 5040TIP3    H115065   2.011   4.326   5.012
 5040TIP3    H215066   1.968   4.446   4.929
 5041TIP3   OH215067   7.822   2.069   3.893
 5041TIP3    H115068   7.798   1.985   3.853
 5041TIP3    H215069   7.744   2.096   3.941
 5042TIP3   OH215070   4.080   2.597   4.286
 5042TIP3    H115071   4.125   2.548   4.217
 5042TIP3    H215072   4.035   2.668   4.240
 5043TIP3   OH215073   5.698   6.747   0.804
 5043TIP3    H115074   5.784   6.714   0.830
 5043TIP3    H215075   5.636   6.695   0.855
 5044TIP3   OH215076   4.688   7.020   0.299
 5044TIP3    H115077   4.713   7.033   0.207
 5044TIP3    H215078   4.593   7.011   0.297
 5045TIP3   OH215079   4.257   7.672   4.897
 5045TIP3    H115080   4.347   7.640   4.886
 5045TIP3    H215081   4.209   7.633   4.824
 5046TIP3   OH215082   7.634   7.072   1.339
 5046TIP3    H115083   7.542   7.054   1.319
 5046TIP3    H215084   7.667   7.117   1.261
 5047TIP3   OH215085   6.347   1.822   6.743
 5047TIP3    H115086   6.325   1.735   6.777
 5047TIP3    H215087   6.442   1.823   6.738
 5048TIP3   OH215088   0.690   4.794   4.480
 5048TIP3    H115089   0.605   4.800   4.522
 5048TIP3    H215090   0.718   4.704   4.494
 5049TIP3   OH215091   4.240   2.515   2.324
 5049TIP3    H115092   4.158   2.516   2.276
 5049TIP3    H215093   4.279   2.601   2.308
 5050TIP3   OH215094   2.543   3.345   4.476
 5050TIP3    H115095   2.614   3.333   4.413
 5050TIP3    H215096   2.537   3.261   4.522
 5051TIP3   OH215097   6.348   5.346   3.013
 5051TIP3    H115098   6.428   5.294   3.014
 5051TIP3    H215099   6.310   5.332   3.100
 5052TIP3   OH215100   6.877   3.324   6.741
 5052TIP3    H115101   6.949   3.379   6.770
 5052TIP3    H215102   6.865   3.346   6.648
 5053TIP3   OH215103   2.278   3.870   6.268
 5053TIP3    H115104   2.297   3.944   6.212
 5053TIP3    H215105   2.229   3.809   6.212
 5054TIP3   OH215106   4.124   5.046   0.807
 5054TIP3    H115107   4.039   5.059   0.765
 5054TIP3    H215108   4.187   5.043   0.735
 5055TIP3   OH215109   7.243   5.608   2.913
 5055TIP3    H115110   7.161   5.658   2.917
 5055TIP3    H215111   7.247   5.574   2.824
 5056TIP3   OH215112   0.012   1.971   3.789
 5056TIP3    H115113  -0.051   2.016   3.845
 5056TIP3    H215114   0.012   2.020   3.707
 5057TIP3   OH215115   2.526   0.599   6.099
 5057TIP3    H115116   2.522   0.618   6.193
 5057TIP3    H215117   2.619   0.593   6.079
 5058TIP3   OH215118   6.363   2.329   5.817
 5058TIP3    H115119   6.392   2.250   5.862
 5058TIP3    H215120   6.287   2.358   5.868
 5059TIP3   OH215121   1.997   6.962   6.461
 5059TIP3    H115122   2.042   6.895   6.512
 5059TIP3    H215123   1.905   6.954   6.488
 5060TIP3   OH215124   7.165   0.793   4.805
 5060TIP3    H115125   7.089   0.760   4.757
 5060TIP3    H215126   7.127   0.842   4.878
 5061TIP3   OH215127   5.640   3.571   5.237
 5061TIP3    H115128   5.708   3.506   5.217
 5061TIP3    H215129   5.587   3.576   5.158
 5062TIP3   OH215130   5.295   5.718   5.444
 5062TIP3    H115131   5.348   5.765   5.380
 5062TIP3    H215132   5.288   5.778   5.518
 5063TIP3   OH215133   6.712   5.883   1.912
 5063TIP3    H115134   6.747   5.804   1.954
 5063TIP3    H215135   6.705   5.860   1.819
 5064TIP3   OH215136   1.138   0.639   6.127
 5064TIP3    H115137   1.144   0.734   6.134
 5064TIP3    H215138   1.149   0.607   6.217
 5065TIP3   OH215139   1.179   5.248   6.245
 5065TIP3    H115140   1.260   5.243   6.194
 5065TIP3    H215141   1.112   5.210   6.188
 5066TIP3   OH215142   7.091   5.739   3.184
 5066TIP3    H115143   7.037   5.815   3.204
 5066TIP3    H215144   7.066   5.713   3.095
 5067TIP3   OH215145   2.188   3.085   5.699
 5067TIP3    H115146   2.136   3.017   5.656
 5067TIP3    H215147   2.132   3.163   5.695
 5068TIP3   OH215148   6.249   6.114   5.048
 5068TIP3    H115149   6.247   6.109   5.144
 5068TIP3    H215150   6.158   6.106   5.022
 5069TIP3   OH215151   1.764   4.323   0.404
 5069TIP3    H115152   1.728   4.311   0.316
 5069TIP3    H215153   1.799   4.237   0.428
 5070TIP3   OH215154   7.631   5.979   1.495
 5070TIP3    H115155   7.561   5.925   1.532
 5070TIP3    H215156   7.595   6.010   1.411
 5071TIP3   OH215157   1.042   2.017   6.300
 5071TIP3    H115158   1.081   1.974   6.224
 5071TIP3    H215159   1.080   1.972   6.375
 5072TIP3   OH215160   4.773   5.220   1.357
 5072TIP3    H115161   4.841   5.258   1.414
 5072TIP3    H215162   4.817   5.205   1.274
 5073TIP3   OH215163   5.830   7.532   6.713
 5073TIP3    H115164   5.897   7.593   6.744
 5073TIP3    H215165   5.836   7.458   6.773
 5074TIP3   OH215166   3.632   2.907   5.624
 5074TIP3    H115167   3.615   2.831   5.568
 5074TIP3    H215168   3.594   2.981   5.576
 5075TIP3   OH215169   1.676   5.697   5.606
 5075TIP3    H115170   1.588   5.731   5.621
 5075TIP3    H215171   1.691   5.708   5.513
 5076TIP3   OH215172   6.503   4.893   0.263
 5076TIP3    H115173   6.412   4.910   0.290
 5076TIP3    H215174   6.495   4.858   0.174
 5077TIP3   OH215175   4.980   0.193   1.007
 5077TIP3    H115176   4.897   0.174   1.050
 5077TIP3    H215177   5.043   0.201   1.078
 5078TIP3   OH215178   2.561   0.769   3.994
 5078TIP3    H115179   2.569   0.753   4.088
 5078TIP3    H215180   2.532   0.860   3.987
 5079TIP3   OH215181   3.178   1.056   1.874
 5079TIP3    H115182   3.200   1.118   1.943
 5079TIP3    H215183   3.147   0.978   1.920
 5080TIP3   OH215184   0.787   4.224   5.790
 5080TIP3    H115185   0.764   4.258   5.877
 5080TIP3    H215186   0.878   4.250   5.778
 5081TIP3   OH215187   4.791   5.085   0.857
 5081TIP3    H115188   4.735   5.028   0.911
 5081TIP3    H215189   4.734   5.159   0.835
 5082TIP3   OH215190   3.332   7.325   6.288
 5082TIP3    H115191   3.382   7.294   6.364
 5082TIP3    H215192   3.275   7.252   6.265
 5083TIP3   OH215193   5.050   6.148   4.442
 5083TIP3    H115194   5.121   6.130   4.381
 5083TIP3    H215195   4.999   6.217   4.400
 5084TIP3   OH215196   5.917   2.869   4.651
 5084TIP3    H115197   5.856   2.930   4.609
 5084TIP3    H215198   5.972   2.924   4.706
 5085TIP3   OH215199   1.467   6.347   1.922
 5085TIP3    H115200   1.483   6.280   1.855
 5085TIP3    H215201   1.536   6.412   1.907
 5086TIP3   OH215202   6.541   6.883   6.523
 5086TIP3    H115203   6.507   6.872   6.612
 5086TIP3    H215204   6.477   6.940   6.481
 5087TIP3   OH215205   8.154   5.775   6.258
 5087TIP3    H115206   8.223   5.840   6.263
 5087TIP3    H215207   8.147   5.740   6.347
 5088TIP3   OH215208   1.114   7.426   3.732
 5088TIP3    H115209   1.034   7.478   3.721
 5088TIP3    H215210   1.173   7.457   3.663
 5089TIP3   OH215211   4.267   7.019   1.312
 5089TIP3    H115212   4.259   6.938   1.363
 5089TIP3    H215213   4.198   7.075   1.346
 5090TIP3   OH215214   0.324   6.420   0.771
 5090TIP3    H115215   0.341   6.434   0.678
 5090TIP3    H215216   0.331   6.507   0.810
 5091TIP3   OH215217   6.220   0.452   1.437
 5091TIP3    H115218   6.175   0.404   1.506
 5091TIP3    H215219   6.300   0.402   1.420
 5092TIP3   OH215220   1.059   7.640   1.661
 5092TIP3    H115221   1.101   7.564   1.700
 5092TIP3    H215222   1.125   7.709   1.665
 5093TIP3   OH215223   0.438   5.369   1.567
 5093TIP3    H115224   0.489   5.448   1.582
 5093TIP3    H215225   0.380   5.363   1.643
 5094TIP3   OH215226   7.591   3.130   0.574
 5094TIP3    H115227   7.666   3.159   0.521
 5094TIP3    H215228   7.605   3.172   0.659
 5095TIP3   OH215229   4.984   2.585   0.833
 5095TIP3    H115230   4.978   2.490   0.841
 5095TIP3    H215231   5.034   2.613   0.910
 5096TIP3   OH215232   0.696   7.122   1.567
 5096TIP3    H115233   0.736   7.049   1.615
 5096TIP3    H215234   0.646   7.169   1.634
 5097TIP3   OH215235   2.439   7.170   4.783
 5097TIP3    H115236   2.472   7.246   4.832
 5097TIP3    H215237   2.507   7.104   4.792
 5098TIP3   OH215238   5.004   5.349   6.430
 5098TIP3    H115239   4.974   5.289   6.498
 5098TIP3    H215240   5.077   5.397   6.470
 5099TIP3   OH215241   0.327   2.533   2.554
 5099TIP3    H115242   0.239   2.568   2.569
 5099TIP3    H215243   0.326   2.502   2.463
 5100TIP3   OH215244   3.571   7.551   5.728
 5100TIP3    H115245   3.633   7.623   5.740
 5100TIP3    H215246   3.515   7.554   5.806
 5101TIP3   OH215247   2.580   6.272   2.498
 5101TIP3    H115248   2.522   6.216   2.549
 5101TIP3    H215249   2.522   6.339   2.462
 5102TIP3   OH215250   3.417   2.893   2.855
 5102TIP3    H115251   3.342   2.942   2.888
 5102TIP3    H215252   3.464   2.864   2.934
 5103TIP3   OH215253   5.851   2.856   5.746
 5103TIP3    H115254   5.849   2.763   5.723
 5103TIP3    H215255   5.912   2.861   5.820
 5104TIP3   OH215256   5.640   7.605   6.314
 5104TIP3    H115257   5.573   7.539   6.295
 5104TIP3    H215258   5.629   7.625   6.407
 5105TIP3   OH215259   0.378   0.904   5.996
 5105TIP3    H115260   0.332   0.822   6.012
 5105TIP3    H215261   0.334   0.942   5.920
 5106TIP3   OH215262   0.775   5.711   1.786
 5106TIP3    H115263   0.825   5.791   1.797
 5106TIP3    H215264   0.809   5.672   1.706
 5107TIP3   OH215265   2.589   7.270   6.161
 5107TIP3    H115266   2.670   7.223   6.175
 5107TIP3    H215267   2.616   7.358   6.135
 5108TIP3   OH215268   1.796   4.985   1.785
 5108TIP3    H115269   1.773   5.051   1.719
 5108TIP3    H215270   1.890   4.968   1.770
 5109TIP3   OH215271   3.030   4.400   4.276
 5109TIP3    H115272   3.104   4.457   4.297
 5109TIP3    H215273   2.978   4.399   4.357
 5110TIP3   OH215274   7.263   2.865   3.383
 5110TIP3    H115275   7.175   2.830   3.369
 5110TIP3    H215276   7.251   2.960   3.388
 5111TIP3   OH215277   1.298   7.798   2.966
 5111TIP3    H115278   1.336   7.851   3.036
 5111TIP3    H215279   1.208   7.829   2.959
 5112TIP3   OH215280   7.323   5.288  -0.024
 5112TIP3    H115281   7.305   5.283   0.070
 5112TIP3    H215282   7.403   5.340  -0.031
 5113TIP3   OH215283   5.798   3.013   3.435
 5113TIP3    H115284   5.716   2.995   3.390
 5113TIP3    H215285   5.771   3.038   3.524
 5114TIP3   OH215286   7.468   1.859   0.658
 5114TIP3    H115287   7.451   1.916   0.733
 5114TIP3    H215288   7.381   1.841   0.621
 5115TIP3   OH215289   6.661   1.754   2.888
 5115TIP3    H115290   6.578   1.708   2.884
 5115TIP3    H215291   6.727   1.684   2.890
 5116TIP3   OH215292   2.728   2.838   5.239
 5116TIP3    H115293   2.651   2.832   5.294
 5116TIP3    H215294   2.736   2.750   5.200
 5117TIP3   OH215295   0.318   3.566   2.005
 5117TIP3    H115296   0.231   3.585   1.970
 5117TIP3    H215297   0.376   3.573   1.929
 5118TIP3   OH215298   8.225   3.280   3.585
 5118TIP3    H115299   8.314   3.268   3.618
 5118TIP3    H215300   8.208   3.373   3.595
 5119TIP3   OH215301   1.157   4.221   5.562
 5119TIP3    H115302   1.098   4.147   5.575
 5119TIP3    H215303   1.134   4.254   5.475
 5120TIP3   OH215304   0.775   0.336   5.117
 5120TIP3    H115305   0.844   0.270   5.119
 5120TIP3    H215306   0.801   0.399   5.184
 5121TIP3   OH215307   7.464   0.312   2.878
 5121TIP3    H115308   7.372   0.287   2.885
 5121TIP3    H215309   7.508   0.261   2.946
 5122TIP3   OH215310   4.873   7.714   3.930
 5122TIP3    H115311   4.871   7.643   3.994
 5122TIP3    H215312   4.801   7.695   3.870
 5123TIP3   OH215313   3.566   7.270   3.421
 5123TIP3    H115314   3.571   7.176   3.404
 5123TIP3    H215315   3.560   7.277   3.516
 5124TIP3   OH215316   5.617   1.738   1.093
 5124TIP3    H115317   5.595   1.806   1.157
 5124TIP3    H215318   5.574   1.659   1.127
 5125TIP3   OH215319   6.447   3.311   1.550
 5125TIP3    H115320   6.465   3.366   1.627
 5125TIP3    H215321   6.406   3.370   1.488
 5126TIP3   OH215322   4.822   0.883   2.076
 5126TIP3    H115323   4.859   0.946   2.014
 5126TIP3    H215324   4.898   0.835   2.109
 5127TIP3   OH215325   2.346   1.202   0.980
 5127TIP3    H115326   2.263   1.169   0.945
 5127TIP3    H215327   2.400   1.220   0.903
 5128TIP3   OH215328   3.150   1.180   6.407
 5128TIP3    H115329   3.226   1.235   6.428
 5128TIP3    H215330   3.182   1.090   6.420
 5129TIP3   OH215331   6.250   2.254   4.750
 5129TIP3    H115332   6.339   2.287   4.734
 5129TIP3    H215333   6.216   2.235   4.662
 5130TIP3   OH215334   0.362   5.629   4.041
 5130TIP3    H115335   0.285   5.686   4.036
 5130TIP3    H215336   0.391   5.620   3.951
 5131TIP3   OH215337   3.372   0.973   2.448
 5131TIP3    H115338   3.290   0.969   2.498
 5131TIP3    H215339   3.366   0.900   2.386
 5132TIP3   OH215340   6.893   3.455   5.734
 5132TIP3    H115341   6.960   3.504   5.687
 5132TIP3    H215342   6.832   3.521   5.765
 5133TIP3   OH215343   4.220   1.310   0.474
 5133TIP3    H115344   4.264   1.226   0.489
 5133TIP3    H215345   4.142   1.288   0.423
 5134TIP3   OH215346   4.491   6.084   2.335
 5134TIP3    H115347   4.405   6.092   2.376
 5134TIP3    H215348   4.478   6.116   2.246
 5135TIP3   OH215349   4.085   3.187   4.167
 5135TIP3    H115350   4.072   3.113   4.227
 5135TIP3    H215351   4.174   3.175   4.134
 5136TIP3   OH215352   0.524   2.488   1.747
 5136TIP3    H115353   0.477   2.460   1.669
 5136TIP3    H215354   0.458   2.535   1.799
 5137TIP3   OH215355   6.074   6.495   3.330
 5137TIP3    H115356   6.137   6.442   3.281
 5137TIP3    H215357   6.090   6.470   3.422
 5138TIP3   OH215358   5.782   2.297   3.337
 5138TIP3    H115359   5.746   2.321   3.423
 5138TIP3    H215360   5.785   2.379   3.288
 5139TIP3   OH215361   7.443   2.793   4.878
 5139TIP3    H115362   7.366   2.849   4.882
 5139TIP3    H215363   7.422   2.718   4.934
 5140TIP3   OH215364   3.377   6.943   6.665
 5140TIP3    H115365   3.311   6.885   6.625
 5140TIP3    H215366   3.380   7.019   6.608
 5141TIP3   OH215367   7.166   1.823   4.867
 5141TIP3    H115368   7.259   1.808   4.850
 5141TIP3    H215369   7.156   1.814   4.961
 5142TIP3   OH215370   3.079   1.834   0.514
 5142TIP3    H115371   3.091   1.802   0.425
 5142TIP3    H215372   3.115   1.923   0.512
 5143TIP3   OH215373   0.910   4.066   6.399
 5143TIP3    H115374   0.857   4.007   6.452
 5143TIP3    H215375   0.903   4.031   6.310
 5144TIP3   OH215376   0.726   6.899   2.359
 5144TIP3    H115377   0.740   6.965   2.427
 5144TIP3    H215378   0.638   6.865   2.378
 5145TIP3   OH215379   7.687   5.000   0.544
 5145TIP3    H115380   7.700   4.935   0.475
 5145TIP3    H215381   7.763   4.990   0.601
 5146TIP3   OH215382   0.084   3.469   6.401
 5146TIP3    H115383   0.033   3.431   6.329
 5146TIP3    H215384   0.146   3.528   6.358
 5147TIP3   OH215385   2.715   3.300   2.850
 5147TIP3    H115386   2.723   3.386   2.808
 5147TIP3    H215387   2.796   3.255   2.828
 5148TIP3   OH215388   0.229   4.413   1.434
 5148TIP3    H115389   0.167   4.479   1.464
 5148TIP3    H215390   0.223   4.342   1.498
 5149TIP3   OH215391   3.623   6.864   0.011
 5149TIP3    H115392   3.708   6.869   0.054
 5149TIP3    H215393   3.567   6.923   0.061
 5150TIP3   OH215394   0.924   7.802   2.414
 5150TIP3    H115395   0.905   7.711   2.435
 5150TIP3    H215396   0.838   7.839   2.391
 5151TIP3   OH215397   0.927   5.038   4.980
 5151TIP3    H115398   0.914   5.119   5.029
 5151TIP3    H215399   0.941   4.971   5.048
 5152TIP3   OH215400   6.964   3.794   3.184
 5152TIP3    H115401   6.955   3.883   3.149
 5152TIP3    H215402   7.015   3.805   3.264
 5153TIP3   OH215403   1.611   6.606   1.860
 5153TIP3    H115404   1.624   6.672   1.792
 5153TIP3    H215405   1.686   6.618   1.919
 5154TIP3   OH215406   4.210   4.573   3.168
 5154TIP3    H115407   4.226   4.494   3.219
 5154TIP3    H215408   4.225   4.546   3.077
 5155TIP3   OH215409   5.780   1.401   4.293
 5155TIP3    H115410   5.696   1.365   4.320
 5155TIP3    H215411   5.771   1.417   4.199
 5156TIP3   OH215412   4.903   6.267   3.730
 5156TIP3    H115413   4.944   6.186   3.699
 5156TIP3    H215414   4.937   6.279   3.818
 5157TIP3   OH215415   7.839   7.520   4.903
 5157TIP3    H115416   7.822   7.427   4.885
 5157TIP3    H215417   7.935   7.526   4.904
 5158TIP3   OH215418   1.840   7.550   5.443
 5158TIP3    H115419   1.780   7.488   5.485
 5158TIP3    H215420   1.797   7.572   5.360
 5159TIP3   OH215421   0.710   3.563   1.597
 5159TIP3    H115422   0.754   3.556   1.513
 5159TIP3    H215423   0.680   3.654   1.601
 5160TIP3   OH215424   1.136   1.367   3.705
 5160TIP3    H115425   1.069   1.431   3.680
 5160TIP3    H215426   1.085   1.289   3.729
 5161TIP3   OH215427   0.851   6.334   1.848
 5161TIP3    H115428   0.878   6.422   1.823
 5161TIP3    H215429   0.765   6.323   1.808
 5162TIP3   OH215430   2.308   6.234   5.707
 5162TIP3    H115431   2.347   6.168   5.649
 5162TIP3    H215432   2.382   6.277   5.748
 5163TIP3   OH215433   3.269   4.647   0.849
 5163TIP3    H115434   3.235   4.703   0.779
 5163TIP3    H215435   3.231   4.684   0.929
 5164TIP3   OH215436   5.265   1.668   6.358
 5164TIP3    H115437   5.239   1.638   6.445
 5164TIP3    H215438   5.311   1.594   6.319
 5165TIP3   OH215439   1.466   0.606   5.521
 5165TIP3    H115440   1.456   0.669   5.593
 5165TIP3    H215441   1.380   0.605   5.479
 5166TIP3   OH215442   6.045   1.002   6.116
 5166TIP3    H115443   6.077   0.996   6.206
 5166TIP3    H215444   6.073   0.920   6.075
 5167TIP3   OH215445   7.361   2.071   6.044
 5167TIP3    H115446   7.395   2.160   6.042
 5167TIP3    H215447   7.335   2.057   6.135
 5168TIP3   OH215448   1.330   3.597   5.798
 5168TIP3    H115449   1.348   3.661   5.729
 5168TIP3    H215450   1.258   3.544   5.764
 5169TIP3   OH215451   1.796   4.019   3.269
 5169TIP3    H115452   1.702   4.002   3.268
 5169TIP3    H215453   1.804   4.114   3.266
 5170TIP3   OH215454   3.195   0.888   5.529
 5170TIP3    H115455   3.205   0.937   5.611
 5170TIP3    H215456   3.117   0.925   5.488
 5171TIP3   OH215457   6.884   1.256   0.499
 5171TIP3    H115458   6.908   1.167   0.472
 5171TIP3    H215459   6.789   1.259   0.489
 5172TIP3   OH215460   3.166   5.235   1.896
 5172TIP3    H115461   3.243   5.266   1.944
 5172TIP3    H215462   3.133   5.312   1.851
 5173TIP3   OH215463   3.440   2.795   3.754
 5173TIP3    H115464   3.519   2.849   3.749
 5173TIP3    H215465   3.368   2.857   3.743
 5174TIP3   OH215466   0.133   1.235   0.954
 5174TIP3    H115467   0.185   1.297   1.006
 5174TIP3    H215468   0.118   1.161   1.013
 5175TIP3   OH215469   3.473   0.774   4.841
 5175TIP3    H115470   3.386   0.790   4.875
 5175TIP3    H215471   3.473   0.681   4.818
 5176TIP3   OH215472   4.592   2.407   0.491
 5176TIP3    H115473   4.613   2.406   0.398
 5176TIP3    H215474   4.678   2.410   0.534
 5177TIP3   OH215475   5.373   4.660   0.306
 5177TIP3    H115476   5.301   4.717   0.334
 5177TIP3    H215477   5.446   4.720   0.289
 5178TIP3   OH215478   0.038   3.818   5.921
 5178TIP3    H115479  -0.004   3.903   5.906
 5178TIP3    H215480   0.107   3.814   5.855
 5179TIP3   OH215481   1.393   3.327   3.218
 5179TIP3    H115482   1.418   3.398   3.277
 5179TIP3    H215483   1.350   3.370   3.145
 5180TIP3   OH215484   1.081   6.708   3.340
 5180TIP3    H115485   1.043   6.685   3.425
 5180TIP3    H215486   1.007   6.707   3.279
 5181TIP3   OH215487   0.111   1.416   3.948
 5181TIP3    H115488   0.035   1.405   4.005
 5181TIP3    H215489   0.186   1.414   4.007
 5182TIP3   OH215490   1.928   2.232   6.173
 5182TIP3    H115491   1.837   2.217   6.198
 5182TIP3    H215492   1.923   2.267   6.084
 5183TIP3   OH215493   2.835   0.751   0.340
 5183TIP3    H115494   2.839   0.845   0.357
 5183TIP3    H215495   2.892   0.712   0.407
 5184TIP3   OH215496   5.459   4.860   5.382
 5184TIP3    H115497   5.499   4.782   5.421
 5184TIP3    H215498   5.420   4.907   5.456
 5185TIP3   OH215499   3.209   3.257   3.059
 5185TIP3    H115500   3.293   3.273   3.102
 5185TIP3    H215501   3.233   3.228   2.971
 5186TIP3   OH215502   5.193   3.166   1.384
 5186TIP3    H115503   5.225   3.221   1.455
 5186TIP3    H215504   5.155   3.090   1.427
 5187TIP3   OH215505   6.047   0.207   2.495
 5187TIP3    H115506   6.097   0.126   2.500
 5187TIP3    H215507   5.966   0.188   2.543
 5188TIP3   OH215508   6.308   6.926   6.206
 5188TIP3    H115509   6.305   6.955   6.297
 5188TIP3    H215510   6.367   6.988   6.163
 5189TIP3   OH215511   2.748   7.846   0.986
 5189TIP3    H115512   2.825   7.799   0.956
 5189TIP3    H215513   2.767   7.938   0.968
 5190TIP3   OH215514   1.037   1.228   1.289
 5190TIP3    H115515   0.986   1.165   1.340
 5190TIP3    H215516   0.986   1.310   1.295
 5191TIP3   OH215517   3.838   6.534   1.305
 5191TIP3    H115518   3.920   6.581   1.287
 5191TIP3    H215519   3.792   6.534   1.221
 5192TIP3   OH215520   0.418   1.056   2.347
 5192TIP3    H115521   0.406   1.150   2.351
 5192TIP3    H215522   0.430   1.029   2.438
 5193TIP3   OH215523   4.371   3.623   4.433
 5193TIP3    H115524   4.304   3.570   4.391
 5193TIP3    H215525   4.408   3.567   4.501
 5194TIP3   OH215526   6.216   6.953   0.652
 5194TIP3    H115527   6.224   7.048   0.643
 5194TIP3    H215528   6.304   6.923   0.673
 5195TIP3   OH215529   5.682   2.547   2.296
 5195TIP3    H115530   5.753   2.514   2.241
 5195TIP3    H215531   5.620   2.474   2.303
 5196TIP3   OH215532   2.599   3.833   3.358
 5196TIP3    H115533   2.503   3.836   3.357
 5196TIP3    H215534   2.624   3.909   3.409
 5197TIP3   OH215535   7.428   4.843   4.151
 5197TIP3    H115536   7.360   4.832   4.085
 5197TIP3    H215537   7.425   4.937   4.173
 5198TIP3   OH215538   1.163   1.737   4.411
 5198TIP3    H115539   1.125   1.664   4.363
 5198TIP3    H215540   1.159   1.811   4.351
 5199TIP3   OH215541   3.856   2.840   6.540
 5199TIP3    H115542   3.948   2.869   6.546
 5199TIP3    H215543   3.839   2.835   6.446
 5200TIP3   OH215544   0.984   4.634   0.473
 5200TIP3    H115545   1.026   4.684   0.543
 5200TIP3    H215546   0.948   4.557   0.518
 5201TIP3   OH215547   7.670   6.325   4.697
 5201TIP3    H115548   7.622   6.243   4.688
 5201TIP3    H215549   7.759   6.303   4.671
 5202TIP3   OH215550   7.374   1.333   1.857
 5202TIP3    H115551   7.470   1.329   1.863
 5202TIP3    H215552   7.344   1.310   1.945
 5203TIP3   OH215553   1.143   1.623   3.392
 5203TIP3    H115554   1.220   1.600   3.443
 5203TIP3    H215555   1.157   1.581   3.307
 5204TIP3   OH215556   2.484   2.175   2.791
 5204TIP3    H115557   2.560   2.219   2.827
 5204TIP3    H215558   2.519   2.115   2.726
 5205TIP3   OH215559   6.453   2.158   4.142
 5205TIP3    H115560   6.548   2.147   4.148
 5205TIP3    H215561   6.440   2.253   4.140
 5206TIP3   OH215562   7.210   5.167   3.203
 5206TIP3    H115563   7.277   5.108   3.237
 5206TIP3    H215564   7.259   5.240   3.165
 5207TIP3   OH215565   2.222   2.827   5.384
 5207TIP3    H115566   2.171   2.751   5.411
 5207TIP3    H215567   2.290   2.836   5.451
 5208TIP3   OH215568   6.500   3.119   1.329
 5208TIP3    H115569   6.477   3.193   1.384
 5208TIP3    H215570   6.596   3.120   1.325
 5209TIP3   OH215571   4.107   7.062   1.776
 5209TIP3    H115572   4.113   7.155   1.799
 5209TIP3    H215573   4.194   7.027   1.796
 5210TIP3   OH215574   4.885   6.727   5.182
 5210TIP3    H115575   4.919   6.809   5.217
 5210TIP3    H215576   4.830   6.692   5.253
 5211TIP3   OH215577   7.373   7.401   3.466
 5211TIP3    H115578   7.315   7.396   3.390
 5211TIP3    H215579   7.399   7.310   3.482
 5212TIP3   OH215580   5.997   7.082   4.468
 5212TIP3    H115581   6.031   7.048   4.551
 5212TIP3    H215582   5.903   7.062   4.471
 5213TIP3   OH215583   4.110   2.701   0.410
 5213TIP3    H115584   4.168   2.632   0.376
 5213TIP3    H215585   4.150   2.726   0.493
 5214TIP3   OH215586   5.850   2.017   5.894
 5214TIP3    H115587   5.769   1.997   5.846
 5214TIP3    H215588   5.904   2.064   5.831
 5215TIP3   OH215589   4.177   3.844   0.312
 5215TIP3    H115590   4.228   3.765   0.292
 5215TIP3    H215591   4.227   3.888   0.381
 5216TIP3   OH215592   4.758   0.837   5.889
 5216TIP3    H115593   4.694   0.785   5.842
 5216TIP3    H215594   4.765   0.919   5.840
 5217TIP3   OH215595   1.954   3.742   6.424
 5217TIP3    H115596   1.968   3.666   6.368
 5217TIP3    H215597   1.880   3.718   6.479
 5218TIP3   OH215598   7.959   3.986   4.363
 5218TIP3    H115599   7.933   3.981   4.455
 5218TIP3    H215600   7.887   3.946   4.315
 5219TIP3   OH215601   6.772   0.283   2.797
 5219TIP3    H115602   6.737   0.310   2.882
 5219TIP3    H215603   6.840   0.347   2.776
 5220TIP3   OH215604   5.316   2.596   0.300
 5220TIP3    H115605   5.240   2.598   0.242
 5220TIP3    H215606   5.387   2.565   0.245
 5221TIP3   OH215607   7.389   0.430   0.120
 5221TIP3    H115608   7.362   0.352   0.071
 5221TIP3    H215609   7.458   0.399   0.179
 5222TIP3   OH215610   6.946   1.655   2.149
 5222TIP3    H115611   6.910   1.603   2.221
 5222TIP3    H215612   7.018   1.603   2.115
 5223TIP3   OH215613   1.392   1.462   6.073
 5223TIP3    H115614   1.448   1.517   6.019
 5223TIP3    H215615   1.314   1.447   6.019
 5224TIP3   OH215616   1.750   7.798   2.774
 5224TIP3    H115617   1.825   7.790   2.716
 5224TIP3    H215618   1.722   7.889   2.763
 5225TIP3   OH215619   8.194   7.413   2.236
 5225TIP3    H115620   8.214   7.321   2.215
 5225TIP3    H215621   8.280   7.456   2.240
 5226TIP3   OH215622   0.882   0.110   1.995
 5226TIP3    H115623   0.920   0.128   1.909
 5226TIP3    H215624   0.848   0.195   2.024
 5227TIP3   OH215625   4.487   6.399   3.444
 5227TIP3    H115626   4.579   6.405   3.420
 5227TIP3    H215627   4.440   6.438   3.370
 5228TIP3   OH215628   2.072   4.404   1.141
 5228TIP3    H115629   2.102   4.417   1.231
 5228TIP3    H215630   2.008   4.333   1.147
 5229TIP3   OH215631   6.480   0.455   3.899
 5229TIP3    H115632   6.489   0.477   3.991
 5229TIP3    H215633   6.409   0.511   3.868
 5230TIP3   OH215634   0.668   5.963   1.198
 5230TIP3    H115635   0.698   5.918   1.119
 5230TIP3    H215636   0.606   6.029   1.166
 5231TIP3   OH215637   5.688   0.483   3.704
 5231TIP3    H115638   5.690   0.418   3.773
 5231TIP3    H215639   5.773   0.526   3.708
 5232TIP3   OH215640   1.914   5.452   5.225
 5232TIP3    H115641   1.972   5.470   5.151
 5232TIP3    H215642   1.969   5.463   5.302
 5233TIP3   OH215643   0.741   2.760   0.516
 5233TIP3    H115644   0.730   2.808   0.598
 5233TIP3    H215645   0.760   2.827   0.451
 5234TIP3   OH215646   3.365   3.603   4.931
 5234TIP3    H115647   3.287   3.551   4.947
 5234TIP3    H215648   3.435   3.555   4.975
 5235TIP3   OH215649   1.895   0.920   4.534
 5235TIP3    H115650   1.957   0.849   4.520
 5235TIP3    H215651   1.945   0.988   4.580
 5236TIP3   OH215652   1.591   7.784   6.259
 5236TIP3    H115653   1.676   7.745   6.239
 5236TIP3    H215654   1.594   7.871   6.220
 5237TIP3   OH215655   4.199   6.379   0.218
 5237TIP3    H115656   4.220   6.286   0.211
 5237TIP3    H215657   4.135   6.383   0.289
 5238TIP3   OH215658   2.762   2.906   5.734
 5238TIP3    H115659   2.716   2.822   5.736
 5238TIP3    H215660   2.784   2.919   5.641
 5239TIP3   OH215661   4.709   4.505   6.287
 5239TIP3    H115662   4.697   4.475   6.377
 5239TIP3    H215663   4.623   4.494   6.246
 5240TIP3   OH215664   4.284   6.247   2.696
 5240TIP3    H115665   4.235   6.285   2.769
 5240TIP3    H215666   4.331   6.173   2.735
 5241TIP3   OH215667   3.004   5.760   2.345
 5241TIP3    H115668   2.983   5.747   2.252
 5241TIP3    H215669   3.068   5.691   2.365
 5242TIP3   OH215670   2.655   1.953   6.469
 5242TIP3    H115671   2.624   1.926   6.555
 5242TIP3    H215672   2.630   2.046   6.463
 5243TIP3   OH215673   1.403   7.507   0.312
 5243TIP3    H115674   1.459   7.429   0.323
 5243TIP3    H215675   1.341   7.502   0.385
 5244TIP3   OH215676   7.925   0.849   5.215
 5244TIP3    H115677   8.005   0.802   5.238
 5244TIP3    H215678   7.934   0.869   5.122
 5245TIP3   OH215679   7.843   0.841   2.721
 5245TIP3    H115680   7.796   0.768   2.761
 5245TIP3    H215681   7.787   0.917   2.736
 5246TIP3   OH215682   2.392   4.164   2.118
 5246TIP3    H115683   2.330   4.237   2.110
 5246TIP3    H215684   2.380   4.113   2.038
 5247TIP3   OH215685   4.389   0.182   0.387
 5247TIP3    H115686   4.330   0.124   0.339
 5247TIP3    H215687   4.382   0.153   0.478
 5248TIP3   OH215688   0.792   1.125   4.695
 5248TIP3    H115689   0.760   1.054   4.640
 5248TIP3    H215690   0.840   1.182   4.635
 5249TIP3   OH215691   3.914   0.165   6.351
 5249TIP3    H115692   3.951   0.144   6.265
 5249TIP3    H215693   3.947   0.096   6.409
 5250TIP3   OH215694   7.884   7.258   4.750
 5250TIP3    H115695   7.959   7.302   4.711
 5250TIP3    H215696   7.862   7.189   4.688
 5251TIP3   OH215697   6.508   4.747   5.802
 5251TIP3    H115698   6.494   4.653   5.805
 5251TIP3    H215699   6.590   4.758   5.753
 5252TIP3   OH215700   6.924   5.142   3.938
 5252TIP3    H115701   6.835   5.170   3.961
 5252TIP3    H215702   6.915   5.050   3.914
 5253TIP3   OH215703   0.097   2.795   0.729
 5253TIP3    H115704   0.122   2.703   0.729
 5253TIP3    H215705   0.025   2.801   0.792
 5254TIP3   OH215706   0.893   7.362   3.096
 5254TIP3    H115707   0.975   7.338   3.053
 5254TIP3    H215708   0.891   7.457   3.093
 5255TIP3   OH215709   4.957   3.482   1.398
 5255TIP3    H115710   5.050   3.491   1.416
 5255TIP3    H215711   4.951   3.415   1.331
 5256TIP3   OH215712   3.511   3.089   1.838
 5256TIP3    H115713   3.446   3.148   1.876
 5256TIP3    H215714   3.556   3.142   1.772
 5257TIP3   OH215715   2.543   5.458   5.687
 5257TIP3    H115716   2.552   5.550   5.709
 5257TIP3    H215717   2.512   5.417   5.768
 5258TIP3   OH215718   6.520   5.007   1.133
 5258TIP3    H115719   6.517   4.924   1.086
 5258TIP3    H215720   6.438   5.009   1.184
 5259TIP3   OH215721   7.509   2.624   0.096
 5259TIP3    H115722   7.567   2.637   0.022
 5259TIP3    H215723   7.498   2.529   0.101
 5260TIP3   OH215724   4.975   2.241   5.369
 5260TIP3    H115725   5.064   2.271   5.351
 5260TIP3    H215726   4.974   2.227   5.464
 5261TIP3   OH215727   4.584   7.104   2.289
 5261TIP3    H115728   4.632   7.101   2.371
 5261TIP3    H215729   4.595   7.194   2.257
 5262TIP3   OH215730   5.250   4.779   4.694
 5262TIP3    H115731   5.324   4.718   4.683
 5262TIP3    H215732   5.200   4.744   4.767
 5263TIP3   OH215733   6.578   2.680   6.656
 5263TIP3    H115734   6.559   2.600   6.607
 5263TIP3    H215735   6.506   2.687   6.719
 5264TIP3   OH215736   3.286   1.134   4.040
 5264TIP3    H115737   3.234   1.160   4.116
 5264TIP3    H215738   3.330   1.214   4.012
 5265TIP3   OH215739   3.713   6.001   6.609
 5265TIP3    H115740   3.699   5.993   6.514
 5265TIP3    H215741   3.625   6.002   6.646
 5266TIP3   OH215742   3.842   5.274   3.197
 5266TIP3    H115743   3.891   5.248   3.119
 5266TIP3    H215744   3.902   5.256   3.270
 5267TIP3   OH215745   3.602   7.322   3.718
 5267TIP3    H115746   3.514   7.302   3.750
 5267TIP3    H215747   3.657   7.251   3.752
 5268TIP3   OH215748   0.164   4.847   5.315
 5268TIP3    H115749   0.132   4.837   5.225
 5268TIP3    H215750   0.254   4.815   5.312
 5269TIP3   OH215751   6.234   7.765   1.447
 5269TIP3    H115752   6.247   7.675   1.418
 5269TIP3    H215753   6.142   7.770   1.470
 5270TIP3   OH215754   1.403   5.217   6.043
 5270TIP3    H115755   1.490   5.190   6.074
 5270TIP3    H215756   1.397   5.183   5.954
 5271TIP3   OH215757   7.925   1.471   3.383
 5271TIP3    H115758   7.971   1.387   3.385
 5271TIP3    H215759   7.970   1.524   3.448
 5272TIP3   OH215760   7.385   2.735   3.735
 5272TIP3    H115761   7.295   2.767   3.732
 5272TIP3    H215762   7.436   2.801   3.688
 5273TIP3   OH215763   2.441   0.442   0.388
 5273TIP3    H115764   2.399   0.445   0.474
 5273TIP3    H215765   2.507   0.512   0.392
 5274TIP3   OH215766   7.020   6.114   2.184
 5274TIP3    H115767   6.927   6.098   2.172
 5274TIP3    H215768   7.063   6.033   2.156
 5275TIP3   OH215769   3.626   1.206   0.271
 5275TIP3    H115770   3.678   1.125   0.270
 5275TIP3    H215771   3.574   1.202   0.191
 5276TIP3   OH215772   3.151   5.649   0.111
 5276TIP3    H115773   3.123   5.655   0.019
 5276TIP3    H215774   3.220   5.583   0.110
 5277TIP3   OH215775   5.013   0.542   5.694
 5277TIP3    H115776   4.979   0.620   5.650
 5277TIP3    H215777   5.106   0.562   5.708
 5278TIP3   OH215778   2.616   7.699   3.237
 5278TIP3    H115779   2.536   7.663   3.274
 5278TIP3    H215780   2.596   7.713   3.145
 5279TIP3   OH215781   5.663   1.590   6.198
 5279TIP3    H115782   5.584   1.539   6.215
 5279TIP3    H215783   5.727   1.526   6.167
 5280TIP3   OH215784   4.973   7.212   1.374
 5280TIP3    H115785   4.929   7.136   1.337
 5280TIP3    H215786   5.052   7.176   1.415
 5281TIP3   OH215787   5.105   5.352   0.665
 5281TIP3    H115788   5.065   5.307   0.740
 5281TIP3    H215789   5.034   5.359   0.601
 5282TIP3   OH215790   3.747   0.732   1.014
 5282TIP3    H115791   3.772   0.668   1.081
 5282TIP3    H215792   3.670   0.775   1.050
 5283TIP3   OH215793   2.013   3.216   3.230
 5283TIP3    H115794   2.079   3.255   3.287
 5283TIP3    H215795   1.949   3.177   3.290
 5284TIP3   OH215796   0.168   3.743   4.268
 5284TIP3    H115797   0.232   3.675   4.289
 5284TIP3    H215798   0.144   3.780   4.354
 5285TIP3   OH215799   6.475   6.844   0.674
 5285TIP3    H115800   6.435   6.789   0.607
 5285TIP3    H215801   6.567   6.848   0.650
 5286TIP3   OH215802   1.050   0.309   6.536
 5286TIP3    H115803   0.959   0.338   6.537
 5286TIP3    H215804   1.100   0.386   6.512
 5287TIP3   OH215805   5.909   6.179   3.181
 5287TIP3    H115806   5.962   6.101   3.198
 5287TIP3    H215807   5.826   6.161   3.224
 5288TIP3   OH215808   0.385   6.637   3.981
 5288TIP3    H115809   0.311   6.690   4.009
 5288TIP3    H215810   0.413   6.676   3.898
 5289TIP3   OH215811   5.203   7.732   2.824
 5289TIP3    H115812   5.109   7.745   2.838
 5289TIP3    H215813   5.223   7.653   2.874
 5290TIP3   OH215814   4.355   3.417   3.439
 5290TIP3    H115815   4.415   3.372   3.380
 5290TIP3    H215816   4.269   3.379   3.419
 5291TIP3   OH215817   7.661   2.598   3.687
 5291TIP3    H115818   7.607   2.675   3.706
 5291TIP3    H215819   7.601   2.524   3.695
 5292TIP3   OH215820   7.210   6.543   0.131
 5292TIP3    H115821   7.153   6.555   0.054
 5292TIP3    H215822   7.238   6.451   0.125
 5293TIP3   OH215823   5.984   5.469   6.184
 5293TIP3    H115824   5.992   5.548   6.237
 5293TIP3    H215825   5.932   5.409   6.237
 5294TIP3   OH215826   3.568   1.301   4.804
 5294TIP3    H115827   3.502   1.335   4.864
 5294TIP3    H215828   3.542   1.211   4.787
 5295TIP3   OH215829   6.208   1.656   3.474
 5295TIP3    H115830   6.177   1.654   3.383
 5295TIP3    H215831   6.252   1.572   3.486
 5296TIP3   OH215832   1.009   4.824   4.360
 5296TIP3    H115833   0.937   4.761   4.355
 5296TIP3    H215834   1.084   4.778   4.323
 5297TIP3   OH215835   5.904   7.030   4.146
 5297TIP3    H115836   5.872   7.025   4.056
 5297TIP3    H215837   5.936   7.120   4.155
 5298TIP3   OH215838   3.000   0.685   0.549
 5298TIP3    H115839   2.934   0.739   0.593
 5298TIP3    H215840   3.083   0.717   0.583
 5299TIP3   OH215841   4.313   2.601   3.479
 5299TIP3    H115842   4.235   2.635   3.436
 5299TIP3    H215843   4.281   2.548   3.552
 5300TIP3   OH215844   3.965   5.384   5.285
 5300TIP3    H115845   4.058   5.395   5.265
 5300TIP3    H215846   3.945   5.456   5.345
 5301TIP3   OH215847   4.651   2.002   4.665
 5301TIP3    H115848   4.599   2.082   4.664
 5301TIP3    H215849   4.715   2.013   4.594
 5302TIP3   OH215850   7.491   7.060   0.179
 5302TIP3    H115851   7.431   7.102   0.240
 5302TIP3    H215852   7.435   7.011   0.119
 5303TIP3   OH215853   5.597   4.824   2.923
 5303TIP3    H115854   5.588   4.916   2.899
 5303TIP3    H215855   5.674   4.821   2.980
 5304TIP3   OH215856   1.123   4.789   1.444
 5304TIP3    H115857   1.182   4.859   1.469
 5304TIP3    H215858   1.037   4.817   1.476
 5305TIP3   OH215859   4.115   0.807   2.904
 5305TIP3    H115860   4.199   0.843   2.877
 5305TIP3    H215861   4.081   0.762   2.826
 5306TIP3   OH215862   3.041   5.828   3.365
 5306TIP3    H115863   3.060   5.737   3.386
 5306TIP3    H215864   2.947   5.830   3.349
 5307TIP3   OH215865   8.015   2.892   6.181
 5307TIP3    H115866   7.987   2.984   6.191
 5307TIP3    H215867   7.952   2.856   6.118
 5308TIP3   OH215868   3.367   1.453   5.753
 5308TIP3    H115869   3.431   1.512   5.793
 5308TIP3    H215870   3.418   1.377   5.725
 5309TIP3   OH215871   4.335   0.990   2.840
 5309TIP3    H115872   4.375   0.964   2.758
 5309TIP3    H215873   4.408   1.009   2.898
 5310TIP3   OH215874   2.470   7.662   4.067
 5310TIP3    H115875   2.544   7.668   4.006
 5310TIP3    H215876   2.460   7.568   4.083
 5311TIP3   OH215877   4.053   6.258   1.603
 5311TIP3    H115878   4.106   6.181   1.584
 5311TIP3    H215879   3.990   6.228   1.669
 5312TIP3   OH215880   0.919   6.474   5.961
 5312TIP3    H115881   0.992   6.534   5.941
 5312TIP3    H215882   0.846   6.509   5.910
 5313TIP3   OH215883   3.358   1.368   3.288
 5313TIP3    H115884   3.396   1.345   3.204
 5313TIP3    H215885   3.308   1.291   3.315
 5314TIP3   OH215886   1.055   7.682   3.403
 5314TIP3    H115887   0.972   7.699   3.359
 5314TIP3    H215888   1.036   7.611   3.464
 5315TIP3   OH215889   0.943   3.784   1.585
 5315TIP3    H115890   0.941   3.751   1.675
 5315TIP3    H215891   1.009   3.731   1.542
 5316TIP3   OH215892   4.949   5.689   5.601
 5316TIP3    H115893   4.862   5.696   5.562
 5316TIP3    H215894   5.005   5.659   5.529
 5317TIP3   OH215895   1.650   6.859   3.047
 5317TIP3    H115896   1.595   6.918   3.098
 5317TIP3    H215897   1.609   6.773   3.057
 5318TIP3   OH215898   6.735   7.271   3.102
 5318TIP3    H115899   6.717   7.262   3.009
 5318TIP3    H215900   6.654   7.308   3.138
 5319TIP3   OH215901   6.071   5.243   0.657
 5319TIP3    H115902   6.025   5.175   0.707
 5319TIP3    H215903   6.164   5.223   0.669
 5320TIP3   OH215904   5.320   3.268   1.593
 5320TIP3    H115905   5.404   3.224   1.582
 5320TIP3    H215906   5.326   3.311   1.678
 5321TIP3   OH215907   6.175   2.601   2.016
 5321TIP3    H115908   6.243   2.590   1.950
 5321TIP3    H215909   6.165   2.696   2.024
 5322TIP3   OH215910   2.015   6.532   5.551
 5322TIP3    H115911   1.976   6.567   5.470
 5322TIP3    H215912   1.959   6.565   5.621
 5323TIP3   OH215913   0.669   1.698   6.541
 5323TIP3    H115914   0.756   1.734   6.521
 5323TIP3    H215915   0.656   1.629   6.476
 5324TIP3   OH215916   2.779   4.035   3.228
 5324TIP3    H115917   2.715   4.095   3.265
 5324TIP3    H215918   2.746   3.948   3.251
 5325TIP3   OH215919   8.075   6.173   2.798
 5325TIP3    H115920   8.137   6.166   2.871
 5325TIP3    H215921   8.037   6.086   2.791
 5326TIP3   OH215922   1.352   1.057   2.228
 5326TIP3    H115923   1.257   1.067   2.237
 5326TIP3    H215924   1.387   1.086   2.312
 5327TIP3   OH215925   4.996   1.488   4.937
 5327TIP3    H115926   5.024   1.530   5.018
 5327TIP3    H215927   5.066   1.425   4.918
 5328TIP3   OH215928   8.017   7.765   0.272
 5328TIP3    H115929   8.047   7.752   0.362
 5328TIP3    H215930   8.015   7.677   0.234
 5329TIP3   OH215931   6.603   5.194   0.467
 5329TIP3    H115932   6.601   5.290   0.458
 5329TIP3    H215933   6.535   5.175   0.531
 5330TIP3   OH215934   7.435   0.918   5.627
 5330TIP3    H115935   7.359   0.860   5.635
 5330TIP3    H215936   7.503   0.863   5.587
 5331TIP3   OH215937   1.768   4.095   3.755
 5331TIP3    H115938   1.839   4.110   3.817
 5331TIP3    H215939   1.799   4.023   3.699
 5332TIP3   OH215940   3.729   6.989   4.821
 5332TIP3    H115941   3.754   7.072   4.782
 5332TIP3    H215942   3.702   7.011   4.910
 5333TIP3   OH215943   7.334   3.750   0.325
 5333TIP3    H115944   7.250   3.795   0.333
 5333TIP3    H215945   7.331   3.708   0.240
 5334TIP3   OH215946   8.074   0.462   2.840
 5334TIP3    H115947   7.994   0.451   2.891
 5334TIP3    H215948   8.048   0.442   2.750
 5335TIP3   OH215949   6.738   1.156   6.316
 5335TIP3    H115950   6.751   1.166   6.410
 5335TIP3    H215951   6.673   1.223   6.295
 5336TIP3   OH215952   0.766   2.425   5.503
 5336TIP3    H115953   0.774   2.434   5.598
 5336TIP3    H215954   0.855   2.439   5.470
 5337TIP3   OH215955   2.764   7.006   3.693
 5337TIP3    H115956   2.798   6.984   3.606
 5337TIP3    H215957   2.766   7.101   3.697
 5338TIP3   OH215958   5.175   7.072   4.377
 5338TIP3    H115959   5.135   7.034   4.456
 5338TIP3    H215960   5.164   7.167   4.387
 5339TIP3   OH215961   6.215   0.309   1.719
 5339TIP3    H115962   6.141   0.269   1.763
 5339TIP3    H215963   6.229   0.391   1.766
 5340TIP3   OH215964   6.126   2.307   5.910
 5340TIP3    H115965   6.078   2.242   5.962
 5340TIP3    H215966   6.117   2.278   5.820
 5341TIP3   OH215967   4.325   7.240   3.822
 5341TIP3    H115968   4.258   7.259   3.756
 5341TIP3    H215969   4.355   7.152   3.799
 5342TIP3   OH215970   5.879   6.639   3.215
 5342TIP3    H115971   5.939   6.569   3.238
 5342TIP3    H215972   5.801   6.595   3.182
 5343TIP3   OH215973   0.299   7.372   6.091
 5343TIP3    H115974   0.235   7.433   6.127
 5343TIP3    H215975   0.326   7.412   6.008
 5344TIP3   OH215976   0.525   6.204   2.757
 5344TIP3    H115977   0.469   6.160   2.693
 5344TIP3    H215978   0.467   6.262   2.805
 5345TIP3   OH215979   1.353   0.970   5.617
 5345TIP3    H115980   1.426   0.909   5.629
 5345TIP3    H215981   1.390   1.056   5.638
 5346TIP3   OH215982   3.657   5.783   0.876
 5346TIP3    H115983   3.618   5.781   0.963
 5346TIP3    H215984   3.608   5.850   0.829
 5347TIP3   OH215985   2.092   5.492   4.200
 5347TIP3    H115986   2.088   5.476   4.294
 5347TIP3    H215987   2.033   5.565   4.184
 5348TIP3   OH215988   0.555   4.428   3.521
 5348TIP3    H115989   0.491   4.498   3.509
 5348TIP3    H215990   0.530   4.386   3.603
 5349TIP3   OH215991   6.690   4.786   3.733
 5349TIP3    H115992   6.603   4.769   3.696
 5349TIP3    H215993   6.751   4.753   3.668
 5350TIP3   OH215994   0.130   4.223   0.997
 5350TIP3    H115995   0.087   4.195   0.916
 5350TIP3    H215996   0.058   4.242   1.057
 5351TIP3   OH215997   3.768   1.715   1.066
 5351TIP3    H115998   3.717   1.680   0.992
 5351TIP3    H215999   3.713   1.696   1.142
 5352TIP3   OH216000   6.552   2.286   4.917
 5352TIP3    H116001   6.499   2.363   4.896
 5352TIP3    H216002   6.631   2.321   4.957
 5353TIP3   OH216003   7.765   7.123   5.873
 5353TIP3    H116004   7.794   7.102   5.785
 5353TIP3    H216005   7.798   7.212   5.889
 5354TIP3   OH216006   0.289   4.397   4.757
 5354TIP3    H116007   0.325   4.310   4.776
 5354TIP3    H216008   0.199   4.393   4.790
 5355TIP3   OH216009   7.537   0.579   1.156
 5355TIP3    H116010   7.443   0.588   1.173
 5355TIP3    H216011   7.542   0.526   1.076
 5356TIP3   OH216012   2.005   1.952   6.131
 5356TIP3    H116013   1.989   2.047   6.131
 5356TIP3    H216014   2.083   1.941   6.076
 5357TIP3   OH216015   1.551   5.970   2.928
 5357TIP3    H116016   1.532   6.031   2.999
 5357TIP3    H216017   1.572   6.026   2.853
 5358TIP3   OH216018   2.124   0.655   3.068
 5358TIP3    H116019   2.114   0.563   3.046
 5358TIP3    H216020   2.205   0.681   3.024
 5359TIP3   OH216021   3.610   0.655   4.576
 5359TIP3    H116022   3.546   0.694   4.516
 5359TIP3    H216023   3.556   0.610   4.642
 5360TIP3   OH216024   2.369   3.473   0.352
 5360TIP3    H116025   2.442   3.440   0.300
 5360TIP3    H216026   2.333   3.546   0.300
 5361TIP3   OH216027   1.219   1.000   3.780
 5361TIP3    H116028   1.165   1.033   3.708
 5361TIP3    H216029   1.157   0.951   3.835
 5362TIP3   OH216030   6.870   2.018   4.026
 5362TIP3    H116031   6.945   1.994   4.080
 5362TIP3    H216032   6.895   1.994   3.937
 5363TIP3   OH216033   0.488   3.723   6.014
 5363TIP3    H116034   0.548   3.673   6.069
 5363TIP3    H216035   0.499   3.685   5.927
 5364TIP3   OH216036   0.961   2.616   5.269
 5364TIP3    H116037   0.976   2.631   5.176
 5364TIP3    H216038   0.879   2.567   5.273
 5365TIP3   OH216039   3.324   2.603   1.286
 5365TIP3    H116040   3.415   2.576   1.271
 5365TIP3    H216041   3.321   2.694   1.256
 5366TIP3   OH216042   6.999   0.758   1.303
 5366TIP3    H116043   6.944   0.703   1.248
 5366TIP3    H216044   6.999   0.714   1.388
 5367TIP3   OH216045   3.221   7.239   5.439
 5367TIP3    H116046   3.258   7.227   5.526
 5367TIP3    H216047   3.128   7.219   5.449
 5368TIP3   OH216048   4.833   4.094   4.673
 5368TIP3    H116049   4.740   4.100   4.694
 5368TIP3    H216050   4.877   4.097   4.758
 5369TIP3   OH216051   4.745   5.428   2.303
 5369TIP3    H116052   4.828   5.444   2.258
 5369TIP3    H216053   4.707   5.353   2.258
 5370TIP3   OH216054   1.479   0.811   3.524
 5370TIP3    H116055   1.424   0.852   3.458
 5370TIP3    H216056   1.554   0.778   3.476
 5371TIP3   OH216057   5.719   3.772   5.404
 5371TIP3    H116058   5.652   3.796   5.468
 5371TIP3    H216059   5.696   3.684   5.376
 5372TIP3   OH216060   6.953   6.043   4.528
 5372TIP3    H116061   6.907   5.965   4.498
 5372TIP3    H216062   7.029   6.009   4.576
 5373TIP3   OH216063   3.756   4.103   3.862
 5373TIP3    H116064   3.835   4.051   3.873
 5373TIP3    H216065   3.764   4.141   3.775
 5374TIP3   OH216066   1.997   0.752   1.819
 5374TIP3    H116067   1.947   0.730   1.741
 5374TIP3    H216068   2.077   0.700   1.811
 5375TIP3   OH216069   1.799   4.942   3.639
 5375TIP3    H116070   1.704   4.947   3.632
 5375TIP3    H216071   1.815   4.865   3.694
 5376TIP3   OH216072   7.370   2.969   6.415
 5376TIP3    H116073   7.332   2.959   6.501
 5376TIP3    H216074   7.437   3.037   6.426
 5377TIP3   OH216075   1.151   2.706   0.670
 5377TIP3    H116076   1.103   2.762   0.609
 5377TIP3    H216077   1.165   2.760   0.747
 5378TIP3   OH216078   4.477   7.031   4.212
 5378TIP3    H116079   4.527   6.998   4.137
 5378TIP3    H216080   4.408   7.085   4.173
 5379TIP3   OH216081   0.898   3.856   3.769
 5379TIP3    H116082   0.907   3.891   3.680
 5379TIP3    H216083   0.891   3.934   3.824
 5380TIP3   OH216084   7.099   2.683   6.688
 5380TIP3    H116085   7.069   2.718   6.604
 5380TIP3    H216086   7.055   2.738   6.754
 5381TIP3   OH216087   1.549   1.518   1.848
 5381TIP3    H116088   1.625   1.470   1.882
 5381TIP3    H216089   1.482   1.507   1.915
 5382TIP3   OH216090   7.324   3.297   6.148
 5382TIP3    H116091   7.388   3.305   6.077
 5382TIP3    H216092   7.239   3.306   6.105
 5383TIP3   OH216093   3.337   4.702   5.178
 5383TIP3    H116094   3.274   4.731   5.112
 5383TIP3    H216095   3.390   4.779   5.196
 5384TIP3   OH216096   2.485   2.720   6.462
 5384TIP3    H116097   2.516   2.650   6.518
 5384TIP3    H216098   2.392   2.729   6.483
 5385TIP3   OH216099   1.785   1.532   1.471
 5385TIP3    H116100   1.851   1.466   1.494
 5385TIP3    H216101   1.799   1.603   1.534
 5386TIP3   OH216102   1.155   6.619   5.987
 5386TIP3    H116103   1.190   6.658   6.067
 5386TIP3    H216104   1.224   6.558   5.959
 5387TIP3   OH216105   0.838   3.513   2.803
 5387TIP3    H116106   0.811   3.424   2.784
 5387TIP3    H216107   0.761   3.566   2.784
 5388TIP3   OH216108   4.033   0.407   6.141
 5388TIP3    H116109   3.943   0.375   6.151
 5388TIP3    H216110   4.087   0.329   6.155
 5389TIP3   OH216111   3.860   2.035   3.632
 5389TIP3    H116112   3.783   2.023   3.688
 5389TIP3    H216113   3.828   2.020   3.544
 5390TIP3   OH216114   5.794   4.553   1.193
 5390TIP3    H116115   5.874   4.502   1.178
 5390TIP3    H216116   5.809   4.598   1.276
 5391TIP3   OH216117   7.206   0.337   2.661
 5391TIP3    H116118   7.233   0.316   2.750
 5391TIP3    H216119   7.179   0.429   2.665
 5392TIP3   OH216120   5.528   1.227   2.606
 5392TIP3    H116121   5.564   1.281   2.676
 5392TIP3    H216122   5.433   1.230   2.619
 5393TIP3   OH216123   2.995  -0.007   2.737
 5393TIP3    H116124   2.961   0.038   2.814
 5393TIP3    H216125   2.955   0.039   2.663
 5394TIP3   OH216126   5.245   4.942   0.031
 5394TIP3    H116127   5.166   4.963  -0.019
 5394TIP3    H216128   5.257   5.016   0.090
 5395TIP3   OH216129   5.951   2.925   5.021
 5395TIP3    H116130   5.938   2.896   5.111
 5395TIP3    H216131   5.982   3.015   5.030
 5396TIP3   OH216132   1.555   5.131   6.543
 5396TIP3    H116133   1.574   5.213   6.590
 5396TIP3    H216134   1.570   5.063   6.608
 5397TIP3   OH216135   5.429   6.188   0.418
 5397TIP3    H116136   5.384   6.106   0.441
 5397TIP3    H216137   5.369   6.232   0.358
 5398TIP3   OH216138   5.154   1.501   2.461
 5398TIP3    H116139   5.153   1.541   2.374
 5398TIP3    H216140   5.069   1.459   2.470
 5399TIP3   OH216141   2.941   2.598   5.716
 5399TIP3    H116142   3.011   2.555   5.667
 5399TIP3    H216143   2.987   2.651   5.781
 5400TIP3   OH216144   1.759   4.562   0.834
 5400TIP3    H116145   1.787   4.616   0.760
 5400TIP3    H216146   1.721   4.624   0.896
 5401TIP3   OH216147   7.159   6.492   1.945
 5401TIP3    H116148   7.180   6.441   1.867
 5401TIP3    H216149   7.186   6.436   2.019
 5402TIP3   OH216150   1.043   4.179   1.932
 5402TIP3    H116151   1.013   4.269   1.915
 5402TIP3    H216152   1.116   4.189   1.992
 5403TIP3   OH216153   0.111   6.743   3.344
 5403TIP3    H116154   0.164   6.678   3.390
 5403TIP3    H216155   0.030   6.749   3.395
 5404TIP3   OH216156   7.749   3.041   2.172
 5404TIP3    H116157   7.735   3.053   2.266
 5404TIP3    H216158   7.698   2.963   2.149
 5405TIP3   OH216159   5.716   7.443   1.481
 5405TIP3    H116160   5.685   7.530   1.506
 5405TIP3    H216161   5.726   7.447   1.386
 5406TIP3   OH216162   3.715   1.849   5.897
 5406TIP3    H116163   3.667   1.767   5.885
 5406TIP3    H216164   3.806   1.827   5.873
 5407TIP3   OH216165   3.528   1.081   6.651
 5407TIP3    H116166   3.558   1.140   6.720
 5407TIP3    H216167   3.433   1.094   6.648
 5408TIP3   OH216168   7.098   3.457   3.014
 5408TIP3    H116169   7.003   3.465   3.009
 5408TIP3    H216170   7.127   3.536   3.060
 5409TIP3   OH216171   0.842   5.620   2.299
 5409TIP3    H116172   0.815   5.703   2.338
 5409TIP3    H216173   0.867   5.642   2.209
 5410TIP3   OH216174   4.449   2.568   6.582
 5410TIP3    H116175   4.538   2.588   6.556
 5410TIP3    H216176   4.414   2.515   6.511
 5411TIP3   OH216177   3.369   1.390   2.516
 5411TIP3    H116178   3.348   1.327   2.584
 5411TIP3    H216179   3.459   1.417   2.534
 5412TIP3   OH216180   6.762   2.247   3.599
 5412TIP3    H116181   6.729   2.298   3.525
 5412TIP3    H216182   6.840   2.295   3.628
 5413TIP3   OH216183   2.609   1.325   2.193
 5413TIP3    H116184   2.597   1.272   2.113
 5413TIP3    H216185   2.521   1.332   2.229
 5414TIP3   OH216186   1.937   4.717   5.620
 5414TIP3    H116187   1.844   4.711   5.599
 5414TIP3    H216188   1.982   4.672   5.548
 5415TIP3   OH216189   0.447   3.412   3.030
 5415TIP3    H116190   0.402   3.488   2.995
 5415TIP3    H216191   0.398   3.337   2.996
 5416TIP3   OH216192   1.197   7.162   3.645
 5416TIP3    H116193   1.143   7.241   3.649
 5416TIP3    H216194   1.177   7.123   3.560
 5417TIP3   OH216195   2.390   3.730   4.880
 5417TIP3    H116196   2.359   3.639   4.872
 5417TIP3    H216197   2.477   3.729   4.840
 5418TIP3   OH216198   1.736   6.697   6.201
 5418TIP3    H116199   1.684   6.777   6.190
 5418TIP3    H216200   1.813   6.725   6.252
 5419TIP3   OH216201   4.796   6.150   3.377
 5419TIP3    H116202   4.851   6.097   3.319
 5419TIP3    H216203   4.829   6.239   3.368
 5420TIP3   OH216204   2.941   2.100   2.968
 5420TIP3    H116205   2.957   2.038   3.039
 5420TIP3    H216206   2.950   2.049   2.888
 5421TIP3   OH216207   6.570   7.623   4.749
 5421TIP3    H116208   6.578   7.709   4.707
 5421TIP3    H216209   6.621   7.632   4.830
 5422TIP3   OH216210   8.200   6.162   6.076
 5422TIP3    H116211   8.187   6.215   6.154
 5422TIP3    H216212   8.293   6.172   6.055
 5423TIP3   OH216213   0.951   6.084   6.179
 5423TIP3    H116214   0.879   6.145   6.164
 5423TIP3    H216215   0.934   6.011   6.119
 5424TIP3   OH216216   6.471   3.977   1.382
 5424TIP3    H116217   6.520   4.022   1.313
 5424TIP3    H216218   6.468   4.040   1.454
 5425TIP3   OH216219   6.242   3.373   3.334
 5425TIP3    H116220   6.209   3.323   3.260
 5425TIP3    H216221   6.320   3.417   3.300
 5426TIP3   OH216222   2.880   6.495   4.043
 5426TIP3    H116223   2.857   6.487   3.951
 5426TIP3    H216224   2.916   6.583   4.052
 5427TIP3   OH216225   7.892   1.544   4.327
 5427TIP3    H116226   7.959   1.500   4.276
 5427TIP3    H216227   7.889   1.633   4.291
 5428TIP3   OH216228   2.731   5.510   2.866
 5428TIP3    H116229   2.788   5.435   2.851
 5428TIP3    H216230   2.692   5.493   2.952
 5429TIP3   OH216231   1.109   4.807   0.669
 5429TIP3    H116232   1.066   4.878   0.717
 5429TIP3    H216233   1.198   4.840   0.654
 5430TIP3   OH216234   1.721   2.322   2.867
 5430TIP3    H116235   1.632   2.295   2.890
 5430TIP3    H216236   1.734   2.404   2.915
 5431TIP3   OH216237   0.528   7.119   2.102
 5431TIP3    H116238   0.504   7.123   2.195
 5431TIP3    H216239   0.623   7.122   2.102
 5432TIP3   OH216240   7.025   4.759   6.543
 5432TIP3    H116241   7.105   4.792   6.502
 5432TIP3    H216242   6.979   4.838   6.572
 5433TIP3   OH216243   1.597   0.385   2.982
 5433TIP3    H116244   1.621   0.474   2.957
 5433TIP3    H216245   1.675   0.332   2.962
 5434TIP3   OH216246   1.768   2.686   3.623
 5434TIP3    H116247   1.855   2.703   3.658
 5434TIP3    H216248   1.766   2.732   3.539
 5435TIP3   OH216249   3.334   4.607   3.894
 5435TIP3    H116250   3.411   4.551   3.883
 5435TIP3    H216251   3.264   4.561   3.848
 5436TIP3   OH216252   1.749   5.180   2.921
 5436TIP3    H116253   1.826   5.199   2.868
 5436TIP3    H216254   1.776   5.203   3.011
 5437TIP3   OH216255   7.823   0.705   6.432
 5437TIP3    H116256   7.761   0.663   6.491
 5437TIP3    H216257   7.903   0.715   6.483
 5438TIP3   OH216258   0.743   7.344   0.756
 5438TIP3    H116259   0.740   7.405   0.682
 5438TIP3    H216260   0.770   7.398   0.830
 5439TIP3   OH216261   0.254   0.809   4.172
 5439TIP3    H116262   0.303   0.890   4.160
 5439TIP3    H216263   0.220   0.788   4.085
 5440TIP3   OH216264   1.562   6.909   0.575
 5440TIP3    H116265   1.497   6.977   0.557
 5440TIP3    H216266   1.646   6.956   0.571
 5441TIP3   OH216267   1.365   3.976   0.234
 5441TIP3    H116268   1.399   3.911   0.295
 5441TIP3    H216269   1.271   3.963   0.233
 5442TIP3   OH216270   2.984   1.495   3.129
 5442TIP3    H116271   2.910   1.435   3.136
 5442TIP3    H216272   3.030   1.487   3.212
 5443TIP3   OH216273   7.658   0.147   4.873
 5443TIP3    H116274   7.736   0.193   4.907
 5443TIP3    H216275   7.687   0.109   4.790
 5444TIP3   OH216276   1.760   6.925   6.595
 5444TIP3    H116277   1.773   6.902   6.687
 5444TIP3    H216278   1.670   6.899   6.577
 5445TIP3   OH216279   5.833   2.208   2.839
 5445TIP3    H116280   5.854   2.175   2.752
 5445TIP3    H216281   5.913   2.251   2.869
 5446TIP3   OH216282   6.257   2.889   1.018
 5446TIP3    H116283   6.278   2.807   1.063
 5446TIP3    H216284   6.292   2.877   0.930
 5447TIP3   OH216285   1.390   1.945   0.075
 5447TIP3    H116286   1.430   1.917  -0.008
 5447TIP3    H216287   1.305   1.982   0.050
 5448TIP3   OH216288   6.301   4.035   6.052
 5448TIP3    H116289   6.355   4.026   5.973
 5448TIP3    H216290   6.236   4.101   6.029
 5449TIP3   OH216291   2.154   0.381   2.223
 5449TIP3    H116292   2.178   0.289   2.212
 5449TIP3    H216293   2.065   0.387   2.189
 5450TIP3   OH216294   4.166   1.343   5.897
 5450TIP3    H116295   4.124   1.336   5.812
 5450TIP3    H216296   4.142   1.263   5.943
 5451TIP3   OH216297   0.319   5.707   3.115
 5451TIP3    H116298   0.410   5.679   3.116
 5451TIP3    H216299   0.284   5.671   3.033
 5452TIP3   OH216300   7.599   5.687   4.760
 5452TIP3    H116301   7.643   5.746   4.821
 5452TIP3    H216302   7.666   5.622   4.737
 5453TIP3   OH216303   1.210   7.510   1.255
 5453TIP3    H116304   1.265   7.481   1.328
 5453TIP3    H216305   1.246   7.465   1.179
 5454TIP3   OH216306   6.434   0.920   1.516
 5454TIP3    H116307   6.416   1.014   1.509
 5454TIP3    H216308   6.478   0.898   1.434
 5455TIP3   OH216309   1.677   7.355   5.545
 5455TIP3    H116310   1.738   7.314   5.606
 5455TIP3    H216311   1.640   7.282   5.496
 5456TIP3   OH216312   2.956   7.670   0.917
 5456TIP3    H116313   2.998   7.713   0.843
 5456TIP3    H216314   2.984   7.721   0.993
 5457TIP3   OH216315   3.492   3.739   1.206
 5457TIP3    H116316   3.508   3.832   1.187
 5457TIP3    H216317   3.578   3.705   1.228
 5458TIP3   OH216318   7.925   7.280   3.587
 5458TIP3    H116319   7.936   7.191   3.553
 5458TIP3    H216320   7.841   7.278   3.633
 5459TIP3   OH216321   5.250   1.095   2.116
 5459TIP3    H116322   5.180   1.146   2.157
 5459TIP3    H216323   5.323   1.156   2.107
 5460TIP3   OH216324   7.259   2.292   6.666
 5460TIP3    H116325   7.212   2.210   6.650
 5460TIP3    H216326   7.326   2.294   6.597
 5461TIP3   OH216327   3.142   2.995   3.150
 5461TIP3    H116328   3.232   2.973   3.172
 5461TIP3    H216329   3.143   3.089   3.134
 5462TIP3   OH216330   0.813   7.621   6.800
 5462TIP3    H116331   0.735   7.658   6.840
 5462TIP3    H216332   0.790   7.531   6.781
 5463TIP3   OH216333   4.926   1.026   4.499
 5463TIP3    H116334   4.996   1.075   4.456
 5463TIP3    H216335   4.874   1.094   4.543
 5464TIP3   OH216336   2.385   6.047   5.533
 5464TIP3    H116337   2.332   5.968   5.546
 5464TIP3    H216338   2.350   6.085   5.452
 5465TIP3   OH216339   7.477   1.649   5.752
 5465TIP3    H116340   7.503   1.715   5.815
 5465TIP3    H216341   7.382   1.658   5.745
 5466TIP3   OH216342   0.433   3.673   6.559
 5466TIP3    H116343   0.442   3.648   6.467
 5466TIP3    H216344   0.425   3.769   6.557
 5467TIP3   OH216345   0.211   5.703   1.865
 5467TIP3    H116346   0.265   5.671   1.937
 5467TIP3    H216347   0.151   5.631   1.846
 5468TIP3   OH216348   7.633   6.422   1.988
 5468TIP3    H116349   7.622   6.499   1.932
 5468TIP3    H216350   7.591   6.446   2.071
 5469TIP3   OH216351   0.924   6.354   3.993
 5469TIP3    H116352   0.973   6.347   4.075
 5469TIP3    H216353   0.833   6.366   4.021
 5470TIP3   OH216354   5.921   2.519   2.153
 5470TIP3    H116355   5.982   2.550   2.087
 5470TIP3    H216356   5.957   2.551   2.236
 5471TIP3   OH216357   0.723   6.351   6.099
 5471TIP3    H116358   0.682   6.416   6.156
 5471TIP3    H216359   0.795   6.398   6.057
 5472TIP3   OH216360   7.652   6.233   2.301
 5472TIP3    H116361   7.668   6.303   2.238
 5472TIP3    H216362   7.563   6.248   2.331
 5473TIP3   OH216363   2.825   3.220   1.496
 5473TIP3    H116364   2.884   3.278   1.544
 5473TIP3    H216365   2.855   3.132   1.518
 5474TIP3   OH216366   7.582   2.853   6.088
 5474TIP3    H116367   7.612   2.905   6.162
 5474TIP3    H216368   7.509   2.902   6.051
 5475TIP3   OH216369   6.853   4.178   6.837
 5475TIP3    H116370   6.849   4.183   6.742
 5475TIP3    H216371   6.829   4.087   6.857
 5476TIP3   OH216372   2.435   2.229   0.415
 5476TIP3    H116373   2.512   2.275   0.381
 5476TIP3    H216374   2.361   2.283   0.386
 5477TIP3   OH216375   5.865   4.606   0.691
 5477TIP3    H116376   5.937   4.625   0.631
 5477TIP3    H216377   5.906   4.558   0.763
 5478TIP3   OH216378   5.269   2.837   6.513
 5478TIP3    H116379   5.294   2.880   6.595
 5478TIP3    H216380   5.349   2.792   6.484
 5479TIP3   OH216381   5.097   4.240   4.589
 5479TIP3    H116382   5.153   4.166   4.611
 5479TIP3    H216383   5.009   4.211   4.611
 5480TIP3   OH216384   1.780   0.017   2.900
 5480TIP3    H116385   1.817   0.104   2.891
 5480TIP3    H216386   1.687   0.029   2.879
 5481TIP3   OH216387   2.244   3.555   3.354
 5481TIP3    H116388   2.287   3.634   3.322
 5481TIP3    H216389   2.154   3.582   3.373
 5482TIP3   OH216390   4.009   5.191   5.809
 5482TIP3    H116391   4.005   5.146   5.725
 5482TIP3    H216392   3.958   5.271   5.795
 5483TIP3   OH216393   3.574   7.433   1.472
 5483TIP3    H116394   3.589   7.523   1.443
 5483TIP3    H216395   3.519   7.442   1.549
 5484TIP3   OH216396   5.991   0.220   3.788
 5484TIP3    H116397   5.961   0.273   3.714
 5484TIP3    H216398   5.969   0.272   3.865
 5485TIP3   OH216399   5.948   6.358   3.853
 5485TIP3    H116400   5.935   6.272   3.813
 5485TIP3    H216401   5.860   6.389   3.874
 5486TIP3   OH216402   5.691   4.049   1.292
 5486TIP3    H116403   5.629   4.009   1.354
 5486TIP3    H216404   5.637   4.075   1.218
 5487TIP3   OH216405   0.416   1.953   6.090
 5487TIP3    H116406   0.381   1.878   6.138
 5487TIP3    H216407   0.498   1.921   6.052
 5488TIP3   OH216408   8.327   1.825   2.101
 5488TIP3    H116409   8.244   1.778   2.098
 5488TIP3    H216410   8.310   1.900   2.157
 5489TIP3   OH216411   1.537   7.402   2.333
 5489TIP3    H116412   1.549   7.472   2.396
 5489TIP3    H216413   1.487   7.335   2.379
 5490TIP3   OH216414   1.866   5.427   1.094
 5490TIP3    H116415   1.836   5.404   1.006
 5490TIP3    H216416   1.785   5.431   1.146
 5491TIP3   OH216417   5.343   7.420   2.734
 5491TIP3    H116418   5.293   7.441   2.813
 5491TIP3    H216419   5.373   7.330   2.748
 5492TIP3   OH216420   0.708   0.558   1.264
 5492TIP3    H116421   0.663   0.605   1.193
 5492TIP3    H216422   0.753   0.486   1.219
 5493TIP3   OH216423   7.919   3.572   0.800
 5493TIP3    H116424   7.972   3.496   0.774
 5493TIP3    H216425   7.838   3.562   0.750
 5494TIP3   OH216426   7.797   3.392   2.029
 5494TIP3    H116427   7.886   3.422   2.043
 5494TIP3    H216428   7.791   3.375   1.935
 5495TIP3   OH216429   6.158   4.840   4.674
 5495TIP3    H116430   6.191   4.924   4.706
 5495TIP3    H216431   6.118   4.799   4.751
 5496TIP3   OH216432   7.327   7.074   5.885
 5496TIP3    H116433   7.401   7.014   5.894
 5496TIP3    H216434   7.365   7.161   5.893
 5497TIP3   OH216435   0.760   2.431   1.914
 5497TIP3    H116436   0.685   2.472   1.872
 5497TIP3    H216437   0.729   2.343   1.936
 5498TIP3   OH216438   5.664   2.243   5.024
 5498TIP3    H116439   5.715   2.305   5.076
 5498TIP3    H216440   5.701   2.249   4.936
 5499TIP3   OH216441   2.802   3.946   4.884
 5499TIP3    H116442   2.819   3.997   4.963
 5499TIP3    H216443   2.875   3.966   4.826
 5500TIP3   OH216444   4.650   0.108   4.568
 5500TIP3    H116445   4.714   0.102   4.497
 5500TIP3    H216446   4.633   0.017   4.592
 5501TIP3   OH216447   6.462   1.342   0.766
 5501TIP3    H116448   6.404   1.265   0.768
 5501TIP3    H216449   6.403   1.415   0.748
 5502TIP3   OH216450   4.682   3.215   4.054
 5502TIP3    H116451   4.625   3.289   4.036
 5502TIP3    H216452   4.623   3.143   4.074
 5503TIP3   OH216453   4.570   7.532   6.532
 5503TIP3    H116454   4.631   7.544   6.459
 5503TIP3    H216455   4.591   7.603   6.593
 5504TIP3   OH216456   5.205   5.715   2.205
 5504TIP3    H116457   5.261   5.646   2.169
 5504TIP3    H216458   5.245   5.796   2.175
 5505TIP3   OH216459   4.928   3.514   5.137
 5505TIP3    H116460   4.955   3.424   5.119
 5505TIP3    H216461   4.926   3.521   5.232
 5506TIP3   OH216462   2.377   4.346   6.321
 5506TIP3    H116463   2.424   4.269   6.288
 5506TIP3    H216464   2.442   4.416   6.321
 5507TIP3   OH216465   2.942   4.131   0.652
 5507TIP3    H116466   2.981   4.149   0.738
 5507TIP3    H216467   2.885   4.207   0.635
 5508TIP3   OH216468   7.684   3.582   4.304
 5508TIP3    H116469   7.751   3.608   4.368
 5508TIP3    H216470   7.691   3.647   4.234
 5509TIP3   OH216471   7.988   5.745   4.135
 5509TIP3    H116472   8.018   5.835   4.146
 5509TIP3    H216473   8.006   5.704   4.220
 5510TIP3   OH216474   7.479   2.742   5.254
 5510TIP3    H116475   7.472   2.783   5.340
 5510TIP3    H216476   7.546   2.794   5.208
 5511TIP3   OH216477   6.080   6.470   0.050
 5511TIP3    H116478   6.102   6.513   0.133
 5511TIP3    H216479   6.138   6.395   0.046
 5512TIP3   OH216480   6.509   0.319   1.011
 5512TIP3    H116481   6.559   0.401   1.006
 5512TIP3    H216482   6.487   0.299   0.920
 5513TIP3   OH216483   2.918   3.742   1.603
 5513TIP3    H116484   2.921   3.830   1.567
 5513TIP3    H216485   3.004   3.729   1.644
 5514TIP3   OH216486   0.962   1.300   5.683
 5514TIP3    H116487   1.015   1.349   5.621
 5514TIP3    H216488   0.925   1.228   5.632
 5515TIP3   OH216489   5.408   1.002   1.506
 5515TIP3    H116490   5.341   1.066   1.528
 5515TIP3    H216491   5.362   0.934   1.457
 5516TIP3   OH216492   1.079   2.585   0.936
 5516TIP3    H116493   1.146   2.528   0.974
 5516TIP3    H216494   1.096   2.582   0.842
 5517TIP3   OH216495   7.549   2.271   1.035
 5517TIP3    H116496   7.575   2.214   1.108
 5517TIP3    H216497   7.628   2.278   0.981
 5518TIP3   OH216498   7.361   6.244   6.831
 5518TIP3    H116499   7.444   6.218   6.790
 5518TIP3    H216500   7.303   6.262   6.757
 5519TIP3   OH216501   6.345   0.835   3.647
 5519TIP3    H116502   6.320   0.925   3.665
 5519TIP3    H216503   6.277   0.782   3.688
 5520TIP3   OH216504   7.661   5.419   4.562
 5520TIP3    H116505   7.647   5.337   4.515
 5520TIP3    H216506   7.640   5.398   4.653
 5521TIP3   OH216507   4.117   2.328   3.948
 5521TIP3    H116508   4.165   2.371   4.019
 5521TIP3    H216509   4.037   2.380   3.938
 5522TIP3   OH216510   7.720   0.676   2.895
 5522TIP3    H116511   7.729   0.703   2.986
 5522TIP3    H216512   7.626   0.665   2.882
 5523TIP3   OH216513   4.275   5.152   3.504
 5523TIP3    H116514   4.324   5.209   3.444
 5523TIP3    H216515   4.334   5.140   3.578
 5524TIP3   OH216516   0.039   2.549   3.749
 5524TIP3    H116517  -0.013   2.543   3.829
 5524TIP3    H216518   0.130   2.551   3.781
 5525TIP3   OH216519   0.773   3.938   1.449
 5525TIP3    H116520   0.828   3.871   1.488
 5525TIP3    H216521   0.684   3.911   1.470
 5526TIP3   OH216522   2.709   1.495   1.123
 5526TIP3    H116523   2.798   1.461   1.120
 5526TIP3    H216524   2.697   1.539   1.039
 5527TIP3   OH216525   0.314   3.644   2.990
 5527TIP3    H116526   0.315   3.644   3.086
 5527TIP3    H216527   0.272   3.726   2.967
 5528TIP3   OH216528   6.537   1.257   4.402
 5528TIP3    H116529   6.454   1.239   4.446
 5528TIP3    H216530   6.526   1.344   4.364
 5529TIP3   OH216531   4.550   5.374   1.168
 5529TIP3    H116532   4.474   5.421   1.133
 5529TIP3    H216533   4.626   5.424   1.138
 5530TIP3   OH216534   3.539   1.738   2.312
 5530TIP3    H116535   3.472   1.804   2.293
 5530TIP3    H216536   3.595   1.737   2.234
 5531TIP3   OH216537   8.153   6.315   4.907
 5531TIP3    H116538   8.219   6.365   4.956
 5531TIP3    H216539   8.072   6.330   4.955
 5532TIP3   OH216540   5.841   5.462   2.366
 5532TIP3    H116541   5.892   5.447   2.445
 5532TIP3    H216542   5.867   5.549   2.337
 5533TIP3   OH216543   6.663   5.456   5.149
 5533TIP3    H116544   6.599   5.443   5.219
 5533TIP3    H216545   6.725   5.384   5.159
 5534TIP3   OH216546   6.404   6.659   2.184
 5534TIP3    H116547   6.325   6.713   2.184
 5534TIP3    H216548   6.378   6.579   2.139
 5535TIP3   OH216549   3.590   7.401   4.325
 5535TIP3    H116550   3.507   7.377   4.284
 5535TIP3    H216551   3.653   7.339   4.289
 5536TIP3   OH216552   3.274   1.236   2.071
 5536TIP3    H116553   3.199   1.242   2.131
 5536TIP3    H216554   3.348   1.214   2.127
 5537TIP3   OH216555   0.300   6.834   0.499
 5537TIP3    H116556   0.388   6.860   0.470
 5537TIP3    H216557   0.262   6.915   0.534
 5538TIP3   OH216558   7.436   7.839   2.130
 5538TIP3    H116559   7.503   7.801   2.073
 5538TIP3    H216560   7.358   7.845   2.075
 5539TIP3   OH216561   0.307   4.231   5.412
 5539TIP3    H116562   0.252   4.281   5.352
 5539TIP3    H216563   0.287   4.139   5.392
 5540TIP3   OH216564   7.025   1.497   5.312
 5540TIP3    H116565   7.023   1.554   5.235
 5540TIP3    H216566   7.090   1.430   5.290
 5541TIP3   OH216567   6.803   0.265   3.891
 5541TIP3    H116568   6.720   0.312   3.888
 5541TIP3    H216569   6.857   0.315   3.952
 5542TIP3   OH216570   8.131   1.968   4.259
 5542TIP3    H116571   8.124   1.891   4.315
 5542TIP3    H216572   8.175   1.937   4.180
 5543TIP3   OH216573   0.167   2.313   6.318
 5543TIP3    H116574   0.113   2.264   6.379
 5543TIP3    H216575   0.122   2.397   6.309
 5544TIP3   OH216576   7.832   1.349   0.931
 5544TIP3    H116577   7.881   1.431   0.927
 5544TIP3    H216578   7.746   1.370   0.896
 5545TIP3   OH216579   0.987   4.686   1.208
 5545TIP3    H116580   1.036   4.604   1.209
 5545TIP3    H216581   1.040   4.747   1.260
 5546TIP3   OH216582   4.635   0.587   3.379
 5546TIP3    H116583   4.718   0.592   3.332
 5546TIP3    H216584   4.571   0.561   3.313
 5547TIP3   OH216585   2.667   6.187   6.355
 5547TIP3    H116586   2.711   6.102   6.340
 5547TIP3    H216587   2.612   6.171   6.431
 5548TIP3   OH216588   6.730   2.808   3.664
 5548TIP3    H116589   6.753   2.721   3.631
 5548TIP3    H216590   6.715   2.861   3.586
 5549TIP3   OH216591   1.634   1.811   5.465
 5549TIP3    H116592   1.580   1.794   5.388
 5549TIP3    H216593   1.674   1.727   5.486
 5550TIP3   OH216594   7.092   1.063   0.027
 5550TIP3    H116595   7.106   0.980   0.074
 5550TIP3    H216596   7.018   1.103   0.072
 5551TIP3   OH216597   1.924   6.920   2.602
 5551TIP3    H116598   1.996   6.898   2.543
 5551TIP3    H216599   1.880   6.837   2.618
 5552TIP3   OH216600   1.310   3.029   3.425
 5552TIP3    H116601   1.338   2.939   3.441
 5552TIP3    H216602   1.289   3.063   3.512
 5553TIP3   OH216603   8.269   5.182   6.002
 5553TIP3    H116604   8.283   5.088   5.998
 5553TIP3    H216605   8.234   5.206   5.916
 5554TIP3   OH216606   8.251   1.691   6.826
 5554TIP3    H116607   8.252   1.710   6.732
 5554TIP3    H216608   8.295   1.606   6.834
 5555TIP3   OH216609   7.698   0.311   1.991
 5555TIP3    H116610   7.666   0.253   2.061
 5555TIP3    H216611   7.788   0.284   1.977
 5556TIP3   OH216612   2.379   3.184   1.587
 5556TIP3    H116613   2.353   3.093   1.596
 5556TIP3    H216614   2.388   3.197   1.492
 5557TIP3   OH216615   4.232   1.266   2.094
 5557TIP3    H116616   4.264   1.270   2.184
 5557TIP3    H216617   4.288   1.201   2.052
 5558TIP3   OH216618   3.043   2.550   1.257
 5558TIP3    H116619   3.021   2.511   1.173
 5558TIP3    H216620   3.138   2.559   1.256
 5559TIP3   OH216621   5.001   7.382   3.068
 5559TIP3    H116622   4.969   7.445   3.133
 5559TIP3    H216623   4.949   7.303   3.084
 5560TIP3   OH216624   7.541   6.536   5.669
 5560TIP3    H116625   7.596   6.470   5.710
 5560TIP3    H216626   7.459   6.533   5.719
 5561TIP3   OH216627   3.585   4.364   3.565
 5561TIP3    H116628   3.551   4.290   3.515
 5561TIP3    H216629   3.673   4.337   3.591
 5562TIP3   OH216630   2.160   5.374   1.908
 5562TIP3    H116631   2.207   5.456   1.889
 5562TIP3    H216632   2.213   5.307   1.865
 5563TIP3   OH216633   0.107   2.079   6.002
 5563TIP3    H116634   0.113   2.168   6.038
 5563TIP3    H216635   0.168   2.079   5.929
 5564TIP3   OH216636   7.938   0.230   4.967
 5564TIP3    H116637   8.017   0.251   4.917
 5564TIP3    H216638   7.961   0.152   5.018
 5565TIP3   OH216639   3.109   4.548   6.706
 5565TIP3    H116640   3.026   4.511   6.679
 5565TIP3    H216641   3.164   4.473   6.727
 5566TIP3   OH216642   1.712   4.483   4.187
 5566TIP3    H116643   1.728   4.389   4.176
 5566TIP3    H216644   1.710   4.496   4.282
 5567TIP3   OH216645   1.123   4.428   3.220
 5567TIP3    H116646   1.148   4.343   3.257
 5567TIP3    H216647   1.027   4.427   3.221
 5568TIP3   OH216648   1.939   4.227   2.374
 5568TIP3    H116649   1.978   4.153   2.420
 5568TIP3    H216650   1.938   4.201   2.282
 5569TIP3   OH216651   3.808   0.817   4.521
 5569TIP3    H116652   3.856   0.790   4.442
 5569TIP3    H216653   3.741   0.749   4.532
 5570TIP3   OH216654   6.317   0.392   0.546
 5570TIP3    H116655   6.266   0.325   0.501
 5570TIP3    H216656   6.252   0.447   0.589
 5571TIP3   OH216657   3.019   7.026   4.137
 5571TIP3    H116658   2.960   7.093   4.102
 5571TIP3    H216659   3.096   7.075   4.167
 5572TIP3   OH216660   4.001   0.694   2.553
 5572TIP3    H116661   3.978   0.603   2.536
 5572TIP3    H216662   4.096   0.695   2.553
 5573TIP3   OH216663   8.005   1.588   0.906
 5573TIP3    H116664   8.065   1.513   0.909
 5573TIP3    H216665   8.052   1.658   0.951
 5574TIP3   OH216666   8.130   6.972   2.179
 5574TIP3    H116667   8.173   7.002   2.099
 5574TIP3    H216668   8.181   6.895   2.206
 5575TIP3   OH216669   3.979   1.446   4.366
 5575TIP3    H116670   4.053   1.483   4.318
 5575TIP3    H216671   3.954   1.368   4.316
 5576TIP3   OH216672   0.943   2.599   1.795
 5576TIP3    H116673   0.888   2.528   1.828
 5576TIP3    H216674   0.908   2.618   1.709
 5577TIP3   OH216675   2.193   0.787   4.508
 5577TIP3    H116676   2.231   0.830   4.584
 5577TIP3    H216677   2.222   0.696   4.514
 5578TIP3   OH216678   3.088   2.812   1.663
 5578TIP3    H116679   3.157   2.752   1.635
 5578TIP3    H216680   3.059   2.778   1.748
 5579TIP3   OH216681   4.880   1.432   6.614
 5579TIP3    H116682   4.847   1.492   6.680
 5579TIP3    H216683   4.975   1.429   6.629
 5580TIP3   OH216684   2.949   2.137   6.379
 5580TIP3    H116685   2.954   2.232   6.393
 5580TIP3    H216686   3.033   2.114   6.339
 5581TIP3   OH216687   4.752   6.057   5.283
 5581TIP3    H116688   4.670   6.059   5.232
 5581TIP3    H216689   4.801   6.133   5.251
 5582TIP3   OH216690   6.489   6.030   6.393
 5582TIP3    H116691   6.502   5.936   6.402
 5582TIP3    H216692   6.547   6.069   6.459
 5583TIP3   OH216693   3.837   2.511   0.924
 5583TIP3    H116694   3.805   2.508   0.833
 5583TIP3    H216695   3.772   2.461   0.974
 5584TIP3   OH216696   3.424   5.702   5.802
 5584TIP3    H116697   3.394   5.707   5.711
 5584TIP3    H216698   3.400   5.614   5.830
 5585TIP3   OH216699   4.824   3.284   4.403
 5585TIP3    H116700   4.850   3.329   4.323
 5585TIP3    H216701   4.820   3.354   4.469
 5586TIP3   OH216702   3.965   5.160   2.965
 5586TIP3    H116703   3.900   5.125   2.904
 5586TIP3    H216704   4.046   5.114   2.943
 5587TIP3   OH216705   1.578   7.670   5.778
 5587TIP3    H116706   1.625   7.631   5.852
 5587TIP3    H216707   1.518   7.601   5.749
 5588TIP3   OH216708   5.253   0.611   6.039
 5588TIP3    H116709   5.170   0.647   6.068
 5588TIP3    H216710   5.287   0.675   5.976
 5589TIP3   OH216711   7.477   3.116   1.989
 5589TIP3    H116712   7.487   3.064   1.909
 5589TIP3    H216713   7.485   3.052   2.059
 5590TIP3   OH216714   0.090   7.042   3.654
 5590TIP3    H116715   0.071   6.996   3.572
 5590TIP3    H216716   0.173   7.005   3.684
 5591TIP3   OH216717   6.826   5.314   6.129
 5591TIP3    H116718   6.823   5.378   6.058
 5591TIP3    H216719   6.750   5.257   6.113
 5592TIP3   OH216720   2.428   1.234   0.345
 5592TIP3    H116721   2.400   1.247   0.436
 5592TIP3    H216722   2.365   1.284   0.293
 5593TIP3   OH216723   7.476   6.696   4.455
 5593TIP3    H116724   7.545   6.718   4.518
 5593TIP3    H216725   7.394   6.716   4.502
 5594TIP3   OH216726   6.809   2.235   1.746
 5594TIP3    H116727   6.777   2.157   1.791
 5594TIP3    H216728   6.839   2.292   1.816
 5595TIP3   OH216729   6.040   1.779   4.997
 5595TIP3    H116730   6.087   1.800   4.917
 5595TIP3    H216731   6.101   1.727   5.049
 5596TIP3   OH216732   1.010   6.911   2.912
 5596TIP3    H116733   1.041   6.883   2.826
 5596TIP3    H216734   0.915   6.907   2.905
 5597TIP3   OH216735   5.929   6.166   5.469
 5597TIP3    H116736   5.854   6.193   5.522
 5597TIP3    H216737   5.992   6.237   5.478
 5598TIP3   OH216738   4.219   1.888   4.398
 5598TIP3    H116739   4.162   1.944   4.344
 5598TIP3    H216740   4.160   1.851   4.464
 5599TIP3   OH216741   6.834   3.526   4.915
 5599TIP3    H116742   6.783   3.445   4.924
 5599TIP3    H216743   6.853   3.533   4.822
 5600TIP3   OH216744   2.318   0.031   5.366
 5600TIP3    H116745   2.290   0.108   5.316
 5600TIP3    H216746   2.275  -0.042   5.323
 5601TIP3   OH216747   1.335   3.412   6.069
 5601TIP3    H116748   1.325   3.331   6.119
 5601TIP3    H216749   1.254   3.419   6.018
 5602TIP3   OH216750   1.539   6.832   3.910
 5602TIP3    H116751   1.629   6.852   3.936
 5602TIP3    H216752   1.531   6.868   3.822
 5603TIP3   OH216753   7.183   4.033   0.524
 5603TIP3    H116754   7.190   4.129   0.531
 5603TIP3    H216755   7.155   4.005   0.611
 5604TIP3   OH216756   6.900   5.647   4.794
 5604TIP3    H116757   6.923   5.661   4.886
 5604TIP3    H216758   6.833   5.578   4.797
 5605TIP3   OH216759   6.839   6.329   0.408
 5605TIP3    H116760   6.822   6.350   0.317
 5605TIP3    H216761   6.753   6.306   0.444
 5606TIP3   OH216762   5.777   2.159   4.456
 5606TIP3    H116763   5.845   2.093   4.446
 5606TIP3    H216764   5.806   2.232   4.401
 5607TIP3   OH216765   1.058   2.368   5.070
 5607TIP3    H116766   1.018   2.443   5.027
 5607TIP3    H216767   1.007   2.293   5.038
 5608TIP3   OH216768   2.692   0.396   3.210
 5608TIP3    H116769   2.650   0.469   3.165
 5608TIP3    H216770   2.772   0.379   3.160
 5609TIP3   OH216771   1.158   2.512   3.102
 5609TIP3    H116772   1.191   2.433   3.144
 5609TIP3    H216773   1.233   2.571   3.098
 5610TIP3   OH216774   3.683   6.576   0.169
 5610TIP3    H116775   3.632   6.504   0.208
 5610TIP3    H216776   3.621   6.649   0.163
 5611TIP3   OH216777   0.284   4.604   3.800
 5611TIP3    H116778   0.272   4.522   3.847
 5611TIP3    H216779   0.231   4.668   3.849
 5612TIP3   OH216780   6.045   0.401   4.630
 5612TIP3    H116781   6.050   0.472   4.694
 5612TIP3    H216782   6.134   0.367   4.625
 5613TIP3   OH216783   2.024   3.509   6.291
 5613TIP3    H116784   2.033   3.520   6.196
 5613TIP3    H216785   2.114   3.502   6.323
 5614TIP3   OH216786   4.294   5.081   5.774
 5614TIP3    H116787   4.355   5.100   5.703
 5614TIP3    H216788   4.310   5.150   5.838
 5615TIP3   OH216789   5.732   1.266   1.974
 5615TIP3    H116790   5.801   1.271   2.040
 5615TIP3    H216791   5.752   1.186   1.925
 5616TIP3   OH216792   6.509   1.135   3.648
 5616TIP3    H116793   6.593   1.093   3.669
 5616TIP3    H216794   6.520   1.167   3.559
 5617TIP3   OH216795   7.078   6.035   0.336
 5617TIP3    H116796   7.082   5.940   0.331
 5617TIP3    H216797   7.046   6.063   0.251
 5618TIP3   OH216798   8.135   4.856   6.569
 5618TIP3    H116799   8.170   4.838   6.657
 5618TIP3    H216800   8.212   4.859   6.513
 5619TIP3   OH216801   6.689   0.549   1.071
 5619TIP3    H116802   6.740   0.626   1.096
 5619TIP3    H216803   6.738   0.511   0.998
 5620TIP3   OH216804   6.535   6.267   5.821
 5620TIP3    H116805   6.493   6.182   5.810
 5620TIP3    H216806   6.620   6.258   5.779
 5621TIP3   OH216807   1.438   2.720   1.661
 5621TIP3    H116808   1.365   2.778   1.639
 5621TIP3    H216809   1.444   2.724   1.756
 5622TIP3   OH216810   4.592   3.081   3.081
 5622TIP3    H116811   4.640   3.004   3.112
 5622TIP3    H216812   4.569   3.061   2.991
 5623TIP3   OH216813   4.542   7.233   0.627
 5623TIP3    H116814   4.607   7.294   0.590
 5623TIP3    H216815   4.594   7.160   0.660
 5624TIP3   OH216816   4.267   2.038   5.388
 5624TIP3    H116817   4.290   2.097   5.317
 5624TIP3    H216818   4.180   2.006   5.366
 5625TIP3   OH216819   3.045   6.132   1.255
 5625TIP3    H116820   3.130   6.090   1.269
 5625TIP3    H216821   3.066   6.217   1.217
 5626TIP3   OH216822   2.212   4.267   3.914
 5626TIP3    H116823   2.241   4.332   3.850
 5626TIP3    H216824   2.117   4.281   3.921
 5627TIP3   OH216825   5.298   4.976   3.002
 5627TIP3    H116826   5.373   4.960   3.059
 5627TIP3    H216827   5.331   5.037   2.936
 5628TIP3   OH216828   5.012   5.061   2.004
 5628TIP3    H116829   4.965   4.997   2.058
 5628TIP3    H216830   5.061   5.007   1.941
 5629TIP3   OH216831   7.688   2.082   1.182
 5629TIP3    H116832   7.764   2.115   1.134
 5629TIP3    H216833   7.716   2.079   1.273
 5630TIP3   OH216834   7.611   7.046   4.480
 5630TIP3    H116835   7.633   7.127   4.526
 5630TIP3    H216836   7.646   6.977   4.536
 5631TIP3   OH216837   0.936   3.800   6.244
 5631TIP3    H116838   0.963   3.762   6.327
 5631TIP3    H216839   1.017   3.832   6.205
 5632TIP3   OH216840   5.428   3.814   3.773
 5632TIP3    H116841   5.357   3.857   3.821
 5632TIP3    H216842   5.436   3.863   3.691
 5633TIP3   OH216843   2.573   6.575   5.988
 5633TIP3    H116844   2.581   6.487   6.025
 5633TIP3    H216845   2.489   6.607   6.022
 5634TIP3   OH216846   5.389   5.227   4.981
 5634TIP3    H116847   5.318   5.259   4.924
 5634TIP3    H216848   5.344   5.181   5.051
 5635TIP3   OH216849   3.028   3.304   5.901
 5635TIP3    H116850   3.030   3.330   5.809
 5635TIP3    H216851   3.008   3.211   5.900
 5636TIP3   OH216852   8.138   5.380   3.870
 5636TIP3    H116853   8.213   5.346   3.919
 5636TIP3    H216854   8.074   5.401   3.938
 5637TIP3   OH216855   1.263   4.169   3.669
 5637TIP3    H116856   1.347   4.184   3.713
 5637TIP3    H216857   1.208   4.129   3.736
 5638TIP3   OH216858   2.409   7.509   6.284
 5638TIP3    H116859   2.360   7.433   6.315
 5638TIP3    H216860   2.470   7.529   6.355
 5639TIP3   OH216861   7.246   0.933   0.706
 5639TIP3    H116862   7.237   1.026   0.723
 5639TIP3    H216863   7.333   0.923   0.668
 5640TIP3   OH216864   8.168   0.146   4.219
 5640TIP3    H116865   8.103   0.193   4.167
 5640TIP3    H216866   8.165   0.188   4.305
 5641TIP3   OH216867   4.483   0.226   4.063
 5641TIP3    H116868   4.534   0.220   3.982
 5641TIP3    H216869   4.398   0.188   4.039
 5642TIP3   OH216870   0.161   0.037   5.850
 5642TIP3    H116871   0.148   0.023   5.943
 5642TIP3    H216872   0.244   0.084   5.844
 5643TIP3   OH216873   4.291   5.765   1.620
 5643TIP3    H116874   4.297   5.697   1.552
 5643TIP3    H216875   4.379   5.769   1.657
 5644TIP3   OH216876   6.685   0.380   2.138
 5644TIP3    H116877   6.616   0.329   2.095
 5644TIP3    H216878   6.683   0.351   2.229
 5645TIP3   OH216879   5.461   5.770   4.678
 5645TIP3    H116880   5.398   5.701   4.697
 5645TIP3    H216881   5.434   5.804   4.592
 5646TIP3   OH216882   6.352   1.467   2.053
 5646TIP3    H116883   6.263   1.447   2.023
 5646TIP3    H216884   6.344   1.554   2.093
 5647TIP3   OH216885   7.570   1.035   3.595
 5647TIP3    H116886   7.542   1.097   3.663
 5647TIP3    H216887   7.657   1.008   3.622
 5648TIP3   OH216888   1.930   0.973   3.720
 5648TIP3    H116889   1.883   0.897   3.684
 5648TIP3    H216890   1.866   1.016   3.776
 5649TIP3   OH216891   1.086   1.740   1.421
 5649TIP3    H116892   1.033   1.737   1.341
 5649TIP3    H216893   1.149   1.669   1.410
 5650TIP3   OH216894   0.204   1.783   3.856
 5650TIP3    H116895   0.147   1.856   3.832
 5650TIP3    H216896   0.289   1.804   3.817
 5651TIP3   OH216897   5.301   1.545   4.027
 5651TIP3    H116898   5.259   1.578   4.107
 5651TIP3    H216899   5.383   1.594   4.022
 5652TIP3   OH216900   4.955   2.343   1.592
 5652TIP3    H116901   4.961   2.347   1.687
 5652TIP3    H216902   4.866   2.313   1.575
 5653TIP3   OH216903   1.136   5.898   1.758
 5653TIP3    H116904   1.203   5.830   1.761
 5653TIP3    H216905   1.154   5.953   1.835
 5654TIP3   OH216906   3.320   5.539   2.696
 5654TIP3    H116907   3.336   5.511   2.605
 5654TIP3    H216908   3.381   5.487   2.748
 5655TIP3   OH216909   6.574   3.733   4.852
 5655TIP3    H116910   6.602   3.777   4.932
 5655TIP3    H216911   6.521   3.659   4.882
 5656TIP3   OH216912   7.417   6.768   1.919
 5656TIP3    H116913   7.394   6.675   1.921
 5656TIP3    H216914   7.351   6.809   1.863
 5657TIP3   OH216915   4.928   3.063   3.132
 5657TIP3    H116916   4.949   2.981   3.177
 5657TIP3    H216917   4.996   3.124   3.160
 5658TIP3   OH216918   0.525   3.752   2.337
 5658TIP3    H116919   0.547   3.838   2.302
 5658TIP3    H216920   0.599   3.729   2.394
 5659TIP3   OH216921   6.514   1.376   3.135
 5659TIP3    H116922   6.432   1.416   3.163
 5659TIP3    H216923   6.520   1.397   3.041
 5660TIP3   OH216924   8.308   7.217   5.821
 5660TIP3    H116925   8.304   7.294   5.877
 5660TIP3    H216926   8.219   7.208   5.786
 5661TIP3   OH216927   7.821   0.099   6.243
 5661TIP3    H116928   7.764   0.142   6.307
 5661TIP3    H216929   7.853   0.021   6.288
 5662TIP3   OH216930   8.174   1.348   0.531
 5662TIP3    H116931   8.082   1.372   0.541
 5662TIP3    H216932   8.213   1.365   0.617
 5663TIP3   OH216933   3.600   6.980   2.238
 5663TIP3    H116934   3.562   7.066   2.259
 5663TIP3    H216935   3.648   6.956   2.318
 5664TIP3   OH216936   7.044   6.150   4.146
 5664TIP3    H116937   6.986   6.184   4.214
 5664TIP3    H216938   7.092   6.079   4.188
 5665TIP3   OH216939   3.590   7.666   1.333
 5665TIP3    H116940   3.546   7.697   1.253
 5665TIP3    H216941   3.653   7.735   1.353
 5666TIP3   OH216942   6.404   5.669   3.042
 5666TIP3    H116943   6.464   5.624   3.101
 5666TIP3    H216944   6.319   5.666   3.086
 5667TIP3   OH216945   0.547   3.099   1.438
 5667TIP3    H116946   0.589   3.073   1.521
 5667TIP3    H216947   0.455   3.074   1.450
 5668TIP3   OH216948   1.924   1.785   0.839
 5668TIP3    H116949   1.859   1.786   0.909
 5668TIP3    H216950   1.916   1.699   0.799
 5669TIP3   OH216951   7.385   3.010   0.742
 5669TIP3    H116952   7.460   3.032   0.687
 5669TIP3    H216953   7.398   2.918   0.764
 5670TIP3   OH216954   5.049   2.926   0.324
 5670TIP3    H116955   4.988   2.960   0.390
 5670TIP3    H216956   5.119   2.885   0.375
 5671TIP3   OH216957   0.600   6.221   5.056
 5671TIP3    H116958   0.640   6.201   5.141
 5671TIP3    H216959   0.610   6.316   5.047
 5672TIP3   OH216960   2.081   2.742   0.314
 5672TIP3    H116961   2.102   2.780   0.399
 5672TIP3    H216962   2.019   2.803   0.275
 5673TIP3   OH216963   0.664   5.288   4.651
 5673TIP3    H116964   0.643   5.252   4.737
 5673TIP3    H216965   0.740   5.238   4.622
 5674TIP3   OH216966   5.778   1.269   2.305
 5674TIP3    H116967   5.824   1.186   2.321
 5674TIP3    H216968   5.690   1.243   2.278
 5675TIP3   OH216969   5.148   2.204   3.668
 5675TIP3    H116970   5.083   2.189   3.737
 5675TIP3    H216971   5.102   2.183   3.587
 5676TIP3   OH216972   0.650   7.507   2.219
 5676TIP3    H116973   0.571   7.505   2.273
 5676TIP3    H216974   0.642   7.588   2.168
 5677TIP3   OH216975   8.267   2.312   0.375
 5677TIP3    H116976   8.357   2.293   0.401
 5677TIP3    H216977   8.275   2.369   0.299
 5678TIP3   OH216978   5.379   3.749   1.966
 5678TIP3    H116979   5.316   3.690   2.007
 5678TIP3    H216980   5.464   3.723   2.002
 5679TIP3   OH216981   6.984   3.085   2.022
 5679TIP3    H116982   6.910   3.091   2.083
 5679TIP3    H216983   7.050   3.144   2.059
 5680TIP3   OH216984   7.068   4.362   3.208
 5680TIP3    H116985   7.033   4.299   3.271
 5680TIP3    H216986   7.000   4.428   3.200
 5681TIP3   OH216987   4.513   6.476   1.246
 5681TIP3    H116988   4.550   6.502   1.330
 5681TIP3    H216989   4.423   6.449   1.265
 5682TIP3   OH216990   6.878   6.056   1.004
 5682TIP3    H116991   6.907   6.104   1.081
 5682TIP3    H216992   6.828   5.982   1.038
 5683TIP3   OH216993   2.786   2.369   3.093
 5683TIP3    H116994   2.828   2.454   3.086
 5683TIP3    H216995   2.717   2.370   3.026
 5684TIP3   OH216996   7.376   2.996   3.085
 5684TIP3    H116997   7.366   3.075   3.032
 5684TIP3    H216998   7.421   3.026   3.164
 5685TIP3   OH216999   6.851   5.805   2.510
 5685TIP3    H117000   6.817   5.756   2.585
 5685TIP3    H217001   6.873   5.891   2.546
 5686TIP3   OH217002   3.980   4.017   1.656
 5686TIP3    H117003   3.937   3.956   1.716
 5686TIP3    H217004   3.909   4.053   1.604
 5687TIP3   OH217005   1.149   3.647   5.237
 5687TIP3    H117006   1.158   3.562   5.194
 5687TIP3    H217007   1.239   3.676   5.251
 5688TIP3   OH217008   8.285   6.809   1.075
 5688TIP3    H117009   8.368   6.771   1.103
 5688TIP3    H217010   8.303   6.903   1.069
 5689TIP3   OH217011   0.940   3.810   2.681
 5689TIP3    H117012   0.962   3.820   2.588
 5689TIP3    H217013   0.853   3.848   2.690
 5690TIP3   OH217014   5.962   1.547   5.306
 5690TIP3    H117015   5.988   1.639   5.293
 5690TIP3    H217016   6.014   1.518   5.381
 5691TIP3   OH217017   6.841   1.817   6.737
 5691TIP3    H117018   6.799   1.845   6.818
 5691TIP3    H217019   6.929   1.854   6.740
 5692TIP3   OH217020   1.102   7.187   2.977
 5692TIP3    H117021   1.063   7.100   2.964
 5692TIP3    H217022   1.183   7.169   3.025
 5693TIP3   OH217023   6.376   5.272   2.301
 5693TIP3    H117024   6.348   5.204   2.362
 5693TIP3    H217025   6.332   5.351   2.331
 5694TIP3   OH217026   4.430   7.781   1.982
 5694TIP3    H117027   4.392   7.776   1.894
 5694TIP3    H217028   4.412   7.695   2.021
 5695TIP3   OH217029   7.031   7.300   4.916
 5695TIP3    H117030   7.084   7.371   4.953
 5695TIP3    H217031   7.078   7.275   4.836
 5696TIP3   OH217032   7.101   5.459   2.450
 5696TIP3    H117033   7.084   5.382   2.395
 5696TIP3    H217034   7.075   5.533   2.395
 5697TIP3   OH217035   5.507   5.456   5.884
 5697TIP3    H117036   5.446   5.530   5.886
 5697TIP3    H217037   5.587   5.492   5.847
 5698TIP3   OH217038   7.698   7.532   2.926
 5698TIP3    H117039   7.659   7.490   3.002
 5698TIP3    H217040   7.788   7.499   2.923
 5699TIP3   OH217041   7.416   4.235   4.463
 5699TIP3    H117042   7.425   4.152   4.415
 5699TIP3    H217043   7.463   4.220   4.545
 5700TIP3   OH217044   4.695   0.019   6.113
 5700TIP3    H117045   4.786  -0.009   6.118
 5700TIP3    H217046   4.699   0.105   6.072
 5701TIP3   OH217047   2.290   2.861   5.092
 5701TIP3    H117048   2.213   2.850   5.037
 5701TIP3    H217049   2.259   2.838   5.180
 5702TIP3   OH217050   5.194   4.578   2.567
 5702TIP3    H117051   5.172   4.652   2.510
 5702TIP3    H217052   5.285   4.557   2.544
 5703TIP3   OH217053   7.455   5.861   1.871
 5703TIP3    H117054   7.530   5.898   1.916
 5703TIP3    H217055   7.487   5.840   1.783
 5704TIP3   OH217056   1.938   5.505   1.669
 5704TIP3    H117057   1.898   5.464   1.593
 5704TIP3    H217058   1.991   5.436   1.709
 5705TIP3   OH217059   5.153   0.135   2.584
 5705TIP3    H117060   5.137   0.141   2.490
 5705TIP3    H217061   5.071   0.161   2.625
 5706TIP3   OH217062   6.945   3.760   3.510
 5706TIP3    H117063   7.036   3.733   3.499
 5706TIP3    H217064   6.950   3.848   3.547
 5707TIP3   OH217065   7.519   4.919   6.580
 5707TIP3    H117066   7.594   4.874   6.618
 5707TIP3    H217067   7.549   4.951   6.495
 5708TIP3   OH217068   2.096   6.874   3.845
 5708TIP3    H117069   2.146   6.930   3.904
 5708TIP3    H217070   2.145   6.792   3.843
 5709TIP3   OH217071   5.952   4.369   2.333
 5709TIP3    H117072   5.966   4.389   2.425
 5709TIP3    H217073   5.870   4.321   2.331
 5710TIP3   OH217074   0.537   2.642   3.004
 5710TIP3    H117075   0.630   2.666   3.001
 5710TIP3    H217076   0.520   2.621   3.096
 5711TIP3   OH217077   5.367   3.026   5.852
 5711TIP3    H117078   5.338   3.117   5.861
 5711TIP3    H217079   5.349   2.986   5.937
 5712TIP3   OH217080   1.735   4.288   0.098
 5712TIP3    H117081   1.657   4.344   0.100
 5712TIP3    H217082   1.711   4.215   0.040
 5713TIP3   OH217083   4.410   6.249   6.079
 5713TIP3    H117084   4.498   6.211   6.082
 5713TIP3    H217085   4.352   6.173   6.078
 5714TIP3   OH217086   4.678   5.896   6.239
 5714TIP3    H117087   4.769   5.922   6.257
 5714TIP3    H217088   4.684   5.802   6.222
 5715TIP3   OH217089   6.313   2.610   0.738
 5715TIP3    H117090   6.292   2.632   0.829
 5715TIP3    H217091   6.318   2.514   0.738
 5716TIP3   OH217092   0.043   0.337   2.329
 5716TIP3    H117093   0.097   0.376   2.397
 5716TIP3    H217094   0.031   0.406   2.265
 5717TIP3   OH217095   7.894   5.235   4.682
 5717TIP3    H117096   7.895   5.152   4.633
 5717TIP3    H217097   7.808   5.237   4.724
 5718TIP3   OH217098   3.862   5.415   5.776
 5718TIP3    H117099   3.809   5.416   5.696
 5718TIP3    H217100   3.844   5.500   5.818
 5719TIP3   OH217101   1.583   1.884   2.959
 5719TIP3    H117102   1.562   1.922   3.044
 5719TIP3    H217103   1.638   1.808   2.978
 5720TIP3   OH217104   5.762   7.786   0.804
 5720TIP3    H117105   5.767   7.862   0.746
 5720TIP3    H217106   5.790   7.712   0.749
 5721TIP3   OH217107   5.859   7.630   4.687
 5721TIP3    H117108   5.821   7.658   4.604
 5721TIP3    H217109   5.797   7.566   4.722
 5722TIP3   OH217110   6.858   2.609   6.094
 5722TIP3    H117111   6.803   2.530   6.085
 5722TIP3    H217112   6.898   2.619   6.008
 5723TIP3   OH217113   5.152   2.023   4.429
 5723TIP3    H117114   5.074   1.970   4.445
 5723TIP3    H217115   5.185   2.044   4.517
 5724TIP3   OH217116   6.948   4.587   0.713
 5724TIP3    H117117   7.038   4.606   0.738
 5724TIP3    H217118   6.944   4.608   0.619
 5725TIP3   OH217119   2.154   6.717   2.516
 5725TIP3    H117120   2.212   6.718   2.440
 5725TIP3    H217121   2.212   6.725   2.592
 5726TIP3   OH217122   7.816   0.756   4.371
 5726TIP3    H117123   7.866   0.771   4.292
 5726TIP3    H217124   7.869   0.793   4.441
 5727TIP3   OH217125   3.825   6.434   4.787
 5727TIP3    H117126   3.774   6.453   4.866
 5727TIP3    H217127   3.833   6.518   4.742
 5728TIP3   OH217128   4.878   1.178   1.962
 5728TIP3    H117129   4.927   1.219   2.033
 5728TIP3    H217130   4.859   1.249   1.901
 5729TIP3   OH217131   4.630   2.032   1.891
 5729TIP3    H117132   4.659   2.019   1.801
 5729TIP3    H217133   4.624   2.127   1.901
 5730TIP3   OH217134   1.366   4.746   5.215
 5730TIP3    H117135   1.445   4.698   5.239
 5730TIP3    H217136   1.375   4.763   5.121
 5731TIP3   OH217137   1.566   4.285   3.199
 5731TIP3    H117138   1.655   4.276   3.233
 5731TIP3    H217139   1.531   4.362   3.243
 5732TIP3   OH217140   7.666   6.731   1.230
 5732TIP3    H117141   7.587   6.738   1.176
 5732TIP3    H217142   7.634   6.721   1.319
 5733TIP3   OH217143   3.121   7.381   6.500
 5733TIP3    H117144   3.090   7.379   6.409
 5733TIP3    H217145   3.121   7.289   6.526
 5734TIP3   OH217146   6.324   3.560   4.080
 5734TIP3    H117147   6.336   3.472   4.044
 5734TIP3    H217148   6.236   3.559   4.117
 5735TIP3   OH217149   4.653   7.816   4.965
 5735TIP3    H117150   4.629   7.776   4.882
 5735TIP3    H217151   4.651   7.744   5.028
 5736TIP3   OH217152   3.252   2.584   2.863
 5736TIP3    H117153   3.244   2.592   2.958
 5736TIP3    H217154   3.296   2.500   2.850
 5737TIP3   OH217155   0.849   1.692   2.482
 5737TIP3    H117156   0.880   1.738   2.404
 5737TIP3    H217157   0.773   1.642   2.451
 5738TIP3   OH217158   6.912   3.648   5.143
 5738TIP3    H117159   6.996   3.688   5.120
 5738TIP3    H217160   6.870   3.630   5.059
 5739TIP3   OH217161   5.275   7.260   1.212
 5739TIP3    H117162   5.361   7.297   1.235
 5739TIP3    H217163   5.260   7.192   1.278
 5740TIP3   OH217164   0.294   3.319   1.227
 5740TIP3    H117165   0.303   3.223   1.227
 5740TIP3    H217166   0.321   3.345   1.315
 5741TIP3   OH217167   0.275   0.967   1.881
 5741TIP3    H117168   0.189   0.953   1.842
 5741TIP3    H217169   0.289   1.061   1.876
 5742TIP3   OH217170   6.502   2.877   4.488
 5742TIP3    H117171   6.436   2.946   4.479
 5742TIP3    H217172   6.464   2.802   4.442
 5743TIP3   OH217173   6.215   3.345   6.651
 5743TIP3    H117174   6.272   3.321   6.578
 5743TIP3    H217175   6.127   3.336   6.616
 5744TIP3   OH217176   0.490   0.702   6.309
 5744TIP3    H117177   0.406   0.730   6.273
 5744TIP3    H217178   0.528   0.648   6.239
 5745TIP3   OH217179   7.212   0.931   1.255
 5745TIP3    H117180   7.192   1.020   1.225
 5745TIP3    H217181   7.127   0.891   1.270
 5746TIP3   OH217182   4.897   7.413   3.689
 5746TIP3    H117183   4.862   7.450   3.608
 5746TIP3    H217184   4.987   7.388   3.667
 5747TIP3   OH217185   7.863   7.330   1.739
 5747TIP3    H117186   7.842   7.327   1.646
 5747TIP3    H217187   7.783   7.301   1.783
 5748TIP3   OH217188   3.084   2.259   5.133
 5748TIP3    H117189   3.110   2.181   5.183
 5748TIP3    H217190   3.141   2.259   5.057
 5749TIP3   OH217191   5.939   2.165   1.345
 5749TIP3    H117192   5.901   2.231   1.288
 5749TIP3    H217193   5.978   2.214   1.417
 5750TIP3   OH217194   7.733   1.791   1.089
 5750TIP3    H117195   7.700   1.858   1.150
 5750TIP3    H217196   7.783   1.840   1.024
 5751TIP3   OH217197   3.728   3.925   1.085
 5751TIP3    H117198   3.794   3.874   1.038
 5751TIP3    H217199   3.769   3.944   1.170
 5752TIP3   OH217200   6.329   4.168   5.740
 5752TIP3    H117201   6.256   4.203   5.791
 5752TIP3    H217202   6.309   4.075   5.730
 5753TIP3   OH217203   6.593   2.393   6.263
 5753TIP3    H117204   6.643   2.317   6.293
 5753TIP3    H217205   6.634   2.418   6.181
 5754TIP3   OH217206   0.018   3.555   1.904
 5754TIP3    H117207  -0.016   3.517   1.823
 5754TIP3    H217208   0.007   3.486   1.969
 5755TIP3   OH217209   4.835   0.546   1.950
 5755TIP3    H117210   4.751   0.529   1.991
 5755TIP3    H217211   4.883   0.600   2.013
 5756TIP3   OH217212   5.541   1.532   5.869
 5756TIP3    H117213   5.634   1.521   5.884
 5756TIP3    H217214   5.510   1.445   5.843
 5757TIP3   OH217215   4.945   2.290   6.562
 5757TIP3    H117216   4.932   2.220   6.498
 5757TIP3    H217217   4.857   2.316   6.589
 5758TIP3   OH217218   5.024   4.706   2.745
 5758TIP3    H117219   5.108   4.698   2.700
 5758TIP3    H217220   5.045   4.695   2.838
 5759TIP3   OH217221   0.257   1.271   6.571
 5759TIP3    H117222   0.254   1.348   6.514
 5759TIP3    H217223   0.177   1.222   6.548
 5760TIP3   OH217224   4.562   6.311   5.397
 5760TIP3    H117225   4.639   6.365   5.384
 5760TIP3    H217226   4.584   6.256   5.473
 5761TIP3   OH217227   7.433   4.797   5.972
 5761TIP3    H117228   7.520   4.833   5.989
 5761TIP3    H217229   7.437   4.707   6.006
 5762TIP3   OH217230   3.821   7.166   5.162
 5762TIP3    H117231   3.907   7.199   5.188
 5762TIP3    H217232   3.781   7.135   5.243
 5763TIP3   OH217233   2.938   4.923   5.979
 5763TIP3    H117234   2.971   4.837   6.006
 5763TIP3    H217235   2.953   4.926   5.885
 5764TIP3   OH217236   1.314   1.073   4.354
 5764TIP3    H117237   1.321   1.085   4.259
 5764TIP3    H217238   1.403   1.083   4.386
 5765TIP3   OH217239   7.529   4.954   0.121
 5765TIP3    H117240   7.578   4.990   0.047
 5765TIP3    H217241   7.501   4.868   0.092
 5766TIP3   OH217242   6.868   3.412   4.511
 5766TIP3    H117243   6.819   3.479   4.558
 5766TIP3    H217244   6.880   3.448   4.423
 5767TIP3   OH217245   0.680   0.844   1.996
 5767TIP3    H117246   0.647   0.933   2.009
 5767TIP3    H217247   0.743   0.831   2.066
 5768TIP3   OH217248   3.724   7.761   0.557
 5768TIP3    H117249   3.734   7.667   0.573
 5768TIP3    H217250   3.766   7.776   0.473
 5769TIP3   OH217251   2.383   7.585   0.385
 5769TIP3    H117252   2.422   7.536   0.313
 5769TIP3    H217253   2.315   7.526   0.420
 5770TIP3   OH217254   6.486   6.566   6.518
 5770TIP3    H117255   6.453   6.585   6.605
 5770TIP3    H217256   6.513   6.474   6.521
 5771TIP3   OH217257   2.230   4.285   0.932
 5771TIP3    H117258   2.310   4.279   0.984
 5771TIP3    H217259   2.163   4.314   0.994
 5772TIP3   OH217260   3.696   2.984   5.916
 5772TIP3    H117261   3.682   2.895   5.946
 5772TIP3    H217262   3.666   2.983   5.824
 5773TIP3   OH217263   7.545   7.087   3.101
 5773TIP3    H117264   7.481   7.048   3.161
 5773TIP3    H217265   7.491   7.130   3.035
 5774TIP3   OH217266   6.560   3.194   5.635
 5774TIP3    H117267   6.473   3.185   5.597
 5774TIP3    H217268   6.613   3.129   5.589
 5775TIP3   OH217269   3.308   0.356   6.621
 5775TIP3    H117270   3.223   0.384   6.655
 5775TIP3    H217271   3.340   0.431   6.571
 5776TIP3   OH217272   0.984   7.160   4.790
 5776TIP3    H117273   0.911   7.189   4.845
 5776TIP3    H217274   0.959   7.073   4.761
 5777TIP3   OH217275   3.698   0.961   0.486
 5777TIP3    H117276   3.742   0.884   0.451
 5777TIP3    H217277   3.684   0.941   0.578
 5778TIP3   OH217278   5.917   3.174   4.654
 5778TIP3    H117279   5.922   3.220   4.738
 5778TIP3    H217280   5.941   3.240   4.589
 5779TIP3   OH217281   1.480   5.848   6.518
 5779TIP3    H117282   1.466   5.760   6.481
 5779TIP3    H217283   1.439   5.907   6.454
 5780TIP3   OH217284   6.260   7.427   3.033
 5780TIP3    H117285   6.337   7.466   3.075
 5780TIP3    H217286   6.261   7.461   2.944
 5781TIP3   OH217287   5.682   1.639   2.064
 5781TIP3    H117288   5.777   1.642   2.050
 5781TIP3    H217289   5.648   1.594   1.987
 5782TIP3   OH217290   7.886   1.132   3.048
 5782TIP3    H117291   7.966   1.160   3.092
 5782TIP3    H217292   7.844   1.213   3.018
 5783TIP3   OH217293   1.028   1.857   3.719
 5783TIP3    H117294   0.980   1.897   3.792
 5783TIP3    H217295   1.110   1.907   3.714
 5784TIP3   OH217296   4.838   5.219   5.869
 5784TIP3    H117297   4.886   5.258   5.942
 5784TIP3    H217298   4.786   5.290   5.834
 5785TIP3   OH217299   2.892   7.496   2.560
 5785TIP3    H117300   2.827   7.544   2.610
 5785TIP3    H217301   2.885   7.531   2.471
 5786TIP3   OH217302   7.037   3.998   0.095
 5786TIP3    H117303   7.010   4.071   0.039
 5786TIP3    H217304   7.124   4.024   0.127
 5787TIP3   OH217305   5.833   5.873   3.702
 5787TIP3    H117306   5.839   5.968   3.690
 5787TIP3    H217307   5.910   5.851   3.755
 5788TIP3   OH217308   5.122   2.937   4.056
 5788TIP3    H117309   5.139   2.879   3.982
 5788TIP3    H217310   5.069   3.008   4.019
 5789TIP3   OH217311   4.278   3.214   1.052
 5789TIP3    H117312   4.221   3.137   1.054
 5789TIP3    H217313   4.246   3.270   1.122
 5790TIP3   OH217314   7.206   4.829   3.975
 5790TIP3    H117315   7.231   4.920   3.957
 5790TIP3    H217316   7.111   4.830   3.976
 5791TIP3   OH217317   2.638   1.609   4.607
 5791TIP3    H117318   2.569   1.555   4.570
 5791TIP3    H217319   2.716   1.553   4.605
 5792TIP3   OH217320   1.949   5.006   3.964
 5792TIP3    H117321   1.970   5.087   4.010
 5792TIP3    H217322   1.956   5.029   3.871
 5793TIP3   OH217323   0.991   0.305   3.738
 5793TIP3    H117324   0.904   0.265   3.749
 5793TIP3    H217325   0.997   0.322   3.644
 5794TIP3   OH217326   6.283   1.245   2.868
 5794TIP3    H117327   6.332   1.289   2.798
 5794TIP3    H217328   6.210   1.304   2.887
 5795TIP3   OH217329   2.634   2.718   0.955
 5795TIP3    H117330   2.667   2.707   1.045
 5795TIP3    H217331   2.547   2.756   0.966
 5796TIP3   OH217332   2.809   0.682   1.954
 5796TIP3    H117333   2.766   0.674   1.869
 5796TIP3    H217334   2.751   0.637   2.015
 5797TIP3   OH217335   1.741   6.080   6.242
 5797TIP3    H117336   1.775   6.168   6.224
 5797TIP3    H217337   1.646   6.090   6.242
 5798TIP3   OH217338   0.352   5.170   2.831
 5798TIP3    H117339   0.396   5.090   2.861
 5798TIP3    H217340   0.348   5.226   2.909
 5799TIP3   OH217341   0.747   3.703   2.480
 5799TIP3    H117342   0.737   3.675   2.571
 5799TIP3    H217343   0.835   3.676   2.455
 5800TIP3   OH217344   5.559   4.263   5.431
 5800TIP3    H117345   5.616   4.189   5.454
 5800TIP3    H217346   5.617   4.339   5.433
 5801TIP3   OH217347   0.177   6.215   3.282
 5801TIP3    H117348   0.207   6.283   3.221
 5801TIP3    H217349   0.257   6.181   3.321
 5802TIP3   OH217350   5.342   6.656   2.921
 5802TIP3    H117351   5.405   6.589   2.894
 5802TIP3    H217352   5.293   6.677   2.841
 5803TIP3   OH217353   8.151   0.431   6.539
 5803TIP3    H117354   8.095   0.367   6.496
 5803TIP3    H217355   8.134   0.514   6.493
 5804TIP3   OH217356   2.954   3.100   5.534
 5804TIP3    H117357   2.920   3.135   5.452
 5804TIP3    H217358   2.957   3.005   5.521
 5805TIP3   OH217359   0.914   1.715   1.973
 5805TIP3    H117360   0.846   1.762   1.925
 5805TIP3    H217361   0.942   1.645   1.914
 5806TIP3   OH217362   2.294   4.910   2.699
 5806TIP3    H117363   2.227   4.967   2.737
 5806TIP3    H217364   2.300   4.835   2.758
 5807TIP3   OH217365   4.240   0.391   1.431
 5807TIP3    H117366   4.229   0.297   1.422
 5807TIP3    H217367   4.314   0.412   1.374
 5808TIP3   OH217368   4.523   0.601   4.701
 5808TIP3    H117369   4.501   0.666   4.634
 5808TIP3    H217370   4.546   0.523   4.652
 5809TIP3   OH217371   8.168   1.381   4.089
 5809TIP3    H117372   8.142   1.300   4.046
 5809TIP3    H217373   8.119   1.449   4.043
 5810TIP3   OH217374   3.493   6.727   3.536
 5810TIP3    H117375   3.463   6.727   3.626
 5810TIP3    H217376   3.414   6.713   3.484
 5811TIP3   OH217377   7.083   0.694   2.006
 5811TIP3    H117378   7.153   0.671   1.945
 5811TIP3    H217379   7.007   0.710   1.950
 5812TIP3   OH217380   7.077   2.069   1.100
 5812TIP3    H117381   7.153   2.060   1.157
 5812TIP3    H217382   7.002   2.049   1.156
 5813TIP3   OH217383   2.640   2.030   6.034
 5813TIP3    H117384   2.710   2.027   5.969
 5813TIP3    H217385   2.622   1.938   6.054
 5814TIP3   OH217386   5.485   3.955   6.182
 5814TIP3    H117387   5.543   3.879   6.186
 5814TIP3    H217388   5.406   3.928   6.229
 5815TIP3   OH217389   4.807   6.231   4.136
 5815TIP3    H117390   4.736   6.266   4.190
 5815TIP3    H217391   4.870   6.302   4.130
 5816TIP3   OH217392   1.046   6.308   5.732
 5816TIP3    H117393   0.966   6.260   5.752
 5816TIP3    H217394   1.030   6.397   5.763
 5817TIP3   OH217395   2.766   4.537   0.432
 5817TIP3    H117396   2.728   4.621   0.460
 5817TIP3    H217397   2.720   4.517   0.350
 5818TIP3   OH217398   5.073   2.918   3.368
 5818TIP3    H117399   4.996   2.862   3.376
 5818TIP3    H217400   5.138   2.877   3.425
 5819TIP3   OH217401   6.304   6.772   0.904
 5819TIP3    H117402   6.275   6.722   0.828
 5819TIP3    H217403   6.372   6.831   0.871
 5820TIP3   OH217404   1.962   6.549   2.909
 5820TIP3    H117405   1.877   6.526   2.873
 5820TIP3    H217406   1.979   6.483   2.976
 5821TIP3   OH217407   3.601   3.019   1.509
 5821TIP3    H117408   3.522   3.061   1.543
 5821TIP3    H217409   3.672   3.077   1.537
 5822TIP3   OH217410   6.400   5.741   6.663
 5822TIP3    H117411   6.347   5.818   6.643
 5822TIP3    H217412   6.491   5.773   6.658
 5823TIP3   OH217413   5.639   5.385   0.683
 5823TIP3    H117414   5.645   5.305   0.735
 5823TIP3    H217415   5.545   5.405   0.681
 5824TIP3   OH217416   3.638   1.399   6.424
 5824TIP3    H117417   3.545   1.419   6.429
 5824TIP3    H217418   3.644   1.307   6.450
 5825TIP3   OH217419   7.568   4.392   6.052
 5825TIP3    H117420   7.490   4.447   6.062
 5825TIP3    H217421   7.589   4.363   6.140
 5826TIP3   OH217422   3.438   3.824   3.528
 5826TIP3    H117423   3.416   3.731   3.537
 5826TIP3    H217424   3.376   3.869   3.586
 5827TIP3   OH217425   8.077   7.268   0.932
 5827TIP3    H117426   8.133   7.269   0.855
 5827TIP3    H217427   8.003   7.325   0.909
 5828TIP3   OH217428   2.082   2.739   2.305
 5828TIP3    H117429   2.002   2.792   2.296
 5828TIP3    H217430   2.053   2.660   2.350
 5829TIP3   OH217431   6.599   5.534   2.306
 5829TIP3    H117432   6.531   5.602   2.302
 5829TIP3    H217433   6.592   5.499   2.395
 5830TIP3   OH217434   2.388   1.158   1.699
 5830TIP3    H117435   2.308   1.189   1.658
 5830TIP3    H217436   2.435   1.113   1.629
 5831TIP3   OH217437   0.159   3.649   1.220
 5831TIP3    H117438   0.082   3.688   1.177
 5831TIP3    H217439   0.228   3.714   1.208
 5832TIP3   OH217440   2.031   3.456   6.696
 5832TIP3    H117441   2.044   3.410   6.779
 5832TIP3    H217442   2.020   3.386   6.632
 5833TIP3   OH217443   2.111   0.813   5.592
 5833TIP3    H117444   2.107   0.826   5.498
 5833TIP3    H217445   2.106   0.901   5.630
 5834TIP3   OH217446   0.833   5.019   3.722
 5834TIP3    H117447   0.814   5.055   3.808
 5834TIP3    H217448   0.890   5.083   3.680
 5835TIP3   OH217449   0.860   1.570   5.289
 5835TIP3    H117450   0.861   1.485   5.245
 5835TIP3    H217451   0.926   1.622   5.243
 5836TIP3   OH217452   6.577   0.393   5.703
 5836TIP3    H117453   6.538   0.480   5.711
 5836TIP3    H217454   6.597   0.384   5.610
 5837TIP3   OH217455   3.602   4.207   5.883
 5837TIP3    H117456   3.533   4.142   5.899
 5837TIP3    H217457   3.676   4.176   5.935
 5838TIP3   OH217458   3.617   3.057   0.624
 5838TIP3    H117459   3.556   3.115   0.672
 5838TIP3    H217460   3.579   3.049   0.537
 5839TIP3   OH217461   0.474   0.655   2.927
 5839TIP3    H117462   0.508   0.709   2.856
 5839TIP3    H217463   0.407   0.709   2.969
 5840TIP3   OH217464   7.414   6.113   5.768
 5840TIP3    H117465   7.463   6.094   5.848
 5840TIP3    H217466   7.328   6.075   5.782
 5841TIP3   OH217467   3.838   3.177   1.541
 5841TIP3    H117468   3.866   3.201   1.453
 5841TIP3    H217469   3.808   3.259   1.580
 5842TIP3   OH217470   6.608   5.843   5.295
 5842TIP3    H117471   6.525   5.797   5.300
 5842TIP3    H217472   6.636   5.832   5.205
 5843TIP3   OH217473   5.499   4.050   4.951
 5843TIP3    H117474   5.566   3.992   4.989
 5843TIP3    H217475   5.449   4.081   5.026
 5844TIP3   OH217476   2.434   5.453   0.125
 5844TIP3    H117477   2.471   5.464   0.212
 5844TIP3    H217478   2.510   5.448   0.067
 5845TIP3   OH217479   1.625   6.902   1.664
 5845TIP3    H117480   1.647   6.989   1.630
 5845TIP3    H217481   1.586   6.918   1.749
 5846TIP3   OH217482   4.514   3.983   3.684
 5846TIP3    H117483   4.539   4.063   3.638
 5846TIP3    H217484   4.547   3.996   3.773
 5847TIP3   OH217485   8.030   4.926   2.616
 5847TIP3    H117486   7.961   4.870   2.581
 5847TIP3    H217487   8.022   4.918   2.711
 5848TIP3   OH217488   4.442   0.681   0.934
 5848TIP3    H117489   4.363   0.729   0.958
 5848TIP3    H217490   4.420   0.636   0.852
 5849TIP3   OH217491   5.449   0.107   5.659
 5849TIP3    H117492   5.415   0.067   5.739
 5849TIP3    H217493   5.461   0.199   5.682
 5850TIP3   OH217494   3.447   5.413   4.482
 5850TIP3    H117495   3.384   5.342   4.481
 5850TIP3    H217496   3.492   5.405   4.566
 5851TIP3   OH217497   6.343   5.620   5.000
 5851TIP3    H117498   6.272   5.681   5.021
 5851TIP3    H217499   6.401   5.670   4.943
 5852TIP3   OH217500   0.585   4.438   5.588
 5852TIP3    H117501   0.508   4.452   5.642
 5852TIP3    H217502   0.597   4.343   5.586
 5853TIP3   OH217503   5.030   5.062   2.964
 5853TIP3    H117504   5.032   5.044   2.870
 5853TIP3    H217505   5.119   5.041   2.994
 5854TIP3   OH217506   2.526   1.527   5.840
 5854TIP3    H117507   2.621   1.519   5.851
 5854TIP3    H217508   2.489   1.462   5.899
 5855TIP3   OH217509   0.068   4.926   0.802
 5855TIP3    H117510   0.132   4.863   0.836
 5855TIP3    H217511   0.120   5.003   0.779
 5856TIP3   OH217512   1.722   5.883   3.670
 5856TIP3    H117513   1.755   5.943   3.604
 5856TIP3    H217514   1.668   5.937   3.727
 5857TIP3   OH217515   1.979   7.608   2.292
 5857TIP3    H117516   1.961   7.628   2.200
 5857TIP3    H217517   1.916   7.661   2.341
 5858TIP3   OH217518   4.108   2.778   2.218
 5858TIP3    H117519   4.055   2.846   2.260
 5858TIP3    H217520   4.198   2.796   2.246
 5859TIP3   OH217521   4.623   7.057   6.258
 5859TIP3    H117522   4.666   7.009   6.186
 5859TIP3    H217523   4.532   7.030   6.253
 5860TIP3   OH217524   6.232   1.511   5.171
 5860TIP3    H117525   6.137   1.498   5.175
 5860TIP3    H217526   6.250   1.528   5.078
 5861TIP3   OH217527   3.532   6.717   1.385
 5861TIP3    H117528   3.604   6.687   1.441
 5861TIP3    H217529   3.483   6.638   1.363
 5862TIP3   OH217530   7.974   0.373   2.604
 5862TIP3    H117531   8.004   0.284   2.625
 5862TIP3    H217532   7.925   0.363   2.523
 5863TIP3   OH217533   1.541   5.365   2.459
 5863TIP3    H117534   1.463   5.310   2.465
 5863TIP3    H217535   1.563   5.388   2.549
 5864TIP3   OH217536   6.333   3.890   5.186
 5864TIP3    H117537   6.340   3.919   5.095
 5864TIP3    H217538   6.275   3.814   5.183
 5865TIP3   OH217539   3.882   4.441   4.656
 5865TIP3    H117540   3.858   4.412   4.568
 5865TIP3    H217541   3.801   4.478   4.692
 5866TIP3   OH217542   1.769   1.093   0.509
 5866TIP3    H117543   1.693   1.075   0.454
 5866TIP3    H217544   1.843   1.055   0.460
 5867TIP3   OH217545   7.881   3.387   4.648
 5867TIP3    H117546   7.959   3.370   4.595
 5867TIP3    H217547   7.895   3.334   4.727
 5868TIP3   OH217548   6.275   2.091   5.108
 5868TIP3    H117549   6.289   2.176   5.148
 5868TIP3    H217550   6.359   2.069   5.067
 5869TIP3   OH217551   1.393   4.491   0.408
 5869TIP3    H117552   1.446   4.542   0.347
 5869TIP3    H217553   1.454   4.461   0.475
 5870TIP3   OH217554   7.752   1.944   6.133
 5870TIP3    H117555   7.712   1.998   6.202
 5870TIP3    H217556   7.837   1.984   6.118
 5871TIP3   OH217557   6.350   0.360   5.966
 5871TIP3    H117558   6.289   0.333   5.897
 5871TIP3    H217559   6.437   0.341   5.931
 5872TIP3   OH217560   1.325   4.648   1.650
 5872TIP3    H117561   1.284   4.665   1.735
 5872TIP3    H217562   1.263   4.593   1.603
 5873TIP3   OH217563   1.844   2.303   4.750
 5873TIP3    H117564   1.883   2.319   4.664
 5873TIP3    H217565   1.816   2.211   4.747
 5874TIP3   OH217566   0.459   2.129   1.281
 5874TIP3    H117567   0.446   2.037   1.260
 5874TIP3    H217568   0.438   2.136   1.374
 5875TIP3   OH217569   0.743   7.247   6.358
 5875TIP3    H117570   0.812   7.292   6.407
 5875TIP3    H217571   0.790   7.191   6.296
 5876TIP3   OH217572   2.812   6.068   1.548
 5876TIP3    H117573   2.782   6.102   1.632
 5876TIP3    H217574   2.761   6.117   1.483
 5877TIP3   OH217575   5.040   1.084   5.400
 5877TIP3    H117576   5.042   1.091   5.305
 5877TIP3    H217577   5.058   1.173   5.431
 5878TIP3   OH217578   7.193   1.650   0.616
 5878TIP3    H117579   7.122   1.692   0.664
 5878TIP3    H217580   7.150   1.584   0.561
 5879TIP3   OH217581   5.055   3.344   0.160
 5879TIP3    H117582   5.104   3.425   0.144
 5879TIP3    H217583   5.071   3.292   0.081
 5880TIP3   OH217584   7.654   6.650   1.832
 5880TIP3    H117585   7.592   6.722   1.823
 5880TIP3    H217586   7.721   6.668   1.766
 5881TIP3   OH217587   6.063   7.419   6.134
 5881TIP3    H117588   5.987   7.473   6.117
 5881TIP3    H217589   6.084   7.380   6.048
 5882TIP3   OH217590   0.417   2.142   1.563
 5882TIP3    H117591   0.444   2.099   1.644
 5882TIP3    H217592   0.322   2.135   1.563
 5883TIP3   OH217593   3.116   7.474   2.893
 5883TIP3    H117594   3.064   7.412   2.842
 5883TIP3    H217595   3.097   7.559   2.853
 5884TIP3   OH217596   6.281   3.266   2.518
 5884TIP3    H117597   6.188   3.246   2.507
 5884TIP3    H217598   6.284   3.362   2.520
 5885TIP3   OH217599   6.287   2.129   5.616
 5885TIP3    H117600   6.192   2.123   5.629
 5885TIP3    H217601   6.314   2.205   5.666
 5886TIP3   OH217602   3.089   6.890   1.280
 5886TIP3    H117603   3.002   6.913   1.246
 5886TIP3    H217604   3.144   6.965   1.257
 5887TIP3   OH217605   0.587   4.011   2.281
 5887TIP3    H117606   0.638   4.015   2.200
 5887TIP3    H217607   0.520   4.079   2.270
 5888TIP3   OH217608   7.711   0.925   3.032
 5888TIP3    H117609   7.760   1.004   3.052
 5888TIP3    H217610   7.698   0.928   2.937
 5889TIP3   OH217611   1.600   3.600   4.287
 5889TIP3    H117612   1.533   3.641   4.232
 5889TIP3    H217613   1.675   3.659   4.282
 5890TIP3   OH217614   7.172   3.206   1.658
 5890TIP3    H117615   7.112   3.280   1.649
 5890TIP3    H217616   7.151   3.169   1.744
 5891TIP3   OH217617   3.883   3.898   4.488
 5891TIP3    H117618   3.952   3.857   4.437
 5891TIP3    H217619   3.831   3.947   4.423
 5892TIP3   OH217620   1.799   2.437   0.534
 5892TIP3    H117621   1.836   2.495   0.467
 5892TIP3    H217622   1.830   2.350   0.510
 5893TIP3   OH217623   1.969   5.301   6.140
 5893TIP3    H117624   1.950   5.351   6.061
 5893TIP3    H217625   2.064   5.311   6.152
 5894TIP3   OH217626   0.178   0.532   0.804
 5894TIP3    H117627   0.267   0.497   0.802
 5894TIP3    H217628   0.187   0.623   0.776
 5895TIP3   OH217629   5.913   1.658   6.790
 5895TIP3    H117630   5.905   1.568   6.760
 5895TIP3    H217631   5.944   1.706   6.713
 5896TIP3   OH217632   6.231   7.626   5.102
 5896TIP3    H117633   6.188   7.675   5.033
 5896TIP3    H217634   6.190   7.657   5.183
 5897TIP3   OH217635   0.360   5.641   2.313
 5897TIP3    H117636   0.401   5.685   2.386
 5897TIP3    H217637   0.427   5.581   2.280
 5898TIP3   OH217638   0.719   2.090   3.356
 5898TIP3    H117639   0.647   2.093   3.293
 5898TIP3    H217640   0.693   2.023   3.419
 5899TIP3   OH217641   2.352   6.038   6.275
 5899TIP3    H117642   2.343   6.079   6.360
 5899TIP3    H217643   2.326   5.947   6.289
 5900TIP3   OH217644   7.023   5.981   5.840
 5900TIP3    H117645   7.027   5.919   5.767
 5900TIP3    H217646   7.108   5.973   5.883
 5901TIP3   OH217647   5.801   3.416   5.704
 5901TIP3    H117648   5.897   3.414   5.707
 5901TIP3    H217649   5.779   3.400   5.612
 5902TIP3   OH217650   7.045   2.808   1.988
 5902TIP3    H117651   7.022   2.901   1.989
 5902TIP3    H217652   7.004   2.773   1.909
 5903TIP3   OH217653   5.048   3.612   6.244
 5903TIP3    H117654   5.044   3.600   6.339
 5903TIP3    H217655   5.129   3.661   6.230
 5904TIP3   OH217656   0.039   2.821   2.980
 5904TIP3    H117657  -0.007   2.739   2.967
 5904TIP3    H217658   0.101   2.803   3.050
 5905TIP3   OH217659   0.125   1.782   3.510
 5905TIP3    H117660   0.101   1.730   3.586
 5905TIP3    H217661   0.047   1.832   3.489
 5906TIP3   OH217662   4.436   1.417   0.362
 5906TIP3    H117663   4.407   1.443   0.274
 5906TIP3    H217664   4.356   1.390   0.407
 5907TIP3   OH217665   7.518   7.140   4.009
 5907TIP3    H117666   7.449   7.196   4.044
 5907TIP3    H217667   7.544   7.084   4.082
 5908TIP3   OH217668   5.456   0.607   3.182
 5908TIP3    H117669   5.471   0.661   3.259
 5908TIP3    H217670   5.385   0.548   3.208
 5909TIP3   OH217671   5.672   3.121   2.649
 5909TIP3    H117672   5.766   3.104   2.641
 5909TIP3    H217673   5.649   3.088   2.736
 5910TIP3   OH217674   4.372   3.492   2.982
 5910TIP3    H117675   4.295   3.526   3.027
 5910TIP3    H217676   4.340   3.414   2.936
 5911TIP3   OH217677   0.484   4.178   4.797
 5911TIP3    H117678   0.567   4.131   4.791
 5911TIP3    H217679   0.418   4.113   4.774
 5912TIP3   OH217680   7.542   2.451   2.528
 5912TIP3    H117681   7.510   2.370   2.567
 5912TIP3    H217682   7.465   2.489   2.486
 5913TIP3   OH217683   5.091   6.799   4.248
 5913TIP3    H117684   5.087   6.722   4.305
 5913TIP3    H217685   5.147   6.861   4.295
 5914TIP3   OH217686   6.729   3.263   0.927
 5914TIP3    H117687   6.815   3.304   0.914
 5914TIP3    H217688   6.672   3.309   0.866
 5915TIP3   OH217689   4.261   6.028   6.038
 5915TIP3    H117690   4.313   5.966   6.089
 5915TIP3    H217691   4.247   5.984   5.954
 5916TIP3   OH217692   2.617   5.159   4.640
 5916TIP3    H117693   2.640   5.070   4.667
 5916TIP3    H217694   2.696   5.192   4.596
 5917TIP3   OH217695   1.951   1.753   2.473
 5917TIP3    H117696   1.884   1.711   2.419
 5917TIP3    H217697   1.932   1.847   2.467
 5918TIP3   OH217698   6.852   5.040   1.956
 5918TIP3    H117699   6.919   4.975   1.935
 5918TIP3    H217700   6.869   5.064   2.047
 5919TIP3   OH217701   7.461   7.024   6.260
 5919TIP3    H117702   7.421   6.981   6.185
 5919TIP3    H217703   7.388   7.036   6.322
 5920TIP3   OH217704   3.416   1.542   1.612
 5920TIP3    H117705   3.345   1.595   1.647
 5920TIP3    H217706   3.408   1.458   1.658
 5921TIP3   OH217707   6.015   6.374   2.440
 5921TIP3    H117708   5.974   6.288   2.450
 5921TIP3    H217709   6.105   6.361   2.469
 5922TIP3   OH217710   4.241   1.448   1.455
 5922TIP3    H117711   4.225   1.538   1.428
 5922TIP3    H217712   4.305   1.415   1.391
 5923TIP3   OH217713   4.493   7.042   5.771
 5923TIP3    H117714   4.428   7.049   5.841
 5923TIP3    H217715   4.524   7.132   5.759
 5924TIP3   OH217716   6.268   1.476   4.004
 5924TIP3    H117717   6.191   1.462   4.058
 5924TIP3    H217718   6.238   1.533   3.933
 5925TIP3   OH217719   4.505   0.857   2.665
 5925TIP3    H117720   4.592   0.895   2.681
 5925TIP3    H217721   4.521   0.764   2.652
 5926TIP3   OH217722   3.381   4.928   6.039
 5926TIP3    H117723   3.365   4.897   5.950
 5926TIP3    H217724   3.418   5.016   6.027
 5927TIP3   OH217725   4.199   2.290   3.468
 5927TIP3    H117726   4.111   2.302   3.433
 5927TIP3    H217727   4.191   2.307   3.562
 5928TIP3   OH217728   0.481   6.194   1.149
 5928TIP3    H117729   0.402   6.156   1.112
 5928TIP3    H217730   0.528   6.230   1.074
 5929TIP3   OH217731   4.336   2.986   4.752
 5929TIP3    H117732   4.343   2.994   4.656
 5929TIP3    H217733   4.294   3.068   4.779
 5930TIP3   OH217734   7.347   0.455   4.569
 5930TIP3    H117735   7.414   0.393   4.600
 5930TIP3    H217736   7.368   0.469   4.477
 5931TIP3   OH217737   3.731   3.616   2.754
 5931TIP3    H117738   3.691   3.603   2.668
 5931TIP3    H217739   3.809   3.562   2.752
 5932TIP3   OH217740   4.299   6.471   2.416
 5932TIP3    H117741   4.316   6.452   2.324
 5932TIP3    H217742   4.376   6.439   2.463
 5933TIP3   OH217743   6.543   4.071   5.204
 5933TIP3    H117744   6.451   4.049   5.218
 5933TIP3    H217745   6.584   3.987   5.183
 5934TIP3   OH217746   3.119   3.724   4.306
 5934TIP3    H117747   3.046   3.725   4.244
 5934TIP3    H217748   3.086   3.772   4.382
 5935TIP3   OH217749   5.835   1.964   0.195
 5935TIP3    H117750   5.861   1.873   0.181
 5935TIP3    H217751   5.751   1.958   0.241
 5936TIP3   OH217752   8.114   7.020   3.183
 5936TIP3    H117753   8.073   6.937   3.161
 5936TIP3    H217754   8.049   7.086   3.160
 5937TIP3   OH217755   0.591   5.520   5.897
 5937TIP3    H117756   0.620   5.602   5.856
 5937TIP3    H217757   0.654   5.455   5.865
 5938TIP3   OH217758   0.948   6.162   1.146
 5938TIP3    H117759   0.872   6.146   1.089
 5938TIP3    H217760   0.985   6.244   1.114
 5939TIP3   OH217761   5.486   4.516   3.885
 5939TIP3    H117762   5.409   4.550   3.840
 5939TIP3    H217763   5.472   4.541   3.977
 5940TIP3   OH217764   3.795   3.593   3.425
 5940TIP3    H117765   3.847   3.668   3.455
 5940TIP3    H217766   3.783   3.608   3.331
 5941TIP3   OH217767   0.308   6.372   6.539
 5941TIP3    H117768   0.385   6.328   6.575
 5941TIP3    H217769   0.253   6.390   6.616
 5942TIP3   OH217770   3.484   6.407   3.453
 5942TIP3    H117771   3.536   6.446   3.383
 5942TIP3    H217772   3.408   6.466   3.462
 5943TIP3   OH217773   2.832   3.144   6.536
 5943TIP3    H117774   2.844   3.154   6.631
 5943TIP3    H217775   2.872   3.222   6.498
 5944TIP3   OH217776   6.833   3.583   3.033
 5944TIP3    H117777   6.884   3.660   3.059
 5944TIP3    H217778   6.753   3.589   3.085
 5945TIP3   OH217779   0.405   6.900   1.918
 5945TIP3    H117780   0.455   6.952   1.982
 5945TIP3    H217781   0.326   6.875   1.965
 5946TIP3   OH217782   3.246   5.216   6.476
 5946TIP3    H117783   3.299   5.174   6.543
 5946TIP3    H217784   3.266   5.310   6.485
 5947TIP3   OH217785   3.973   3.126   3.914
 5947TIP3    H117786   3.997   3.148   4.004
 5947TIP3    H217787   3.999   3.035   3.904
 5948TIP3   OH217788   0.831   0.381   2.051
 5948TIP3    H117789   0.800   0.456   2.001
 5948TIP3    H217790   0.911   0.412   2.093
 5949TIP3   OH217791   4.306   7.823   3.015
 5949TIP3    H117792   4.220   7.837   2.976
 5949TIP3    H217793   4.295   7.746   3.071
 5950TIP3   OH217794   0.422   1.176   1.597
 5950TIP3    H117795   0.368   1.097   1.592
 5950TIP3    H217796   0.359   1.246   1.614
 5951TIP3   OH217797   7.305   3.543   0.145
 5951TIP3    H117798   7.263   3.500   0.071
 5951TIP3    H217799   7.250   3.519   0.220
 5952TIP3   OH217800   6.229   7.504   1.393
 5952TIP3    H117801   6.158   7.481   1.453
 5952TIP3    H217802   6.282   7.425   1.387
 5953TIP3   OH217803   4.773   3.338   3.114
 5953TIP3    H117804   4.789   3.252   3.075
 5953TIP3    H217805   4.859   3.379   3.118
 5954TIP3   OH217806   5.102   5.228   4.189
 5954TIP3    H117807   5.140   5.310   4.220
 5954TIP3    H217808   5.008   5.245   4.185
 5955TIP3   OH217809   5.788   7.555   1.967
 5955TIP3    H117810   5.882   7.573   1.969
 5955TIP3    H217811   5.765   7.534   2.058
 5956TIP3   OH217812   1.828   4.434   6.085
 5956TIP3    H117813   1.851   4.346   6.054
 5956TIP3    H217814   1.750   4.422   6.138
 5957TIP3   OH217815   6.223   2.433   5.430
 5957TIP3    H117816   6.176   2.350   5.440
 5957TIP3    H217817   6.309   2.416   5.468
 5958TIP3   OH217818   7.202   5.982   4.619
 5958TIP3    H117819   7.252   5.958   4.541
 5958TIP3    H217820   7.221   6.075   4.631
 5959TIP3   OH217821   0.866   2.702   2.403
 5959TIP3    H117822   0.826   2.784   2.376
 5959TIP3    H217823   0.796   2.638   2.397
 5960TIP3   OH217824   3.967   5.962   1.475
 5960TIP3    H117825   3.912   5.915   1.537
 5960TIP3    H217826   4.045   5.984   1.525
 5961TIP3   OH217827   3.795   5.302   2.735
 5961TIP3    H117828   3.799   5.207   2.738
 5961TIP3    H217829   3.795   5.330   2.826
 5962TIP3   OH217830   5.154   2.070   2.171
 5962TIP3    H117831   5.059   2.076   2.178
 5962TIP3    H217832   5.174   1.978   2.192
 5963TIP3   OH217833   7.508   1.840   3.967
 5963TIP3    H117834   7.594   1.798   3.956
 5963TIP3    H217835   7.528   1.925   4.004
 5964TIP3   OH217836   4.223   4.049   0.855
 5964TIP3    H117837   4.254   4.135   0.826
 5964TIP3    H217838   4.143   4.067   0.903
 5965TIP3   OH217839   0.197   3.704   0.604
 5965TIP3    H117840   0.250   3.756   0.665
 5965TIP3    H217841   0.169   3.628   0.654
 5966TIP3   OH217842   6.916   2.099   5.773
 5966TIP3    H117843   6.854   2.101   5.846
 5966TIP3    H217844   6.863   2.115   5.696
 5967TIP3   OH217845   5.870   3.837   4.560
 5967TIP3    H117846   5.808   3.801   4.623
 5967TIP3    H217847   5.850   3.930   4.557
 5968TIP3   OH217848   4.212   1.940   0.639
 5968TIP3    H117849   4.236   1.878   0.570
 5968TIP3    H217850   4.291   1.993   0.652
 5969TIP3   OH217851   4.627   6.813   3.642
 5969TIP3    H117852   4.664   6.779   3.560
 5969TIP3    H217853   4.685   6.885   3.666
 5970TIP3   OH217854   7.695   2.885   1.547
 5970TIP3    H117855   7.746   2.805   1.560
 5970TIP3    H217856   7.653   2.873   1.462
 5971TIP3   OH217857   2.148   6.670   3.181
 5971TIP3    H117858   2.055   6.667   3.206
 5971TIP3    H217859   2.175   6.578   3.181
 5972TIP3   OH217860   6.255   6.407   1.040
 5972TIP3    H117861   6.271   6.391   0.947
 5972TIP3    H217862   6.162   6.386   1.051
 5973TIP3   OH217863   3.583   3.687   5.684
 5973TIP3    H117864   3.564   3.606   5.732
 5973TIP3    H217865   3.650   3.662   5.621
 5974TIP3   OH217866   0.092   6.667   1.606
 5974TIP3    H117867   0.088   6.657   1.701
 5974TIP3    H217868   0.043   6.592   1.572
 5975TIP3   OH217869   6.397   2.996   4.028
 5975TIP3    H117870   6.443   3.030   4.105
 5975TIP3    H217871   6.464   2.995   3.959
 5976TIP3   OH217872   2.879   6.855   0.395
 5976TIP3    H117873   2.880   6.941   0.437
 5976TIP3    H217874   2.898   6.794   0.466
 5977TIP3   OH217875   6.262   4.174   3.286
 5977TIP3    H117876   6.304   4.094   3.253
 5977TIP3    H217877   6.333   4.223   3.327
 5978TIP3   OH217878   8.115   1.369   5.804
 5978TIP3    H117879   8.074   1.377   5.890
 5978TIP3    H217880   8.065   1.301   5.759
 5979TIP3   OH217881   2.537   6.419   2.103
 5979TIP3    H117882   2.506   6.370   2.179
 5979TIP3    H217883   2.570   6.502   2.139
 5980TIP3   OH217884   5.142   6.896   2.883
 5980TIP3    H117885   5.162   6.848   2.802
 5980TIP3    H217886   5.211   6.962   2.889
 5981TIP3   OH217887   3.465   1.547   2.049
 5981TIP3    H117888   3.525   1.618   2.028
 5981TIP3    H217889   3.379   1.589   2.053
 5982TIP3   OH217890   0.235   2.211   1.121
 5982TIP3    H117891   0.323   2.173   1.117
 5982TIP3    H217892   0.189   2.157   1.186
 5983TIP3   OH217893   1.375   2.927   0.214
 5983TIP3    H117894   1.466   2.902   0.198
 5983TIP3    H217895   1.337   2.938   0.127
 5984TIP3   OH217896   3.917   1.607   4.643
 5984TIP3    H117897   3.982   1.611   4.714
 5984TIP3    H217898   3.885   1.696   4.634
 5985TIP3   OH217899   1.020   3.658   3.942
 5985TIP3    H117900   0.977   3.721   3.885
 5985TIP3    H217901   1.090   3.621   3.888
 5986TIP3   OH217902   1.874   0.332   2.106
 5986TIP3    H117903   1.801   0.385   2.136
 5986TIP3    H217904   1.850   0.242   2.130
 5987TIP3   OH217905   5.221   6.664   1.385
 5987TIP3    H117906   5.224   6.701   1.473
 5987TIP3    H217907   5.285   6.593   1.386
 5988TIP3   OH217908   0.001   7.378   0.320
 5988TIP3    H117909   0.046   7.458   0.344
 5988TIP3    H217910  -0.067   7.407   0.259
 5989TIP3   OH217911   3.884   3.485   5.023
 5989TIP3    H117912   3.908   3.413   5.081
 5989TIP3    H217913   3.895   3.564   5.077
 5990TIP3   OH217914   3.810   4.209   0.655
 5990TIP3    H117915   3.720   4.175   0.655
 5990TIP3    H217916   3.836   4.207   0.748
 5991TIP3   OH217917   0.061   0.723   2.240
 5991TIP3    H117918   0.145   0.764   2.257
 5991TIP3    H217919   0.013   0.786   2.187
 5992TIP3   OH217920   5.102   7.453   6.517
 5992TIP3    H117921   5.022   7.505   6.514
 5992TIP3    H217922   5.173   7.517   6.520
 5993TIP3   OH217923   1.548   4.594   4.001
 5993TIP3    H117924   1.614   4.559   4.061
 5993TIP3    H217925   1.591   4.670   3.961
 5994TIP3   OH217926   1.856   2.815   0.435
 5994TIP3    H117927   1.905   2.760   0.496
 5994TIP3    H217928   1.889   2.904   0.450
 5995TIP3   OH217929   7.060   6.837   3.277
 5995TIP3    H117930   7.067   6.931   3.296
 5995TIP3    H217931   7.030   6.798   3.359
 5996TIP3   OH217932   8.141   2.797   0.332
 5996TIP3    H117933   8.074   2.809   0.399
 5996TIP3    H217934   8.215   2.850   0.362
 5997TIP3   OH217935   5.105   1.998   0.654
 5997TIP3    H117936   5.141   2.057   0.588
 5997TIP3    H217937   5.167   2.001   0.726
 5998TIP3   OH217938   2.979   7.117   0.488
 5998TIP3    H117939   2.894   7.151   0.459
 5998TIP3    H217940   3.042   7.186   0.466
 5999TIP3   OH217941   6.659   6.674   2.069
 5999TIP3    H117942   6.697   6.754   2.104
 5999TIP3    H217943   6.573   6.669   2.111
 6000TIP3   OH217944   7.347   6.028   5.388
 6000TIP3    H117945   7.369   5.967   5.317
 6000TIP3    H217946   7.368   5.979   5.468
 6001TIP3   OH217947   6.647   3.795   5.163
 6001TIP3    H117948   6.571   3.737   5.172
 6001TIP3    H217949   6.721   3.736   5.151
 6002TIP3   OH217950   4.385   2.722   2.193
 6002TIP3    H117951   4.444   2.798   2.197
 6002TIP3    H217952   4.365   2.713   2.100
 6003TIP3   OH217953   0.749   5.879   1.479
 6003TIP3    H117954   0.802   5.842   1.408
 6003TIP3    H217955   0.682   5.931   1.434
 6004TIP3   OH217956   5.517   0.384   6.768
 6004TIP3    H117957   5.517   0.316   6.836
 6004TIP3    H217958   5.595   0.364   6.715
 6005TIP3   OH217959   6.166   2.175   0.459
 6005TIP3    H117960   6.098   2.108   0.463
 6005TIP3    H217961   6.233   2.137   0.402
 6006TIP3   OH217962   2.698   2.507   6.438
 6006TIP3    H117963   2.731   2.596   6.445
 6006TIP3    H217964   2.657   2.490   6.523
 6007TIP3   OH217965   0.549   6.747   0.171
 6007TIP3    H117966   0.627   6.776   0.218
 6007TIP3    H217967   0.579   6.675   0.116
 6008TIP3   OH217968   1.367   6.885   1.212
 6008TIP3    H117969   1.322   6.901   1.128
 6008TIP3    H217970   1.313   6.820   1.256
 6009TIP3   OH217971   1.101   3.639   6.688
 6009TIP3    H117972   1.029   3.578   6.671
 6009TIP3    H217973   1.064   3.703   6.748
 6010TIP3   OH217974   3.992   4.011   6.713
 6010TIP3    H117975   3.899   4.029   6.696
 6010TIP3    H217976   4.030   3.994   6.627
 6011TIP3   OH217977   8.055   7.595   2.102
 6011TIP3    H117978   7.993   7.614   2.172
 6011TIP3    H217979   8.112   7.527   2.138
 6012TIP3   OH217980   6.054   6.800   2.478
 6012TIP3    H117981   6.056   6.734   2.410
 6012TIP3    H217982   6.140   6.793   2.520
 6013TIP3   OH217983   6.894   0.875   2.658
 6013TIP3    H117984   6.811   0.869   2.610
 6013TIP3    H217985   6.870   0.855   2.749
 6014TIP3   OH217986   2.097   4.397   1.604
 6014TIP3    H117987   2.172   4.347   1.571
 6014TIP3    H217988   2.106   4.392   1.699
 6015TIP3   OH217989   0.570   3.909   1.869
 6015TIP3    H117990   0.598   3.840   1.930
 6015TIP3    H217991   0.617   3.987   1.898
 6016TIP3   OH217992   5.831   3.355   5.235
 6016TIP3    H117993   5.817   3.273   5.187
 6016TIP3    H217994   5.907   3.395   5.192
 6017TIP3   OH217995   1.065   7.379   2.192
 6017TIP3    H117996   1.141   7.401   2.245
 6017TIP3    H217997   1.009   7.328   2.251
 6018TIP3   OH217998   4.104   7.252   0.036
 6018TIP3    H117999   4.098   7.267  -0.059
 6018TIP3    H218000   4.016   7.226   0.061
 6019TIP3   OH218001   0.861   5.700   4.207
 6019TIP3    H118002   0.797   5.633   4.185
 6019TIP3    H218003   0.909   5.715   4.126
 6020TIP3   OH218004   8.123   3.657   3.957
 6020TIP3    H118005   8.168   3.576   3.981
 6020TIP3    H218006   8.182   3.700   3.894
 6021TIP3   OH218007   6.889   1.110   4.670
 6021TIP3    H118008   6.895   1.187   4.726
 6021TIP3    H218009   6.812   1.063   4.703
 6022TIP3   OH218010   2.474   0.604   3.119
 6022TIP3    H118011   2.418   0.526   3.123
 6022TIP3    H218012   2.450   0.646   3.036
 6023TIP3   OH218013   5.386   7.201   3.587
 6023TIP3    H118014   5.478   7.221   3.569
 6023TIP3    H218015   5.368   7.121   3.538
 6024TIP3   OH218016   5.152   7.818   4.017
 6024TIP3    H118017   5.083   7.754   4.001
 6024TIP3    H218018   5.233   7.768   4.006
 6025TIP3   OH218019   0.934   4.592   5.333
 6025TIP3    H118020   1.026   4.601   5.359
 6025TIP3    H218021   0.938   4.542   5.251
 6026TIP3   OH218022   4.803   1.713   5.593
 6026TIP3    H118023   4.832   1.679   5.678
 6026TIP3    H218024   4.884   1.726   5.543
 6027TIP3   OH218025   0.184   1.092   3.957
 6027TIP3    H118026   0.199   1.012   3.907
 6027TIP3    H218027   0.272   1.125   3.976
 6028TIP3   OH218028   1.634   7.564   4.393
 6028TIP3    H118029   1.679   7.603   4.318
 6028TIP3    H218030   1.673   7.477   4.401
 6029TIP3   OH218031   1.337   4.941   1.062
 6029TIP3    H118032   1.330   4.856   1.106
 6029TIP3    H218033   1.257   4.948   1.010
 6030TIP3   OH218034   1.926   7.469   4.114
 6030TIP3    H118035   1.949   7.517   4.193
 6030TIP3    H218036   1.864   7.403   4.143
 6031TIP3   OH218037   3.471   5.347   0.712
 6031TIP3    H118038   3.466   5.297   0.793
 6031TIP3    H218039   3.450   5.284   0.643
 6032TIP3   OH218040   6.722   7.640   3.500
 6032TIP3    H118041   6.809   7.633   3.539
 6032TIP3    H218042   6.738   7.672   3.412
 6033TIP3   OH218043   2.782   5.861   2.931
 6033TIP3    H118044   2.727   5.795   2.972
 6033TIP3    H218045   2.871   5.835   2.954
 6034TIP3   OH218046   5.045   1.609   2.839
 6034TIP3    H118047   4.967   1.663   2.828
 6034TIP3    H218048   5.011   1.520   2.851
 6035TIP3   OH218049   5.481   5.834   5.238
 6035TIP3    H118050   5.527   5.757   5.204
 6035TIP3    H218051   5.417   5.855   5.170
 6036TIP3   OH218052   6.287   1.940   5.420
 6036TIP3    H118053   6.280   1.886   5.499
 6036TIP3    H218054   6.336   2.017   5.448
 6037TIP3   OH218055   0.930   7.732   1.894
 6037TIP3    H118056   0.965   7.682   1.968
 6037TIP3    H218057   1.003   7.739   1.833
 6038TIP3   OH218058   0.537   1.291   6.645
 6038TIP3    H118059   0.445   1.296   6.621
 6038TIP3    H218060   0.548   1.202   6.679
 6039TIP3   OH218061   2.010   4.566   2.916
 6039TIP3    H118062   2.026   4.571   2.821
 6039TIP3    H218063   1.984   4.475   2.930
 6040TIP3   OH218064   7.403   0.837   3.457
 6040TIP3    H118065   7.459   0.817   3.382
 6040TIP3    H218066   7.441   0.917   3.494
 6041TIP3   OH218067   5.554   5.093   3.587
 6041TIP3    H118068   5.625   5.085   3.523
 6041TIP3    H218069   5.595   5.070   3.671
 6042TIP3   OH218070   1.889   4.514   6.686
 6042TIP3    H118071   1.867   4.607   6.685
 6042TIP3    H218072   1.851   4.481   6.767
 6043TIP3   OH218073   4.793   4.100   2.634
 6043TIP3    H118074   4.751   4.031   2.582
 6043TIP3    H218075   4.886   4.086   2.621
 6044TIP3   OH218076   7.057   0.303   1.790
 6044TIP3    H118077   7.109   0.317   1.869
 6044TIP3    H218078   7.016   0.218   1.803
 6045TIP3   OH218079   4.648   3.588   5.208
 6045TIP3    H118080   4.697   3.583   5.125
 6045TIP3    H218081   4.692   3.658   5.256
 6046TIP3   OH218082   1.653   6.303   0.472
 6046TIP3    H118083   1.738   6.297   0.516
 6046TIP3    H218084   1.669   6.273   0.383
 6047TIP3   OH218085   5.087   1.404   0.985
 6047TIP3    H118086   5.098   1.314   0.954
 6047TIP3    H218087   5.167   1.449   0.957
 6048TIP3   OH218088   2.697   0.290   3.917
 6048TIP3    H118089   2.766   0.271   3.981
 6048TIP3    H218090   2.734   0.357   3.860
 6049TIP3   OH218091   8.151   5.357   4.528
 6049TIP3    H118092   8.159   5.438   4.578
 6049TIP3    H218093   8.204   5.294   4.577
 6050TIP3   OH218094   2.228   4.145   2.865
 6050TIP3    H118095   2.304   4.087   2.875
 6050TIP3    H218096   2.233   4.205   2.939
 6051TIP3   OH218097   3.627   2.056   2.120
 6051TIP3    H118098   3.626   2.149   2.098
 6051TIP3    H218099   3.719   2.038   2.141
 6052TIP3   OH218100   2.620   0.142   5.697
 6052TIP3    H118101   2.675   0.128   5.620
 6052TIP3    H218102   2.661   0.089   5.765
 6053TIP3   OH218103   0.347   3.179   2.904
 6053TIP3    H118104   0.293   3.129   2.843
 6053TIP3    H218105   0.433   3.139   2.898
 6054TIP3   OH218106   0.987   1.837   5.582
 6054TIP3    H118107   1.005   1.748   5.552
 6054TIP3    H218108   1.064   1.860   5.633
 6055TIP3   OH218109   4.729   1.854   2.070
 6055TIP3    H118110   4.775   1.895   2.143
 6055TIP3    H218111   4.695   1.927   2.018
 6056TIP3   OH218112   3.644   3.085   6.469
 6056TIP3    H118113   3.598   3.009   6.436
 6056TIP3    H218114   3.736   3.057   6.477
 6057TIP3   OH218115   7.489   6.815   3.614
 6057TIP3    H118116   7.403   6.854   3.599
 6057TIP3    H218117   7.480   6.725   3.583
 6058TIP3   OH218118   3.058   0.903   6.124
 6058TIP3    H118119   3.104   0.983   6.100
 6058TIP3    H218120   2.977   0.934   6.166
 6059TIP3   OH218121   7.081   7.520   0.991
 6059TIP3    H118122   7.091   7.551   0.901
 6059TIP3    H218123   7.147   7.569   1.040
 6060TIP3   OH218124   3.786   7.206   1.232
 6060TIP3    H118125   3.772   7.258   1.312
 6060TIP3    H218126   3.720   7.238   1.171
 6061TIP3   OH218127   3.802   7.005   2.025
 6061TIP3    H118128   3.771   6.934   2.081
 6061TIP3    H218129   3.790   7.084   2.078
 6062TIP3   OH218130   6.048   2.179   4.137
 6062TIP3    H118131   5.991   2.200   4.211
 6062TIP3    H218132   6.120   2.241   4.144
 6063TIP3   OH218133   1.088   5.174   3.718
 6063TIP3    H118134   1.095   5.202   3.810
 6063TIP3    H218135   1.105   5.253   3.667
 6064TIP3   OH218136   1.187   1.111   5.858
 6064TIP3    H118137   1.152   1.052   5.924
 6064TIP3    H218138   1.122   1.110   5.787
 6065TIP3   OH218139   5.636   1.079   5.150
 6065TIP3    H118140   5.731   1.089   5.147
 6065TIP3    H218141   5.602   1.168   5.147
 6066TIP3   OH218142   3.020   2.204   0.509
 6066TIP3    H118143   3.011   2.258   0.587
 6066TIP3    H218144   2.964   2.128   0.525
 6067TIP3   OH218145   7.576   4.027   1.872
 6067TIP3    H118146   7.619   4.111   1.854
 6067TIP3    H218147   7.548   3.995   1.786
 6068TIP3   OH218148   6.737   4.668   6.668
 6068TIP3    H118149   6.740   4.761   6.689
 6068TIP3    H218150   6.828   4.644   6.648
 6069TIP3   OH218151   6.663   2.694   5.742
 6069TIP3    H118152   6.682   2.726   5.654
 6069TIP3    H218153   6.673   2.771   5.798
 6070TIP3   OH218154   3.026   3.335   6.782
 6070TIP3    H118155   3.088   3.312   6.713
 6070TIP3    H218156   3.077   3.390   6.841
 6071TIP3   OH218157   5.183   6.479   1.855
 6071TIP3    H118158   5.186   6.519   1.942
 6071TIP3    H218159   5.231   6.540   1.798
 6072TIP3   OH218160   7.782   2.224   0.907
 6072TIP3    H118161   7.791   2.186   0.820
 6072TIP3    H218162   7.870   2.256   0.929
 6073TIP3   OH218163   3.114   1.145   1.156
 6073TIP3    H118164   3.151   1.208   1.218
 6073TIP3    H218165   3.173   1.149   1.081
 6074TIP3   OH218166   7.965   7.647   3.275
 6074TIP3    H118167   7.948   7.563   3.234
 6074TIP3    H218168   7.934   7.637   3.365
 6075TIP3   OH218169   1.717   7.301   3.440
 6075TIP3    H118170   1.750   7.323   3.527
 6075TIP3    H218171   1.626   7.274   3.455
 6076TIP3   OH218172   4.373   2.998   0.552
 6076TIP3    H118173   4.467   3.004   0.537
 6076TIP3    H218174   4.345   3.089   0.564
 6077TIP3   OH218175   3.165   0.695   5.739
 6077TIP3    H118176   3.090   0.742   5.775
 6077TIP3    H218177   3.212   0.760   5.687
 6078TIP3   OH218178   2.455   5.650   6.010
 6078TIP3    H118179   2.367   5.617   6.026
 6078TIP3    H218180   2.446   5.709   5.935
 6079TIP3   OH218181   3.243   6.707   1.620
 6079TIP3    H118182   3.326   6.688   1.663
 6079TIP3    H218183   3.179   6.652   1.666
 6080TIP3   OH218184   1.679   5.340   6.210
 6080TIP3    H118185   1.758   5.286   6.207
 6080TIP3    H218186   1.673   5.368   6.301
 6081TIP3   OH218187   7.505   6.538   3.975
 6081TIP3    H118188   7.503   6.599   4.049
 6081TIP3    H218189   7.525   6.453   4.016
 6082TIP3   OH218190   1.422   3.242   4.725
 6082TIP3    H118191   1.359   3.309   4.752
 6082TIP3    H218192   1.433   3.187   4.803
 6083TIP3   OH218193   2.121   1.807   2.982
 6083TIP3    H118194   2.132   1.887   3.033
 6083TIP3    H218195   2.204   1.798   2.934
 6084TIP3   OH218196   5.609   0.288   0.983
 6084TIP3    H118197   5.683   0.324   1.032
 6084TIP3    H218198   5.641   0.281   0.893
 6085TIP3   OH218199   6.070   6.815   3.114
 6085TIP3    H118200   6.111   6.743   3.066
 6085TIP3    H218201   5.984   6.782   3.138
 6086TIP3   OH218202   2.355   5.463   1.355
 6086TIP3    H118203   2.376   5.399   1.286
 6086TIP3    H218204   2.367   5.415   1.437
 6087TIP3   OH218205   0.457   6.002   0.373
 6087TIP3    H118206   0.409   5.920   0.381
 6087TIP3    H218207   0.454   6.039   0.462
 6088TIP3   OH218208   2.616   4.446   0.851
 6088TIP3    H118209   2.638   4.387   0.923
 6088TIP3    H218210   2.670   4.524   0.866
 6089TIP3   OH218211   0.734   6.032   5.813
 6089TIP3    H118212   0.681   6.103   5.775
 6089TIP3    H218213   0.683   6.003   5.889
 6090TIP3   OH218214   6.235   7.046   2.118
 6090TIP3    H118215   6.201   6.965   2.078
 6090TIP3    H218216   6.330   7.042   2.102
 6091TIP3   OH218217   1.598   6.925   6.192
 6091TIP3    H118218   1.508   6.943   6.166
 6091TIP3    H218219   1.595   6.925   6.288
 6092TIP3   OH218220   0.617   3.244   3.286
 6092TIP3    H118221   0.626   3.154   3.255
 6092TIP3    H218222   0.692   3.258   3.344
 6093TIP3   OH218223   5.602   6.127  -0.077
 6093TIP3    H118224   5.578   6.132   0.015
 6093TIP3    H218225   5.583   6.214  -0.112
 6094TIP3   OH218226   3.424   2.357   5.683
 6094TIP3    H118227   3.380   2.282   5.644
 6094TIP3    H218228   3.487   2.385   5.617
 6095TIP3   OH218229   7.700   5.823   0.120
 6095TIP3    H118230   7.632   5.795   0.181
 6095TIP3    H218231   7.653   5.870   0.051
 6096TIP3   OH218232   1.273   6.678   0.703
 6096TIP3    H118233   1.318   6.695   0.786
 6096TIP3    H218234   1.321   6.605   0.664
 6097TIP3   OH218235   8.268   0.031   1.828
 6097TIP3    H118236   8.194  -0.011   1.872
 6097TIP3    H218237   8.304   0.091   1.893
 6098TIP3   OH218238   1.877   4.277   0.831
 6098TIP3    H118239   1.799   4.239   0.791
 6098TIP3    H218240   1.888   4.362   0.789
 6099TIP3   OH218241   6.762   1.292   3.532
 6099TIP3    H118242   6.840   1.268   3.581
 6099TIP3    H218243   6.735   1.211   3.488
 6100TIP3   OH218244   3.489   1.389   3.570
 6100TIP3    H118245   3.435   1.381   3.491
 6100TIP3    H218246   3.485   1.482   3.593
 6101TIP3   OH218247   1.308   6.812   2.866
 6101TIP3    H118248   1.288   6.881   2.803
 6101TIP3    H218249   1.261   6.837   2.946
 6102TIP3   OH218250   5.935   7.138   3.207
 6102TIP3    H118251   5.943   7.227   3.173
 6102TIP3    H218252   6.025   7.109   3.219
 6103TIP3   OH218253   2.970   6.710   0.688
 6103TIP3    H118254   3.043   6.674   0.638
 6103TIP3    H218255   2.896   6.654   0.666
 6104TIP3   OH218256   8.299   7.268   4.769
 6104TIP3    H118257   8.213   7.304   4.750
 6104TIP3    H218258   8.282   7.175   4.788
 6105TIP3   OH218259   5.673   5.039   2.014
 6105TIP3    H118260   5.735   5.004   1.950
 6105TIP3    H218261   5.588   5.027   1.973
 6106TIP3   OH218262   4.369   0.078   1.753
 6106TIP3    H118263   4.294   0.134   1.735
 6106TIP3    H218264   4.412   0.067   1.668
 6107TIP3   OH218265   7.076   1.051   3.456
 6107TIP3    H118266   6.997   1.026   3.410
 6107TIP3    H218267   7.116   1.118   3.400
 6108TIP3   OH218268   6.969   7.053   3.604
 6108TIP3    H118269   6.898   7.074   3.663
 6108TIP3    H218270   6.969   7.124   3.539
 6109TIP3   OH218271   0.241   3.994   3.167
 6109TIP3    H118272   0.163   4.023   3.214
 6109TIP3    H218273   0.208   3.959   3.084
 6110TIP3   OH218274   5.898   6.870   4.940
 6110TIP3    H118275   5.878   6.848   4.849
 6110TIP3    H218276   5.917   6.964   4.938
 6111TIP3   OH218277   1.120   4.638   0.871
 6111TIP3    H118278   1.103   4.695   0.796
 6111TIP3    H218279   1.209   4.605   0.856
 6112TIP3   OH218280   6.257   1.556   6.749
 6112TIP3    H118281   6.204   1.500   6.692
 6112TIP3    H218282   6.219   1.545   6.836
 6113TIP3   OH218283   2.494   4.005   5.540
 6113TIP3    H118284   2.415   4.029   5.590
 6113TIP3    H218285   2.493   4.064   5.464
 6114TIP3   OH218286   4.610   5.206   4.695
 6114TIP3    H118287   4.531   5.158   4.720
 6114TIP3    H218288   4.658   5.145   4.638
 6115TIP3   OH218289   0.766   1.350   4.929
 6115TIP3    H118290   0.776   1.443   4.909
 6115TIP3    H218291   0.740   1.348   5.021
 6116TIP3   OH218292   7.012   5.443   4.619
 6116TIP3    H118293   7.085   5.381   4.627
 6116TIP3    H218294   7.031   5.509   4.685
 6117TIP3   OH218295   3.419   5.140   0.531
 6117TIP3    H118296   3.335   5.128   0.575
 6117TIP3    H218297   3.402   5.121   0.439
 6118TIP3   OH218298   5.214   3.594   5.157
 6118TIP3    H118299   5.123   3.577   5.132
 6118TIP3    H218300   5.262   3.516   5.127
 6119TIP3   OH218301   7.026   5.181   2.954
 6119TIP3    H118302   7.107   5.194   3.003
 6119TIP3    H218303   7.054   5.149   2.868
 6120TIP3   OH218304   6.577   6.096   0.365
 6120TIP3    H118305   6.576   6.182   0.406
 6120TIP3    H218306   6.523   6.106   0.286
 6121TIP3   OH218307   4.687   6.101   5.552
 6121TIP3    H118308   4.701   6.063   5.465
 6121TIP3    H218309   4.774   6.104   5.591
 6122TIP3   OH218310   1.721   2.700   1.722
 6122TIP3    H118311   1.763   2.772   1.769
 6122TIP3    H218312   1.646   2.741   1.679
 6123TIP3   OH218313   7.639   1.918   4.295
 6123TIP3    H118314   7.723   1.893   4.256
 6123TIP3    H218315   7.646   2.012   4.310
 6124TIP3   OH218316   2.325   3.684   0.166
 6124TIP3    H118317   2.395   3.744   0.194
 6124TIP3    H218318   2.367   3.628   0.100
 6125TIP3   OH218319   4.884   5.369   4.107
 6125TIP3    H118320   4.844   5.429   4.170
 6125TIP3    H218321   4.810   5.318   4.073
 6126TIP3   OH218322   2.026   2.872   5.620
 6126TIP3    H118323   1.956   2.845   5.561
 6126TIP3    H218324   2.041   2.795   5.676
 6127TIP3   OH218325   2.629   4.727   2.583
 6127TIP3    H118326   2.655   4.636   2.598
 6127TIP3    H218327   2.587   4.725   2.497
 6128TIP3   OH218328   5.998   7.168   2.673
 6128TIP3    H118329   6.000   7.252   2.627
 6128TIP3    H218330   5.912   7.131   2.652
 6129TIP3   OH218331   0.531   5.592   1.689
 6129TIP3    H118332   0.606   5.639   1.725
 6129TIP3    H218333   0.464   5.659   1.675
 6130TIP3   OH218334   3.300   3.013   5.793
 6130TIP3    H118335   3.323   3.048   5.707
 6130TIP3    H218336   3.307   2.918   5.782
 6131TIP3   OH218337   6.539   1.284   1.943
 6131TIP3    H118338   6.480   1.339   1.994
 6131TIP3    H218339   6.551   1.205   1.996
 6132TIP3   OH218340   5.268   7.467   5.887
 6132TIP3    H118341   5.300   7.378   5.872
 6132TIP3    H218342   5.274   7.509   5.801
 6133TIP3   OH218343   8.137   4.856   0.383
 6133TIP3    H118344   8.163   4.919   0.451
 6133TIP3    H218345   8.202   4.869   0.313
 6134TIP3   OH218346   3.237   3.266   0.911
 6134TIP3    H118347   3.314   3.306   0.951
 6134TIP3    H218348   3.228   3.182   0.954
 6135TIP3   OH218349   0.315   2.600   3.799
 6135TIP3    H118350   0.322   2.637   3.710
 6135TIP3    H218351   0.404   2.607   3.834
 6136TIP3   OH218352   1.478   4.363   2.092
 6136TIP3    H118353   1.415   4.434   2.096
 6136TIP3    H218354   1.512   4.354   2.181
 6137TIP3   OH218355   7.119   3.874   1.727
 6137TIP3    H118356   7.071   3.859   1.809
 6137TIP3    H218357   7.052   3.869   1.659
 6138TIP3   OH218358   0.600   4.979   2.223
 6138TIP3    H118359   0.684   5.023   2.212
 6138TIP3    H218360   0.536   5.049   2.230
 6139TIP3   OH218361   3.598   2.530   1.300
 6139TIP3    H118362   3.610   2.492   1.213
 6139TIP3    H218363   3.663   2.485   1.354
 6140TIP3   OH218364   0.189   5.050   3.152
 6140TIP3    H118365   0.184   5.053   3.056
 6140TIP3    H218366   0.239   4.970   3.170
 6141TIP3   OH218367   4.965   4.899   1.342
 6141TIP3    H118368   5.033   4.880   1.277
 6141TIP3    H218369   4.882   4.885   1.296
 6142TIP3   OH218370   4.915   5.764   4.143
 6142TIP3    H118371   4.833   5.717   4.156
 6142TIP3    H218372   4.945   5.786   4.231
 6143TIP3   OH218373   3.557   3.910   0.281
 6143TIP3    H118374   3.646   3.888   0.255
 6143TIP3    H218375   3.567   3.983   0.342
 6144TIP3   OH218376   6.977   4.384   1.020
 6144TIP3    H118377   7.013   4.328   0.950
 6144TIP3    H218378   6.947   4.323   1.087
 6145TIP3   OH218379   0.566   3.229   6.630
 6145TIP3    H118380   0.508   3.297   6.663
 6145TIP3    H218381   0.590   3.258   6.542
 6146TIP3   OH218382   2.315   6.101   4.657
 6146TIP3    H118383   2.348   6.098   4.567
 6146TIP3    H218384   2.374   6.161   4.702
 6147TIP3   OH218385   1.486   4.065   4.184
 6147TIP3    H118386   1.427   4.135   4.212
 6147TIP3    H218387   1.484   4.001   4.256
 6148TIP3   OH218388   1.502   7.655   1.841
 6148TIP3    H118389   1.543   7.738   1.816
 6148TIP3    H218390   1.487   7.610   1.758
 6149TIP3   OH218391   0.301   4.273   6.298
 6149TIP3    H118392   0.249   4.350   6.320
 6149TIP3    H218393   0.390   4.294   6.324
 6150TIP3   OH218394   0.245   4.289   6.696
 6150TIP3    H118395   0.330   4.287   6.653
 6150TIP3    H218396   0.182   4.270   6.626
 6151TIP3   OH218397   7.319   1.237   0.693
 6151TIP3    H118398   7.271   1.224   0.611
 6151TIP3    H218399   7.382   1.306   0.672
 6152TIP3   OH218400   7.162   5.770   0.814
 6152TIP3    H118401   7.163   5.863   0.834
 6152TIP3    H218402   7.115   5.763   0.731
 6153TIP3   OH218403   3.745   4.826   4.753
 6153TIP3    H118404   3.673   4.795   4.808
 6153TIP3    H218405   3.704   4.885   4.690
 6154TIP3   OH218406   0.146   7.321   6.682
 6154TIP3    H118407   0.118   7.345   6.770
 6154TIP3    H218408   0.241   7.327   6.684
 6155TIP3   OH218409   7.158   5.286   5.527
 6155TIP3    H118410   7.212   5.360   5.499
 6155TIP3    H218411   7.181   5.273   5.619
 6156TIP3   OH218412   6.897   6.095   1.912
 6156TIP3    H118413   6.817   6.042   1.916
 6156TIP3    H218414   6.961   6.039   1.869
 6157TIP3   OH218415   0.277   7.761   1.582
 6157TIP3    H118416   0.186   7.735   1.565
 6157TIP3    H218417   0.270   7.827   1.650
 6158TIP3   OH218418   4.494   5.616   2.048
 6158TIP3    H118419   4.586   5.636   2.060
 6158TIP3    H218420   4.453   5.640   2.131
 6159TIP3   OH218421   1.539   1.753   2.110
 6159TIP3    H118422   1.588   1.675   2.133
 6159TIP3    H218423   1.604   1.812   2.071
 6160TIP3   OH218424   1.695   2.782   6.507
 6160TIP3    H118425   1.775   2.731   6.490
 6160TIP3    H218426   1.668   2.813   6.421
 6161TIP3   OH218427   7.326   4.185   3.506
 6161TIP3    H118428   7.332   4.276   3.474
 6161TIP3    H218429   7.263   4.143   3.447
 6162TIP3   OH218430   0.027   1.095   2.948
 6162TIP3    H118431   0.043   1.002   2.928
 6162TIP3    H218432   0.113   1.136   2.943
 6163TIP3   OH218433   7.656   1.358   3.505
 6163TIP3    H118434   7.631   1.295   3.437
 6163TIP3    H218435   7.750   1.373   3.490
 6164TIP3   OH218436   3.360   3.525   6.160
 6164TIP3    H118437   3.362   3.601   6.103
 6164TIP3    H218438   3.449   3.518   6.196
 6165TIP3   OH218439   6.996   3.527   1.285
 6165TIP3    H118440   6.979   3.584   1.360
 6165TIP3    H218441   7.086   3.545   1.261
 6166TIP3   OH218442   7.528   0.652   0.763
 6166TIP3    H118443   7.559   0.718   0.700
 6166TIP3    H218444   7.490   0.703   0.834
 6167TIP3   OH218445   6.894   4.461   5.877
 6167TIP3    H118446   6.825   4.468   5.943
 6167TIP3    H218447   6.901   4.549   5.840
 6168TIP3   OH218448   3.422   7.762   6.615
 6168TIP3    H118449   3.497   7.725   6.568
 6168TIP3    H218450   3.408   7.847   6.575
 6169TIP3   OH218451   4.590   7.265   1.920
 6169TIP3    H118452   4.634   7.311   1.992
 6169TIP3    H218453   4.617   7.174   1.930
 6170TIP3   OH218454   2.306   3.251   5.895
 6170TIP3    H118455   2.371   3.207   5.949
 6170TIP3    H218456   2.272   3.182   5.838
 6171TIP3   OH218457   0.831   5.908   4.488
 6171TIP3    H118458   0.854   5.949   4.571
 6171TIP3    H218459   0.755   5.958   4.457
 6172TIP3   OH218460   1.357   5.102   5.798
 6172TIP3    H118461   1.309   5.083   5.718
 6172TIP3    H218462   1.327   5.036   5.860
 6173TIP3   OH218463   6.379   7.145   3.727
 6173TIP3    H118464   6.464   7.103   3.740
 6173TIP3    H218465   6.399   7.238   3.718
 6174TIP3   OH218466   5.410   0.569   1.548
 6174TIP3    H118467   5.504   0.583   1.536
 6174TIP3    H218468   5.377   0.552   1.460
 6175TIP3   OH218469   0.158   4.116   6.494
 6175TIP3    H118470   0.129   4.040   6.444
 6175TIP3    H218471   0.186   4.179   6.428
 6176TIP3   OH218472   0.316   7.217   2.936
 6176TIP3    H118473   0.304   7.141   2.993
 6176TIP3    H218474   0.234   7.224   2.888
 6177TIP3   OH218475   4.493   2.785   2.526
 6177TIP3    H118476   4.454   2.743   2.603
 6177TIP3    H218477   4.420   2.832   2.485
 6178TIP3   OH218478   1.185   6.908   0.986
 6178TIP3    H118479   1.206   6.975   0.921
 6178TIP3    H218480   1.115   6.947   1.039
 6179TIP3   OH218481   2.893   2.867   0.542
 6179TIP3    H118482   2.803   2.839   0.556
 6179TIP3    H218483   2.891   2.962   0.554
 6180TIP3   OH218484   0.414   6.449   1.617
 6180TIP3    H118485   0.439   6.424   1.528
 6180TIP3    H218486   0.381   6.539   1.608
 6181TIP3   OH218487   4.816   5.872   1.949
 6181TIP3    H118488   4.796   5.818   2.025
 6181TIP3    H218489   4.912   5.876   1.947
 6182TIP3   OH218490   2.889   6.038   3.103
 6182TIP3    H118491   2.884   5.982   3.180
 6182TIP3    H218492   2.834   5.994   3.038
 6183TIP3   OH218493   3.973   1.404   2.069
 6183TIP3    H118494   3.910   1.336   2.094
 6183TIP3    H218495   4.055   1.357   2.055
 6184TIP3   OH218496   5.348   0.573   5.759
 6184TIP3    H118497   5.377   0.604   5.674
 6184TIP3    H218498   5.417   0.599   5.820
 6185TIP3   OH218499   6.462   6.947   1.351
 6185TIP3    H118500   6.534   7.009   1.343
 6185TIP3    H218501   6.389   6.998   1.385
 6186TIP3   OH218502   8.298   3.151   5.739
 6186TIP3    H118503   8.279   3.102   5.819
 6186TIP3    H218504   8.347   3.089   5.684
 6187TIP3   OH218505   5.825   5.853   1.447
 6187TIP3    H118506   5.889   5.825   1.381
 6187TIP3    H218507   5.870   5.922   1.496
 6188TIP3   OH218508   4.980   6.896   3.291
 6188TIP3    H118509   5.055   6.846   3.324
 6188TIP3    H218510   4.940   6.935   3.368
 6189TIP3   OH218511   6.073   7.569   2.006
 6189TIP3    H118512   6.110   7.556   1.919
 6189TIP3    H218513   6.147   7.595   2.060
 6190TIP3   OH218514   5.427   4.344   6.276
 6190TIP3    H118515   5.340   4.355   6.238
 6190TIP3    H218516   5.464   4.270   6.228
 6191TIP3   OH218517   2.410   7.485   1.455
 6191TIP3    H118518   2.380   7.556   1.398
 6191TIP3    H218519   2.506   7.488   1.448
 6192TIP3   OH218520   8.126   6.412   3.187
 6192TIP3    H118521   8.101   6.325   3.217
 6192TIP3    H218522   8.172   6.397   3.105
 6193TIP3   OH218523   3.464   0.716   3.953
 6193TIP3    H118524   3.487   0.805   3.930
 6193TIP3    H218525   3.547   0.677   3.982
 6194TIP3   OH218526   3.099   6.959   4.533
 6194TIP3    H118527   3.022   6.904   4.517
 6194TIP3    H218528   3.173   6.898   4.530
 6195TIP3   OH218529   5.518   1.347   5.091
 6195TIP3    H118530   5.548   1.387   5.009
 6195TIP3    H218531   5.567   1.393   5.159
 6196TIP3   OH218532   7.419   3.878   3.967
 6196TIP3    H118533   7.424   3.818   4.042
 6196TIP3    H218534   7.354   3.943   3.993
 6197TIP3   OH218535   2.567   0.763   1.822
 6197TIP3    H118536   2.608   0.837   1.867
 6197TIP3    H218537   2.492   0.802   1.776
 6198TIP3   OH218538   6.003   4.041   1.268
 6198TIP3    H118539   5.908   4.051   1.266
 6198TIP3    H218540   6.033   4.085   1.188
 6199TIP3   OH218541   0.702   0.631   5.177
 6199TIP3    H118542   0.780   0.658   5.226
 6199TIP3    H218543   0.640   0.603   5.244
 6200TIP3   OH218544   5.739   4.525   3.587
 6200TIP3    H118545   5.805   4.496   3.650
 6200TIP3    H218546   5.706   4.607   3.623
 6201TIP3   OH218547   8.157   6.851   5.040
 6201TIP3    H118548   8.201   6.851   5.125
 6201TIP3    H218549   8.083   6.792   5.051
 6202TIP3   OH218550   8.311   7.819   6.213
 6202TIP3    H118551   8.330   7.842   6.304
 6202TIP3    H218552   8.215   7.815   6.208
 6203TIP3   OH218553   4.097   5.401   6.721
 6203TIP3    H118554   4.014   5.414   6.675
 6203TIP3    H218555   4.160   5.456   6.674
 6204TIP3   OH218556   4.160   5.322   4.978
 6204TIP3    H118557   4.243   5.306   5.023
 6204TIP3    H218558   4.106   5.247   4.999
 6205TIP3   OH218559   6.784   5.981   2.235
 6205TIP3    H118560   6.771   5.891   2.265
 6205TIP3    H218561   6.696   6.018   2.229
 6206TIP3   OH218562   2.632   6.638   1.843
 6206TIP3    H118563   2.701   6.704   1.842
 6206TIP3    H218564   2.598   6.639   1.933
 6207TIP3   OH218565   2.626   2.774   0.670
 6207TIP3    H118566   2.537   2.785   0.638
 6207TIP3    H218567   2.615   2.744   0.760
 6208TIP3   OH218568   1.652   3.124   6.681
 6208TIP3    H118569   1.625   3.090   6.596
 6208TIP3    H218570   1.574   3.115   6.736
 6209TIP3   OH218571   6.400   1.084   0.591
 6209TIP3    H118572   6.312   1.074   0.628
 6209TIP3    H218573   6.437   0.996   0.594
 6210TIP3   OH218574   8.068   7.684   3.861
 6210TIP3    H118575   8.057   7.589   3.866
 6210TIP3    H218576   8.115   7.699   3.780
 6211TIP3   OH218577   8.128   1.105   3.174
 6211TIP3    H118578   8.190   1.125   3.105
 6211TIP3    H218579   8.145   1.014   3.197
 6212TIP3   OH218580   3.386   0.587   1.498
 6212TIP3    H118581   3.382   0.682   1.508
 6212TIP3    H218582   3.444   0.559   1.569
 6213TIP3   OH218583   0.910   0.409   1.512
 6213TIP3    H118584   0.868   0.342   1.457
 6213TIP3    H218585   0.970   0.454   1.453
 6214TIP3   OH218586   7.068   7.666   2.155
 6214TIP3    H118587   6.972   7.658   2.152
 6214TIP3    H218588   7.093   7.619   2.234
 6215TIP3   OH218589   4.973   3.823   5.627
 6215TIP3    H118590   4.883   3.816   5.660
 6215TIP3    H218591   4.976   3.907   5.582
 6216TIP3   OH218592   8.263   0.177   3.557
 6216TIP3    H118593   8.234   0.265   3.535
 6216TIP3    H218594   8.229   0.161   3.645
 6217TIP3   OH218595   1.773   7.112   2.268
 6217TIP3    H118596   1.761   7.183   2.205
 6217TIP3    H218597   1.818   7.043   2.219
 6218TIP3   OH218598   8.277   0.540   4.104
 6218TIP3    H118599   8.237   0.545   4.191
 6218TIP3    H218600   8.247   0.456   4.069
 6219TIP3   OH218601   0.228   2.642   6.126
 6219TIP3    H118602   0.176   2.710   6.168
 6219TIP3    H218603   0.265   2.683   6.048
 6220TIP3   OH218604   5.683   6.138   3.327
 6220TIP3    H118605   5.632   6.194   3.268
 6220TIP3    H218606   5.618   6.089   3.377
 6221TIP3   OH218607   2.995   2.476   3.351
 6221TIP3    H118608   3.007   2.417   3.426
 6221TIP3    H218609   2.907   2.513   3.363
 6222TIP3   OH218610   4.124   2.060   3.064
 6222TIP3    H118611   4.160   2.070   3.153
 6222TIP3    H218612   4.108   1.966   3.056
 6223TIP3   OH218613   7.838   2.705   5.742
 6223TIP3    H118614   7.929   2.699   5.713
 6223TIP3    H218615   7.798   2.624   5.710
 6224TIP3   OH218616   6.325   4.957   0.643
 6224TIP3    H118617   6.385   4.882   0.635
 6224TIP3    H218618   6.265   4.932   0.712
 6225TIP3   OH218619   6.350   2.714   4.044
 6225TIP3    H118620   6.259   2.706   4.015
 6225TIP3    H218621   6.371   2.807   4.032
 6226TIP3   OH218622   7.224   4.562   3.864
 6226TIP3    H118623   7.180   4.565   3.779
 6226TIP3    H218624   7.235   4.653   3.889
 6227TIP3   OH218625   3.024   3.066   2.413
 6227TIP3    H118626   3.005   2.998   2.348
 6227TIP3    H218627   2.938   3.089   2.448
 6228TIP3   OH218628   7.979   3.972   1.372
 6228TIP3    H118629   7.986   4.063   1.343
 6228TIP3    H218630   8.058   3.957   1.423
 6229TIP3   OH218631   6.726   6.135   5.139
 6229TIP3    H118632   6.646   6.177   5.106
 6229TIP3    H218633   6.778   6.117   5.060
 6230TIP3   OH218634   3.164   5.933   6.168
 6230TIP3    H118635   3.196   5.917   6.079
 6230TIP3    H218636   3.085   5.878   6.175
 6231TIP3   OH218637   6.399   0.352   3.450
 6231TIP3    H118638   6.324   0.296   3.429
 6231TIP3    H218639   6.472   0.315   3.400
 6232TIP3   OH218640   5.480   6.392   2.878
 6232TIP3    H118641   5.458   6.357   2.964
 6232TIP3    H218642   5.407   6.366   2.822
 6233TIP3   OH218643   5.815   1.557   1.021
 6233TIP3    H118644   5.896   1.552   1.071
 6233TIP3    H218645   5.764   1.625   1.064
 6234TIP3   OH218646   0.788   5.521   1.335
 6234TIP3    H118647   0.859   5.463   1.362
 6234TIP3    H218648   0.832   5.600   1.304
 6235TIP3   OH218649   2.995   3.393   0.828
 6235TIP3    H118650   3.081   3.352   0.834
 6235TIP3    H218651   3.014   3.486   0.812
 6236TIP3   OH218652   0.094   2.798   4.770
 6236TIP3    H118653   0.128   2.886   4.752
 6236TIP3    H218654   0.159   2.760   4.829
 6237TIP3   OH218655   3.292   0.825   0.014
 6237TIP3    H118656   3.291   0.899   0.075
 6237TIP3    H218657   3.305   0.749   0.070
 6238TIP3   OH218658   3.085   3.788   3.852
 6238TIP3    H118659   3.092   3.703   3.809
 6238TIP3    H218660   3.155   3.841   3.813
 6239TIP3   OH218661   3.074   4.517   2.670
 6239TIP3    H118662   3.021   4.522   2.750
 6239TIP3    H218663   3.134   4.444   2.686
 6240TIP3   OH218664   5.377   1.569   4.433
 6240TIP3    H118665   5.402   1.495   4.378
 6240TIP3    H218666   5.372   1.533   4.522
 6241TIP3   OH218667   0.154   3.168   2.496
 6241TIP3    H118668   0.143   3.222   2.574
 6241TIP3    H218669   0.139   3.079   2.526
 6242TIP3   OH218670   7.069   2.832   2.391
 6242TIP3    H118671   7.019   2.787   2.323
 6242TIP3    H218672   7.029   2.919   2.397
 6243TIP3   OH218673   3.699   1.835   4.987
 6243TIP3    H118674   3.665   1.771   5.049
 6243TIP3    H218675   3.731   1.784   4.913
 6244TIP3   OH218676   3.229   4.040   4.036
 6244TIP3    H118677   3.278   3.969   3.996
 6244TIP3    H218678   3.279   4.119   4.015
 6245TIP3   OH218679   0.341   2.399   2.282
 6245TIP3    H118680   0.306   2.477   2.240
 6245TIP3    H218681   0.395   2.357   2.215
 6246TIP3   OH218682   2.670   2.942   1.218
 6246TIP3    H118683   2.726   3.015   1.246
 6246TIP3    H218684   2.720   2.864   1.242
 6247TIP3   OH218685   4.574   3.394   2.197
 6247TIP3    H118686   4.627   3.334   2.250
 6247TIP3    H218687   4.638   3.436   2.138
 6248TIP3   OH218688   7.181   2.914   1.619
 6248TIP3    H118689   7.167   2.879   1.707
 6248TIP3    H218690   7.210   3.004   1.634
 6249TIP3   OH218691   7.197   2.152   4.732
 6249TIP3    H118692   7.130   2.103   4.779
 6249TIP3    H218693   7.240   2.087   4.677
 6250TIP3   OH218694   0.778   4.924   6.685
 6250TIP3    H118695   0.725   4.905   6.608
 6250TIP3    H218696   0.861   4.957   6.650
 6251TIP3   OH218697   4.088   4.418   1.737
 6251TIP3    H118698   3.999   4.451   1.734
 6251TIP3    H218699   4.105   4.385   1.648
 6252TIP3   OH218700   0.531   5.056   0.188
 6252TIP3    H118701   0.621   5.086   0.175
 6252TIP3    H218702   0.480   5.102   0.122
 6253TIP3   OH218703   3.972   4.829   4.438
 6253TIP3    H118704   3.998   4.838   4.530
 6253TIP3    H218705   3.877   4.828   4.440
 6254TIP3   OH218706   6.103   1.920   2.066
 6254TIP3    H118707   6.066   1.864   1.998
 6254TIP3    H218708   6.078   2.009   2.039
 6255TIP3   OH218709   0.925   4.412   1.876
 6255TIP3    H118710   0.931   4.491   1.930
 6255TIP3    H218711   0.848   4.366   1.910
 6256TIP3   OH218712   5.336   4.029   3.486
 6256TIP3    H118713   5.343   4.102   3.548
 6256TIP3    H218714   5.424   3.992   3.482
 6257TIP3   OH218715   4.245   1.237   4.136
 6257TIP3    H118716   4.252   1.332   4.125
 6257TIP3    H218717   4.152   1.220   4.147
 6258TIP3   OH218718   1.480   4.820   6.283
 6258TIP3    H118719   1.419   4.775   6.225
 6258TIP3    H218720   1.432   4.897   6.314
 6259TIP3   OH218721   8.096   3.733   1.796
 6259TIP3    H118722   8.171   3.791   1.795
 6259TIP3    H218723   8.127   3.652   1.755
 6260TIP3   OH218724   3.224   2.116   0.041
 6260TIP3    H118725   3.291   2.183   0.046
 6260TIP3    H218726   3.180   2.120   0.126
 6261TIP3   OH218727   3.011   3.166   4.040
 6261TIP3    H118728   2.951   3.093   4.058
 6261TIP3    H218729   3.003   3.180   3.945
 6262TIP3   OH218730   2.394   6.630   6.445
 6262TIP3    H118731   2.335   6.565   6.408
 6262TIP3    H218732   2.418   6.595   6.531
 6263TIP3   OH218733   7.972   5.696   1.128
 6263TIP3    H118734   7.930   5.650   1.055
 6263TIP3    H218735   8.053   5.647   1.144
 6264TIP3   OH218736   3.029   3.090   0.282
 6264TIP3    H118737   3.077   3.161   0.325
 6264TIP3    H218738   2.953   3.133   0.244
 6265TIP3   OH218739   2.142   1.236   3.121
 6265TIP3    H118740   2.076   1.170   3.098
 6265TIP3    H218741   2.215   1.219   3.061
 6266TIP3   OH218742   3.798   6.150   1.334
 6266TIP3    H118743   3.834   6.089   1.398
 6266TIP3    H218744   3.747   6.212   1.387
 6267TIP3   OH218745   8.312   6.629   4.325
 6267TIP3    H118746   8.331   6.633   4.419
 6267TIP3    H218747   8.233   6.682   4.314
 6268TIP3   OH218748   2.417   1.090   2.179
 6268TIP3    H118749   2.352   1.077   2.248
 6268TIP3    H218750   2.398   1.022   2.115
 6269TIP3   OH218751   2.199   0.984   2.345
 6269TIP3    H118752   2.272   0.939   2.388
 6269TIP3    H218753   2.146   0.914   2.307
 6270TIP3   OH218754   6.646   1.025   4.790
 6270TIP3    H118755   6.581   1.000   4.723
 6270TIP3    H218756   6.635   0.960   4.859
 6271TIP3   OH218757   0.553   1.345   6.228
 6271TIP3    H118758   0.509   1.280   6.172
 6271TIP3    H218759   0.608   1.395   6.168
 6272TIP3   OH218760   2.546   6.553   0.507
 6272TIP3    H118761   2.620   6.571   0.565
 6272TIP3    H218762   2.580   6.570   0.419
 6273TIP3   OH218763   0.313   4.702   0.243
 6273TIP3    H118764   0.303   4.746   0.159
 6273TIP3    H218765   0.349   4.616   0.222
 6274TIP3   OH218766   2.652   2.275   5.147
 6274TIP3    H118767   2.717   2.272   5.077
 6274TIP3    H218768   2.694   2.230   5.221
 6275TIP3   OH218769   3.042   1.014   2.945
 6275TIP3    H118770   3.066   1.088   2.890
 6275TIP3    H218771   2.974   0.969   2.895
 6276TIP3   OH218772   6.677   0.853   6.505
 6276TIP3    H118773   6.695   0.796   6.579
 6276TIP3    H218774   6.761   0.862   6.460
 6277TIP3   OH218775   7.675   1.924   3.080
 6277TIP3    H118776   7.729   1.913   3.159
 6277TIP3    H218777   7.738   1.946   3.011
 6278TIP3   OH218778   0.167   2.185   5.309
 6278TIP3    H118779   0.236   2.145   5.255
 6278TIP3    H218780   0.178   2.145   5.395
 6279TIP3   OH218781   0.873   0.053   4.498
 6279TIP3    H118782   0.851   0.134   4.545
 6279TIP3    H218783   0.964   0.036   4.520
 6280TIP3   OH218784   5.133   0.477   2.299
 6280TIP3    H118785   5.203   0.455   2.361
 6280TIP3    H218786   5.118   0.396   2.250
 6281TIP3   OH218787   6.685   5.241   0.064
 6281TIP3    H118788   6.682   5.190  -0.017
 6281TIP3    H218789   6.778   5.248   0.085
 6282TIP3   OH218790   0.997   6.357   0.266
 6282TIP3    H118791   0.977   6.431   0.208
 6282TIP3    H218792   0.947   6.375   0.345
 6283TIP3   OH218793   8.183   1.055   4.930
 6283TIP3    H118794   8.196   1.062   4.836
 6283TIP3    H218795   8.219   0.969   4.953
 6284TIP3   OH218796   3.487   2.147   1.730
 6284TIP3    H118797   3.476   2.219   1.668
 6284TIP3    H218798   3.577   2.117   1.716
 6285TIP3   OH218799   6.654   7.272   5.028
 6285TIP3    H118800   6.583   7.331   5.053
 6285TIP3    H218801   6.695   7.248   5.111
 6286TIP3   OH218802   2.223   2.537   1.690
 6286TIP3    H118803   2.134   2.553   1.658
 6286TIP3    H218804   2.275   2.528   1.610
 6287TIP3   OH218805   8.068   2.446   5.711
 6287TIP3    H118806   7.975   2.444   5.692
 6287TIP3    H218807   8.083   2.372   5.771
 6288TIP3   OH218808   7.563   6.650   0.862
 6288TIP3    H118809   7.646   6.670   0.905
 6288TIP3    H218810   7.524   6.580   0.915
 6289TIP3   OH218811   2.251   7.393   5.305
 6289TIP3    H118812   2.273   7.482   5.335
 6289TIP3    H218813   2.266   7.395   5.211
 6290TIP3   OH218814   5.002   3.929   1.726
 6290TIP3    H118815   4.923   3.904   1.773
 6290TIP3    H218816   5.071   3.929   1.792
 6291TIP3   OH218817   2.091   2.468   4.210
 6291TIP3    H118818   2.098   2.475   4.114
 6291TIP3    H218819   2.176   2.432   4.237
 6292TIP3   OH218820   2.765   6.252   2.037
 6292TIP3    H118821   2.706   6.323   2.063
 6292TIP3    H218822   2.750   6.184   2.102
 6293TIP3   OH218823   5.343   3.398   2.721
 6293TIP3    H118824   5.368   3.461   2.788
 6293TIP3    H218825   5.292   3.449   2.658
 6294TIP3   OH218826   2.584   7.161   5.756
 6294TIP3    H118827   2.528   7.086   5.739
 6294TIP3    H218828   2.525   7.235   5.761
 6295TIP3   OH218829   2.661   3.096   0.433
 6295TIP3    H118830   2.637   3.104   0.525
 6295TIP3    H218831   2.702   3.180   0.412
 6296TIP3   OH218832   5.121   3.717   2.116
 6296TIP3    H118833   5.152   3.626   2.109
 6296TIP3    H218834   5.064   3.717   2.193
 6297TIP3   OH218835   0.134   3.767   1.564
 6297TIP3    H118836   0.182   3.686   1.578
 6297TIP3    H218837   0.118   3.801   1.652
 6298TIP3   OH218838   7.719   1.238   4.825
 6298TIP3    H118839   7.791   1.289   4.787
 6298TIP3    H218840   7.742   1.230   4.918
 6299TIP3   OH218841   7.013   4.618   4.320
 6299TIP3    H118842   7.013   4.575   4.405
 6299TIP3    H218843   6.933   4.669   4.318
 6300TIP3   OH218844   0.137   4.787   2.481
 6300TIP3    H118845   0.145   4.814   2.390
 6300TIP3    H218846   0.100   4.699   2.477
 6301TIP3   OH218847   1.833   4.396   1.844
 6301TIP3    H118848   1.785   4.338   1.904
 6301TIP3    H218849   1.766   4.455   1.809
 6302TIP3   OH218850   3.469   0.241   4.611
 6302TIP3    H118851   3.431   0.167   4.658
 6302TIP3    H218852   3.562   0.237   4.631
 6303TIP3   OH218853   3.318   1.988   3.987
 6303TIP3    H118854   3.225   1.971   4.003
 6303TIP3    H218855   3.332   2.077   4.017
 6304TIP3   OH218856   3.239   1.627   2.391
 6304TIP3    H118857   3.311   1.571   2.419
 6304TIP3    H218858   3.265   1.659   2.305
 6305TIP3   OH218859   8.040   0.863   2.910
 6305TIP3    H118860   7.969   0.859   2.846
 6305TIP3    H218861   8.015   0.935   2.968
 6306TIP3   OH218862   0.949   0.239   2.898
 6306TIP3    H118863   0.871   0.227   2.953
 6306TIP3    H218864   1.022   0.215   2.955
 6307TIP3   OH218865   3.172   1.231   0.101
 6307TIP3    H118866   3.166   1.234   0.005
 6307TIP3    H218867   3.102   1.171   0.127
 6308TIP3   OH218868   5.895   6.652   0.466
 6308TIP3    H118869   5.961   6.716   0.442
 6308TIP3    H218870   5.832   6.653   0.394
 6309TIP3   OH218871   7.667   5.458   3.981
 6309TIP3    H118872   7.642   5.545   4.010
 6309TIP3    H218873   7.619   5.446   3.899
 6310TIP3   OH218874   0.143   6.095   5.524
 6310TIP3    H118875   0.069   6.078   5.582
 6310TIP3    H218876   0.219   6.065   5.572
 6311TIP3   OH218877   7.394   6.214   2.333
 6311TIP3    H118878   7.376   6.121   2.332
 6311TIP3    H218879   7.351   6.246   2.413
 6312TIP3   OH218880   6.472   2.446   4.091
 6312TIP3    H118881   6.437   2.535   4.094
 6312TIP3    H218882   6.546   2.448   4.152
 6313TIP3   OH218883   2.038   1.470   3.254
 6313TIP3    H118884   2.062   1.390   3.207
 6313TIP3    H218885   2.121   1.505   3.286
 6314TIP3   OH218886   4.976   3.009   6.162
 6314TIP3    H118887   4.892   2.969   6.186
 6314TIP3    H218888   4.958   3.102   6.155
 6315TIP3   OH218889   0.589   7.337   5.037
 6315TIP3    H118890   0.614   7.312   4.949
 6315TIP3    H218891   0.548   7.258   5.074
 6316TIP3   OH218892   1.761   4.102   6.425
 6316TIP3    H118893   1.783   4.024   6.375
 6316TIP3    H218894   1.841   4.121   6.475
 6317TIP3   OH218895   7.076   2.653   6.400
 6317TIP3    H118896   7.158   2.639   6.352
 6317TIP3    H218897   7.016   2.588   6.364
 6318TIP3   OH218898   5.433   7.525   2.103
 6318TIP3    H118899   5.493   7.494   2.035
 6318TIP3    H218900   5.461   7.615   2.120
 6319TIP3   OH218901   6.654   2.815   4.200
 6319TIP3    H118902   6.660   2.812   4.104
 6319TIP3    H218903   6.624   2.904   4.219
 6320TIP3   OH218904   5.387   5.769   6.705
 6320TIP3    H118905   5.427   5.690   6.742
 6320TIP3    H218906   5.359   5.743   6.617
 6321TIP3   OH218907   7.763   5.819   0.796
 6321TIP3    H118908   7.807   5.736   0.819
 6321TIP3    H218909   7.800   5.843   0.711
 6322TIP3   OH218910   1.421   4.034   6.284
 6322TIP3    H118911   1.448   3.949   6.249
 6322TIP3    H218912   1.369   4.074   6.213
 6323TIP3   OH218913   6.125   4.193   4.729
 6323TIP3    H118914   6.130   4.100   4.708
 6323TIP3    H218915   6.036   4.205   4.764
 6324TIP3   OH218916   6.211   6.579   0.732
 6324TIP3    H118917   6.221   6.487   0.755
 6324TIP3    H218918   6.245   6.585   0.643
 6325TIP3   OH218919   6.808   0.197   5.924
 6325TIP3    H118920   6.775   0.215   6.012
 6325TIP3    H218921   6.899   0.169   5.938
 6326TIP3   OH218922   2.062   1.212   0.934
 6326TIP3    H118923   2.022   1.293   0.966
 6326TIP3    H218924   1.991   1.166   0.890
 6327TIP3   OH218925   6.192   6.456   3.958
 6327TIP3    H118926   6.116   6.409   3.926
 6327TIP3    H218927   6.263   6.392   3.953
 6328TIP3   OH218928   4.423   1.360   0.853
 6328TIP3    H118929   4.366   1.386   0.781
 6328TIP3    H218930   4.380   1.395   0.932
 6329TIP3   OH218931   0.627   0.888   1.082
 6329TIP3    H118932   0.643   0.864   1.173
 6329TIP3    H218933   0.710   0.926   1.052
 6330TIP3   OH218934   7.599   7.562   6.442
 6330TIP3    H118935   7.539   7.495   6.408
 6330TIP3    H218936   7.548   7.643   6.438
 6331TIP3   OH218937   6.874   5.813   4.412
 6331TIP3    H118938   6.791   5.765   4.407
 6331TIP3    H218939   6.941   5.745   4.411
 6332TIP3   OH218940   1.128   1.450   2.348
 6332TIP3    H118941   1.160   1.394   2.278
 6332TIP3    H218942   1.208   1.490   2.384
 6333TIP3   OH218943   7.277   3.582   1.195
 6333TIP3    H118944   7.318   3.668   1.202
 6333TIP3    H218945   7.350   3.520   1.206
 6334TIP3   OH218946   3.695   3.474   0.318
 6334TIP3    H118947   3.716   3.486   0.225
 6334TIP3    H218948   3.620   3.414   0.318
 6335TIP3   OH218949   2.491   5.923   5.940
 6335TIP3    H118950   2.516   5.983   6.010
 6335TIP3    H218951   2.399   5.942   5.923
 6336TIP3   OH218952   5.172   6.600   5.246
 6336TIP3    H118953   5.146   6.551   5.324
 6336TIP3    H218954   5.094   6.650   5.223
 6337TIP3   OH218955   6.162   7.760   5.402
 6337TIP3    H118956   6.186   7.752   5.494
 6337TIP3    H218957   6.245   7.768   5.355
 6338TIP3   OH218958   7.059   2.380   1.140
 6338TIP3    H118959   7.006   2.348   1.213
 6338TIP3    H218960   6.996   2.400   1.072
 6339TIP3   OH218961   3.113   6.630   5.598
 6339TIP3    H118962   3.034   6.620   5.545
 6339TIP3    H218963   3.165   6.696   5.551
 6340TIP3   OH218964   0.767   2.535   1.587
 6340TIP3    H118965   0.691   2.481   1.611
 6340TIP3    H218966   0.729   2.612   1.544
 6341TIP3   OH218967   2.098   0.680   0.522
 6341TIP3    H118968   2.026   0.623   0.549
 6341TIP3    H218969   2.097   0.751   0.586
 6342TIP3   OH218970   7.532   5.350   0.508
 6342TIP3    H118971   7.571   5.372   0.424
 6342TIP3    H218972   7.590   5.283   0.545
 6343TIP3   OH218973   6.158   4.835   4.226
 6343TIP3    H118974   6.180   4.743   4.211
 6343TIP3    H218975   6.092   4.833   4.295
 6344TIP3   OH218976   4.006   5.219   0.163
 6344TIP3    H118977   4.063   5.204   0.088
 6344TIP3    H218978   4.065   5.218   0.238
 6345TIP3   OH218979   5.364   3.541   3.280
 6345TIP3    H118980   5.269   3.544   3.293
 6345TIP3    H218981   5.388   3.449   3.292
 6346TIP3   OH218982   7.709   0.005   2.457
 6346TIP3    H118983   7.661   0.028   2.537
 6346TIP3    H218984   7.779  -0.053   2.487
 6347TIP3   OH218985   2.076   2.752   0.607
 6347TIP3    H118986   2.083   2.679   0.669
 6347TIP3    H218987   2.105   2.828   0.657
 6348TIP3   OH218988   0.528   0.811   2.693
 6348TIP3    H118989   0.486   0.753   2.628
 6348TIP3    H218990   0.509   0.899   2.662
 6349TIP3   OH218991   0.065   1.313   1.929
 6349TIP3    H118992   0.074   1.376   2.000
 6349TIP3    H218993   0.149   1.266   1.928
 6350TIP3   OH218994   1.710   6.614   2.186
 6350TIP3    H118995   1.748   6.559   2.117
 6350TIP3    H218996   1.651   6.555   2.233
 6351TIP3   OH218997   3.807   0.265   5.464
 6351TIP3    H118998   3.872   0.295   5.400
 6351TIP3    H218999   3.823   0.171   5.471
 6352TIP3   OH219000   2.559   3.515   5.937
 6352TIP3    H119001   2.516   3.571   6.001
 6352TIP3    H219002   2.588   3.439   5.987
 6353TIP3   OH219003   6.020   0.122   4.993
 6353TIP3    H119004   6.075   0.155   4.923
 6353TIP3    H219005   6.082   0.088   5.058
 6354TIP3   OH219006   2.860   3.962   6.710
 6354TIP3    H119007   2.799   3.891   6.690
 6354TIP3    H219008   2.905   3.979   6.627
 6355TIP3   OH219009   2.729   6.410   6.507
 6355TIP3    H119010   2.787   6.359   6.563
 6355TIP3    H219011   2.690   6.346   6.447
 6356TIP3   OH219012   7.181   3.060   4.571
 6356TIP3    H119013   7.209   3.089   4.658
 6356TIP3    H219014   7.129   2.982   4.588
 6357TIP3   OH219015   3.525   0.858   3.416
 6357TIP3    H119016   3.551   0.945   3.384
 6357TIP3    H219017   3.432   0.852   3.396
 6358TIP3   OH219018   4.997   6.388   0.116
 6358TIP3    H119019   4.937   6.447   0.161
 6358TIP3    H219020   4.947   6.355   0.041
 6359TIP3   OH219021   5.291   0.786   4.120
 6359TIP3    H119022   5.291   0.706   4.173
 6359TIP3    H219023   5.295   0.857   4.185
 6360TIP3   OH219024   0.117   4.142   4.184
 6360TIP3    H119025   0.086   4.214   4.239
 6360TIP3    H219026   0.047   4.077   4.189
 6361TIP3   OH219027   1.533   6.829   6.451
 6361TIP3    H119028   1.448   6.870   6.466
 6361TIP3    H219029   1.515   6.735   6.451
 6362TIP3   OH219030   7.699   6.630   4.224
 6362TIP3    H119031   7.639   6.587   4.284
 6362TIP3    H219032   7.766   6.564   4.204
 6363TIP3   OH219033   5.151   3.657   0.566
 6363TIP3    H119034   5.086   3.727   0.571
 6363TIP3    H219035   5.104   3.582   0.528
 6364TIP3   OH219036   0.601   6.433   3.795
 6364TIP3    H119037   0.539   6.362   3.778
 6364TIP3    H219038   0.550   6.513   3.784
 6365TIP3   OH219039   6.633   3.286   0.190
 6365TIP3    H119040   6.570   3.356   0.179
 6365TIP3    H219041   6.588   3.221   0.244
 6366TIP3   OH219042   0.095   1.385   5.901
 6366TIP3    H119043   0.174   1.338   5.876
 6366TIP3    H219044   0.031   1.363   5.834
 6367TIP3   OH219045   7.498   1.147   3.033
 6367TIP3    H119046   7.538   1.230   3.060
 6367TIP3    H219047   7.542   1.080   3.085
 6368TIP3   OH219048   0.834   0.876   6.126
 6368TIP3    H119049   0.821   0.796   6.176
 6368TIP3    H219050   0.829   0.849   6.034
 6369TIP3   OH219051   4.144   1.052   5.869
 6369TIP3    H119052   4.172   1.032   5.780
 6369TIP3    H219053   4.078   0.985   5.890
 6370TIP3   OH219054   8.088   6.349   6.307
 6370TIP3    H119055   8.107   6.434   6.347
 6370TIP3    H219056   8.092   6.287   6.380
 6371TIP3   OH219057   0.285   1.773   0.916
 6371TIP3    H119058   0.336   1.851   0.897
 6371TIP3    H219059   0.211   1.777   0.855
 6372TIP3   OH219060   5.456   3.301   4.167
 6372TIP3    H119061   5.432   3.390   4.141
 6372TIP3    H219062   5.544   3.289   4.131
 6373TIP3   OH219063   0.288   2.784   3.317
 6373TIP3    H119064   0.356   2.717   3.326
 6373TIP3    H219065   0.208   2.735   3.299
 6374TIP3   OH219066   3.385   4.860   3.900
 6374TIP3    H119067   3.363   4.772   3.872
 6374TIP3    H219068   3.411   4.906   3.820
 6375TIP3   OH219069   5.522   3.363   6.315
 6375TIP3    H119070   5.566   3.437   6.274
 6375TIP3    H219071   5.527   3.293   6.250
 6376TIP3   OH219072   6.222   3.563   0.284
 6376TIP3    H119073   6.179   3.577   0.199
 6376TIP3    H219074   6.164   3.606   0.347
 6377TIP3   OH219075   5.419   1.460   6.265
 6377TIP3    H119076   5.415   1.402   6.190
 6377TIP3    H219077   5.453   1.406   6.336
 6378TIP3   OH219078   4.075   7.164   0.607
 6378TIP3    H119079   4.161   7.152   0.646
 6378TIP3    H219080   4.062   7.259   0.607
 6379TIP3   OH219081   6.339   5.998   3.193
 6379TIP3    H119082   6.324   6.044   3.110
 6379TIP3    H219083   6.251   5.981   3.227
 6380TIP3   OH219084   6.201   1.686   2.820
 6380TIP3    H119085   6.124   1.740   2.840
 6380TIP3    H219086   6.175   1.634   2.744
 6381TIP3   OH219087   3.442   6.507   5.997
 6381TIP3    H119088   3.390   6.553   5.930
 6381TIP3    H219089   3.507   6.572   6.024
 6382TIP3   OH219090   7.106   3.888   5.831
 6382TIP3    H119091   7.103   3.941   5.911
 6382TIP3    H219092   7.133   3.949   5.763
 6383TIP3   OH219093   0.740   6.363   1.289
 6383TIP3    H119094   0.759   6.347   1.382
 6383TIP3    H219095   0.798   6.302   1.243
 6384TIP3   OH219096   1.505   6.614   3.127
 6384TIP3    H119097   1.454   6.541   3.162
 6384TIP3    H219098   1.577   6.573   3.080
 6385TIP3   OH219099   4.862   2.680   6.204
 6385TIP3    H119100   4.917   2.733   6.261
 6385TIP3    H219101   4.924   2.629   6.152
 6386TIP3   OH219102   4.846   4.176   4.334
 6386TIP3    H119103   4.795   4.176   4.415
 6386TIP3    H219104   4.819   4.256   4.288
 6387TIP3   OH219105   1.005   2.903   5.020
 6387TIP3    H119106   1.030   2.880   4.931
 6387TIP3    H219107   0.912   2.878   5.025
 6388TIP3   OH219108   6.308   5.359   4.917
 6388TIP3    H119109   6.313   5.436   4.973
 6388TIP3    H219110   6.341   5.388   4.832
 6389TIP3   OH219111   2.403   5.520   2.129
 6389TIP3    H119112   2.343   5.447   2.115
 6389TIP3    H219113   2.469   5.511   2.061
 6390TIP3   OH219114   2.871   2.370   4.692
 6390TIP3    H119115   2.956   2.411   4.710
 6390TIP3    H219116   2.807   2.440   4.701
 6391TIP3   OH219117   2.005   3.048   6.133
 6391TIP3    H119118   1.948   3.028   6.059
 6391TIP3    H219119   1.965   3.125   6.174
 6392TIP3   OH219120   5.920   7.757   6.335
 6392TIP3    H119121   5.840   7.786   6.378
 6392TIP3    H219122   5.935   7.669   6.368
 6393TIP3   OH219123   0.985   1.599   3.616
 6393TIP3    H119124   1.043   1.638   3.551
 6393TIP3    H219125   0.992   1.655   3.693
 6394TIP3   OH219126   2.302   1.876   6.669
 6394TIP3    H119127   2.241   1.810   6.638
 6394TIP3    H219128   2.265   1.959   6.637
 6395TIP3   OH219129   8.183   0.384   6.199
 6395TIP3    H119130   8.150   0.427   6.120
 6395TIP3    H219131   8.260   0.335   6.170
 6396TIP3   OH219132   5.318   6.012   2.552
 6396TIP3    H119133   5.245   5.950   2.557
 6396TIP3    H219134   5.284   6.085   2.500
 6397TIP3   OH219135   1.560   0.217   4.535
 6397TIP3    H119136   1.535   0.296   4.487
 6397TIP3    H219137   1.565   0.245   4.626
 6398TIP3   OH219138   4.383   5.652   3.907
 6398TIP3    H119139   4.436   5.720   3.863
 6398TIP3    H219140   4.447   5.597   3.951
 6399TIP3   OH219141   0.124   6.783   2.466
 6399TIP3    H119142   0.219   6.772   2.471
 6399TIP3    H219143   0.107   6.863   2.515
 6400TIP3   OH219144   4.346   6.080   0.822
 6400TIP3    H119145   4.278   6.051   0.883
 6400TIP3    H219146   4.415   6.115   0.879
 6401TIP3   OH219147   8.129   6.267   2.553
 6401TIP3    H119148   8.122   6.362   2.543
 6401TIP3    H219149   8.111   6.252   2.646
 6402TIP3   OH219150   4.263   2.078   2.285
 6402TIP3    H119151   4.321   2.067   2.209
 6402TIP3    H219152   4.300   2.020   2.351
 6403TIP3   OH219153   1.197   7.275   4.033
 6403TIP3    H119154   1.226   7.225   3.957
 6403TIP3    H219155   1.101   7.267   4.031
 6404TIP3   OH219156   6.965   7.304   3.475
 6404TIP3    H119157   6.981   7.359   3.551
 6404TIP3    H219158   6.950   7.366   3.403
 6405TIP3   OH219159   7.111   2.380   0.401
 6405TIP3    H119160   7.052   2.326   0.453
 6405TIP3    H219161   7.064   2.462   0.388
 6406TIP3   OH219162   7.476   6.456   2.206
 6406TIP3    H119163   7.430   6.539   2.219
 6406TIP3    H219164   7.423   6.392   2.253
 6407TIP3   OH219165   5.323   5.430   3.515
 6407TIP3    H119166   5.358   5.513   3.485
 6407TIP3    H219167   5.256   5.407   3.452
 6408TIP3   OH219168   3.217   0.423   6.071
 6408TIP3    H119169   3.293   0.451   6.020
 6408TIP3    H219170   3.188   0.502   6.117
 6409TIP3   OH219171   6.266   7.732   4.791
 6409TIP3    H119172   6.292   7.684   4.713
 6409TIP3    H219173   6.266   7.824   4.764
 6410TIP3   OH219174   6.555   4.983   5.154
 6410TIP3    H119175   6.461   4.963   5.148
 6410TIP3    H219176   6.565   5.063   5.103
 6411TIP3   OH219177   3.296   1.581   1.384
 6411TIP3    H119178   3.331   1.577   1.473
 6411TIP3    H219179   3.209   1.619   1.395
 6412TIP3   OH219180   4.103   6.205   6.394
 6412TIP3    H119181   4.026   6.214   6.451
 6412TIP3    H219182   4.142   6.292   6.392
 6413TIP3   OH219183   6.115   0.676   0.908
 6413TIP3    H119184   6.111   0.616   0.982
 6413TIP3    H219185   6.171   0.631   0.844
 6414TIP3   OH219186   5.887   3.970   5.992
 6414TIP3    H119187   5.848   3.883   5.984
 6414TIP3    H219188   5.898   3.983   6.086
 6415TIP3   OH219189   7.652   4.473   1.169
 6415TIP3    H119190   7.666   4.550   1.224
 6415TIP3    H219191   7.631   4.509   1.083
 6416TIP3   OH219192   1.612   6.409   1.519
 6416TIP3    H119193   1.660   6.398   1.602
 6416TIP3    H219194   1.583   6.500   1.520
 6417TIP3   OH219195   0.598   1.073   0.443
 6417TIP3    H119196   0.617   1.162   0.415
 6417TIP3    H219197   0.653   1.018   0.386
 6418TIP3   OH219198   2.139   5.077   3.371
 6418TIP3    H119199   2.162   5.000   3.424
 6418TIP3    H219200   2.046   5.066   3.353
 6419TIP3   OH219201   5.879   6.187   0.641
 6419TIP3    H119202   5.928   6.219   0.565
 6419TIP3    H219203   5.787   6.194   0.614
 6420TIP3   OH219204   3.653   2.900   0.210
 6420TIP3    H119205   3.722   2.946   0.258
 6420TIP3    H219206   3.572   2.931   0.250
 6421TIP3   OH219207   5.220   6.427   0.669
 6421TIP3    H119208   5.231   6.441   0.575
 6421TIP3    H219209   5.197   6.334   0.676
 6422TIP3   OH219210   2.207   6.405   4.731
 6422TIP3    H119211   2.279   6.438   4.678
 6422TIP3    H219212   2.129   6.446   4.695
 6423TIP3   OH219213   8.145   4.663   3.216
 6423TIP3    H119214   8.186   4.679   3.302
 6423TIP3    H219215   8.064   4.617   3.236
 6424TIP3   OH219216   3.635   6.212   5.273
 6424TIP3    H119217   3.715   6.168   5.301
 6424TIP3    H219218   3.666   6.283   5.216
 6425TIP3   OH219219   2.787   4.375   2.464
 6425TIP3    H119220   2.820   4.432   2.394
 6425TIP3    H219221   2.693   4.392   2.466
 6426TIP3   OH219222   3.562   5.031   5.032
 6426TIP3    H119223   3.625   5.002   5.098
 6426TIP3    H219224   3.613   5.088   4.975
 6427TIP3   OH219225   6.329   6.370   6.777
 6427TIP3    H119226   6.234   6.367   6.774
 6427TIP3    H219227   6.349   6.453   6.820
 6428TIP3   OH219228   2.758   3.969   3.814
 6428TIP3    H119229   2.755   3.905   3.885
 6428TIP3    H219230   2.797   4.047   3.852
 6429TIP3   OH219231   5.466   3.516   1.717
 6429TIP3    H119232   5.518   3.491   1.640
 6429TIP3    H219233   5.528   3.513   1.789
 6430TIP3   OH219234   7.586   1.695   1.787
 6430TIP3    H119235   7.575   1.632   1.716
 6430TIP3    H219236   7.497   1.718   1.812
 6431TIP3   OH219237   0.518   7.600   3.717
 6431TIP3    H119238   0.545   7.671   3.775
 6431TIP3    H219239   0.567   7.616   3.636
 6432TIP3   OH219240   7.573   7.024   2.693
 6432TIP3    H119241   7.639   7.029   2.624
 6432TIP3    H219242   7.623   7.009   2.773
 6433TIP3   OH219243   2.496   0.510   2.657
 6433TIP3    H119244   2.552   0.456   2.713
 6433TIP3    H219245   2.478   0.455   2.581
 6434TIP3   OH219246   5.530   5.965   5.487
 6434TIP3    H119247   5.522   6.057   5.460
 6434TIP3    H219248   5.525   5.916   5.405
 6435TIP3   OH219249   3.070   3.968   6.476
 6435TIP3    H119250   3.022   4.043   6.442
 6435TIP3    H219251   3.158   4.002   6.492
 6436TIP3   OH219252   4.699   1.581   2.087
 6436TIP3    H119253   4.616   1.544   2.057
 6436TIP3    H219254   4.687   1.676   2.078
 6437TIP3   OH219255   0.795   3.878   6.583
 6437TIP3    H119256   0.819   3.878   6.676
 6437TIP3    H219257   0.765   3.789   6.566
 6438TIP3   OH219258   5.885   2.347   5.171
 6438TIP3    H119259   5.957   2.345   5.107
 6438TIP3    H219260   5.843   2.431   5.157
 6439TIP3   OH219261   5.193   2.359   4.324
 6439TIP3    H119262   5.158   2.333   4.239
 6439TIP3    H219263   5.126   2.416   4.361
 6440TIP3   OH219264   7.042   3.298   5.905
 6440TIP3    H119265   6.991   3.348   5.969
 6440TIP3    H219266   7.033   3.348   5.824
 6441TIP3   OH219267   1.079   7.076   2.652
 6441TIP3    H119268   1.088   7.164   2.615
 6441TIP3    H219269   1.169   7.050   2.675
 6442TIP3   OH219270   7.723   1.140   3.993
 6442TIP3    H119271   7.773   1.059   3.984
 6442TIP3    H219272   7.739   1.188   3.911
 6443TIP3   OH219273   4.508   4.402   6.116
 6443TIP3    H119274   4.459   4.321   6.128
 6443TIP3    H219275   4.561   4.387   6.038
 6444TIP3   OH219276   6.119   6.816   0.443
 6444TIP3    H119277   6.192   6.828   0.383
 6444TIP3    H219278   6.139   6.875   0.516
 6445TIP3   OH219279   4.617   0.689   1.131
 6445TIP3    H119280   4.573   0.690   1.216
 6445TIP3    H219281   4.551   0.657   1.070
 6446TIP3   OH219282   6.377   5.790   4.336
 6446TIP3    H119283   6.349   5.837   4.414
 6446TIP3    H219284   6.355   5.848   4.264
 6447TIP3   OH219285   2.847   5.294   0.795
 6447TIP3    H119286   2.784   5.254   0.735
 6447TIP3    H219287   2.930   5.251   0.776
 6448TIP3   OH219288   7.792   6.166   5.456
 6448TIP3    H119289   7.754   6.179   5.369
 6448TIP3    H219290   7.801   6.255   5.491
 6449TIP3   OH219291   6.103   6.506   0.307
 6449TIP3    H119292   6.073   6.574   0.367
 6449TIP3    H219293   6.046   6.431   0.325
 6450TIP3   OH219294   3.534   0.278   3.374
 6450TIP3    H119295   3.516   0.367   3.343
 6450TIP3    H219296   3.456   0.228   3.349
 6451TIP3   OH219297   5.679   0.802   0.558
 6451TIP3    H119298   5.637   0.886   0.537
 6451TIP3    H219299   5.700   0.764   0.473
 6452TIP3   OH219300   3.954   0.904   1.926
 6452TIP3    H119301   4.046   0.930   1.928
 6452TIP3    H219302   3.954   0.819   1.883
 6453TIP3   OH219303   2.708   0.584   0.582
 6453TIP3    H119304   2.716   0.651   0.650
 6453TIP3    H219305   2.651   0.624   0.516
 6454TIP3   OH219306   5.811   3.150   6.055
 6454TIP3    H119307   5.896   3.127   6.018
 6454TIP3    H219308   5.810   3.108   6.141
 6455TIP3   OH219309   4.940   5.878   0.203
 6455TIP3    H119310   4.894   5.914   0.128
 6455TIP3    H219311   4.876   5.882   0.275
 6456TIP3   OH219312   0.234   2.724   0.273
 6456TIP3    H119313   0.198   2.791   0.332
 6456TIP3    H219314   0.329   2.739   0.276
 6457TIP3   OH219315   3.765   0.073   0.226
 6457TIP3    H119316   3.753   0.160   0.188
 6457TIP3    H219317   3.689   0.023   0.195
 6458TIP3   OH219318   3.811   3.172   4.428
 6458TIP3    H119319   3.803   3.132   4.341
 6458TIP3    H219320   3.755   3.249   4.424
 6459TIP3   OH219321   2.508   5.773   5.288
 6459TIP3    H119322   2.523   5.825   5.209
 6459TIP3    H219323   2.414   5.784   5.306
 6460TIP3   OH219324   4.738   5.611   1.193
 6460TIP3    H119325   4.768   5.576   1.277
 6460TIP3    H219326   4.811   5.596   1.133
 6461TIP3   OH219327   5.078   2.666   6.022
 6461TIP3    H119328   5.018   2.735   5.994
 6461TIP3    H219329   5.081   2.605   5.949
 6462TIP3   OH219330   2.477   2.322   0.824
 6462TIP3    H119331   2.548   2.367   0.870
 6462TIP3    H219332   2.432   2.272   0.892
 6463TIP3   OH219333   0.420   3.202   0.872
 6463TIP3    H119334   0.466   3.221   0.790
 6463TIP3    H219335   0.488   3.203   0.939
 6464TIP3   OH219336   5.272   2.843   0.826
 6464TIP3    H119337   5.262   2.842   0.731
 6464TIP3    H219338   5.306   2.930   0.845
 6465TIP3   OH219339   6.161   1.803   5.748
 6465TIP3    H119340   6.231   1.801   5.683
 6465TIP3    H219341   6.201   1.765   5.827
 6466TIP3   OH219342   3.771   6.257   2.815
 6466TIP3    H119343   3.798   6.179   2.864
 6466TIP3    H219344   3.680   6.240   2.791
 6467TIP3   OH219345   4.603   4.939   6.158
 6467TIP3    H119346   4.522   4.990   6.163
 6467TIP3    H219347   4.580   4.853   6.194
 6468TIP3   OH219348   6.227   2.723   5.075
 6468TIP3    H119349   6.290   2.679   5.133
 6468TIP3    H219350   6.194   2.796   5.127
 6469TIP3   OH219351   5.960   6.039   4.972
 6469TIP3    H119352   5.873   6.013   5.002
 6469TIP3    H219353   6.012   5.959   4.978
 6470TIP3   OH219354   5.718   6.323   1.031
 6470TIP3    H119355   5.651   6.334   0.963
 6470TIP3    H219356   5.701   6.236   1.067
 6471TIP3   OH219357   3.525   2.038   2.992
 6471TIP3    H119358   3.492   1.989   2.917
 6471TIP3    H219359   3.620   2.033   2.983
 6472TIP3   OH219360   1.694   2.062   6.237
 6472TIP3    H119361   1.603   2.089   6.250
 6472TIP3    H219362   1.698   1.974   6.275
 6473TIP3   OH219363   5.992   6.201   1.887
 6473TIP3    H119364   6.075   6.155   1.882
 6473TIP3    H219365   5.952   6.187   1.801
 6474TIP3   OH219366   3.951   4.838   2.372
 6474TIP3    H119367   3.862   4.872   2.381
 6474TIP3    H219368   3.939   4.747   2.345
 6475TIP3   OH219369   3.551   5.818   3.460
 6475TIP3    H119370   3.494   5.806   3.384
 6475TIP3    H219371   3.508   5.886   3.511
 6476TIP3   OH219372   5.743   5.030   3.417
 6476TIP3    H119373   5.801   5.098   3.385
 6476TIP3    H219374   5.798   4.974   3.471
 6477TIP3   OH219375   2.287   6.458   0.168
 6477TIP3    H119376   2.287   6.545   0.209
 6477TIP3    H219377   2.297   6.397   0.241
 6478TIP3   OH219378   6.509   5.920   2.988
 6478TIP3    H119379   6.493   5.826   3.002
 6478TIP3    H219380   6.512   5.957   3.076
 6479TIP3   OH219381   4.109   5.784   5.586
 6479TIP3    H119382   4.162   5.814   5.512
 6479TIP3    H219383   4.019   5.803   5.560
 6480TIP3   OH219384   2.389   3.006   0.446
 6480TIP3    H119385   2.434   3.072   0.393
 6480TIP3    H219386   2.317   3.052   0.487
 6481TIP3   OH219387   1.827   2.891   2.262
 6481TIP3    H119388   1.758   2.845   2.215
 6481TIP3    H219389   1.875   2.940   2.195
 6482TIP3   OH219390   6.320   2.154   2.974
 6482TIP3    H119391   6.411   2.124   2.973
 6482TIP3    H219392   6.284   2.116   3.054
 6483TIP3   OH219393   4.454   6.626   6.713
 6483TIP3    H119394   4.431   6.545   6.668
 6483TIP3    H219395   4.441   6.694   6.648
 6484TIP3   OH219396   7.043   4.056   5.358
 6484TIP3    H119397   7.008   3.967   5.353
 6484TIP3    H219398   6.966   4.113   5.354
 6485TIP3   OH219399   1.141   6.167   3.184
 6485TIP3    H119400   1.119   6.145   3.093
 6485TIP3    H219401   1.068   6.130   3.235
 6486TIP3   OH219402   5.085   6.121   2.859
 6486TIP3    H119403   5.031   6.043   2.846
 6486TIP3    H219404   5.051   6.162   2.938
 6487TIP3   OH219405   8.032   7.512   5.885
 6487TIP3    H119406   8.016   7.591   5.937
 6487TIP3    H219407   7.982   7.525   5.805
 6488TIP3   OH219408   4.047   1.869   5.989
 6488TIP3    H119409   4.107   1.816   6.041
 6488TIP3    H219410   4.071   1.851   5.898
 6489TIP3   OH219411   5.503   5.861   3.233
 6489TIP3    H119412   5.517   5.878   3.140
 6489TIP3    H219413   5.585   5.885   3.275
 6490TIP3   OH219414   1.628   5.207   5.763
 6490TIP3    H119415   1.654   5.190   5.673
 6490TIP3    H219416   1.584   5.127   5.791
 6491TIP3   OH219417   3.354   5.299   6.171
 6491TIP3    H119418   3.389   5.264   6.253
 6491TIP3    H219419   3.273   5.250   6.157
 6492TIP3   OH219420   8.204   0.091   1.055
 6492TIP3    H119421   8.292   0.059   1.075
 6492TIP3    H219422   8.218   0.183   1.033
 6493TIP3   OH219423   2.235   5.768   6.238
 6493TIP3    H119424   2.230   5.805   6.150
 6493TIP3    H219425   2.147   5.734   6.255
 6494TIP3   OH219426   8.149   4.376   5.557
 6494TIP3    H119427   8.235   4.416   5.565
 6494TIP3    H219428   8.111   4.414   5.477
 6495TIP3   OH219429   1.118   0.158   2.188
 6495TIP3    H119430   1.133   0.154   2.283
 6495TIP3    H219431   1.032   0.119   2.176
 6496TIP3   OH219432   5.775   7.727   5.079
 6496TIP3    H119433   5.814   7.709   5.165
 6496TIP3    H219434   5.843   7.701   5.017
 6497TIP3   OH219435   4.129   6.522   4.964
 6497TIP3    H119436   4.140   6.616   4.980
 6497TIP3    H219437   4.215   6.485   4.985
 6498TIP3   OH219438   1.704   3.787   5.864
 6498TIP3    H119439   1.657   3.730   5.925
 6498TIP3    H219440   1.682   3.876   5.893
 6499TIP3   OH219441   5.985   0.429   0.720
 6499TIP3    H119442   5.895   0.441   0.749
 6499TIP3    H219443   5.999   0.497   0.654
 6500TIP3   OH219444   5.534   7.078   4.767
 6500TIP3    H119445   5.543   7.020   4.843
 6500TIP3    H219446   5.514   7.164   4.805
 6501TIP3   OH219447   4.677   4.769   4.368
 6501TIP3    H119448   4.704   4.678   4.380
 6501TIP3    H219449   4.746   4.808   4.315
 6502TIP3   OH219450   2.544   0.964   3.697
 6502TIP3    H119451   2.448   0.964   3.692
 6502TIP3    H219452   2.563   0.980   3.789
 6503TIP3   OH219453   6.352   3.537   1.404
 6503TIP3    H119454   6.362   3.602   1.335
 6503TIP3    H219455   6.384   3.581   1.483
 6504TIP3   OH219456   2.720   3.794   2.848
 6504TIP3    H119457   2.807   3.834   2.854
 6504TIP3    H219458   2.712   3.743   2.929
 6505TIP3   OH219459   4.618   3.226   0.616
 6505TIP3    H119460   4.552   3.181   0.668
 6505TIP3    H219461   4.687   3.248   0.679
 6506TIP3   OH219462   2.747   0.129   2.442
 6506TIP3    H119463   2.708   0.100   2.359
 6506TIP3    H219464   2.841   0.130   2.425
 6507TIP3   OH219465   1.043   1.190   0.361
 6507TIP3    H119466   1.110   1.213   0.424
 6507TIP3    H219467   1.012   1.104   0.389
 6508TIP3   OH219468   2.445   3.447   2.523
 6508TIP3    H119469   2.429   3.528   2.475
 6508TIP3    H219470   2.538   3.429   2.511
 6509TIP3   OH219471   0.502   7.194   6.094
 6509TIP3    H119472   0.533   7.228   6.010
 6509TIP3    H219473   0.432   7.254   6.120
 6510TIP3   OH219474   4.863   1.991   5.305
 6510TIP3    H119475   4.926   1.935   5.350
 6510TIP3    H219476   4.898   2.079   5.314
 6511TIP3   OH219477   3.499   1.657   3.672
 6511TIP3    H119478   3.571   1.720   3.672
 6511TIP3    H219479   3.420   1.710   3.685
 6512TIP3   OH219480   6.341   5.247   4.485
 6512TIP3    H119481   6.419   5.302   4.491
 6512TIP3    H219482   6.343   5.194   4.565
 6513TIP3   OH219483   4.404   5.554   2.511
 6513TIP3    H119484   4.426   5.468   2.475
 6513TIP3    H219485   4.419   5.615   2.439
 6514TIP3   OH219486   1.295   0.154   4.920
 6514TIP3    H119487   1.241   0.217   4.970
 6514TIP3    H219488   1.361   0.208   4.877
 6515TIP3   OH219489   3.490   4.802   0.653
 6515TIP3    H119490   3.505   4.845   0.737
 6515TIP3    H219491   3.395   4.800   0.643
 6516TIP3   OH219492   4.756   0.944   2.757
 6516TIP3    H119493   4.813   1.021   2.766
 6516TIP3    H219494   4.808   0.872   2.794
 6517TIP3   OH219495   1.393   1.557   4.928
 6517TIP3    H119496   1.425   1.599   4.848
 6517TIP3    H219497   1.422   1.614   4.999
 6518TIP3   OH219498   2.422   1.939   3.624
 6518TIP3    H119499   2.494   1.959   3.564
 6518TIP3    H219500   2.345   1.979   3.584
 6519TIP3   OH219501   6.511   6.735   1.227
 6519TIP3    H119502   6.499   6.809   1.287
 6519TIP3    H219503   6.599   6.703   1.246
 6520TIP3   OH219504   7.881   1.782   4.890
 6520TIP3    H119505   7.935   1.725   4.944
 6520TIP3    H219506   7.887   1.744   4.802
 6521TIP3   OH219507   6.690   3.474   1.183
 6521TIP3    H119508   6.616   3.437   1.135
 6521TIP3    H219509   6.750   3.400   1.197
 6522TIP3   OH219510   6.523   6.067   2.535
 6522TIP3    H119511   6.546   6.156   2.506
 6522TIP3    H219512   6.588   6.046   2.601
 6523TIP3   OH219513   1.245   3.862   1.625
 6523TIP3    H119514   1.157   3.888   1.653
 6523TIP3    H219515   1.241   3.865   1.529
 6524TIP3   OH219516   6.307   3.999   0.747
 6524TIP3    H119517   6.239   4.064   0.727
 6524TIP3    H219518   6.389   4.050   0.748
 6525TIP3   OH219519   4.282   5.950   2.052
 6525TIP3    H119520   4.215   5.885   2.029
 6525TIP3    H219521   4.232   6.028   2.075
 6526TIP3   OH219522   2.449   3.250   1.312
 6526TIP3    H119523   2.506   3.200   1.254
 6526TIP3    H219524   2.503   3.324   1.341
 6527TIP3   OH219525   8.053   3.566   3.353
 6527TIP3    H119526   8.019   3.486   3.314
 6527TIP3    H219527   8.087   3.539   3.438
 6528TIP3   OH219528   6.613   7.062   5.628
 6528TIP3    H119529   6.552   7.133   5.650
 6528TIP3    H219530   6.644   7.030   5.712
 6529TIP3   OH219531   6.209   4.134   1.452
 6529TIP3    H119532   6.169   4.065   1.398
 6529TIP3    H219533   6.283   4.091   1.494
 6530TIP3   OH219534   4.598   0.881   0.378
 6530TIP3    H119535   4.617   0.829   0.456
 6530TIP3    H219536   4.531   0.831   0.332
 6531TIP3   OH219537   4.606   3.476   0.496
 6531TIP3    H119538   4.580   3.484   0.405
 6531TIP3    H219539   4.620   3.382   0.510
 6532TIP3   OH219540   1.574   0.067   2.534
 6532TIP3    H119541   1.540   0.103   2.452
 6532TIP3    H219542   1.642   0.006   2.506
 6533TIP3   OH219543   7.579   3.561   5.110
 6533TIP3    H119544   7.567   3.468   5.091
 6533TIP3    H219545   7.500   3.586   5.158
 6534TIP3   OH219546   6.899   1.946   2.820
 6534TIP3    H119547   6.820   1.917   2.866
 6534TIP3    H219548   6.874   1.948   2.728
 6535TIP3   OH219549   6.904   7.802   0.256
 6535TIP3    H119550   6.861   7.855   0.189
 6535TIP3    H219551   6.874   7.713   0.239
 6536TIP3   OH219552   3.301   3.025   6.064
 6536TIP3    H119553   3.295   3.068   5.979
 6536TIP3    H219554   3.302   2.931   6.044
 6537TIP3   OH219555   4.475   5.933   6.433
 6537TIP3    H119556   4.533   5.920   6.357
 6537TIP3    H219557   4.533   5.962   6.503
 6538TIP3   OH219558   1.746   2.037   5.110
 6538TIP3    H119559   1.734   2.132   5.110
 6538TIP3    H219560   1.704   2.007   5.029
 6539TIP3   OH219561   1.567   4.297   5.809
 6539TIP3    H119562   1.510   4.368   5.837
 6539TIP3    H219563   1.523   4.261   5.731
 6540TIP3   OH219564   5.037   1.572   0.179
 6540TIP3    H119565   5.102   1.638   0.205
 6540TIP3    H219566   5.015   1.595   0.089
 6541TIP3   OH219567   0.174   6.355   1.716
 6541TIP3    H119568   0.198   6.302   1.792
 6541TIP3    H219569   0.258   6.388   1.683
 6542TIP3   OH219570   8.137   0.586   1.891
 6542TIP3    H119571   8.045   0.591   1.867
 6542TIP3    H219572   8.157   0.673   1.927
 6543TIP3   OH219573   2.171   6.955   4.399
 6543TIP3    H119574   2.163   7.036   4.449
 6543TIP3    H219575   2.257   6.960   4.358
 6544TIP3   OH219576   6.115   4.177   6.506
 6544TIP3    H119577   6.047   4.152   6.444
 6544TIP3    H219578   6.171   4.100   6.514
 6545TIP3   OH219579   0.931   7.273   5.458
 6545TIP3    H119580   0.980   7.206   5.410
 6545TIP3    H219581   0.957   7.260   5.549
 6546TIP3   OH219582   5.139   7.692   3.226
 6546TIP3    H119583   5.146   7.601   3.254
 6546TIP3    H219584   5.222   7.710   3.181
 6547TIP3   OH219585   6.074   4.309   0.257
 6547TIP3    H119586   6.142   4.263   0.306
 6547TIP3    H219587   6.006   4.244   0.241
 6548TIP3   OH219588   5.957   1.048   3.881
 6548TIP3    H119589   5.957   0.985   3.809
 6548TIP3    H219590   5.908   1.005   3.951
 6549TIP3   OH219591   2.461   5.268   6.510
 6549TIP3    H119592   2.379   5.237   6.548
 6549TIP3    H219593   2.472   5.356   6.546
 6550TIP3   OH219594   2.755   6.878   3.947
 6550TIP3    H119595   2.710   6.915   3.872
 6550TIP3    H219596   2.800   6.800   3.913
 6551TIP3   OH219597   3.447   1.804   5.450
 6551TIP3    H119598   3.364   1.840   5.420
 6551TIP3    H219599   3.448   1.714   5.417
 6552TIP3   OH219600   3.271   0.024   5.003
 6552TIP3    H119601   3.286  -0.032   5.079
 6552TIP3    H219602   3.202   0.084   5.031
 6553TIP3   OH219603   1.823   5.607   5.822
 6553TIP3    H119604   1.779   5.523   5.837
 6553TIP3    H219605   1.766   5.653   5.760
 6554TIP3   OH219606   7.790   0.889   0.208
 6554TIP3    H119607   7.807   0.955   0.276
 6554TIP3    H219608   7.860   0.902   0.144
 6555TIP3   OH219609   8.248   6.074   3.031
 6555TIP3    H119610   8.278   6.016   3.101
 6555TIP3    H219611   8.304   6.052   2.956
 6556TIP3   OH219612   0.891   0.761   5.358
 6556TIP3    H119613   0.976   0.771   5.401
 6556TIP3    H219614   0.891   0.828   5.290
 6557TIP3   OH219615   4.698   6.554   0.639
 6557TIP3    H119616   4.643   6.487   0.679
 6557TIP3    H219617   4.658   6.570   0.553
 6558TIP3   OH219618   4.836   1.855   3.813
 6558TIP3    H119619   4.811   1.942   3.781
 6558TIP3    H219620   4.777   1.838   3.886
 6559TIP3   OH219621   2.953   2.360   0.730
 6559TIP3    H119622   3.026   2.416   0.756
 6559TIP3    H219623   2.896   2.416   0.678
 6560TIP3   OH219624   6.210   4.403   1.403
 6560TIP3    H119625   6.220   4.309   1.417
 6560TIP3    H219626   6.168   4.434   1.484
 6561TIP3   OH219627   5.230   1.806   2.861
 6561TIP3    H119628   5.210   1.820   2.953
 6561TIP3    H219629   5.178   1.729   2.837
 6562TIP3   OH219630   4.131   6.710   1.703
 6562TIP3    H119631   4.059   6.718   1.640
 6562TIP3    H219632   4.117   6.783   1.764
 6563TIP3   OH219633   6.458   1.462   4.804
 6563TIP3    H119634   6.456   1.483   4.710
 6563TIP3    H219635   6.452   1.547   4.848
 6564TIP3   OH219636   2.511   7.767   2.997
 6564TIP3    H119637   2.440   7.725   2.949
 6564TIP3    H219638   2.549   7.829   2.934
 6565TIP3   OH219639   3.761   1.800   3.292
 6565TIP3    H119640   3.769   1.842   3.207
 6565TIP3    H219641   3.703   1.725   3.276
 6566TIP3   OH219642   7.992   3.404   4.986
 6566TIP3    H119643   8.068   3.358   4.952
 6566TIP3    H219644   8.012   3.419   5.079
 6567TIP3   OH219645   2.471   3.800   3.784
 6567TIP3    H119646   2.548   3.744   3.797
 6567TIP3    H219647   2.482   3.869   3.850
 6568TIP3   OH219648   6.278   1.847   0.913
 6568TIP3    H119649   6.188   1.855   0.945
 6568TIP3    H219650   6.327   1.812   0.987
 6569TIP3   OH219651   1.129   7.075   5.394
 6569TIP3    H119652   1.104   7.030   5.474
 6569TIP3    H219653   1.164   7.006   5.338
 6570TIP3   OH219654   4.684   1.255   1.486
 6570TIP3    H119655   4.728   1.235   1.404
 6570TIP3    H219656   4.614   1.315   1.461
 6571TIP3   OH219657   7.266   0.064   2.509
 6571TIP3    H119658   7.215   0.140   2.537
 6571TIP3    H219659   7.347   0.102   2.473
 6572TIP3   OH219660   4.722   2.882   1.331
 6572TIP3    H119661   4.682   2.868   1.417
 6572TIP3    H219662   4.698   2.805   1.280
 6573TIP3   OH219663   5.797   3.000   6.330
 6573TIP3    H119664   5.879   2.956   6.355
 6573TIP3    H219665   5.751   3.014   6.412
 6574TIP3   OH219666   0.983   2.400   4.697
 6574TIP3    H119667   0.954   2.309   4.697
 6574TIP3    H219668   0.938   2.441   4.770
 6575TIP3   OH219669   3.495   1.878   0.995
 6575TIP3    H119670   3.430   1.839   1.055
 6575TIP3    H219671   3.446   1.895   0.915
 6576TIP3   OH219672   1.872   1.703   3.287
 6576TIP3    H119673   1.832   1.697   3.201
 6576TIP3    H219674   1.945   1.642   3.284
 6577TIP3   OH219675   4.990   4.765   1.855
 6577TIP3    H119676   4.900   4.787   1.876
 6577TIP3    H219677   4.995   4.771   1.759
 6578TIP3   OH219678   3.984   1.676   0.075
 6578TIP3    H119679   3.938   1.735   0.016
 6578TIP3    H219680   3.915   1.639   0.130
 6579TIP3   OH219681   7.184   7.514   5.635
 6579TIP3    H119682   7.140   7.590   5.674
 6579TIP3    H219683   7.238   7.551   5.566
 6580TIP3   OH219684   2.439   3.249   0.829
 6580TIP3    H119685   2.501   3.179   0.810
 6580TIP3    H219686   2.357   3.220   0.789
 6581TIP3   OH219687   3.358   2.172   6.635
 6581TIP3    H119688   3.405   2.185   6.552
 6581TIP3    H219689   3.279   2.224   6.625
 6582TIP3   OH219690   6.018   1.576   0.860
 6582TIP3    H119691   5.927   1.569   0.887
 6582TIP3    H219692   6.051   1.653   0.907
 6583TIP3   OH219693   3.437   6.061   2.427
 6583TIP3    H119694   3.446   6.156   2.421
 6583TIP3    H219695   3.370   6.040   2.362
 6584TIP3   OH219696   1.253   7.265   6.144
 6584TIP3    H119697   1.318   7.261   6.214
 6584TIP3    H219698   1.211   7.351   6.155
 6585TIP3   OH219699   3.798   2.507   4.859
 6585TIP3    H119700   3.719   2.466   4.822
 6585TIP3    H219701   3.769   2.594   4.886
 6586TIP3   OH219702   5.098   1.124   1.014
 6586TIP3    H119703   5.170   1.163   1.063
 6586TIP3    H219704   5.129   1.037   0.989
 6587TIP3   OH219705   6.548   4.668   2.490
 6587TIP3    H119706   6.584   4.751   2.519
 6587TIP3    H219707   6.612   4.603   2.519
 6588TIP3   OH219708   2.617   3.226   1.098
 6588TIP3    H119709   2.663   3.304   1.068
 6588TIP3    H219710   2.551   3.210   1.031
 6589TIP3   OH219711   4.327   0.698   5.360
 6589TIP3    H119712   4.270   0.627   5.329
 6589TIP3    H219713   4.381   0.657   5.427
 6590TIP3   OH219714   3.150   2.682   5.381
 6590TIP3    H119715   3.117   2.595   5.403
 6590TIP3    H219716   3.188   2.672   5.294
 6591TIP3   OH219717   0.853   6.529   5.694
 6591TIP3    H119718   0.767   6.513   5.733
 6591TIP3    H219719   0.842   6.608   5.642
 6592TIP3   OH219720   2.569   0.688   0.368
 6592TIP3    H119721   2.630   0.711   0.298
 6592TIP3    H219722   2.498   0.752   0.360
 6593TIP3   OH219723   4.963   2.696   2.640
 6593TIP3    H119724   5.014   2.751   2.580
 6593TIP3    H219725   4.872   2.712   2.616
 6594TIP3   OH219726   1.451   1.612   1.442
 6594TIP3    H119727   1.428   1.687   1.497
 6594TIP3    H219728   1.540   1.590   1.466
 6595TIP3   OH219729   5.631   0.501   2.991
 6595TIP3    H119730   5.700   0.566   3.003
 6595TIP3    H219731   5.576   0.509   3.069
 6596TIP3   OH219732   6.667   2.881   3.918
 6596TIP3    H119733   6.679   2.823   3.843
 6596TIP3    H219734   6.607   2.948   3.887
 6597TIP3   OH219735   3.075   6.594   6.293
 6597TIP3    H119736   2.984   6.565   6.291
 6597TIP3    H219737   3.126   6.512   6.291
 6598TIP3   OH219738   7.207   0.253   2.919
 6598TIP3    H119739   7.191   0.319   2.986
 6598TIP3    H219740   7.165   0.174   2.953
 6599TIP3   OH219741   3.884   1.807   5.680
 6599TIP3    H119742   3.980   1.810   5.686
 6599TIP3    H219743   3.866   1.746   5.609
 6600TIP3   OH219744   2.896   5.417   1.057
 6600TIP3    H119745   2.819   5.474   1.062
 6600TIP3    H219746   2.878   5.361   0.982
 6601TIP3   OH219747   5.354   2.906   5.131
 6601TIP3    H119748   5.349   2.937   5.221
 6601TIP3    H219749   5.266   2.919   5.096
 6602TIP3   OH219750   4.170   1.721   1.472
 6602TIP3    H119751   4.220   1.774   1.410
 6602TIP3    H219752   4.093   1.693   1.423
 6603TIP3   OH219753   0.581   0.963   2.911
 6603TIP3    H119754   0.492   0.997   2.924
 6603TIP3    H219755   0.576   0.912   2.831
 6604TIP3   OH219756   6.597   4.500   5.383
 6604TIP3    H119757   6.524   4.443   5.409
 6604TIP3    H219758   6.561   4.553   5.312
 6605TIP3   OH219759   4.299   2.040   0.166
 6605TIP3    H119760   4.295   2.134   0.178
 6605TIP3    H219761   4.351   2.008   0.239
 6606TIP3   OH219762   0.759   3.167   1.907
 6606TIP3    H119763   0.843   3.137   1.942
 6606TIP3    H219764   0.755   3.260   1.932
 6607TIP3   OH219765   7.185   0.760   4.171
 6607TIP3    H119766   7.147   0.716   4.095
 6607TIP3    H219767   7.273   0.786   4.142
 6608TIP3   OH219768   1.341   7.394   1.513
 6608TIP3    H119769   1.364   7.301   1.511
 6608TIP3    H219770   1.279   7.401   1.586
 6609TIP3   OH219771   6.953   5.912   4.987
 6609TIP3    H119772   6.997   5.828   4.999
 6609TIP3    H219773   6.865   5.899   5.022
 6610TIP3   OH219774   2.344   0.838   1.430
 6610TIP3    H119775   2.437   0.816   1.433
 6610TIP3    H219776   2.340   0.920   1.381
 6611TIP3   OH219777   1.647   4.058   5.953
 6611TIP3    H119778   1.695   4.111   6.017
 6611TIP3    H219779   1.645   4.111   5.874
 6612TIP3   OH219780   8.012   5.361   2.616
 6612TIP3    H119781   8.104   5.380   2.635
 6612TIP3    H219782   7.990   5.290   2.676
 6613TIP3   OH219783   4.768   0.287   6.538
 6613TIP3    H119784   4.711   0.253   6.607
 6613TIP3    H219785   4.733   0.373   6.518
 6614TIP3   OH219786   6.555   0.054   2.054
 6614TIP3    H119787   6.467   0.017   2.061
 6614TIP3    H219788   6.584   0.063   2.144
 6615TIP3   OH219789   4.252   5.838   0.390
 6615TIP3    H119790   4.166   5.877   0.405
 6615TIP3    H219791   4.313   5.909   0.410
 6616TIP3   OH219792   7.505   0.930   5.894
 6616TIP3    H119793   7.507   0.844   5.936
 6616TIP3    H219794   7.468   0.914   5.807
 6617TIP3   OH219795   5.477   7.190   6.223
 6617TIP3    H119796   5.467   7.238   6.140
 6617TIP3    H219797   5.571   7.185   6.237
 6618TIP3   OH219798   6.129   2.339   4.985
 6618TIP3    H119799   6.142   2.306   4.896
 6618TIP3    H219800   6.217   2.367   5.013
 6619TIP3   OH219801   2.359   4.280   5.952
 6619TIP3    H119802   2.440   4.315   5.989
 6619TIP3    H219803   2.296   4.352   5.960
 6620TIP3   OH219804   4.954   4.199   1.755
 6620TIP3    H119805   4.863   4.222   1.776
 6620TIP3    H219806   4.948   4.116   1.709
 6621TIP3   OH219807   2.133   2.426   5.992
 6621TIP3    H119808   2.174   2.354   6.040
 6621TIP3    H219809   2.207   2.481   5.965
 6622TIP3   OH219810   1.570   6.917   4.873
 6622TIP3    H119811   1.549   6.979   4.943
 6622TIP3    H219812   1.624   6.851   4.916
 6623TIP3   OH219813   0.446   6.214   0.200
 6623TIP3    H119814   0.364   6.252   0.230
 6623TIP3    H219815   0.452   6.131   0.246
 6624TIP3   OH219816   2.146   2.077   3.074
 6624TIP3    H119817   2.213   2.142   3.053
 6624TIP3    H219818   2.068   2.108   3.027
 6625TIP3   OH219819   3.347   6.010   4.565
 6625TIP3    H119820   3.418   5.996   4.503
 6625TIP3    H219821   3.336   5.925   4.608
 6626TIP3   OH219822   3.427   3.297   2.439
 6626TIP3    H119823   3.490   3.231   2.468
 6626TIP3    H219824   3.342   3.253   2.447
 6627TIP3   OH219825   7.994   5.448   0.404
 6627TIP3    H119826   7.982   5.383   0.474
 6627TIP3    H219827   8.018   5.528   0.450
 6628TIP3   OH219828   6.876   1.721   1.673
 6628TIP3    H119829   6.841   1.633   1.686
 6628TIP3    H219830   6.879   1.758   1.761
 6629TIP3   OH219831   5.678   2.827   1.947
 6629TIP3    H119832   5.673   2.890   1.875
 6629TIP3    H219833   5.702   2.880   2.024
 6630TIP3   OH219834   5.166   6.764   1.638
 6630TIP3    H119835   5.180   6.821   1.713
 6630TIP3    H219836   5.076   6.733   1.648
 6631TIP3   OH219837   5.392   1.252   6.465
 6631TIP3    H119838   5.474   1.298   6.446
 6631TIP3    H219839   5.420   1.163   6.487
 6632TIP3   OH219840   3.892   0.439   1.596
 6632TIP3    H119841   3.865   0.527   1.622
 6632TIP3    H219842   3.811   0.387   1.602
 6633TIP3   OH219843   2.721   7.505   6.731
 6633TIP3    H119844   2.651   7.487   6.794
 6633TIP3    H219845   2.778   7.567   6.775
 6634TIP3   OH219846   2.810   0.332   0.610
 6634TIP3    H119847   2.785   0.331   0.517
 6634TIP3    H219848   2.751   0.394   0.651
 6635TIP3   OH219849   1.895   0.326   1.641
 6635TIP3    H119850   1.840   0.248   1.648
 6635TIP3    H219851   1.941   0.330   1.724
 6636TIP3   OH219852   7.114   5.233   0.317
 6636TIP3    H119853   7.207   5.226   0.296
 6636TIP3    H219854   7.087   5.143   0.338
 6637TIP3   OH219855   1.223   5.592   3.030
 6637TIP3    H119856   1.298   5.641   2.994
 6637TIP3    H219857   1.237   5.596   3.125
 6638TIP3   OH219858   4.658   1.929   1.142
 6638TIP3    H119859   4.633   1.944   1.051
 6638TIP3    H219860   4.651   2.015   1.184
 6639TIP3   OH219861   4.708   4.606   0.679
 6639TIP3    H119862   4.662   4.678   0.636
 6639TIP3    H219863   4.697   4.532   0.620
 6640TIP3   OH219864   5.437   0.926   0.291
 6640TIP3    H119865   5.493   0.972   0.354
 6640TIP3    H219866   5.348   0.939   0.324
 6641TIP3   OH219867   1.878   1.099   6.660
 6641TIP3    H119868   1.947   1.086   6.595
 6641TIP3    H219869   1.883   1.192   6.682
 6642TIP3   OH219870   4.936   1.725   0.554
 6642TIP3    H119871   5.028   1.734   0.529
 6642TIP3    H219872   4.907   1.645   0.510
 6643TIP3   OH219873   6.133   7.557   2.346
 6643TIP3    H119874   6.204   7.497   2.369
 6643TIP3    H219875   6.070   7.503   2.298
 6644TIP3   OH219876   5.618   1.781   4.448
 6644TIP3    H119877   5.571   1.865   4.451
 6644TIP3    H219878   5.550   1.717   4.427
 6645TIP3   OH219879   1.663   2.345   1.499
 6645TIP3    H119880   1.628   2.386   1.577
 6645TIP3    H219881   1.752   2.319   1.524
 6646TIP3   OH219882   3.647   6.344   4.391
 6646TIP3    H119883   3.614   6.424   4.432
 6646TIP3    H219884   3.615   6.349   4.300
 6647TIP3   OH219885   4.643   2.601   2.935
 6647TIP3    H119886   4.558   2.558   2.920
 6647TIP3    H219887   4.705   2.528   2.940
 6648TIP3   OH219888   0.282   3.083   4.500
 6648TIP3    H119889   0.212   3.089   4.435
 6648TIP3    H219890   0.363   3.079   4.448
 6649TIP3   OH219891   7.975   0.532   1.034
 6649TIP3    H119892   8.005   0.589   0.964
 6649TIP3    H219893   7.894   0.492   1.000
 6650TIP3   OH219894   8.193   5.622   4.650
 6650TIP3    H119895   8.228   5.594   4.734
 6650TIP3    H219896   8.139   5.698   4.670
 6651TIP3   OH219897   2.102   7.644   1.439
 6651TIP3    H119898   2.181   7.663   1.388
 6651TIP3    H219899   2.132   7.636   1.529
 6652TIP3   OH219900   7.212   1.359   1.483
 6652TIP3    H119901   7.157   1.437   1.480
 6652TIP3    H219902   7.156   1.291   1.520
 6653TIP3   OH219903   0.142   3.024   2.780
 6653TIP3    H119904   0.123   2.948   2.835
 6653TIP3    H219905   0.092   3.095   2.820
 6654TIP3   OH219906   5.997   7.564   6.493
 6654TIP3    H119907   6.077   7.612   6.515
 6654TIP3    H219908   5.946   7.564   6.574
 6655TIP3   OH219909   4.719   5.579   0.210
 6655TIP3    H119910   4.800   5.529   0.213
 6655TIP3    H219911   4.707   5.602   0.118
 6656TIP3   OH219912   1.977   5.771   4.950
 6656TIP3    H119913   2.066   5.771   4.984
 6656TIP3    H219914   1.934   5.844   4.995
 6657TIP3   OH219915   4.199   0.070   2.723
 6657TIP3    H119916   4.149   0.004   2.772
 6657TIP3    H219917   4.220   0.137   2.788
 6658TIP3   OH219918   6.590   6.434   0.793
 6658TIP3    H119919   6.578   6.500   0.861
 6658TIP3    H219920   6.681   6.407   0.801
 6659TIP3   OH219921   3.467   0.900   6.239
 6659TIP3    H119922   3.527   0.922   6.310
 6659TIP3    H219923   3.380   0.922   6.274
 6660TIP3   OH219924   4.360   7.104   0.389
 6660TIP3    H119925   4.418   7.144   0.453
 6660TIP3    H219926   4.382   7.147   0.307
 6661TIP3   OH219927   5.419   3.785   3.164
 6661TIP3    H119928   5.338   3.827   3.193
 6661TIP3    H219929   5.406   3.692   3.186
 6662TIP3   OH219930   2.409   5.010   1.570
 6662TIP3    H119931   2.393   5.036   1.479
 6662TIP3    H219932   2.330   4.961   1.595
 6663TIP3   OH219933   2.124   1.643   0.494
 6663TIP3    H119934   2.101   1.704   0.424
 6663TIP3    H219935   2.047   1.587   0.503
 6664TIP3   OH219936   0.007   1.088   4.665
 6664TIP3    H119937   0.041   0.999   4.658
 6664TIP3    H219938   0.083   1.144   4.651
 6665TIP3   OH219939   8.137   5.369   5.537
 6665TIP3    H119940   8.228   5.355   5.564
 6665TIP3    H219941   8.136   5.344   5.445
 6666TIP3   OH219942   3.775   5.594   1.399
 6666TIP3    H119943   3.847   5.618   1.341
 6666TIP3    H219944   3.728   5.675   1.415
 6667TIP3   OH219945   3.065   0.596   3.662
 6667TIP3    H119946   3.055   0.640   3.746
 6667TIP3    H219947   3.047   0.665   3.597
 6668TIP3   OH219948   4.232   7.633   1.467
 6668TIP3    H119949   4.243   7.653   1.374
 6668TIP3    H219950   4.316   7.658   1.507
 6669TIP3   OH219951   1.235   2.699   5.053
 6669TIP3    H119952   1.292   2.657   4.989
 6669TIP3    H219953   1.147   2.692   5.016
 6670TIP3   OH219954   2.384   0.396   5.433
 6670TIP3    H119955   2.472   0.363   5.412
 6670TIP3    H219956   2.328   0.358   5.366
 6671TIP3   OH219957   7.238   2.298   2.534
 6671TIP3    H119958   7.320   2.256   2.558
 6671TIP3    H219959   7.219   2.356   2.607
 6672TIP3   OH219960   0.034   3.884   1.780
 6672TIP3    H119961   0.100   3.916   1.841
 6672TIP3    H219962   0.022   3.956   1.718
 6673TIP3   OH219963   4.296   2.045   5.670
 6673TIP3    H119964   4.260   2.110   5.730
 6673TIP3    H219965   4.302   2.091   5.586
 6674TIP3   OH219966   3.718   7.608   1.798
 6674TIP3    H119967   3.811   7.593   1.778
 6674TIP3    H219968   3.711   7.704   1.804
 6675TIP3   OH219969   6.585   0.108   2.986
 6675TIP3    H119970   6.522   0.106   2.913
 6675TIP3    H219971   6.614   0.199   2.990
 6676TIP3   OH219972   7.325   1.141   6.206
 6676TIP3    H119973   7.290   1.187   6.282
 6676TIP3    H219974   7.418   1.128   6.227
 6677TIP3   OH219975   5.341   0.527   0.570
 6677TIP3    H119976   5.256   0.510   0.529
 6677TIP3    H219977   5.390   0.446   0.557
 6678TIP3   OH219978   6.304   7.779   5.635
 6678TIP3    H119979   6.327   7.862   5.677
 6678TIP3    H219980   6.389   7.738   5.616
 6679TIP3   OH219981   0.476   3.734   1.302
 6679TIP3    H119982   0.506   3.671   1.369
 6679TIP3    H219983   0.421   3.795   1.351
 6680TIP3   OH219984   5.797   2.526   5.611
 6680TIP3    H119985   5.773   2.461   5.677
 6680TIP3    H219986   5.811   2.474   5.531
 6681TIP3   OH219987   5.718   3.587   3.891
 6681TIP3    H119988   5.736   3.596   3.984
 6681TIP3    H219989   5.650   3.519   3.886
 6682TIP3   OH219990   6.071   1.936   3.923
 6682TIP3    H119991   5.981   1.921   3.892
 6682TIP3    H219992   6.124   1.874   3.873
 6683TIP3   OH219993   8.115   2.356   3.840
 6683TIP3    H119994   8.160   2.418   3.896
 6683TIP3    H219995   8.094   2.406   3.761
 6684TIP3   OH219996   3.716   4.723   5.304
 6684TIP3    H119997   3.766   4.792   5.260
 6684TIP3    H219998   3.768   4.644   5.289
 6685TIP3   OH219999   2.941   5.025   0.735
 6685TIP3    H120000   2.921   4.953   0.676
 6685TIP3    H220001   2.990   4.984   0.807
 6686TIP3   OH220002   3.693   1.503   5.545
 6686TIP3    H120003   3.721   1.412   5.554
 6686TIP3    H220004   3.607   1.498   5.505
 6687TIP3   OH220005   6.163   4.484   3.046
 6687TIP3    H120006   6.215   4.527   2.979
 6687TIP3    H220007   6.074   4.482   3.010
 6688TIP3   OH220008   3.502   2.532   0.795
 6688TIP3    H120009   3.514   2.618   0.836
 6688TIP3    H220010   3.576   2.524   0.735
 6689TIP3   OH220011   7.628   1.706   6.197
 6689TIP3    H120012   7.602   1.724   6.288
 6689TIP3    H220013   7.686   1.779   6.175
 6690TIP3   OH220014   2.448   7.237   2.356
 6690TIP3    H120015   2.383   7.168   2.361
 6690TIP3    H220016   2.532   7.191   2.357
 6691TIP3   OH220017   0.189   0.734   3.311
 6691TIP3    H120018   0.266   0.765   3.358
 6691TIP3    H220019   0.176   0.644   3.343
 6692TIP3   OH220020   5.052   0.161   2.341
 6692TIP3    H120021   5.074   0.189   2.252
 6692TIP3    H220022   5.055   0.066   2.338
 6693TIP3   OH220023   7.678   5.774   4.163
 6693TIP3    H120024   7.702   5.728   4.244
 6693TIP3    H220025   7.758   5.819   4.137
 6694TIP3   OH220026   4.045   6.886   6.729
 6694TIP3    H120027   4.136   6.870   6.702
 6694TIP3    H220028   3.994   6.820   6.681
 6695TIP3   OH220029   2.085   2.080   5.435
 6695TIP3    H120030   2.026   2.153   5.419
 6695TIP3    H220031   2.063   2.016   5.367
 6696TIP3   OH220032   2.551   6.392   5.459
 6696TIP3    H120033   2.530   6.400   5.552
 6696TIP3    H220034   2.467   6.406   5.415
 6697TIP3   OH220035   0.995   0.390   3.459
 6697TIP3    H120036   0.960   0.473   3.428
 6697TIP3    H220037   1.081   0.384   3.419
 6698TIP3   OH220038   3.241   6.833   5.448
 6698TIP3    H120039   3.310   6.897   5.427
 6698TIP3    H220040   3.165   6.864   5.398
 6699TIP3   OH220041   2.761   3.947   5.426
 6699TIP3    H120042   2.679   3.909   5.457
 6699TIP3    H220043   2.821   3.938   5.499
 6700TIP3   OH220044   3.849   6.745   6.235
 6700TIP3    H120045   3.902   6.820   6.260
 6700TIP3    H220046   3.808   6.717   6.318
 6701TIP3   OH220047   0.864   6.122   4.222
 6701TIP3    H120048   0.815   6.183   4.167
 6701TIP3    H220049   0.799   6.059   4.252
 6702TIP3   OH220050   2.215   1.409   0.285
 6702TIP3    H120051   2.152   1.480   0.298
 6702TIP3    H220052   2.202   1.382   0.194
 6703TIP3   OH220053   0.469   0.417   1.057
 6703TIP3    H120054   0.523   0.348   1.096
 6703TIP3    H220055   0.397   0.429   1.118
 6704TIP3   OH220056   4.051   3.802   0.019
 6704TIP3    H120057   4.054   3.709  -0.001
 6704TIP3    H220058   4.069   3.807   0.113
 6705TIP3   OH220059   6.014   5.918   5.606
 6705TIP3    H120060   6.008   6.010   5.580
 6705TIP3    H220061   6.093   5.915   5.661
 6706TIP3   OH220062   6.969   3.835   1.947
 6706TIP3    H120063   6.972   3.922   1.986
 6706TIP3    H220064   7.049   3.792   1.978
 6707TIP3   OH220065   2.569   0.998   0.402
 6707TIP3    H120066   2.527   0.963   0.481
 6707TIP3    H220067   2.523   1.081   0.385
 6708TIP3   OH220068   2.006   0.197   6.522
 6708TIP3    H120069   2.022   0.217   6.430
 6708TIP3    H220070   1.961   0.113   6.521
 6709TIP3   OH220071   5.738   4.937   0.445
 6709TIP3    H120072   5.723   4.968   0.356
 6709TIP3    H220073   5.655   4.897   0.471
 6710TIP3   OH220074   5.497   1.686   4.911
 6710TIP3    H120075   5.515   1.728   4.996
 6710TIP3    H220076   5.428   1.622   4.931
 6711TIP3   OH220077   4.250   1.833   2.895
 6711TIP3    H120078   4.201   1.771   2.842
 6711TIP3    H220079   4.231   1.808   2.985
 6712TIP3   OH220080   3.686   1.858   1.697
 6712TIP3    H120081   3.659   1.780   1.648
 6712TIP3    H220082   3.703   1.924   1.630
 6713TIP3   OH220083   6.772   6.383   6.343
 6713TIP3    H120084   6.782   6.427   6.427
 6713TIP3    H220085   6.679   6.392   6.322
 6714TIP3   OH220086   4.352   7.420   6.231
 6714TIP3    H120087   4.362   7.504   6.185
 6714TIP3    H220088   4.417   7.363   6.190
 6715TIP3   OH220089   2.936   3.708   6.380
 6715TIP3    H120090   2.906   3.797   6.397
 6715TIP3    H220091   2.893   3.683   6.298
 6716TIP3   OH220092   4.994   2.120   3.862
 6716TIP3    H120093   4.906   2.134   3.899
 6716TIP3    H220094   5.009   2.026   3.869
 6717TIP3   OH220095   5.020   0.715   4.802
 6717TIP3    H120096   5.105   0.682   4.773
 6717TIP3    H220097   5.022   0.708   4.897
 6718TIP3   OH220098   1.226   1.293   4.741
 6718TIP3    H120099   1.269   1.232   4.801
 6718TIP3    H220100   1.291   1.308   4.672
 6719TIP3   OH220101   5.714   7.711   2.671
 6719TIP3    H120102   5.623   7.680   2.669
 6719TIP3    H220103   5.733   7.734   2.580
 6720TIP3   OH220104   8.068   3.480   6.310
 6720TIP3    H120105   8.160   3.485   6.286
 6720TIP3    H220106   8.024   3.541   6.251
 6721TIP3   OH220107   1.730   0.702   5.474
 6721TIP3    H120108   1.797   0.638   5.497
 6721TIP3    H220109   1.647   0.659   5.496
 6722TIP3   OH220110   5.842   4.096   4.481
 6722TIP3    H120111   5.850   4.189   4.505
 6722TIP3    H220112   5.843   4.096   4.385
 6723TIP3   OH220113   4.390   5.783   3.190
 6723TIP3    H120114   4.349   5.750   3.270
 6723TIP3    H220115   4.374   5.715   3.125
 6724TIP3   OH220116   3.564   5.895   5.924
 6724TIP3    H120117   3.489   5.941   5.962
 6724TIP3    H220118   3.527   5.846   5.851
 6725TIP3   OH220119   1.437   6.039   2.669
 6725TIP3    H120120   1.454   6.133   2.668
 6725TIP3    H220121   1.355   6.029   2.620
 6726TIP3   OH220122   8.085   7.201   2.750
 6726TIP3    H120123   8.128   7.140   2.810
 6726TIP3    H220124   8.006   7.230   2.797
 6727TIP3   OH220125   0.383   0.573   4.381
 6727TIP3    H120126   0.332   0.644   4.419
 6727TIP3    H220127   0.440   0.616   4.317
 6728TIP3   OH220128   4.828   7.268   5.998
 6728TIP3    H120129   4.872   7.258   6.083
 6728TIP3    H220130   4.888   7.321   5.946
 6729TIP3   OH220131   7.223   7.187   1.949
 6729TIP3    H120132   7.226   7.251   2.020
 6729TIP3    H220133   7.228   7.239   1.869
 6730TIP3   OH220134   3.006   2.357   1.467
 6730TIP3    H120135   2.921   2.324   1.438
 6730TIP3    H220136   3.022   2.433   1.412
 6731TIP3   OH220137   7.672   5.209   0.696
 6731TIP3    H120138   7.667   5.120   0.662
 6731TIP3    H220139   7.648   5.202   0.788
 6732TIP3   OH220140   1.397   6.989   0.095
 6732TIP3    H120141   1.364   6.921   0.036
 6732TIP3    H220142   1.377   7.072   0.051
 6733TIP3   OH220143   3.261   4.313   5.685
 6733TIP3    H120144   3.256   4.340   5.777
 6733TIP3    H220145   3.354   4.322   5.663
 6734TIP3   OH220146   1.715   1.908   1.967
 6734TIP3    H120147   1.687   1.956   1.889
 6734TIP3    H220148   1.757   1.829   1.933
 6735TIP3   OH220149   4.694   5.813   0.350
 6735TIP3    H120150   4.680   5.739   0.291
 6735TIP3    H220151   4.729   5.774   0.430
 6736TIP3   OH220152   5.716   1.310   0.947
 6736TIP3    H120153   5.740   1.386   1.001
 6736TIP3    H220154   5.620   1.308   0.951
 6737TIP3   OH220155   0.735   4.704   2.283
 6737TIP3    H120156   0.708   4.675   2.370
 6737TIP3    H220157   0.719   4.798   2.283
 6738TIP3   OH220158   7.859   5.994   6.273
 6738TIP3    H120159   7.936   6.018   6.323
 6738TIP3    H220160   7.839   5.905   6.303
 6739TIP3   OH220161   2.125   2.415   2.825
 6739TIP3    H120162   2.181   2.338   2.813
 6739TIP3    H220163   2.186   2.489   2.827
 6740TIP3   OH220164   4.852   2.609   4.825
 6740TIP3    H120165   4.864   2.704   4.828
 6740TIP3    H220166   4.875   2.578   4.912
 6741TIP3   OH220167   1.530   2.451   1.698
 6741TIP3    H120168   1.606   2.494   1.738
 6741TIP3    H220169   1.468   2.521   1.682
 6742TIP3   OH220170   0.555   7.687   4.398
 6742TIP3    H120171   0.560   7.604   4.444
 6742TIP3    H220172   0.473   7.727   4.428
 6743TIP3   OH220173   0.235   0.693   6.117
 6743TIP3    H120174   0.171   0.650   6.061
 6743TIP3    H220175   0.212   0.667   6.206
 6744TIP3   OH220176   5.883   7.848   0.484
 6744TIP3    H120177   5.816   7.807   0.429
 6744TIP3    H220178   5.837   7.920   0.527
 6745TIP3   OH220179   1.665   3.342   6.078
 6745TIP3    H120180   1.712   3.400   6.018
 6745TIP3    H220181   1.586   3.317   6.030
 6746TIP3   OH220182   3.101   3.530   1.849
 6746TIP3    H120183   3.089   3.491   1.936
 6746TIP3    H220184   3.180   3.584   1.857
 6747TIP3   OH220185   3.777   0.409   0.266
 6747TIP3    H120186   3.776   0.444   0.176
 6747TIP3    H220187   3.690   0.427   0.300
 6748TIP3   OH220188   7.495   2.577   6.039
 6748TIP3    H120189   7.399   2.584   6.035
 6748TIP3    H220190   7.523   2.659   6.079
 6749TIP3   OH220191   4.745   2.823   3.065
 6749TIP3    H120192   4.700   2.749   3.025
 6749TIP3    H220193   4.825   2.833   3.012
 6750TIP3   OH220194   4.691   3.008   2.477
 6750TIP3    H120195   4.770   2.956   2.486
 6750TIP3    H220196   4.626   2.963   2.530
 6751TIP3   OH220197   4.000   5.401   2.396
 6751TIP3    H120198   3.905   5.395   2.405
 6751TIP3    H220199   4.025   5.476   2.450
 6752TIP3   OH220200   4.191   1.437   0.747
 6752TIP3    H120201   4.208   1.529   0.766
 6752TIP3    H220202   4.200   1.430   0.652
 6753TIP3   OH220203   5.247   7.063   6.291
 6753TIP3    H120204   5.328   7.108   6.268
 6753TIP3    H220205   5.273   6.971   6.299
 6754TIP3   OH220206   5.861   5.038   6.184
 6754TIP3    H120207   5.938   5.016   6.237
 6754TIP3    H220208   5.894   5.044   6.095
 6755TIP3   OH220209   0.495   1.670   1.336
 6755TIP3    H120210   0.567   1.733   1.331
 6755TIP3    H220211   0.516   1.616   1.412
 6756TIP3   OH220212   7.165   1.498   1.862
 6756TIP3    H120213   7.226   1.427   1.841
 6756TIP3    H220214   7.145   1.487   1.955
 6757TIP3   OH220215   5.934   5.640   2.105
 6757TIP3    H120216   5.966   5.689   2.180
 6757TIP3    H220217   5.948   5.698   2.030
 6758TIP3   OH220218   3.684   0.466   4.384
 6758TIP3    H120219   3.617   0.516   4.430
 6758TIP3    H220220   3.713   0.524   4.314
 6759TIP3   OH220221   0.726   4.699   6.498
 6759TIP3    H120222   0.821   4.706   6.493
 6759TIP3    H220223   0.708   4.607   6.476
 6760TIP3   OH220224   4.096   4.037   4.177
 6760TIP3    H120225   4.134   4.021   4.090
 6760TIP3    H220226   4.120   4.127   4.198
 6761TIP3   OH220227   3.457   3.221   4.767
 6761TIP3    H120228   3.415   3.303   4.740
 6761TIP3    H220229   3.385   3.166   4.798
 6762TIP3   OH220230   0.578   5.431   0.707
 6762TIP3    H120231   0.505   5.371   0.689
 6762TIP3    H220232   0.564   5.504   0.647
 6763TIP3   OH220233   7.452   4.802   0.337
 6763TIP3    H120234   7.412   4.877   0.382
 6763TIP3    H220235   7.501   4.841   0.265
 6764TIP3   OH220236   0.227   6.857   4.708
 6764TIP3    H120237   0.178   6.820   4.781
 6764TIP3    H220238   0.245   6.948   4.734
 6765TIP3   OH220239   1.182   2.082  -0.028
 6765TIP3    H120240   1.105   2.073  -0.083
 6765TIP3    H220241   1.156   2.143   0.041
 6766TIP3   OH220242   1.156   1.330   2.108
 6766TIP3    H120243   1.061   1.341   2.099
 6766TIP3    H220244   1.184   1.301   2.022
 6767TIP3   OH220245   1.009   5.353   2.251
 6767TIP3    H120246   0.969   5.421   2.305
 6767TIP3    H220247   1.070   5.400   2.195
 6768TIP3   OH220248   2.004   4.588   0.961
 6768TIP3    H120249   2.008   4.555   1.050
 6768TIP3    H220250   1.936   4.536   0.918
 6769TIP3   OH220251   7.616   6.409   1.302
 6769TIP3    H120252   7.538   6.457   1.330
 6769TIP3    H220253   7.645   6.362   1.380
 6770TIP3   OH220254   0.235   2.201   2.063
 6770TIP3    H120255   0.195   2.211   2.149
 6770TIP3    H220256   0.327   2.221   2.077
 6771TIP3   OH220257   3.066   0.908   6.668
 6771TIP3    H120258   3.020   0.992   6.673
 6771TIP3    H220259   3.053   0.868   6.754
 6772TIP3   OH220260   2.853   1.116   0.856
 6772TIP3    H120261   2.912   1.041   0.869
 6772TIP3    H220262   2.791   1.111   0.928
 6773TIP3   OH220263   3.948   1.756   4.203
 6773TIP3    H120264   4.025   1.700   4.215
 6773TIP3    H220265   3.917   1.773   4.292
 6774TIP3   OH220266   2.146   4.885   1.937
 6774TIP3    H120267   2.231   4.912   1.902
 6774TIP3    H220268   2.124   4.954   2.000
 6775TIP3   OH220269   4.102   6.866   3.524
 6775TIP3    H120270   4.171   6.836   3.583
 6775TIP3    H220271   4.126   6.957   3.503
 6776TIP3   OH220272   4.318   3.277   0.554
 6776TIP3    H120273   4.398   3.314   0.516
 6776TIP3    H220274   4.247   3.317   0.504
 6777TIP3   OH220275   1.485   6.880   3.634
 6777TIP3    H120276   1.422   6.855   3.567
 6777TIP3    H220277   1.570   6.878   3.589
 6778TIP3   OH220278   6.487   7.168   4.026
 6778TIP3    H120279   6.393   7.152   4.029
 6778TIP3    H220280   6.520   7.108   3.959
 6779TIP3   OH220281   3.299   4.672   6.137
 6779TIP3    H120282   3.334   4.756   6.107
 6779TIP3    H220283   3.250   4.694   6.216
 6780TIP3   OH220284   2.327   0.568   4.033
 6780TIP3    H120285   2.357   0.650   3.993
 6780TIP3    H220286   2.239   0.555   3.997
 6781TIP3   OH220287   3.650   5.624   2.695
 6781TIP3    H120288   3.645   5.541   2.648
 6781TIP3    H220289   3.742   5.630   2.722
 6782TIP3   OH220290   4.821   6.312   1.863
 6782TIP3    H120291   4.784   6.226   1.846
 6782TIP3    H220292   4.870   6.334   1.783
 6783TIP3   OH220293   4.766   0.919   3.289
 6783TIP3    H120294   4.711   0.904   3.212
 6783TIP3    H220295   4.803   0.832   3.308
 6784TIP3   OH220296   6.151   6.936   4.285
 6784TIP3    H120297   6.094   6.994   4.336
 6784TIP3    H220298   6.110   6.932   4.199
 6785TIP3   OH220299   7.406   2.781   1.999
 6785TIP3    H120300   7.385   2.772   1.906
 6785TIP3    H220301   7.322   2.799   2.041
 6786TIP3   OH220302   1.188   2.194   4.804
 6786TIP3    H120303   1.187   2.244   4.722
 6786TIP3    H220304   1.099   2.161   4.813
 6787TIP3   OH220305   0.772   6.911   4.554
 6787TIP3    H120306   0.719   6.832   4.555
 6787TIP3    H220307   0.830   6.903   4.630
 6788TIP3   OH220308   8.170   6.733   3.454
 6788TIP3    H120309   8.094   6.686   3.418
 6788TIP3    H220310   8.181   6.697   3.542
 6789TIP3   OH220311   3.160   6.237   2.688
 6789TIP3    H120312   3.115   6.285   2.618
 6789TIP3    H220313   3.106   6.253   2.766
 6790TIP3   OH220314   2.015   2.790   3.934
 6790TIP3    H120315   2.013   2.866   3.992
 6790TIP3    H220316   2.030   2.825   3.847
 6791TIP3   OH220317   5.256   7.257   5.550
 6791TIP3    H120318   5.289   7.180   5.504
 6791TIP3    H220319   5.278   7.242   5.641
 6792TIP3   OH220320   4.617   4.965   0.179
 6792TIP3    H120321   4.607   5.004   0.093
 6792TIP3    H220322   4.542   4.998   0.229
 6793TIP3   OH220323   3.590   5.168   3.381
 6793TIP3    H120324   3.511   5.116   3.395
 6793TIP3    H220325   3.652   5.108   3.341
 6794TIP3   OH220326   3.761   2.593   3.284
 6794TIP3    H120327   3.840   2.577   3.232
 6794TIP3    H220328   3.701   2.637   3.223
 6795TIP3   OH220329   4.666   5.686   5.926
 6795TIP3    H120330   4.738   5.644   5.878
 6795TIP3    H220331   4.601   5.617   5.937
 6796TIP3   OH220332   0.176   4.312   3.465
 6796TIP3    H120333   0.223   4.317   3.382
 6796TIP3    H220334   0.124   4.392   3.468
 6797TIP3   OH220335   4.258   3.486   4.785
 6797TIP3    H120336   4.348   3.463   4.764
 6797TIP3    H220337   4.227   3.535   4.708
 6798TIP3   OH220338   2.337   0.634   0.659
 6798TIP3    H120339   2.264   0.618   0.600
 6798TIP3    H220340   2.374   0.718   0.629
 6799TIP3   OH220341   4.233   7.758   3.619
 6799TIP3    H120342   4.231   7.711   3.536
 6799TIP3    H220343   4.155   7.814   3.617
 6800TIP3   OH220344   1.137   2.827   4.339
 6800TIP3    H120345   1.219   2.876   4.353
 6800TIP3    H220346   1.068   2.894   4.348
 6801TIP3   OH220347   4.639   6.190   2.749
 6801TIP3    H120348   4.598   6.269   2.712
 6801TIP3    H220349   4.703   6.163   2.682
 6802TIP3   OH220350   1.270   4.172   6.104
 6802TIP3    H120351   1.315   4.255   6.088
 6802TIP3    H220352   1.195   4.195   6.159
 6803TIP3   OH220353   7.652   2.739   6.597
 6803TIP3    H120354   7.701   2.804   6.547
 6803TIP3    H220355   7.713   2.666   6.607
 6804TIP3   OH220356   5.878   5.469   5.627
 6804TIP3    H120357   5.830   5.551   5.635
 6804TIP3    H220358   5.812   5.405   5.598
 6805TIP3   OH220359   6.506   6.094   5.356
 6805TIP3    H120360   6.475   6.138   5.277
 6805TIP3    H220361   6.562   6.023   5.324
 6806TIP3   OH220362   5.515   5.215   0.128
 6806TIP3    H120363   5.518   5.310   0.130
 6806TIP3    H220364   5.461   5.191   0.203
 6807TIP3   OH220365   1.592   5.195   4.005
 6807TIP3    H120366   1.677   5.218   3.966
 6807TIP3    H220367   1.527   5.229   3.943
 6808TIP3   OH220368   3.001   5.629   5.294
 6808TIP3    H120369   3.093   5.635   5.318
 6808TIP3    H220370   2.973   5.719   5.280
 6809TIP3   OH220371   0.138   0.816   0.109
 6809TIP3    H120372   0.125   0.809   0.014
 6809TIP3    H220373   0.233   0.830   0.119
 6810TIP3   OH220374   2.544   2.716   3.278
 6810TIP3    H120375   2.480   2.649   3.256
 6810TIP3    H220376   2.584   2.739   3.194
 6811TIP3   OH220377   6.675   3.686   5.627
 6811TIP3    H120378   6.696   3.682   5.720
 6811TIP3    H220379   6.734   3.753   5.592
 6812TIP3   OH220380   4.199   6.554   2.049
 6812TIP3    H120381   4.109   6.545   2.016
 6812TIP3    H220382   4.196   6.631   2.104
 6813TIP3   OH220383   2.190   0.074   1.453
 6813TIP3    H120384   2.220  -0.002   1.504
 6813TIP3    H220385   2.186   0.145   1.517
 6814TIP3   OH220386   0.883   0.518   2.845
 6814TIP3    H120387   0.868   0.558   2.759
 6814TIP3    H220388   0.934   0.439   2.827
 6815TIP3   OH220389   1.343   1.966   2.121
 6815TIP3    H120390   1.421   1.912   2.133
 6815TIP3    H220391   1.269   1.906   2.132
 6816TIP3   OH220392   2.540   4.264   1.351
 6816TIP3    H120393   2.572   4.306   1.431
 6816TIP3    H220394   2.588   4.182   1.345
 6817TIP3   OH220395   2.366   4.550   2.689
 6817TIP3    H120396   2.458   4.527   2.705
 6817TIP3    H220397   2.345   4.613   2.758
 6818TIP3   OH220398   6.996   3.408   1.687
 6818TIP3    H120399   6.907   3.409   1.722
 6818TIP3    H220400   6.996   3.474   1.618
 6819TIP3   OH220401   4.209   4.494   2.901
 6819TIP3    H120402   4.213   4.553   2.826
 6819TIP3    H220403   4.190   4.408   2.863
 6820TIP3   OH220404   7.232   5.574   0.076
 6820TIP3    H120405   7.160   5.546   0.020
 6820TIP3    H220406   7.191   5.632   0.141
 6821TIP3   OH220407   1.442   4.494   6.019
 6821TIP3    H120408   1.350   4.507   5.999
 6821TIP3    H220409   1.489   4.527   5.943
 6822TIP3   OH220410   4.136   5.862   4.027
 6822TIP3    H120411   4.053   5.882   3.984
 6822TIP3    H220412   4.168   5.784   3.983
 6823TIP3   OH220413   2.973   4.221   1.136
 6823TIP3    H120414   3.031   4.226   1.060
 6823TIP3    H220415   3.029   4.188   1.206
 6824TIP3   OH220416   3.806   4.534   5.990
 6824TIP3    H120417   3.786   4.588   5.914
 6824TIP3    H220418   3.723   4.493   6.013
 6825TIP3   OH220419   6.022   0.451   6.724
 6825TIP3    H120420   6.078   0.486   6.654
 6825TIP3    H220421   5.956   0.400   6.678
 6826TIP3   OH220422   2.083   0.616   1.198
 6826TIP3    H120423   2.059   0.708   1.188
 6826TIP3    H220424   2.025   0.584   1.267
 6827TIP3   OH220425   0.708   6.513   2.332
 6827TIP3    H120426   0.694   6.550   2.419
 6827TIP3    H220427   0.680   6.422   2.340
 6828TIP3   OH220428   7.716   5.295   5.389
 6828TIP3    H120429   7.773   5.372   5.387
 6828TIP3    H220430   7.760   5.232   5.331
 6829TIP3   OH220431   0.333   1.222   1.968
 6829TIP3    H120432   0.393   1.167   2.019
 6829TIP3    H220433   0.372   1.310   1.971
 6830TIP3   OH220434   1.526   0.111   2.804
 6830TIP3    H120435   1.442   0.155   2.797
 6830TIP3    H220436   1.552   0.093   2.714
 6831TIP3   OH220437   2.347   4.750   3.732
 6831TIP3    H120438   2.290   4.786   3.663
 6831TIP3    H220439   2.365   4.825   3.789
 6832TIP3   OH220440   3.644   6.398   3.179
 6832TIP3    H120441   3.589   6.336   3.131
 6832TIP3    H220442   3.591   6.477   3.187
 6833TIP3   OH220443   5.075   2.369   0.290
 6833TIP3    H120444   4.991   2.325   0.300
 6833TIP3    H220445   5.097   2.398   0.378
 6834TIP3   OH220446   8.282   6.854   5.747
 6834TIP3    H120447   8.257   6.787   5.810
 6834TIP3    H220448   8.202   6.903   5.731
 6835TIP3   OH220449   7.193   1.362   4.922
 6835TIP3    H120450   7.265   1.305   4.897
 6835TIP3    H220451   7.133   1.358   4.848
 6836TIP3   OH220452   2.620   5.827   0.988
 6836TIP3    H120453   2.547   5.841   1.049
 6836TIP3    H220454   2.684   5.895   1.011
 6837TIP3   OH220455   0.818   7.043   2.135
 6837TIP3    H120456   0.789   6.975   2.196
 6837TIP3    H220457   0.882   7.000   2.078
 6838TIP3   OH220458   6.661   5.447   3.477
 6838TIP3    H120459   6.749   5.421   3.505
 6838TIP3    H220460   6.631   5.506   3.546
 6839TIP3   OH220461   1.054   0.700   3.001
 6839TIP3    H120462   1.060   0.654   2.918
 6839TIP3    H220463   0.961   0.721   3.010
 6840TIP3   OH220464   7.027   1.007   1.483
 6840TIP3    H120465   6.951   0.978   1.433
 6840TIP3    H220466   6.994   1.019   1.572
 6841TIP3   OH220467   1.328   4.182   5.107
 6841TIP3    H120468   1.245   4.141   5.084
 6841TIP3    H220469   1.304   4.269   5.139
 6842TIP3   OH220470   0.914   1.222   3.408
 6842TIP3    H120471   0.832   1.197   3.366
 6842TIP3    H220472   0.950   1.291   3.352
 6843TIP3   OH220473   1.575   5.459   2.716
 6843TIP3    H120474   1.496   5.514   2.717
 6843TIP3    H220475   1.602   5.455   2.808
 6844TIP3   OH220476   5.942   2.340   1.809
 6844TIP3    H120477   5.913   2.431   1.805
 6844TIP3    H220478   5.939   2.318   1.902
 6845TIP3   OH220479   1.738   4.727   5.904
 6845TIP3    H120480   1.821   4.712   5.859
 6845TIP3    H220481   1.723   4.648   5.956
 6846TIP3   OH220482   3.662   7.458   6.505
 6846TIP3    H120483   3.657   7.510   6.425
 6846TIP3    H220484   3.571   7.446   6.532
 6847TIP3   OH220485   3.808   6.589   3.637
 6847TIP3    H120486   3.773   6.500   3.639
 6847TIP3    H220487   3.881   6.588   3.699
 6848TIP3   OH220488   2.242   3.846   0.984
 6848TIP3    H120489   2.221   3.925   0.934
 6848TIP3    H220490   2.337   3.851   0.997
 6849TIP3   OH220491   6.605   1.236   0.539
 6849TIP3    H120492   6.526   1.182   0.548
 6849TIP3    H220493   6.607   1.290   0.618
 6850TIP3   OH220494   7.017   7.182   5.221
 6850TIP3    H120495   7.041   7.266   5.260
 6850TIP3    H220496   7.046   7.188   5.130
 6851TIP3   OH220497   5.704   5.417   3.639
 6851TIP3    H120498   5.706   5.512   3.648
 6851TIP3    H220499   5.611   5.394   3.646
 6852TIP3   OH220500   1.526   1.076   0.340
 6852TIP3    H120501   1.436   1.083   0.310
 6852TIP3    H220502   1.576   1.133   0.281
 6853TIP3   OH220503   0.389   6.960   2.659
 6853TIP3    H120504   0.393   6.908   2.579
 6853TIP3    H220505   0.471   6.941   2.704
 6854TIP3   OH220506   6.569   6.284   4.563
 6854TIP3    H120507   6.649   6.335   4.567
 6854TIP3    H220508   6.529   6.308   4.479
 6855TIP3   OH220509   2.219   3.246   0.424
 6855TIP3    H120510   2.282   3.317   0.414
 6855TIP3    H220511   2.217   3.204   0.338
 6856TIP3   OH220512   2.650   6.804   4.595
 6856TIP3    H120513   2.672   6.736   4.658
 6856TIP3    H220514   2.635   6.882   4.648
 6857TIP3   OH220515   1.644   4.574   2.872
 6857TIP3    H120516   1.553   4.561   2.899
 6857TIP3    H220517   1.686   4.490   2.891
 6858TIP3   OH220518   3.070   4.705   0.360
 6858TIP3    H120519   3.162   4.705   0.333
 6858TIP3    H220520   3.022   4.719   0.278
 6859TIP3   OH220521   1.386   1.872   3.784
 6859TIP3    H120522   1.410   1.822   3.706
 6859TIP3    H220523   1.415   1.818   3.857
 6860TIP3   OH220524   1.619   2.047   3.883
 6860TIP3    H120525   1.628   2.134   3.924
 6860TIP3    H220526   1.532   2.017   3.911
 6861TIP3   OH220527   0.873   4.939   0.768
 6861TIP3    H120528   0.827   5.009   0.722
 6861TIP3    H220529   0.813   4.864   0.764
 6862TIP3   OH220530   2.838   6.934   2.503
 6862TIP3    H120531   2.817   6.940   2.597
 6862TIP3    H220532   2.753   6.943   2.460
 6863TIP3   OH220533   5.959   3.698   5.700
 6863TIP3    H120534   5.901   3.656   5.765
 6863TIP3    H220535   5.938   3.654   5.618
 6864TIP3   OH220536   8.019   3.249   3.792
 6864TIP3    H120537   8.032   3.255   3.698
 6864TIP3    H220538   8.104   3.269   3.830
 6865TIP3   OH220539   7.701   2.190   2.824
 6865TIP3    H120540   7.763   2.128   2.863
 6865TIP3    H220541   7.756   2.247   2.770
 6866TIP3   OH220542   7.063   5.649   5.041
 6866TIP3    H120543   7.080   5.639   5.135
 6866TIP3    H220544   7.149   5.662   5.003
 6867TIP3   OH220545   3.061   6.268   2.393
 6867TIP3    H120546   3.038   6.262   2.301
 6867TIP3    H220547   2.978   6.256   2.440
 6868TIP3   OH220548   1.983   2.423   3.436
 6868TIP3    H120549   2.013   2.513   3.442
 6868TIP3    H220550   2.056   2.376   3.396
 6869TIP3   OH220551   4.488   0.412   2.976
 6869TIP3    H120552   4.420   0.375   2.919
 6869TIP3    H220553   4.444   0.481   3.026
 6870TIP3   OH220554   6.109   2.206   4.530
 6870TIP3    H120555   6.049   2.277   4.554
 6870TIP3    H220556   6.066   2.162   4.457
 6871TIP3   OH220557   5.880   2.757   2.775
 6871TIP3    H120558   5.794   2.749   2.734
 6871TIP3    H220559   5.942   2.729   2.707
 6872TIP3   OH220560   1.790   7.266   0.411
 6872TIP3    H120561   1.802   7.358   0.436
 6872TIP3    H220562   1.859   7.250   0.346
 6873TIP3   OH220563   2.865   5.587   3.256
 6873TIP3    H120564   2.936   5.547   3.306
 6873TIP3    H220565   2.908   5.640   3.189
 6874TIP3   OH220566   6.801   7.183   1.099
 6874TIP3    H120567   6.845   7.213   1.019
 6874TIP3    H220568   6.805   7.087   1.093
 6875TIP3   OH220569   0.173   7.421   6.422
 6875TIP3    H120570   0.222   7.501   6.442
 6875TIP3    H220571   0.161   7.378   6.507
 6876TIP3   OH220572   8.125   5.187   5.295
 6876TIP3    H120573   8.119   5.156   5.205
 6876TIP3    H220574   8.181   5.123   5.339
 6877TIP3   OH220575   3.947   6.112   2.612
 6877TIP3    H120576   3.965   6.205   2.623
 6877TIP3    H220577   3.857   6.109   2.580
 6878TIP3   OH220578   6.482   1.050   2.440
 6878TIP3    H120579   6.437   1.056   2.355
 6878TIP3    H220580   6.417   1.013   2.499
 6879TIP3   OH220581   1.354   2.388   5.010
 6879TIP3    H120582   1.275   2.441   5.001
 6879TIP3    H220583   1.360   2.338   4.929
 6880TIP3   OH220584   0.771   7.161   0.500
 6880TIP3    H120585   0.698   7.223   0.495
 6880TIP3    H220586   0.819   7.187   0.579
 6881TIP3   OH220587   5.950   6.985   3.537
 6881TIP3    H120588   5.993   6.927   3.474
 6881TIP3    H220589   6.004   7.064   3.537
 6882TIP3   OH220590   7.790   5.088   0.244
 6882TIP3    H120591   7.776   5.002   0.285
 6882TIP3    H220592   7.881   5.086   0.213
 6883TIP3   OH220593   6.518   4.775   1.627
 6883TIP3    H120594   6.506   4.700   1.684
 6883TIP3    H220595   6.430   4.814   1.620
 6884TIP3   OH220596   3.405   1.314   2.926
 6884TIP3    H120597   3.498   1.289   2.928
 6884TIP3    H220598   3.407   1.406   2.898
 6885TIP3   OH220599   5.977   5.154   0.959
 6885TIP3    H120600   6.049   5.216   0.944
 6885TIP3    H220601   5.957   5.163   1.052
 6886TIP3   OH220602   1.696   1.601   2.408
 6886TIP3    H120603   1.671   1.585   2.499
 6886TIP3    H220604   1.719   1.515   2.374
 6887TIP3   OH220605   2.751   3.639   2.339
 6887TIP3    H120606   2.764   3.576   2.268
 6887TIP3    H220607   2.833   3.689   2.342
 6888TIP3   OH220608   3.707   5.261   3.927
 6888TIP3    H120609   3.682   5.233   3.839
 6888TIP3    H220610   3.791   5.305   3.916
 6889TIP3   OH220611   0.624   6.591   1.442
 6889TIP3    H120612   0.543   6.617   1.487
 6889TIP3    H220613   0.594   6.552   1.359
 6890TIP3   OH220614   6.002   1.727   1.444
 6890TIP3    H120615   6.046   1.659   1.496
 6890TIP3    H220616   6.031   1.810   1.483
 6891TIP3   OH220617   2.408   1.001   6.232
 6891TIP3    H120618   2.439   1.057   6.302
 6891TIP3    H220619   2.444   0.915   6.252
 6892TIP3   OH220620   5.548   7.237   0.122
 6892TIP3    H120621   5.569   7.213   0.211
 6892TIP3    H220622   5.632   7.256   0.081
 6893TIP3   OH220623   4.042   0.579   1.367
 6893TIP3    H120624   4.096   0.505   1.396
 6893TIP3    H220625   4.100   0.631   1.312
 6894TIP3   OH220626   6.076   1.023   3.039
 6894TIP3    H120627   6.067   0.932   3.068
 6894TIP3    H220628   6.169   1.043   3.050
 6895TIP3   OH220629   0.422   5.981   5.346
 6895TIP3    H120630   0.499   5.924   5.350
 6895TIP3    H220631   0.351   5.927   5.380
 6896TIP3   OH220632   4.819   6.332   5.162
 6896TIP3    H120633   4.781   6.384   5.232
 6896TIP3    H220634   4.769   6.357   5.084
 6897TIP3   OH220635   3.681   6.410   6.668
 6897TIP3    H120636   3.744   6.346   6.636
 6897TIP3    H220637   3.696   6.414   6.762
 6898TIP3   OH220638   3.986   2.138   4.740
 6898TIP3    H120639   3.951   2.136   4.651
 6898TIP3    H220640   4.081   2.132   4.730
 6899TIP3   OH220641   7.324   1.714   6.662
 6899TIP3    H120642   7.375   1.638   6.689
 6899TIP3    H220643   7.260   1.679   6.600
 6900TIP3   OH220644   7.287   3.564   4.077
 6900TIP3    H120645   7.364   3.549   4.023
 6900TIP3    H220646   7.249   3.477   4.091
 6901TIP3   OH220647   0.947   3.522   5.991
 6901TIP3    H120648   0.987   3.447   5.948
 6901TIP3    H220649   0.967   3.596   5.934
 6902TIP3   OH220650   7.688   6.606   5.151
 6902TIP3    H120651   7.638   6.615   5.231
 6902TIP3    H220652   7.641   6.541   5.099
 6903TIP3   OH220653   4.443   3.371   4.585
 6903TIP3    H120654   4.394   3.290   4.604
 6903TIP3    H220655   4.522   3.341   4.541
 6904TIP3   OH220656   4.236   6.408   1.252
 6904TIP3    H120657   4.192   6.460   1.319
 6904TIP3    H220658   4.264   6.329   1.298
 6905TIP3   OH220659   0.226   1.630   4.893
 6905TIP3    H120660   0.187   1.685   4.961
 6905TIP3    H220661   0.239   1.545   4.935
 6906TIP3   OH220662   3.091   5.814   5.651
 6906TIP3    H120663   3.061   5.904   5.665
 6906TIP3    H220664   3.014   5.760   5.670
 6907TIP3   OH220665   0.503   6.651   3.678
 6907TIP3    H120666   0.479   6.660   3.585
 6907TIP3    H220667   0.591   6.687   3.684
 6908TIP3   OH220668   7.710   4.015   5.187
 6908TIP3    H120669   7.725   4.011   5.281
 6908TIP3    H220670   7.717   3.924   5.158
 6909TIP3   OH220671   3.924   7.717   4.438
 6909TIP3    H120672   3.851   7.745   4.495
 6909TIP3    H220673   3.938   7.625   4.461
 6910TIP3   OH220674   5.768   0.922   6.785
 6910TIP3    H120675   5.727   0.871   6.715
 6910TIP3    H220676   5.815   0.992   6.739
 6911TIP3   OH220677   0.024   4.117   0.758
 6911TIP3    H120678  -0.027   4.172   0.698
 6911TIP3    H220679   0.078   4.062   0.701
 6912TIP3   OH220680   6.548   1.058   2.093
 6912TIP3    H120681   6.476   1.002   2.065
 6912TIP3    H220682   6.623   0.999   2.099
 6913TIP3   OH220683   1.326   2.612   6.203
 6913TIP3    H120684   1.315   2.645   6.114
 6913TIP3    H220685   1.409   2.565   6.201
 6914TIP3   OH220686   6.218   3.015   5.778
 6914TIP3    H120687   6.264   2.970   5.708
 6914TIP3    H220688   6.261   2.985   5.858
 6915TIP3   OH220689   0.670   4.640   5.411
 6915TIP3    H120690   0.667   4.577   5.482
 6915TIP3    H220691   0.755   4.626   5.370
 6916TIP3   OH220692   2.093   4.180   1.792
 6916TIP3    H120693   2.100   4.271   1.821
 6916TIP3    H220694   2.183   4.149   1.792
 6917TIP3   OH220695   1.579   1.330   4.913
 6917TIP3    H120696   1.540   1.269   4.976
 6917TIP3    H220697   1.546   1.416   4.938
 6918TIP3   OH220698   5.680   2.493   3.165
 6918TIP3    H120699   5.647   2.583   3.169
 6918TIP3    H220700   5.635   2.455   3.090
 6919TIP3   OH220701   5.432   6.908   6.659
 6919TIP3    H120702   5.433   6.812   6.662
 6919TIP3    H220703   5.509   6.931   6.608
 6920TIP3   OH220704   3.764   3.675   6.519
 6920TIP3    H120705   3.858   3.679   6.537
 6920TIP3    H220706   3.725   3.642   6.600
 6921TIP3   OH220707   3.100   4.522   3.223
 6921TIP3    H120708   3.108   4.444   3.277
 6921TIP3    H220709   3.185   4.566   3.231
 6922TIP3   OH220710   8.281   6.590   5.014
 6922TIP3    H120711   8.250   6.583   5.104
 6922TIP3    H220712   8.205   6.617   4.964
 6923TIP3   OH220713   3.674   4.009   2.762
 6923TIP3    H120714   3.623   4.052   2.694
 6923TIP3    H220715   3.759   3.994   2.722
 6924TIP3   OH220716   0.665   2.742   3.547
 6924TIP3    H120717   0.655   2.665   3.492
 6924TIP3    H220718   0.643   2.816   3.489
 6925TIP3   OH220719   2.367   2.478   0.206
 6925TIP3    H120720   2.432   2.512   0.267
 6925TIP3    H220721   2.297   2.443   0.262
 6926TIP3   OH220722   7.631   2.774   3.300
 6926TIP3    H120723   7.610   2.868   3.298
 6926TIP3    H220724   7.568   2.738   3.363
 6927TIP3   OH220725   3.325   1.226   0.359
 6927TIP3    H120726   3.255   1.220   0.294
 6927TIP3    H220727   3.304   1.305   0.409
 6928TIP3   OH220728   1.076   3.744   2.931
 6928TIP3    H120729   1.030   3.660   2.930
 6928TIP3    H220730   1.051   3.786   2.849
 6929TIP3   OH220731   6.322   1.400   2.455
 6929TIP3    H120732   6.292   1.332   2.394
 6929TIP3    H220733   6.376   1.458   2.401
 6930TIP3   OH220734   6.832   6.754   2.604
 6930TIP3    H120735   6.924   6.760   2.577
 6930TIP3    H220736   6.836   6.745   2.699
 6931TIP3   OH220737   5.765   2.443   0.663
 6931TIP3    H120738   5.830   2.451   0.593
 6931TIP3    H220739   5.793   2.366   0.714
 6932TIP3   OH220740   1.060   3.844   1.024
 6932TIP3    H120741   0.987   3.825   1.083
 6932TIP3    H220742   1.071   3.939   1.029
 6933TIP3   OH220743   7.074   2.431   3.964
 6933TIP3    H120744   7.090   2.339   3.986
 6933TIP3    H220745   7.152   2.477   3.994
 6934TIP3   OH220746   1.970   6.637   6.393
 6934TIP3    H120747   2.002   6.688   6.467
 6934TIP3    H220748   1.909   6.574   6.432
 6935TIP3   OH220749   4.991   4.571   0.129
 6935TIP3    H120750   5.074   4.557   0.083
 6935TIP3    H220751   4.982   4.667   0.134
 6936TIP3   OH220752   0.964   3.530   3.401
 6936TIP3    H120753   1.007   3.471   3.339
 6936TIP3    H220754   1.004   3.615   3.384
 6937TIP3   OH220755   4.766   6.858   1.317
 6937TIP3    H120756   4.844   6.810   1.344
 6937TIP3    H220757   4.718   6.873   1.399
 6938TIP3   OH220758   3.985   2.994   3.483
 6938TIP3    H120759   3.917   3.028   3.426
 6938TIP3    H220760   4.023   3.072   3.524
 6939TIP3   OH220761   3.442   6.236   2.111
 6939TIP3    H120762   3.425   6.277   2.196
 6939TIP3    H220763   3.464   6.145   2.132
 6940TIP3   OH220764   0.572   5.877   6.022
 6940TIP3    H120765   0.565   5.909   6.112
 6940TIP3    H220766   0.520   5.797   6.022
 6941TIP3   OH220767   3.316   4.183   3.034
 6941TIP3    H120768   3.341   4.205   3.124
 6941TIP3    H220769   3.394   4.201   2.982
 6942TIP3   OH220770   6.585   4.339   0.870
 6942TIP3    H120771   6.627   4.268   0.822
 6942TIP3    H220772   6.503   4.301   0.902
 6943TIP3   OH220773   2.634   6.146   5.307
 6943TIP3    H120774   2.694   6.202   5.257
 6943TIP3    H220775   2.611   6.199   5.384
 6944TIP3   OH220776   4.392   7.555   4.490
 6944TIP3    H120777   4.341   7.619   4.541
 6944TIP3    H220778   4.440   7.608   4.426
 6945TIP3   OH220779   0.809   3.981   5.953
 6945TIP3    H120780   0.807   4.050   5.886
 6945TIP3    H220781   0.853   4.021   6.028
 6946TIP3   OH220782   0.218   0.381   4.736
 6946TIP3    H120783   0.162   0.433   4.679
 6946TIP3    H220784   0.295   0.436   4.751
 6947TIP3   OH220785   4.570   6.243   0.658
 6947TIP3    H120786   4.520   6.321   0.685
 6947TIP3    H220787   4.572   6.188   0.737
 6948TIP3   OH220788   0.245   2.276   3.346
 6948TIP3    H120789   0.328   2.235   3.373
 6948TIP3    H220790   0.211   2.315   3.426
 6949TIP3   OH220791   7.405   7.805   1.589
 6949TIP3    H120792   7.451   7.736   1.636
 6949TIP3    H220793   7.367   7.860   1.657
 6950TIP3   OH220794   3.695   0.885   6.778
 6950TIP3    H120795   3.644   0.960   6.748
 6950TIP3    H220796   3.729   0.845   6.698
 6951TIP3   OH220797   5.404   7.077   1.631
 6951TIP3    H120798   5.489   7.118   1.612
 6951TIP3    H220799   5.425   7.003   1.688
 6952TIP3   OH220800   7.140   4.318   2.327
 6952TIP3    H120801   7.194   4.314   2.406
 6952TIP3    H220802   7.080   4.244   2.335
 6953TIP3   OH220803   0.348   6.147   2.575
 6953TIP3    H120804   0.304   6.193   2.503
 6953TIP3    H220805   0.380   6.066   2.535
 6954TIP3   OH220806   0.776   7.788   4.578
 6954TIP3    H120807   0.714   7.746   4.519
 6954TIP3    H220808   0.726   7.805   4.658
 6955TIP3   OH220809   6.945   6.496   5.690
 6955TIP3    H120810   6.993   6.413   5.700
 6955TIP3    H220811   6.905   6.511   5.775
 6956TIP3   OH220812   4.145   1.462   0.154
 6956TIP3    H120813   4.098   1.379   0.156
 6956TIP3    H220814   4.121   1.505   0.237
 6957TIP3   OH220815   6.838   5.036   1.131
 6957TIP3    H120816   6.840   4.941   1.139
 6957TIP3    H220817   6.915   5.056   1.077
 6958TIP3   OH220818  -0.021   2.586   0.250
 6958TIP3    H120819  -0.079   2.649   0.292
 6958TIP3    H220820   0.062   2.633   0.240
 6959TIP3   OH220821   5.814   4.487   0.309
 6959TIP3    H120822   5.811   4.469   0.403
 6959TIP3    H220823   5.891   4.542   0.298
 6960TIP3   OH220824   7.245   3.692   3.089
 6960TIP3    H120825   7.285   3.660   3.008
 6960TIP3    H220826   7.307   3.667   3.158
 6961TIP3   OH220827   1.423   5.887   4.830
 6961TIP3    H120828   1.483   5.881   4.904
 6961TIP3    H220829   1.357   5.951   4.858
 6962TIP3   OH220830   4.905   0.700   6.086
 6962TIP3    H120831   4.908   0.776   6.029
 6962TIP3    H220832   4.896   0.625   6.027
 6963TIP3   OH220833   5.357   1.836   1.202
 6963TIP3    H120834   5.289   1.880   1.253
 6963TIP3    H220835   5.427   1.901   1.195
 6964TIP3   OH220836   0.265   5.318   1.772
 6964TIP3    H120837   0.184   5.361   1.801
 6964TIP3    H220838   0.302   5.281   1.852
 6965TIP3   OH220839   2.323   5.773   4.740
 6965TIP3    H120840   2.276   5.804   4.662
 6965TIP3    H220841   2.407   5.818   4.735
 6966TIP3   OH220842   5.918   2.009   5.147
 6966TIP3    H120843   5.945   1.926   5.109
 6966TIP3    H220844   5.907   2.067   5.072
 6967TIP3   OH220845  -0.008   3.807   3.563
 6967TIP3    H120846   0.028   3.882   3.515
 6967TIP3    H220847   0.004   3.830   3.656
 6968TIP3   OH220848   0.719   2.086   0.341
 6968TIP3    H120849   0.703   1.992   0.342
 6968TIP3    H220850   0.680   2.117   0.260
 6969TIP3   OH220851   2.430   2.274   1.501
 6969TIP3    H120852   2.407   2.217   1.427
 6969TIP3    H220853   2.417   2.363   1.467
 6970TIP3   OH220854   7.024   5.715   2.321
 6970TIP3    H120855   6.961   5.746   2.386
 6970TIP3    H220856   6.977   5.719   2.238
 6971TIP3   OH220857   6.418   6.464   3.231
 6971TIP3    H120858   6.420   6.546   3.279
 6971TIP3    H220859   6.370   6.404   3.287
 6972TIP3   OH220860   1.939   3.925   1.817
 6972TIP3    H120861   1.950   3.858   1.750
 6972TIP3    H220862   2.010   3.988   1.801
 6973TIP3   OH220863   1.518   3.348   2.201
 6973TIP3    H120864   1.472   3.423   2.238
 6973TIP3    H220865   1.511   3.360   2.106
 6974TIP3   OH220866   7.298   2.846   1.228
 6974TIP3    H120867   7.265   2.803   1.149
 6974TIP3    H220868   7.267   2.936   1.221
 6975TIP3   OH220869   0.275   2.151   2.958
 6975TIP3    H120870   0.217   2.082   2.928
 6975TIP3    H220871   0.252   2.227   2.905
 6976TIP3   OH220872   7.949   6.775   2.469
 6976TIP3    H120873   7.859   6.749   2.488
 6976TIP3    H220874   7.960   6.758   2.376
 6977TIP3   OH220875   6.501   7.114   6.199
 6977TIP3    H120876   6.494   7.114   6.104
 6977TIP3    H220877   6.580   7.063   6.218
 6978TIP3   OH220878   6.287   7.333   2.409
 6978TIP3    H120879   6.374   7.299   2.390
 6978TIP3    H220880   6.229   7.257   2.403
 6979TIP3   OH220881   8.240   0.955   1.527
 6979TIP3    H120882   8.178   0.894   1.569
 6979TIP3    H220883   8.317   0.901   1.510
 6980TIP3   OH220884   4.269   5.459   1.999
 6980TIP3    H120885   4.315   5.382   1.964
 6980TIP3    H220886   4.334   5.529   1.993
 6981TIP3   OH220887   5.721   1.325   5.619
 6981TIP3    H120888   5.644   1.360   5.574
 6981TIP3    H220889   5.690   1.304   5.707
 6982TIP3   OH220890   5.295   1.491   2.911
 6982TIP3    H120891   5.220   1.511   2.855
 6982TIP3    H220892   5.300   1.396   2.912
 6983TIP3   OH220893   2.167   3.753   2.389
 6983TIP3    H120894   2.145   3.678   2.333
 6983TIP3    H220895   2.246   3.790   2.350
 6984TIP3   OH220896   1.282   1.522   6.601
 6984TIP3    H120897   1.315   1.555   6.517
 6984TIP3    H220898   1.347   1.550   6.665
 6985TIP3   OH220899   4.000   0.370   2.963
 6985TIP3    H120900   4.005   0.405   3.052
 6985TIP3    H220901   3.910   0.390   2.935
 6986TIP3   OH220902   0.843   4.195   1.225
 6986TIP3    H120903   0.874   4.187   1.315
 6986TIP3    H220904   0.909   4.148   1.173
 6987TIP3   OH220905   4.412   6.381   0.386
 6987TIP3    H120906   4.363   6.390   0.304
 6987TIP3    H220907   4.345   6.377   0.454
 6988TIP3   OH220908   3.738   0.452   2.899
 6988TIP3    H120909   3.685   0.470   2.976
 6988TIP3    H220910   3.700   0.507   2.831
 6989TIP3   OH220911   7.568   3.591   6.601
 6989TIP3    H120912   7.644   3.533   6.612
 6989TIP3    H220913   7.500   3.534   6.566
 6990TIP3   OH220914   7.651   3.230   1.157
 6990TIP3    H120915   7.683   3.223   1.246
 6990TIP3    H220916   7.619   3.142   1.136
 6991TIP3   OH220917   4.243   5.696   3.654
 6991TIP3    H120918   4.150   5.698   3.680
 6991TIP3    H220919   4.289   5.664   3.731
 6992TIP3   OH220920   1.197   6.053   5.247
 6992TIP3    H120921   1.120   5.998   5.230
 6992TIP3    H220922   1.206   6.052   5.342
 6993TIP3   OH220923   2.888   1.448   4.550
 6993TIP3    H120924   2.966   1.440   4.497
 6993TIP3    H220925   2.818   1.411   4.497
 6994TIP3   OH220926   3.279   5.909   5.920
 6994TIP3    H120927   3.273   5.976   5.852
 6994TIP3    H220928   3.324   5.835   5.877
 6995TIP3   OH220929   1.306   4.576   3.612
 6995TIP3    H120930   1.318   4.648   3.674
 6995TIP3    H220931   1.309   4.497   3.667
 6996TIP3   OH220932   0.086   0.768   3.641
 6996TIP3    H120933   0.149   0.700   3.663
 6996TIP3    H220934   0.016   0.759   3.705
 6997TIP3   OH220935   0.271   3.892   5.068
 6997TIP3    H120936   0.259   3.962   5.132
 6997TIP3    H220937   0.183   3.858   5.055
 6998TIP3   OH220938   2.749   3.092   4.831
 6998TIP3    H120939   2.715   3.004   4.846
 6998TIP3    H220940   2.761   3.098   4.736
 6999TIP3   OH220941   2.311   4.745   6.149
 6999TIP3    H120942   2.237   4.807   6.157
 6999TIP3    H220943   2.386   4.801   6.128
 7000TIP3   OH220944   2.299   7.054   3.381
 7000TIP3    H120945   2.322   6.995   3.453
 7000TIP3    H220946   2.376   7.054   3.325
 7001TIP3   OH220947   3.367   4.554   3.193
 7001TIP3    H120948   3.425   4.628   3.174
 7001TIP3    H220949   3.310   4.549   3.117
 7002TIP3   OH220950   1.234   2.009   4.423
 7002TIP3    H120951   1.308   1.954   4.449
 7002TIP3    H220952   1.248   2.091   4.471
 7003TIP3   OH220953   0.531   3.992   1.172
 7003TIP3    H120954   0.555   3.911   1.218
 7003TIP3    H220955   0.441   3.978   1.143
 7004TIP3   OH220956   7.660   0.661   0.203
 7004TIP3    H120957   7.683   0.625   0.117
 7004TIP3    H220958   7.696   0.749   0.203
 7005TIP3   OH220959   7.395   5.786   3.055
 7005TIP3    H120960   7.455   5.817   2.986
 7005TIP3    H220961   7.330   5.734   3.008
 7006TIP3   OH220962   7.073   7.525   0.256
 7006TIP3    H120963   6.987   7.539   0.215
 7006TIP3    H220964   7.136   7.541   0.187
 7007TIP3   OH220965   1.904   2.022   3.488
 7007TIP3    H120966   1.889   2.015   3.394
 7007TIP3    H220967   1.822   2.059   3.522
 7008TIP3   OH220968   3.590   5.798   2.465
 7008TIP3    H120969   3.597   5.806   2.560
 7008TIP3    H220970   3.496   5.793   2.448
 7009TIP3   OH220971   1.883   7.736   3.356
 7009TIP3    H120972   1.918   7.755   3.269
 7009TIP3    H220973   1.958   7.744   3.415
 7010TIP3   OH220974   0.918   4.839   3.104
 7010TIP3    H120975   0.886   4.914   3.055
 7010TIP3    H220976   1.013   4.853   3.111
 7011TIP3   OH220977   5.747   0.670   4.250
 7011TIP3    H120978   5.653   0.656   4.254
 7011TIP3    H220979   5.779   0.643   4.337
 7012TIP3   OH220980   1.805   3.300   1.363
 7012TIP3    H120981   1.812   3.251   1.282
 7012TIP3    H220982   1.793   3.391   1.336
 7013TIP3   OH220983   2.621   0.411   6.304
 7013TIP3    H120984   2.573   0.358   6.241
 7013TIP3    H220985   2.637   0.353   6.378
 7014TIP3   OH220986   4.851   5.410   0.529
 7014TIP3    H120987   4.758   5.391   0.538
 7014TIP3    H220988   4.857   5.505   0.536
 7015TIP3   OH220989   0.668   6.214   5.329
 7015TIP3    H120990   0.686   6.121   5.341
 7015TIP3    H220991   0.579   6.225   5.365
 7016TIP3   OH220992   7.889   0.279   3.727
 7016TIP3    H120993   7.799   0.286   3.696
 7016TIP3    H220994   7.935   0.229   3.659
 7017TIP3   OH220995   3.786   5.050   1.919
 7017TIP3    H120996   3.822   5.019   2.002
 7017TIP3    H220997   3.853   5.109   1.884
 7018TIP3   OH220998   2.009   1.500   2.326
 7018TIP3    H120999   1.942   1.432   2.336
 7018TIP3    H221000   1.966   1.570   2.277
 7019TIP3   OH221001   0.587   5.226   3.882
 7019TIP3    H121002   0.609   5.189   3.967
 7019TIP3    H221003   0.572   5.151   3.825
 7020TIP3   OH221004   0.887   1.883   1.589
 7020TIP3    H121005   0.931   1.934   1.658
 7020TIP3    H221006   0.958   1.858   1.530
 7021TIP3   OH221007   4.858   1.132   4.056
 7021TIP3    H121008   4.872   1.203   4.119
 7021TIP3    H221009   4.878   1.052   4.104
 7022TIP3   OH221010   1.214   6.382   1.331
 7022TIP3    H121011   1.256   6.363   1.415
 7022TIP3    H221012   1.172   6.467   1.343
 7023TIP3   OH221013   6.115   2.616   2.972
 7023TIP3    H121014   6.103   2.710   2.981
 7023TIP3    H221015   6.056   2.578   3.037
 7024TIP3   OH221016   3.930   0.282   5.196
 7024TIP3    H121017   4.012   0.236   5.213
 7024TIP3    H221018   3.875   0.219   5.150
 7025TIP3   OH221019   1.629   3.374   4.976
 7025TIP3    H121020   1.553   3.401   5.028
 7025TIP3    H221021   1.599   3.381   4.885
 7026TIP3   OH221022   5.663   4.036   0.979
 7026TIP3    H121023   5.704   3.952   0.959
 7026TIP3    H221024   5.574   4.029   0.943
 7027TIP3   OH221025   0.391   6.570   0.533
 7027TIP3    H121026   0.379   6.530   0.447
 7027TIP3    H221027   0.356   6.658   0.524
 7028TIP3   OH221028   3.711   3.189   2.280
 7028TIP3    H121029   3.698   3.175   2.186
 7028TIP3    H221030   3.708   3.101   2.318
 7029TIP3   OH221031   2.135   6.579   4.401
 7029TIP3    H121032   2.046   6.611   4.391
 7029TIP3    H221033   2.186   6.632   4.338
 7030TIP3   OH221034   3.112   2.267   6.599
 7030TIP3    H121035   3.025   2.242   6.631
 7030TIP3    H221036   3.099   2.353   6.559
 7031TIP3   OH221037   6.032   1.267   2.014
 7031TIP3    H121038   6.078   1.193   1.973
 7031TIP3    H221039   5.990   1.313   1.941
 7032TIP3   OH221040   0.195   6.935   6.764
 7032TIP3    H121041   0.127   6.983   6.717
 7032TIP3    H221042   0.269   6.931   6.703
 7033TIP3   OH221043   4.880   0.106   0.256
 7033TIP3    H121044   4.874   0.059   0.173
 7033TIP3    H221045   4.796   0.153   0.263
 7034TIP3   OH221046   3.276   2.540   6.287
 7034TIP3    H121047   3.273   2.531   6.382
 7034TIP3    H221048   3.196   2.587   6.264
 7035TIP3   OH221049   4.046   3.868   3.182
 7035TIP3    H121050   4.103   3.871   3.105
 7035TIP3    H221051   4.078   3.938   3.239
 7036TIP3   OH221052   1.946   0.800   4.044
 7036TIP3    H121053   2.024   0.831   4.091
 7036TIP3    H221054   1.874   0.815   4.106
 7037TIP3   OH221055   6.523   2.042   0.460
 7037TIP3    H121056   6.546   1.950   0.473
 7037TIP3    H221057   6.560   2.064   0.375
 7038TIP3   OH221058   3.966   4.324   3.305
 7038TIP3    H121059   3.987   4.402   3.358
 7038TIP3    H221060   3.870   4.321   3.305
 7039TIP3   OH221061   5.070   0.149   3.027
 7039TIP3    H121062   5.012   0.218   3.060
 7039TIP3    H221063   5.153   0.193   3.013
 7040TIP3   OH221064   1.884   3.051   2.600
 7040TIP3    H121065   1.883   2.961   2.567
 7040TIP3    H221066   1.889   3.105   2.522
 7041TIP3   OH221067   4.893   3.427   4.166
 7041TIP3    H121068   4.886   3.501   4.106
 7041TIP3    H221069   4.827   3.365   4.135
 7042TIP3   OH221070   5.223   2.637   1.671
 7042TIP3    H121071   5.223   2.550   1.710
 7042TIP3    H221072   5.245   2.696   1.744
 7043TIP3   OH221073   8.230   6.394   1.557
 7043TIP3    H121074   8.292   6.364   1.623
 7043TIP3    H221075   8.226   6.323   1.493
 7044TIP3   OH221076   4.125   4.520   5.439
 7044TIP3    H121077   4.148   4.603   5.396
 7044TIP3    H221078   4.079   4.471   5.371
 7045TIP3   OH221079   0.929   5.866   5.986
 7045TIP3    H121080   0.852   5.822   6.021
 7045TIP3    H221081   0.905   5.889   5.896
 7046TIP3   OH221082   0.307   5.535   5.289
 7046TIP3    H121083   0.245   5.472   5.253
 7046TIP3    H221084   0.381   5.481   5.317
 7047TIP3   OH221085   7.072   1.568   1.054
 7047TIP3    H121086   7.030   1.574   0.968
 7047TIP3    H221087   7.013   1.615   1.113
 7048TIP3   OH221088   3.381   3.731   4.223
 7048TIP3    H121089   3.435   3.725   4.301
 7048TIP3    H221090   3.296   3.695   4.250
 7049TIP3   OH221091   5.940   0.251   1.304
 7049TIP3    H121092   5.905   0.280   1.388
 7049TIP3    H221093   5.977   0.165   1.322
 7050TIP3   OH221094   0.290   6.036   5.055
 7050TIP3    H121095   0.309   6.067   4.966
 7050TIP3    H221096   0.375   6.022   5.095
 7051TIP3   OH221097   6.889   5.056   5.923
 7051TIP3    H121098   6.795   5.072   5.917
 7051TIP3    H221099   6.904   5.035   6.015
 7052TIP3   OH221100   6.011   2.998   3.263
 7052TIP3    H121101   5.951   2.982   3.336
 7052TIP3    H221102   6.011   3.093   3.252
 7053TIP3   OH221103   2.692   7.441   0.926
 7053TIP3    H121104   2.606   7.483   0.928
 7053TIP3    H221105   2.753   7.513   0.942
 7054TIP3   OH221106   0.895   3.970   3.521
 7054TIP3    H121107   0.918   4.052   3.478
 7054TIP3    H221108   0.801   3.977   3.538
 7055TIP3   OH221109   6.123   1.501   0.167
 7055TIP3    H121110   6.179   1.522   0.092
 7055TIP3    H221111   6.128   1.406   0.175
 7056TIP3   OH221112   5.091   6.209   6.307
 7056TIP3    H121113   5.040   6.251   6.377
 7056TIP3    H221114   5.063   6.254   6.227
 7057TIP3   OH221115   1.996   7.561   1.825
 7057TIP3    H121116   1.952   7.597   1.901
 7057TIP3    H221117   2.068   7.508   1.861
 7058TIP3   OH221118   0.886   7.733   4.860
 7058TIP3    H121119   0.853   7.705   4.774
 7058TIP3    H221120   0.978   7.706   4.861
 7059TIP3   OH221121   1.312   5.231   2.226
 7059TIP3    H121122   1.360   5.245   2.144
 7059TIP3    H221123   1.251   5.160   2.207
 7060TIP3   OH221124   4.730   4.228   0.757
 7060TIP3    H121125   4.677   4.296   0.798
 7060TIP3    H221126   4.758   4.267   0.673
 7061TIP3   OH221127   7.766   1.245   0.121
 7061TIP3    H121128   7.800   1.191   0.193
 7061TIP3    H221129   7.767   1.187   0.045
 7062TIP3   OH221130   4.616   2.487   4.690
 7062TIP3    H121131   4.581   2.558   4.635
 7062TIP3    H221132   4.685   2.529   4.742
 7063TIP3   OH221133   0.274   1.688   3.282
 7063TIP3    H121134   0.243   1.701   3.371
 7063TIP3    H221135   0.363   1.656   3.291
 7064TIP3   OH221136   2.398   4.575   4.891
 7064TIP3    H121137   2.435   4.577   4.802
 7064TIP3    H221138   2.396   4.667   4.918
 7065TIP3   OH221139   3.675   4.905   0.454
 7065TIP3    H121140   3.738   4.934   0.521
 7065TIP3    H221141   3.604   4.864   0.504
 7066TIP3   OH221142   0.654   7.547   6.426
 7066TIP3    H121143   0.694   7.630   6.404
 7066TIP3    H221144   0.707   7.481   6.380
 7067TIP3   OH221145   7.076   5.572   3.935
 7067TIP3    H121146   6.981   5.569   3.942
 7067TIP3    H221147   7.099   5.496   3.882
 7068TIP3   OH221148   2.564   6.320   5.775
 7068TIP3    H121149   2.649   6.284   5.802
 7068TIP3    H221150   2.577   6.415   5.777
 7069TIP3   OH221151   2.433   0.853   2.467
 7069TIP3    H121152   2.471   0.917   2.527
 7069TIP3    H221153   2.503   0.835   2.404
 7070TIP3   OH221154   8.055   3.922   5.766
 7070TIP3    H121155   7.980   3.955   5.816
 7070TIP3    H221156   8.127   3.981   5.788
 7071TIP3   OH221157   6.894   2.859   1.260
 7071TIP3    H121158   6.858   2.939   1.222
 7071TIP3    H221159   6.818   2.801   1.271
 7072TIP3   OH221160   5.225   0.066   6.178
 7072TIP3    H121161   5.165   0.119   6.126
 7072TIP3    H221162   5.178   0.048   6.259
 7073TIP3   OH221163   7.776   5.472   6.677
 7073TIP3    H121164   7.834   5.465   6.601
 7073TIP3    H221165   7.725   5.552   6.660
 7074TIP3   OH221166   4.672   4.842   6.469
 7074TIP3    H121167   4.621   4.813   6.393
 7074TIP3    H221168   4.722   4.765   6.495
 7075TIP3   OH221169   7.381   4.759   1.328
 7075TIP3    H121170   7.474   4.770   1.311
 7075TIP3    H221171   7.339   4.829   1.279
 7076TIP3   OH221172   1.624   4.830   0.381
 7076TIP3    H121173   1.595   4.769   0.314
 7076TIP3    H221174   1.614   4.917   0.342
 7077TIP3   OH221175   3.755   5.306   0.148
 7077TIP3    H121176   3.760   5.399   0.169
 7077TIP3    H221177   3.840   5.271   0.173
 7078TIP3   OH221178   2.188   6.948   2.932
 7078TIP3    H121179   2.252   6.877   2.939
 7078TIP3    H221180   2.108   6.911   2.970
 7079TIP3   OH221181   0.364   1.182   1.143
 7079TIP3    H121182   0.287   1.176   1.199
 7079TIP3    H221183   0.433   1.214   1.201
 7080TIP3   OH221184   1.378   4.863   5.957
 7080TIP3    H121185   1.467   4.881   5.987
 7080TIP3    H221186   1.326   4.862   6.038
 7081TIP3   OH221187   4.296   4.755   1.422
 7081TIP3    H121188   4.321   4.726   1.509
 7081TIP3    H221189   4.202   4.771   1.427
 7082TIP3   OH221190   2.166   1.316   2.779
 7082TIP3    H121191   2.149   1.361   2.696
 7082TIP3    H221192   2.083   1.272   2.799
 7083TIP3   OH221193   4.385   4.266   2.597
 7083TIP3    H121194   4.412   4.175   2.612
 7083TIP3    H221195   4.467   4.313   2.583
 7084TIP3   OH221196   5.907   7.629   5.297
 7084TIP3    H121197   5.976   7.677   5.342
 7084TIP3    H221198   5.930   7.537   5.308
 7085TIP3   OH221199   0.499   6.510   2.860
 7085TIP3    H121200   0.578   6.483   2.813
 7085TIP3    H221201   0.427   6.469   2.812
 7086TIP3   OH221202   3.037   5.362   6.301
 7086TIP3    H121203   2.998   5.366   6.213
 7086TIP3    H221204   3.074   5.274   6.307
 7087TIP3   OH221205   7.658   1.421   6.169
 7087TIP3    H121206   7.656   1.516   6.176
 7087TIP3    H221207   7.651   1.404   6.075
 7088TIP3   OH221208   5.816   2.575   1.833
 7088TIP3    H121209   5.766   2.604   1.756
 7088TIP3    H221210   5.814   2.649   1.892
 7089TIP3   OH221211   1.855   3.474   5.954
 7089TIP3    H121212   1.890   3.560   5.933
 7089TIP3    H221213   1.933   3.420   5.969
 7090TIP3   OH221214   4.748   4.704   3.919
 7090TIP3    H121215   4.779   4.794   3.928
 7090TIP3    H221216   4.823   4.650   3.941
 7091TIP3   OH221217   2.327   0.417   6.135
 7091TIP3    H121218   2.355   0.508   6.125
 7091TIP3    H221219   2.400   0.366   6.099
 7092TIP3   OH221220   6.314   5.046   2.444
 7092TIP3    H121221   6.219   5.038   2.449
 7092TIP3    H221222   6.343   5.035   2.535
 7093TIP3   OH221223   1.992   2.945   5.269
 7093TIP3    H121224   2.066   2.900   5.308
 7093TIP3    H221225   1.971   3.016   5.330
 7094TIP3   OH221226   0.753   1.229   2.963
 7094TIP3    H121227   0.686   1.293   2.991
 7094TIP3    H221228   0.795   1.270   2.888
 7095TIP3   OH221229   1.158   5.297   6.679
 7095TIP3    H121230   1.146   5.377   6.627
 7095TIP3    H221231   1.244   5.264   6.654
 7096TIP3   OH221232   5.922   7.085   0.219
 7096TIP3    H121233   5.859   7.065   0.150
 7096TIP3    H221234   6.005   7.098   0.173
 7097TIP3   OH221235   1.794   3.075   3.380
 7097TIP3    H121236   1.716   3.094   3.327
 7097TIP3    H221237   1.773   3.111   3.467
 7098TIP3   OH221238   7.638   4.584   4.658
 7098TIP3    H121239   7.666   4.493   4.647
 7098TIP3    H221240   7.574   4.598   4.589
 7099TIP3   OH221241   3.353   2.448   5.415
 7099TIP3    H121242   3.379   2.510   5.348
 7099TIP3    H221243   3.351   2.363   5.371
 7100TIP3   OH221244   0.592   3.954   3.454
 7100TIP3    H121245   0.627   3.899   3.384
 7100TIP3    H221246   0.589   4.042   3.416
 7101TIP3   OH221247   6.875   4.063   4.539
 7101TIP3    H121248   6.876   4.159   4.545
 7101TIP3    H221249   6.820   4.035   4.611
 7102TIP3   OH221250   1.882   6.075   1.757
 7102TIP3    H121251   1.892   5.986   1.725
 7102TIP3    H221252   1.894   6.131   1.680
 7103TIP3   OH221253   7.537   1.697   4.209
 7103TIP3    H121254   7.571   1.781   4.239
 7103TIP3    H221255   7.481   1.719   4.135
 7104TIP3   OH221256   1.961   3.712   5.848
 7104TIP3    H121257   2.011   3.701   5.767
 7104TIP3    H221258   1.886   3.767   5.823
 7105TIP3   OH221259   7.210   7.696   4.040
 7105TIP3    H121260   7.128   7.696   4.089
 7105TIP3    H221261   7.212   7.781   3.996
 7106TIP3   OH221262   1.267   2.739   2.310
 7106TIP3    H121263   1.252   2.690   2.391
 7106TIP3    H221264   1.226   2.687   2.242
 7107TIP3   OH221265   1.549   3.437   5.823
 7107TIP3    H121266   1.475   3.489   5.856
 7107TIP3    H221267   1.605   3.501   5.779
 7108TIP3   OH221268   8.187   1.847   3.191
 7108TIP3    H121269   8.146   1.839   3.277
 7108TIP3    H221270   8.252   1.917   3.202
 7109TIP3   OH221271   4.113   6.477   6.809
 7109TIP3    H121272   4.024   6.501   6.837
 7109TIP3    H221273   4.108   6.476   6.713
 7110TIP3   OH221274   1.564   7.249   3.848
 7110TIP3    H121275   1.656   7.229   3.834
 7110TIP3    H221276   1.546   7.220   3.937
 7111TIP3   OH221277   0.370   1.460   4.385
 7111TIP3    H121278   0.385   1.549   4.353
 7111TIP3    H221279   0.435   1.449   4.455
 7112TIP3   OH221280   4.082   1.731   6.365
 7112TIP3    H121281   4.121   1.817   6.350
 7112TIP3    H221282   4.152   1.669   6.349
 7113TIP3   OH221283   0.773   1.327   5.208
 7113TIP3    H121284   0.811   1.240   5.192
 7113TIP3    H221285   0.696   1.309   5.262
 7114TIP3   OH221286   1.025   5.293   1.145
 7114TIP3    H121287   1.115   5.325   1.146
 7114TIP3    H221288   1.016   5.243   1.226
 7115TIP3   OH221289   5.656   0.601   5.270
 7115TIP3    H121290   5.706   0.672   5.228
 7115TIP3    H221291   5.723   0.538   5.297
 7116TIP3   OH221292   8.020   2.038   3.673
 7116TIP3    H121293   7.972   2.027   3.755
 7116TIP3    H221294   8.018   2.133   3.657
 7117TIP3   OH221295   1.458   7.074   5.081
 7117TIP3    H121296   1.388   7.111   5.026
 7117TIP3    H221297   1.411   7.019   5.144
 7118TIP3   OH221298   8.105   2.446   6.747
 7118TIP3    H121299   8.041   2.466   6.814
 7118TIP3    H221300   8.072   2.488   6.668
 7119TIP3   OH221301   4.586   6.598   0.394
 7119TIP3    H121302   4.522   6.529   0.378
 7119TIP3    H221303   4.542   6.679   0.367
 7120TIP3   OH221304   5.168   6.241   6.722
 7120TIP3    H121305   5.158   6.320   6.774
 7120TIP3    H221306   5.190   6.173   6.786
 7121TIP3   OH221307   5.553   4.067   4.068
 7121TIP3    H121308   5.592   4.033   3.988
 7121TIP3    H221309   5.530   3.989   4.119
 7122TIP3   OH221310   2.931   4.271   0.142
 7122TIP3    H121311   2.956   4.322   0.220
 7122TIP3    H221312   2.999   4.204   0.135
 7123TIP3   OH221313   5.614   5.595   5.142
 7123TIP3    H121314   5.705   5.599   5.172
 7123TIP3    H221315   5.600   5.503   5.120
 7124TIP3   OH221316   5.154   1.118   5.684
 7124TIP3    H121317   5.097   1.173   5.738
 7124TIP3    H221318   5.096   1.084   5.616
 7125TIP3   OH221319   0.672   7.098   0.853
 7125TIP3    H121320   0.706   7.032   0.792
 7125TIP3    H221321   0.724   7.176   0.836
 7126TIP3   OH221322   2.262   0.746   6.321
 7126TIP3    H121323   2.341   0.791   6.350
 7126TIP3    H221324   2.272   0.656   6.350
 7127TIP3   OH221325   2.112   4.260   4.603
 7127TIP3    H121326   2.152   4.178   4.632
 7127TIP3    H221327   2.065   4.293   4.680
 7128TIP3   OH221328   1.480   5.283   2.015
 7128TIP3    H121329   1.469   5.328   1.932
 7128TIP3    H221330   1.556   5.226   2.002
 7129TIP3   OH221331   7.545   2.403   3.220
 7129TIP3    H121332   7.553   2.418   3.315
 7129TIP3    H221333   7.611   2.336   3.201
 7130TIP3   OH221334   2.216   3.351   4.166
 7130TIP3    H121335   2.239   3.373   4.257
 7130TIP3    H221336   2.296   3.311   4.131
 7131TIP3   OH221337   2.566   0.378   1.309
 7131TIP3    H121338   2.510   0.302   1.296
 7131TIP3    H221339   2.514   0.452   1.278
 7132TIP3   OH221340   5.403   3.725   6.464
 7132TIP3    H121341   5.378   3.700   6.375
 7132TIP3    H221342   5.322   3.754   6.506
 7133TIP3   OH221343   1.185   4.443   2.760
 7133TIP3    H121344   1.155   4.426   2.849
 7133TIP3    H221345   1.176   4.538   2.750
 7134TIP3   OH221346   3.451   0.831   4.446
 7134TIP3    H121347   3.490   0.909   4.485
 7134TIP3    H221348   3.415   0.861   4.363
 7135TIP3   OH221349   5.523   2.171   3.204
 7135TIP3    H121350   5.582   2.133   3.270
 7135TIP3    H221351   5.555   2.260   3.192
 7136TIP3   OH221352   3.782   3.088   0.383
 7136TIP3    H121353   3.860   3.142   0.373
 7136TIP3    H221354   3.756   3.100   0.475
 7137TIP3   OH221355   1.998   3.971   2.824
 7137TIP3    H121356   2.055   3.894   2.828
 7137TIP3    H221357   2.054   4.044   2.851
 7138TIP3   OH221358   5.093   2.167   5.935
 7138TIP3    H121359   5.154   2.233   5.904
 7138TIP3    H221360   5.118   2.087   5.888
 7139TIP3   OH221361   6.143   0.985   0.148
 7139TIP3    H121362   6.062   0.939   0.129
 7139TIP3    H221363   6.174   1.015   0.063
 7140TIP3   OH221364   7.997   0.695   6.642
 7140TIP3    H121365   8.030   0.784   6.637
 7140TIP3    H221366   8.066   0.641   6.603
 7141TIP3   OH221367   6.161   2.632   1.315
 7141TIP3    H121368   6.185   2.595   1.399
 7141TIP3    H221369   6.093   2.696   1.335
 7142TIP3   OH221370   0.677   3.303   4.392
 7142TIP3    H121371   0.637   3.377   4.437
 7142TIP3    H221372   0.771   3.312   4.409
 7143TIP3   OH221373   5.495   1.465   5.574
 7143TIP3    H121374   5.437   1.457   5.499
 7143TIP3    H221375   5.446   1.426   5.647
 7144TIP3   OH221376   5.280   3.061   3.253
 7144TIP3    H121377   5.221   3.031   3.321
 7144TIP3    H221378   5.238   3.035   3.171
 7145TIP3   OH221379   3.442   4.148   0.021
 7145TIP3    H121380   3.462   4.075   0.080
 7145TIP3    H221381   3.358   4.181   0.053
 7146TIP3   OH221382   2.815   1.947   3.225
 7146TIP3    H121383   2.768   1.933   3.308
 7146TIP3    H221384   2.856   2.033   3.235
 7147TIP3   OH221385   4.133   1.039   1.573
 7147TIP3    H121386   4.142   1.122   1.620
 7147TIP3    H221387   4.041   1.037   1.545
 7148TIP3   OH221388   8.256   5.578   4.916
 7148TIP3    H121389   8.186   5.565   4.980
 7148TIP3    H221390   8.317   5.506   4.932
 7149TIP3   OH221391   2.847   7.243   4.613
 7149TIP3    H121392   2.830   7.311   4.548
 7149TIP3    H221393   2.898   7.288   4.681
 7150TIP3   OH221394   2.840   0.860   2.719
 7150TIP3    H121395   2.761   0.838   2.769
 7150TIP3    H221396   2.885   0.777   2.707
 7151TIP3   OH221397   5.688   1.121   0.190
 7151TIP3    H121398   5.760   1.059   0.182
 7151TIP3    H221399   5.673   1.152   0.101
 7152TIP3   OH221400   0.590   4.200   1.340
 7152TIP3    H121401   0.546   4.126   1.299
 7152TIP3    H221402   0.675   4.204   1.296
 7153TIP3   OH221403   7.525   7.240   6.460
 7153TIP3    H121404   7.520   7.194   6.543
 7153TIP3    H221405   7.615   7.272   6.455
 7154TIP3   OH221406   1.292   4.160   2.056
 7154TIP3    H121407   1.362   4.225   2.057
 7154TIP3    H221408   1.280   4.136   2.147
 7155TIP3   OH221409   1.799   7.598   4.926
 7155TIP3    H121410   1.768   7.594   4.836
 7155TIP3    H221411   1.894   7.591   4.920
 7156TIP3   OH221412   1.700   6.575   3.937
 7156TIP3    H121413   1.661   6.636   3.874
 7156TIP3    H221414   1.759   6.629   3.990
 7157TIP3   OH221415   1.903   0.098   5.467
 7157TIP3    H121416   1.852   0.127   5.392
 7157TIP3    H221417   1.855   0.130   5.543
 7158TIP3   OH221418   0.391   7.628   0.252
 7158TIP3    H121419   0.483   7.604   0.243
 7158TIP3    H221420   0.355   7.618   0.164
 7159TIP3   OH221421   6.416   4.473   0.106
 7159TIP3    H121422   6.448   4.538   0.043
 7159TIP3    H221423   6.321   4.475   0.095
 7160TIP3   OH221424   6.558   5.697   0.249
 7160TIP3    H121425   6.575   5.786   0.219
 7160TIP3    H221426   6.581   5.642   0.175
 7161TIP3   OH221427   7.429   1.957   5.121
 7161TIP3    H121428   7.424   1.899   5.045
 7161TIP3    H221429   7.470   2.036   5.088
 7162TIP3   OH221430   7.442   5.618   5.930
 7162TIP3    H121431   7.519   5.635   5.984
 7162TIP3    H221432   7.471   5.639   5.841
 7163TIP3   OH221433   5.983   5.832   6.613
 7163TIP3    H121434   5.964   5.895   6.682
 7163TIP3    H221435   5.931   5.755   6.635
 7164TIP3   OH221436   0.193   4.362   5.207
 7164TIP3    H121437   0.256   4.420   5.163
 7164TIP3    H221438   0.127   4.344   5.141
 7165TIP3   OH221439   1.724   4.221   4.188
 7165TIP3    H121440   1.639   4.177   4.182
 7165TIP3    H221441   1.777   4.162   4.242
 7166TIP3   OH221442   4.644   3.769   1.463
 7166TIP3    H121443   4.596   3.793   1.384
 7166TIP3    H221444   4.672   3.679   1.449
 7167TIP3   OH221445   4.887   1.728   1.172
 7167TIP3    H121446   4.850   1.680   1.098
 7167TIP3    H221447   4.850   1.816   1.165
 7168TIP3   OH221448   6.524   4.420   2.750
 7168TIP3    H121449   6.530   4.326   2.762
 7168TIP3    H221450   6.508   4.431   2.656
 7169TIP3   OH221451   5.243   5.222   3.668
 7169TIP3    H121452   5.277   5.309   3.650
 7169TIP3    H221453   5.212   5.191   3.583
 7170TIP3   OH221454   5.625   5.495   4.742
 7170TIP3    H121455   5.651   5.471   4.653
 7170TIP3    H221456   5.645   5.589   4.748
 7171TIP3   OH221457   1.790   6.614   0.128
 7171TIP3    H121458   1.738   6.534   0.128
 7171TIP3    H221459   1.837   6.612   0.044
 7172TIP3   OH221460   2.515   1.798   3.139
 7172TIP3    H121461   2.510   1.883   3.183
 7172TIP3    H221462   2.480   1.815   3.051
 7173TIP3   OH221463   2.717   3.420   5.646
 7173TIP3    H121464   2.697   3.504   5.685
 7173TIP3    H221465   2.640   3.399   5.592
 7174TIP3   OH221466   4.672   5.220   6.252
 7174TIP3    H121467   4.689   5.128   6.230
 7174TIP3    H221468   4.582   5.235   6.225
 7175TIP3   OH221469   1.717   0.148   0.880
 7175TIP3    H121470   1.650   0.147   0.812
 7175TIP3    H221471   1.726   0.240   0.904
 7176TIP3   OH221472   1.729   6.350   5.718
 7176TIP3    H121473   1.759   6.273   5.671
 7176TIP3    H221474   1.674   6.316   5.789
 7177TIP3   OH221475   2.164   0.306   1.171
 7177TIP3    H121476   2.079   0.277   1.138
 7177TIP3    H221477   2.158   0.401   1.172
 7178TIP3   OH221478   5.386   0.969   5.034
 7178TIP3    H121479   5.389   0.876   5.010
 7178TIP3    H221480   5.470   0.986   5.077
 7179TIP3   OH221481   1.295   5.431   1.445
 7179TIP3    H121482   1.362   5.362   1.444
 7179TIP3    H221483   1.344   5.512   1.460
 7180TIP3   OH221484   7.727   1.343   2.953
 7180TIP3    H121485   7.696   1.308   2.869
 7180TIP3    H221486   7.747   1.434   2.934
 7181TIP3   OH221487   7.686   0.125   5.985
 7181TIP3    H121488   7.730   0.130   6.070
 7181TIP3    H221489   7.756   0.138   5.921
 7182TIP3   OH221490   6.054   6.731   1.839
 7182TIP3    H121491   6.026   6.817   1.809
 7182TIP3    H221492   6.130   6.710   1.785
 7183TIP3   OH221493   4.214   6.471   3.564
 7183TIP3    H121494   4.171   6.409   3.623
 7183TIP3    H221495   4.288   6.423   3.528
 7184TIP3   OH221496   1.750   2.961   1.842
 7184TIP3    H121497   1.719   2.945   1.752
 7184TIP3    H221498   1.672   2.989   1.889
 7185TIP3   OH221499   5.135   0.270   2.109
 7185TIP3    H121500   5.114   0.294   2.018
 7185TIP3    H221501   5.227   0.242   2.105
 7186TIP3   OH221502   4.157   0.539   4.365
 7186TIP3    H121503   4.128   0.469   4.424
 7186TIP3    H221504   4.164   0.616   4.422
 7187TIP3   OH221505   7.017   1.918   1.509
 7187TIP3    H121506   6.963   1.852   1.552
 7187TIP3    H221507   7.099   1.872   1.489
 7188TIP3   OH221508   2.359   5.522   5.500
 7188TIP3    H121509   2.417   5.483   5.566
 7188TIP3    H221510   2.417   5.542   5.426
 7189TIP3   OH221511   8.014   5.279   1.499
 7189TIP3    H121512   7.947   5.304   1.562
 7189TIP3    H221513   8.072   5.355   1.494
 7190TIP3   OH221514   2.769   3.546   2.698
 7190TIP3    H121515   2.830   3.523   2.627
 7190TIP3    H221516   2.793   3.635   2.723
 7191TIP3   OH221517   3.205   3.058   1.094
 7191TIP3    H121518   3.265   2.987   1.115
 7191TIP3    H221519   3.178   3.092   1.179
 7192TIP3   OH221520   6.382   7.141   5.368
 7192TIP3    H121521   6.397   7.124   5.275
 7192TIP3    H221522   6.347   7.059   5.402
 7193TIP3   OH221523   4.798   6.815   5.527
 7193TIP3    H121524   4.705   6.828   5.507
 7193TIP3    H221525   4.813   6.723   5.508
 7194TIP3   OH221526   1.587   6.175   1.722
 7194TIP3    H121527   1.665   6.136   1.683
 7194TIP3    H221528   1.555   6.108   1.783
 7195TIP3   OH221529   2.701   2.112   2.320
 7195TIP3    H121530   2.692   2.153   2.234
 7195TIP3    H221531   2.723   2.021   2.301
 7196TIP3   OH221532   1.145   5.860   1.474
 7196TIP3    H121533   1.175   5.945   1.443
 7196TIP3    H221534   1.128   5.873   1.567
 7197TIP3   OH221535   5.613   7.584   5.857
 7197TIP3    H121536   5.665   7.633   5.793
 7197TIP3    H221537   5.550   7.648   5.891
 7198TIP3   OH221538   5.550   5.667   0.371
 7198TIP3    H121539   5.524   5.578   0.346
 7198TIP3    H221540   5.639   5.657   0.406
 7199TIP3   OH221541   0.618   5.842   3.721
 7199TIP3    H121542   0.535   5.805   3.749
 7199TIP3    H221543   0.629   5.921   3.775
 7200TIP3   OH221544   4.616   2.190   1.171
 7200TIP3    H121545   4.677   2.240   1.225
 7200TIP3    H221546   4.530   2.208   1.209
 7201TIP3   OH221547   7.856   6.886   1.369
 7201TIP3    H121548   7.863   6.791   1.382
 7201TIP3    H221549   7.778   6.897   1.315
 7202TIP3   OH221550   0.199   1.590   2.030
 7202TIP3    H121551   0.150   1.668   2.057
 7202TIP3    H221552   0.286   1.602   2.068
 7203TIP3   OH221553   6.221   0.014   2.053
 7203TIP3    H121554   6.154   0.082   2.040
 7203TIP3    H221555   6.171  -0.067   2.065
 7204TIP3   OH221556   4.563   0.867   1.752
 7204TIP3    H121557   4.587   0.959   1.761
 7204TIP3    H221558   4.467   0.868   1.744
 7205TIP3   OH221559   6.980   4.471   6.601
 7205TIP3    H121560   6.994   4.390   6.553
 7205TIP3    H221561   7.021   4.538   6.547
 7206TIP3   OH221562   2.607   3.530   4.807
 7206TIP3    H121563   2.680   3.581   4.843
 7206TIP3    H221564   2.571   3.483   4.882
 7207TIP3   OH221565   7.141   4.339   4.433
 7207TIP3    H121566   7.203   4.290   4.486
 7207TIP3    H221567   7.106   4.275   4.371
 7208TIP3   OH221568   5.326   6.229   1.860
 7208TIP3    H121569   5.244   6.179   1.865
 7208TIP3    H221570   5.299   6.319   1.842
 7209TIP3   OH221571   3.698   3.348   3.468
 7209TIP3    H121572   3.724   3.437   3.446
 7209TIP3    H221573   3.602   3.350   3.467
 7210TIP3   OH221574   5.741   3.401   2.946
 7210TIP3    H121575   5.748   3.306   2.958
 7210TIP3    H221576   5.713   3.433   3.032
 7211TIP3   OH221577   7.899   1.761   4.176
 7211TIP3    H121578   7.838   1.735   4.107
 7211TIP3    H221579   7.984   1.767   4.132
 7212TIP3   OH221580   4.919   7.663   6.471
 7212TIP3    H121581   4.950   7.663   6.381
 7212TIP3    H221582   4.990   7.704   6.521
 7213TIP3   OH221583   0.186   2.463   4.595
 7213TIP3    H121584   0.238   2.491   4.520
 7213TIP3    H221585   0.119   2.531   4.605
 7214TIP3   OH221586   1.912   4.733   1.966
 7214TIP3    H121587   1.979   4.801   1.957
 7214TIP3    H221588   1.911   4.690   1.880
 7215TIP3   OH221589   6.828   6.944   0.607
 7215TIP3    H121590   6.834   6.984   0.520
 7215TIP3    H221591   6.816   7.019   0.666
 7216TIP3   OH221592   7.941   3.273   4.127
 7216TIP3    H121593   7.926   3.208   4.059
 7216TIP3    H221594   7.854   3.296   4.158
 7217TIP3   OH221595   0.047   1.440   4.731
 7217TIP3    H121596   0.116   1.382   4.763
 7217TIP3    H221597   0.079   1.528   4.749
 7218TIP3   OH221598   2.269   1.573   4.030
 7218TIP3    H121599   2.293   1.661   4.002
 7218TIP3    H221600   2.189   1.586   4.082
 7219TIP3   OH221601   7.682   0.327   6.373
 7219TIP3    H121602   7.727   0.368   6.447
 7219TIP3    H221603   7.675   0.396   6.308
 7220TIP3   OH221604   0.041   2.386   4.926
 7220TIP3    H121605   0.009   2.476   4.917
 7220TIP3    H221606   0.136   2.393   4.916
 7221TIP3   OH221607   0.474   6.565   3.193
 7221TIP3    H121608   0.567   6.567   3.169
 7221TIP3    H221609   0.466   6.491   3.252
 7222TIP3   OH221610   6.334   3.871   0.466
 7222TIP3    H121611   6.398   3.879   0.395
 7222TIP3    H221612   6.249   3.879   0.423
 7223TIP3   OH221613   5.271   1.880   3.890
 7223TIP3    H121614   5.228   1.846   3.812
 7223TIP3    H221615   5.342   1.818   3.907
 7224TIP3   OH221616   0.694   1.998   4.996
 7224TIP3    H121617   0.613   1.947   5.001
 7224TIP3    H221618   0.763   1.932   4.988
 7225TIP3   OH221619   6.213   2.000   6.570
 7225TIP3    H121620   6.187   2.079   6.617
 7225TIP3    H221621   6.272   1.955   6.630
 7226TIP3   OH221622   2.688   7.343   5.578
 7226TIP3    H121623   2.743   7.370   5.652
 7226TIP3    H221624   2.649   7.260   5.607
 7227TIP3   OH221625   8.223   0.696   3.896
 7227TIP3    H121626   8.137   0.658   3.879
 7227TIP3    H221627   8.250   0.660   3.980
 7228TIP3   OH221628   3.763   1.725   5.382
 7228TIP3    H121629   3.801   1.682   5.305
 7228TIP3    H221630   3.732   1.653   5.437
 7229TIP3   OH221631   2.646   0.250   0.425
 7229TIP3    H121632   2.560   0.293   0.426
 7229TIP3    H221633   2.636   0.179   0.362
 7230TIP3   OH221634   3.618   3.112   2.574
 7230TIP3    H121635   3.646   3.037   2.522
 7230TIP3    H221636   3.555   3.077   2.636
 7231TIP3   OH221637   2.764   5.927   6.676
 7231TIP3    H121638   2.826   5.966   6.738
 7231TIP3    H221639   2.680   5.931   6.720
 7232TIP3   OH221640   8.193   0.077   5.822
 7232TIP3    H121641   8.169   0.003   5.878
 7232TIP3    H221642   8.289   0.077   5.823
 7233TIP3   OH221643   3.904   7.352   2.413
 7233TIP3    H121644   3.915   7.377   2.505
 7233TIP3    H221645   3.855   7.424   2.374
 7234TIP3   OH221646   7.796   5.874   5.429
 7234TIP3    H121647   7.780   5.966   5.453
 7234TIP3    H221648   7.863   5.844   5.490
 7235TIP3   OH221649   0.600   5.848   3.129
 7235TIP3    H121650   0.621   5.754   3.127
 7235TIP3    H221651   0.650   5.881   3.204
 7236TIP3   OH221652   7.899   3.432   3.024
 7236TIP3    H121653   7.884   3.338   3.024
 7236TIP3    H221654   7.932   3.452   2.937
 7237TIP3   OH221655   1.715   4.647   1.487
 7237TIP3    H121656   1.752   4.592   1.418
 7237TIP3    H221657   1.677   4.722   1.440
 7238TIP3   OH221658   4.679   0.994   4.829
 7238TIP3    H121659   4.592   1.026   4.852
 7238TIP3    H221660   4.673   0.973   4.736
 7239TIP3   OH221661   3.167   3.301   4.576
 7239TIP3    H121662   3.225   3.363   4.620
 7239TIP3    H221663   3.090   3.297   4.632
 7240TIP3   OH221664   1.264   3.386   4.078
 7240TIP3    H121665   1.271   3.291   4.068
 7240TIP3    H221666   1.171   3.402   4.094
 7241TIP3   OH221667   2.111   0.883   1.226
 7241TIP3    H121668   2.069   0.952   1.174
 7241TIP3    H221669   2.173   0.930   1.282
 7242TIP3   OH221670   4.965   4.181   2.927
 7242TIP3    H121671   4.912   4.260   2.916
 7242TIP3    H221672   4.956   4.160   3.020
 7243TIP3   OH221673   4.318   0.381   6.428
 7243TIP3    H121674   4.299   0.318   6.359
 7243TIP3    H221675   4.413   0.395   6.421
 7244TIP3   OH221676   5.073   0.898   3.615
 7244TIP3    H121677   5.121   0.898   3.697
 7244TIP3    H221678   5.002   0.961   3.628
 7245TIP3   OH221679   7.447   7.778   6.463
 7245TIP3    H121680   7.361   7.738   6.475
 7245TIP3    H221681   7.445   7.813   6.374
 7246TIP3   OH221682   0.468   0.084   4.727
 7246TIP3    H121683   0.531   0.136   4.777
 7246TIP3    H221684   0.470   0.122   4.639
 7247TIP3   OH221685   6.755   7.701   4.946
 7247TIP3    H121686   6.815   7.775   4.955
 7247TIP3    H221687   6.774   7.646   5.022
 7248TIP3   OH221688   0.559   5.230   3.173
 7248TIP3    H121689   0.599   5.261   3.254
 7248TIP3    H221690   0.617   5.261   3.104
 7249TIP3   OH221691   2.937   3.990   0.171
 7249TIP3    H121692   2.920   3.984   0.265
 7249TIP3    H221693   2.850   3.987   0.131
 7250TIP3   OH221694   7.520   3.459   3.944
 7250TIP3    H121695   7.498   3.373   3.980
 7250TIP3    H221696   7.501   3.451   3.851
 7251TIP3   OH221697   3.961   2.841   6.030
 7251TIP3    H121698   4.048   2.859   5.994
 7251TIP3    H221699   3.900   2.870   5.962
 7252TIP3   OH221700   1.973   0.356   3.860
 7252TIP3    H121701   1.933   0.269   3.853
 7252TIP3    H221702   1.960   0.381   3.951
 7253TIP3   OH221703   1.204   1.096   2.548
 7253TIP3    H121704   1.213   1.011   2.504
 7253TIP3    H221705   1.287   1.140   2.532
 7254TIP3   OH221706   6.876   7.379   1.624
 7254TIP3    H121707   6.810   7.396   1.691
 7254TIP3    H221708   6.928   7.306   1.657
 7255TIP3   OH221709   6.988   2.863   0.714
 7255TIP3    H121710   6.987   2.849   0.809
 7255TIP3    H221711   6.981   2.958   0.704
 7256TIP3   OH221712   3.506   1.387   4.063
 7256TIP3    H121713   3.420   1.422   4.040
 7256TIP3    H221714   3.568   1.450   4.027
 7257TIP3   OH221715   5.665   3.237   0.549
 7257TIP3    H121716   5.713   3.197   0.622
 7257TIP3    H221717   5.612   3.166   0.513
 7258TIP3   OH221718   6.310   6.820   2.619
 7258TIP3    H121719   6.341   6.831   2.529
 7258TIP3    H221720   6.268   6.904   2.639
 7259TIP3   OH221721   3.232   3.696   2.591
 7259TIP3    H121722   3.221   3.764   2.524
 7259TIP3    H221723   3.290   3.735   2.656
 7260TIP3   OH221724   6.751   4.490   3.489
 7260TIP3    H121725   6.832   4.535   3.510
 7260TIP3    H221726   6.759   4.467   3.397
 7261TIP3   OH221727   6.372   5.842   3.907
 7261TIP3    H121728   6.348   5.774   3.843
 7261TIP3    H221729   6.465   5.858   3.892
 7262TIP3   OH221730   7.035   0.010   6.505
 7262TIP3    H121731   7.122  -0.007   6.467
 7262TIP3    H221732   6.986   0.051   6.433
 7263TIP3   OH221733   3.126   6.664   0.407
 7263TIP3    H121734   3.203   6.608   0.403
 7263TIP3    H221735   3.116   6.698   0.318
 7264TIP3   OH221736   0.116   7.194   2.178
 7264TIP3    H121737   0.135   7.286   2.157
 7264TIP3    H221738   0.170   7.144   2.118
 7265TIP3   OH221739   1.228   1.758   6.170
 7265TIP3    H121740   1.192   1.762   6.082
 7265TIP3    H221741   1.200   1.673   6.204
 7266TIP3   OH221742   7.306   4.002   2.730
 7266TIP3    H121743   7.353   4.034   2.653
 7266TIP3    H221744   7.374   3.995   2.798
 7267TIP3   OH221745   4.466   4.367   2.224
 7267TIP3    H121746   4.481   4.274   2.212
 7267TIP3    H221747   4.546   4.400   2.265
 7268TIP3   OH221748   0.791   5.969   2.044
 7268TIP3    H121749   0.820   5.973   1.953
 7268TIP3    H221750   0.786   6.060   2.072
 7269TIP3   OH221751   4.944   4.375   3.746
 7269TIP3    H121752   4.974   4.465   3.739
 7269TIP3    H221753   5.006   4.332   3.805
 7270TIP3   OH221754   6.349   6.858   0.287
 7270TIP3    H121755   6.332   6.952   0.296
 7270TIP3    H221756   6.414   6.840   0.355
 7271TIP3   OH221757   8.026   6.017   1.851
 7271TIP3    H121758   8.120   6.003   1.859
 7271TIP3    H221759   8.013   6.037   1.758
 7272TIP3   OH221760   6.706   7.669   5.885
 7272TIP3    H121761   6.615   7.686   5.909
 7272TIP3    H221762   6.749   7.754   5.891
 7273TIP3   OH221763   1.643   6.121   4.723
 7273TIP3    H121764   1.577   6.102   4.656
 7273TIP3    H221765   1.602   6.187   4.778
 7274TIP3   OH221766   6.117   4.904   2.211
 7274TIP3    H121767   6.172   4.968   2.166
 7274TIP3    H221768   6.076   4.855   2.141
 7275TIP3   OH221769   8.034   3.521   0.087
 7275TIP3    H121770   7.962   3.560   0.137
 7275TIP3    H221771   8.077   3.462   0.149
 7276TIP3   OH221772   1.589   7.155   2.763
 7276TIP3    H121773   1.616   7.182   2.675
 7276TIP3    H221774   1.616   7.063   2.770
 7277TIP3   OH221775   7.782   3.929   2.374
 7277TIP3    H121776   7.810   4.020   2.375
 7277TIP3    H221777   7.794   3.898   2.463
 7278TIP3   OH221778   6.400   0.088   2.800
 7278TIP3    H121779   6.408   0.100   2.706
 7278TIP3    H221780   6.323   0.033   2.811
 7279TIP3   OH221781   1.797   6.000   1.182
 7279TIP3    H121782   1.867   5.961   1.130
 7279TIP3    H221783   1.782   6.086   1.142
 7280TIP3   OH221784   7.843   5.625   3.582
 7280TIP3    H121785   7.871   5.658   3.667
 7280TIP3    H221786   7.924   5.608   3.535
 7281TIP3   OH221787   4.748   2.848   3.938
 7281TIP3    H121788   4.811   2.916   3.914
 7281TIP3    H221789   4.802   2.772   3.961
 7282TIP3   OH221790   3.197   2.576   3.185
 7282TIP3    H121791   3.272   2.517   3.187
 7282TIP3    H221792   3.132   2.534   3.242
 7283TIP3   OH221793   7.039   0.725   4.384
 7283TIP3    H121794   6.956   0.771   4.391
 7283TIP3    H221795   7.087   0.771   4.315
 7284TIP3   OH221796   1.332   2.168   2.312
 7284TIP3    H121797   1.395   2.131   2.374
 7284TIP3    H221798   1.356   2.130   2.227
 7285TIP3   OH221799   6.606   7.193   1.296
 7285TIP3    H121800   6.627   7.270   1.349
 7285TIP3    H221801   6.663   7.200   1.220
 7286TIP3   OH221802   1.449   4.490   3.382
 7286TIP3    H121803   1.367   4.497   3.431
 7286TIP3    H221804   1.515   4.527   3.440
 7287TIP3   OH221805   6.501   6.412   6.264
 7287TIP3    H121806   6.444   6.337   6.279
 7287TIP3    H221807   6.443   6.488   6.265
 7288TIP3   OH221808   5.528   6.559   4.397
 7288TIP3    H121809   5.588   6.486   4.405
 7288TIP3    H221810   5.583   6.634   4.376
 7289TIP3   OH221811   0.342   2.272   0.661
 7289TIP3    H121812   0.404   2.229   0.602
 7289TIP3    H221813   0.390   2.281   0.744
 7290TIP3   OH221814   2.735   4.637   4.764
 7290TIP3    H121815   2.769   4.605   4.681
 7290TIP3    H221816   2.722   4.558   4.817
 7291TIP3   OH221817   1.204   4.448   4.270
 7291TIP3    H121818   1.224   4.531   4.228
 7291TIP3    H221819   1.287   4.420   4.309
 7292TIP3   OH221820   6.571   5.991   4.180
 7292TIP3    H121821   6.580   6.024   4.091
 7292TIP3    H221822   6.604   5.902   4.176
 7293TIP3   OH221823   2.869   1.508   0.337
 7293TIP3    H121824   2.854   1.499   0.431
 7293TIP3    H221825   2.805   1.448   0.297
 7294TIP3   OH221826   2.438   5.329   3.453
 7294TIP3    H121827   2.494   5.407   3.453
 7294TIP3    H221828   2.457   5.287   3.537
 7295TIP3   OH221829   7.168   1.270   5.967
 7295TIP3    H121830   7.219   1.195   5.996
 7295TIP3    H221831   7.171   1.331   6.040
 7296TIP3   OH221832   6.872   5.516   0.554
 7296TIP3    H121833   6.887   5.547   0.465
 7296TIP3    H221834   6.777   5.508   0.561
 7297TIP3   OH221835   0.238   2.512   5.829
 7297TIP3    H121836   0.171   2.542   5.768
 7297TIP3    H221837   0.314   2.567   5.810
 7298TIP3   OH221838   3.937   4.163   0.125
 7298TIP3    H121839   3.915   4.167   0.218
 7298TIP3    H221840   3.900   4.080   0.095
 7299TIP3   OH221841   0.392   6.447   5.642
 7299TIP3    H121842   0.334   6.439   5.718
 7299TIP3    H221843   0.346   6.401   5.571
 7300TIP3   OH221844   6.326   6.179   1.613
 7300TIP3    H121845   6.321   6.099   1.561
 7300TIP3    H221846   6.388   6.234   1.565
 7301TIP3   OH221847   3.045   0.690   3.273
 7301TIP3    H121848   3.019   0.655   3.188
 7301TIP3    H221849   2.970   0.741   3.303
 7302TIP3   OH221850   6.318   0.419   2.515
 7302TIP3    H121851   6.234   0.462   2.498
 7302TIP3    H221852   6.384   0.483   2.487
 7303TIP3   OH221853   0.876   7.206   5.080
 7303TIP3    H121854   0.922   7.137   5.032
 7303TIP3    H221855   0.805   7.161   5.126
 7304TIP3   OH221856   6.342   1.105   5.320
 7304TIP3    H121857   6.335   1.175   5.385
 7304TIP3    H221858   6.288   1.135   5.247
 7305TIP3   OH221859   0.141   5.184   0.718
 7305TIP3    H121860   0.147   5.272   0.681
 7305TIP3    H221861   0.203   5.132   0.667
 7306TIP3   OH221862   2.291   1.916   0.292
 7306TIP3    H121863   2.283   1.946   0.382
 7306TIP3    H221864   2.378   1.945   0.265
 7307TIP3   OH221865   4.894   4.775   3.012
 7307TIP3    H121866   4.842   4.773   2.932
 7307TIP3    H221867   4.834   4.807   3.079
 7308TIP3   OH221868   7.064   3.058   1.397
 7308TIP3    H121869   7.033   2.972   1.370
 7308TIP3    H221870   7.118   3.041   1.475
 7309TIP3   OH221871   7.677   1.122   0.684
 7309TIP3    H121872   7.627   1.199   0.656
 7309TIP3    H221873   7.758   1.157   0.721
 7310TIP3   OH221874   5.034   6.657   4.710
 7310TIP3    H121875   5.047   6.701   4.795
 7310TIP3    H221876   4.960   6.703   4.670
 7311TIP3   OH221877   7.157   3.716   3.849
 7311TIP3    H121878   7.202   3.670   3.920
 7311TIP3    H221879   7.212   3.700   3.772
 7312TIP3   OH221880   6.653   6.841   2.399
 7312TIP3    H121881   6.715   6.806   2.335
 7312TIP3    H221882   6.708   6.870   2.472
 7313TIP3   OH221883   0.394   5.257   5.511
 7313TIP3    H121884   0.390   5.350   5.533
 7313TIP3    H221885   0.462   5.221   5.569
 7314TIP3   OH221886   7.618   0.328   3.717
 7314TIP3    H121887   7.608   0.296   3.807
 7314TIP3    H221888   7.529   0.331   3.683
 7315TIP3   OH221889   0.129   3.836   4.510
 7315TIP3    H121890   0.103   3.919   4.552
 7315TIP3    H221891   0.177   3.789   4.579
 7316TIP3   OH221892   0.133   2.367   6.027
 7316TIP3    H121893   0.178   2.394   5.947
 7316TIP3    H221894   0.166   2.427   6.095
 7317TIP3   OH221895   4.018   6.816   5.420
 7317TIP3    H121896   3.992   6.761   5.493
 7317TIP3    H221897   3.953   6.798   5.352
 7318TIP3   OH221898   5.979   6.569   5.521
 7318TIP3    H121899   5.938   6.544   5.604
 7318TIP3    H221900   6.036   6.496   5.500
 7319TIP3   OH221901   7.347   5.758   5.514
 7319TIP3    H121902   7.392   5.725   5.593
 7319TIP3    H221903   7.406   5.736   5.442
 7320TIP3   OH221904   2.144   5.165   6.459
 7320TIP3    H121905   2.053   5.155   6.432
 7320TIP3    H221906   2.143   5.241   6.517
 7321TIP3   OH221907   2.788   7.025   3.107
 7321TIP3    H121908   2.709   7.075   3.086
 7321TIP3    H221909   2.764   6.934   3.091
 7322TIP3   OH221910   0.585   6.527   5.850
 7322TIP3    H121911   0.508   6.502   5.900
 7322TIP3    H221912   0.608   6.614   5.884
 7323TIP3   OH221913   2.228   6.146   5.323
 7323TIP3    H121914   2.237   6.234   5.287
 7323TIP3    H221915   2.138   6.141   5.353
 7324TIP3   OH221916   5.868   4.526   6.330
 7324TIP3    H121917   5.843   4.559   6.244
 7324TIP3    H221918   5.818   4.580   6.392
 7325TIP3   OH221919   0.497   3.829   4.484
 7325TIP3    H121920   0.496   3.899   4.418
 7325TIP3    H221921   0.490   3.748   4.432
 7326TIP3   OH221922   7.234   2.386   4.277
 7326TIP3    H121923   7.153   2.381   4.327
 7326TIP3    H221924   7.302   2.354   4.337
 7327TIP3   OH221925   4.989   4.709   6.115
 7327TIP3    H121926   4.924   4.775   6.090
 7327TIP3    H221927   4.947   4.660   6.186
 7328TIP3   OH221928   4.486   1.723   4.197
 7328TIP3    H121929   4.485   1.750   4.105
 7328TIP3    H221930   4.403   1.679   4.210
 7329TIP3   OH221931   1.057   5.623   0.572
 7329TIP3    H121932   0.993   5.602   0.641
 7329TIP3    H221933   1.007   5.618   0.491
 7330TIP3   OH221934   5.802   2.621   4.684
 7330TIP3    H121935   5.725   2.631   4.740
 7330TIP3    H221936   5.843   2.707   4.682
 7331TIP3   OH221937   4.443   7.261   2.639
 7331TIP3    H121938   4.348   7.256   2.628
 7331TIP3    H221939   4.473   7.323   2.573
 7332TIP3   OH221940   6.549   1.909   5.264
 7332TIP3    H121941   6.534   1.981   5.325
 7332TIP3    H221942   6.462   1.874   5.245
 7333TIP3   OH221943   6.374   4.924   6.294
 7333TIP3    H121944   6.373   4.836   6.333
 7333TIP3    H221945   6.433   4.915   6.218
 7334TIP3   OH221946   3.780   0.650   6.387
 7334TIP3    H121947   3.859   0.598   6.402
 7334TIP3    H221948   3.791   0.686   6.299
 7335TIP3   OH221949   3.535   5.916   5.152
 7335TIP3    H121950   3.536   5.984   5.219
 7335TIP3    H221951   3.487   5.843   5.191
 7336TIP3   OH221952   7.014   2.378   3.699
 7336TIP3    H121953   7.038   2.395   3.790
 7336TIP3    H221954   7.089   2.330   3.663
 7337TIP3   OH221955   7.287   0.282   5.936
 7337TIP3    H121956   7.364   0.325   5.900
 7337TIP3    H221957   7.221   0.290   5.868
 7338TIP3   OH221958   4.636   2.389   0.877
 7338TIP3    H121959   4.565   2.393   0.813
 7338TIP3    H221960   4.698   2.326   0.841
 7339TIP3   OH221961   4.479   3.148   2.072
 7339TIP3    H121962   4.494   3.242   2.068
 7339TIP3    H221963   4.395   3.139   2.117
 7340TIP3   OH221964   6.424   2.552   5.675
 7340TIP3    H121965   6.503   2.595   5.708
 7340TIP3    H221966   6.410   2.478   5.734
 7341TIP3   OH221967   0.062   1.291   5.625
 7341TIP3    H121968  -0.003   1.226   5.596
 7341TIP3    H221969   0.145   1.258   5.592
 7342TIP3   OH221970   7.076   6.913   4.216
 7342TIP3    H121971   7.017   6.964   4.162
 7342TIP3    H221972   7.157   6.965   4.219
 7343TIP3   OH221973   4.546   5.275   0.818
 7343TIP3    H121974   4.544   5.371   0.812
 7343TIP3    H221975   4.479   5.254   0.883
 7344TIP3   OH221976   2.867   1.751   0.667
 7344TIP3    H121977   2.787   1.803   0.661
 7344TIP3    H221978   2.923   1.786   0.598
 7345TIP3   OH221979   6.909   2.571   1.487
 7345TIP3    H121980   6.982   2.631   1.470
 7345TIP3    H221981   6.846   2.592   1.417
 7346TIP3   OH221982   4.151   5.967   2.692
 7346TIP3    H121983   4.203   6.021   2.751
 7346TIP3    H221984   4.087   6.027   2.654
 7347TIP3   OH221985   8.186   2.609   4.885
 7347TIP3    H121986   8.248   2.675   4.853
 7347TIP3    H221987   8.149   2.648   4.965
 7348TIP3   OH221988   1.797   5.775   2.766
 7348TIP3    H121989   1.760   5.789   2.679
 7348TIP3    H221990   1.747   5.833   2.823
 7349TIP3   OH221991   7.893   4.339   2.043
 7349TIP3    H121992   7.801   4.344   2.018
 7349TIP3    H221993   7.912   4.423   2.084
 7350TIP3   OH221994   5.078   4.353   0.621
 7350TIP3    H121995   5.134   4.385   0.551
 7350TIP3    H221996   4.994   4.396   0.605
 7351TIP3   OH221997   4.316   0.298   4.296
 7351TIP3    H121998   4.249   0.364   4.308
 7351TIP3    H221999   4.395   0.348   4.273
 7352TIP3   OH222000   7.934   1.054   2.222
 7352TIP3    H122001   7.992   1.007   2.162
 7352TIP3    H222002   7.908   0.988   2.287
 7353TIP3   OH222003   5.562   0.299   1.511
 7353TIP3    H122004   5.643   0.251   1.529
 7353TIP3    H222005   5.539   0.339   1.594
 7354TIP3   OH222006   7.047   6.757   0.492
 7354TIP3    H122007   6.958   6.778   0.465
 7354TIP3    H222008   7.057   6.664   0.472
 7355TIP3   OH222009   7.840   6.924   2.850
 7355TIP3    H122010   7.915   6.887   2.896
 7355TIP3    H222011   7.813   6.855   2.789
 7356TIP3   OH222012   1.222   2.967   2.454
 7356TIP3    H122013   1.144   2.962   2.399
 7356TIP3    H222014   1.275   2.892   2.428
 7357TIP3   OH222015   4.512   5.348   3.097
 7357TIP3    H122016   4.474   5.261   3.110
 7357TIP3    H222017   4.541   5.374   3.185
 7358TIP3   OH222018   7.469   0.884   1.935
 7358TIP3    H122019   7.403   0.949   1.912
 7358TIP3    H222020   7.522   0.874   1.855
 7359TIP3   OH222021   4.158   4.269   2.403
 7359TIP3    H122022   4.173   4.175   2.391
 7359TIP3    H222023   4.241   4.303   2.437
 7360TIP3   OH222024   4.276   4.461   4.877
 7360TIP3    H122025   4.294   4.367   4.867
 7360TIP3    H222026   4.311   4.483   4.963
 7361TIP3   OH222027   7.466   2.499   2.829
 7361TIP3    H122028   7.459   2.409   2.861
 7361TIP3    H222029   7.528   2.494   2.756
 7362TIP3   OH222030   5.104   6.250   0.909
 7362TIP3    H122031   5.049   6.326   0.924
 7362TIP3    H222032   5.067   6.209   0.831
 7363TIP3   OH222033   3.366   6.574   5.414
 7363TIP3    H122034   3.338   6.661   5.442
 7363TIP3    H222035   3.298   6.546   5.352
 7364TIP3   OH222036   4.340   2.946   3.026
 7364TIP3    H122037   4.376   2.905   3.105
 7364TIP3    H222038   4.364   3.039   3.035
 7365TIP3   OH222039   1.215   3.091   3.707
 7365TIP3    H122040   1.192   3.180   3.681
 7365TIP3    H222041   1.211   3.093   3.803
 7366TIP3   OH222042   4.348   7.680   1.199
 7366TIP3    H122043   4.429   7.631   1.184
 7366TIP3    H222044   4.278   7.621   1.171
 7367TIP3   OH222045   4.895   3.787   5.064
 7367TIP3    H122046   4.902   3.693   5.082
 7367TIP3    H222047   4.939   3.798   4.980
 7368TIP3   OH222048   0.096   0.570   5.914
 7368TIP3    H122049   0.070   0.479   5.907
 7368TIP3    H222050   0.159   0.583   5.842
 7369TIP3   OH222051   7.686   2.498   1.149
 7369TIP3    H122052   7.614   2.440   1.123
 7369TIP3    H222053   7.722   2.458   1.228
 7370TIP3   OH222054   7.737   1.883   0.618
 7370TIP3    H122055   7.759   1.822   0.547
 7370TIP3    H222056   7.642   1.888   0.617
 7371TIP3   OH222057   6.351   3.311   6.406
 7371TIP3    H122058   6.316   3.348   6.325
 7371TIP3    H222059   6.371   3.220   6.385
 7372TIP3   OH222060   1.395   2.974   1.058
 7372TIP3    H122061   1.430   3.018   1.135
 7372TIP3    H222062   1.419   2.882   1.071
 7373TIP3   OH222063   1.512   6.502   0.764
 7373TIP3    H122064   1.535   6.568   0.829
 7373TIP3    H222065   1.455   6.441   0.810
 7374TIP3   OH222066   7.886   2.441   6.105
 7374TIP3    H122067   7.835   2.391   6.041
 7374TIP3    H222068   7.878   2.532   6.075
 7375TIP3   OH222069   3.046   7.592   5.211
 7375TIP3    H122070   3.061   7.499   5.197
 7375TIP3    H222071   2.964   7.597   5.260
 7376TIP3   OH222072   2.583   6.728   4.343
 7376TIP3    H122073   2.613   6.810   4.304
 7376TIP3    H222074   2.618   6.731   4.432
 7377TIP3   OH222075   1.867   3.528   1.093
 7377TIP3    H122076   1.807   3.578   1.148
 7377TIP3    H222077   1.954   3.546   1.130
 7378TIP3   OH222078   2.427   6.839   1.002
 7378TIP3    H122079   2.489   6.900   0.962
 7378TIP3    H222080   2.388   6.887   1.074
 7379TIP3   OH222081   2.293   3.954   4.760
 7379TIP3    H122082   2.328   4.039   4.786
 7379TIP3    H222083   2.337   3.891   4.817
 7380TIP3   OH222084   6.364   5.491   4.257
 7380TIP3    H122085   6.323   5.425   4.312
 7380TIP3    H222086   6.380   5.565   4.315
 7381TIP3   OH222087   4.987   6.868   2.545
 7381TIP3    H122088   4.904   6.843   2.505
 7381TIP3    H222089   4.965   6.941   2.603
 7382TIP3   OH222090   1.571   6.033   5.243
 7382TIP3    H122091   1.590   6.020   5.150
 7382TIP3    H222092   1.525   5.953   5.269
 7383TIP3   OH222093   7.824   1.858   2.172
 7383TIP3    H122094   7.823   1.830   2.080
 7383TIP3    H222095   7.819   1.953   2.169
 7384TIP3   OH222096   1.214   1.400   0.492
 7384TIP3    H122097   1.167   1.452   0.557
 7384TIP3    H222098   1.237   1.462   0.423
 7385TIP3   OH222099   0.944   4.151   1.493
 7385TIP3    H122100   0.903   4.064   1.493
 7385TIP3    H222101   1.018   4.143   1.554
 7386TIP3   OH222102   7.219   1.332   5.215
 7386TIP3    H122103   7.219   1.345   5.121
 7386TIP3    H222104   7.311   1.330   5.239
 7387TIP3   OH222105   7.806   5.382   2.128
 7387TIP3    H122106   7.784   5.472   2.105
 7387TIP3    H222107   7.872   5.390   2.197
 7388TIP3   OH222108   5.143   0.509   6.322
 7388TIP3    H122109   5.101   0.424   6.313
 7388TIP3    H222110   5.228   0.489   6.362
 7389TIP3   OH222111   6.789   6.197   5.744
 7389TIP3    H122112   6.837   6.227   5.822
 7389TIP3    H222113   6.858   6.169   5.684
 7390TIP3   OH222114   3.530   1.655   6.770
 7390TIP3    H122115   3.616   1.648   6.728
 7390TIP3    H222116   3.509   1.748   6.766
 7391TIP3   OH222117   7.960   4.168   2.379
 7391TIP3    H122118   7.939   4.248   2.427
 7391TIP3    H222119   7.938   4.188   2.288
 7392TIP3   OH222120   0.132   0.067   2.441
 7392TIP3    H122121   0.171   0.106   2.519
 7392TIP3    H222122   0.102   0.142   2.389
 7393TIP3   OH222123   1.701   4.446   4.840
 7393TIP3    H122124   1.698   4.415   4.749
 7393TIP3    H222125   1.791   4.428   4.868
 7394TIP3   OH222126   7.067   4.319   5.685
 7394TIP3    H122127   7.067   4.372   5.764
 7394TIP3    H222128   6.999   4.358   5.630
 7395TIP3   OH222129   7.223   2.613   2.140
 7395TIP3    H122130   7.139   2.609   2.093
 7395TIP3    H222131   7.289   2.613   2.072
 7396TIP3   OH222132   0.508   3.918   3.177
 7396TIP3    H122133   0.414   3.935   3.175
 7396TIP3    H222134   0.544   3.972   3.107
 7397TIP3   OH222135   2.031   3.169   4.333
 7397TIP3    H122136   2.110   3.192   4.284
 7397TIP3    H222137   1.967   3.235   4.306
 7398TIP3   OH222138   7.445   2.036   3.149
 7398TIP3    H122139   7.385   1.968   3.179
 7398TIP3    H222140   7.519   1.987   3.112
 7399TIP3   OH222141   3.173   7.837   1.763
 7399TIP3    H122142   3.159   7.930   1.784
 7399TIP3    H222143   3.268   7.826   1.763
 7400TIP3   OH222144   6.840   2.357   1.295
 7400TIP3    H122145   6.812   2.285   1.351
 7400TIP3    H222146   6.889   2.415   1.353
 7401TIP3   OH222147   6.508   0.720   6.031
 7401TIP3    H122148   6.539   0.764   6.110
 7401TIP3    H222149   6.417   0.748   6.023
 7402TIP3   OH222150   6.692   3.044   2.993
 7402TIP3    H122151   6.623   3.008   3.048
 7402TIP3    H222152   6.649   3.110   2.940
 7403TIP3   OH222153   6.851   3.834   0.202
 7403TIP3    H122154   6.907   3.893   0.152
 7403TIP3    H222155   6.848   3.754   0.150
 7404TIP3   OH222156   6.296   0.852   4.047
 7404TIP3    H122157   6.268   0.770   4.006
 7404TIP3    H222158   6.272   0.842   4.139
 7405TIP3   OH222159   5.174   1.710   4.583
 7405TIP3    H122160   5.236   1.660   4.530
 7405TIP3    H222161   5.229   1.775   4.627
 7406TIP3   OH222162   0.776   3.993   0.777
 7406TIP3    H122163   0.760   4.087   0.772
 7406TIP3    H222164   0.712   3.954   0.717
 7407TIP3   OH222165   0.853   6.715   1.004
 7407TIP3    H122166   0.852   6.746   0.914
 7407TIP3    H222167   0.819   6.788   1.055
 7408TIP3   OH222168   1.572  -0.016   1.111
 7408TIP3    H122169   1.610  -0.032   1.198
 7408TIP3    H222170   1.585   0.077   1.096
 7409TIP3   OH222171   7.762   0.123   1.096
 7409TIP3    H122172   7.833   0.087   1.150
 7409TIP3    H222173   7.755   0.214   1.124
 7410TIP3   OH222174   8.277   1.338   3.561
 7410TIP3    H122175   8.262   1.344   3.467
 7410TIP3    H222176   8.334   1.412   3.581
 7411TIP3   OH222177   1.094   1.754   4.681
 7411TIP3    H122178   1.129   1.739   4.593
 7411TIP3    H222179   1.148   1.700   4.738
 7412TIP3   OH222180   7.522   2.383   1.931
 7412TIP3    H122181   7.575   2.447   1.884
 7412TIP3    H222182   7.538   2.402   2.023
 7413TIP3   OH222183   1.610   0.892   2.871
 7413TIP3    H122184   1.564   0.967   2.833
 7413TIP3    H222185   1.646   0.845   2.795
 7414TIP3   OH222186   0.340   0.811   2.255
 7414TIP3    H122187   0.381   0.897   2.267
 7414TIP3    H222188   0.373   0.781   2.170
 7415TIP3   OH222189   5.640   6.483   1.783
 7415TIP3    H122190   5.716   6.527   1.747
 7415TIP3    H222191   5.669   6.448   1.867
 7416TIP3   OH222192   7.364   6.343   1.754
 7416TIP3    H122193   7.396   6.431   1.733
 7416TIP3    H222194   7.352   6.301   1.669
 7417TIP3   OH222195   0.564   2.511   2.753
 7417TIP3    H122196   0.477   2.537   2.721
 7417TIP3    H222197   0.559   2.524   2.848
 7418TIP3   OH222198   7.898   1.509   5.940
 7418TIP3    H122199   7.901   1.587   5.995
 7418TIP3    H222200   7.807   1.504   5.910
 7419TIP3   OH222201   1.084   3.900   3.181
 7419TIP3    H122202   1.106   3.863   3.096
 7419TIP3    H222203   1.010   3.959   3.163
 7420TIP3   OH222204   1.174   2.018   2.925
 7420TIP3    H122205   1.117   2.002   2.850
 7420TIP3    H222206   1.203   2.108   2.913
 7421TIP3   OH222207   3.400   6.963   1.409
 7421TIP3    H122208   3.430   6.872   1.419
 7421TIP3    H222209   3.461   7.014   1.463
 7422TIP3   OH222210   5.752   6.509   3.951
 7422TIP3    H122211   5.800   6.530   4.032
 7422TIP3    H222212   5.762   6.587   3.897
 7423TIP3   OH222213   5.326   5.687   5.885
 7423TIP3    H122214   5.260   5.619   5.899
 7423TIP3    H222215   5.286   5.749   5.824
 7424TIP3   OH222216   7.535   7.344   5.476
 7424TIP3    H122217   7.572   7.256   5.469
 7424TIP3    H222218   7.586   7.396   5.414
 7425TIP3   OH222219   1.005   1.305   4.566
 7425TIP3    H122220   1.052   1.329   4.646
 7425TIP3    H222221   1.030   1.214   4.551
 7426TIP3   OH222222   1.278   2.059   5.983
 7426TIP3    H122223   1.273   2.132   6.045
 7426TIP3    H222224   1.334   1.995   6.026
 7427TIP3   OH222225   4.102   5.174   0.429
 7427TIP3    H122226   4.156   5.162   0.507
 7427TIP3    H222227   4.015   5.193   0.463
 7428TIP3   OH222228   3.250   4.548   4.211
 7428TIP3    H122229   3.306   4.484   4.167
 7428TIP3    H222230   3.213   4.601   4.141
 7429TIP3   OH222231   4.660   5.982   0.790
 7429TIP3    H122232   4.628   6.015   0.874
 7429TIP3    H222233   4.586   5.932   0.755
 7430TIP3   OH222234   4.113   1.653   2.731
 7430TIP3    H122235   4.037   1.704   2.702
 7430TIP3    H222236   4.120   1.582   2.667
 7431TIP3   OH222237   0.863   1.519   0.022
 7431TIP3    H122238   0.903   1.478   0.099
 7431TIP3    H222239   0.897   1.609   0.022
 7432TIP3   OH222240   6.919   7.453   6.753
 7432TIP3    H122241   6.951   7.435   6.841
 7432TIP3    H222242   6.995   7.438   6.696
 7433TIP3   OH222243   6.351   1.865   3.496
 7433TIP3    H122244   6.322   1.774   3.504
 7433TIP3    H222245   6.271   1.915   3.482
 7434TIP3   OH222246   0.666   6.834   5.193
 7434TIP3    H122247   0.668   6.738   5.190
 7434TIP3    H222248   0.627   6.854   5.278
 7435TIP3   OH222249   1.290   5.507   4.365
 7435TIP3    H122250   1.319   5.579   4.310
 7435TIP3    H222251   1.364   5.446   4.367
 7436TIP3   OH222252   2.927   0.255   5.807
 7436TIP3    H122253   2.890   0.250   5.895
 7436TIP3    H222254   2.887   0.182   5.760
 7437TIP3   OH222255   4.562   4.234   5.468
 7437TIP3    H122256   4.537   4.188   5.387
 7437TIP3    H222257   4.483   4.281   5.494
 7438TIP3   OH222258   3.393   2.102   5.010
 7438TIP3    H122259   3.358   2.180   4.966
 7438TIP3    H222260   3.386   2.032   4.945
 7439TIP3   OH222261   1.275   7.548   0.613
 7439TIP3    H122262   1.197   7.574   0.564
 7439TIP3    H222263   1.257   7.577   0.703
 7440TIP3   OH222264   3.736   5.653   5.855
 7440TIP3    H122265   3.725   5.710   5.779
 7440TIP3    H222266   3.647   5.635   5.885
 7441TIP3   OH222267   4.177   4.950   2.934
 7441TIP3    H122268   4.109   4.883   2.922
 7441TIP3    H222269   4.238   4.911   2.996
 7442TIP3   OH222270   1.235   3.207   2.730
 7442TIP3    H122271   1.272   3.123   2.703
 7442TIP3    H222272   1.165   3.223   2.666
 7443TIP3   OH222273   1.598   5.965   3.220
 7443TIP3    H122274   1.618   5.878   3.184
 7443TIP3    H222275   1.502   5.970   3.217
 7444TIP3   OH222276   3.630   4.027   2.421
 7444TIP3    H122277   3.594   4.108   2.386
 7444TIP3    H222278   3.713   4.053   2.462
 7445TIP3   OH222279   3.960   1.014   1.187
 7445TIP3    H122280   3.868   1.038   1.196
 7445TIP3    H222281   3.968   0.983   1.097
 7446TIP3   OH222282   0.514   1.846   3.629
 7446TIP3    H122283   0.524   1.887   3.715
 7446TIP3    H222284   0.598   1.861   3.585
 7447TIP3   OH222285   1.015   5.813   3.156
 7447TIP3    H122286   0.971   5.775   3.081
 7447TIP3    H222287   0.966   5.893   3.175
 7448TIP3   OH222288   7.207   5.905   3.433
 7448TIP3    H122289   7.173   5.826   3.474
 7448TIP3    H222290   7.301   5.888   3.423
 7449TIP3   OH222291   0.697   1.566   6.094
 7449TIP3    H122292   0.760   1.633   6.121
 7449TIP3    H222293   0.621   1.615   6.063
 7450TIP3   OH222294   5.898   0.645   3.717
 7450TIP3    H122295   5.988   0.617   3.703
 7450TIP3    H222296   5.905   0.728   3.764
 7451TIP3   OH222297   0.661   2.414   6.680
 7451TIP3    H122298   0.680   2.394   6.772
 7451TIP3    H222299   0.745   2.444   6.645
 7452TIP3   OH222300   5.727   4.837   0.848
 7452TIP3    H122301   5.751   4.815   0.937
 7452TIP3    H222302   5.774   4.774   0.794
 7453TIP3   OH222303   1.365   6.537   3.505
 7453TIP3    H122304   1.375   6.443   3.521
 7453TIP3    H222305   1.281   6.559   3.544
 7454TIP3   OH222306   6.130   2.971   2.391
 7454TIP3    H122307   6.085   2.903   2.340
 7454TIP3    H222308   6.221   2.941   2.396
 7455TIP3   OH222309   0.086   1.241   2.215
 7455TIP3    H122310   0.179   1.259   2.223
 7455TIP3    H222311   0.081   1.150   2.188
 7456TIP3   OH222312   7.861   0.353   4.629
 7456TIP3    H122313   7.881   0.267   4.666
 7456TIP3    H222314   7.945   0.399   4.630
 7457TIP3   OH222315   5.077   4.422   5.552
 7457TIP3    H122316   5.160   4.385   5.582
 7457TIP3    H222317   5.101   4.490   5.490
 7458TIP3   OH222318   3.337   1.726   3.077
 7458TIP3    H122319   3.275   1.683   3.136
 7458TIP3    H222320   3.311   1.818   3.078
 7459TIP3   OH222321   6.474   3.581   2.867
 7459TIP3    H122322   6.380   3.589   2.856
 7459TIP3    H222323   6.496   3.643   2.936
 7460TIP3   OH222324   5.594   1.822   2.230
 7460TIP3    H122325   5.581   1.794   2.320
 7460TIP3    H222326   5.571   1.745   2.178
 7461TIP3   OH222327   1.366   3.798   2.128
 7461TIP3    H122328   1.365   3.791   2.223
 7461TIP3    H222329   1.339   3.711   2.098
 7462TIP3   OH222330   1.466   3.665   6.019
 7462TIP3    H122331   1.419   3.677   5.936
 7462TIP3    H222332   1.428   3.586   6.057
 7463TIP3   OH222333   4.987   2.192   1.888
 7463TIP3    H122334   5.029   2.139   1.955
 7463TIP3    H222335   4.894   2.188   1.910
 7464TIP3   OH222336   5.985   1.986   5.647
 7464TIP3    H122337   5.939   1.941   5.576
 7464TIP3    H222338   6.020   1.915   5.701
 7465TIP3   OH222339   0.130   7.743   2.158
 7465TIP3    H122340   0.163   7.722   2.071
 7465TIP3    H222341   0.186   7.815   2.188
 7466TIP3   OH222342   2.679   5.949   3.966
 7466TIP3    H122343   2.754   5.953   4.025
 7466TIP3    H222344   2.603   5.951   4.024
 7467TIP3   OH222345   0.043   2.076   3.222
 7467TIP3    H122346   0.096   2.147   3.258
 7467TIP3    H222347  -0.025   2.121   3.171
 7468TIP3   OH222348   7.406   1.270   1.311
 7468TIP3    H122349   7.391   1.176   1.303
 7468TIP3    H222350   7.339   1.300   1.372
 7469TIP3   OH222351   6.176   1.893   0.090
 7469TIP3    H122352   6.115   1.819   0.085
 7469TIP3    H222353   6.242   1.874   0.023
 7470TIP3   OH222354   5.051   0.379   1.876
 7470TIP3    H122355   5.090   0.428   1.805
 7470TIP3    H222356   4.976   0.432   1.904
 7471TIP3   OH222357   1.077   5.583   6.135
 7471TIP3    H122358   1.079   5.615   6.044
 7471TIP3    H222359   1.152   5.524   6.141
 7472TIP3   OH222360   8.275   5.796   3.893
 7472TIP3    H122361   8.310   5.845   3.967
 7472TIP3    H222362   8.275   5.705   3.923
 7473TIP3   OH222363   2.919   6.103   6.061
 7473TIP3    H122364   2.987   6.167   6.044
 7473TIP3    H222365   2.868   6.099   5.980
 7474TIP3   OH222366   0.102   7.537   6.186
 7474TIP3    H122367   0.089   7.628   6.212
 7474TIP3    H222368   0.087   7.487   6.266
 7475TIP3   OH222369   4.834   4.456   3.168
 7475TIP3    H122370   4.850   4.461   3.073
 7475TIP3    H222371   4.755   4.508   3.182
 7476TIP3   OH222372   0.280   5.731   4.461
 7476TIP3    H122373   0.348   5.767   4.404
 7476TIP3    H222374   0.221   5.805   4.477
 7477TIP3   OH222375   5.805   1.849   3.943
 7477TIP3    H122376   5.790   1.943   3.954
 7477TIP3    H222377   5.822   1.817   4.031
 7478TIP3   OH222378   6.309   2.632   6.097
 7478TIP3    H122379   6.385   2.646   6.153
 7478TIP3    H222380   6.299   2.537   6.093
 7479TIP3   OH222381   7.375   1.961   6.743
 7479TIP3    H122382   7.414   2.011   6.672
 7479TIP3    H222383   7.364   1.873   6.706
 7480TIP3   OH222384   1.869   5.226   4.619
 7480TIP3    H122385   1.793   5.268   4.661
 7480TIP3    H222386   1.931   5.211   4.691
 7481TIP3   OH222387   1.746   6.805   0.354
 7481TIP3    H122388   1.821   6.798   0.413
 7481TIP3    H222389   1.771   6.754   0.277
 7482TIP3   OH222390   3.306   3.930   3.752
 7482TIP3    H122391   3.358   3.878   3.814
 7482TIP3    H222392   3.333   4.020   3.768
 7483TIP3   OH222393   4.780   3.658   2.680
 7483TIP3    H122394   4.846   3.591   2.697
 7483TIP3    H222395   4.707   3.634   2.737
 7484TIP3   OH222396   3.380   6.014   0.951
 7484TIP3    H122397   3.304   6.007   0.893
 7484TIP3    H222398   3.385   5.929   0.995
 7485TIP3   OH222399   6.062   3.178   5.945
 7485TIP3    H122400   6.125   3.231   5.897
 7485TIP3    H222401   6.076   3.089   5.913
 7486TIP3   OH222402   6.244   0.337   4.048
 7486TIP3    H122403   6.157   0.361   4.017
 7486TIP3    H222404   6.305   0.389   3.995
 7487TIP3   OH222405   7.885   6.674   1.732
 7487TIP3    H122406   7.950   6.741   1.752
 7487TIP3    H222407   7.931   6.613   1.673
 7488TIP3   OH222408   1.438   6.104   1.078
 7488TIP3    H122409   1.504   6.173   1.079
 7488TIP3    H222410   1.374   6.131   1.144
 7489TIP3   OH222411   0.360   6.091   3.484
 7489TIP3    H122412   0.274   6.055   3.508
 7489TIP3    H222413   0.420   6.018   3.498
 7490TIP3   OH222414   1.700   7.000   5.606
 7490TIP3    H122415   1.687   6.932   5.672
 7490TIP3    H222416   1.785   6.981   5.567
 7491TIP3   OH222417   0.774   4.420   6.273
 7491TIP3    H122418   0.759   4.502   6.226
 7491TIP3    H222419   0.866   4.424   6.300
 7492TIP3   OH222420   4.795   5.516   5.758
 7492TIP3    H122421   4.880   5.524   5.716
 7492TIP3    H222422   4.732   5.543   5.691
 7493TIP3   OH222423   8.190   3.063   2.988
 7493TIP3    H122424   8.244   2.985   3.002
 7493TIP3    H222425   8.231   3.131   3.042
 7494TIP3   OH222426   7.010   0.080   5.303
 7494TIP3    H122427   6.952   0.132   5.359
 7494TIP3    H222428   6.957   0.004   5.279
 7495TIP3   OH222429   7.721   3.995   2.836
 7495TIP3    H122430   7.649   4.048   2.869
 7495TIP3    H222431   7.783   3.989   2.908
 7496TIP3   OH222432   6.355   2.725   4.304
 7496TIP3    H122433   6.270   2.765   4.322
 7496TIP3    H222434   6.352   2.703   4.211
 7497TIP3   OH222435   6.814   5.507   2.164
 7497TIP3    H122436   6.751   5.538   2.230
 7497TIP3    H222437   6.826   5.583   2.106
 7498TIP3   OH222438   8.156   1.095   6.058
 7498TIP3    H122439   8.138   1.180   6.099
 7498TIP3    H222440   8.251   1.086   6.063
 7499TIP3   OH222441   5.970   0.569   6.325
 7499TIP3    H122442   6.041   0.562   6.389
 7499TIP3    H222443   5.959   0.480   6.291
 7500TIP3   OH222444   8.251   7.007   4.808
 7500TIP3    H122445   8.165   7.018   4.847
 7500TIP3    H222446   8.302   6.961   4.875
 7501TIP3   OH222447   1.498   5.169   1.467
 7501TIP3    H122448   1.450   5.089   1.492
 7501TIP3    H222449   1.582   5.160   1.512
 7502TIP3   OH222450   7.258   6.602   6.645
 7502TIP3    H122451   7.320   6.645   6.704
 7502TIP3    H222452   7.299   6.518   6.624
 7503TIP3   OH222453   1.958   6.506   2.486
 7503TIP3    H122454   2.041   6.462   2.505
 7503TIP3    H222455   1.966   6.591   2.529
 7504TIP3   OH222456   3.628   4.570   1.337
 7504TIP3    H122457   3.539   4.594   1.314
 7504TIP3    H222458   3.624   4.551   1.431
 7505TIP3   OH222459   0.074   1.618   0.731
 7505TIP3    H122460   0.083   1.524   0.714
 7505TIP3    H222461   0.154   1.656   0.694
 7506TIP3   OH222462   2.085   4.905   5.198
 7506TIP3    H122463   2.160   4.960   5.220
 7506TIP3    H222464   2.103   4.821   5.241
 7507TIP3   OH222465   1.849   0.320   6.282
 7507TIP3    H122466   1.880   0.390   6.339
 7507TIP3    H222467   1.774   0.283   6.328
 7508TIP3   OH222468   0.461   3.720   5.439
 7508TIP3    H122469   0.547   3.753   5.411
 7508TIP3    H222470   0.429   3.786   5.501
 7509TIP3   OH222471   5.213   2.406   1.061
 7509TIP3    H122472   5.224   2.499   1.042
 7509TIP3    H222473   5.211   2.401   1.156
 7510TIP3   OH222474   6.677   0.683   4.810
 7510TIP3    H122475   6.660   0.758   4.868
 7510TIP3    H222476   6.636   0.609   4.855
 7511TIP3   OH222477   3.301   0.098   2.841
 7511TIP3    H122478   3.375   0.148   2.877
 7511TIP3    H222479   3.235   0.100   2.910
 7512TIP3   OH222480   8.158   2.107   3.974
 7512TIP3    H122481   8.152   2.187   3.923
 7512TIP3    H222482   8.149   2.136   4.065
 7513TIP3   OH222483   0.997   5.097   5.854
 7513TIP3    H122484   1.036   5.011   5.869
 7513TIP3    H222485   1.012   5.114   5.761
 7514TIP3   OH222486   2.893   1.393   1.989
 7514TIP3    H122487   2.900   1.310   2.037
 7514TIP3    H222488   2.825   1.442   2.034
 7515TIP3   OH222489   4.899   7.719   5.628
 7515TIP3    H122490   4.872   7.755   5.543
 7515TIP3    H222491   4.978   7.669   5.607
 7516TIP3   OH222492   5.212   7.541   4.080
 7516TIP3    H122493   5.282   7.481   4.052
 7516TIP3    H222494   5.159   7.553   4.001
 7517TIP3   OH222495   4.711   4.163   5.704
 7517TIP3    H122496   4.633   4.204   5.666
 7517TIP3    H222497   4.726   4.211   5.785
 7518TIP3   OH222498   4.133   1.228   1.203
 7518TIP3    H122499   4.086   1.144   1.203
 7518TIP3    H222500   4.218   1.207   1.242
 7519TIP3   OH222501   3.967   3.553   4.397
 7519TIP3    H122502   3.900   3.502   4.351
 7519TIP3    H222503   4.047   3.538   4.347
 7520TIP3   OH222504   0.426   5.049   6.379
 7520TIP3    H122505   0.467   5.104   6.445
 7520TIP3    H222506   0.353   5.007   6.425
 7521TIP3   OH222507   0.413   0.227   1.581
 7521TIP3    H122508   0.356   0.292   1.540
 7521TIP3    H222509   0.436   0.265   1.665
 7522TIP3   OH222510   4.264   4.035   1.590
 7522TIP3    H122511   4.320   3.958   1.605
 7522TIP3    H222512   4.176   3.999   1.584
 7523TIP3   OH222513   3.878   1.709   0.781
 7523TIP3    H122514   3.791   1.742   0.758
 7523TIP3    H222515   3.864   1.660   0.862
 7524TIP3   OH222516   0.361   3.597   2.706
 7524TIP3    H122517   0.299   3.525   2.695
 7524TIP3    H222518   0.347   3.626   2.796
 7525TIP3   OH222519   4.602   1.595   1.754
 7525TIP3    H122520   4.588   1.591   1.659
 7525TIP3    H222521   4.516   1.616   1.790
 7526TIP3   OH222522   7.378   6.913   2.523
 7526TIP3    H122523   7.436   6.915   2.600
 7526TIP3    H222524   7.408   6.986   2.469
 7527TIP3   OH222525   0.547   1.658   2.857
 7527TIP3    H122526   0.527   1.654   2.763
 7527TIP3    H222527   0.636   1.691   2.861
 7528TIP3   OH222528   5.980   4.689   0.256
 7528TIP3    H122529   6.003   4.779   0.279
 7528TIP3    H222530   5.945   4.696   0.167
 7529TIP3   OH222531   3.004   2.451   5.308
 7529TIP3    H122532   2.977   2.405   5.387
 7529TIP3    H222533   3.033   2.381   5.249
 7530TIP3   OH222534   0.133   5.976   2.092
 7530TIP3    H122535   0.099   6.012   2.174
 7530TIP3    H222536   0.111   6.042   2.026
 7531TIP3   OH222537   1.536   5.010   0.630
 7531TIP3    H122538   1.587   5.010   0.549
 7531TIP3    H222539   1.445   5.020   0.602
 7532TIP3   OH222540   4.317   2.513   5.964
 7532TIP3    H122541   4.255   2.532   6.034
 7532TIP3    H222542   4.274   2.546   5.885
 7533TIP3   OH222543   8.116   1.639   2.354
 7533TIP3    H122544   8.080   1.679   2.275
 7533TIP3    H222545   8.122   1.546   2.333
 7534TIP3   OH222546   2.143   1.943   0.906
 7534TIP3    H122547   2.123   1.932   0.999
 7534TIP3    H222548   2.087   1.879   0.862
 7535TIP3   OH222549   3.079   0.638   5.390
 7535TIP3    H122550   3.104   0.585   5.465
 7535TIP3    H222551   3.114   0.725   5.409
 7536TIP3   OH222552   6.311   0.048   0.866
 7536TIP3    H122553   6.270   0.063   0.781
 7536TIP3    H222554   6.276   0.116   0.922
 7537TIP3   OH222555   0.100   3.690   5.131
 7537TIP3    H122556   0.137   3.708   5.218
 7537TIP3    H222557   0.007   3.707   5.141
 7538TIP3   OH222558   5.829   3.688   5.971
 7538TIP3    H122559   5.877   3.613   6.005
 7538TIP3    H222560   5.741   3.679   6.006
 7539TIP3   OH222561   0.302   0.974   1.338
 7539TIP3    H122562   0.244   0.936   1.272
 7539TIP3    H222563   0.265   1.061   1.355
 7540TIP3   OH222564   8.141   0.997   2.552
 7540TIP3    H122565   8.162   1.019   2.462
 7540TIP3    H222566   8.113   1.080   2.591
 7541TIP3   OH222567   1.551   2.213   1.246
 7541TIP3    H122568   1.457   2.198   1.253
 7541TIP3    H222569   1.582   2.211   1.336
 7542TIP3   OH222570   7.484   1.043   0.197
 7542TIP3    H122571   7.450   1.031   0.285
 7542TIP3    H222572   7.573   1.075   0.209
 7543TIP3   OH222573   2.664   1.424   6.470
 7543TIP3    H122574   2.726   1.481   6.425
 7543TIP3    H222575   2.582   1.436   6.423
 7544TIP3   OH222576   2.495   3.732   2.484
 7544TIP3    H122577   2.564   3.704   2.424
 7544TIP3    H222578   2.506   3.827   2.489
 7545TIP3   OH222579   6.475   4.843   4.788
 7545TIP3    H122580   6.382   4.835   4.807
 7545TIP3    H222581   6.516   4.775   4.842
 7546TIP3   OH222582   4.273   2.677   5.729
 7546TIP3    H122583   4.243   2.764   5.702
 7546TIP3    H222584   4.364   2.690   5.754
 7547TIP3   OH222585   3.288   0.493   0.933
 7547TIP3    H122586   3.300   0.525   0.843
 7547TIP3    H222587   3.194   0.483   0.942
 7548TIP3   OH222588   3.314   3.215   2.789
 7548TIP3    H122589   3.279   3.157   2.722
 7548TIP3    H222590   3.409   3.202   2.786
 7549TIP3   OH222591   5.871   2.213   6.307
 7549TIP3    H122592   5.811   2.188   6.237
 7549TIP3    H222593   5.904   2.298   6.280
 7550TIP3   OH222594   0.346   2.138   6.430
 7550TIP3    H122595   0.386   2.051   6.423
 7550TIP3    H222596   0.375   2.171   6.515
 7551TIP3   OH222597   2.631   3.692   5.720
 7551TIP3    H122598   2.586   3.657   5.797
 7551TIP3    H222599   2.712   3.729   5.755
 7552TIP3   OH222600   0.086   2.414   3.152
 7552TIP3    H122601   0.140   2.373   3.221
 7552TIP3    H222602   0.145   2.423   3.078
 7553TIP3   OH222603   2.402   5.828   1.815
 7553TIP3    H122604   2.453   5.889   1.761
 7553TIP3    H222605   2.358   5.884   1.879
 7554TIP3   OH222606   5.156   1.263   3.207
 7554TIP3    H122607   5.142   1.246   3.300
 7554TIP3    H222608   5.201   1.348   3.204
 7555TIP3   OH222609   2.385   6.959   5.807
 7555TIP3    H122610   2.417   6.994   5.890
 7555TIP3    H222611   2.292   6.939   5.824
 7556TIP3   OH222612   4.270   7.616   5.222
 7556TIP3    H122613   4.311   7.688   5.173
 7556TIP3    H222614   4.294   7.538   5.173
 7557TIP3   OH222615   0.025   5.003   2.602
 7557TIP3    H122616   0.063   4.922   2.568
 7557TIP3    H222617  -0.063   4.979   2.629
 7558TIP3   OH222618   1.704   5.620   4.428
 7558TIP3    H122619   1.640   5.600   4.496
 7558TIP3    H222620   1.727   5.712   4.443
 7559TIP3   OH222621   0.858   1.269   2.017
 7559TIP3    H122622   0.841   1.328   2.090
 7559TIP3    H222623   0.888   1.326   1.946
 7560TIP3   OH222624   3.406   2.782   6.112
 7560TIP3    H122625   3.374   2.699   6.146
 7560TIP3    H222626   3.469   2.757   6.044
 7561TIP3   OH222627   4.867   5.147   4.377
 7561TIP3    H122628   4.925   5.090   4.328
 7561TIP3    H222629   4.780   5.131   4.340
 7562TIP3   OH222630   1.767   4.515   2.185
 7562TIP3    H122631   1.737   4.432   2.222
 7562TIP3    H222632   1.750   4.507   2.091
 7563TIP3   OH222633   7.284   4.027   0.224
 7563TIP3    H122634   7.243   4.040   0.310
 7563TIP3    H222635   7.340   3.950   0.235
 7564TIP3   OH222636   7.602   6.028   2.074
 7564TIP3    H122637   7.577   6.114   2.040
 7564TIP3    H222638   7.694   6.037   2.098
 7565TIP3   OH222639   5.095   6.376   5.723
 7565TIP3    H122640   5.084   6.462   5.761
 7565TIP3    H222641   5.188   6.370   5.702
 7566TIP3   OH222642   1.873   1.730   2.980
 7566TIP3    H122643   1.967   1.746   2.989
 7566TIP3    H222644   1.865   1.677   2.901
 7567TIP3   OH222645   0.400   5.243   4.601
 7567TIP3    H122646   0.487   5.282   4.608
 7567TIP3    H222647   0.414   5.162   4.552
 7568TIP3   OH222648   5.402   2.253   2.732
 7568TIP3    H122649   5.442   2.308   2.665
 7568TIP3    H222650   5.395   2.310   2.809
 7569TIP3   OH222651   3.945   1.406   4.031
 7569TIP3    H122652   4.016   1.401   3.967
 7569TIP3    H222653   3.933   1.500   4.046
 7570TIP3   OH222654   2.000   4.540   5.416
 7570TIP3    H122655   2.053   4.548   5.336
 7570TIP3    H222656   1.911   4.529   5.385
 7571TIP3   OH222657   7.783   4.873   3.655
 7571TIP3    H122658   7.804   4.966   3.641
 7571TIP3    H222659   7.863   4.836   3.690
 7572TIP3   OH222660   0.587   1.254   2.481
 7572TIP3    H122661   0.562   1.333   2.433
 7572TIP3    H222662   0.600   1.284   2.571
 7573TIP3   OH222663   0.841   4.078   0.160
 7573TIP3    H122664   0.817   4.033   0.241
 7573TIP3    H222665   0.802   4.165   0.169
 7574TIP3   OH222666   4.703   4.178   6.125
 7574TIP3    H122667   4.670   4.127   6.199
 7574TIP3    H222668   4.628   4.182   6.064
 7575TIP3   OH222669   2.695   7.821   4.917
 7575TIP3    H122670   2.623   7.759   4.917
 7575TIP3    H222671   2.656   7.903   4.886
 7576TIP3   OH222672   0.445   3.507   1.101
 7576TIP3    H122673   0.371   3.450   1.117
 7576TIP3    H222674   0.441   3.572   1.172
 7577TIP3   OH222675   7.911   0.671   2.193
 7577TIP3    H122676   7.963   0.725   2.133
 7577TIP3    H222677   7.967   0.659   2.270
 7578TIP3   OH222678   3.240   2.585   1.562
 7578TIP3    H122679   3.281   2.612   1.480
 7578TIP3    H222680   3.312   2.554   1.617
 7579TIP3   OH222681   1.948   7.040   1.783
 7579TIP3    H122682   1.878   7.104   1.769
 7579TIP3    H222683   2.016   7.065   1.720
 7580TIP3   OH222684   0.205   7.303   0.523
 7580TIP3    H122685   0.280   7.362   0.535
 7580TIP3    H222686   0.165   7.332   0.441
 7581TIP3   OH222687   6.790   2.226   0.349
 7581TIP3    H122688   6.702   2.263   0.344
 7581TIP3    H222689   6.823   2.253   0.435
 7582TIP3   OH222690   7.596   6.641   5.427
 7582TIP3    H122691   7.516   6.667   5.382
 7582TIP3    H222692   7.565   6.602   5.509
 7583TIP3   OH222693   2.611   7.739   4.606
 7583TIP3    H122694   2.524   7.778   4.604
 7583TIP3    H222695   2.652   7.775   4.684
 7584TIP3   OH222696   6.911   4.303   3.851
 7584TIP3    H122697   6.942   4.339   3.934
 7584TIP3    H222698   6.990   4.286   3.800
 7585TIP3   OH222699   4.231   1.203   3.740
 7585TIP3    H122700   4.244   1.271   3.806
 7585TIP3    H222701   4.208   1.251   3.660
 7586TIP3   OH222702   1.198   4.604   5.388
 7586TIP3    H122703   1.257   4.561   5.449
 7586TIP3    H222704   1.255   4.658   5.333
 7587TIP3   OH222705   8.085   2.976   6.465
 7587TIP3    H122706   8.126   2.901   6.507
 7587TIP3    H222707   8.159   3.028   6.432
 7588TIP3   OH222708   0.867   0.628   3.369
 7588TIP3    H122709   0.912   0.648   3.286
 7588TIP3    H222710   0.847   0.714   3.407
 7589TIP3   OH222711   2.122   6.095   6.720
 7589TIP3    H122712   2.175   6.141   6.785
 7589TIP3    H222713   2.056   6.048   6.770
 7590TIP3   OH222714   5.193   2.552   2.747
 7590TIP3    H122715   5.193   2.554   2.842
 7590TIP3    H222716   5.108   2.589   2.722
 7591TIP3   OH222717   8.226   5.197   2.093
 7591TIP3    H122718   8.218   5.103   2.106
 7591TIP3    H222719   8.309   5.220   2.135
 7592TIP3   OH222720   1.533   0.165   6.588
 7592TIP3    H122721   1.495   0.151   6.501
 7592TIP3    H222722   1.554   0.259   6.590
 7593TIP3   OH222723   1.350   7.208   2.458
 7593TIP3    H122724   1.352   7.172   2.547
 7593TIP3    H222725   1.291   7.151   2.410
 7594TIP3   OH222726   6.283   1.934   4.122
 7594TIP3    H122727   6.319   2.019   4.148
 7594TIP3    H222728   6.196   1.954   4.088
 7595TIP3   OH222729   4.029   0.685   3.141
 7595TIP3    H122730   4.069   0.709   3.058
 7595TIP3    H222731   4.006   0.768   3.182
 7596TIP3   OH222732   5.605   1.085   4.130
 7596TIP3    H122733   5.613   1.140   4.053
 7596TIP3    H222734   5.514   1.096   4.158
 7597TIP3   OH222735   4.134   7.771   2.633
 7597TIP3    H122736   4.212   7.810   2.594
 7597TIP3    H222737   4.164   7.733   2.716
 7598TIP3   OH222738   4.807   2.783   2.337
 7598TIP3    H122739   4.767   2.707   2.379
 7598TIP3    H222740   4.789   2.771   2.244
 7599TIP3   OH222741   6.140   7.030   5.631
 7599TIP3    H122742   6.216   6.974   5.612
 7599TIP3    H222743   6.064   6.972   5.619
 7600TIP3   OH222744   7.469   2.187   2.612
 7600TIP3    H122745   7.496   2.146   2.694
 7600TIP3    H222746   7.471   2.116   2.548
 7601TIP3   OH222747   3.082   4.727   2.466
 7601TIP3    H122748   3.028   4.706   2.542
 7601TIP3    H222749   3.144   4.793   2.497
 7602TIP3   OH222750   5.496   5.225   4.708
 7602TIP3    H122751   5.591   5.233   4.705
 7602TIP3    H222752   5.477   5.202   4.799
 7603TIP3   OH222753   8.057   1.181   3.977
 7603TIP3    H122754   8.113   1.153   3.904
 7603TIP3    H222755   7.992   1.111   3.985
 7604TIP3   OH222756   7.262   7.353   2.196
 7604TIP3    H122757   7.227   7.410   2.265
 7604TIP3    H222758   7.339   7.400   2.163
 7605TIP3   OH222759   4.048   5.671   4.304
 7605TIP3    H122760   4.118   5.632   4.251
 7605TIP3    H222761   4.037   5.759   4.269
 7606TIP3   OH222762   5.980   1.428   2.394
 7606TIP3    H122763   5.910   1.374   2.356
 7606TIP3    H222764   5.951   1.518   2.382
 7607TIP3   OH222765   7.456   1.889   1.519
 7607TIP3    H122766   7.502   1.810   1.491
 7607TIP3    H222767   7.473   1.895   1.613
 7608TIP3   OH222768   1.382   3.968   5.963
 7608TIP3    H122769   1.472   3.997   5.953
 7608TIP3    H222770   1.334   4.046   5.991
 7609TIP3   OH222771   0.767   5.312   6.276
 7609TIP3    H122772   0.673   5.329   6.282
 7609TIP3    H222773   0.807   5.399   6.281
 7610TIP3   OH222774   6.046   5.096   3.649
 7610TIP3    H122775   6.014   5.142   3.727
 7610TIP3    H222776   5.978   5.032   3.629
 7611TIP3   OH222777   5.266   3.889   5.378
 7611TIP3    H122778   5.176   3.859   5.370
 7611TIP3    H222779   5.312   3.816   5.420
 7612TIP3   OH222780   0.331   6.527   4.478
 7612TIP3    H122781   0.246   6.485   4.491
 7612TIP3    H222782   0.313   6.600   4.419
 7613TIP3   OH222783   0.948   1.141   2.646
 7613TIP3    H122784   0.919   1.213   2.591
 7613TIP3    H222785   1.040   1.128   2.622
 7614TIP3   OH222786   4.011   0.063   4.566
 7614TIP3    H122787   4.085   0.027   4.616
 7614TIP3    H222788   4.013   0.016   4.483
 7615TIP3   OH222789   6.432   1.568   4.552
 7615TIP3    H122790   6.514   1.568   4.502
 7615TIP3    H222791   6.424   1.657   4.586
 7616TIP3   OH222792   0.581   6.318   0.926
 7616TIP3    H122793   0.597   6.410   0.946
 7616TIP3    H222794   0.498   6.318   0.878
 7617TIP3   OH222795   4.478   3.307   4.902
 7617TIP3    H122796   4.398   3.283   4.950
 7617TIP3    H222797   4.547   3.261   4.949
 7618TIP3   OH222798   0.629   4.138   3.004
 7618TIP3    H122799   0.665   4.215   3.046
 7618TIP3    H222800   0.692   4.117   2.935
 7619TIP3   OH222801   4.336   6.473   6.413
 7619TIP3    H122802   4.304   6.463   6.323
 7619TIP3    H222803   4.257   6.473   6.466
 7620TIP3   OH222804   2.591   2.487   1.703
 7620TIP3    H122805   2.527   2.557   1.690
 7620TIP3    H222806   2.581   2.430   1.627
 7621TIP3   OH222807   6.554   0.848   2.693
 7621TIP3    H122808   6.564   0.760   2.730
 7621TIP3    H222809   6.517   0.900   2.764
 7622TIP3   OH222810   1.139   5.268   3.406
 7622TIP3    H122811   1.104   5.322   3.476
 7622TIP3    H222812   1.226   5.303   3.388
 7623TIP3   OH222813   5.035   5.575   5.345
 7623TIP3    H122814   5.128   5.563   5.328
 7623TIP3    H222815   5.008   5.646   5.287
 7624TIP3   OH222816   8.097   4.140   5.231
 7624TIP3    H122817   8.010   4.106   5.211
 7624TIP3    H222818   8.102   4.139   5.327
 7625TIP3   OH222819   4.970   4.458   1.949
 7625TIP3    H122820   4.969   4.532   1.889
 7625TIP3    H222821   5.044   4.405   1.920
 7626TIP3   OH222822   0.066   1.525   4.327
 7626TIP3    H122823   0.152   1.490   4.349
 7626TIP3    H222824   0.072   1.548   4.235
 7627TIP3   OH222825   6.675   6.003   2.782
 7627TIP3    H122826   6.622   5.952   2.844
 7627TIP3    H222827   6.698   6.082   2.831
 7628TIP3   OH222828   2.292   4.510   2.434
 7628TIP3    H122829   2.209   4.481   2.397
 7628TIP3    H222830   2.294   4.473   2.523
 7629TIP3   OH222831   7.760   6.234   3.973
 7629TIP3    H122832   7.726   6.192   3.894
 7629TIP3    H222833   7.683   6.253   4.026
 7630TIP3   OH222834   5.305   7.563   4.919
 7630TIP3    H122835   5.370   7.629   4.895
 7630TIP3    H222836   5.324   7.489   4.860
 7631TIP3   OH222837   1.047   5.976   6.561
 7631TIP3    H122838   1.098   5.911   6.512
 7631TIP3    H222839   0.988   5.924   6.615
 7632TIP3   OH222840   0.222   0.701   1.572
 7632TIP3    H122841   0.186   0.651   1.645
 7632TIP3    H222842   0.154   0.697   1.504
 7633TIP3   OH222843   4.190   7.367   1.450
 7633TIP3    H122844   4.141   7.378   1.369
 7633TIP3    H222845   4.221   7.455   1.471
 7634TIP3   OH222846   6.540   2.243   0.664
 7634TIP3    H122847   6.544   2.178   0.594
 7634TIP3    H222848   6.530   2.192   0.744
 7635TIP3   OH222849   2.968   1.672   1.941
 7635TIP3    H122850   2.951   1.578   1.933
 7635TIP3    H222851   2.911   1.713   1.876
 7636TIP3   OH222852   6.142   6.129   6.432
 7636TIP3    H122853   6.056   6.161   6.458
 7636TIP3    H222854   6.188   6.206   6.397
 7637TIP3   OH222855   4.736   7.249   3.814
 7637TIP3    H122856   4.662   7.281   3.866
 7637TIP3    H222857   4.768   7.326   3.767
 7638TIP3   OH222858   5.373   7.108   5.109
 7638TIP3    H122859   5.392   7.199   5.131
 7638TIP3    H222860   5.294   7.112   5.055
 7639TIP3   OH222861   5.277   2.451   3.708
 7639TIP3    H122862   5.208   2.513   3.686
 7639TIP3    H222863   5.232   2.369   3.724
 7640TIP3   OH222864   4.662   2.133   5.597
 7640TIP3    H122865   4.647   2.211   5.545
 7640TIP3    H222866   4.667   2.062   5.532
 7641TIP3   OH222867   3.757   7.094   3.737
 7641TIP3    H122868   3.777   7.014   3.689
 7641TIP3    H222869   3.836   7.114   3.786
 7642TIP3   OH222870   7.203   4.146   1.412
 7642TIP3    H122871   7.157   4.064   1.429
 7642TIP3    H222872   7.279   4.144   1.471
 7643TIP3   OH222873   1.860   3.003   2.877
 7643TIP3    H122874   1.787   3.052   2.915
 7643TIP3    H222875   1.856   3.022   2.784
 7644TIP3   OH222876   7.199   2.989   5.772
 7644TIP3    H122877   7.138   2.928   5.731
 7644TIP3    H222878   7.158   3.011   5.856
 7645TIP3   OH222879   0.400   5.669   3.774
 7645TIP3    H122880   0.368   5.579   3.774
 7645TIP3    H222881   0.329   5.721   3.736
 7646TIP3   OH222882   2.706   1.455   1.524
 7646TIP3    H122883   2.702   1.389   1.593
 7646TIP3    H222884   2.768   1.521   1.557
 7647TIP3   OH222885   7.583   6.167   0.599
 7647TIP3    H122886   7.644   6.157   0.672
 7647TIP3    H222887   7.578   6.081   0.559
 7648TIP3   OH222888   1.860   6.770   1.868
 7648TIP3    H122889   1.892   6.828   1.799
 7648TIP3    H222890   1.919   6.695   1.866
 7649TIP3   OH222891   2.298   5.806   3.082
 7649TIP3    H122892   2.284   5.888   3.129
 7649TIP3    H222893   2.255   5.740   3.136
 7650TIP3   OH222894   5.103   0.293   0.200
 7650TIP3    H122895   5.194   0.273   0.222
 7650TIP3    H222896   5.056   0.212   0.221
 7651TIP3   OH222897   5.861   1.528   4.527
 7651TIP3    H122898   5.784   1.552   4.577
 7651TIP3    H222899   5.827   1.476   4.454
 7652TIP3   OH222900   5.231   5.119   1.819
 7652TIP3    H122901   5.264   5.093   1.733
 7652TIP3    H222902   5.259   5.209   1.830
 7653TIP3   OH222903   7.247   6.917   1.739
 7653TIP3    H122904   7.316   6.912   1.673
 7653TIP3    H222905   7.195   6.993   1.714
 7654TIP3   OH222906   2.319   2.562   0.806
 7654TIP3    H122907   2.379   2.490   0.821
 7654TIP3    H222908   2.262   2.533   0.735
 7655TIP3   OH222909   1.127   6.598   4.038
 7655TIP3    H122910   1.042   6.562   4.013
 7655TIP3    H222911   1.172   6.525   4.081
 7656TIP3   OH222912   1.967   6.764   5.804
 7656TIP3    H122913   1.913   6.712   5.745
 7656TIP3    H222914   1.977   6.710   5.882
 7657TIP3   OH222915   3.577   5.354   5.967
 7657TIP3    H122916   3.650   5.415   5.981
 7657TIP3    H222917   3.557   5.320   6.054
 7658TIP3   OH222918   1.715   5.985   5.469
 7658TIP3    H122919   1.646   5.934   5.509
 7658TIP3    H222920   1.681   6.007   5.382
 7659TIP3   OH222921   4.570   2.332   2.892
 7659TIP3    H122922   4.609   2.293   2.814
 7659TIP3    H222923   4.476   2.315   2.884
 7660TIP3   OH222924   6.596   5.745   6.411
 7660TIP3    H122925   6.644   5.819   6.449
 7660TIP3    H222926   6.653   5.713   6.341
 7661TIP3   OH222927   7.023   1.314   6.225
 7661TIP3    H122928   7.099   1.281   6.273
 7661TIP3    H222929   6.975   1.366   6.290
 7662TIP3   OH222930   6.584   1.917   3.966
 7662TIP3    H122931   6.678   1.932   3.972
 7662TIP3    H222932   6.546   2.005   3.965
 7663TIP3   OH222933   6.919   7.462   4.522
 7663TIP3    H122934   6.881   7.546   4.545
 7663TIP3    H222935   6.859   7.397   4.558
 7664TIP3   OH222936   0.425   2.810   4.568
 7664TIP3    H122937   0.365   2.875   4.531
 7664TIP3    H222938   0.504   2.816   4.514
 7665TIP3   OH222939   6.385   0.817   0.890
 7665TIP3    H122940   6.433   0.764   0.826
 7665TIP3    H222941   6.310   0.851   0.841
 7666TIP3   OH222942   7.244   4.772   1.577
 7666TIP3    H122943   7.312   4.789   1.512
 7666TIP3    H222944   7.163   4.802   1.535
 7667TIP3   OH222945   7.970   2.800   3.341
 7667TIP3    H122946   7.946   2.874   3.286
 7667TIP3    H222947   7.979   2.727   3.281
 7668TIP3   OH222948   7.786   7.107   0.880
 7668TIP3    H122949   7.858   7.127   0.820
 7668TIP3    H222950   7.823   7.044   0.942
 7669TIP3   OH222951   0.625   6.619   5.371
 7669TIP3    H122952   0.574   6.539   5.358
 7669TIP3    H222953   0.623   6.633   5.465
 7670TIP3   OH222954   4.536   0.398   2.377
 7670TIP3    H122955   4.533   0.327   2.440
 7670TIP3    H222956   4.627   0.400   2.347
 7671TIP3   OH222957   0.774   5.491   6.746
 7671TIP3    H122958   0.822   5.571   6.765
 7671TIP3    H222959   0.810   5.460   6.663
 7672TIP3   OH222960   1.823   0.235   0.380
 7672TIP3    H122961   1.756   0.168   0.364
 7672TIP3    H222962   1.788   0.313   0.337
 7673TIP3   OH222963   7.137   7.304   5.491
 7673TIP3    H122964   7.165   7.358   5.565
 7673TIP3    H222965   7.146   7.214   5.522
 7674TIP3   OH222966   6.377   4.889   5.582
 7674TIP3    H122967   6.377   4.881   5.678
 7674TIP3    H222968   6.469   4.896   5.559
 7675TIP3   OH222969   3.907   4.927   1.149
 7675TIP3    H122970   3.853   4.909   1.226
 7675TIP3    H222971   3.894   5.020   1.131
 7676TIP3   OH222972   1.813   5.206   0.515
 7676TIP3    H122973   1.731   5.251   0.498
 7676TIP3    H222974   1.813   5.191   0.609
 7677TIP3   OH222975   7.911   6.948   6.392
 7677TIP3    H122976   7.976   6.883   6.365
 7677TIP3    H222977   7.864   6.970   6.312
 7678TIP3   OH222978   8.233   6.544   5.604
 7678TIP3    H122979   8.187   6.475   5.651
 7678TIP3    H222980   8.322   6.543   5.640
 7679TIP3   OH222981   2.985   4.424   0.351
 7679TIP3    H122982   3.039   4.476   0.409
 7679TIP3    H222983   2.895   4.453   0.369
 7680TIP3   OH222984   4.260   0.141   3.585
 7680TIP3    H122985   4.281   0.207   3.651
 7680TIP3    H222986   4.331   0.077   3.592
 7681TIP3   OH222987   7.812   2.636   4.940
 7681TIP3    H122988   7.789   2.713   4.888
 7681TIP3    H222989   7.870   2.671   5.009
 7682TIP3   OH222990   3.155   1.441   1.946
 7682TIP3    H122991   3.219   1.379   1.983
 7682TIP3    H222992   3.111   1.479   2.023
 7683TIP3   OH222993   3.873  -0.013   1.051
 7683TIP3    H122994   3.803  -0.039   1.111
 7683TIP3    H222995   3.835   0.056   0.997
 7684TIP3   OH222996   3.229   0.707   1.123
 7684TIP3    H122997   3.219   0.630   1.180
 7684TIP3    H222998   3.252   0.670   1.038
 7685TIP3   OH222999   2.990   7.108   0.065
 7685TIP3    H123000   2.916   7.170   0.060
 7685TIP3    H223001   3.057   7.146   0.008
 7686TIP3   OH223002   1.526   6.358   3.929
 7686TIP3    H123003   1.592   6.417   3.964
 7686TIP3    H223004   1.445   6.409   3.932
 7687TIP3   OH223005   3.823   5.461   6.089
 7687TIP3    H123006   3.859   5.487   6.173
 7687TIP3    H223007   3.874   5.385   6.063
 7688TIP3   OH223008   6.708   6.929   5.410
 7688TIP3    H123009   6.650   6.860   5.379
 7688TIP3    H223010   6.657   6.977   5.475
 7689TIP3   OH223011   8.140   6.098   4.640
 7689TIP3    H123012   8.162   6.191   4.651
 7689TIP3    H223013   8.182   6.073   4.557
 7690TIP3   OH223014   0.357   5.099   3.440
 7690TIP3    H123015   0.308   5.139   3.368
 7690TIP3    H223016   0.320   5.011   3.449
 7691TIP3   OH223017   8.125   5.094   2.371
 7691TIP3    H123018   8.179   5.039   2.314
 7691TIP3    H223019   8.154   5.073   2.459
 7692TIP3   OH223020   7.784   7.697   2.460
 7692TIP3    H123021   7.704   7.645   2.472
 7692TIP3    H223022   7.851   7.634   2.434
 7693TIP3   OH223023   0.592   3.591   0.586
 7693TIP3    H123024   0.561   3.548   0.665
 7693TIP3    H223025   0.611   3.519   0.526
 7694TIP3   OH223026   1.532   5.346   3.789
 7694TIP3    H123027   1.557   5.295   3.712
 7694TIP3    H223028   1.524   5.436   3.757
 7695TIP3   OH223029   4.014   5.577   6.340
 7695TIP3    H123030   3.946   5.636   6.309
 7695TIP3    H223031   3.998   5.570   6.434
 7696TIP3   OH223032   5.950   1.084   6.606
 7696TIP3    H123033   6.024   1.034   6.641
 7696TIP3    H223034   5.983   1.119   6.523
 7697TIP3   OH223035   4.701   4.726   0.360
 7697TIP3    H123036   4.653   4.725   0.442
 7697TIP3    H223037   4.660   4.795   0.308
 7698TIP3   OH223038   5.020   4.968   2.720
 7698TIP3    H123039   5.024   4.872   2.721
 7698TIP3    H223040   5.078   4.993   2.648
 7699TIP3   OH223041   7.704   4.270   1.745
 7699TIP3    H123042   7.766   4.342   1.756
 7699TIP3    H223043   7.715   4.243   1.654
 7700TIP3   OH223044   6.428   2.687   0.364
 7700TIP3    H123045   6.459   2.613   0.416
 7700TIP3    H223046   6.332   2.681   0.369
 7701TIP3   OH223047   8.275   1.580   5.672
 7701TIP3    H123048   8.278   1.487   5.691
 7701TIP3    H223049   8.189   1.609   5.702
 7702TIP3   OH223050   7.711   0.364   0.612
 7702TIP3    H123051   7.795   0.321   0.627
 7702TIP3    H223052   7.726   0.422   0.537
 7703TIP3   OH223053   2.636   4.015   1.304
 7703TIP3    H123054   2.653   3.979   1.392
 7703TIP3    H223055   2.686   3.959   1.245
 7704TIP3   OH223056   6.389   1.767   5.609
 7704TIP3    H123057   6.402   1.713   5.530
 7704TIP3    H223058   6.462   1.742   5.666
 7705TIP3   OH223059   2.876   6.858   4.399
 7705TIP3    H123060   2.810   6.855   4.468
 7705TIP3    H223061   2.886   6.952   4.380
 7706TIP3   OH223062   7.078   7.440   0.662
 7706TIP3    H123063   7.032   7.507   0.613
 7706TIP3    H223064   7.167   7.441   0.628
 7707TIP3   OH223065   5.838   6.441   1.973
 7707TIP3    H123066   5.921   6.407   1.941
 7707TIP3    H223067   5.818   6.388   2.049
 7708TIP3   OH223068   1.662   0.149   4.078
 7708TIP3    H123069   1.727   0.191   4.135
 7708TIP3    H223070   1.581   0.149   4.130
 7709TIP3   OH223071   8.202   1.939   3.490
 7709TIP3    H123072   8.155   1.913   3.570
 7709TIP3    H223073   8.197   2.034   3.489
 7710TIP3   OH223074   0.168   5.724   3.655
 7710TIP3    H123075   0.204   5.706   3.568
 7710TIP3    H223076   0.118   5.646   3.677
 7711TIP3   OH223077   5.805   1.769   4.252
 7711TIP3    H123078   5.751   1.772   4.331
 7711TIP3    H223079   5.846   1.683   4.254
 7712TIP3   OH223080   1.470   1.885   4.530
 7712TIP3    H123081   1.540   1.874   4.466
 7712TIP3    H223082   1.485   1.972   4.567
 7713TIP3   OH223083   0.604   3.086   3.694
 7713TIP3    H123084   0.578   3.004   3.737
 7713TIP3    H223085   0.692   3.069   3.660
 7714TIP3   OH223086   2.302   2.597   2.529
 7714TIP3    H123087   2.339   2.685   2.517
 7714TIP3    H223088   2.365   2.553   2.586
 7715TIP3   OH223089   2.690   3.212   3.868
 7715TIP3    H123090   2.760   3.263   3.827
 7715TIP3    H223091   2.609   3.257   3.843
 7716TIP3   OH223092   1.985   5.027   3.092
 7716TIP3    H123093   2.076   5.025   3.122
 7716TIP3    H223094   1.958   4.935   3.092
 7717TIP3   OH223095   4.135   1.033   4.484
 7717TIP3    H123096   4.119   0.982   4.404
 7717TIP3    H223097   4.224   1.065   4.474
 7718TIP3   OH223098   3.220   4.124   5.120
 7718TIP3    H123099   3.297   4.175   5.095
 7718TIP3    H223100   3.254   4.039   5.146
 7719TIP3   OH223101   6.521   4.617   4.946
 7719TIP3    H123102   6.612   4.636   4.926
 7719TIP3    H223103   6.525   4.544   5.008
 7720TIP3   OH223104   7.193   2.708   3.122
 7720TIP3    H123105   7.201   2.618   3.152
 7720TIP3    H223106   7.131   2.748   3.183
 7721TIP3   OH223107   4.291   2.408   6.420
 7721TIP3    H123108   4.197   2.394   6.434
 7721TIP3    H223109   4.303   2.395   6.326
 7722TIP3   OH223110   7.144   5.405   2.044
 7722TIP3    H123111   7.087   5.360   1.981
 7722TIP3    H223112   7.143   5.348   2.121
 7723TIP3   OH223113   5.981   2.261   5.670
 7723TIP3    H123114   5.978   2.173   5.631
 7723TIP3    H223115   5.890   2.291   5.666
 7724TIP3   OH223116   1.477   3.991   1.678
 7724TIP3    H123117   1.393   3.947   1.667
 7724TIP3    H223118   1.482   4.010   1.772
 7725TIP3   OH223119   4.584   1.233   4.244
 7725TIP3    H123120   4.531   1.303   4.206
 7725TIP3    H223121   4.641   1.278   4.306
 7726TIP3   OH223122   0.671   3.049   1.669
 7726TIP3    H123123   0.752   3.077   1.626
 7726TIP3    H223124   0.671   3.097   1.753
 7727TIP3   OH223125   0.286   5.287   5.961
 7727TIP3    H123126   0.310   5.377   5.981
 7727TIP3    H223127   0.192   5.282   5.979
 7728TIP3   OH223128   2.537   3.919   1.834
 7728TIP3    H123129   2.629   3.892   1.842
 7728TIP3    H223130   2.487   3.844   1.864
 7729TIP3   OH223131   4.452   5.728   4.257
 7729TIP3    H123132   4.542   5.704   4.236
 7729TIP3    H223133   4.453   5.823   4.261
 7730TIP3   OH223134   0.632   7.171   6.681
 7730TIP3    H123135   0.590   7.150   6.598
 7730TIP3    H223136   0.691   7.096   6.697
 7731TIP3   OH223137   7.802   5.127   3.714
 7731TIP3    H123138   7.835   5.206   3.671
 7731TIP3    H223139   7.850   5.122   3.797
 7732TIP3   OH223140   3.698   2.463   3.538
 7732TIP3    H123141   3.623   2.404   3.532
 7732TIP3    H223142   3.687   2.523   3.464
 7733TIP3   OH223143   5.712   6.961   1.951
 7733TIP3    H123144   5.795   7.004   1.928
 7733TIP3    H223145   5.647   7.004   1.895
 7734TIP3   OH223146   7.673   4.897   1.920
 7734TIP3    H123147   7.656   4.990   1.904
 7734TIP3    H223148   7.768   4.890   1.925
 7735TIP3   OH223149   3.799   3.767   0.204
 7735TIP3    H123150   3.796   3.734   0.115
 7735TIP3    H223151   3.806   3.689   0.259
 7736TIP3   OH223152   4.154   5.542   5.696
 7736TIP3    H123153   4.098   5.521   5.771
 7736TIP3    H223154   4.138   5.634   5.678
 7737TIP3   OH223155   0.603   1.033   6.485
 7737TIP3    H123156   0.592   1.100   6.417
 7737TIP3    H223157   0.698   1.025   6.494
 7738TIP3   OH223158   1.296   6.903   2.012
 7738TIP3    H123159   1.373   6.922   2.065
 7738TIP3    H223160   1.316   6.821   1.967
 7739TIP3   OH223161   4.376   4.788   0.969
 7739TIP3    H123162   4.310   4.853   0.991
 7739TIP3    H223163   4.353   4.759   0.881
 7740TIP3   OH223164   4.127   3.450   0.406
 7740TIP3    H123165   4.065   3.383   0.432
 7740TIP3    H223166   4.107   3.524   0.464
 7741TIP3   OH223167   6.941   1.982   2.504
 7741TIP3    H123168   6.956   2.074   2.526
 7741TIP3    H223169   6.963   1.975   2.411
 7742TIP3   OH223170   2.277   5.439   4.598
 7742TIP3    H123171   2.302   5.463   4.687
 7742TIP3    H223172   2.182   5.437   4.599
 7743TIP3   OH223173   7.313   6.255   5.158
 7743TIP3    H123174   7.329   6.161   5.165
 7743TIP3    H223175   7.218   6.263   5.157
 7744TIP3   OH223176   5.441   4.149   1.856
 7744TIP3    H123177   5.433   4.082   1.788
 7744TIP3    H223178   5.527   4.133   1.896
 7745TIP3   OH223179   3.527   3.427   5.062
 7745TIP3    H123180   3.597   3.381   5.015
 7745TIP3    H223181   3.563   3.442   5.149
 7746TIP3   OH223182   5.172   0.920   0.392
 7746TIP3    H123183   5.104   0.865   0.429
 7746TIP3    H223184   5.125   0.980   0.334
 7747TIP3   OH223185   0.683   0.446   3.781
 7747TIP3    H123186   0.699   0.352   3.787
 7747TIP3    H223187   0.669   0.474   3.871
 7748TIP3   OH223188   7.453   3.977   4.380
 7748TIP3    H123189   7.411   3.900   4.342
 7748TIP3    H223190   7.501   4.017   4.307
 7749TIP3   OH223191   4.647   3.019   1.894
 7749TIP3    H123192   4.585   3.052   1.959
 7749TIP3    H223193   4.733   3.025   1.937
 7750TIP3   OH223194   7.559   6.957   5.806
 7750TIP3    H123195   7.618   7.008   5.861
 7750TIP3    H223196   7.615   6.889   5.767
 7751TIP3   OH223197   0.075   4.484   2.425
 7751TIP3    H123198   0.092   4.467   2.332
 7751TIP3    H223199   0.097   4.402   2.469
 7752TIP3   OH223200   4.556   1.306   2.345
 7752TIP3    H123201   4.471   1.263   2.352
 7752TIP3    H223202   4.576   1.304   2.251
 7753TIP3   OH223203   6.728   0.881   2.193
 7753TIP3    H123204   6.684   0.798   2.174
 7753TIP3    H223205   6.761   0.870   2.282
 7754TIP3   OH223206   4.284   2.861   5.440
 7754TIP3    H123207   4.374   2.858   5.470
 7754TIP3    H223208   4.284   2.926   5.370
 7755TIP3   OH223209   2.802   2.417   1.860
 7755TIP3    H123210   2.716   2.409   1.818
 7755TIP3    H223211   2.859   2.448   1.790
 7756TIP3   OH223212   7.609   3.660   5.891
 7756TIP3    H123213   7.544   3.696   5.830
 7756TIP3    H223214   7.579   3.687   5.977
 7757TIP3   OH223215   6.704   1.973   4.872
 7757TIP3    H123216   6.709   2.047   4.812
 7757TIP3    H223217   6.726   1.897   4.817
 7758TIP3   OH223218   6.258   0.786   4.606
 7758TIP3    H123219   6.312   0.850   4.652
 7758TIP3    H223220   6.197   0.753   4.671
 7759TIP3   OH223221   2.540   7.606   1.800
 7759TIP3    H123222   2.456   7.600   1.755
 7759TIP3    H223223   2.602   7.629   1.731
 7760TIP3   OH223224   8.092   5.972   0.604
 7760TIP3    H123225   8.134   6.027   0.538
 7760TIP3    H223226   8.044   6.033   0.659
 7761TIP3   OH223227   1.042   5.155   4.738
 7761TIP3    H123228   1.035   5.117   4.826
 7761TIP3    H223229   1.075   5.084   4.684
 7762TIP3   OH223230   6.774   1.185   5.636
 7762TIP3    H123231   6.719   1.143   5.702
 7762TIP3    H223232   6.715   1.199   5.562
 7763TIP3   OH223233   5.580   1.744   2.505
 7763TIP3    H123234   5.553   1.652   2.503
 7763TIP3    H223235   5.509   1.789   2.551
 7764TIP3   OH223236   2.403   6.082   0.198
 7764TIP3    H123237   2.311   6.108   0.195
 7764TIP3    H223238   2.441   6.136   0.267
 7765TIP3   OH223239   1.830   1.387   1.895
 7765TIP3    H123240   1.763   1.319   1.890
 7765TIP3    H223241   1.907   1.342   1.930
 7766TIP3   OH223242   6.836   3.923   5.610
 7766TIP3    H123243   6.743   3.942   5.602
 7766TIP3    H223244   6.873   4.002   5.649
 7767TIP3   OH223245   2.520   0.805   6.385
 7767TIP3    H123246   2.602   0.764   6.358
 7767TIP3    H223247   2.544   0.860   6.460
 7768TIP3   OH223248   3.511   0.265   2.937
 7768TIP3    H123249   3.576   0.302   2.997
 7768TIP3    H223250   3.431   0.312   2.957
 7769TIP3   OH223251   5.737   6.977   3.114
 7769TIP3    H123252   5.715   6.980   3.021
 7769TIP3    H223253   5.818   7.027   3.122
 7770TIP3   OH223254   7.326   1.811   6.293
 7770TIP3    H123255   7.318   1.794   6.199
 7770TIP3    H223256   7.305   1.904   6.303
 7771TIP3   OH223257   5.366   5.174   3.929
 7771TIP3    H123258   5.325   5.197   3.846
 7771TIP3    H223259   5.328   5.235   3.992
 7772TIP3   OH223260   2.732   6.061   3.678
 7772TIP3    H123261   2.815   6.017   3.697
 7772TIP3    H223262   2.675   6.038   3.751
 7773TIP3   OH223263   4.735   4.225   5.033
 7773TIP3    H123264   4.702   4.285   5.099
 7773TIP3    H223265   4.828   4.248   5.024
 7774TIP3   OH223266   4.095   0.160   0.511
 7774TIP3    H123267   4.006   0.126   0.508
 7774TIP3    H223268   4.100   0.223   0.439
 7775TIP3   OH223269   3.032   2.513   1.764
 7775TIP3    H123270   3.046   2.593   1.815
 7775TIP3    H223271   3.115   2.497   1.720
 7776TIP3   OH223272   0.068   2.969   2.061
 7776TIP3    H123273   0.026   2.884   2.051
 7776TIP3    H223274   0.090   2.995   1.972
 7777TIP3   OH223275   1.973   7.306   4.688
 7777TIP3    H123276   1.951   7.272   4.774
 7777TIP3    H223277   2.047   7.253   4.659
 7778TIP3   OH223278   4.839   2.941   0.930
 7778TIP3    H123279   4.783   3.003   0.977
 7778TIP3    H223280   4.901   2.997   0.883
 7779TIP3   OH223281   3.832   4.858   3.227
 7779TIP3    H123282   3.854   4.771   3.195
 7779TIP3    H223283   3.891   4.872   3.301
 7780TIP3   OH223284   3.614   4.318   2.615
 7780TIP3    H123285   3.585   4.312   2.524
 7780TIP3    H223286   3.708   4.337   2.608
 7781TIP3   OH223287   6.413   0.253   4.345
 7781TIP3    H123288   6.493   0.204   4.362
 7781TIP3    H223289   6.367   0.256   4.429
 7782TIP3   OH223290   7.319   4.782   2.335
 7782TIP3    H123291   7.245   4.777   2.275
 7782TIP3    H223292   7.388   4.826   2.285
 7783TIP3   OH223293   5.227   3.980   3.849
 7783TIP3    H123294   5.155   3.960   3.909
 7783TIP3    H223295   5.242   4.074   3.859
 7784TIP3   OH223296   4.672   6.180   4.848
 7784TIP3    H123297   4.687   6.099   4.799
 7784TIP3    H223298   4.759   6.207   4.878
 7785TIP3   OH223299   6.800   2.583   1.948
 7785TIP3    H123300   6.794   2.651   1.881
 7785TIP3    H223301   6.711   2.551   1.958
 7786TIP3   OH223302   7.972   0.220   5.389
 7786TIP3    H123303   7.997   0.177   5.470
 7786TIP3    H223304   7.877   0.212   5.385
 7787TIP3   OH223305   3.416   4.007   5.966
 7787TIP3    H123306   3.348   4.039   5.907
 7787TIP3    H223307   3.371   3.989   6.048
 7788TIP3   OH223308   7.838   0.756   1.469
 7788TIP3    H123309   7.880   0.721   1.390
 7788TIP3    H223310   7.756   0.707   1.476
 7789TIP3   OH223311   5.922   3.996   6.763
 7789TIP3    H123312   5.981   4.069   6.744
 7789TIP3    H223313   5.839   4.020   6.722
 7790TIP3   OH223314   1.909   2.491   0.796
 7790TIP3    H123315   1.894   2.404   0.834
 7790TIP3    H223316   1.891   2.480   0.703
 7791TIP3   OH223317   3.447   5.366   2.511
 7791TIP3    H123318   3.425   5.299   2.447
 7791TIP3    H223319   3.418   5.329   2.595
 7792TIP3   OH223320   2.075   1.490   5.984
 7792TIP3    H123321   2.036   1.526   6.063
 7792TIP3    H223322   2.082   1.396   6.001
 7793TIP3   OH223323   3.593   5.940   0.596
 7793TIP3    H123324   3.542   6.003   0.647
 7793TIP3    H223325   3.683   5.952   0.627
 7794TIP3   OH223326   2.750   6.649   2.510
 7794TIP3    H123327   2.764   6.740   2.483
 7794TIP3    H223328   2.768   6.597   2.432
 7795TIP3   OH223329   6.453   0.298   1.420
 7795TIP3    H123330   6.507   0.334   1.351
 7795TIP3    H223331   6.512   0.244   1.472
 7796TIP3   OH223332   5.172   3.320   0.481
 7796TIP3    H123333   5.223   3.255   0.530
 7796TIP3    H223334   5.188   3.299   0.389
 7797TIP3   OH223335   8.106   6.613   4.557
 7797TIP3    H123336   8.198   6.633   4.571
 7797TIP3    H223337   8.074   6.684   4.501
 7798TIP3   OH223338   3.611   6.023   1.835
 7798TIP3    H123339   3.657   5.966   1.897
 7798TIP3    H223340   3.671   6.096   1.822
 7799TIP3   OH223341   7.623   1.114   3.338
 7799TIP3    H123342   7.610   1.095   3.431
 7799TIP3    H223343   7.695   1.056   3.313
 7800TIP3   OH223344   6.915   2.453   6.667
 7800TIP3    H123345   6.963   2.535   6.660
 7800TIP3    H223346   6.939   2.404   6.589
 7801TIP3   OH223347   4.773   7.521   3.474
 7801TIP3    H123348   4.814   7.515   3.388
 7801TIP3    H223349   4.680   7.535   3.456
 7802TIP3   OH223350   4.212   3.864   0.655
 7802TIP3    H123351   4.183   3.915   0.731
 7802TIP3    H223352   4.253   3.929   0.598
 7803TIP3   OH223353   3.971   5.759   2.684
 7803TIP3    H123354   4.029   5.834   2.702
 7803TIP3    H223355   4.023   5.701   2.629
 7804TIP3   OH223356   0.618   7.466   3.272
 7804TIP3    H123357   0.601   7.383   3.316
 7804TIP3    H223358   0.544   7.475   3.211
 7805TIP3   OH223359   4.168   7.227   4.516
 7805TIP3    H123360   4.211   7.196   4.596
 7805TIP3    H223361   4.182   7.157   4.452
 7806TIP3   OH223362   6.166   7.322   3.932
 7806TIP3    H123363   6.207   7.390   3.878
 7806TIP3    H223364   6.223   7.246   3.923
 7807TIP3   OH223365   4.245   6.905   1.034
 7807TIP3    H123366   4.252   6.919   1.128
 7807TIP3    H223367   4.204   6.985   1.001
 7808TIP3   OH223368   5.462   0.612   3.891
 7808TIP3    H123369   5.469   0.681   3.825
 7808TIP3    H223370   5.385   0.636   3.942
 7809TIP3   OH223371   6.596   5.766   1.151
 7809TIP3    H123372   6.532   5.695   1.145
 7809TIP3    H223373   6.544   5.844   1.167
 7810TIP3   OH223374   1.222   3.918   5.025
 7810TIP3    H123375   1.317   3.915   5.018
 7810TIP3    H223376   1.204   3.902   5.118
 7811TIP3   OH223377   7.700   3.384   6.234
 7811TIP3    H123378   7.731   3.450   6.171
 7811TIP3    H223379   7.712   3.300   6.189
 7812TIP3   OH223380   5.424   2.658   3.850
 7812TIP3    H123381   5.399   2.574   3.813
 7812TIP3    H223382   5.459   2.637   3.937
 7813TIP3   OH223383   3.990   4.296   2.774
 7813TIP3    H123384   4.030   4.208   2.779
 7813TIP3    H223385   3.978   4.311   2.680
 7814TIP3   OH223386   4.376   4.488   1.892
 7814TIP3    H123387   4.326   4.556   1.937
 7814TIP3    H223388   4.374   4.515   1.800
 7815TIP3   OH223389   6.751   7.597   0.739
 7815TIP3    H123390   6.824   7.635   0.691
 7815TIP3    H223391   6.694   7.671   0.758
 7816TIP3   OH223392   4.466   1.999   2.949
 7816TIP3    H123393   4.535   1.937   2.925
 7816TIP3    H223394   4.386   1.959   2.915
 7817TIP3   OH223395   6.480   0.050   1.724
 7817TIP3    H123396   6.490   0.023   1.632
 7817TIP3    H223397   6.496   0.144   1.722
 7818TIP3   OH223398   1.365   0.649   1.240
 7818TIP3    H123399   1.424   0.712   1.282
 7818TIP3    H223400   1.356   0.681   1.150
 7819TIP3   OH223401   5.767   7.216   5.674
 7819TIP3    H123402   5.842   7.247   5.623
 7819TIP3    H223403   5.801   7.207   5.763
 7820TIP3   OH223404   1.238   5.067   5.111
 7820TIP3    H123405   1.327   5.033   5.106
 7820TIP3    H223406   1.226   5.116   5.030
 7821TIP3   OH223407   0.991   1.361   4.032
 7821TIP3    H123408   0.928   1.298   3.996
 7821TIP3    H223409   0.961   1.446   3.999
 7822TIP3   OH223410   5.365   2.236   0.870
 7822TIP3    H123411   5.310   2.275   0.938
 7822TIP3    H223412   5.344   2.143   0.873
 7823TIP3   OH223413   1.186   2.873   1.677
 7823TIP3    H123414   1.119   2.832   1.623
 7823TIP3    H223415   1.165   2.846   1.766
 7824TIP3   OH223416   3.503   7.026   3.583
 7824TIP3    H123417   3.420   7.040   3.538
 7824TIP3    H223418   3.558   6.983   3.518
 7825TIP3   OH223419   6.193   6.583   5.825
 7825TIP3    H123420   6.249   6.660   5.842
 7825TIP3    H223421   6.229   6.514   5.881
 7826TIP3   OH223422   3.182   2.582   2.380
 7826TIP3    H123423   3.205   2.503   2.331
 7826TIP3    H223424   3.086   2.587   2.374
 7827TIP3   OH223425   7.378   4.966   3.743
 7827TIP3    H123426   7.428   4.912   3.804
 7827TIP3    H223427   7.359   5.046   3.793
 7828TIP3   OH223428   4.670   1.855   6.812
 7828TIP3    H123429   4.604   1.786   6.822
 7828TIP3    H223430   4.684   1.861   6.718
 7829TIP3   OH223431   6.368   1.764   3.904
 7829TIP3    H123432   6.323   1.785   3.986
 7829TIP3    H223433   6.443   1.823   3.902
 7830TIP3   OH223434   7.584   3.148   6.477
 7830TIP3    H123435   7.596   3.239   6.505
 7830TIP3    H223436   7.672   3.113   6.471
 7831TIP3   OH223437   3.233   1.581   6.351
 7831TIP3    H123438   3.211   1.618   6.265
 7831TIP3    H223439   3.261   1.656   6.403
 7832TIP3   OH223440   2.872   3.373   6.352
 7832TIP3    H123441   2.949   3.396   6.300
 7832TIP3    H223442   2.876   3.431   6.428
 7833TIP3   OH223443   6.676   4.997   4.690
 7833TIP3    H123444   6.588   4.970   4.715
 7833TIP3    H223445   6.686   4.966   4.599
 7834TIP3   OH223446   1.498   4.203   0.588
 7834TIP3    H123447   1.503   4.207   0.493
 7834TIP3    H223448   1.408   4.176   0.607
 7835TIP3   OH223449   5.163   3.197   2.832
 7835TIP3    H123450   5.203   3.202   2.919
 7835TIP3    H223451   5.213   3.260   2.779
 7836TIP3   OH223452   2.207   4.672   4.645
 7836TIP3    H123453   2.234   4.763   4.644
 7836TIP3    H223454   2.270   4.627   4.588
 7837TIP3   OH223455   3.554   4.093   3.470
 7837TIP3    H123456   3.517   4.015   3.511
 7837TIP3    H223457   3.506   4.103   3.388
 7838TIP3   OH223458   5.995   7.692   4.912
 7838TIP3    H123459   6.080   7.704   4.871
 7838TIP3    H223460   5.933   7.686   4.839
 7839TIP3   OH223461   6.493   5.771   4.816
 7839TIP3    H123462   6.428   5.840   4.825
 7839TIP3    H223463   6.559   5.809   4.758
 7840TIP3   OH223464   1.456   4.167   5.603
 7840TIP3    H123465   1.379   4.197   5.555
 7840TIP3    H223466   1.473   4.080   5.568
 7841TIP3   OH223467   0.948   0.322   4.496
 7841TIP3    H123468   0.937   0.417   4.498
 7841TIP3    H223469   0.972   0.298   4.586
 7842TIP3   OH223470   4.480   7.750   6.352
 7842TIP3    H123471   4.498   7.691   6.279
 7842TIP3    H223472   4.559   7.746   6.406
 7843TIP3   OH223473   6.813   3.924   1.116
 7843TIP3    H123474   6.739   3.979   1.143
 7843TIP3    H223475   6.773   3.840   1.094
 7844TIP3   OH223476   5.311   5.436   5.595
 7844TIP3    H123477   5.305   5.518   5.546
 7844TIP3    H223478   5.235   5.436   5.653
 7845TIP3   OH223479   3.261   7.536   2.394
 7845TIP3    H123480   3.245   7.477   2.468
 7845TIP3    H223481   3.222   7.491   2.319
 7846TIP3   OH223482   2.805   6.249   4.446
 7846TIP3    H123483   2.831   6.322   4.390
 7846TIP3    H223484   2.869   6.251   4.518
 7847TIP3   OH223485   2.268   2.376   4.627
 7847TIP3    H123486   2.263   2.449   4.689
 7847TIP3    H223487   2.309   2.414   4.549
 7848TIP3   OH223488   0.371   7.134   0.790
 7848TIP3    H123489   0.460   7.106   0.770
 7848TIP3    H223490   0.316   7.062   0.759
 7849TIP3   OH223491   2.191   2.613   3.421
 7849TIP3    H123492   2.230   2.699   3.406
 7849TIP3    H223493   2.232   2.556   3.356
 7850TIP3   OH223494   5.186   5.334   2.763
 7850TIP3    H123495   5.104   5.346   2.716
 7850TIP3    H223496   5.165   5.348   2.855
 7851TIP3   OH223497   3.262   1.322   1.299
 7851TIP3    H123498   3.349   1.284   1.289
 7851TIP3    H223499   3.279   1.411   1.329
 7852TIP3   OH223500   2.877   5.956   5.357
 7852TIP3    H123501   2.963   5.977   5.321
 7852TIP3    H223502   2.818   6.020   5.317
 7853TIP3   OH223503   8.138   1.375   2.300
 7853TIP3    H123504   8.126   1.304   2.237
 7853TIP3    H223505   8.233   1.389   2.303
 7854TIP3   OH223506   0.076   0.970   2.112
 7854TIP3    H123507  -0.004   0.964   2.059
 7854TIP3    H223508   0.147   0.969   2.048
 7855TIP3   OH223509   0.055   0.497   5.032
 7855TIP3    H123510   0.123   0.494   5.099
 7855TIP3    H223511   0.101   0.531   4.954
 7856TIP3   OH223512   0.945   3.889   5.008
 7856TIP3    H123513   0.927   3.795   5.010
 7856TIP3    H223514   1.040   3.894   5.005
 7857TIP3   OH223515   3.373   2.614   2.611
 7857TIP3    H123516   3.346   2.610   2.703
 7857TIP3    H223517   3.291   2.627   2.563
 7858TIP3   OH223518   2.838   5.979   4.870
 7858TIP3    H123519   2.931   5.970   4.890
 7858TIP3    H223520   2.831   6.062   4.824
 7859TIP3   OH223521   4.021   5.126   5.133
 7859TIP3    H123522   3.989   5.208   5.171
 7859TIP3    H223523   4.117   5.136   5.132
 7860TIP3   OH223524   0.492   0.106   5.256
 7860TIP3    H123525   0.546   0.180   5.229
 7860TIP3    H223526   0.553   0.046   5.299
 7861TIP3   OH223527   3.871   5.782   6.255
 7861TIP3    H123528   3.938   5.826   6.307
 7861TIP3    H223529   3.848   5.845   6.186
 7862TIP3   OH223530   5.256   1.993   0.881
 7862TIP3    H123531   5.184   1.973   0.940
 7862TIP3    H223532   5.323   1.928   0.902
 7863TIP3   OH223533   1.089   3.024   6.417
 7863TIP3    H123534   1.157   2.965   6.386
 7863TIP3    H223535   1.064   2.990   6.503
 7864TIP3   OH223536   2.528   2.051   2.527
 7864TIP3    H123537   2.556   2.121   2.468
 7864TIP3    H223538   2.446   2.018   2.490
 7865TIP3   OH223539   7.653   1.494   2.107
 7865TIP3    H123540   7.625   1.446   2.029
 7865TIP3    H223541   7.738   1.457   2.129
 7866TIP3   OH223542   7.501   2.463   2.176
 7866TIP3    H123543   7.450   2.475   2.256
 7866TIP3    H223544   7.587   2.501   2.196
 7867TIP3   OH223545   6.036   2.114   6.091
 7867TIP3    H123546   5.967   2.064   6.046
 7867TIP3    H223547   6.016   2.102   6.184
 7868TIP3   OH223548   4.895   4.703   6.556
 7868TIP3    H123549   4.911   4.791   6.523
 7868TIP3    H223550   4.969   4.685   6.614
 7869TIP3   OH223551   5.992   2.420   0.485
 7869TIP3    H123552   6.062   2.486   0.494
 7869TIP3    H223553   6.038   2.340   0.460
 7870TIP3   OH223554   4.481   3.700   1.236
 7870TIP3    H123555   4.462   3.640   1.164
 7870TIP3    H223556   4.412   3.681   1.301
 7871TIP3   OH223557   0.581   3.770   5.093
 7871TIP3    H123558   0.597   3.769   4.998
 7871TIP3    H223559   0.500   3.819   5.103
 7872TIP3   OH223560   3.170   0.765   0.324
 7872TIP3    H123561   3.108   0.713   0.272
 7872TIP3    H223562   3.148   0.856   0.303
 7873TIP3   OH223563   3.992   6.201   4.980
 7873TIP3    H123564   4.039   6.249   4.912
 7873TIP3    H223565   3.979   6.114   4.942
 7874TIP3   OH223566   3.687   1.056   1.205
 7874TIP3    H123567   3.706   1.128   1.144
 7874TIP3    H223568   3.626   1.094   1.268
 7875TIP3   OH223569   3.253   5.255   2.352
 7875TIP3    H123570   3.273   5.289   2.265
 7875TIP3    H223571   3.225   5.165   2.337
 7876TIP3   OH223572   1.805   0.191   5.209
 7876TIP3    H123573   1.755   0.184   5.128
 7876TIP3    H223574   1.880   0.134   5.197
 7877TIP3   OH223575   2.051   0.614   4.700
 7877TIP3    H123576   2.067   0.571   4.616
 7877TIP3    H223577   2.135   0.653   4.724
 7878TIP3   OH223578   0.380   1.866   1.178
 7878TIP3    H123579   0.357   1.820   1.097
 7878TIP3    H223580   0.412   1.797   1.236
 7879TIP3   OH223581   6.772   0.488   3.262
 7879TIP3    H123582   6.837   0.432   3.303
 7879TIP3    H223583   6.713   0.512   3.333
 7880TIP3   OH223584   5.070   6.516   5.494
 7880TIP3    H123585   5.072   6.435   5.545
 7880TIP3    H223586   4.978   6.541   5.492
 7881TIP3   OH223587   5.438   5.220   3.364
 7881TIP3    H123588   5.412   5.305   3.399
 7881TIP3    H223589   5.458   5.167   3.441
 7882TIP3   OH223590   1.634   0.704   6.149
 7882TIP3    H123591   1.654   0.674   6.061
 7882TIP3    H223592   1.720   0.715   6.190
 7883TIP3   OH223593   1.233   2.181   5.196
 7883TIP3    H123594   1.187   2.260   5.169
 7883TIP3    H223595   1.218   2.175   5.291
 7884TIP3   OH223596   1.999   3.479   4.062
 7884TIP3    H123597   1.976   3.476   4.155
 7884TIP3    H223598   2.053   3.401   4.048
 7885TIP3   OH223599   8.199   4.009   2.096
 7885TIP3    H123600   8.205   3.917   2.122
 7885TIP3    H223601   8.280   4.048   2.128
 7886TIP3   OH223602   7.246   0.405   3.153
 7886TIP3    H123603   7.200   0.328   3.185
 7886TIP3    H223604   7.194   0.479   3.185
 7887TIP3   OH223605   0.459   1.033   4.159
 7887TIP3    H123606   0.487   1.073   4.076
 7887TIP3    H223607   0.473   1.102   4.224
 7888TIP3   OH223608   5.575   7.035   5.786
 7888TIP3    H123609   5.619   6.977   5.849
 7888TIP3    H223610   5.645   7.091   5.753
 7889TIP3   OH223611   5.992   4.374   2.016
 7889TIP3    H123612   5.951   4.375   2.103
 7889TIP3    H223613   6.015   4.282   2.002
 7890TIP3   OH223614   7.596   4.216   1.037
 7890TIP3    H123615   7.597   4.300   1.082
 7890TIP3    H223616   7.677   4.215   0.986
 7891TIP3   OH223617   1.354   5.036   0.109
 7891TIP3    H123618   1.272   5.085   0.107
 7891TIP3    H223619   1.405   5.080   0.177
 7892TIP3   OH223620   5.757   0.187   2.554
 7892TIP3    H123621   5.747   0.248   2.627
 7892TIP3    H223622   5.682   0.128   2.562
 7893TIP3   OH223623   1.127   6.457   0.540
 7893TIP3    H123624   1.107   6.411   0.622
 7893TIP3    H223625   1.206   6.413   0.507
 7894TIP3   OH223626   7.788   0.112   5.737
 7894TIP3    H123627   7.730   0.043   5.706
 7894TIP3    H223628   7.870   0.099   5.689
 7895TIP3   OH223629   3.962   2.181   5.501
 7895TIP3    H123630   3.980   2.109   5.440
 7895TIP3    H223631   3.867   2.178   5.513
 7896TIP3   OH223632   0.981   3.064   4.338
 7896TIP3    H123633   1.002   3.122   4.411
 7896TIP3    H223634   0.946   3.121   4.270
 7897TIP3   OH223635   6.402   4.249   6.401
 7897TIP3    H123636   6.400   4.159   6.433
 7897TIP3    H223637   6.350   4.298   6.464
 7898TIP3   OH223638   4.538   1.794   4.790
 7898TIP3    H123639   4.601   1.855   4.750
 7898TIP3    H223640   4.528   1.825   4.879
 7899TIP3   OH223641   2.284   1.687   5.837
 7899TIP3    H123642   2.373   1.654   5.826
 7899TIP3    H223643   2.228   1.617   5.805
 7900TIP3   OH223644   7.532   5.134   1.943
 7900TIP3    H123645   7.446   5.096   1.962
 7900TIP3    H223646   7.519   5.228   1.951
 7901TIP3   OH223647   1.484   0.520   1.995
 7901TIP3    H123648   1.429   0.578   1.942
 7901TIP3    H223649   1.426   0.447   2.019
 7902TIP3   OH223650   3.280   1.208   0.921
 7902TIP3    H123651   3.296   1.166   0.837
 7902TIP3    H223652   3.360   1.255   0.940
 7903TIP3   OH223653   4.164   2.959   4.338
 7903TIP3    H123654   4.227   2.900   4.296
 7903TIP3    H223655   4.215   3.039   4.356
 7904TIP3   OH223656   5.705   6.404   2.389
 7904TIP3    H123657   5.742   6.492   2.400
 7904TIP3    H223658   5.686   6.375   2.478
 7905TIP3   OH223659   6.169   2.914   0.533
 7905TIP3    H123660   6.213   2.997   0.550
 7905TIP3    H223661   6.102   2.935   0.467
 7906TIP3   OH223662   0.303   6.361   5.902
 7906TIP3    H123663   0.267   6.407   5.978
 7906TIP3    H223664   0.369   6.303   5.938
 7907TIP3   OH223665   5.365   5.549   3.125
 7907TIP3    H123666   5.452   5.555   3.165
 7907TIP3    H223667   5.351   5.634   3.085
 7908TIP3   OH223668   1.444   6.999   3.176
 7908TIP3    H123669   1.383   6.926   3.183
 7908TIP3    H223670   1.405   7.070   3.227
 7909TIP3   OH223671   4.819   5.138   2.664
 7909TIP3    H123672   4.779   5.096   2.588
 7909TIP3    H223673   4.883   5.075   2.696
 7910TIP3   OH223674   0.267   1.524   1.341
 7910TIP3    H123675   0.288   1.521   1.434
 7910TIP3    H223676   0.352   1.533   1.298
 7911TIP3   OH223677   2.879   3.980   0.436
 7911TIP3    H123678   2.795   3.993   0.480
 7911TIP3    H223679   2.942   4.029   0.489
 7912TIP3   OH223680   3.330   7.180   5.680
 7912TIP3    H123681   3.376   7.240   5.738
 7912TIP3    H223682   3.336   7.095   5.724
 7913TIP3   OH223683   4.244   4.611   4.396
 7913TIP3    H123684   4.178   4.610   4.466
 7913TIP3    H223685   4.327   4.627   4.441
 7914TIP3   OH223686   6.940   0.527   2.699
 7914TIP3    H123687   6.891   0.502   2.620
 7914TIP3    H223688   7.015   0.577   2.665
 7915TIP3   OH223689   7.912   4.434   6.290
 7915TIP3    H123690   7.828   4.393   6.269
 7915TIP3    H223691   7.944   4.385   6.366
 7916TIP3   OH223692   5.301   4.228   2.851
 7916TIP3    H123693   5.336   4.211   2.764
 7916TIP3    H223694   5.211   4.257   2.835
 7917TIP3   OH223695   4.251   5.799   1.193
 7917TIP3    H123696   4.254   5.739   1.267
 7917TIP3    H223697   4.313   5.869   1.215
 7918TIP3   OH223698   1.632   3.848   2.289
 7918TIP3    H123699   1.670   3.833   2.202
 7918TIP3    H223700   1.553   3.793   2.290
 7919TIP3   OH223701   2.920   2.070   4.449
 7919TIP3    H123702   2.872   2.031   4.376
 7919TIP3    H223703   2.911   2.164   4.436
 7920TIP3   OH223704   6.905   6.147   1.461
 7920TIP3    H123705   6.929   6.190   1.379
 7920TIP3    H223706   6.809   6.147   1.461
 7921TIP3   OH223707   1.410   4.338   1.742
 7921TIP3    H123708   1.356   4.394   1.797
 7921TIP3    H223709   1.488   4.391   1.723
 7922TIP3   OH223710   6.007   2.109   2.606
 7922TIP3    H123711   6.075   2.091   2.671
 7922TIP3    H223712   6.024   2.046   2.536
 7923TIP3   OH223713   6.645   0.385   3.024
 7923TIP3    H123714   6.700   0.436   3.084
 7923TIP3    H223715   6.556   0.395   3.058
 7924TIP3   OH223716   1.580   6.796   5.732
 7924TIP3    H123717   1.498   6.824   5.693
 7924TIP3    H223718   1.556   6.768   5.821
 7925TIP3   OH223719   0.465   0.137   2.848
 7925TIP3    H123720   0.491   0.113   2.937
 7925TIP3    H223721   0.484   0.230   2.842
 7926TIP3   OH223722   7.354   2.192   4.139
 7926TIP3    H123723   7.285   2.187   4.073
 7926TIP3    H223724   7.333   2.269   4.191
 7927TIP3   OH223725   2.802   5.463   2.254
 7927TIP3    H123726   2.840   5.413   2.326
 7927TIP3    H223727   2.865   5.453   2.182
 7928TIP3   OH223728   5.623   3.440   5.972
 7928TIP3    H123729   5.663   3.435   5.885
 7928TIP3    H223730   5.586   3.353   5.986
 7929TIP3   OH223731   2.815   6.228   4.798
 7929TIP3    H123732   2.754   6.282   4.848
 7929TIP3    H223733   2.894   6.281   4.791
 7930TIP3   OH223734   3.557   3.857   1.691
 7930TIP3    H123735   3.614   3.867   1.767
 7930TIP3    H223736   3.544   3.762   1.683
 7931TIP3   OH223737   5.596   3.720   0.053
 7931TIP3    H123738   5.670   3.696  -0.004
 7931TIP3    H223739   5.566   3.637   0.089
 7932TIP3   OH223740   5.730   6.088   6.744
 7932TIP3    H123741   5.823   6.070   6.754
 7932TIP3    H223742   5.686   6.012   6.784
 7933TIP3   OH223743   5.703   6.402   2.683
 7933TIP3    H123744   5.708   6.307   2.677
 7933TIP3    H223745   5.637   6.418   2.750
 7934TIP3   OH223746   4.009  -0.011   1.757
 7934TIP3    H123747   4.045  -0.013   1.845
 7934TIP3    H223748   4.029   0.077   1.724
 7935TIP3   OH223749   2.587   4.783   4.952
 7935TIP3    H123750   2.649   4.760   5.021
 7935TIP3    H223751   2.621   4.741   4.873
 7936TIP3   OH223752   7.826   7.879   0.514
 7936TIP3    H123753   7.794   7.838   0.433
 7936TIP3    H223754   7.916   7.849   0.522
 7937TIP3   OH223755   7.792   6.343   6.140
 7937TIP3    H123756   7.848   6.373   6.068
 7937TIP3    H223757   7.854   6.314   6.207
 7938TIP3   OH223758   7.178   7.298   6.113
 7938TIP3    H123759   7.129   7.293   6.030
 7938TIP3    H223760   7.266   7.323   6.087
 7939TIP3   OH223761   4.135   6.837   3.937
 7939TIP3    H123762   4.099   6.756   3.902
 7939TIP3    H223763   4.229   6.821   3.944
 7940TIP3   OH223764   7.209   5.084   0.723
 7940TIP3    H123765   7.187   5.157   0.665
 7940TIP3    H223766   7.137   5.021   0.711
 7941TIP3   OH223767   1.910   6.174   4.673
 7941TIP3    H123768   1.818   6.163   4.697
 7941TIP3    H223769   1.909   6.234   4.599
 7942TIP3   OH223770   1.631   2.210   1.823
 7942TIP3    H123771   1.611   2.251   1.739
 7942TIP3    H223772   1.549   2.216   1.872
 7943TIP3   OH223773   6.738   6.160   3.510
 7943TIP3    H123774   6.816   6.125   3.467
 7943TIP3    H223775   6.771   6.201   3.590
 7944TIP3   OH223776   5.466   4.113   2.629
 7944TIP3    H123777   5.554   4.150   2.632
 7944TIP3    H223778   5.476   4.024   2.663
 7945TIP3   OH223779   5.857   5.554   0.326
 7945TIP3    H123780   5.859   5.472   0.376
 7945TIP3    H223781   5.945   5.590   0.335
 7946TIP3   OH223782   5.193   6.356   4.859
 7946TIP3    H123783   5.256   6.381   4.927
 7946TIP3    H223784   5.210   6.417   4.787
 7947TIP3   OH223785   0.491   7.028   5.084
 7947TIP3    H123786   0.432   6.973   5.136
 7947TIP3    H223787   0.575   6.982   5.087
 7948TIP3   OH223788   1.110   4.379   0.089
 7948TIP3    H123789   1.161   4.302   0.065
 7948TIP3    H223790   1.172   4.435   0.137
 7949TIP3   OH223791   4.184   0.582   5.683
 7949TIP3    H123792   4.149   0.509   5.735
 7949TIP3    H223793   4.254   0.542   5.631
 7950TIP3   OH223794   2.815   4.306   3.516
 7950TIP3    H123795   2.811   4.343   3.605
 7950TIP3    H223796   2.734   4.338   3.474
 7951TIP3   OH223797   0.046   4.291   4.397
 7951TIP3    H123798  -0.039   4.247   4.394
 7951TIP3    H223799   0.093   4.247   4.468
 7952TIP3   OH223800   5.387   3.097   0.906
 7952TIP3    H123801   5.416   3.182   0.939
 7952TIP3    H223802   5.462   3.039   0.921
 7953TIP3   OH223803   7.363   5.086   1.629
 7953TIP3    H123804   7.370   5.057   1.538
 7953TIP3    H223805   7.453   5.085   1.662
 7954TIP3   OH223806   4.677   2.459   5.963
 7954TIP3    H123807   4.745   2.393   5.977
 7954TIP3    H223808   4.596   2.409   5.952
 7955TIP3   OH223809   2.134   6.918   2.006
 7955TIP3    H123810   2.069   6.937   1.938
 7955TIP3    H223811   2.141   6.823   2.007
 7956TIP3   OH223812   4.045   3.742   2.852
 7956TIP3    H123813   3.981   3.760   2.784
 7956TIP3    H223814   4.030   3.650   2.876
 7957TIP3   OH223815   1.596   3.205   6.371
 7957TIP3    H123816   1.577   3.114   6.394
 7957TIP3    H223817   1.692   3.210   6.370
 7958TIP3   OH223818   6.851   1.741   0.225
 7958TIP3    H123819   6.881   1.759   0.136
 7958TIP3    H223820   6.768   1.696   0.215
 7959TIP3   OH223821   6.678   2.187   3.928
 7959TIP3    H123822   6.756   2.139   3.956
 7959TIP3    H223823   6.711   2.248   3.862
 7960TIP3   OH223824   1.234   6.091   1.333
 7960TIP3    H123825   1.300   6.140   1.383
 7960TIP3    H223826   1.165   6.155   1.316
 7961TIP3   OH223827   2.333   5.457   4.872
 7961TIP3    H123828   2.315   5.550   4.883
 7961TIP3    H223829   2.276   5.414   4.936
 7962TIP3   OH223830   0.185   5.216   2.617
 7962TIP3    H123831   0.132   5.139   2.596
 7962TIP3    H223832   0.226   5.194   2.701
 7963TIP3   OH223833   7.995   4.885   2.014
 7963TIP3    H123834   8.053   4.913   2.085
 7963TIP3    H223835   7.942   4.962   1.994
 7964TIP3   OH223836   3.531   0.144   4.967
 7964TIP3    H123837   3.437   0.155   4.982
 7964TIP3    H223838   3.540   0.055   4.933
 7965TIP3   OH223839   5.590   3.632   4.412
 7965TIP3    H123840   5.685   3.638   4.423
 7965TIP3    H223841   5.554   3.677   4.488
 7966TIP3   OH223842   7.043   4.308   0.761
 7966TIP3    H123843   7.121   4.304   0.705
 7966TIP3    H223844   7.012   4.398   0.753
 7967TIP3   OH223845   8.257   3.524   2.561
 7967TIP3    H123846   8.204   3.603   2.553
 7967TIP3    H223847   8.202   3.453   2.529
 7968TIP3   OH223848   3.243   2.607   4.268
 7968TIP3    H123849   3.293   2.587   4.189
 7968TIP3    H223850   3.304   2.655   4.324
 7969TIP3   OH223851   4.854   4.937   6.041
 7969TIP3    H123852   4.901   4.954   6.122
 7969TIP3    H223853   4.761   4.947   6.064
 7970TIP3   OH223854   4.411   1.068   4.952
 7970TIP3    H123855   4.402   1.163   4.942
 7970TIP3    H223856   4.342   1.032   4.896
 7971TIP3   OH223857   5.809   1.723   0.469
 7971TIP3    H123858   5.775   1.790   0.529
 7971TIP3    H223859   5.904   1.731   0.476
 7972TIP3   OH223860   2.637   0.729   0.072
 7972TIP3    H123861   2.651   0.636   0.092
 7972TIP3    H223862   2.688   0.744  -0.008
 7973TIP3   OH223863   1.167   7.046   3.382
 7973TIP3    H123864   1.246   7.098   3.366
 7973TIP3    H223865   1.095   7.102   3.354
 7974TIP3   OH223866   0.127   5.811   4.773
 7974TIP3    H123867   0.079   5.842   4.696
 7974TIP3    H223868   0.078   5.735   4.802
 7975TIP3   OH223869   5.883   2.466   3.975
 7975TIP3    H123870   5.818   2.398   3.958
 7975TIP3    H223871   5.834   2.537   4.017
 7976TIP3   OH223872   7.406   3.726   0.907
 7976TIP3    H123873   7.405   3.803   0.963
 7976TIP3    H223874   7.363   3.754   0.826
 7977TIP3   OH223875   7.742   5.438   2.503
 7977TIP3    H123876   7.825   5.433   2.550
 7977TIP3    H223877   7.764   5.415   2.412
 7978TIP3   OH223878   5.248   1.844   2.280
 7978TIP3    H123879   5.219   1.823   2.369
 7978TIP3    H223880   5.282   1.761   2.246
 7979TIP3   OH223881   5.634   1.358   3.006
 7979TIP3    H123882   5.667   1.431   3.058
 7979TIP3    H223883   5.704   1.292   3.010
 7980TIP3   OH223884   8.231   4.853   1.232
 7980TIP3    H123885   8.180   4.908   1.172
 7980TIP3    H223886   8.212   4.764   1.204
 7981TIP3   OH223887   5.984   1.875   4.732
 7981TIP3    H123888   6.016   1.822   4.659
 7981TIP3    H223889   6.051   1.943   4.742
 7982TIP3   OH223890   6.559   2.063   3.043
 7982TIP3    H123891   6.622   2.120   3.086
 7982TIP3    H223892   6.610   1.986   3.017
 7983TIP3   OH223893   5.840   3.191   1.310
 7983TIP3    H123894   5.925   3.159   1.281
 7983TIP3    H223895   5.787   3.112   1.322
 7984TIP3   OH223896   6.048   6.354   5.161
 7984TIP3    H123897   6.040   6.449   5.170
 7984TIP3    H223898   6.124   6.330   5.213
 7985TIP3   OH223899   1.999   7.320   1.153
 7985TIP3    H123900   2.004   7.315   1.058
 7985TIP3    H223901   2.087   7.296   1.183
 7986TIP3   OH223902   2.652   7.677   6.186
 7986TIP3    H123903   2.659   7.701   6.279
 7986TIP3    H223904   2.590   7.740   6.150
 7987TIP3   OH223905   4.617   0.557   2.089
 7987TIP3    H123906   4.602   0.647   2.119
 7987TIP3    H223907   4.560   0.503   2.143
 7988TIP3   OH223908   2.550   1.454   5.170
 7988TIP3    H123909   2.539   1.500   5.086
 7988TIP3    H223910   2.567   1.363   5.145
 7989TIP3   OH223911   7.046   3.569   5.548
 7989TIP3    H123912   7.042   3.525   5.463
 7989TIP3    H223913   7.011   3.656   5.532
 7990TIP3   OH223914   4.766   3.166   0.370
 7990TIP3    H123915   4.705   3.184   0.441
 7990TIP3    H223916   4.848   3.144   0.414
 7991TIP3   OH223917   0.190   6.080   4.708
 7991TIP3    H123918   0.224   5.991   4.720
 7991TIP3    H223919   0.141   6.076   4.625
 7992TIP3   OH223920   7.060   6.232   5.772
 7992TIP3    H123921   7.071   6.268   5.860
 7992TIP3    H223922   7.036   6.140   5.787
 7993TIP3   OH223923   4.805   3.352   2.014
 7993TIP3    H123924   4.820   3.258   1.999
 7993TIP3    H223925   4.888   3.384   2.049
 7994TIP3   OH223926   3.649   5.883   6.357
 7994TIP3    H123927   3.736   5.855   6.329
 7994TIP3    H223928   3.607   5.915   6.277
 7995TIP3   OH223929   2.263   5.712   0.567
 7995TIP3    H123930   2.261   5.617   0.551
 7995TIP3    H223931   2.180   5.731   0.610
 7996TIP3   OH223932   6.186   4.822   2.653
 7996TIP3    H123933   6.176   4.732   2.683
 7996TIP3    H223934   6.155   4.821   2.563
 7997TIP3   OH223935   1.513   1.690   3.575
 7997TIP3    H123936   1.439   1.633   3.554
 7997TIP3    H223937   1.590   1.637   3.559
 7998TIP3   OH223938   2.011   0.923   2.585
 7998TIP3    H123939   2.030   0.947   2.494
 7998TIP3    H223940   1.958   0.843   2.578
 7999TIP3   OH223941   4.404   2.766   3.262
 7999TIP3    H123942   4.412   2.753   3.357
 7999TIP3    H223943   4.447   2.689   3.224
 8000TIP3   OH223944   4.254   6.258   4.392
 8000TIP3    H123945   4.214   6.185   4.344
 8000TIP3    H223946   4.192   6.279   4.461
 8001TIP3   OH223947   8.214   1.508   2.663
 8001TIP3    H123948   8.216   1.455   2.743
 8001TIP3    H223949   8.239   1.448   2.593
 8002TIP3   OH223950   5.106   1.584   2.208
 8002TIP3    H123951   5.079   1.666   2.165
 8002TIP3    H223952   5.046   1.518   2.173
 8003TIP3   OH223953   8.261   6.411   5.854
 8003TIP3    H123954   8.330   6.358   5.892
 8003TIP3    H223955   8.285   6.501   5.874
 8004TIP3   OH223956   0.264   4.557   2.739
 8004TIP3    H123957   0.337   4.500   2.765
 8004TIP3    H223958   0.188   4.499   2.743
 8005TIP3   OH223959   4.275   3.970   5.064
 8005TIP3    H123960   4.284   3.875   5.070
 8005TIP3    H223961   4.357   4.004   5.099
 8006TIP3   OH223962   0.112   7.526   4.678
 8006TIP3    H123963   0.201   7.530   4.713
 8006TIP3    H223964   0.076   7.445   4.715
 8007TIP3   OH223965   8.213   5.718   6.007
 8007TIP3    H123966   8.179   5.741   6.094
 8007TIP3    H223967   8.136   5.694   5.956
 8008TIP3   OH223968   3.621   6.927   1.191
 8008TIP3    H123969   3.582   6.887   1.270
 8008TIP3    H223970   3.690   6.983   1.225
 8009TIP3   OH223971   1.730   6.397   2.384
 8009TIP3    H123972   1.811   6.427   2.427
 8009TIP3    H223973   1.749   6.307   2.360
 8010TIP3   OH223974   4.414   6.584   4.995
 8010TIP3    H123975   4.395   6.677   4.998
 8010TIP3    H223976   4.379   6.549   5.077
 8011TIP3   OH223977   1.963   0.897   0.078
 8011TIP3    H123978   1.986   0.891  -0.015
 8011TIP3    H223979   1.910   0.819   0.093
 8012TIP3   OH223980   2.050   6.562   1.808
 8012TIP3    H123981   2.107   6.553   1.884
 8012TIP3    H223982   2.108   6.581   1.735
 8013TIP3   OH223983   1.020   6.288   0.755
 8013TIP3    H123984   0.956   6.237   0.805
 8013TIP3    H223985   1.105   6.252   0.780
 8014TIP3   OH223986   5.381   4.035   4.378
 8014TIP3    H123987   5.311   4.061   4.318
 8014TIP3    H223988   5.411   3.951   4.343
 8015TIP3   OH223989   7.039   3.457   2.373
 8015TIP3    H123990   6.982   3.489   2.443
 8015TIP3    H223991   7.044   3.530   2.311
 8016TIP3   OH223992   2.216   4.849   2.354
 8016TIP3    H123993   2.309   4.829   2.364
 8016TIP3    H223994   2.192   4.897   2.433
 8017TIP3   OH223995   6.246   5.915   0.054
 8017TIP3    H123996   6.166   5.882   0.094
 8017TIP3    H223997   6.216   5.976  -0.014
 8018TIP3   OH223998   6.472   6.559   2.445
 8018TIP3    H123999   6.482   6.631   2.507
 8018TIP3    H224000   6.448   6.602   2.363
 8019TIP3   OH224001   1.113   4.599   3.886
 8019TIP3    H124002   1.101   4.668   3.821
 8019TIP3    H224003   1.205   4.575   3.879
 8020TIP3   OH224004   3.134   0.387   2.818
 8020TIP3    H124005   3.097   0.466   2.780
 8020TIP3    H224006   3.147   0.328   2.744
 8021TIP3   OH224007   2.287   1.715   5.166
 8021TIP3    H124008   2.332   1.713   5.081
 8021TIP3    H224009   2.262   1.624   5.183
 8022TIP3   OH224010   3.629   0.965   3.668
 8022TIP3    H124011   3.577   0.909   3.610
 8022TIP3    H224012   3.572   0.981   3.743
 8023TIP3   OH224013   6.759   4.599   4.772
 8023TIP3    H124014   6.803   4.577   4.690
 8023TIP3    H224015   6.830   4.606   4.836
 8024TIP3   OH224016   4.336   5.838   0.006
 8024TIP3    H124017   4.369   5.921   0.040
 8024TIP3    H224018   4.264   5.816   0.065
 8025TIP3   OH224019   1.750   1.469   6.021
 8025TIP3    H124020   1.806   1.540   6.052
 8025TIP3    H224021   1.703   1.506   5.947
 8026TIP3   OH224022   0.355   3.357   2.442
 8026TIP3    H124023   0.333   3.425   2.379
 8026TIP3    H224024   0.271   3.316   2.464
 8027TIP3   OH224025   7.598   5.899   3.260
 8027TIP3    H124026   7.590   5.855   3.345
 8027TIP3    H224027   7.567   5.833   3.197
 8028TIP3   OH224028   3.931   7.430   6.625
 8028TIP3    H124029   3.897   7.445   6.714
 8028TIP3    H224030   4.018   7.469   6.626
 8029TIP3   OH224031   2.786   3.885   6.142
 8029TIP3    H124032   2.776   3.790   6.137
 8029TIP3    H224033   2.880   3.901   6.137
 8030TIP3   OH224034   5.820   0.934   4.118
 8030TIP3    H124035   5.803   0.845   4.148
 8030TIP3    H224036   5.733   0.974   4.111
 8031TIP3   OH224037   8.038   2.678   6.559
 8031TIP3    H124038   7.953   2.646   6.590
 8031TIP3    H224039   8.038   2.659   6.466
 8032TIP3   OH224040   7.648   3.690   4.047
 8032TIP3    H124041   7.612   3.610   4.009
 8032TIP3    H224042   7.659   3.750   3.974
 8033TIP3   OH224043   0.088   7.574   5.680
 8033TIP3    H124044   0.054   7.559   5.769
 8033TIP3    H224045   0.166   7.627   5.693
 8034TIP3   OH224046   2.624   7.766   5.290
 8034TIP3    H124047   2.696   7.829   5.297
 8034TIP3    H224048   2.634   7.709   5.366
 8035TIP3   OH224049   8.113   1.217   1.994
 8035TIP3    H124050   8.119   1.129   1.959
 8035TIP3    H224051   8.204   1.250   1.991
 8036TIP3   OH224052   4.404   2.920   6.535
 8036TIP3    H124053   4.457   3.000   6.537
 8036TIP3    H224054   4.458   2.855   6.582
 8037TIP3   OH224055   1.695   1.230   6.185
 8037TIP3    H124056   1.656   1.296   6.128
 8037TIP3    H224057   1.790   1.242   6.174
 8038TIP3   OH224058   1.672   2.928   1.567
 8038TIP3    H124059   1.584   2.960   1.546
 8038TIP3    H224060   1.717   2.925   1.483
 8039TIP3   OH224061   6.951   2.117   5.325
 8039TIP3    H124062   7.032   2.080   5.360
 8039TIP3    H224063   6.899   2.139   5.403
 8040TIP3   OH224064   5.543   2.283   2.314
 8040TIP3    H124065   5.600   2.266   2.389
 8040TIP3    H224066   5.549   2.205   2.260
 8041TIP3   OH224067   6.038   1.739   4.472
 8041TIP3    H124068   5.995   1.654   4.486
 8041TIP3    H224069   6.129   1.717   4.455
 8042TIP3   OH224070   2.272   2.023   2.403
 8042TIP3    H124071   2.217   2.101   2.390
 8042TIP3    H224072   2.320   2.014   2.321
 8043TIP3   OH224073   0.694   2.703   5.749
 8043TIP3    H124074   0.684   2.784   5.699
 8043TIP3    H224075   0.787   2.681   5.740
 8044TIP3   OH224076   1.015   3.917   1.828
 8044TIP3    H124077   1.088   3.891   1.883
 8044TIP3    H224078   0.990   4.004   1.861
 8045TIP3   OH224079   1.609   3.578   1.236
 8045TIP3    H124080   1.549   3.586   1.161
 8045TIP3    H224081   1.657   3.661   1.237
 8046TIP3   OH224082   1.011   6.604   4.682
 8046TIP3    H124083   0.947   6.596   4.612
 8046TIP3    H224084   1.079   6.540   4.661
 8047TIP3   OH224085   5.284   3.737   4.392
 8047TIP3    H124086   5.310   3.740   4.300
 8047TIP3    H224087   5.189   3.727   4.390
 8048TIP3   OH224088   7.564   0.806   1.694
 8048TIP3    H124089   7.539   0.762   1.612
 8048TIP3    H224090   7.654   0.776   1.710
 8049TIP3   OH224091   3.951   2.516   1.804
 8049TIP3    H124092   4.016   2.578   1.770
 8049TIP3    H224093   4.002   2.438   1.827
 8050TIP3   OH224094   8.148   2.625   3.931
 8050TIP3    H124095   8.131   2.704   3.879
 8050TIP3    H224096   8.131   2.651   4.021
 8051TIP3   OH224097   5.708   2.040   2.115
 8051TIP3    H124098   5.668   1.961   2.149
 8051TIP3    H224099   5.659   2.058   2.034
 8052TIP3   OH224100   0.323   3.919   1.426
 8052TIP3    H124101   0.248   3.872   1.464
 8052TIP3    H224102   0.316   4.007   1.462
 8053TIP3   OH224103   4.312   6.913   6.633
 8053TIP3    H124104   4.396   6.904   6.677
 8053TIP3    H224105   4.321   6.992   6.579
 8054TIP3   OH224106   4.819   5.677   5.089
 8054TIP3    H124107   4.865   5.756   5.117
 8054TIP3    H224108   4.882   5.632   5.033
 8055TIP3   OH224109   0.286   6.396   4.038
 8055TIP3    H124110   0.198   6.417   4.069
 8055TIP3    H224111   0.328   6.481   4.023
 8056TIP3   OH224112   1.923   7.373   6.531
 8056TIP3    H124113   1.843   7.321   6.533
 8056TIP3    H224114   1.980   7.327   6.469
 8057TIP3   OH224115   7.863   4.174   0.958
 8057TIP3    H124116   7.860   4.190   0.864
 8057TIP3    H224117   7.941   4.119   0.970
 8058TIP3   OH224118   4.766   1.361   1.759
 8058TIP3    H124119   4.770   1.376   1.664
 8058TIP3    H224120   4.729   1.441   1.795
 8059TIP3   OH224121   7.146   7.603   4.837
 8059TIP3    H124122   7.165   7.551   4.759
 8059TIP3    H224123   7.228   7.646   4.858
 8060TIP3   OH224124   4.729   2.403   4.089
 8060TIP3    H124125   4.731   2.366   4.177
 8060TIP3    H224126   4.671   2.345   4.040
 8061TIP3   OH224127   3.717   4.973   2.396
 8061TIP3    H124128   3.649   4.921   2.352
 8061TIP3    H224129   3.668   5.039   2.445
 8062TIP3   OH224130   5.119   3.949   4.092
 8062TIP3    H124131   5.051   3.929   4.157
 8062TIP3    H224132   5.130   4.044   4.096
 8063TIP3   OH224133   8.206   6.161   0.422
 8063TIP3    H124134   8.130   6.218   0.422
 8063TIP3    H224135   8.275   6.212   0.464
 8064TIP3   OH224136   0.554   7.290   0.532
 8064TIP3    H124137   0.527   7.375   0.496
 8064TIP3    H224138   0.494   7.275   0.605
 8065TIP3   OH224139   1.319   5.664   5.031
 8065TIP3    H124140   1.379   5.684   5.103
 8065TIP3    H224141   1.333   5.735   4.968
 8066TIP3   OH224142   7.060   4.864   1.405
 8066TIP3    H124143   6.988   4.919   1.436
 8066TIP3    H224144   7.026   4.823   1.325
 8067TIP3   OH224145   0.944   2.273   2.404
 8067TIP3    H124146   1.009   2.203   2.412
 8067TIP3    H224147   0.945   2.317   2.490
 8068TIP3   OH224148   7.911   1.265   5.510
 8068TIP3    H124149   7.842   1.264   5.577
 8068TIP3    H224150   7.872   1.309   5.435
 8069TIP3   OH224151   4.595   1.218   2.593
 8069TIP3    H124152   4.589   1.252   2.504
 8069TIP3    H224153   4.654   1.144   2.587
 8070TIP3   OH224154   2.079   3.775   1.361
 8070TIP3    H124155   2.030   3.718   1.420
 8070TIP3    H224156   2.167   3.779   1.400
 8071TIP3   OH224157   1.958   6.190   2.776
 8071TIP3    H124158   1.981   6.149   2.860
 8071TIP3    H224159   2.035   6.178   2.722
 8072TIP3   OH224160   1.110   2.420   3.439
 8072TIP3    H124161   1.117   2.358   3.512
 8072TIP3    H224162   1.148   2.373   3.365
 8073TIP3   OH224163   0.894   6.865   3.510
 8073TIP3    H124164   0.957   6.904   3.449
 8073TIP3    H224165   0.902   6.918   3.590
 8074TIP3   OH224166   7.938   1.695   3.590
 8074TIP3    H124167   8.021   1.688   3.637
 8074TIP3    H224168   7.872   1.689   3.659
 8075TIP3   OH224169   5.440   0.279   6.306
 8075TIP3    H124170   5.357   0.272   6.353
 8075TIP3    H224171   5.470   0.188   6.297
 8076TIP3   OH224172   1.572   6.635   1.249
 8076TIP3    H124173   1.599   6.726   1.238
 8076TIP3    H224174   1.542   6.630   1.340
 8077TIP3   OH224175   6.409   6.311   5.547
 8077TIP3    H124176   6.451   6.269   5.622
 8077TIP3    H224177   6.423   6.250   5.475
 8078TIP3   OH224178   5.188   5.485   4.261
 8078TIP3    H124179   5.203   5.552   4.193
 8078TIP3    H224180   5.161   5.535   4.338
 8079TIP3   OH224181   3.749   5.000   5.448
 8079TIP3    H124182   3.842   4.977   5.457
 8079TIP3    H224183   3.732   4.991   5.354
 8080TIP3   OH224184   2.752   5.223   1.216
 8080TIP3    H124185   2.801   5.300   1.186
 8080TIP3    H224186   2.812   5.177   1.275
 8081TIP3   OH224187   2.694   4.415   5.226
 8081TIP3    H124188   2.722   4.486   5.283
 8081TIP3    H224189   2.683   4.340   5.285
 8082TIP3   OH224190   0.315   3.039   1.224
 8082TIP3    H124191   0.240   2.996   1.183
 8082TIP3    H224192   0.390   2.986   1.200
 8083TIP3   OH224193   6.855   3.677   6.798
 8083TIP3    H124194   6.901   3.598   6.771
 8083TIP3    H224195   6.776   3.645   6.841
 8084TIP3   OH224196   2.175   6.832   4.809
 8084TIP3    H124197   2.220   6.748   4.824
 8084TIP3    H224198   2.143   6.826   4.719
 8085TIP3   OH224199   7.119   0.120   4.817
 8085TIP3    H124200   7.148   0.122   4.726
 8085TIP3    H224201   7.112   0.027   4.837
 8086TIP3   OH224202   1.880   2.033   2.495
 8086TIP3    H124203   1.932   2.086   2.435
 8086TIP3    H224204   1.802   2.010   2.444
 8087TIP3   OH224205   2.400   0.062   4.244
 8087TIP3    H124206   2.321   0.086   4.292
 8087TIP3    H224207   2.417   0.136   4.186
 8088TIP3   OH224208   5.548   3.852   4.261
 8088TIP3    H124209   5.643   3.849   4.246
 8088TIP3    H224210   5.533   3.786   4.328
 8089TIP3   OH224211   0.836   6.655   1.691
 8089TIP3    H124212   0.765   6.601   1.656
 8089TIP3    H224213   0.804   6.686   1.776
 8090TIP3   OH224214   4.818   7.202   3.176
 8090TIP3    H124215   4.844   7.117   3.142
 8090TIP3    H224216   4.867   7.211   3.258
 8091TIP3   OH224217   7.689   6.707   6.685
 8091TIP3    H124218   7.774   6.685   6.647
 8091TIP3    H224219   7.648   6.764   6.620
 8092TIP3   OH224220   2.749   2.748   6.559
 8092TIP3    H124221   2.738   2.743   6.654
 8092TIP3    H224222   2.834   2.788   6.547
 8093TIP3   OH224223   2.434   4.732   5.704
 8093TIP3    H124224   2.384   4.789   5.646
 8093TIP3    H224225   2.370   4.674   5.744
 8094TIP3   OH224226   1.785   3.888   4.038
 8094TIP3    H124227   1.793   3.866   4.131
 8094TIP3    H224228   1.861   3.943   4.020
 8095TIP3   OH224229   5.003   3.559   2.953
 8095TIP3    H124230   5.047   3.644   2.960
 8095TIP3    H224231   4.973   3.555   2.863
 8096TIP3   OH224232   6.154   1.718   1.833
 8096TIP3    H124233   6.109   1.664   1.768
 8096TIP3    H224234   6.211   1.775   1.782
 8097TIP3   OH224235   1.097   1.383   2.727
 8097TIP3    H124236   1.064   1.359   2.640
 8097TIP3    H224237   1.030   1.442   2.762
 8098TIP3   OH224238   2.438   1.086   5.641
 8098TIP3    H124239   2.502   1.023   5.607
 8098TIP3    H224240   2.356   1.060   5.599
 8099TIP3   OH224241   4.868   1.732   2.565
 8099TIP3    H124242   4.961   1.747   2.580
 8099TIP3    H224243   4.848   1.781   2.486
 8100TIP3   OH224244   5.657   6.471   1.283
 8100TIP3    H124245   5.667   6.446   1.192
 8100TIP3    H224246   5.736   6.439   1.326
 8101TIP3   OH224247   1.583   6.311   1.263
 8101TIP3    H124248   1.625   6.298   1.348
 8101TIP3    H224249   1.550   6.401   1.266
 8102TIP3   OH224250   3.503   2.910   4.996
 8102TIP3    H124251   3.463   2.991   5.024
 8102TIP3    H224252   3.570   2.892   5.062
 8103TIP3   OH224253   4.268   5.760   6.371
 8103TIP3    H124254   4.286   5.720   6.286
 8103TIP3    H224255   4.349   5.807   6.394
 8104TIP3   OH224256   6.470   6.272   5.047
 8104TIP3    H124257   6.484   6.303   4.957
 8104TIP3    H224258   6.382   6.235   5.046
 8105TIP3   OH224259   2.884   6.634   2.263
 8105TIP3    H124260   2.796   6.660   2.234
 8105TIP3    H224261   2.931   6.615   2.182
 8106TIP3   OH224262   1.697   5.856   4.638
 8106TIP3    H124263   1.660   5.938   4.671
 8106TIP3    H224264   1.633   5.790   4.662
 8107TIP3   OH224265   2.214   0.273   4.682
 8107TIP3    H124266   2.282   0.206   4.693
 8107TIP3    H224267   2.137   0.236   4.725
 8108TIP3   OH224268   7.897   6.998   5.002
 8108TIP3    H124269   7.948   6.983   5.082
 8108TIP3    H224270   7.808   6.970   5.024
 8109TIP3   OH224271   7.359   0.294   1.189
 8109TIP3    H124272   7.380   0.224   1.128
 8109TIP3    H224273   7.268   0.278   1.214
 8110TIP3   OH224274   7.944   2.856   0.518
 8110TIP3    H124275   7.938   2.780   0.576
 8110TIP3    H224276   7.863   2.854   0.467
 8111TIP3   OH224277   1.971   0.555   5.538
 8111TIP3    H124278   2.014   0.634   5.572
 8111TIP3    H224279   2.041   0.490   5.532
 8112TIP3   OH224280   0.787   6.763   0.310
 8112TIP3    H124281   0.838   6.816   0.250
 8112TIP3    H224282   0.845   6.750   0.386
 8113TIP3   OH224283   5.220   6.546   2.100
 8113TIP3    H124284   5.301   6.504   2.129
 8113TIP3    H224285   5.186   6.589   2.178
 8114TIP3   OH224286   0.610   0.993   5.089
 8114TIP3    H124287   0.555   1.069   5.109
 8114TIP3    H224288   0.574   0.922   5.142
 8115TIP3   OH224289   1.281   4.745   4.929
 8115TIP3    H124290   1.252   4.836   4.926
 8115TIP3    H224291   1.214   4.697   4.880
 8116TIP3   OH224292   1.194   2.743   5.335
 8116TIP3    H124293   1.112   2.694   5.339
 8116TIP3    H224294   1.234   2.718   5.252
 8117TIP3   OH224295   5.440   0.956   3.011
 8117TIP3    H124296   5.386   0.962   3.090
 8117TIP3    H224297   5.529   0.948   3.045
 8118TIP3   OH224298   5.753   0.356   6.619
 8118TIP3    H124299   5.732   0.389   6.531
 8118TIP3    H224300   5.817   0.287   6.603
 8119TIP3   OH224301   0.617   4.173   5.574
 8119TIP3    H124302   0.684   4.172   5.506
 8119TIP3    H224303   0.661   4.208   5.651
 8120TIP3   OH224304   2.396   7.072   0.242
 8120TIP3    H124305   2.352   7.148   0.204
 8120TIP3    H224306   2.464   7.109   0.299
 8121TIP3   OH224307   4.482   0.713   1.348
 8121TIP3    H124308   4.446   0.789   1.394
 8121TIP3    H224309   4.524   0.661   1.416
 8122TIP3   OH224310   8.102   5.222   3.645
 8122TIP3    H124311   8.114   5.288   3.714
 8122TIP3    H224312   8.081   5.142   3.693
 8123TIP3   OH224313   1.177   3.518   4.411
 8123TIP3    H124314   1.219   3.584   4.466
 8123TIP3    H224315   1.237   3.444   4.413
 8124TIP3   OH224316   6.115   3.558   3.531
 8124TIP3    H124317   6.169   3.586   3.457
 8124TIP3    H224318   6.164   3.586   3.608
 8125TIP3   OH224319   7.150   3.634   5.928
 8125TIP3    H124320   7.107   3.713   5.897
 8125TIP3    H224321   7.224   3.621   5.869
 8126TIP3   OH224322   2.612   6.364   2.926
 8126TIP3    H124323   2.604   6.273   2.897
 8126TIP3    H224324   2.696   6.394   2.892
 8127TIP3   OH224325   4.703   3.555   0.982
 8127TIP3    H124326   4.630   3.551   1.043
 8127TIP3    H224327   4.777   3.586   1.035
 8128TIP3   OH224328   7.213   0.288   2.055
 8128TIP3    H124329   7.135   0.233   2.066
 8128TIP3    H224330   7.271   0.262   2.126
 8129TIP3   OH224331   4.125   2.361   5.336
 8129TIP3    H124332   4.139   2.437   5.392
 8129TIP3    H224333   4.051   2.315   5.377
 8130TIP3   OH224334   7.107   2.266   1.477
 8130TIP3    H124335   7.170   2.195   1.463
 8130TIP3    H224336   7.075   2.252   1.566
 8131TIP3   OH224337   7.165   0.535   4.942
 8131TIP3    H124338   7.196   0.623   4.920
 8131TIP3    H224339   7.075   0.533   4.908
 8132TIP3   OH224340   0.447   4.513   6.440
 8132TIP3    H124341   0.463   4.587   6.380
 8132TIP3    H224342   0.372   4.541   6.492
 8133TIP3   OH224343   0.882   5.699   2.040
 8133TIP3    H124344   0.874   5.794   2.044
 8133TIP3    H224345   0.841   5.675   1.957
 8134TIP3   OH224346   4.153   0.522   5.254
 8134TIP3    H124347   4.111   0.462   5.192
 8134TIP3    H224348   4.083   0.550   5.312
 8135TIP3   OH224349   8.149   7.595   2.833
 8135TIP3    H124350   8.177   7.676   2.875
 8135TIP3    H224351   8.137   7.618   2.741
 8136TIP3   OH224352   2.815   5.348   0.403
 8136TIP3    H124353   2.858   5.264   0.415
 8136TIP3    H224354   2.886   5.407   0.377
 8137TIP3   OH224355   1.790   2.070   5.543
 8137TIP3    H124356   1.796   2.134   5.473
 8137TIP3    H224357   1.739   1.998   5.506
 8138TIP3   OH224358   8.221   0.381   0.919
 8138TIP3    H124359   8.180   0.435   0.987
 8138TIP3    H224360   8.308   0.419   0.907
 8139TIP3   OH224361   7.958   0.638   3.861
 8139TIP3    H124362   7.900   0.632   3.938
 8139TIP3    H224363   7.898   0.635   3.786
 8140TIP3   OH224364   8.306   6.354   0.690
 8140TIP3    H124365   8.394   6.349   0.726
 8140TIP3    H224366   8.299   6.444   0.658
 8141TIP3   OH224367   1.017   5.364   5.094
 8141TIP3    H124368   1.043   5.380   5.185
 8141TIP3    H224369   1.098   5.369   5.044
 8142TIP3   OH224370   3.937   5.156   6.513
 8142TIP3    H124371   3.919   5.247   6.539
 8142TIP3    H224372   3.865   5.134   6.454
 8143TIP3   OH224373   1.829   7.688   1.362
 8143TIP3    H124374   1.915   7.725   1.377
 8143TIP3    H224375   1.773   7.729   1.428
 8144TIP3   OH224376   4.429   6.347   6.657
 8144TIP3    H124377   4.476   6.330   6.575
 8144TIP3    H224378   4.343   6.308   6.644
 8145TIP3   OH224379   7.412   0.491   6.629
 8145TIP3    H124380   7.320   0.518   6.618
 8145TIP3    H224381   7.421   0.475   6.723
 8146TIP3   OH224382   8.252   2.616   5.283
 8146TIP3    H124383   8.174   2.580   5.327
 8146TIP3    H224384   8.322   2.609   5.348
 8147TIP3   OH224385   5.656   0.363   5.457
 8147TIP3    H124386   5.748   0.379   5.436
 8147TIP3    H224387   5.640   0.414   5.537
 8148TIP3   OH224388   2.066   5.083   2.141
 8148TIP3    H124389   2.046   5.059   2.231
 8148TIP3    H224390   2.144   5.138   2.147
 8149TIP3   OH224391   3.341   4.849   5.726
 8149TIP3    H124392   3.349   4.943   5.743
 8149TIP3    H224393   3.358   4.840   5.632
 8150TIP3   OH224394   0.047   2.964   5.020
 8150TIP3    H124395  -0.036   2.964   5.069
 8150TIP3    H224396   0.079   2.874   5.026
 8151TIP3   OH224397   2.292   1.526   2.218
 8151TIP3    H124398   2.282   1.601   2.159
 8151TIP3    H224399   2.204   1.512   2.254
 8152TIP3   OH224400   2.256   6.396   3.934
 8152TIP3    H124401   2.180   6.424   3.883
 8152TIP3    H224402   2.264   6.302   3.916
 8153TIP3   OH224403   6.903   7.059   2.342
 8153TIP3    H124404   6.873   7.062   2.433
 8153TIP3    H224405   6.998   7.071   2.348
 8154TIP3   OH224406   4.333   3.738   5.848
 8154TIP3    H124407   4.374   3.768   5.767
 8154TIP3    H224408   4.261   3.682   5.821
 8155TIP3   OH224409   4.819   6.360   4.425
 8155TIP3    H124410   4.826   6.393   4.514
 8155TIP3    H224411   4.772   6.277   4.434
 8156TIP3   OH224412   8.049   0.799   1.626
 8156TIP3    H124413   7.975   0.773   1.572
 8156TIP3    H224414   8.026   0.770   1.715
 8157TIP3   OH224415   0.925   1.452   0.895
 8157TIP3    H124416   0.918   1.357   0.896
 8157TIP3    H224417   0.845   1.483   0.938
 8158TIP3   OH224418   5.284   4.796   2.786
 8158TIP3    H124419   5.272   4.859   2.857
 8158TIP3    H224420   5.318   4.718   2.828
 8159TIP3   OH224421   3.834   0.270   4.451
 8159TIP3    H124422   3.770   0.330   4.412
 8159TIP3    H224423   3.795   0.246   4.536
 8160TIP3   OH224424   1.086   1.751   5.295
 8160TIP3    H124425   1.122   1.821   5.240
 8160TIP3    H224426   1.049   1.797   5.371
 8161TIP3   OH224427   6.931   7.199   2.588
 8161TIP3    H124428   6.852   7.250   2.607
 8161TIP3    H224429   6.943   7.145   2.665
 8162TIP3   OH224430   4.542   1.557   5.617
 8162TIP3    H124431   4.628   1.590   5.589
 8162TIP3    H224432   4.512   1.503   5.543
 8163TIP3   OH224433   0.439   3.011   2.024
 8163TIP3    H124434   0.467   2.926   2.059
 8163TIP3    H224435   0.427   2.995   1.930
 8164TIP3   OH224436   6.400   5.860   1.774
 8164TIP3    H124437   6.467   5.923   1.801
 8164TIP3    H224438   6.411   5.786   1.835
 8165TIP3   OH224439   5.168   7.674   6.323
 8165TIP3    H124440   5.148   7.599   6.268
 8165TIP3    H224441   5.245   7.647   6.374
 8166TIP3   OH224442   2.308   7.197   2.990
 8166TIP3    H124443   2.250   7.271   2.969
 8166TIP3    H224444   2.249   7.124   3.005
 8167TIP3   OH224445   1.021   1.059   2.218
 8167TIP3    H124446   0.984   1.113   2.287
 8167TIP3    H224447   0.975   0.976   2.226
 8168TIP3   OH224448   7.127   5.916   4.278
 8168TIP3    H124449   7.039   5.909   4.313
 8168TIP3    H224450   7.133   5.846   4.212
 8169TIP3   OH224451   6.756   0.578   4.041
 8169TIP3    H124452   6.821   0.536   4.098
 8169TIP3    H224453   6.696   0.622   4.101
 8170TIP3   OH224454   1.553   1.583   0.593
 8170TIP3    H124455   1.542   1.508   0.535
 8170TIP3    H224456   1.546   1.547   0.681
 8171TIP3   OH224457   5.019   3.180   2.565
 8171TIP3    H124458   5.061   3.149   2.645
 8171TIP3    H224459   4.986   3.100   2.522
 8172TIP3   OH224460   5.821   3.656   1.500
 8172TIP3    H124461   5.771   3.683   1.577
 8172TIP3    H224462   5.884   3.727   1.486
 8173TIP3   OH224463   4.995   2.937   2.453
 8173TIP3    H124464   4.929   2.881   2.412
 8173TIP3    H224465   5.073   2.882   2.458
 8174TIP3   OH224466   1.978   3.354   4.628
 8174TIP3    H124467   1.960   3.447   4.641
 8174TIP3    H224468   1.892   3.314   4.616
 8175TIP3   OH224469   2.339   3.564   3.773
 8175TIP3    H124470   2.375   3.652   3.761
 8175TIP3    H224471   2.245   3.575   3.760
 8176TIP3   OH224472   3.301   3.322   4.068
 8176TIP3    H124473   3.216   3.307   4.026
 8176TIP3    H224474   3.280   3.374   4.146
 8177TIP3   OH224475   8.138   0.124   3.795
 8177TIP3    H124476   8.043   0.111   3.803
 8177TIP3    H224477   8.174   0.079   3.871
 8178TIP3   OH224478   8.054   5.085   0.181
 8178TIP3    H124479   8.111   5.093   0.257
 8178TIP3    H224480   8.101   5.130   0.111
 8179TIP3   OH224481   3.405   0.764   0.452
 8179TIP3    H124482   3.318   0.759   0.413
 8179TIP3    H224483   3.409   0.851   0.492
 8180TIP3   OH224484   7.164   7.360   2.662
 8180TIP3    H124485   7.230   7.299   2.696
 8180TIP3    H224486   7.097   7.303   2.623
 8181TIP3   OH224487   1.723   1.970   4.426
 8181TIP3    H124488   1.794   1.910   4.399
 8181TIP3    H224489   1.730   2.044   4.365
 8182TIP3   OH224490   5.105   7.573   3.841
 8182TIP3    H124491   5.012   7.595   3.852
 8182TIP3    H224492   5.106   7.509   3.770
 8183TIP3   OH224493   1.631   2.302   5.096
 8183TIP3    H124494   1.545   2.308   5.055
 8183TIP3    H224495   1.679   2.378   5.063
 8184TIP3   OH224496   7.199   5.673   0.381
 8184TIP3    H124497   7.110   5.644   0.363
 8184TIP3    H224498   7.190   5.745   0.442
 8185TIP3   OH224499   7.587   3.739   5.404
 8185TIP3    H124500   7.503   3.703   5.375
 8185TIP3    H224501   7.632   3.665   5.445
 8186TIP3   OH224502   2.629   4.157   4.957
 8186TIP3    H124503   2.677   4.086   4.914
 8186TIP3    H224504   2.638   4.139   5.051
 8187TIP3   OH224505   6.946   0.501   5.450
 8187TIP3    H124506   6.883   0.572   5.432
 8187TIP3    H224507   6.921   0.470   5.537
 8188TIP3   OH224508   4.119   2.153   1.578
 8188TIP3    H124509   4.048   2.088   1.576
 8188TIP3    H224510   4.118   2.193   1.491
 8189TIP3   OH224511   4.932   2.635   5.078
 8189TIP3    H124512   4.919   2.722   5.041
 8189TIP3    H224513   4.869   2.630   5.150
 8190TIP3   OH224514   6.642   5.150   5.988
 8190TIP3    H124515   6.574   5.083   5.990
 8190TIP3    H224516   6.607   5.218   5.930
 8191TIP3   OH224517   3.831   2.040   5.109
 8191TIP3    H124518   3.836   2.114   5.048
 8191TIP3    H224519   3.785   1.972   5.060
 8192TIP3   OH224520   3.128   4.435   2.364
 8192TIP3    H124521   3.134   4.529   2.379
 8192TIP3    H224522   3.099   4.398   2.447
 8193TIP3   OH224523   4.518   0.498   1.848
 8193TIP3    H124524   4.585   0.505   1.916
 8193TIP3    H224525   4.435   0.509   1.894
 8194TIP3   OH224526   7.432   0.611   5.196
 8194TIP3    H124527   7.366   0.541   5.191
 8194TIP3    H224528   7.471   0.613   5.109
 8195TIP3   OH224529   2.102   0.172   0.244
 8195TIP3    H124530   2.060   0.229   0.308
 8195TIP3    H224531   2.033   0.110   0.219
 8196TIP3   OH224532   3.262   0.451   2.314
 8196TIP3    H124533   3.286   0.543   2.304
 8196TIP3    H224534   3.295   0.427   2.401
 8197TIP3   OH224535   5.213   3.807   1.394
 8197TIP3    H124536   5.221   3.740   1.461
 8197TIP3    H224537   5.154   3.770   1.328
 8198TIP3   OH224538   5.193   7.408   2.033
 8198TIP3    H124539   5.214   7.379   1.945
 8198TIP3    H224540   5.276   7.444   2.066
 8199TIP3   OH224541   8.221   2.178   5.508
 8199TIP3    H124542   8.135   2.136   5.506
 8199TIP3    H224543   8.249   2.180   5.417
 8200TIP3   OH224544   0.640   3.175   4.673
 8200TIP3    H124545   0.575   3.179   4.743
 8200TIP3    H224546   0.593   3.138   4.599
 8201TIP3   OH224547   3.160   0.633   6.216
 8201TIP3    H124548   3.137   0.724   6.199
 8201TIP3    H224549   3.101   0.606   6.286
 8202TIP3   OH224550   1.818   3.150   4.887
 8202TIP3    H124551   1.801   3.071   4.836
 8202TIP3    H224552   1.787   3.222   4.832
 8203TIP3   OH224553   4.564   0.612   2.602
 8203TIP3    H124554   4.652   0.592   2.569
 8203TIP3    H224555   4.512   0.534   2.580
 8204TIP3   OH224556   0.380   1.603   5.969
 8204TIP3    H124557   0.442   1.670   5.941
 8204TIP3    H224558   0.345   1.566   5.888
 8205TIP3   OH224559   7.264   3.738   6.729
 8205TIP3    H124560   7.261   3.811   6.791
 8205TIP3    H224561   7.321   3.769   6.659
 8206TIP3   OH224562   8.059   5.639   4.389
 8206TIP3    H124563   8.023   5.552   4.402
 8206TIP3    H224564   8.117   5.653   4.464
 8207TIP3   OH224565   2.437   6.656   5.762
 8207TIP3    H124566   2.476   6.651   5.849
 8207TIP3    H224567   2.363   6.715   5.773
 8208TIP3   OH224568   7.993   4.659   0.692
 8208TIP3    H124569   7.919   4.637   0.749
 8208TIP3    H224570   7.977   4.750   0.667
 8209TIP3   OH224571   1.389   2.978   4.367
 8209TIP3    H124572   1.462   2.924   4.336
 8209TIP3    H224573   1.431   3.058   4.398
 8210TIP3   OH224574   2.418   6.200   2.250
 8210TIP3    H124575   2.336   6.217   2.205
 8210TIP3    H224576   2.407   6.240   2.336
 8211TIP3   OH224577   3.983   3.486   2.911
 8211TIP3    H124578   4.038   3.485   2.988
 8211TIP3    H224579   4.012   3.410   2.859
 8212TIP3   OH224580   4.726   6.492   6.066
 8212TIP3    H124581   4.723   6.416   6.008
 8212TIP3    H224582   4.727   6.454   6.155
 8213TIP3   OH224583   2.952   0.641   0.115
 8213TIP3    H124584   2.963   0.711   0.050
 8213TIP3    H224585   2.900   0.681   0.185
 8214TIP3   OH224586   0.086   6.640   0.556
 8214TIP3    H124587   0.053   6.693   0.483
 8214TIP3    H224588   0.176   6.672   0.569
 8215TIP3   OH224589   1.415   0.805   2.526
 8215TIP3    H124590   1.452   0.835   2.443
 8215TIP3    H224591   1.384   0.717   2.508
 8216TIP3   OH224592   2.988   2.607   0.510
 8216TIP3    H124593   2.963   2.699   0.501
 8216TIP3    H224594   3.068   2.609   0.563
 8217TIP3   OH224595   3.347   2.358   3.702
 8217TIP3    H124596   3.295   2.339   3.625
 8217TIP3    H224597   3.383   2.446   3.687
 8218TIP3   OH224598   0.712   5.857   0.948
 8218TIP3    H124599   0.678   5.868   0.859
 8218TIP3    H224600   0.805   5.842   0.936
 8219TIP3   OH224601   0.551   4.063   6.573
 8219TIP3    H124602   0.579   4.147   6.535
 8219TIP3    H224603   0.627   4.005   6.562
 8220TIP3   OH224604   7.633   7.022   4.822
 8220TIP3    H124605   7.553   6.993   4.777
 8220TIP3    H224606   7.663   6.944   4.869
 8221TIP3   OH224607   7.564   0.336   0.313
 8221TIP3    H124608   7.658   0.341   0.329
 8221TIP3    H224609   7.525   0.320   0.399
 8222TIP3   OH224610   5.033   5.351   5.104
 8222TIP3    H124611   4.974   5.376   5.175
 8222TIP3    H224612   5.116   5.394   5.125
 8223TIP3   OH224613   2.171   5.185   4.536
 8223TIP3    H124614   2.260   5.214   4.516
 8223TIP3    H224615   2.148   5.231   4.616
 8224TIP3   OH224616   0.443   4.355   2.045
 8224TIP3    H124617   0.503   4.312   1.985
 8224TIP3    H224618   0.462   4.449   2.036
 8225TIP3   OH224619   8.212   6.295   5.359
 8225TIP3    H124620   8.202   6.267   5.450
 8225TIP3    H224621   8.291   6.250   5.328
 8226TIP3   OH224622   7.671   6.183   1.086
 8226TIP3    H124623   7.736   6.253   1.082
 8226TIP3    H224624   7.708   6.120   1.148
 8227TIP3   OH224625   5.226   1.118   0.213
 8227TIP3    H124626   5.233   1.198   0.162
 8227TIP3    H224627   5.224   1.147   0.304
 8228TIP3   OH224628   0.196   7.739   1.047
 8228TIP3    H124629   0.287   7.718   1.025
 8228TIP3    H224630   0.200   7.826   1.087
 8229TIP3   OH224631   7.554   0.719   6.063
 8229TIP3    H124632   7.502   0.706   6.143
 8229TIP3    H224633   7.592   0.633   6.045
 8230TIP3   OH224634   5.630   1.305   6.378
 8230TIP3    H124635   5.655   1.271   6.464
 8230TIP3    H224636   5.713   1.326   6.335
 8231TIP3   OH224637   1.382   1.532   2.469
 8231TIP3    H124638   1.362   1.524   2.562
 8231TIP3    H224639   1.423   1.618   2.461
 8232TIP3   OH224640   3.852   6.244   6.548
 8232TIP3    H124641   3.796   6.224   6.472
 8232TIP3    H224642   3.847   6.165   6.602
 8233TIP3   OH224643   0.687   6.323   4.104
 8233TIP3    H124644   0.644   6.290   4.025
 8233TIP3    H224645   0.615   6.350   4.160
 8234TIP3   OH224646   1.704   0.531   1.641
 8234TIP3    H124647   1.636   0.514   1.706
 8234TIP3    H224648   1.762   0.456   1.645
 8235TIP3   OH224649   7.459   7.598   2.778
 8235TIP3    H124650   7.421   7.663   2.838
 8235TIP3    H224651   7.546   7.581   2.814
 8236TIP3   OH224652   5.303   4.526   6.544
 8236TIP3    H124653   5.380   4.544   6.489
 8236TIP3    H224654   5.230   4.523   6.483
 8237TIP3   OH224655   6.870   6.452   0.828
 8237TIP3    H124656   6.957   6.491   0.836
 8237TIP3    H224657   6.820   6.488   0.901
 8238TIP3   OH224658   5.829   0.682   0.762
 8238TIP3    H124659   5.922   0.673   0.740
 8238TIP3    H224660   5.790   0.725   0.686
 8239TIP3   OH224661   2.396   4.711   0.257
 8239TIP3    H124662   2.319   4.661   0.283
 8239TIP3    H224663   2.431   4.748   0.338
 8240TIP3   OH224664   5.751   0.670   3.305
 8240TIP3    H124665   5.831   0.628   3.336
 8240TIP3    H224666   5.684   0.645   3.369
 8241TIP3   OH224667   3.219   3.230   6.629
 8241TIP3    H124668   3.209   3.137   6.611
 8241TIP3    H224669   3.276   3.235   6.705
 8242TIP3   OH224670   6.693   2.362   5.979
 8242TIP3    H124671   6.728   2.274   5.994
 8242TIP3    H224672   6.604   2.348   5.949
 8243TIP3   OH224673   8.192   1.544   1.884
 8243TIP3    H124674   8.221   1.455   1.864
 8243TIP3    H224675   8.212   1.594   1.804
 8244TIP3   OH224676   5.013   0.661   2.126
 8244TIP3    H124677   5.057   0.596   2.181
 8244TIP3    H224678   5.082   0.721   2.099
 8245TIP3   OH224679   0.794   3.531   1.344
 8245TIP3    H124680   0.785   3.562   1.254
 8245TIP3    H224681   0.810   3.437   1.335
 8246TIP3   OH224682   4.301   6.796   1.466
 8246TIP3    H124683   4.305   6.719   1.410
 8246TIP3    H224684   4.240   6.772   1.536
 8247TIP3   OH224685   7.417   6.687   2.387
 8247TIP3    H124686   7.447   6.748   2.319
 8247TIP3    H224687   7.350   6.735   2.435
 8248TIP3   OH224688   7.394   4.478   3.435
 8248TIP3    H124689   7.471   4.488   3.380
 8248TIP3    H224690   7.383   4.562   3.479
 8249TIP3   OH224691   6.977   0.405   4.061
 8249TIP3    H124692   7.009   0.415   4.151
 8249TIP3    H224693   7.020   0.476   4.012
 8250TIP3   OH224694   5.829   4.603   6.079
 8250TIP3    H124695   5.750   4.555   6.055
 8250TIP3    H224696   5.842   4.666   6.008
 8251TIP3   OH224697   5.548   2.512   4.789
 8251TIP3    H124698   5.498   2.594   4.786
 8251TIP3    H224699   5.482   2.445   4.803
 8252TIP3   OH224700   2.120   1.178   1.636
 8252TIP3    H124701   2.065   1.109   1.599
 8252TIP3    H224702   2.083   1.196   1.722
 8253TIP3   OH224703   6.867   2.498   5.772
 8253TIP3    H124704   6.807   2.425   5.787
 8253TIP3    H224705   6.810   2.575   5.763
 8254TIP3   OH224706   1.662   2.891   3.091
 8254TIP3    H124707   1.571   2.915   3.071
 8254TIP3    H224708   1.712   2.971   3.074
 8255TIP3   OH224709   5.765   3.539   6.223
 8255TIP3    H124710   5.824   3.543   6.299
 8255TIP3    H224711   5.818   3.500   6.154
 8256TIP3   OH224712   8.255   4.420   1.607
 8256TIP3    H124713   8.177   4.382   1.647
 8256TIP3    H224714   8.292   4.475   1.676
 8257TIP3   OH224715   3.768   1.159   3.982
 8257TIP3    H124716   3.718   1.219   3.926
 8257TIP3    H224717   3.854   1.200   3.990
 8258TIP3   OH224718   8.134   4.150   3.387
 8258TIP3    H124719   8.203   4.084   3.379
 8258TIP3    H224720   8.055   4.101   3.406
 8259TIP3   OH224721   1.820   6.504   1.232
 8259TIP3    H124722   1.872   6.496   1.312
 8259TIP3    H224723   1.746   6.559   1.257
 8260TIP3   OH224724   7.716   0.462   5.277
 8260TIP3    H124725   7.686   0.551   5.263
 8260TIP3    H224726   7.697   0.444   5.369
 8261TIP3   OH224727   3.453   5.007   2.920
 8261TIP3    H124728   3.438   4.915   2.899
 8261TIP3    H224729   3.534   5.007   2.973
 8262TIP3   OH224730   3.851   2.093   4.027
 8262TIP3    H124731   3.821   2.002   4.029
 8262TIP3    H224732   3.772   2.144   4.009
 8263TIP3   OH224733   0.362   3.863   0.763
 8263TIP3    H124734   0.389   3.952   0.787
 8263TIP3    H224735   0.286   3.845   0.819
 8264TIP3   OH224736   7.032   1.911   2.238
 8264TIP3    H124737   7.006   1.822   2.213
 8264TIP3    H224738   7.127   1.912   2.231
 8265TIP3   OH224739   3.123   4.061   1.355
 8265TIP3    H124740   3.218   4.064   1.363
 8265TIP3    H224741   3.107   3.990   1.292
 8266TIP3   OH224742   3.005   4.303   4.881
 8266TIP3    H124743   3.003   4.268   4.970
 8266TIP3    H224744   3.000   4.398   4.892
 8267TIP3   OH224745   5.625   4.201  -0.032
 8267TIP3    H124746   5.618   4.244   0.054
 8267TIP3    H224747   5.600   4.111  -0.016
 8268TIP3   OH224748   6.439   5.439   0.917
 8268TIP3    H124749   6.400   5.465   0.833
 8268TIP3    H224750   6.531   5.465   0.910
 8269TIP3   OH224751   6.874   1.099   6.065
 8269TIP3    H124752   6.948   1.160   6.065
 8269TIP3    H224753   6.837   1.107   6.152
 8270TIP3   OH224754   7.205   6.163   3.632
 8270TIP3    H124755   7.268   6.125   3.570
 8270TIP3    H224756   7.136   6.200   3.577
 8271TIP3   OH224757   4.551   3.297   3.273
 8271TIP3    H124758   4.615   3.329   3.209
 8271TIP3    H224759   4.547   3.202   3.256
 8272TIP3   OH224760   1.977   3.059   3.711
 8272TIP3    H124761   1.910   3.111   3.667
 8272TIP3    H224762   2.007   2.998   3.644
 8273TIP3   OH224763   1.400   3.398   2.908
 8273TIP3    H124764   1.372   3.333   2.844
 8273TIP3    H224765   1.491   3.374   2.928
 8274TIP3   OH224766   2.832   5.281   5.771
 8274TIP3    H124767   2.756   5.260   5.719
 8274TIP3    H224768   2.802   5.273   5.862
 8275TIP3   OH224769   3.297   4.971   6.325
 8275TIP3    H124770   3.289   5.066   6.332
 8275TIP3    H224771   3.298   4.954   6.230
 8276TIP3   OH224772   5.417   2.314   5.716
 8276TIP3    H124773   5.389   2.356   5.797
 8276TIP3    H224774   5.352   2.246   5.700
 8277TIP3   OH224775   2.463   2.585   5.436
 8277TIP3    H124776   2.487   2.564   5.526
 8277TIP3    H224777   2.372   2.557   5.428
 8278TIP3   OH224778   1.647   4.964   6.023
 8278TIP3    H124779   1.731   5.005   6.045
 8278TIP3    H224780   1.671   4.876   5.994
 8279TIP3   OH224781   6.335   5.822   0.333
 8279TIP3    H124782   6.385   5.742   0.316
 8279TIP3    H224783   6.322   5.861   0.247
 8280TIP3   OH224784   0.733   5.345   3.689
 8280TIP3    H124785   0.820   5.304   3.683
 8280TIP3    H224786   0.694   5.308   3.768
 8281TIP3   OH224787   7.377   2.571   0.451
 8281TIP3    H124788   7.397   2.490   0.404
 8281TIP3    H224789   7.350   2.632   0.383
 8282TIP3   OH224790   6.741   7.191   0.669
 8282TIP3    H124791   6.716   7.272   0.626
 8282TIP3    H224792   6.670   7.174   0.731
 8283TIP3   OH224793   0.172  -0.049   6.522
 8283TIP3    H124794   0.240  -0.002   6.571
 8283TIP3    H224795   0.102   0.015   6.511
 8284TIP3   OH224796   1.580   3.044   5.832
 8284TIP3    H124797   1.622   3.019   5.750
 8284TIP3    H224798   1.563   3.138   5.823
 8285TIP3   OH224799   7.932   6.034   0.342
 8285TIP3    H124800   7.877   6.029   0.264
 8285TIP3    H224801   7.915   6.121   0.378
 8286TIP3   OH224802  -0.003   1.730   1.713
 8286TIP3    H124803   0.017   1.679   1.635
 8286TIP3    H224804   0.064   1.798   1.715
 8287TIP3   OH224805   6.986   0.629   3.503
 8287TIP3    H124806   7.027   0.666   3.424
 8287TIP3    H224807   6.988   0.534   3.488
 8288TIP3   OH224808   3.757   0.317   6.132
 8288TIP3    H124809   3.760   0.251   6.062
 8288TIP3    H224810   3.711   0.273   6.204
 8289TIP3   OH224811   2.583   1.767   6.062
 8289TIP3    H124812   2.543   1.725   5.986
 8289TIP3    H224813   2.670   1.728   6.069
 8290TIP3   OH224814   0.937   6.686   2.386
 8290TIP3    H124815   0.905   6.600   2.361
 8290TIP3    H224816   0.861   6.744   2.379
 8291TIP3   OH224817   7.729   4.712   2.230
 8291TIP3    H124818   7.774   4.785   2.273
 8291TIP3    H224819   7.797   4.672   2.174
 8292TIP3   OH224820   3.997   7.239   2.742
 8292TIP3    H124821   4.076   7.191   2.716
 8292TIP3    H224822   3.946   7.176   2.793
 8293TIP3   OH224823   1.600   4.589   1.723
 8293TIP3    H124824   1.512   4.597   1.686
 8293TIP3    H224825   1.657   4.630   1.658
 8294TIP3   OH224826   6.012   2.995   0.314
 8294TIP3    H124827   5.949   3.065   0.296
 8294TIP3    H224828   5.958   2.916   0.319
 8295TIP3   OH224829   0.658   4.532   4.540
 8295TIP3    H124830   0.711   4.460   4.506
 8295TIP3    H224831   0.570   4.514   4.508
 8296TIP3   OH224832   6.312   5.056   2.116
 8296TIP3    H124833   6.363   5.068   2.037
 8296TIP3    H224834   6.343   5.124   2.176
 8297TIP3   OH224835   4.444   4.662   3.899
 8297TIP3    H124836   4.437   4.652   3.994
 8297TIP3    H224837   4.538   4.676   3.884
 8298TIP3   OH224838   2.198   4.488   6.042
 8298TIP3    H124839   2.272   4.546   6.058
 8298TIP3    H224840   2.122   4.546   6.036
 8299TIP3   OH224841   0.200   3.582   5.684
 8299TIP3    H124842   0.277   3.545   5.727
 8299TIP3    H224843   0.163   3.509   5.633
 8300TIP3   OH224844   4.044   2.491   6.440
 8300TIP3    H124845   4.037   2.489   6.535
 8300TIP3    H224846   3.954   2.481   6.409
 8301TIP3   OH224847   5.903   4.068   0.287
 8301TIP3    H124848   5.865   4.008   0.223
 8301TIP3    H224849   5.846   4.062   0.363
 8302TIP3   OH224850   6.033   3.141   5.374
 8302TIP3    H124851   5.942   3.169   5.362
 8302TIP3    H224852   6.034   3.099   5.459
 8303TIP3   OH224853   7.546   4.236   5.795
 8303TIP3    H124854   7.515   4.284   5.718
 8303TIP3    H224855   7.574   4.304   5.856
 8304TIP3   OH224856   7.282   2.220   0.242
 8304TIP3    H124857   7.235   2.137   0.231
 8304TIP3    H224858   7.228   2.269   0.304
 8305TIP3   OH224859   0.648   5.758   5.727
 8305TIP3    H124860   0.671   5.847   5.700
 8305TIP3    H224861   0.679   5.702   5.657
 8306TIP3   OH224862   2.700   3.537   3.319
 8306TIP3    H124863   2.653   3.609   3.363
 8306TIP3    H224864   2.791   3.566   3.315
 8307TIP3   OH224865   6.221   0.813   4.993
 8307TIP3    H124866   6.189   0.831   5.081
 8307TIP3    H224867   6.290   0.878   4.978
 8308TIP3   OH224868   6.619   4.309   1.360
 8308TIP3    H124869   6.545   4.365   1.336
 8308TIP3    H224870   6.654   4.348   1.440
 8309TIP3   OH224871   7.227   0.079   3.691
 8309TIP3    H124872   7.149   0.024   3.696
 8309TIP3    H224873   7.277   0.042   3.619
 8310TIP3   OH224874   0.252   0.998   5.774
 8310TIP3    H124875   0.159   0.982   5.757
 8310TIP3    H224876   0.298   0.947   5.707
 8311TIP3   OH224877   6.456   5.573   3.970
 8311TIP3    H124878   6.385   5.528   3.924
 8311TIP3    H224879   6.414   5.620   4.041
 8312TIP3   OH224880   2.212   0.772   3.342
 8312TIP3    H124881   2.294   0.755   3.295
 8312TIP3    H224882   2.150   0.709   3.304
 8313TIP3   OH224883   5.137   4.839   1.125
 8313TIP3    H124884   5.210   4.872   1.177
 8313TIP3    H224885   5.174   4.765   1.076
 8314TIP3   OH224886   6.416   3.007   3.526
 8314TIP3    H124887   6.427   3.094   3.488
 8314TIP3    H224888   6.354   2.963   3.468
 8315TIP3   OH224889   6.566   2.892   4.774
 8315TIP3    H124890   6.544   2.801   4.795
 8315TIP3    H224891   6.562   2.896   4.678
 8316TIP3   OH224892   5.213   6.226   2.467
 8316TIP3    H124893   5.237   6.317   2.483
 8316TIP3    H224894   5.120   6.230   2.444
 8317TIP3   OH224895   3.474   0.124   0.767
 8317TIP3    H124896   3.501   0.098   0.679
 8317TIP3    H224897   3.529   0.200   0.787
 8318TIP3   OH224898   0.997   1.172   5.205
 8318TIP3    H124899   0.965   1.082   5.201
 8318TIP3    H224900   1.013   1.196   5.114
 8319TIP3   OH224901   4.968   4.763   1.601
 8319TIP3    H124902   4.949   4.807   1.518
 8319TIP3    H224903   4.955   4.670   1.582
 8320TIP3   OH224904   6.733   4.706   6.032
 8320TIP3    H124905   6.675   4.723   5.957
 8320TIP3    H224906   6.777   4.790   6.047
 8321TIP3   OH224907   4.924   7.453   4.045
 8321TIP3    H124908   4.985   7.388   4.012
 8321TIP3    H224909   4.837   7.416   4.028
 8322TIP3   OH224910   1.901   3.875   3.661
 8322TIP3    H124911   1.838   3.822   3.613
 8322TIP3    H224912   1.956   3.914   3.594
 8323TIP3   OH224913   4.333   1.957   6.664
 8323TIP3    H124914   4.348   1.874   6.620
 8323TIP3    H224915   4.239   1.958   6.681
 8324TIP3   OH224916   7.209   3.106   4.839
 8324TIP3    H124917   7.209   3.026   4.891
 8324TIP3    H224918   7.269   3.165   4.886
 8325TIP3   OH224919   2.593   0.310   4.385
 8325TIP3    H124920   2.606   0.404   4.373
 8325TIP3    H224921   2.644   0.270   4.314
 8326TIP3   OH224922   6.568   7.452   3.259
 8326TIP3    H124923   6.487   7.502   3.269
 8326TIP3    H224924   6.637   7.517   3.272
 8327TIP3   OH224925   6.645   4.417   6.768
 8327TIP3    H124926   6.732   4.427   6.806
 8327TIP3    H224927   6.629   4.501   6.724
 8328TIP3   OH224928   1.024   6.869   2.075
 8328TIP3    H124929   0.997   6.777   2.071
 8328TIP3    H224930   1.118   6.867   2.054
 8329TIP3   OH224931   7.737   2.513   0.798
 8329TIP3    H124932   7.653   2.559   0.801
 8329TIP3    H224933   7.725   2.439   0.858
 8330TIP3   OH224934   2.712   3.725   4.298
 8330TIP3    H124935   2.636   3.682   4.336
 8330TIP3    H224936   2.782   3.710   4.362
 8331TIP3   OH224937   0.361   6.587   1.216
 8331TIP3    H124938   0.397   6.660   1.165
 8331TIP3    H224939   0.288   6.626   1.265
 8332TIP3   OH224940   0.514   0.668   1.699
 8332TIP3    H124941   0.581   0.672   1.631
 8332TIP3    H224942   0.439   0.714   1.660
 8333TIP3   OH224943   5.173   6.151   4.675
 8333TIP3    H124944   5.106   6.178   4.612
 8333TIP3    H224945   5.168   6.217   4.744
 8334TIP3   OH224946   4.906   6.955   4.090
 8334TIP3    H124947   4.942   7.028   4.140
 8334TIP3    H224948   4.949   6.877   4.127
 8335TIP3   OH224949   7.643   5.820   3.533
 8335TIP3    H124950   7.665   5.869   3.612
 8335TIP3    H224951   7.692   5.738   3.540
 8336TIP3   OH224952   2.824   6.541   6.303
 8336TIP3    H124953   2.797   6.492   6.381
 8336TIP3    H224954   2.767   6.618   6.302
 8337TIP3   OH224955   3.773   3.974   4.251
 8337TIP3    H124956   3.847   3.975   4.191
 8337TIP3    H224957   3.755   4.067   4.270
 8338TIP3   OH224958   5.403   1.754   0.820
 8338TIP3    H124959   5.494   1.772   0.845
 8338TIP3    H224960   5.373   1.688   0.882
 8339TIP3   OH224961   1.991   7.172   0.241
 8339TIP3    H124962   1.912   7.158   0.189
 8339TIP3    H224963   2.050   7.219   0.183
 8340TIP3   OH224964   6.412   4.437   5.807
 8340TIP3    H124965   6.330   4.421   5.853
 8340TIP3    H224966   6.452   4.351   5.798
 8341TIP3   OH224967   8.161   3.016   4.099
 8341TIP3    H124968   8.111   2.981   4.026
 8341TIP3    H224969   8.101   3.012   4.174
 8342TIP3   OH224970   2.819   5.259   3.183
 8342TIP3    H124971   2.833   5.289   3.093
 8342TIP3    H224972   2.907   5.235   3.213
 8343TIP3   OH224973   3.810   3.650   5.515
 8343TIP3    H124974   3.840   3.738   5.492
 8343TIP3    H224975   3.885   3.609   5.559
 8344TIP3   OH224976   6.517   2.067   3.699
 8344TIP3    H124977   6.573   2.078   3.776
 8344TIP3    H224978   6.443   2.125   3.713
 8345TIP3   OH224979   1.500   4.653   0.213
 8345TIP3    H124980   1.461   4.712   0.148
 8345TIP3    H224981   1.537   4.582   0.161
 8346TIP3   OH224982   3.439   6.248   3.056
 8346TIP3    H124983   3.392   6.165   3.050
 8346TIP3    H224984   3.481   6.260   2.971
 8347TIP3   OH224985   1.756   1.135   2.586
 8347TIP3    H124986   1.794   1.161   2.670
 8347TIP3    H224987   1.792   1.197   2.523
 8348TIP3   OH224988   7.595   4.637   1.916
 8348TIP3    H124989   7.608   4.729   1.894
 8348TIP3    H224990   7.663   4.591   1.867
 8349TIP3   OH224991   4.009   3.786   2.560
 8349TIP3    H124992   4.071   3.826   2.500
 8349TIP3    H224993   3.969   3.715   2.510
 8350TIP3   OH224994   7.227   4.793   1.024
 8350TIP3    H124995   7.215   4.876   1.070
 8350TIP3    H224996   7.184   4.728   1.080
 8351TIP3   OH224997   3.075   4.810   2.823
 8351TIP3    H124998   3.106   4.858   2.746
 8351TIP3    H224999   3.033   4.877   2.877
 8352TIP3   OH225000   5.461   5.428   2.894
 8352TIP3    H125001   5.517   5.505   2.885
 8352TIP3    H225002   5.401   5.450   2.965
 8353TIP3   OH225003   1.296   6.907   5.252
 8353TIP3    H125004   1.356   6.848   5.297
 8353TIP3    H225005   1.239   6.850   5.201
 8354TIP3   OH225006   8.042   5.724   1.838
 8354TIP3    H125007   8.085   5.810   1.844
 8354TIP3    H225008   7.956   5.738   1.878
 8355TIP3   OH225009   1.145   3.292   1.242
 8355TIP3    H125010   1.200   3.290   1.320
 8355TIP3    H225011   1.140   3.200   1.214
 8356TIP3   OH225012   1.469   2.686   2.864
 8356TIP3    H125013   1.551   2.642   2.887
 8356TIP3    H225014   1.419   2.688   2.945
 8357TIP3   OH225015   5.446   4.575   1.246
 8357TIP3    H125016   5.501   4.653   1.249
 8357TIP3    H225017   5.395   4.585   1.165
 8358TIP3   OH225018   2.117   6.450   0.744
 8358TIP3    H125019   2.064   6.529   0.751
 8358TIP3    H225020   2.202   6.481   0.711
 8359TIP3   OH225021   1.289   6.118   5.539
 8359TIP3    H125022   1.340   6.043   5.568
 8359TIP3    H225023   1.203   6.106   5.578
 8360TIP3   OH225024   1.899   3.125   0.773
 8360TIP3    H125025   1.952   3.175   0.835
 8360TIP3    H225026   1.935   3.146   0.687
 8361TIP3   OH225027   6.639   5.901   3.843
 8361TIP3    H125028   6.709   5.839   3.865
 8361TIP3    H225029   6.662   5.981   3.889
 8362TIP3   OH225030   6.247   0.053   0.598
 8362TIP3    H125031   6.216   0.104   0.523
 8362TIP3    H225032   6.341   0.042   0.582
 8363TIP3   OH225033   6.880   3.064   3.438
 8363TIP3    H125034   6.802   3.030   3.395
 8363TIP3    H225035   6.849   3.136   3.492
 8364TIP3   OH225036   6.473   3.621   2.046
 8364TIP3    H125037   6.504   3.641   2.134
 8364TIP3    H225038   6.507   3.692   1.992
 8365TIP3   OH225039   2.709   1.581   2.098
 8365TIP3    H125040   2.664   1.523   2.158
 8365TIP3    H225041   2.641   1.608   2.035
 8366TIP3   OH225042   3.097   3.335   1.632
 8366TIP3    H125043   3.114   3.249   1.671
 8366TIP3    H225044   3.097   3.396   1.706
 8367TIP3   OH225045   5.254   0.874   5.528
 8367TIP3    H125046   5.163   0.846   5.539
 8367TIP3    H225047   5.251   0.969   5.536
 8368TIP3   OH225048   6.919   1.645   6.519
 8368TIP3    H125049   7.007   1.653   6.483
 8368TIP3    H225050   6.921   1.698   6.599
 8369TIP3   OH225051   6.887   6.762   0.810
 8369TIP3    H125052   6.873   6.827   0.741
 8369TIP3    H225053   6.972   6.722   0.789
 8370TIP3   OH225054   2.939   2.585   3.034
 8370TIP3    H125055   2.983   2.573   3.118
 8370TIP3    H225056   2.930   2.679   3.024
 8371TIP3   OH225057   1.979   4.055   4.806
 8371TIP3    H125058   1.911   4.065   4.873
 8371TIP3    H225059   2.059   4.035   4.855
 8372TIP3   OH225060   3.466   3.381   5.526
 8372TIP3    H125061   3.499   3.415   5.443
 8372TIP3    H225062   3.372   3.373   5.513
 8373TIP3   OH225063   6.566   6.332   6.662
 8373TIP3    H125064   6.487   6.333   6.715
 8373TIP3    H225065   6.621   6.402   6.700
 8374TIP3   OH225066   0.464   2.986   6.319
 8374TIP3    H125067   0.390   2.959   6.374
 8374TIP3    H225068   0.500   2.904   6.284
 8375TIP3   OH225069   5.831   7.281   6.238
 8375TIP3    H125070   5.922   7.285   6.268
 8375TIP3    H225071   5.804   7.373   6.233
 8376TIP3   OH225072   0.710   1.719   0.997
 8376TIP3    H125073   0.649   1.651   0.970
 8376TIP3    H225074   0.751   1.748   0.915
 8377TIP3   OH225075   2.901   1.560   5.540
 8377TIP3    H125076   2.887   1.541   5.447
 8377TIP3    H225077   2.995   1.551   5.552
 8378TIP3   OH225078   2.558   1.231   1.907
 8378TIP3    H125079   2.489   1.284   1.947
 8378TIP3    H225080   2.514   1.184   1.837
 8379TIP3   OH225081   4.601   2.768   3.738
 8379TIP3    H125082   4.569   2.854   3.713
 8379TIP3    H225083   4.655   2.784   3.816
 8380TIP3   OH225084   6.856   2.035   0.737
 8380TIP3    H125085   6.826   2.015   0.649
 8380TIP3    H225086   6.912   1.962   0.761
 8381TIP3   OH225087   4.557   1.073   5.494
 8381TIP3    H125088   4.555   1.069   5.399
 8381TIP3    H225089   4.471   1.040   5.521
 8382TIP3   OH225090   6.816   6.172   5.396
 8382TIP3    H125091   6.788   6.168   5.305
 8382TIP3    H225092   6.736   6.156   5.446
 8383TIP3   OH225093   4.678   1.454   4.005
 8383TIP3    H125094   4.668   1.528   3.945
 8383TIP3    H225095   4.752   1.477   4.060
 8384TIP3   OH225096   2.388   6.277   1.918
 8384TIP3    H125097   2.456   6.212   1.898
 8384TIP3    H225098   2.423   6.329   1.990
 8385TIP3   OH225099   8.261   3.288   2.839
 8385TIP3    H125100   8.231   3.372   2.873
 8385TIP3    H225101   8.182   3.247   2.803
 8386TIP3   OH225102   7.651   5.639   6.115
 8386TIP3    H125103   7.681   5.574   6.051
 8386TIP3    H225104   7.730   5.662   6.164
 8387TIP3   OH225105   3.862   2.159   1.227
 8387TIP3    H125106   3.953   2.189   1.229
 8387TIP3    H225107   3.843   2.148   1.133
 8388TIP3   OH225108   2.013   2.256   1.120
 8388TIP3    H125109   2.030   2.291   1.207
 8388TIP3    H225110   1.934   2.204   1.130
 8389TIP3   OH225111   7.723   2.311   1.365
 8389TIP3    H125112   7.685   2.387   1.408
 8389TIP3    H225113   7.714   2.240   1.429
 8390TIP3   OH225114   0.619   5.038   3.481
 8390TIP3    H125115   0.623   5.052   3.575
 8390TIP3    H225116   0.529   5.057   3.457
 8391TIP3   OH225117   1.654   3.617   5.654
 8391TIP3    H125118   1.660   3.693   5.713
 8391TIP3    H225119   1.741   3.612   5.613
 8392TIP3   OH225120   0.625   2.624   6.008
 8392TIP3    H125121   0.672   2.555   6.055
 8392TIP3    H225122   0.666   2.627   5.922
 8393TIP3   OH225123   7.762   7.538   1.111
 8393TIP3    H125124   7.756   7.628   1.079
 8393TIP3    H225125   7.697   7.533   1.181
 8394TIP3   OH225126   1.060   6.432   5.462
 8394TIP3    H125127   1.079   6.398   5.549
 8394TIP3    H225128   1.143   6.472   5.433
 8395TIP3   OH225129   7.895   0.141   4.299
 8395TIP3    H125130   7.888   0.126   4.205
 8395TIP3    H225131   7.959   0.076   4.329
 8396TIP3   OH225132   6.002   7.738   2.690
 8396TIP3    H125133   6.020   7.819   2.738
 8396TIP3    H225134   5.911   7.718   2.711
 8397TIP3   OH225135   2.406   7.561   3.360
 8397TIP3    H125136   2.329   7.547   3.305
 8397TIP3    H225137   2.449   7.476   3.363
 8398TIP3   OH225138   4.326   1.855   1.718
 8398TIP3    H125139   4.321   1.819   1.630
 8398TIP3    H225140   4.348   1.780   1.774
 8399TIP3   OH225141   3.494   4.109   2.060
 8399TIP3    H125142   3.565   4.117   1.996
 8399TIP3    H225143   3.507   4.183   2.119
 8400TIP3   OH225144   4.400   3.722   5.056
 8400TIP3    H125145   4.443   3.734   4.971
 8400TIP3    H225146   4.449   3.652   5.098
 8401TIP3   OH225147   4.519   4.926   5.091
 8401TIP3    H125148   4.493   4.836   5.071
 8401TIP3    H225149   4.510   4.933   5.186
 8402TIP3   OH225150   1.035   4.841   5.929
 8402TIP3    H125151   1.126   4.840   5.959
 8402TIP3    H225152   1.001   4.755   5.954
 8403TIP3   OH225153   1.863   3.277   6.267
 8403TIP3    H125154   1.909   3.361   6.270
 8403TIP3    H225155   1.806   3.283   6.191
 8404TIP3   OH225156   3.142   0.986   2.562
 8404TIP3    H125157   3.057   0.993   2.519
 8404TIP3    H225158   3.145   1.060   2.622
 8405TIP3   OH225159   0.932   2.889   3.313
 8405TIP3    H125160   0.958   2.811   3.362
 8405TIP3    H225161   0.841   2.904   3.338
 8406TIP3   OH225162   0.208   0.962   4.961
 8406TIP3    H125163   0.171   0.914   5.036
 8406TIP3    H225164   0.168   0.921   4.885
 8407TIP3   OH225165   2.527   2.465   2.909
 8407TIP3    H125166   2.442   2.509   2.908
 8407TIP3    H225167   2.587   2.527   2.867
 8408TIP3   OH225168   1.076   4.338   5.308
 8408TIP3    H125169   1.064   4.326   5.214
 8408TIP3    H225170   1.147   4.401   5.316
 8409TIP3   OH225171   2.360   2.056   1.342
 8409TIP3    H125172   2.372   2.046   1.248
 8409TIP3    H225173   2.271   2.025   1.359
 8410TIP3   OH225174   6.461   2.941   3.110
 8410TIP3    H125175   6.406   2.932   3.188
 8410TIP3    H225176   6.441   2.864   3.057
 8411TIP3   OH225177   4.739   6.172   0.167
 8411TIP3    H125178   4.811   6.229   0.141
 8411TIP3    H225179   4.691   6.223   0.232
 8412TIP3   OH225180   6.583   7.057   3.306
 8412TIP3    H125181   6.610   7.117   3.375
 8412TIP3    H225182   6.530   7.111   3.247
 8413TIP3   OH225183   1.561   5.336   0.491
 8413TIP3    H125184   1.504   5.334   0.568
 8413TIP3    H225185   1.501   5.343   0.417
 8414TIP3   OH225186   6.955   4.822   4.816
 8414TIP3    H125187   6.862   4.815   4.838
 8414TIP3    H225188   6.957   4.821   4.721
 8415TIP3   OH225189   3.286   5.435   4.114
 8415TIP3    H125190   3.365   5.479   4.146
 8415TIP3    H225191   3.288   5.349   4.156
 8416TIP3   OH225192   6.273   4.404   2.094
 8416TIP3    H125193   6.279   4.405   2.189
 8416TIP3    H225194   6.179   4.413   2.076
 8417TIP3   OH225195   2.805   2.668   4.374
 8417TIP3    H125196   2.742   2.665   4.302
 8417TIP3    H225197   2.843   2.756   4.370
 8418TIP3   OH225198   4.403   0.489   5.001
 8418TIP3    H125199   4.435   0.509   5.089
 8418TIP3    H225200   4.375   0.397   5.006
 8419TIP3   OH225201   3.207   0.328   3.992
 8419TIP3    H125202   3.270   0.361   3.928
 8419TIP3    H225203   3.195   0.401   4.053
 8420TIP3   OH225204   3.308   2.130   5.551
 8420TIP3    H125205   3.298   2.147   5.457
 8420TIP3    H225206   3.233   2.074   5.572
 8421TIP3   OH225207   4.597   5.401   4.899
 8421TIP3    H125208   4.618   5.347   4.823
 8421TIP3    H225209   4.611   5.491   4.869
 8422TIP3   OH225210   4.703   4.992   1.603
 8422TIP3    H125211   4.785   5.019   1.561
 8422TIP3    H225212   4.639   4.991   1.533
 8423TIP3   OH225213   4.126   7.139   0.933
 8423TIP3    H125214   4.179   7.111   0.858
 8423TIP3    H225215   4.075   7.213   0.900
 8424TIP3   OH225216   7.685   5.256   1.080
 8424TIP3    H125217   7.592   5.274   1.067
 8424TIP3    H225218   7.721   5.337   1.116
 8425TIP3   OH225219   0.348   0.139   6.628
 8425TIP3    H125220   0.440   0.141   6.601
 8425TIP3    H225221   0.350   0.112   6.720
 8426TIP3   OH225222   7.769   2.449   5.660
 8426TIP3    H125223   7.817   2.383   5.610
 8426TIP3    H225224   7.689   2.463   5.609
 8427TIP3   OH225225   1.089   6.030   4.087
 8427TIP3    H125226   1.046   6.047   4.003
 8427TIP3    H225227   1.023   6.052   4.153
 8428TIP3   OH225228   0.290   2.779   2.721
 8428TIP3    H125229   0.318   2.869   2.738
 8428TIP3    H225230   0.352   2.747   2.656
 8429TIP3   OH225231   0.879   6.165   3.596
 8429TIP3    H125232   0.893   6.206   3.511
 8429TIP3    H225233   0.884   6.237   3.659
 8430TIP3   OH225234   8.054   7.754   1.598
 8430TIP3    H125235   8.030   7.665   1.621
 8430TIP3    H225236   8.036   7.760   1.504
 8431TIP3   OH225237   7.158   5.078   4.854
 8431TIP3    H125238   7.203   5.137   4.793
 8431TIP3    H225239   7.218   5.004   4.865
 8432TIP3   OH225240   6.206   1.039   6.655
 8432TIP3    H125241   6.275   1.074   6.598
 8432TIP3    H225242   6.234   1.061   6.744
 8433TIP3   OH225243   7.955   7.529   0.372
 8433TIP3    H125244   7.995   7.443   0.383
 8433TIP3    H225245   7.863   7.510   0.352
 8434TIP3   OH225246   3.240   7.477   4.965
 8434TIP3    H125247   3.296   7.526   5.025
 8434TIP3    H225248   3.169   7.444   5.020
 8435TIP3   OH225249   5.228   2.839   4.695
 8435TIP3    H125250   5.318   2.815   4.719
 8435TIP3    H225251   5.193   2.760   4.654
 8436TIP3   OH225252   3.196   1.648   2.665
 8436TIP3    H125253   3.221   1.649   2.573
 8436TIP3    H225254   3.117   1.594   2.668
 8437TIP3   OH225255   7.522   3.320   5.959
 8437TIP3    H125256   7.533   3.288   5.869
 8437TIP3    H225257   7.609   3.352   5.984
 8438TIP3   OH225258   7.331   4.162   1.946
 8438TIP3    H125259   7.360   4.072   1.931
 8438TIP3    H225260   7.397   4.200   2.004
 8439TIP3   OH225261   5.527   4.261   4.284
 8439TIP3    H125262   5.488   4.184   4.325
 8439TIP3    H225263   5.584   4.225   4.215
 8440TIP3   OH225264   6.337   6.887   5.482
 8440TIP3    H125265   6.389   6.834   5.421
 8440TIP3    H225266   6.249   6.887   5.444
 8441TIP3   OH225267   6.983   3.520   0.557
 8441TIP3    H125268   7.071   3.543   0.530
 8441TIP3    H225269   6.948   3.600   0.596
 8442TIP3   OH225270   2.107   0.813   5.318
 8442TIP3    H125271   2.165   0.887   5.308
 8442TIP3    H225272   2.029   0.835   5.267
 8443TIP3   OH225273   0.446   0.895   0.579
 8443TIP3    H125274   0.518   0.848   0.621
 8443TIP3    H225275   0.488   0.961   0.525
 8444TIP3   OH225276   0.840   6.430   4.417
 8444TIP3    H125277   0.748   6.406   4.408
 8444TIP3    H225278   0.843   6.522   4.389
 8445TIP3   OH225279   5.056   4.260   2.426
 8445TIP3    H125280   5.127   4.208   2.463
 8445TIP3    H225281   5.100   4.330   2.377
 8446TIP3   OH225282   2.919   1.219   0.614
 8446TIP3    H125283   2.916   1.221   0.710
 8446TIP3    H225284   2.934   1.310   0.589
 8447TIP3   OH225285   3.756   1.869   2.459
 8447TIP3    H125286   3.679   1.847   2.406
 8447TIP3    H225287   3.720   1.898   2.543
 8448TIP3   OH225288   6.459   6.700   4.445
 8448TIP3    H125289   6.497   6.727   4.528
 8448TIP3    H225290   6.365   6.709   4.457
 8449TIP3   OH225291   0.128   0.553   2.908
 8449TIP3    H125292   0.187   0.602   2.965
 8449TIP3    H225293   0.040   0.578   2.938
 8450TIP3   OH225294   1.389   0.334   0.941
 8450TIP3    H125295   1.425   0.254   0.900
 8450TIP3    H225296   1.433   0.339   1.026
 8451TIP3   OH225297   3.221   6.634   4.066
 8451TIP3    H125298   3.251   6.597   4.149
 8451TIP3    H225299   3.167   6.709   4.091
 8452TIP3   OH225300   2.859   3.699   4.548
 8452TIP3    H125301   2.797   3.755   4.594
 8452TIP3    H225302   2.945   3.738   4.566
 8453TIP3   OH225303   7.051   3.961   3.794
 8453TIP3    H125304   7.081   3.872   3.810
 8453TIP3    H225305   7.093   4.013   3.863
 8454TIP3   OH225306   3.475   2.813   1.909
 8454TIP3    H125307   3.472   2.905   1.883
 8454TIP3    H225308   3.560   2.782   1.877
 8455TIP3   OH225309   4.492   5.483   6.006
 8455TIP3    H125310   4.423   5.526   6.056
 8455TIP3    H225311   4.460   5.394   5.992
 8456TIP3   OH225312   6.318   6.335   0.774
 8456TIP3    H125313   6.309   6.252   0.728
 8456TIP3    H225314   6.408   6.363   0.756
 8457TIP3   OH225315   1.864   6.675   4.398
 8457TIP3    H125316   1.831   6.596   4.356
 8457TIP3    H225317   1.815   6.746   4.358
 8458TIP3   OH225318   4.126   5.259   6.311
 8458TIP3    H125319   4.067   5.211   6.368
 8458TIP3    H225320   4.070   5.292   6.241
 8459TIP3   OH225321   2.315   6.488   5.300
 8459TIP3    H125322   2.288   6.481   5.391
 8459TIP3    H225323   2.235   6.508   5.252
 8460TIP3   OH225324   7.718   2.529   4.681
 8460TIP3    H125325   7.650   2.547   4.617
 8460TIP3    H225326   7.718   2.607   4.737
 8461TIP3   OH225327   7.845   4.178   3.762
 8461TIP3    H125328   7.849   4.087   3.791
 8461TIP3    H225329   7.771   4.181   3.702
 8462TIP3   OH225330   0.693   3.622   4.299
 8462TIP3    H125331   0.773   3.668   4.324
 8462TIP3    H225332   0.713   3.585   4.213
 8463TIP3   OH225333   3.065   4.344   1.542
 8463TIP3    H125334   2.990   4.297   1.505
 8463TIP3    H225335   3.027   4.406   1.604
 8464TIP3   OH225336   4.281   2.524   1.427
 8464TIP3    H125337   4.375   2.508   1.436
 8464TIP3    H225338   4.249   2.450   1.376
 8465TIP3   OH225339  -0.018   7.670   4.039
 8465TIP3    H125340   0.003   7.577   4.044
 8465TIP3    H225341  -0.094   7.674   3.981
 8466TIP3   OH225342   6.765   5.924   0.216
 8466TIP3    H125343   6.715   5.981   0.274
 8466TIP3    H225344   6.836   5.979   0.182
 8467TIP3   OH225345   2.730   4.128   2.025
 8467TIP3    H125346   2.636   4.115   2.009
 8467TIP3    H225347   2.767   4.041   2.019
 8468TIP3   OH225348   0.098   2.092   4.373
 8468TIP3    H125349   0.013   2.081   4.414
 8468TIP3    H225350   0.096   2.034   4.297
 8469TIP3   OH225351   4.135   6.752   6.495
 8469TIP3    H125352   4.103   6.837   6.466
 8469TIP3    H225353   4.222   6.769   6.531
 8470TIP3   OH225354   6.968   7.695   4.192
 8470TIP3    H125355   6.997   7.747   4.267
 8470TIP3    H225356   6.944   7.761   4.126
 8471TIP3   OH225357   3.789   5.019   2.809
 8471TIP3    H125358   3.702   4.983   2.791
 8471TIP3    H225359   3.847   4.944   2.807
 8472TIP3   OH225360   5.350   1.128   4.205
 8472TIP3    H125361   5.285   1.061   4.228
 8472TIP3    H225362   5.322   1.159   4.118
 8473TIP3   OH225363   0.840   3.979   2.389
 8473TIP3    H125364   0.897   3.931   2.328
 8473TIP3    H225365   0.752   3.952   2.365
 8474TIP3   OH225366   4.727   1.391   5.823
 8474TIP3    H125367   4.757   1.346   5.744
 8474TIP3    H225368   4.662   1.454   5.792
 8475TIP3   OH225369   4.794   3.043   3.521
 8475TIP3    H125370   4.804   2.974   3.455
 8475TIP3    H225371   4.882   3.055   3.557
 8476TIP3   OH225372   2.983   5.939   1.856
 8476TIP3    H125373   3.026   5.916   1.774
 8476TIP3    H225374   3.055   5.964   1.914
 8477TIP3   OH225375   3.012   4.384   6.247
 8477TIP3    H125376   3.107   4.368   6.246
 8477TIP3    H225377   2.989   4.396   6.155
 8478TIP3   OH225378   6.118   2.216   3.542
 8478TIP3    H125379   6.028   2.199   3.571
 8478TIP3    H225380   6.172   2.184   3.614
 8479TIP3   OH225381   3.679   1.404   1.901
 8479TIP3    H125382   3.724   1.340   1.845
 8479TIP3    H225383   3.717   1.391   1.988
 8480TIP3   OH225384   3.946   7.088   5.443
 8480TIP3    H125385   3.900   7.004   5.445
 8480TIP3    H225386   4.033   7.069   5.479
 8481TIP3   OH225387   6.836   2.024   3.743
 8481TIP3    H125388   6.888   1.983   3.674
 8481TIP3    H225389   6.807   2.107   3.705
 8482TIP3   OH225390   3.143   4.477   4.590
 8482TIP3    H125391   3.059   4.517   4.567
 8482TIP3    H225392   3.119   4.398   4.638
 8483TIP3   OH225393   7.594   3.759   4.631
 8483TIP3    H125394   7.675   3.711   4.651
 8483TIP3    H225395   7.527   3.691   4.629
 8484TIP3   OH225396   3.711   1.039   3.165
 8484TIP3    H125397   3.794   1.008   3.202
 8484TIP3    H225398   3.703   0.993   3.082
 8485TIP3   OH225399   4.184   5.197   2.485
 8485TIP3    H125400   4.265   5.223   2.441
 8485TIP3    H225401   4.121   5.266   2.463
 8486TIP3   OH225402   6.469   3.190   6.079
 8486TIP3    H125403   6.495   3.137   6.005
 8486TIP3    H225404   6.454   3.128   6.150
 8487TIP3   OH225405   6.184   5.125   4.739
 8487TIP3    H125406   6.222   5.187   4.802
 8487TIP3    H225407   6.098   5.104   4.775
 8488TIP3   OH225408   4.516   7.278   6.071
 8488TIP3    H125409   4.520   7.341   5.999
 8488TIP3    H225410   4.587   7.216   6.054
 8489TIP3   OH225411   0.322   2.988   5.280
 8489TIP3    H125412   0.406   3.032   5.275
 8489TIP3    H225413   0.302   2.964   5.189
 8490TIP3   OH225414   7.379   0.542   0.583
 8490TIP3    H125415   7.423   0.584   0.657
 8490TIP3    H225416   7.430   0.463   0.567
 8491TIP3   OH225417   6.213   6.058   3.783
 8491TIP3    H125418   6.125   6.020   3.791
 8491TIP3    H225419   6.268   6.001   3.836
 8492TIP3   OH225420   3.295   6.413   1.944
 8492TIP3    H125421   3.330   6.337   1.991
 8492TIP3    H225422   3.284   6.480   2.012
 8493TIP3   OH225423   2.485   6.119   1.493
 8493TIP3    H125424   2.484   6.186   1.424
 8493TIP3    H225425   2.514   6.040   1.448
 8494TIP3   OH225426   0.928   6.830   6.349
 8494TIP3    H125427   0.989   6.903   6.360
 8494TIP3    H225428   0.969   6.757   6.394
 8495TIP3   OH225429   5.984   1.328   1.479
 8495TIP3    H125430   5.900   1.328   1.433
 8495TIP3    H225431   6.008   1.235   1.484
 8496TIP3   OH225432   5.760   2.163   2.412
 8496TIP3    H125433   5.757   2.111   2.332
 8496TIP3    H225434   5.846   2.206   2.409
 8497TIP3   OH225435   6.881   4.098   0.691
 8497TIP3    H125436   6.929   4.165   0.740
 8497TIP3    H225437   6.875   4.134   0.602
 8498TIP3   OH225438   3.219   4.754   1.412
 8498TIP3    H125439   3.234   4.848   1.410
 8498TIP3    H225440   3.187   4.736   1.500
 8499TIP3   OH225441   1.962   2.194   0.489
 8499TIP3    H125442   1.901   2.161   0.423
 8499TIP3    H225443   1.981   2.118   0.545
 8500TIP3   OH225444   5.064   4.492   1.560
 8500TIP3    H125445   5.153   4.492   1.594
 8500TIP3    H225446   5.011   4.455   1.632
 8501TIP3   OH225447   4.523   4.873   4.148
 8501TIP3    H125448   4.570   4.801   4.190
 8501TIP3    H225449   4.446   4.833   4.109
 8502TIP3   OH225450   6.252   4.885   5.169
 8502TIP3    H125451   6.158   4.896   5.182
 8502TIP3    H225452   6.276   4.813   5.227
 8503TIP3   OH225453   7.434   5.944   2.265
 8503TIP3    H125454   7.475   5.969   2.182
 8503TIP3    H225455   7.410   5.852   2.253
 8504TIP3   OH225456   0.937   3.351   4.451
 8504TIP3    H125457   1.029   3.361   4.430
 8504TIP3    H225458   0.932   3.363   4.546
 8505TIP3   OH225459   3.753   3.206   6.202
 8505TIP3    H125460   3.729   3.279   6.144
 8505TIP3    H225461   3.673   3.187   6.250
 8506TIP3   OH225462   4.016   4.094   1.041
 8506TIP3    H125463   4.033   4.171   1.095
 8506TIP3    H225464   3.926   4.106   1.009
 8507TIP3   OH225465   5.548   1.748   3.561
 8507TIP3    H125466   5.540   1.802   3.640
 8507TIP3    H225467   5.623   1.691   3.578
 8508TIP3   OH225468   1.942   4.524   4.381
 8508TIP3    H125469   1.955   4.591   4.448
 8508TIP3    H225470   1.870   4.470   4.415
 8509TIP3   OH225471   1.935   6.340   4.142
 8509TIP3    H125472   1.938   6.299   4.056
 8509TIP3    H225473   1.954   6.432   4.126
 8510TIP3   OH225474   8.334   2.323   1.644
 8510TIP3    H125475   8.259   2.269   1.666
 8510TIP3    H225476   8.296   2.406   1.613
 8511TIP3   OH225477   7.554   6.588   3.489
 8511TIP3    H125478   7.525   6.497   3.497
 8511TIP3    H225479   7.606   6.590   3.409
 8512TIP3   OH225480   2.398   6.446   3.483
 8512TIP3    H125481   2.328   6.506   3.507
 8512TIP3    H225482   2.377   6.364   3.527
 8513TIP3   OH225483   1.890   2.285   5.397
 8513TIP3    H125484   1.918   2.295   5.306
 8513TIP3    H225485   1.825   2.354   5.410
 8514TIP3   OH225486   2.901   4.942   2.980
 8514TIP3    H125487   2.926   4.909   3.066
 8514TIP3    H225488   2.809   4.919   2.971
 8515TIP3   OH225489   1.008   6.420   2.270
 8515TIP3    H125490   1.036   6.390   2.357
 8515TIP3    H225491   1.089   6.431   2.221
 8516TIP3   OH225492   6.243   0.066   4.092
 8516TIP3    H125493   6.261   0.158   4.074
 8516TIP3    H225494   6.310   0.039   4.154
 8517TIP3   OH225495   6.678   2.600   3.411
 8517TIP3    H125496   6.620   2.566   3.479
 8517TIP3    H225497   6.630   2.586   3.330
 8518TIP3   OH225498   5.428   1.316   6.770
 8518TIP3    H125499   5.515   1.292   6.739
 8518TIP3    H225500   5.429   1.412   6.771
 8519TIP3   OH225501   7.104   0.255   5.707
 8519TIP3    H125502   7.056   0.336   5.695
 8519TIP3    H225503   7.040   0.186   5.691
 8520TIP3   OH225504   7.521   7.791   1.295
 8520TIP3    H125505   7.456   7.795   1.365
 8520TIP3    H225506   7.601   7.825   1.334
 8521TIP3   OH225507   6.467   3.767   2.473
 8521TIP3    H125508   6.374   3.778   2.453
 8521TIP3    H225509   6.477   3.809   2.559
 8522TIP3   OH225510   1.786   6.842   5.270
 8522TIP3    H125511   1.762   6.935   5.269
 8522TIP3    H225512   1.780   6.814   5.179
 8523TIP3   OH225513   3.330   1.925   0.794
 8523TIP3    H125514   3.272   1.852   0.773
 8523TIP3    H225515   3.273   1.989   0.837
 8524TIP3   OH225516   7.049   2.218   6.163
 8524TIP3    H125517   7.101   2.143   6.195
 8524TIP3    H225518   7.112   2.273   6.117
 8525TIP3   OH225519   4.663   3.392   2.890
 8525TIP3    H125520   4.714   3.409   2.970
 8525TIP3    H225521   4.579   3.435   2.905
 8526TIP3   OH225522   1.792   2.485   2.197
 8526TIP3    H125523   1.723   2.419   2.196
 8526TIP3    H225524   1.746   2.569   2.194
 8527TIP3   OH225525   8.046   0.771   4.186
 8527TIP3    H125526   8.100   0.693   4.170
 8527TIP3    H225527   8.107   0.837   4.217
 8528TIP3   OH225528   7.705   2.768   4.264
 8528TIP3    H125529   7.741   2.707   4.328
 8528TIP3    H225530   7.636   2.719   4.220
 8529TIP3   OH225531   0.144   5.794   4.132
 8529TIP3    H125532   0.088   5.719   4.151
 8529TIP3    H225533   0.170   5.828   4.217
 8530TIP3   OH225534   1.246   2.190   1.315
 8530TIP3    H125535   1.234   2.212   1.407
 8530TIP3    H225536   1.167   2.139   1.292
 8531TIP3   OH225537   4.762   6.223   1.170
 8531TIP3    H125538   4.791   6.147   1.220
 8531TIP3    H225539   4.755   6.293   1.235
 8532TIP3   OH225540   7.794   4.241   5.973
 8532TIP3    H125541   7.750   4.319   6.007
 8532TIP3    H225542   7.835   4.270   5.892
 8533TIP3   OH225543   6.175   5.652   1.722
 8533TIP3    H125544   6.245   5.656   1.658
 8533TIP3    H225545   6.148   5.743   1.735
 8534TIP3   OH225546   2.829   4.938   2.521
 8534TIP3    H125547   2.847   4.963   2.430
 8534TIP3    H225548   2.757   4.875   2.514
 8535TIP3   OH225549   4.880   3.360   3.828
 8535TIP3    H125550   4.812   3.399   3.773
 8535TIP3    H225551   4.899   3.427   3.893
 8536TIP3   OH225552   8.340   2.021   2.496
 8536TIP3    H125553   8.289   2.028   2.576
 8536TIP3    H225554   8.376   1.933   2.498
 8537TIP3   OH225555   7.054   3.137   4.325
 8537TIP3    H125556   7.099   3.128   4.409
 8537TIP3    H225557   7.059   3.050   4.286
 8538TIP3   OH225558   4.051   1.662   4.881
 8538TIP3    H125559   4.011   1.693   4.962
 8538TIP3    H225560   4.144   1.652   4.903
 8539TIP3   OH225561   2.087   1.440   4.944
 8539TIP3    H125562   2.092   1.453   5.039
 8539TIP3    H225563   2.003   1.395   4.931
 8540TIP3   OH225564   7.414   5.835   4.280
 8540TIP3    H125565   7.490   5.871   4.234
 8540TIP3    H225566   7.339   5.879   4.241
 8541TIP3   OH225567   1.216   2.157   3.389
 8541TIP3    H125568   1.304   2.190   3.372
 8541TIP3    H225569   1.199   2.177   3.481
 8542TIP3   OH225570   3.786   1.052   1.506
 8542TIP3    H125571   3.753   1.072   1.418
 8542TIP3    H225572   3.779   0.956   1.512
 8543TIP3   OH225573   2.956   4.634   5.145
 8543TIP3    H125574   2.963   4.542   5.170
 8543TIP3    H225575   2.980   4.636   5.052
 8544TIP3   OH225576   2.152   5.937   6.506
 8544TIP3    H125577   2.148   6.005   6.572
 8544TIP3    H225578   2.061   5.924   6.478
 8545TIP3   OH225579   6.374   5.966   2.310
 8545TIP3    H125580   6.429   6.014   2.372
 8545TIP3    H225581   6.286   5.968   2.350
 8546TIP3   OH225582   1.856   6.370   1.756
 8546TIP3    H125583   1.908   6.443   1.789
 8546TIP3    H225584   1.810   6.337   1.833
 8547TIP3   OH225585   5.700   2.390   3.593
 8547TIP3    H125586   5.663   2.411   3.678
 8547TIP3    H225587   5.705   2.475   3.548
 8548TIP3   OH225588   6.488   1.843   4.592
 8548TIP3    H125589   6.434   1.919   4.574
 8548TIP3    H225590   6.578   1.874   4.583
 8549TIP3   OH225591   4.911   3.997   2.350
 8549TIP3    H125592   4.867   3.982   2.266
 8549TIP3    H225593   4.942   4.087   2.345
 8550TIP3   OH225594   1.667   4.219   1.958
 8550TIP3    H125595   1.609   4.281   2.002
 8550TIP3    H225596   1.608   4.151   1.924
 8551TIP3   OH225597   5.906   5.581   1.806
 8551TIP3    H125598   5.998   5.604   1.789
 8551TIP3    H225599   5.856   5.650   1.765
 8552TIP3   OH225600   4.970   2.780   6.509
 8552TIP3    H125601   4.937   2.861   6.550
 8552TIP3    H225602   5.065   2.791   6.507
 8553TIP3   OH225603   7.773   4.994   5.339
 8553TIP3    H125604   7.853   5.006   5.388
 8553TIP3    H225605   7.725   4.926   5.387
 8554TIP3   OH225606   5.084   3.374   3.127
 8554TIP3    H125607   5.096   3.395   3.219
 8554TIP3    H225608   5.027   3.443   3.093
 8555TIP3   OH225609   0.266   0.223   3.530
 8555TIP3    H125610   0.334   0.281   3.498
 8555TIP3    H225611   0.253   0.249   3.621
 8556TIP3   OH225612   3.672   2.777   5.200
 8556TIP3    H125613   3.709   2.865   5.197
 8556TIP3    H225614   3.744   2.720   5.172
 8557TIP3   OH225615   4.215   6.412   2.925
 8557TIP3    H125616   4.268   6.348   2.972
 8557TIP3    H225617   4.131   6.413   2.970
 8558TIP3   OH225618   2.852   3.623   6.647
 8558TIP3    H125619   2.850   3.647   6.554
 8558TIP3    H225620   2.941   3.645   6.675
 8559TIP3   OH225621   7.523   4.305   0.515
 8559TIP3    H125622   7.588   4.282   0.448
 8559TIP3    H225623   7.562   4.378   0.562
 8560TIP3   OH225624   0.591   5.234   4.900
 8560TIP3    H125625   0.536   5.306   4.932
 8560TIP3    H225626   0.629   5.196   4.979
 8561TIP3   OH225627   5.107   2.494   6.539
 8561TIP3    H125628   5.062   2.412   6.561
 8561TIP3    H225629   5.107   2.497   6.443
 8562TIP3   OH225630   6.247   3.557   2.566
 8562TIP3    H125631   6.235   3.626   2.631
 8562TIP3    H225632   6.237   3.602   2.482
 8563TIP3   OH225633   1.407   4.431   3.013
 8563TIP3    H125634   1.469   4.374   3.059
 8563TIP3    H225635   1.340   4.451   3.078
 8564TIP3   OH225636   8.073   5.323   4.848
 8564TIP3    H125637   8.043   5.279   4.769
 8564TIP3    H225638   7.993   5.342   4.897
 8565TIP3   OH225639   7.865   6.861   0.560
 8565TIP3    H125640   7.801   6.914   0.514
 8565TIP3    H225641   7.932   6.923   0.589
 8566TIP3   OH225642   3.450   5.436   2.929
 8566TIP3    H125643   3.417   5.421   3.017
 8566TIP3    H225644   3.545   5.438   2.938
 8567TIP3   OH225645   5.078   3.401   5.604
 8567TIP3    H125646   4.997   3.352   5.590
 8567TIP3    H225647   5.109   3.370   5.689
 8568TIP3   OH225648   2.199   3.165   5.249
 8568TIP3    H125649   2.129   3.179   5.185
 8568TIP3    H225650   2.253   3.096   5.211
 8569TIP3   OH225651   2.532   3.522   1.790
 8569TIP3    H125652   2.533   3.531   1.885
 8569TIP3    H225653   2.618   3.487   1.768
 8570TIP3   OH225654   7.869   6.531   1.321
 8570TIP3    H125655   7.924   6.581   1.261
 8570TIP3    H225656   7.788   6.515   1.273
 8571TIP3   OH225657   2.046   5.990   0.874
 8571TIP3    H125658   2.031   5.981   0.968
 8571TIP3    H225659   1.962   6.020   0.839
 8572TIP3   OH225660   5.599   0.561   2.437
 8572TIP3    H125661   5.575   0.580   2.528
 8572TIP3    H225662   5.622   0.646   2.399
 8573TIP3   OH225663   0.437   1.889   0.611
 8573TIP3    H125664   0.367   1.824   0.611
 8573TIP3    H225665   0.448   1.913   0.703
 8574TIP3   OH225666   5.728   1.230   5.909
 8574TIP3    H125667   5.700   1.153   5.960
 8574TIP3    H225668   5.816   1.249   5.942
 8575TIP3   OH225669   2.452   6.808   6.680
 8575TIP3    H125670   2.373   6.853   6.710
 8575TIP3    H225671   2.459   6.731   6.736
 8576TIP3   OH225672   1.870   5.054   6.189
 8576TIP3    H125673   1.919   5.133   6.165
 8576TIP3    H225674   1.880   5.048   6.284
 8577TIP3   OH225675   1.803   5.627   3.407
 8577TIP3    H125676   1.799   5.681   3.486
 8577TIP3    H225677   1.833   5.687   3.339
 8578TIP3   OH225678   6.997   5.840   6.247
 8578TIP3    H125679   7.049   5.920   6.258
 8578TIP3    H225680   6.907   5.872   6.236
 8579TIP3   OH225681   4.453   0.052   6.561
 8579TIP3    H125682   4.365   0.059   6.524
 8579TIP3    H225683   4.512   0.071   6.488
 8580TIP3   OH225684   4.919   3.211   0.812
 8580TIP3    H125685   4.978   3.254   0.874
 8580TIP3    H225686   4.833   3.250   0.830
 8581TIP3   OH225687   4.981   0.589   1.599
 8581TIP3    H125688   5.064   0.604   1.644
 8581TIP3    H225689   4.915   0.630   1.656
 8582TIP3   OH225690   8.289   1.230   6.581
 8582TIP3    H125691   8.208   1.267   6.547
 8582TIP3    H225692   8.316   1.291   6.650
 8583TIP3   OH225693   1.817   2.393   5.963
 8583TIP3    H125694   1.905   2.396   5.926
 8583TIP3    H225695   1.763   2.358   5.893
 8584TIP3   OH225696   8.199   2.565   1.570
 8584TIP3    H125697   8.245   2.626   1.627
 8584TIP3    H225698   8.247   2.569   1.487
 8585TIP3   OH225699   3.827   4.095   3.483
 8585TIP3    H125700   3.858   4.175   3.525
 8585TIP3    H225701   3.732   4.097   3.493
 8586TIP3   OH225702   0.733   4.356   2.035
 8586TIP3    H125703   0.806   4.347   2.096
 8586TIP3    H225704   0.695   4.441   2.054
 8587TIP3   OH225705   3.836   6.871   3.612
 8587TIP3    H125706   3.917   6.870   3.561
 8587TIP3    H225707   3.809   6.779   3.616
 8588TIP3   OH225708   0.146   3.224   5.020
 8588TIP3    H125709   0.237   3.195   5.026
 8588TIP3    H225710   0.094   3.145   5.039
 8589TIP3   OH225711   4.564   4.396   5.205
 8589TIP3    H125712   4.636   4.437   5.253
 8589TIP3    H225713   4.524   4.468   5.156
 8590TIP3   OH225714   1.151   6.134   0.261
 8590TIP3    H125715   1.215   6.159   0.328
 8590TIP3    H225716   1.077   6.193   0.274
 8591TIP3   OH225717   6.940   5.950   3.152
 8591TIP3    H125718   6.851   5.934   3.184
 8591TIP3    H225719   6.941   6.043   3.130
 8592TIP3   OH225720   1.956   7.299   6.105
 8592TIP3    H125721   1.862   7.288   6.120
 8592TIP3    H225722   1.995   7.219   6.139
 8593TIP3   OH225723   1.918   5.229   2.419
 8593TIP3    H125724   1.887   5.287   2.488
 8593TIP3    H225725   1.841   5.217   2.362
 8594TIP3   OH225726   5.357   5.664   3.401
 8594TIP3    H125727   5.272   5.653   3.359
 8594TIP3    H225728   5.396   5.739   3.357
 8595TIP3   OH225729   2.447   3.834   5.174
 8595TIP3    H125730   2.488   3.920   5.182
 8595TIP3    H225731   2.494   3.791   5.103
 8596TIP3   OH225732   1.798   2.270   0.076
 8596TIP3    H125733   1.731   2.334   0.051
 8596TIP3    H225734   1.874   2.294   0.023
 8597TIP3   OH225735   2.583   1.582   0.811
 8597TIP3    H125736   2.649   1.581   0.742
 8597TIP3    H225737   2.506   1.622   0.770
 8598TIP3   OH225738   2.313   4.691   1.135
 8598TIP3    H125739   2.310   4.657   1.045
 8598TIP3    H225740   2.234   4.656   1.176
 8599TIP3   OH225741   5.996   7.724   3.574
 8599TIP3    H125742   5.974   7.644   3.527
 8599TIP3    H225743   5.974   7.706   3.665
 8600TIP3   OH225744   7.081   2.160   2.037
 8600TIP3    H125745   7.061   2.254   2.040
 8600TIP3    H225746   7.057   2.128   2.124
 8601TIP3   OH225747   0.911   5.055   2.593
 8601TIP3    H125748   0.981   5.118   2.578
 8601TIP3    H225749   0.832   5.100   2.562
 8602TIP3   OH225750   2.644   3.062   0.779
 8602TIP3    H125751   2.732   3.078   0.813
 8602TIP3    H225752   2.626   2.971   0.802
 8603TIP3   OH225753   3.812   6.944   4.128
 8603TIP3    H125754   3.870   7.016   4.154
 8603TIP3    H225755   3.871   6.880   4.087
 8604TIP3   OH225756   3.559   4.773   3.246
 8604TIP3    H125757   3.532   4.782   3.155
 8604TIP3    H225758   3.646   4.811   3.250
 8605TIP3   OH225759   2.188   0.566   5.228
 8605TIP3    H125760   2.157   0.649   5.265
 8605TIP3    H225761   2.112   0.509   5.229
 8606TIP3   OH225762   1.844   0.769   3.553
 8606TIP3    H125763   1.775   0.780   3.488
 8606TIP3    H225764   1.811   0.700   3.611
 8607TIP3   OH225765   2.379   0.513   6.418
 8607TIP3    H125766   2.395   0.535   6.510
 8607TIP3    H225767   2.441   0.443   6.399
 8608TIP3   OH225768   0.595   2.316   1.145
 8608TIP3    H125769   0.676   2.313   1.197
 8608TIP3    H225770   0.541   2.245   1.180
 8609TIP3   OH225771   3.110   0.151   0.822
 8609TIP3    H125772   3.157   0.186   0.897
 8609TIP3    H225773   3.153   0.190   0.746
 8610TIP3   OH225774   2.572   1.068   1.513
 8610TIP3    H125775   2.565   0.982   1.473
 8610TIP3    H225776   2.623   1.120   1.451
 8611TIP3   OH225777   6.088   1.000   2.308
 8611TIP3    H125778   6.128   0.917   2.283
 8611TIP3    H225779   5.996   0.991   2.284
 8612TIP3   OH225780   0.089   3.868   6.332
 8612TIP3    H125781   0.110   3.814   6.256
 8612TIP3    H225782   0.166   3.863   6.388
 8613TIP3   OH225783   0.638   1.053   6.768
 8613TIP3    H125784   0.699   0.989   6.802
 8613TIP3    H225785   0.605   1.015   6.687
 8614TIP3   OH225786   6.344   0.821   2.050
 8614TIP3    H125787   6.298   0.774   2.120
 8614TIP3    H225788   6.428   0.776   2.041
 8615TIP3   OH225789   2.076   2.902   3.482
 8615TIP3    H125790   2.051   2.977   3.428
 8615TIP3    H225791   2.165   2.881   3.452
 8616TIP3   OH225792   4.385   3.701   3.431
 8616TIP3    H125793   4.374   3.617   3.387
 8616TIP3    H225794   4.307   3.710   3.486
 8617TIP3   OH225795   1.483   1.242   6.662
 8617TIP3    H125796   1.491   1.321   6.608
 8617TIP3    H225797   1.427   1.183   6.610
 8618TIP3   OH225798   2.802   6.005   0.440
 8618TIP3    H125799   2.765   5.950   0.371
 8618TIP3    H225800   2.892   5.974   0.450
 8619TIP3   OH225801   6.710   7.354   1.847
 8619TIP3    H125802   6.729   7.279   1.904
 8619TIP3    H225803   6.717   7.430   1.904
 8620TIP3   OH225804   6.777   0.939   1.024
 8620TIP3    H125805   6.794   0.847   1.043
 8620TIP3    H225806   6.781   0.944   0.928
 8621TIP3   OH225807   0.811   1.998   5.405
 8621TIP3    H125808   0.762   1.919   5.428
 8621TIP3    H225809   0.893   1.991   5.453
 8622TIP3   OH225810   7.530   7.525   3.763
 8622TIP3    H125811   7.442   7.520   3.725
 8622TIP3    H225812   7.517   7.518   3.857
 8623TIP3   OH225813   5.138   1.992   0.038
 8623TIP3    H125814   5.199   2.060   0.064
 8623TIP3    H225815   5.181   1.910   0.063
 8624TIP3   OH225816   8.350   5.481   1.902
 8624TIP3    H125817   8.355   5.469   1.997
 8624TIP3    H225818   8.256   5.490   1.884
 8625TIP3   OH225819   3.394   2.203   5.265
 8625TIP3    H125820   3.362   2.151   5.192
 8625TIP3    H225821   3.475   2.160   5.292
 8626TIP3   OH225822   3.177   2.472   5.639
 8626TIP3    H125823   3.215   2.463   5.551
 8626TIP3    H225824   3.250   2.455   5.699
 8627TIP3   OH225825   3.957   2.829   2.804
 8627TIP3    H125826   4.003   2.748   2.827
 8627TIP3    H225827   3.902   2.847   2.880
 8628TIP3   OH225828   4.118   4.584   4.621
 8628TIP3    H125829   4.162   4.627   4.694
 8628TIP3    H225830   4.044   4.539   4.661
 8629TIP3   OH225831   1.647   1.062   4.124
 8629TIP3    H125832   1.588   1.013   4.182
 8629TIP3    H225833   1.616   1.152   4.129
 8630TIP3   OH225834   6.866   6.428   4.244
 8630TIP3    H125835   6.914   6.364   4.298
 8630TIP3    H225836   6.909   6.511   4.265
 8631TIP3   OH225837   8.319   2.117   6.436
 8631TIP3    H125838   8.237   2.097   6.392
 8631TIP3    H225839   8.297   2.125   6.528
 8632TIP3   OH225840   5.974   6.124   1.150
 8632TIP3    H125841   6.002   6.131   1.059
 8632TIP3    H225842   5.899   6.064   1.147
 8633TIP3   OH225843   3.310   6.472   3.813
 8633TIP3    H125844   3.254   6.548   3.798
 8633TIP3    H225845   3.375   6.501   3.877
 8634TIP3   OH225846   7.896   2.786   2.002
 8634TIP3    H125847   7.811   2.747   1.981
 8634TIP3    H225848   7.957   2.713   1.997
 8635TIP3   OH225849   6.817   7.145   4.368
 8635TIP3    H125850   6.815   7.113   4.278
 8635TIP3    H225851   6.858   7.231   4.361
 8636TIP3   OH225852   6.104   3.113   1.034
 8636TIP3    H125853   6.160   3.039   1.059
 8636TIP3    H225854   6.140   3.143   0.951
 8637TIP3   OH225855   7.104   5.113   1.710
 8637TIP3    H125856   7.198   5.113   1.689
 8637TIP3    H225857   7.098   5.163   1.791
 8638TIP3   OH225858   7.058   4.962   0.341
 8638TIP3    H125859   7.101   4.894   0.289
 8638TIP3    H225860   6.986   4.918   0.385
 8639TIP3   OH225861   4.321   1.598   1.821
 8639TIP3    H125862   4.365   1.589   1.905
 8639TIP3    H225863   4.298   1.508   1.797
 8640TIP3   OH225864   0.481   2.294   0.889
 8640TIP3    H125865   0.503   2.379   0.850
 8640TIP3    H225866   0.519   2.298   0.977
 8641TIP3   OH225867   8.108   5.014   1.047
 8641TIP3    H125868   8.194   5.040   1.013
 8641TIP3    H225869   8.079   5.088   1.100
 8642TIP3   OH225870   1.841   3.893   5.223
 8642TIP3    H125871   1.923   3.857   5.191
 8642TIP3    H225872   1.805   3.941   5.149
 8643TIP3   OH225873   6.393   7.399   1.032
 8643TIP3    H125874   6.303   7.432   1.026
 8643TIP3    H225875   6.442   7.470   1.074
 8644TIP3   OH225876   2.796   4.528   4.155
 8644TIP3    H125877   2.884   4.518   4.120
 8644TIP3    H225878   2.808   4.559   4.245
 8645TIP3   OH225879   2.416   5.001   1.015
 8645TIP3    H125880   2.386   5.041   0.933
 8645TIP3    H225881   2.510   5.019   1.017
 8646TIP3   OH225882   2.049   0.412   0.017
 8646TIP3    H125883   2.087   0.426   0.104
 8646TIP3    H225884   2.062   0.318   0.000
 8647TIP3   OH225885   5.636   0.953   4.375
 8647TIP3    H125886   5.584   0.875   4.354
 8647TIP3    H225887   5.626   1.010   4.299
 8648TIP3   OH225888   0.602   7.631   5.610
 8648TIP3    H125889   0.662   7.706   5.607
 8648TIP3    H225890   0.659   7.555   5.596
 8649TIP3   OH225891   7.953   2.413   4.887
 8649TIP3    H125892   8.044   2.439   4.871
 8649TIP3    H225893   7.907   2.496   4.898
 8650TIP3   OH225894   1.465   0.143   4.283
 8650TIP3    H125895   1.516   0.151   4.363
 8650TIP3    H225896   1.385   0.192   4.300
 8651TIP3   OH225897   7.843   2.355   0.079
 8651TIP3    H125898   7.936   2.377   0.076
 8651TIP3    H225899   7.818   2.373   0.170
 8652TIP3   OH225900   1.198   4.484   1.858
 8652TIP3    H125901   1.106   4.474   1.835
 8652TIP3    H225902   1.197   4.505   1.952
 8653TIP3   OH225903   5.101   5.494   5.753
 8653TIP3    H125904   5.070   5.507   5.842
 8653TIP3    H225905   5.054   5.559   5.701
 8654TIP3   OH225906   1.492   0.169   0.746
 8654TIP3    H125907   1.454   0.083   0.765
 8654TIP3    H225908   1.466   0.187   0.656
 8655TIP3   OH225909   3.474   3.165   0.023
 8655TIP3    H125910   3.505   3.092  -0.031
 8655TIP3    H225911   3.383   3.144   0.043
 8656TIP3   OH225912   7.174   3.374   4.482
 8656TIP3    H125913   7.127   3.368   4.565
 8656TIP3    H225914   7.106   3.397   4.418
 8657TIP3   OH225915   2.997   6.117   0.078
 8657TIP3    H125916   2.931   6.124   0.147
 8657TIP3    H225917   3.063   6.058   0.115
 8658TIP3   OH225918   8.270   3.199   2.188
 8658TIP3    H125919   8.192   3.195   2.243
 8658TIP3    H225920   8.272   3.114   2.144
 8659TIP3   OH225921   5.975   6.592   2.273
 8659TIP3    H125922   6.002   6.511   2.315
 8659TIP3    H225923   5.895   6.569   2.226
 8660TIP3   OH225924   5.544   2.830   2.230
 8660TIP3    H125925   5.604   2.756   2.222
 8660TIP3    H225926   5.468   2.805   2.177
 8661TIP3   OH225927   2.644   4.190   3.022
 8661TIP3    H125928   2.636   4.112   3.077
 8661TIP3    H225929   2.614   4.262   3.078
 8662TIP3   OH225930   1.686   2.751   2.658
 8662TIP3    H125931   1.769   2.739   2.704
 8662TIP3    H225932   1.635   2.673   2.680
 8663TIP3   OH225933   2.909   7.763   3.046
 8663TIP3    H125934   2.922   7.763   2.951
 8663TIP3    H225935   2.841   7.829   3.061
 8664TIP3   OH225936   6.852   4.946   6.165
 8664TIP3    H125937   6.874   5.000   6.241
 8664TIP3    H225938   6.789   4.883   6.198
 8665TIP3   OH225939   0.474   6.855   0.880
 8665TIP3    H125940   0.479   6.942   0.921
 8665TIP3    H225941   0.437   6.799   0.948
 8666TIP3   OH225942   5.698   5.275   1.583
 8666TIP3    H125943   5.626   5.221   1.617
 8666TIP3    H225944   5.654   5.344   1.533
 8667TIP3   OH225945   1.447   6.545   4.297
 8667TIP3    H125946   1.445   6.589   4.213
 8667TIP3    H225947   1.527   6.493   4.295
 8668TIP3   OH225948   6.525   3.066   3.777
 8668TIP3    H125949   6.502   3.034   3.689
 8668TIP3    H225950   6.554   3.156   3.763
 8669TIP3   OH225951   7.579   2.515   6.356
 8669TIP3    H125952   7.640   2.588   6.351
 8669TIP3    H225953   7.632   2.437   6.340
 8670TIP3   OH225954   2.761   2.304   2.782
 8670TIP3    H125955   2.792   2.235   2.724
 8670TIP3    H225956   2.825   2.307   2.852
 8671TIP3   OH225957   1.625   6.234   3.328
 8671TIP3    H125958   1.648   6.176   3.256
 8671TIP3    H225959   1.533   6.214   3.346
 8672TIP3   OH225960   1.467   1.549   4.232
 8672TIP3    H125961   1.414   1.504   4.297
 8672TIP3    H225962   1.453   1.642   4.251
 8673TIP3   OH225963   3.102   3.070   6.287
 8673TIP3    H125964   3.153   3.074   6.206
 8673TIP3    H225965   3.158   3.019   6.347
 8674TIP3   OH225966   1.561   5.651   3.607
 8674TIP3    H125967   1.570   5.669   3.514
 8674TIP3    H225968   1.566   5.737   3.649
 8675TIP3   OH225969   3.028   7.334   3.795
 8675TIP3    H125970   3.012   7.369   3.707
 8675TIP3    H225971   3.098   7.389   3.831
 8676TIP3   OH225972   3.939   7.751   5.400
 8676TIP3    H125973   3.931   7.709   5.314
 8676TIP3    H225974   3.850   7.776   5.423
 8677TIP3   OH225975   1.714   4.116   6.761
 8677TIP3    H125976   1.669   4.166   6.693
 8677TIP3    H225977   1.719   4.027   6.726
 8678TIP3   OH225978   4.630   3.184   5.110
 8678TIP3    H125979   4.595   3.105   5.151
 8678TIP3    H225980   4.590   3.257   5.157
 8679TIP3   OH225981   3.272   4.178   2.375
 8679TIP3    H125982   3.232   4.265   2.380
 8679TIP3    H225983   3.359   4.194   2.339
 8680TIP3   OH225984   7.551   4.139   4.153
 8680TIP3    H125985   7.482   4.205   4.165
 8680TIP3    H225986   7.606   4.175   4.084
 8681TIP3   OH225987   7.182   4.508   5.057
 8681TIP3    H125988   7.232   4.497   4.976
 8681TIP3    H225989   7.212   4.591   5.093
 8682TIP3   OH225990   8.296   0.744   0.607
 8682TIP3    H125991   8.301   0.768   0.700
 8682TIP3    H225992   8.205   0.716   0.594
 8683TIP3   OH225993   2.533   3.385   2.067
 8683TIP3    H125994   2.449   3.428   2.086
 8683TIP3    H225995   2.510   3.313   2.009
 8684TIP3   OH225996   2.802   1.655   6.506
 8684TIP3    H125997   2.879   1.633   6.558
 8684TIP3    H225998   2.811   1.748   6.486
 8685TIP3   OH225999   7.168   6.709   5.519
 8685TIP3    H126000   7.090   6.764   5.529
 8685TIP3    H226001   7.134   6.626   5.486
 8686TIP3   OH226002   3.906   0.316   1.143
 8686TIP3    H126003   3.871   0.256   1.077
 8686TIP3    H226004   3.915   0.261   1.221
 8687TIP3   OH226005   5.078   7.168   2.709
 8687TIP3    H126006   5.102   7.214   2.629
 8687TIP3    H226007   5.160   7.156   2.756
 8688TIP3   OH226008   2.822   4.524  -0.007
 8688TIP3    H126009   2.845   4.434   0.015
 8688TIP3    H226010   2.766   4.553   0.065
 8689TIP3   OH226011   6.324   5.811   6.258
 8689TIP3    H126012   6.257   5.819   6.326
 8689TIP3    H226013   6.385   5.746   6.292
 8690TIP3   OH226014   1.553   1.379   2.327
 8690TIP3    H126015   1.515   1.410   2.245
 8690TIP3    H226016   1.501   1.421   2.395
 8691TIP3   OH226017   0.942   0.424   4.030
 8691TIP3    H126018   0.886   0.466   4.094
 8691TIP3    H226019   1.003   0.493   4.002
 8692TIP3   OH226020   4.970   2.329   0.977
 8692TIP3    H126021   5.057   2.355   1.007
 8692TIP3    H226022   4.920   2.315   1.057
 8693TIP3   OH226023   4.092   3.516   1.854
 8693TIP3    H126024   4.012   3.490   1.900
 8693TIP3    H226025   4.162   3.481   1.908
 8694TIP3   OH226026   5.708   7.685   4.404
 8694TIP3    H126027   5.742   7.770   4.375
 8694TIP3    H226028   5.781   7.625   4.394
 8695TIP3   OH226029   4.293   6.481   6.136
 8695TIP3    H126030   4.323   6.391   6.120
 8695TIP3    H226031   4.367   6.536   6.109
 8696TIP3   OH226032   4.893   6.202   5.692
 8696TIP3    H126033   4.931   6.116   5.711
 8696TIP3    H226034   4.968   6.262   5.696
 8697TIP3   OH226035   2.250   0.899   0.932
 8697TIP3    H126036   2.342   0.924   0.945
 8697TIP3    H226037   2.215   0.889   1.020
 8698TIP3   OH226038   6.924   7.044   4.724
 8698TIP3    H126039   6.903   7.133   4.750
 8698TIP3    H226040   6.919   6.993   4.804
 8699TIP3   OH226041   5.062   5.625   6.620
 8699TIP3    H126042   5.098   5.540   6.645
 8699TIP3    H226043   5.135   5.669   6.575
 8700TIP3   OH226044   8.076   7.699   1.291
 8700TIP3    H126045   8.067   7.628   1.228
 8700TIP3    H226046   8.119   7.769   1.242
 8701TIP3   OH226047   3.640   7.615   0.179
 8701TIP3    H126048   3.700   7.688   0.191
 8701TIP3    H226049   3.680   7.543   0.227
 8702TIP3   OH226050   1.850   6.747   0.956
 8702TIP3    H126051   1.895   6.762   1.039
 8702TIP3    H226052   1.807   6.831   0.937
 8703TIP3   OH226053   6.767   4.026   4.795
 8703TIP3    H126054   6.697   3.962   4.802
 8703TIP3    H226055   6.743   4.096   4.855
 8704TIP3   OH226056   4.011   3.737   4.846
 8704TIP3    H126057   4.035   3.744   4.754
 8704TIP3    H226058   3.983   3.646   4.857
 8705TIP3   OH226059   8.293   1.999   0.532
 8705TIP3    H126060   8.286   2.007   0.436
 8705TIP3    H226061   8.209   1.960   0.558
 8706TIP3   OH226062   5.914   7.011   0.962
 8706TIP3    H126063   5.903   7.025   0.868
 8706TIP3    H226064   5.865   7.082   1.002
 8707TIP3   OH226065   7.905   3.674   3.720
 8707TIP3    H126066   7.972   3.635   3.775
 8707TIP3    H226067   7.876   3.602   3.664
 8708TIP3   OH226068   2.028   1.331   6.581
 8708TIP3    H126069   1.997   1.403   6.526
 8708TIP3    H226070   2.099   1.291   6.532
 8709TIP3   OH226071   8.199   1.162   1.357
 8709TIP3    H126072   8.115   1.209   1.354
 8709TIP3    H226073   8.202   1.125   1.445
 8710TIP3   OH226074   5.613   1.532   0.491
 8710TIP3    H126075   5.639   1.458   0.546
 8710TIP3    H226076   5.695   1.579   0.475
 8711TIP3   OH226077   6.032   4.999   0.448
 8711TIP3    H126078   6.023   4.979   0.541
 8711TIP3    H226079   5.943   5.016   0.418
 8712TIP3   OH226080   5.463   2.147   1.419
 8712TIP3    H126081   5.387   2.200   1.443
 8712TIP3    H226082   5.535   2.185   1.468
 8713TIP3   OH226083   4.379   6.476   5.533
 8713TIP3    H126084   4.454   6.452   5.480
 8713TIP3    H226085   4.380   6.415   5.607
 8714TIP3   OH226086   7.015   1.216   4.343
 8714TIP3    H126087   7.029   1.300   4.386
 8714TIP3    H226088   7.036   1.151   4.409
 8715TIP3   OH226089   4.062   3.389   5.904
 8715TIP3    H126090   3.978   3.344   5.898
 8715TIP3    H226091   4.125   3.329   5.864
 8716TIP3   OH226092   5.649   4.297   2.101
 8716TIP3    H126093   5.613   4.213   2.129
 8716TIP3    H226094   5.604   4.362   2.154
 8717TIP3   OH226095   5.850   3.872   0.104
 8717TIP3    H126096   5.757   3.851   0.119
 8717TIP3    H226097   5.879   3.807   0.041
 8718TIP3   OH226098   3.200   4.101   5.846
 8718TIP3    H126099   3.217   4.148   5.765
 8718TIP3    H226100   3.115   4.059   5.832
 8719TIP3   OH226101   2.892   1.779   5.713
 8719TIP3    H126102   2.937   1.715   5.768
 8719TIP3    H226103   2.864   1.730   5.636
 8720TIP3   OH226104   1.986   1.475   5.463
 8720TIP3    H126105   2.023   1.492   5.550
 8720TIP3    H226106   1.891   1.475   5.477
 8721TIP3   OH226107   0.134   1.534   3.695
 8721TIP3    H126108   0.090   1.471   3.752
 8721TIP3    H226109   0.168   1.601   3.755
 8722TIP3   OH226110   3.427   6.565   1.758
 8722TIP3    H126111   3.463   6.478   1.773
 8722TIP3    H226112   3.374   6.583   1.835
 8723TIP3   OH226113   6.822   2.120   6.045
 8723TIP3    H126114   6.800   2.036   6.086
 8723TIP3    H226115   6.891   2.156   6.100
 8724TIP3   OH226116   3.971   0.441   4.934
 8724TIP3    H126117   4.001   0.361   4.890
 8724TIP3    H226118   3.879   0.423   4.954
 8725TIP3   OH226119   2.614   2.676   4.180
 8725TIP3    H126120   2.585   2.766   4.160
 8725TIP3    H226121   2.533   2.626   4.187
 8726TIP3   OH226122   3.218   6.700   6.028
 8726TIP3    H126123   3.140   6.658   6.065
 8726TIP3    H226124   3.268   6.728   6.105
 8727TIP3   OH226125   2.134   7.229   6.440
 8727TIP3    H126126   2.091   7.147   6.415
 8727TIP3    H226127   2.222   7.221   6.405
 8728TIP3   OH226128   5.276   1.333   0.034
 8728TIP3    H126129   5.227   1.414   0.021
 8728TIP3    H226130   5.366   1.361   0.052
 8729TIP3   OH226131   1.412   1.976   3.156
 8729TIP3    H126132   1.461   1.944   3.231
 8729TIP3    H226133   1.324   1.939   3.167
 8730TIP3   OH226134   3.458   7.599   5.980
 8730TIP3    H126135   3.401   7.609   6.056
 8730TIP3    H226136   3.512   7.679   5.981
 8731TIP3   OH226137   7.987   0.477   5.149
 8731TIP3    H126138   7.914   0.489   5.210
 8731TIP3    H226139   7.971   0.390   5.111
 8732TIP3   OH226140   6.636   4.912   5.509
 8732TIP3    H126141   6.621   4.999   5.473
 8732TIP3    H226142   6.725   4.889   5.480
 8733TIP3   OH226143   2.062   4.324   6.241
 8733TIP3    H126144   2.091   4.353   6.155
 8733TIP3    H226145   1.970   4.351   6.246
 8734TIP3   OH226146   4.623   7.091   5.352
 8734TIP3    H126147   4.613   7.024   5.285
 8734TIP3    H226148   4.580   7.055   5.429
 8735TIP3   OH226149   7.672   5.460   1.795
 8735TIP3    H126150   7.723   5.383   1.769
 8735TIP3    H226151   7.649   5.443   1.886
 8736TIP3   OH226152   0.964   4.377   4.520
 8736TIP3    H126153   0.960   4.409   4.430
 8736TIP3    H226154   1.054   4.344   4.529
 8737TIP3   OH226155   6.212   7.651   4.519
 8737TIP3    H126156   6.279   7.719   4.517
 8737TIP3    H226157   6.189   7.637   4.427
 8738TIP3   OH226158   6.880   2.490   0.094
 8738TIP3    H126159   6.939   2.417   0.080
 8738TIP3    H226160   6.795   2.449   0.114
 8739TIP3   OH226161   7.062   0.677   3.203
 8739TIP3    H126162   7.104   0.752   3.160
 8739TIP3    H226163   6.973   0.676   3.166
 8740TIP3   OH226164   4.555   6.541   1.541
 8740TIP3    H126165   4.462   6.521   1.524
 8740TIP3    H226166   4.556   6.576   1.630
 8741TIP3   OH226167   0.668   4.291   0.164
 8741TIP3    H126168   0.620   4.318   0.086
 8741TIP3    H226169   0.722   4.366   0.186
 8742TIP3   OH226170   6.566   3.313   3.144
 8742TIP3    H126171   6.604   3.400   3.152
 8742TIP3    H226172   6.569   3.294   3.050
 8743TIP3   OH226173   4.178   6.800   4.997
 8743TIP3    H126174   4.158   6.870   5.060
 8743TIP3    H226175   4.139   6.830   4.915
 8744TIP3   OH226176   4.544   7.364   4.639
 8744TIP3    H126177   4.500   7.418   4.573
 8744TIP3    H226178   4.536   7.275   4.607
 8745TIP3   OH226179   3.811   2.393   2.775
 8745TIP3    H126180   3.860   2.467   2.813
 8745TIP3    H226181   3.863   2.366   2.699
 8746TIP3   OH226182   5.371   0.324   5.075
 8746TIP3    H126183   5.402   0.394   5.018
 8746TIP3    H226184   5.379   0.359   5.163
 8747TIP3   OH226185   4.878   3.648   1.176
 8747TIP3    H126186   4.967   3.680   1.158
 8747TIP3    H226187   4.890   3.581   1.243
 8748TIP3   OH226188   4.080   4.719   6.321
 8748TIP3    H126189   4.130   4.639   6.302
 8748TIP3    H226190   4.142   4.774   6.369
 8749TIP3   OH226191   7.352   1.462   4.580
 8749TIP3    H126192   7.421   1.406   4.544
 8749TIP3    H226193   7.362   1.454   4.675
 8750TIP3   OH226194   3.095   3.406   6.150
 8750TIP3    H126195   3.182   3.445   6.137
 8750TIP3    H226196   3.075   3.363   6.067
 8751TIP3   OH226197   6.786   6.168   0.756
 8751TIP3    H126198   6.826   6.131   0.835
 8751TIP3    H226199   6.830   6.252   0.744
 8752TIP3   OH226200   5.951   3.645   1.234
 8752TIP3    H126201   6.007   3.707   1.281
 8752TIP3    H226202   5.863   3.682   1.241
 8753TIP3   OH226203   1.560   1.302   0.577
 8753TIP3    H126204   1.539   1.297   0.484
 8753TIP3    H226205   1.514   1.228   0.617
 8754TIP3   OH226206   4.853   5.785   6.494
 8754TIP3    H126207   4.892   5.714   6.545
 8754TIP3    H226208   4.793   5.740   6.435
 8755TIP3   OH226209   0.197   3.299   4.333
 8755TIP3    H126210   0.156   3.367   4.279
 8755TIP3    H226211   0.208   3.339   4.418
 8756TIP3   OH226212   6.491   0.255   0.720
 8756TIP3    H126213   6.433   0.294   0.655
 8756TIP3    H226214   6.488   0.161   0.702
 8757TIP3   OH226215   3.260   0.741   3.419
 8757TIP3    H126216   3.184   0.705   3.374
 8757TIP3    H226217   3.317   0.666   3.434
 8758TIP3   OH226218   5.975   2.303   2.377
 8758TIP3    H126219   6.003   2.262   2.459
 8758TIP3    H226220   6.056   2.325   2.331
 8759TIP3   OH226221   4.370   5.457   5.566
 8759TIP3    H126222   4.417   5.536   5.542
 8759TIP3    H226223   4.291   5.488   5.610
 8760TIP3   OH226224   0.133   1.850   5.798
 8760TIP3    H126225   0.147   1.778   5.736
 8760TIP3    H226226   0.220   1.867   5.834
 8761TIP3   OH226227   7.085   3.292   2.156
 8761TIP3    H126228   7.042   3.355   2.097
 8761TIP3    H226229   7.065   3.324   2.244
 8762TIP3   OH226230   3.067   3.903   6.066
 8762TIP3    H126231   3.142   3.962   6.070
 8762TIP3    H226232   3.069   3.868   5.977
 8763TIP3   OH226233   5.682   2.800   6.153
 8763TIP3    H126234   5.708   2.869   6.214
 8763TIP3    H226235   5.637   2.847   6.082
 8764TIP3   OH226236   5.846   7.513   0.947
 8764TIP3    H126237   5.901   7.591   0.939
 8764TIP3    H226238   5.824   7.489   0.857
 8765TIP3   OH226239   6.118   2.166   5.385
 8765TIP3    H126240   6.182   2.096   5.397
 8765TIP3    H226241   6.099   2.165   5.291
 8766TIP3   OH226242   0.491   0.540   4.024
 8766TIP3    H126243   0.397   0.545   4.007
 8766TIP3    H226244   0.528   0.614   3.975
 8767TIP3   OH226245   6.528   1.131   3.379
 8767TIP3    H126246   6.569   1.136   3.293
 8767TIP3    H226247   6.523   1.037   3.397
 8768TIP3   OH226248   0.818   5.679   5.260
 8768TIP3    H126249   0.833   5.738   5.187
 8768TIP3    H226250   0.766   5.608   5.223
 8769TIP3   OH226251   5.257   2.267   2.350
 8769TIP3    H126252   5.235   2.181   2.313
 8769TIP3    H226253   5.352   2.262   2.366
 8770TIP3   OH226254   4.499   3.469   4.090
 8770TIP3    H126255   4.555   3.546   4.100
 8770TIP3    H226256   4.411   3.504   4.076
 8771TIP3   OH226257   2.737   1.886   2.621
 8771TIP3    H126258   2.658   1.932   2.592
 8771TIP3    H226259   2.718   1.793   2.603
 8772TIP3   OH226260   7.201   4.294   0.502
 8772TIP3    H126261   7.146   4.337   0.436
 8772TIP3    H226262   7.287   4.333   0.491
 8773TIP3   OH226263   0.346   1.200   0.301
 8773TIP3    H126264   0.437   1.229   0.298
 8773TIP3    H226265   0.326   1.175   0.211
 8774TIP3   OH226266   1.825   7.427   3.700
 8774TIP3    H126267   1.822   7.491   3.771
 8774TIP3    H226268   1.915   7.429   3.669
 8775TIP3   OH226269   2.519   2.046   6.744
 8775TIP3    H126270   2.584   2.036   6.814
 8775TIP3    H226271   2.470   1.964   6.745
 8776TIP3   OH226272   6.701   0.631   3.472
 8776TIP3    H126273   6.649   0.647   3.551
 8776TIP3    H226274   6.791   0.643   3.500
 8777TIP3   OH226275   7.805   4.229   0.311
 8777TIP3    H126276   7.870   4.224   0.241
 8777TIP3    H226277   7.762   4.143   0.310
 8778TIP3   OH226278   7.159   3.517   4.765
 8778TIP3    H126279   7.106   3.462   4.822
 8778TIP3    H226280   7.130   3.607   4.784
 8779TIP3   OH226281   7.437   1.648   0.300
 8779TIP3    H126282   7.454   1.655   0.394
 8779TIP3    H226283   7.437   1.554   0.283
 8780TIP3   OH226284   3.611   0.256   2.660
 8780TIP3    H126285   3.703   0.278   2.646
 8780TIP3    H226286   3.601   0.256   2.755
 8781TIP3   OH226287   7.406   1.259   4.778
 8781TIP3    H126288   7.388   1.230   4.688
 8781TIP3    H226289   7.454   1.186   4.817
 8782TIP3   OH226290   0.961   2.479   0.166
 8782TIP3    H126291   1.034   2.539   0.181
 8782TIP3    H226292   0.912   2.480   0.248
 8783TIP3   OH226293   7.481   5.034   0.840
 8783TIP3    H126294   7.411   5.080   0.794
 8783TIP3    H226295   7.474   4.944   0.810
 8784TIP3   OH226296   5.019   7.180   6.182
 8784TIP3    H126297   4.995   7.216   6.267
 8784TIP3    H226298   5.092   7.121   6.201
 8785TIP3   OH226299   6.114   1.177   3.346
 8785TIP3    H126300   6.054   1.165   3.273
 8785TIP3    H226301   6.100   1.100   3.401
 8786TIP3   OH226302   2.549   6.739   2.667
 8786TIP3    H126303   2.556   6.804   2.598
 8786TIP3    H226304   2.618   6.675   2.648
 8787TIP3   OH226305   6.007   2.572   5.931
 8787TIP3    H126306   6.089   2.569   5.981
 8787TIP3    H226307   5.994   2.482   5.901
 8788TIP3   OH226308   2.183   0.309   6.343
 8788TIP3    H126309   2.250   0.346   6.286
 8788TIP3    H226310   2.167   0.377   6.409
 8789TIP3   OH226311   0.053   5.463   6.059
 8789TIP3    H126312   0.024   5.452   5.968
 8789TIP3    H226313   0.038   5.556   6.078
 8790TIP3   OH226314   7.291   3.254   3.050
 8790TIP3    H126315   7.211   3.306   3.037
 8790TIP3    H226316   7.356   3.317   3.079
 8791TIP3   OH226317   1.430   5.520   6.105
 8791TIP3    H126318   1.415   5.427   6.084
 8791TIP3    H226319   1.421   5.565   6.022
 8792TIP3   OH226320   2.568   3.460   0.716
 8792TIP3    H126321   2.521   3.394   0.766
 8792TIP3    H226322   2.650   3.474   0.765
 8793TIP3   OH226323   4.984   6.632   6.210
 8793TIP3    H126324   5.051   6.642   6.277
 8793TIP3    H226325   4.961   6.721   6.185
 8794TIP3   OH226326   3.025   1.011   0.205
 8794TIP3    H126327   2.968   0.981   0.134
 8794TIP3    H226328   2.967   1.017   0.281
 8795TIP3   OH226329   3.910   4.641   5.724
 8795TIP3    H126330   3.999   4.667   5.700
 8795TIP3    H226331   3.854   4.709   5.687
 8796TIP3   OH226332   5.472   7.790   4.868
 8796TIP3    H126333   5.546   7.822   4.817
 8796TIP3    H226334   5.506   7.782   4.957
 8797TIP3   OH226335   5.706   1.873   3.117
 8797TIP3    H126336   5.633   1.918   3.075
 8797TIP3    H226337   5.679   1.867   3.209
 8798TIP3   OH226338   7.577   4.766   3.856
 8798TIP3    H126339   7.558   4.676   3.829
 8798TIP3    H226340   7.651   4.792   3.801
 8799TIP3   OH226341   3.347   1.939   2.780
 8799TIP3    H126342   3.280   1.891   2.829
 8799TIP3    H226343   3.298   1.993   2.719
 8800TIP3   OH226344   7.438   3.095   5.585
 8800TIP3    H126345   7.391   3.168   5.545
 8800TIP3    H226346   7.486   3.133   5.657
 8801TIP3   OH226347   5.428   6.128   2.115
 8801TIP3    H126348   5.398   6.150   2.027
 8801TIP3    H226349   5.350   6.093   2.159
 8802TIP3   OH226350   7.962   6.853   0.137
 8802TIP3    H126351   8.024   6.826   0.070
 8802TIP3    H226352   8.000   6.933   0.175
 8803TIP3   OH226353   2.385   1.915   5.323
 8803TIP3    H126354   2.341   1.907   5.407
 8803TIP3    H226355   2.352   1.842   5.271
 8804TIP3   OH226356   6.545   1.472   1.133
 8804TIP3    H126357   6.629   1.492   1.174
 8804TIP3    H226358   6.559   1.386   1.093
 8805TIP3   OH226359   2.206   2.229   3.338
 8805TIP3    H126360   2.198   2.189   3.425
 8805TIP3    H226361   2.144   2.179   3.284
 8806TIP3   OH226362   1.551   6.097   0.290
 8806TIP3    H126363   1.480   6.035   0.273
 8806TIP3    H226364   1.621   6.072   0.230
 8807TIP3   OH226365   4.744   6.390   2.225
 8807TIP3    H126366   4.833   6.355   2.234
 8807TIP3    H226367   4.737   6.416   2.134
 8808TIP3   OH226368   4.597   7.714   2.922
 8808TIP3    H126369   4.635   7.631   2.951
 8808TIP3    H226370   4.527   7.688   2.862
 8809TIP3   OH226371   1.447   0.566   5.168
 8809TIP3    H126372   1.409   0.533   5.087
 8809TIP3    H226373   1.372   0.592   5.221
 8810TIP3   OH226374   1.044   5.275   5.383
 8810TIP3    H126375   1.136   5.292   5.364
 8810TIP3    H226376   1.037   5.179   5.389
 8811TIP3   OH226377   6.464   6.082   1.187
 8811TIP3    H126378   6.533   6.081   1.253
 8811TIP3    H226379   6.383   6.080   1.237
 8812TIP3   OH226380   4.987   6.351   1.644
 8812TIP3    H126381   5.006   6.307   1.562
 8812TIP3    H226382   5.073   6.377   1.677
 8813TIP3   OH226383   6.064   7.646   0.258
 8813TIP3    H126384   6.102   7.728   0.290
 8813TIP3    H226385   5.995   7.625   0.322
 8814TIP3   OH226386   6.618   3.342   2.887
 8814TIP3    H126387   6.562   3.298   2.824
 8814TIP3    H226388   6.592   3.434   2.883
 8815TIP3   OH226389   7.977   4.309   5.763
 8815TIP3    H126390   8.033   4.345   5.694
 8815TIP3    H226391   8.038   4.278   5.830
 8816TIP3   OH226392   3.335   4.632   4.457
 8816TIP3    H126393   3.316   4.602   4.368
 8816TIP3    H226394   3.278   4.579   4.513
 8817TIP3   OH226395   4.751   7.412   5.538
 8817TIP3    H126396   4.687   7.400   5.468
 8817TIP3    H226397   4.820   7.465   5.499
 8818TIP3   OH226398   1.273   7.829   3.354
 8818TIP3    H126399   1.191   7.781   3.355
 8818TIP3    H226400   1.324   7.788   3.284
 8819TIP3   OH226401   0.860   0.377   1.127
 8819TIP3    H126402   0.898   0.441   1.067
 8819TIP3    H226403   0.928   0.309   1.135
 8820TIP3   OH226404   6.667   1.549   3.617
 8820TIP3    H126405   6.707   1.470   3.581
 8820TIP3    H226406   6.676   1.539   3.712
 8821TIP3   OH226407   0.795   2.128   4.642
 8821TIP3    H126408   0.811   2.045   4.687
 8821TIP3    H226409   0.802   2.106   4.549
 8822TIP3   OH226410   1.492   0.873   6.308
 8822TIP3    H126411   1.535   0.843   6.228
 8822TIP3    H226412   1.553   0.935   6.347
 8823TIP3   OH226413   6.385   2.553   2.622
 8823TIP3    H126414   6.296   2.578   2.646
 8823TIP3    H226415   6.412   2.493   2.692
 8824TIP3   OH226416   4.528   3.233   5.583
 8824TIP3    H126417   4.545   3.312   5.634
 8824TIP3    H226418   4.503   3.265   5.497
 8825TIP3   OH226419   3.380   7.583   6.268
 8825TIP3    H126420   3.312   7.638   6.307
 8825TIP3    H226421   3.341   7.496   6.262
 8826TIP3   OH226422   2.842   7.585   3.363
 8826TIP3    H126423   2.773   7.645   3.332
 8826TIP3    H226424   2.897   7.572   3.286
 8827TIP3   OH226425   2.904   1.954   0.130
 8827TIP3    H126426   2.992   1.930   0.159
 8827TIP3    H226427   2.859   1.870   0.120
 8828TIP3   OH226428   6.561   6.652   0.963
 8828TIP3    H126429   6.502   6.680   1.034
 8828TIP3    H226430   6.608   6.732   0.939
 8829TIP3   OH226431   3.695   4.732   1.840
 8829TIP3    H126432   3.783   4.699   1.863
 8829TIP3    H226433   3.708   4.778   1.757
 8830TIP3   OH226434   7.634   1.279   2.709
 8830TIP3    H126435   7.584   1.264   2.628
 8830TIP3    H226436   7.696   1.348   2.687
 8831TIP3   OH226437   0.068   3.025   6.336
 8831TIP3    H126438   0.114   2.948   6.369
 8831TIP3    H226439   0.119   3.099   6.371
 8832TIP3   OH226440   7.987   3.203   6.636
 8832TIP3    H126441   8.037   3.160   6.567
 8832TIP3    H226442   7.951   3.131   6.689
 8833TIP3   OH226443   3.723   4.619   3.503
 8833TIP3    H126444   3.757   4.608   3.414
 8833TIP3    H226445   3.647   4.562   3.507
 8834TIP3   OH226446   3.507   6.234   4.773
 8834TIP3    H126447   3.416   6.231   4.742
 8834TIP3    H226448   3.539   6.144   4.763
 8835TIP3   OH226449   8.174   1.431   5.397
 8835TIP3    H126450   8.262   1.467   5.400
 8835TIP3    H226451   8.186   1.337   5.412
 8836TIP3   OH226452   6.404   0.143   2.544
 8836TIP3    H126453   6.358   0.225   2.526
 8836TIP3    H226454   6.479   0.145   2.484
 8837TIP3   OH226455   4.558   6.950   2.929
 8837TIP3    H126456   4.623   6.883   2.954
 8837TIP3    H226457   4.606   7.032   2.932
 8838TIP3   OH226458   4.212   7.133   2.619
 8838TIP3    H126459   4.211   7.162   2.527
 8838TIP3    H226460   4.275   7.061   2.621
 8839TIP3   OH226461   4.747   6.750   3.388
 8839TIP3    H126462   4.813   6.763   3.321
 8839TIP3    H226463   4.664   6.757   3.341
 8840TIP3   OH226464   0.477   4.254   0.488
 8840TIP3    H126465   0.550   4.280   0.431
 8840TIP3    H226466   0.462   4.330   0.544
 8841TIP3   OH226467   7.494   0.867   5.328
 8841TIP3    H126468   7.543   0.880   5.246
 8841TIP3    H226469   7.470   0.774   5.327
 8842TIP3   OH226470   2.807   7.126   4.350
 8842TIP3    H126471   2.805   7.137   4.445
 8842TIP3    H226472   2.782   7.211   4.315
 8843TIP3   OH226473   2.026   0.093   4.973
 8843TIP3    H126474   2.076   0.041   4.910
 8843TIP3    H226475   1.994   0.029   5.036
 8844TIP3   OH226476   0.572   0.078   3.338
 8844TIP3    H126477   0.574  -0.012   3.369
 8844TIP3    H226478   0.663   0.107   3.341
 8845TIP3   OH226479   6.900   5.087   4.236
 8845TIP3    H126480   6.993   5.099   4.218
 8845TIP3    H226481   6.865   5.175   4.248
 8846TIP3   OH226482   2.260   1.163   6.715
 8846TIP3    H126483   2.277   1.250   6.680
 8846TIP3    H226484   2.202   1.121   6.651
 8847TIP3   OH226485   0.101   5.515   4.407
 8847TIP3    H126486   0.051   5.531   4.328
 8847TIP3    H226487   0.157   5.593   4.416
 8848TIP3   OH226488   3.175   6.206   3.258
 8848TIP3    H126489   3.263   6.169   3.268
 8848TIP3    H226490   3.137   6.202   3.345
 8849TIP3   OH226491   4.480   4.512   2.940
 8849TIP3    H126492   4.475   4.419   2.961
 8849TIP3    H226493   4.393   4.533   2.904
 8850TIP3   OH226494   2.003   1.447   1.648
 8850TIP3    H126495   1.960   1.394   1.715
 8850TIP3    H226496   2.060   1.385   1.601
 8851TIP3   OH226497   6.945   6.569   2.449
 8851TIP3    H126498   6.916   6.481   2.471
 8851TIP3    H226499   6.875   6.626   2.483
 8852TIP3   OH226500   3.985   0.117   3.670
 8852TIP3    H126501   4.022   0.053   3.731
 8852TIP3    H226502   3.891   0.114   3.686
 8853TIP3   OH226503   7.041   4.150   1.659
 8853TIP3    H126504   7.100   4.075   1.667
 8853TIP3    H226505   7.099   4.226   1.650
 8854TIP3   OH226506   3.289   4.584   5.583
 8854TIP3    H126507   3.371   4.589   5.533
 8854TIP3    H226508   3.316   4.553   5.670
 8855TIP3   OH226509   0.785   3.649   4.628
 8855TIP3    H126510   0.752   3.713   4.691
 8855TIP3    H226511   0.706   3.612   4.588
 8856TIP3   OH226512   7.658   2.200   5.421
 8856TIP3    H126513   7.709   2.279   5.401
 8856TIP3    H226514   7.708   2.129   5.380
 8857TIP3   OH226515   3.110   2.812   4.155
 8857TIP3    H126516   3.097   2.793   4.062
 8857TIP3    H226517   3.128   2.726   4.194
 8858TIP3   OH226518   0.824   0.922   3.122
 8858TIP3    H126519   0.869   0.928   3.206
 8858TIP3    H226520   0.802   0.830   3.112
 8859TIP3   OH226521   1.287   1.158   0.233
 8859TIP3    H126522   1.258   1.139   0.144
 8859TIP3    H226523   1.206   1.166   0.284
 8860TIP3   OH226524   0.842   4.012   3.158
 8860TIP3    H126525   0.762   3.974   3.194
 8860TIP3    H226526   0.816   4.098   3.125
 8861TIP3   OH226527   1.933   4.462   0.601
 8861TIP3    H126528   1.865   4.441   0.538
 8861TIP3    H226529   2.015   4.437   0.558
 8862TIP3   OH226530   7.343   1.396   0.228
 8862TIP3    H126531   7.260   1.437   0.204
 8862TIP3    H226532   7.318   1.325   0.287
 8863TIP3   OH226533   6.621   6.064   3.214
 8863TIP3    H126534   6.686   6.125   3.249
 8863TIP3    H226535   6.537   6.096   3.248
 8864TIP3   OH226536   7.387   0.107   3.452
 8864TIP3    H126537   7.361   0.199   3.441
 8864TIP3    H226538   7.374   0.068   3.366
 8865TIP3   OH226539   5.517   4.113   6.534
 8865TIP3    H126540   5.453   4.054   6.496
 8865TIP3    H226541   5.468   4.193   6.554
 8866TIP3   OH226542   3.342   1.268   5.277
 8866TIP3    H126543   3.281   1.202   5.244
 8866TIP3    H226544   3.332   1.265   5.372
 8867TIP3   OH226545   2.722   5.174   0.160
 8867TIP3    H126546   2.776   5.142   0.232
 8867TIP3    H226547   2.772   5.249   0.125
 8868TIP3   OH226548   2.978   6.754   4.145
 8868TIP3    H126549   3.005   6.840   4.114
 8868TIP3    H226550   2.948   6.769   4.234
 8869TIP3   OH226551   3.167   4.225   1.989
 8869TIP3    H126552   3.125   4.222   2.075
 8869TIP3    H226553   3.228   4.298   1.995
 8870TIP3   OH226554   3.852   6.869   0.167
 8870TIP3    H126555   3.925   6.809   0.151
 8870TIP3    H226556   3.837   6.864   0.261
 8871TIP3   OH226557   2.315   4.251   1.503
 8871TIP3    H126558   2.344   4.185   1.566
 8871TIP3    H226559   2.394   4.271   1.451
 8872TIP3   OH226560   0.585   1.196   1.360
 8872TIP3    H126561   0.618   1.285   1.349
 8872TIP3    H226562   0.523   1.202   1.433
 8873TIP3   OH226563   1.809   1.283   2.348
 8873TIP3    H126564   1.818   1.191   2.324
 8873TIP3    H226565   1.720   1.306   2.322
 8874TIP3   OH226566   6.738   3.291   3.507
 8874TIP3    H126567   6.645   3.284   3.484
 8874TIP3    H226568   6.771   3.361   3.451
 8875TIP3   OH226569   3.006   5.143   5.162
 8875TIP3    H126570   2.996   5.191   5.080
 8875TIP3    H226571   2.932   5.171   5.215
 8876TIP3   OH226572   0.142   0.824   1.101
 8876TIP3    H126573   0.124   0.781   1.017
 8876TIP3    H226574   0.080   0.897   1.104
 8877TIP3   OH226575   5.193   2.329   4.062
 8877TIP3    H126576   5.222   2.278   3.986
 8877TIP3    H226577   5.114   2.373   4.032
 8878TIP3   OH226578   1.523   7.316   4.763
 8878TIP3    H126579   1.515   7.338   4.856
 8878TIP3    H226580   1.453   7.366   4.720
 8879TIP3   OH226581   3.529   0.308   2.314
 8879TIP3    H126582   3.489   0.307   2.401
 8879TIP3    H226583   3.477   0.246   2.263
 8880TIP3   OH226584   5.091   4.277   5.281
 8880TIP3    H126585   5.127   4.331   5.211
 8880TIP3    H226586   5.003   4.312   5.295
 8881TIP3   OH226587   5.950   1.392   3.126
 8881TIP3    H126588   5.989   1.418   3.043
 8881TIP3    H226589   5.866   1.438   3.128
 8882TIP3   OH226590   7.336   1.405   2.604
 8882TIP3    H126591   7.387   1.452   2.670
 8882TIP3    H226592   7.391   1.329   2.582
 8883TIP3   OH226593   4.767   4.357   2.303
 8883TIP3    H126594   4.832   4.345   2.373
 8883TIP3    H226595   4.793   4.294   2.236
 8884TIP3   OH226596   6.043   2.518   0.167
 8884TIP3    H126597   6.123   2.471   0.191
 8884TIP3    H226598   6.073   2.603   0.135
 8885TIP3   OH226599   4.012   0.301   0.747
 8885TIP3    H126600   4.044   0.241   0.680
 8885TIP3    H226601   3.989   0.381   0.699
 8886TIP3   OH226602   7.784   1.755   6.783
 8886TIP3    H126603   7.708   1.732   6.837
 8886TIP3    H226604   7.851   1.691   6.808
 8887TIP3   OH226605   5.619   7.850   6.110
 8887TIP3    H126606   5.618   7.936   6.152
 8887TIP3    H226607   5.643   7.790   6.180
 8888TIP3   OH226608   5.781   2.533   1.326
 8888TIP3    H126609   5.847   2.568   1.266
 8888TIP3    H226610   5.733   2.469   1.274
 8889TIP3   OH226611   7.747   3.266   4.959
 8889TIP3    H126612   7.692   3.291   4.885
 8889TIP3    H226613   7.816   3.332   4.962
 8890TIP3   OH226614   1.922   0.482   2.732
 8890TIP3    H126615   1.923   0.429   2.652
 8890TIP3    H226616   2.008   0.523   2.735
 8891TIP3   OH226617   0.800   7.078   4.097
 8891TIP3    H126618   0.839   7.145   4.041
 8891TIP3    H226619   0.870   7.015   4.113
 8892TIP3   OH226620   5.638   0.093   0.663
 8892TIP3    H126621   5.565   0.031   0.664
 8892TIP3    H226622   5.704   0.052   0.608
 8893TIP3   OH226623   4.828   3.810   4.581
 8893TIP3    H126624   4.821   3.906   4.582
 8893TIP3    H226625   4.770   3.782   4.510
 8894TIP3   OH226626   3.375   3.261   3.788
 8894TIP3    H126627   3.287   3.253   3.752
 8894TIP3    H226628   3.361   3.286   3.880
 8895TIP3   OH226629   2.638   4.248   6.414
 8895TIP3    H126630   2.596   4.278   6.495
 8895TIP3    H226631   2.623   4.319   6.352
 8896TIP3   OH226632   1.049   4.510   6.303
 8896TIP3    H126633   1.099   4.561   6.368
 8896TIP3    H226634   1.083   4.421   6.311
 8897TIP3   OH226635   1.232   2.536   4.771
 8897TIP3    H126636   1.171   2.464   4.755
 8897TIP3    H226637   1.253   2.569   4.683
 8898TIP3   OH226638   1.701   1.456   6.746
 8898TIP3    H126639   1.609   1.472   6.723
 8898TIP3    H226640   1.707   1.480   6.839
 8899TIP3   OH226641   0.393   4.925   0.374
 8899TIP3    H126642   0.423   4.977   0.299
 8899TIP3    H226643   0.382   4.837   0.339
 8900TIP3   OH226644   5.584   1.944   3.757
 8900TIP3    H126645   5.579   2.022   3.702
 8900TIP3    H226646   5.678   1.930   3.770
 8901TIP3   OH226647   0.065   2.886   0.467
 8901TIP3    H126648   0.084   2.818   0.531
 8901TIP3    H226649   0.071   2.968   0.517
 8902TIP3   OH226650   0.745   5.458   5.119
 8902TIP3    H126651   0.831   5.415   5.117
 8902TIP3    H226652   0.687   5.393   5.159
 8903TIP3   OH226653   2.447   4.366   1.130
 8903TIP3    H126654   2.492   4.329   1.205
 8903TIP3    H226655   2.507   4.431   1.095
 8904TIP3   OH226656   0.015   7.174   3.073
 8904TIP3    H126657   0.092   7.123   3.098
 8904TIP3    H226658  -0.059   7.124   3.107
 8905TIP3   OH226659   2.618   7.141   1.909
 8905TIP3    H126660   2.559   7.137   1.983
 8905TIP3    H226661   2.565   7.116   1.833
 8906TIP3   OH226662   3.341   5.774   5.565
 8906TIP3    H126663   3.253   5.781   5.602
 8906TIP3    H226664   3.327   5.739   5.477
 8907TIP3   OH226665   6.946   5.672   1.006
 8907TIP3    H126666   7.006   5.716   0.946
 8907TIP3    H226667   6.955   5.719   1.089
 8908TIP3   OH226668   5.193   4.955   2.511
 8908TIP3    H126669   5.248   4.899   2.456
 8908TIP3    H226670   5.160   5.022   2.450
 8909TIP3   OH226671   0.127   4.766   2.202
 8909TIP3    H126672   0.187   4.782   2.129
 8909TIP3    H226673   0.099   4.675   2.192
 8910TIP3   OH226674   0.728   3.428   5.136
 8910TIP3    H126675   0.764   3.343   5.110
 8910TIP3    H226676   0.695   3.466   5.055
 8911TIP3   OH226677   2.490   4.277   2.539
 8911TIP3    H126678   2.410   4.264   2.487
 8911TIP3    H226679   2.479   4.363   2.578
 8912TIP3   OH226680   2.087   1.520   5.714
 8912TIP3    H126681   2.037   1.513   5.796
 8912TIP3    H226682   2.150   1.449   5.719
 8913TIP3   OH226683   5.247   0.911   4.348
 8913TIP3    H126684   5.191   0.838   4.374
 8913TIP3    H226685   5.253   0.966   4.426
 8914TIP3   OH226686   5.355   2.509   6.691
 8914TIP3    H126687   5.351   2.413   6.683
 8914TIP3    H226688   5.264   2.537   6.682
 8915TIP3   OH226689   7.153   1.667   4.609
 8915TIP3    H126690   7.158   1.659   4.704
 8915TIP3    H226691   7.229   1.619   4.577
 8916TIP3   OH226692   3.338   2.904   4.280
 8916TIP3    H126693   3.320   2.980   4.336
 8916TIP3    H226694   3.251   2.877   4.250
 8917TIP3   OH226695   0.978   1.776  -0.011
 8917TIP3    H126696   0.929   1.858  -0.017
 8917TIP3    H226697   1.052   1.796   0.045
 8918TIP3   OH226698   6.463   1.567   2.918
 8918TIP3    H126699   6.467   1.495   2.855
 8918TIP3    H226700   6.377   1.607   2.904
 8919TIP3   OH226701   7.011   7.009   0.064
 8919TIP3    H126702   6.957   7.088   0.053
 8919TIP3    H226703   7.009   6.967  -0.023
 8920TIP3   OH226704   6.272   2.368   0.127
 8920TIP3    H126705   6.325   2.362   0.048
 8920TIP3    H226706   6.286   2.285   0.172
 8921TIP3   OH226707   6.762   5.830   4.670
 8921TIP3    H126708   6.776   5.817   4.576
 8921TIP3    H226709   6.822   5.768   4.711
 8922TIP3   OH226710   4.943   2.258   4.957
 8922TIP3    H126711   4.899   2.208   5.025
 8922TIP3    H226712   5.031   2.222   4.953
 8923TIP3   OH226713   4.290   1.705   6.011
 8923TIP3    H126714   4.229   1.631   6.008
 8923TIP3    H226715   4.331   1.706   5.924
 8924TIP3   OH226716   2.955   1.495   6.339
 8924TIP3    H126717   2.921   1.529   6.422
 8924TIP3    H226718   3.046   1.472   6.358
 8925TIP3   OH226719   6.766   3.730   1.349
 8925TIP3    H126720   6.810   3.704   1.269
 8925TIP3    H226721   6.684   3.680   1.348
 8926TIP3   OH226722   7.820   3.667   4.719
 8926TIP3    H126723   7.841   3.575   4.705
 8926TIP3    H226724   7.898   3.714   4.690
 8927TIP3   OH226725   6.347   2.891   5.979
 8927TIP3    H126726   6.376   2.804   6.004
 8927TIP3    H226727   6.282   2.916   6.045
 8928TIP3   OH226728   4.919   4.184   3.214
 8928TIP3    H126729   4.887   4.274   3.220
 8928TIP3    H226730   4.992   4.181   3.276
 8929TIP3   OH226731   2.537   6.567   0.985
 8929TIP3    H126732   2.554   6.540   1.075
 8929TIP3    H226733   2.497   6.653   0.993
 8930TIP3   OH226734   1.376   0.063   6.367
 8930TIP3    H126735   1.407   0.002   6.299
 8930TIP3    H226736   1.327   0.130   6.318
 8931TIP3   OH226737   2.911   5.070   0.378
 8931TIP3    H126738   2.853   4.994   0.375
 8931TIP3    H226739   2.984   5.047   0.321
 8932TIP3   OH226740   4.395   1.383   5.178
 8932TIP3    H126741   4.463   1.450   5.176
 8932TIP3    H226742   4.409   1.333   5.097
 8933TIP3   OH226743   4.010   4.886   4.716
 8933TIP3    H126744   4.053   4.813   4.760
 8933TIP3    H226745   3.919   4.883   4.746
 8934TIP3   OH226746   5.729   5.237   0.900
 8934TIP3    H126747   5.658   5.201   0.954
 8934TIP3    H226748   5.807   5.189   0.928
 8935TIP3   OH226749   6.113   4.571   6.032
 8935TIP3    H126750   6.026   4.551   6.066
 8935TIP3    H226751   6.137   4.493   5.982
 8936TIP3   OH226752   6.768   1.980   2.119
 8936TIP3    H126753   6.745   2.067   2.153
 8936TIP3    H226754   6.852   1.960   2.161
 8937TIP3   OH226755   5.208   6.455   3.588
 8937TIP3    H126756   5.248   6.409   3.662
 8937TIP3    H226757   5.178   6.538   3.625
 8938TIP3   OH226758   7.416   6.704   4.189
 8938TIP3    H126759   7.432   6.666   4.275
 8938TIP3    H226760   7.438   6.797   4.199
 8939TIP3   OH226761   5.089   4.906   4.337
 8939TIP3    H126762   5.118   4.817   4.360
 8939TIP3    H226763   5.170   4.956   4.332
 8940TIP3   OH226764   2.857   4.949   5.399
 8940TIP3    H126765   2.808   4.898   5.464
 8940TIP3    H226766   2.845   5.040   5.426
 8941TIP3   OH226767   3.544   0.538   0.373
 8941TIP3    H126768   3.510   0.609   0.427
 8941TIP3    H226769   3.493   0.542   0.292
 8942TIP3   OH226770   4.969   0.735   0.183
 8942TIP3    H126771   4.953   0.773   0.269
 8942TIP3    H226772   5.058   0.763   0.161
 8943TIP3   OH226773   3.771   5.584   0.230
 8943TIP3    H126774   3.775   5.649   0.160
 8943TIP3    H226775   3.701   5.614   0.288
 8944TIP3   OH226776   3.816   7.659   5.731
 8944TIP3    H126777   3.821   7.704   5.816
 8944TIP3    H226778   3.801   7.729   5.668
 8945TIP3   OH226779   2.407   2.331   5.015
 8945TIP3    H126780   2.467   2.367   5.081
 8945TIP3    H226781   2.463   2.307   4.942
 8946TIP3   OH226782   1.677   0.478   0.282
 8946TIP3    H126783   1.615   0.537   0.239
 8946TIP3    H226784   1.648   0.390   0.257
 8947TIP3   OH226785   4.726   2.544   4.349
 8947TIP3    H126786   4.721   2.618   4.409
 8947TIP3    H226787   4.636   2.531   4.318
 8948TIP3   OH226788   6.879   4.863   2.755
 8948TIP3    H126789   6.791   4.827   2.766
 8948TIP3    H226790   6.867   4.940   2.699
 8949TIP3   OH226791   2.142   4.473   1.873
 8949TIP3    H126792   2.052   4.506   1.868
 8949TIP3    H226793   2.174   4.504   1.958
 8950TIP3   OH226794   6.694   5.806   6.679
 8950TIP3    H126795   6.714   5.872   6.745
 8950TIP3    H226796   6.769   5.808   6.620
 8951TIP3   OH226797   7.118   4.798   2.150
 8951TIP3    H126798   7.074   4.714   2.163
 8951TIP3    H226799   7.058   4.847   2.094
 8952TIP3   OH226800   1.467   2.023   2.487
 8952TIP3    H126801   1.556   2.004   2.454
 8952TIP3    H226802   1.460   1.974   2.568
 8953TIP3   OH226803   2.687   2.553   2.090
 8953TIP3    H126804   2.743   2.500   2.034
 8953TIP3    H226805   2.747   2.599   2.147
 8954TIP3   OH226806   7.791   3.161   3.074
 8954TIP3    H126807   7.854   3.090   3.061
 8954TIP3    H226808   7.743   3.166   2.992
 8955TIP3   OH226809   2.075   3.979   3.463
 8955TIP3    H126810   2.040   4.026   3.387
 8955TIP3    H226811   2.141   4.038   3.500
 8956TIP3   OH226812   7.278   0.610   3.385
 8956TIP3    H126813   7.200   0.640   3.339
 8956TIP3    H226814   7.318   0.690   3.420
 8957TIP3   OH226815   2.300   7.060   0.721
 8957TIP3    H126816   2.280   7.092   0.809
 8957TIP3    H226817   2.395   7.050   0.721
 8958TIP3   OH226818   5.931   1.992   3.027
 8958TIP3    H126819   5.883   2.062   2.982
 8958TIP3    H226820   5.865   1.949   3.081
 8959TIP3   OH226821   3.908   5.930   3.902
 8959TIP3    H126822   3.947   5.895   3.822
 8959TIP3    H226823   3.815   5.909   3.896
 8960TIP3   OH226824   4.536   2.999   4.086
 8960TIP3    H126825   4.524   2.948   4.166
 8960TIP3    H226826   4.575   2.938   4.024
 8961TIP3   OH226827   1.461   1.809   5.040
 8961TIP3    H126828   1.510   1.802   5.122
 8961TIP3    H226829   1.526   1.841   4.977
 8962TIP3   OH226830   1.625   0.903   3.145
 8962TIP3    H126831   1.682   0.826   3.146
 8962TIP3    H226832   1.601   0.914   3.053
 8963TIP3   OH226833   7.517   6.964   4.222
 8963TIP3    H126834   7.564   6.962   4.305
 8963TIP3    H226835   7.432   7.001   4.244
 8964TIP3   OH226836   6.568   2.077   0.176
 8964TIP3    H126837   6.534   2.012   0.115
 8964TIP3    H226838   6.652   2.104   0.139
 8965TIP3   OH226839   4.662   5.598   4.132
 8965TIP3    H126840   4.677   5.586   4.038
 8965TIP3    H226841   4.628   5.514   4.162
 8966TIP3   OH226842   7.655   5.590   3.166
 8966TIP3    H126843   7.611   5.512   3.132
 8966TIP3    H226844   7.667   5.572   3.260
 8967TIP3   OH226845   0.814   5.079   0.129
 8967TIP3    H126846   0.835   5.025   0.206
 8967TIP3    H226847   0.888   5.065   0.070
 8968TIP3   OH226848   2.142   3.755   6.059
 8968TIP3    H126849   2.056   3.752   6.019
 8968TIP3    H226850   2.201   3.783   5.989
 8969TIP3   OH226851   3.489   4.007   4.229
 8969TIP3    H126852   3.426   3.938   4.207
 8969TIP3    H226853   3.569   3.981   4.183
 8970TIP3   OH226854   4.657   3.138   2.794
 8970TIP3    H126855   4.745   3.099   2.787
 8970TIP3    H226856   4.672   3.225   2.829
 8971TIP3   OH226857   7.303   4.265   4.206
 8971TIP3    H126858   7.299   4.352   4.165
 8971TIP3    H226859   7.302   4.282   4.300
 8972TIP3   OH226860   2.859   4.569   2.882
 8972TIP3    H126861   2.850   4.551   2.976
 8972TIP3    H226862   2.841   4.663   2.874
 8973TIP3   OH226863   7.779   3.558   5.526
 8973TIP3    H126864   7.850   3.530   5.469
 8973TIP3    H226865   7.822   3.581   5.608
 8974TIP3   OH226866   5.736   6.760   2.845
 8974TIP3    H126867   5.822   6.745   2.885
 8974TIP3    H226868   5.719   6.853   2.861
 8975TIP3   OH226869   7.160   6.015   2.970
 8975TIP3    H126870   7.097   6.075   2.931
 8975TIP3    H226871   7.107   5.954   3.022
 8976TIP3   OH226872   4.052   6.920   6.281
 8976TIP3    H126873   4.017   7.007   6.261
 8976TIP3    H226874   4.107   6.898   6.205
 8977TIP3   OH226875   7.848   7.553   1.411
 8977TIP3    H126876   7.785   7.593   1.471
 8977TIP3    H226877   7.909   7.623   1.390
 8978TIP3   OH226878   5.332   4.467   4.130
 8978TIP3    H126879   5.370   4.554   4.127
 8978TIP3    H226880   5.359   4.432   4.215
 8979TIP3   OH226881   0.237   0.225   0.631
 8979TIP3    H126882   0.303   0.274   0.679
 8979TIP3    H226883   0.180   0.292   0.594
 8980TIP3   OH226884   7.383   0.456   1.919
 8980TIP3    H126885   7.327   0.413   1.983
 8980TIP3    H226886   7.384   0.395   1.845
 8981TIP3   OH226887   7.926   2.156   4.818
 8981TIP3    H126888   7.918   2.250   4.836
 8981TIP3    H226889   7.921   2.114   4.904
 8982TIP3   OH226890   8.123   0.667   5.283
 8982TIP3    H126891   8.083   0.608   5.220
 8982TIP3    H226892   8.180   0.611   5.336
 8983TIP3   OH226893   0.966   5.650   3.463
 8983TIP3    H126894   0.912   5.598   3.404
 8983TIP3    H226895   0.929   5.738   3.459
 8984TIP3   OH226896   2.424   1.920   1.101
 8984TIP3    H126897   2.466   1.859   1.040
 8984TIP3    H226898   2.362   1.866   1.150
 8985TIP3   OH226899   4.552   6.241   3.903
 8985TIP3    H126900   4.620   6.177   3.924
 8985TIP3    H226901   4.585   6.287   3.825
 8986TIP3   OH226902   1.048   5.006   5.310
 8986TIP3    H126903   0.982   4.943   5.282
 8986TIP3    H226904   1.115   5.003   5.242
 8987TIP3   OH226905   7.095   3.893   2.878
 8987TIP3    H126906   7.173   3.929   2.835
 8987TIP3    H226907   7.110   3.799   2.880
 8988TIP3   OH226908   3.653   0.246   6.389
 8988TIP3    H126909   3.745   0.221   6.397
 8988TIP3    H226910   3.632   0.286   6.474
 8989TIP3   OH226911   5.412   2.363   5.451
 8989TIP3    H126912   5.429   2.369   5.545
 8989TIP3    H226913   5.491   2.399   5.410
 8990TIP3   OH226914   5.060   2.119   1.283
 8990TIP3    H126915   4.970   2.130   1.252
 8990TIP3    H226916   5.092   2.208   1.295
 8991TIP3   OH226917   0.673   6.573   6.237
 8991TIP3    H126918   0.624   6.648   6.203
 8991TIP3    H226919   0.660   6.577   6.331
 8992TIP3   OH226920   4.019   5.645   5.911
 8992TIP3    H126921   3.927   5.637   5.935
 8992TIP3    H226922   4.030   5.737   5.889
 8993TIP3   OH226923   6.550   4.353   4.605
 8993TIP3    H126924   6.502   4.430   4.575
 8993TIP3    H226925   6.505   4.280   4.563
 8994TIP3   OH226926   2.051   3.623   2.603
 8994TIP3    H126927   2.133   3.574   2.613
 8994TIP3    H226928   2.063   3.674   2.523
 8995TIP3   OH226929   1.817   5.366   0.755
 8995TIP3    H126930   1.744   5.383   0.696
 8995TIP3    H226931   1.894   5.399   0.709
 8996TIP3   OH226932   5.942   1.639   1.998
 8996TIP3    H126933   5.950   1.558   1.948
 8996TIP3    H226934   6.017   1.639   2.057
 8997TIP3   OH226935   5.513   4.386   3.420
 8997TIP3    H126936   5.601   4.418   3.440
 8997TIP3    H226937   5.488   4.335   3.497
 8998TIP3   OH226938   3.837   6.151   3.557
 8998TIP3    H126939   3.771   6.211   3.592
 8998TIP3    H226940   3.919   6.181   3.594
 8999TIP3   OH226941   1.712   6.407   3.083
 8999TIP3    H126942   1.694   6.372   2.995
 8999TIP3    H226943   1.785   6.354   3.114
 9000TIP3   OH226944   4.795   0.383   1.296
 9000TIP3    H126945   4.835   0.296   1.295
 9000TIP3    H226946   4.867   0.441   1.320
 9001TIP3   OH226947   1.135   4.259   6.355
 9001TIP3    H126948   1.073   4.194   6.386
 9001TIP3    H226949   1.214   4.244   6.406
 9002TIP3   OH226950   3.656   5.002   4.056
 9002TIP3    H126951   3.739   4.982   4.099
 9002TIP3    H226952   3.671   5.088   4.016
 9003TIP3   OH226953   2.730   7.450   4.141
 9003TIP3    H126954   2.761   7.540   4.135
 9003TIP3    H226955   2.797   7.398   4.097
 9004TIP3   OH226956   2.495   4.993   2.872
 9004TIP3    H126957   2.416   4.988   2.819
 9004TIP3    H226958   2.466   5.025   2.957
 9005TIP3   OH226959   7.884   5.815   2.353
 9005TIP3    H126960   7.811   5.876   2.364
 9005TIP3    H226961   7.955   5.870   2.317
 9006TIP3   OH226962   6.242   4.450   2.572
 9006TIP3    H126963   6.147   4.455   2.571
 9006TIP3    H226964   6.268   4.460   2.481
 9007TIP3   OH226965   7.192   5.649   1.404
 9007TIP3    H126966   7.238   5.591   1.344
 9007TIP3    H226967   7.154   5.591   1.470
 9008TIP3   OH226968   2.795   5.495   4.058
 9008TIP3    H126969   2.873   5.491   4.003
 9008TIP3    H226970   2.803   5.577   4.106
 9009TIP3   OH226971   6.148   5.432   1.500
 9009TIP3    H126972   6.158   5.437   1.405
 9009TIP3    H226973   6.057   5.403   1.513
 9010TIP3   OH226974   5.192   1.796   0.469
 9010TIP3    H126975   5.267   1.737   0.461
 9010TIP3    H226976   5.211   1.849   0.546
 9011TIP3   OH226977   3.092   1.280   4.772
 9011TIP3    H126978   3.072   1.316   4.685
 9011TIP3    H226979   3.007   1.258   4.809
 9012TIP3   OH226980   5.629   3.048   1.729
 9012TIP3    H126981   5.702   3.104   1.755
 9012TIP3    H226982   5.590   3.094   1.655
 9013TIP3   OH226983   4.353   6.728   3.688
 9013TIP3    H126984   4.447   6.725   3.669
 9013TIP3    H226985   4.316   6.656   3.638
 9014TIP3   OH226986   3.592   7.695   2.471
 9014TIP3    H126987   3.631   7.645   2.543
 9014TIP3    H226988   3.608   7.786   2.493
 9015TIP3   OH226989   2.611   4.364   2.117
 9015TIP3    H126990   2.677   4.325   2.060
 9015TIP3    H226991   2.556   4.290   2.144
 9016TIP3   OH226992   4.508   0.821   0.674
 9016TIP3    H126993   4.522   0.900   0.726
 9016TIP3    H226994   4.553   0.751   0.722
 9017TIP3   OH226995   6.736   2.060   4.269
 9017TIP3    H126996   6.790   2.034   4.195
 9017TIP3    H226997   6.738   2.156   4.268
 9018TIP3   OH226998   7.391   3.306   3.306
 9018TIP3    H126999   7.343   3.239   3.354
 9018TIP3    H227000   7.366   3.388   3.348
 9019TIP3   OH227001   4.670   3.537   4.919
 9019TIP3    H127002   4.654   3.606   4.854
 9019TIP3    H227003   4.595   3.478   4.909
 9020TIP3   OH227004   4.484   1.405   3.510
 9020TIP3    H127005   4.477   1.403   3.414
 9020TIP3    H227006   4.405   1.452   3.538
 9021TIP3   OH227007   3.297   4.328   2.641
 9021TIP3    H127008   3.306   4.246   2.688
 9021TIP3    H227009   3.371   4.329   2.580
 9022TIP3   OH227010   0.955   7.649   5.256
 9022TIP3    H127011   0.877   7.607   5.219
 9022TIP3    H227012   1.007   7.674   5.181
 9023TIP3   OH227013   3.898   1.340   0.237
 9023TIP3    H127014   3.804   1.340   0.219
 9023TIP3    H227015   3.905   1.320   0.330
 9024TIP3   OH227016   2.163   1.475   2.544
 9024TIP3    H127017   2.097   1.478   2.474
 9024TIP3    H227018   2.211   1.557   2.536
 9025TIP3   OH227019   4.716   7.459   5.097
 9025TIP3    H127020   4.799   7.471   5.051
 9025TIP3    H227021   4.652   7.442   5.028
 9026TIP3   OH227022   3.354   5.588   1.379
 9026TIP3    H127023   3.266   5.624   1.364
 9026TIP3    H227024   3.411   5.642   1.324
 9027TIP3   OH227025   6.580   5.371   4.485
 9027TIP3    H127026   6.668   5.337   4.469
 9027TIP3    H227027   6.576   5.452   4.433
 9028TIP3   OH227028   0.887   4.258   2.735
 9028TIP3    H127029   0.875   4.346   2.699
 9028TIP3    H227030   0.947   4.269   2.808
 9029TIP3   OH227031   6.300   2.339   6.128
 9029TIP3    H127032   6.366   2.270   6.136
 9029TIP3    H227033   6.223   2.295   6.092
 9030TIP3   OH227034   2.191   3.304   2.481
 9030TIP3    H127035   2.167   3.226   2.531
 9030TIP3    H227036   2.282   3.320   2.506
 9031TIP3   OH227037   7.132   5.276   3.437
 9031TIP3    H127038   7.133   5.264   3.342
 9031TIP3    H227039   7.115   5.189   3.473
 9032TIP3   OH227040   4.425   2.417   0.713
 9032TIP3    H127041   4.443   2.504   0.748
 9032TIP3    H227042   4.462   2.418   0.624
 9033TIP3   OH227043   1.797   4.428   5.238
 9033TIP3    H127044   1.859   4.405   5.169
 9033TIP3    H227045   1.752   4.346   5.258
 9034TIP3   OH227046   6.275   7.201   1.526
 9034TIP3    H127047   6.283   7.221   1.432
 9034TIP3    H227048   6.317   7.274   1.570
 9035TIP3   OH227049   0.816   5.169   2.260
 9035TIP3    H127050   0.772   5.180   2.345
 9035TIP3    H227051   0.892   5.228   2.265
 9036TIP3   OH227052   8.283   4.292   5.036
 9036TIP3    H127053   8.228   4.240   5.095
 9036TIP3    H227054   8.227   4.367   5.012
 9037TIP3   OH227055   1.296   3.543   6.314
 9037TIP3    H127056   1.248   3.460   6.307
 9037TIP3    H227057   1.386   3.521   6.292
 9038TIP3   OH227058   6.064   6.958   1.269
 9038TIP3    H127059   6.001   6.902   1.224
 9038TIP3    H227060   6.020   7.043   1.277
 9039TIP3   OH227061   0.206   5.785   5.376
 9039TIP3    H127062   0.162   5.803   5.293
 9039TIP3    H227063   0.240   5.696   5.366
 9040TIP3   OH227064   1.243   1.554   0.214
 9040TIP3    H127065   1.281   1.536   0.127
 9040TIP3    H227066   1.228   1.648   0.215
 9041TIP3   OH227067   3.650   6.408   0.424
 9041TIP3    H127068   3.637   6.368   0.510
 9041TIP3    H227069   3.706   6.347   0.377
 9042TIP3   OH227070   4.297   5.395   4.684
 9042TIP3    H127071   4.203   5.399   4.700
 9042TIP3    H227072   4.334   5.466   4.736
 9043TIP3   OH227073   2.482   4.795   0.496
 9043TIP3    H127074   2.457   4.884   0.520
 9043TIP3    H227075   2.456   4.742   0.571
 9044TIP3   OH227076   8.196   2.581   3.526
 9044TIP3    H127077   8.256   2.575   3.600
 9044TIP3    H227078   8.111   2.600   3.565
 9045TIP3   OH227079   1.838   6.140   2.346
 9045TIP3    H127080   1.783   6.068   2.376
 9045TIP3    H227081   1.927   6.113   2.369
 9046TIP3   OH227082   1.190   6.043   0.583
 9046TIP3    H127083   1.175   6.027   0.676
 9046TIP3    H227084   1.115   6.097   0.556
 9047TIP3   OH227085   3.644   0.495   5.465
 9047TIP3    H127086   3.555   0.504   5.430
 9047TIP3    H227087   3.674   0.411   5.431
 9048TIP3   OH227088   0.836   6.484   0.805
 9048TIP3    H127089   0.892   6.422   0.757
 9048TIP3    H227090   0.880   6.494   0.890
 9049TIP3   OH227091   2.169   4.572   0.358
 9049TIP3    H127092   2.195   4.484   0.386
 9049TIP3    H227093   2.119   4.559   0.278
 9050TIP3   OH227094   2.766   4.843   5.155
 9050TIP3    H127095   2.836   4.778   5.158
 9050TIP3    H227096   2.794   4.912   5.216
 9051TIP3   OH227097   5.631   2.785   3.196
 9051TIP3    H127098   5.671   2.805   3.111
 9051TIP3    H227099   5.609   2.871   3.232
 9052TIP3   OH227100   4.633   5.476   3.307
 9052TIP3    H127101   4.581   5.540   3.355
 9052TIP3    H227102   4.723   5.494   3.332
 9053TIP3   OH227103   2.111   5.499   3.922
 9053TIP3    H127104   2.184   5.503   3.860
 9053TIP3    H227105   2.150   5.513   4.008
 9054TIP3   OH227106   7.593   5.090   6.072
 9054TIP3    H127107   7.589   5.055   5.983
 9054TIP3    H227108   7.636   5.175   6.063
 9055TIP3   OH227109   2.037   2.324   5.642
 9055TIP3    H127110   2.100   2.253   5.653
 9055TIP3    H227111   1.982   2.297   5.569
 9056TIP3   OH227112   1.808   2.394   3.655
 9056TIP3    H127113   1.765   2.479   3.652
 9056TIP3    H227114   1.862   2.391   3.576
 9057TIP3   OH227115   6.901   4.496   6.189
 9057TIP3    H127116   6.829   4.539   6.143
 9057TIP3    H227117   6.886   4.403   6.175
 9058TIP3   OH227118   4.278   7.015   5.950
 9058TIP3    H127119   4.271   6.976   6.037
 9058TIP3    H227120   4.217   6.965   5.895
 9059TIP3   OH227121   7.526   4.917   2.193
 9059TIP3    H127122   7.533   4.949   2.103
 9059TIP3    H227123   7.587   4.843   2.197
 9060TIP3   OH227124   4.188   2.571   6.226
 9060TIP3    H127125   4.138   2.542   6.302
 9060TIP3    H227126   4.207   2.663   6.243
 9061TIP3   OH227127   4.571   1.216   0.483
 9061TIP3    H127128   4.577   1.167   0.400
 9061TIP3    H227129   4.528   1.298   0.459
 9062TIP3   OH227130   3.491   4.218   0.939
 9062TIP3    H127131   3.486   4.273   0.861
 9062TIP3    H227132   3.486   4.280   1.012
 9063TIP3   OH227133   5.963   1.980   4.358
 9063TIP3    H127134   5.940   1.928   4.281
 9063TIP3    H227135   5.986   1.916   4.425
 9064TIP3   OH227136   4.686   6.611   4.364
 9064TIP3    H127137   4.687   6.595   4.270
 9064TIP3    H227138   4.740   6.541   4.401
 9065TIP3   OH227139   8.171   2.801   2.633
 9065TIP3    H127140   8.215   2.800   2.718
 9065TIP3    H227141   8.238   2.832   2.572
 9066TIP3   OH227142   5.034   0.006   0.457
 9066TIP3    H127143   4.983   0.046   0.387
 9066TIP3    H227144   5.064  -0.077   0.421
 9067TIP3   OH227145   7.343   0.768   3.949
 9067TIP3    H127146   7.291   0.834   3.905
 9067TIP3    H227147   7.422   0.760   3.896
 9068TIP3   OH227148   3.695   4.821   4.410
 9068TIP3    H127149   3.666   4.882   4.478
 9068TIP3    H227150   3.619   4.764   4.396
 9069TIP3   OH227151   5.219   2.564   5.461
 9069TIP3    H127152   5.207   2.569   5.366
 9069TIP3    H227153   5.255   2.476   5.476
 9070TIP3   OH227154   0.053   3.468   2.193
 9070TIP3    H127155   0.135   3.478   2.241
 9070TIP3    H227156   0.045   3.373   2.181
 9071TIP3   OH227157   5.988   0.451   3.958
 9071TIP3    H127158   5.903   0.487   3.984
 9071TIP3    H227159   6.043   0.527   3.940
 9072TIP3   OH227160   6.796   1.296   5.138
 9072TIP3    H127161   6.724   1.270   5.080
 9072TIP3    H227162   6.828   1.379   5.102
 9073TIP3   OH227163   2.037   5.852   1.976
 9073TIP3    H127164   2.105   5.914   1.951
 9073TIP3    H227165   2.075   5.802   2.048
 9074TIP3   OH227166   0.705   6.343   6.547
 9074TIP3    H127167   0.630   6.318   6.601
 9074TIP3    H227168   0.690   6.436   6.528
 9075TIP3   OH227169   2.257   3.004   6.715
 9075TIP3    H127170   2.263   3.027   6.623
 9075TIP3    H227171   2.294   3.080   6.761
 9076TIP3   OH227172   0.178   6.545   5.360
 9076TIP3    H127173   0.106   6.523   5.301
 9076TIP3    H227174   0.139   6.542   5.447
 9077TIP3   OH227175   1.643   0.183   5.651
 9077TIP3    H127176   1.583   0.239   5.602
 9077TIP3    H227177   1.718   0.240   5.671
 9078TIP3   OH227178   4.734   1.350   5.290
 9078TIP3    H127179   4.726   1.305   5.206
 9078TIP3    H227180   4.696   1.437   5.274
 9079TIP3   OH227181   6.979   7.438   3.089
 9079TIP3    H127182   6.897   7.390   3.078
 9079TIP3    H227183   6.964   7.523   3.048
 9080TIP3   OH227184   5.505   7.622   1.225
 9080TIP3    H127185   5.570   7.650   1.161
 9080TIP3    H227186   5.536   7.537   1.256
 9081TIP3   OH227187   6.364   5.700   2.240
 9081TIP3    H127188   6.300   5.667   2.303
 9081TIP3    H227189   6.376   5.791   2.265
 9082TIP3   OH227190   6.840   4.827   4.160
 9082TIP3    H127191   6.745   4.825   4.145
 9082TIP3    H227192   6.856   4.915   4.194
 9083TIP3   OH227193   5.278   2.719   4.292
 9083TIP3    H127194   5.312   2.698   4.379
 9083TIP3    H227195   5.188   2.748   4.308
 9084TIP3   OH227196   6.556   1.142   1.686
 9084TIP3    H127197   6.580   1.053   1.712
 9084TIP3    H227198   6.556   1.192   1.768
 9085TIP3   OH227199   0.463   2.060   3.259
 9085TIP3    H127200   0.412   2.083   3.181
 9085TIP3    H227201   0.400   2.061   3.330
 9086TIP3   OH227202   4.234   5.922   5.370
 9086TIP3    H127203   4.278   6.003   5.345
 9086TIP3    H227204   4.171   5.906   5.300
 9087TIP3   OH227205   2.762   0.802   4.777
 9087TIP3    H127206   2.782   0.763   4.692
 9087TIP3    H227207   2.728   0.729   4.829
 9088TIP3   OH227208   6.744   0.060   4.224
 9088TIP3    H127209   6.714   0.145   4.258
 9088TIP3    H227210   6.708  -0.004   4.284
 9089TIP3   OH227211   6.167   4.861   6.576
 9089TIP3    H127212   6.118   4.799   6.629
 9089TIP3    H227213   6.236   4.809   6.535
 9090TIP3   OH227214   3.571   5.130   1.327
 9090TIP3    H127215   3.608   5.198   1.384
 9090TIP3    H227216   3.610   5.147   1.241
 9091TIP3   OH227217   0.819   2.932   0.023
 9091TIP3    H127218   0.793   2.842   0.004
 9091TIP3    H227219   0.772   2.984  -0.042
 9092TIP3   OH227220   6.607   5.476   0.443
 9092TIP3    H127221   6.524   5.450   0.401
 9092TIP3    H227222   6.642   5.545   0.386
 9093TIP3   OH227223   3.941   3.845   3.460
 9093TIP3    H127224   3.980   3.849   3.372
 9093TIP3    H227225   3.900   3.931   3.471
 9094TIP3   OH227226   6.632   6.787   0.398
 9094TIP3    H127227   6.695   6.732   0.445
 9094TIP3    H227228   6.680   6.867   0.378
 9095TIP3   OH227229   4.600   7.222   6.589
 9095TIP3    H127230   4.658   7.229   6.513
 9095TIP3    H227231   4.594   7.311   6.624
 9096TIP3   OH227232   1.305   6.829   3.433
 9096TIP3    H127233   1.230   6.885   3.413
 9096TIP3    H227234   1.276   6.740   3.411
 9097TIP3   OH227235   7.788   6.403   3.446
 9097TIP3    H127236   7.804   6.368   3.359
 9097TIP3    H227237   7.722   6.344   3.484
 9098TIP3   OH227238   5.149   1.212   4.491
 9098TIP3    H127239   5.119   1.205   4.400
 9098TIP3    H227240   5.082   1.266   4.534
 9099TIP3   OH227241   6.146   2.868   1.837
 9099TIP3    H127242   6.204   2.940   1.811
 9099TIP3    H227243   6.139   2.814   1.759
 9100TIP3   OH227244   5.261   4.726   5.571
 9100TIP3    H127245   5.231   4.690   5.488
 9100TIP3    H227246   5.336   4.672   5.595
 9101TIP3   OH227247   3.749   4.258   5.097
 9101TIP3    H127248   3.753   4.255   5.193
 9101TIP3    H227249   3.824   4.311   5.071
 9102TIP3   OH227250   3.535   0.266   3.786
 9102TIP3    H127251   3.536   0.358   3.758
 9102TIP3    H227252   3.526   0.270   3.882
 9103TIP3   OH227253   7.175   1.980   5.418
 9103TIP3    H127254   7.181   1.896   5.462
 9103TIP3    H227255   7.238   2.036   5.464
 9104TIP3   OH227256   4.464   7.628   4.082
 9104TIP3    H127257   4.419   7.712   4.091
 9104TIP3    H227258   4.447   7.601   3.991
 9105TIP3   OH227259   4.655   3.093   1.601
 9105TIP3    H127260   4.629   3.078   1.692
 9105TIP3    H227261   4.599   3.034   1.550
 9106TIP3   OH227262   0.449   1.947   2.317
 9106TIP3    H127263   0.382   1.879   2.312
 9106TIP3    H227264   0.404   2.024   2.351
 9107TIP3   OH227265   0.413   0.421   1.786
 9107TIP3    H127266   0.332   0.469   1.799
 9107TIP3    H227267   0.467   0.478   1.732
 9108TIP3   OH227268   6.208   4.198   2.705
 9108TIP3    H127269   6.150   4.209   2.780
 9108TIP3    H227270   6.231   4.288   2.679
 9109TIP3   OH227271   7.067   4.875   1.874
 9109TIP3    H127272   7.095   4.785   1.856
 9109TIP3    H227273   7.095   4.925   1.798
 9110TIP3   OH227274   1.708   2.820   3.349
 9110TIP3    H127275   1.739   2.910   3.356
 9110TIP3    H227276   1.679   2.811   3.259
 9111TIP3   OH227277   4.245   7.686   0.030
 9111TIP3    H127278   4.177   7.712  -0.031
 9111TIP3    H227279   4.327   7.704  -0.016
 9112TIP3   OH227280   6.540   1.959   1.363
 9112TIP3    H127281   6.598   1.921   1.430
 9112TIP3    H227282   6.468   1.997   1.413
 9113TIP3   OH227283   8.206   2.285   5.888
 9113TIP3    H127284   8.297   2.284   5.915
 9113TIP3    H227285   8.175   2.195   5.902
 9114TIP3   OH227286   6.907   6.519   5.961
 9114TIP3    H127287   6.827   6.569   5.946
 9114TIP3    H227288   6.970   6.583   5.993
 9115TIP3   OH227289   2.492   4.968   2.535
 9115TIP3    H127290   2.408   4.980   2.579
 9115TIP3    H227291   2.519   4.880   2.558
 9116TIP3   OH227292   6.811   6.363   0.122
 9116TIP3    H127293   6.735   6.403   0.164
 9116TIP3    H227294   6.854   6.436   0.077
 9117TIP3   OH227295   5.168   1.046   6.076
 9117TIP3    H127296   5.073   1.035   6.076
 9117TIP3    H227297   5.185   1.111   6.144
 9118TIP3   OH227298  -0.015   4.554   5.832
 9118TIP3    H127299  -0.008   4.560   5.927
 9118TIP3    H227300   0.076   4.556   5.802
 9119TIP3   OH227301   6.253   3.143   0.828
 9119TIP3    H127302   6.249   3.171   0.737
 9119TIP3    H227303   6.328   3.083   0.831
 9120TIP3   OH227304   3.092   2.522   4.750
 9120TIP3    H127305   3.081   2.554   4.661
 9120TIP3    H227306   3.152   2.585   4.791
 9121TIP3   OH227307   1.514   7.502   0.917
 9121TIP3    H127308   1.507   7.433   0.983
 9121TIP3    H227309   1.603   7.534   0.925
 9122TIP3   OH227310   7.502   3.970   0.567
 9122TIP3    H127311   7.419   3.924   0.552
 9122TIP3    H227312   7.547   3.966   0.483
 9123TIP3   OH227313   4.940   1.258   1.244
 9123TIP3    H127314   4.992   1.284   1.168
 9123TIP3    H227315   4.944   1.162   1.244
 9124TIP3   OH227316   5.175   1.233   6.269
 9124TIP3    H127317   5.241   1.259   6.334
 9124TIP3    H227318   5.094   1.225   6.320
 9125TIP3   OH227319   2.218   3.764   4.589
 9125TIP3    H127320   2.303   3.756   4.546
 9125TIP3    H227321   2.233   3.825   4.661
 9126TIP3   OH227322   0.638   5.568   4.536
 9126TIP3    H127323   0.637   5.473   4.548
 9126TIP3    H227324   0.637   5.603   4.626
 9127TIP3   OH227325   0.079   1.652   5.439
 9127TIP3    H127326   0.015   1.718   5.412
 9127TIP3    H227327   0.050   1.625   5.526
 9128TIP3   OH227328   0.941   2.053   2.716
 9128TIP3    H127329   0.968   2.126   2.659
 9128TIP3    H227330   0.846   2.055   2.714
 9129TIP3   OH227331   4.957   6.675   1.426
 9129TIP3    H127332   5.050   6.671   1.405
 9129TIP3    H227333   4.949   6.629   1.509
 9130TIP3   OH227334   3.753   4.255   0.987
 9130TIP3    H127335   3.667   4.212   0.983
 9130TIP3    H227336   3.738   4.334   1.039
 9131TIP3   OH227337   4.824   7.656   0.015
 9131TIP3    H127338   4.827   7.599  -0.062
 9131TIP3    H227339   4.909   7.645   0.056
 9132TIP3   OH227340   5.384   2.956   3.638
 9132TIP3    H127341   5.406   3.043   3.670
 9132TIP3    H227342   5.357   2.908   3.716
 9133TIP3   OH227343   8.066   4.066   4.833
 9133TIP3    H127344   7.977   4.082   4.863
 9133TIP3    H227345   8.120   4.127   4.883
 9134TIP3   OH227346   6.148   4.483   0.053
 9134TIP3    H127347   6.129   4.389   0.056
 9134TIP3    H227348   6.083   4.521   0.113
 9135TIP3   OH227349   4.233   3.636   1.658
 9135TIP3    H127350   4.175   3.611   1.730
 9135TIP3    H227351   4.314   3.665   1.701
 9136TIP3   OH227352   8.229   5.948   2.613
 9136TIP3    H127353   8.142   5.962   2.650
 9136TIP3    H227354   8.239   5.853   2.609
 9137TIP3   OH227355   7.561   1.539   1.574
 9137TIP3    H127356   7.513   1.537   1.491
 9137TIP3    H227357   7.580   1.447   1.593
 9138TIP3   OH227358   0.081   3.018   4.279
 9138TIP3    H127359   0.003   3.014   4.223
 9138TIP3    H227360   0.138   2.949   4.245
 9139TIP3   OH227361   7.579   3.396   5.442
 9139TIP3    H127362   7.630   3.465   5.485
 9139TIP3    H227363   7.622   3.384   5.357
 9140TIP3   OH227364   2.042   0.331   3.194
 9140TIP3    H127365   1.954   0.336   3.156
 9140TIP3    H227366   2.028   0.305   3.285
 9141TIP3   OH227367   5.320   5.503   1.265
 9141TIP3    H127368   5.397   5.532   1.216
 9141TIP3    H227369   5.246   5.536   1.214
 9142TIP3   OH227370   5.279   2.207   3.057
 9142TIP3    H127371   5.335   2.171   3.126
 9142TIP3    H227372   5.202   2.240   3.104
 9143TIP3   OH227373   6.481   3.077   1.035
 9143TIP3    H127374   6.468   3.089   1.129
 9143TIP3    H227375   6.420   3.008   1.011
 9144TIP3   OH227376   4.216   2.721   2.944
 9144TIP3    H127377   4.215   2.811   2.976
 9144TIP3    H227378   4.222   2.668   3.023
 9145TIP3   OH227379   4.496   5.876   4.706
 9145TIP3    H127380   4.517   5.820   4.780
 9145TIP3    H227381   4.425   5.932   4.737
 9146TIP3   OH227382   4.225   6.787   2.937
 9146TIP3    H127383   4.193   6.772   2.848
 9146TIP3    H227384   4.160   6.746   2.994
 9147TIP3   OH227385   1.311   6.463   5.842
 9147TIP3    H127386   1.347   6.462   5.753
 9147TIP3    H227387   1.289   6.371   5.859
 9148TIP3   OH227388   5.080   3.120   1.135
 9148TIP3    H127389   5.140   3.149   1.203
 9148TIP3    H227390   5.101   3.174   1.059
 9149TIP3   OH227391   7.988   3.194   1.484
 9149TIP3    H127392   7.992   3.274   1.432
 9149TIP3    H227393   7.969   3.224   1.573
 9150TIP3   OH227394   3.789   4.237   4.308
 9150TIP3    H127395   3.873   4.283   4.311
 9150TIP3    H227396   3.734   4.283   4.371
 9151TIP3   OH227397   7.985   5.913   2.769
 9151TIP3    H127398   7.925   5.908   2.843
 9151TIP3    H227399   7.956   5.843   2.710
 9152TIP3   OH227400   8.279   6.828   5.325
 9152TIP3    H127401   8.254   6.872   5.407
 9152TIP3    H227402   8.281   6.735   5.347
 9153TIP3   OH227403   6.118   1.107   4.124
 9153TIP3    H127404   6.139   1.029   4.176
 9153TIP3    H227405   6.076   1.073   4.045
 9154TIP3   OH227406   3.130   7.366   2.593
 9154TIP3    H127407   3.120   7.278   2.556
 9154TIP3    H227408   3.045   7.408   2.578
 9155TIP3   OH227409   5.122   6.949   4.630
 9155TIP3    H127410   5.115   6.900   4.713
 9155TIP3    H227411   5.099   7.039   4.654
 9156TIP3   OH227412   0.262   2.642   2.189
 9156TIP3    H127413   0.268   2.701   2.264
 9156TIP3    H227414   0.171   2.650   2.160
 9157TIP3   OH227415   1.006   6.992   1.164
 9157TIP3    H127416   0.926   6.943   1.183
 9157TIP3    H227417   1.031   7.030   1.249
 9158TIP3   OH227418   0.989   7.696   1.254
 9158TIP3    H127419   1.065   7.638   1.249
 9158TIP3    H227420   0.932   7.656   1.319
 9159TIP3   OH227421   2.587   0.421   2.888
 9159TIP3    H127422   2.673   0.379   2.896
 9159TIP3    H227423   2.524   0.352   2.908
 9160TIP3   OH227424   2.905   7.269   4.034
 9160TIP3    H127425   2.950   7.310   3.960
 9160TIP3    H227426   2.817   7.250   4.001
 9161TIP3   OH227427   1.377   7.319   4.213
 9161TIP3    H127428   1.311   7.291   4.151
 9161TIP3    H227429   1.359   7.411   4.229
 9162TIP3   OH227430   3.396   1.631   0.535
 9162TIP3    H127431   3.462   1.562   0.525
 9162TIP3    H227432   3.431   1.705   0.486
 9163TIP3   OH227433   5.846   4.192   5.277
 9163TIP3    H127434   5.796   4.162   5.353
 9163TIP3    H227435   5.924   4.137   5.276
 9164TIP3   OH227436   3.601   1.954   5.657
 9164TIP3    H127437   3.560   1.912   5.581
 9164TIP3    H227438   3.688   1.915   5.662
 9165TIP3   OH227439   4.079   1.200   0.077
 9165TIP3    H127440   4.092   1.115   0.119
 9165TIP3    H227441   4.019   1.247   0.135
 9166TIP3   OH227442   5.635   7.076   3.668
 9166TIP3    H127443   5.707   7.115   3.717
 9166TIP3    H227444   5.649   7.106   3.578
 9167TIP3   OH227445   1.951   1.759   5.363
 9167TIP3    H127446   2.015   1.812   5.411
 9167TIP3    H227447   1.960   1.672   5.400
 9168TIP3   OH227448   3.966   7.685   6.384
 9168TIP3    H127449   3.994   7.730   6.464
 9168TIP3    H227450   3.922   7.606   6.415
 9169TIP3   OH227451   0.919   4.505   4.235
 9169TIP3    H127452   1.014   4.504   4.250
 9169TIP3    H227453   0.909   4.553   4.153
 9170TIP3   OH227454   2.078   6.919   3.504
 9170TIP3    H127455   2.063   6.825   3.504
 9170TIP3    H227456   2.055   6.947   3.592
 9171TIP3   OH227457   4.339   1.414   6.572
 9171TIP3    H127458   4.387   1.414   6.488
 9171TIP3    H227459   4.408   1.409   6.638
 9172TIP3   OH227460   0.398   3.025   6.673
 9172TIP3    H127461   0.456   3.093   6.639
 9172TIP3    H227462   0.434   3.005   6.760
 9173TIP3   OH227463   5.074   7.645   2.586
 9173TIP3    H127464   5.164   7.616   2.568
 9173TIP3    H227465   5.062   7.628   2.679
 9174TIP3   OH227466   5.489   3.573   4.162
 9174TIP3    H127467   5.519   3.601   4.248
 9174TIP3    H227468   5.435   3.645   4.130
 9175TIP3   OH227469   5.913   0.664   1.182
 9175TIP3    H127470   5.833   0.683   1.231
 9175TIP3    H227471   5.977   0.729   1.214
 9176TIP3   OH227472   7.482   3.483   0.994
 9176TIP3    H127473   7.571   3.489   1.027
 9176TIP3    H227474   7.461   3.572   0.965
 9177TIP3   OH227475   5.550   0.209   0.440
 9177TIP3    H127476   5.614   0.279   0.429
 9177TIP3    H227477   5.552   0.189   0.534
 9178TIP3   OH227478   1.189   3.526   2.668
 9178TIP3    H127479   1.149   3.463   2.608
 9178TIP3    H227480   1.139   3.606   2.655
 9179TIP3   OH227481   4.164   2.150   6.529
 9179TIP3    H127482   4.099   2.160   6.459
 9179TIP3    H227483   4.118   2.103   6.598
 9180TIP3   OH227484   1.841   2.177   1.997
 9180TIP3    H127485   1.905   2.227   1.945
 9180TIP3    H227486   1.767   2.163   1.938
 9181TIP3   OH227487   7.783   6.297   6.515
 9181TIP3    H127488   7.734   6.237   6.459
 9181TIP3    H227489   7.760   6.384   6.483
 9182TIP3   OH227490   2.222   1.059   0.150
 9182TIP3    H127491   2.313   1.037   0.132
 9182TIP3    H227492   2.183   0.977   0.179
 9183TIP3   OH227493   2.681   4.034   3.519
 9183TIP3    H127494   2.694   4.009   3.611
 9183TIP3    H227495   2.746   4.102   3.504
 9184TIP3   OH227496   5.289   3.175   2.288
 9184TIP3    H127497   5.286   3.118   2.365
 9184TIP3    H227498   5.380   3.173   2.260
 9185TIP3   OH227499   2.444   5.435   2.677
 9185TIP3    H127500   2.458   5.475   2.591
 9185TIP3    H227501   2.531   5.427   2.715
 9186TIP3   OH227502   5.777   3.198   3.733
 9186TIP3    H127503   5.845   3.249   3.689
 9186TIP3    H227504   5.695   3.239   3.707
 9187TIP3   OH227505   8.108   7.558   6.712
 9187TIP3    H127506   8.083   7.633   6.657
 9187TIP3    H227507   8.133   7.490   6.649
 9188TIP3   OH227508   0.170   0.636   6.377
 9188TIP3    H127509   0.141   0.546   6.391
 9188TIP3    H227510   0.091   0.689   6.393
 9189TIP3   OH227511   1.576   4.302   2.342
 9189TIP3    H127512   1.595   4.345   2.426
 9189TIP3    H227513   1.625   4.220   2.346
 9190TIP3   OH227514   3.109   4.711   1.667
 9190TIP3    H127515   3.090   4.668   1.751
 9190TIP3    H227516   3.116   4.804   1.689
 9191TIP3   OH227517   4.303   2.185   1.023
 9191TIP3    H127518   4.249   2.226   1.090
 9191TIP3    H227519   4.298   2.091   1.041
 9192TIP3   OH227520   3.710   7.148   6.444
 9192TIP3    H127521   3.764   7.133   6.367
 9192TIP3    H227522   3.703   7.062   6.486
 9193TIP3   OH227523   7.009   6.755   6.079
 9193TIP3    H127524   7.037   6.803   6.001
 9193TIP3    H227525   7.081   6.767   6.141
 9194TIP3   OH227526   1.231   4.926   2.431
 9194TIP3    H127527   1.278   4.869   2.371
 9194TIP3    H227528   1.139   4.905   2.418
 9195TIP3   OH227529   7.440   2.211   4.951
 9195TIP3    H127530   7.404   2.271   5.016
 9195TIP3    H227531   7.368   2.194   4.891
 9196TIP3   OH227532   0.157   4.436   0.464
 9196TIP3    H127533   0.176   4.485   0.384
 9196TIP3    H227534   0.071   4.466   0.492
 9197TIP3   OH227535   3.801   1.922   6.696
 9197TIP3    H127536   3.773   1.988   6.633
 9197TIP3    H227537   3.720   1.874   6.717
 9198TIP3   OH227538   0.059   0.204   5.473
 9198TIP3    H127539   0.138   0.231   5.519
 9198TIP3    H227540   0.055   0.109   5.486
 9199TIP3   OH227541   6.105   4.105   2.061
 9199TIP3    H127542   6.016   4.076   2.080
 9199TIP3    H227543   6.155   4.081   2.138
 9200TIP3   OH227544   4.398   2.937   5.950
 9200TIP3    H127545   4.473   2.880   5.930
 9200TIP3    H227546   4.435   3.008   6.002
 9201TIP3   OH227547   2.932   3.484   1.460
 9201TIP3    H127548   2.934   3.578   1.480
 9201TIP3    H227549   2.981   3.444   1.531
 9202TIP3   OH227550   6.428   2.493   3.577
 9202TIP3    H127551   6.368   2.565   3.596
 9202TIP3    H227552   6.424   2.437   3.655
 9203TIP3   OH227553   8.255   1.938   0.234
 9203TIP3    H127554   8.227   1.850   0.260
 9203TIP3    H227555   8.190   1.966   0.169
 9204TIP3   OH227556   4.911   4.404   1.081
 9204TIP3    H127557   4.950   4.402   1.168
 9204TIP3    H227558   4.894   4.496   1.064
 9205TIP3   OH227559   7.363   1.490   5.543
 9205TIP3    H127560   7.369   1.395   5.539
 9205TIP3    H227561   7.439   1.517   5.594
 9206TIP3   OH227562   2.061   4.059   0.905
 9206TIP3    H127563   2.092   4.148   0.922
 9206TIP3    H227564   1.972   4.071   0.871
 9207TIP3   OH227565   0.859   0.959   6.597
 9207TIP3    H127566   0.885   0.870   6.621
 9207TIP3    H227567   0.914   1.015   6.652
 9208TIP3   OH227568   5.692   0.911   3.123
 9208TIP3    H127569   5.711   0.951   3.208
 9208TIP3    H227570   5.713   0.818   3.136
 9209TIP3   OH227571   7.983   3.201   0.240
 9209TIP3    H127572   8.009   3.184   0.331
 9209TIP3    H227573   8.032   3.138   0.188
 9210TIP3   OH227574   7.709   2.935   5.218
 9210TIP3    H127575   7.793   2.897   5.192
 9210TIP3    H227576   7.722   2.964   5.308
 9211TIP3   OH227577   2.791   3.420   3.683
 9211TIP3    H127578   2.883   3.427   3.659
 9211TIP3    H227579   2.748   3.386   3.604
 9212TIP3   OH227580   2.370   2.544   1.454
 9212TIP3    H127581   2.412   2.629   1.467
 9212TIP3    H227582   2.335   2.547   1.365
 9213TIP3   OH227583   7.518   2.013   0.374
 9213TIP3    H127584   7.607   1.989   0.349
 9213TIP3    H227585   7.529   2.065   0.454
 9214TIP3   OH227586   0.141   0.490   1.791
 9214TIP3    H127587   0.090   0.412   1.773
 9214TIP3    H227588   0.079   0.550   1.834
 9215TIP3   OH227589   7.859   1.865   0.859
 9215TIP3    H127590   7.899   1.951   0.865
 9215TIP3    H227591   7.797   1.873   0.786
 9216TIP3   OH227592   3.634   2.894   2.335
 9216TIP3    H127593   3.669   2.839   2.405
 9216TIP3    H227594   3.570   2.838   2.291
 9217TIP3   OH227595   7.486   0.915   4.234
 9217TIP3    H127596   7.501   0.845   4.171
 9217TIP3    H227597   7.504   0.996   4.186
 9218TIP3   OH227598   2.264   2.907   2.094
 9218TIP3    H127599   2.205   2.848   2.140
 9218TIP3    H227600   2.326   2.848   2.049
 9219TIP3   OH227601   8.174   4.668   1.059
 9219TIP3    H127602   8.094   4.652   1.109
 9219TIP3    H227603   8.155   4.634   0.972
 9220TIP3   OH227604   3.319   7.722   3.650
 9220TIP3    H127605   3.297   7.700   3.559
 9220TIP3    H227606   3.384   7.656   3.675
 9221TIP3   OH227607   7.556   1.578   3.648
 9221TIP3    H127608   7.601   1.507   3.601
 9221TIP3    H227609   7.627   1.632   3.683
 9222TIP3   OH227610   5.258   6.435   6.123
 9222TIP3    H127611   5.165   6.416   6.112
 9222TIP3    H227612   5.302   6.352   6.104
 9223TIP3   OH227613   5.265   6.720   6.057
 9223TIP3    H127614   5.359   6.718   6.038
 9223TIP3    H227615   5.248   6.638   6.105
 9224TIP3   OH227616   6.632   0.603   1.517
 9224TIP3    H127617   6.722   0.589   1.488
 9224TIP3    H227618   6.580   0.599   1.437
 9225TIP3   OH227619   1.713   5.114   2.013
 9225TIP3    H127620   1.776   5.187   2.011
 9225TIP3    H227621   1.744   5.055   1.944
 9226TIP3   OH227622   2.562   7.049   0.705
 9226TIP3    H127623   2.618   7.005   0.769
 9226TIP3    H227624   2.609   7.130   0.684
 9227TIP3   OH227625   8.139   4.879   5.382
 9227TIP3    H127626   8.114   4.923   5.463
 9227TIP3    H227627   8.228   4.847   5.398
 9228TIP3   OH227628   3.952   1.723   0.515
 9228TIP3    H127629   3.927   1.714   0.607
 9228TIP3    H227630   3.934   1.636   0.477
 9229TIP3   OH227631   4.483   0.047   0.121
 9229TIP3    H127632   4.509   0.126   0.168
 9229TIP3    H227633   4.446  -0.010   0.189
 9230TIP3   OH227634   0.039   3.307   1.105
 9230TIP3    H127635  -0.024   3.378   1.117
 9230TIP3    H227636   0.115   3.334   1.156
 9231TIP3   OH227637   0.495   5.706   5.156
 9231TIP3    H127638   0.416   5.657   5.181
 9231TIP3    H227639   0.463   5.795   5.142
 9232TIP3   OH227640   3.265   2.336   2.251
 9232TIP3    H127641   3.183   2.289   2.233
 9232TIP3    H227642   3.332   2.284   2.206
 9233TIP3   OH227643   3.055   4.553   2.109
 9233TIP3    H127644   3.089   4.505   2.184
 9233TIP3    H227645   2.961   4.564   2.128
 9234TIP3   OH227646   6.327   7.774   3.780
 9234TIP3    H127647   6.250   7.822   3.750
 9234TIP3    H227648   6.334   7.795   3.873
 9235TIP3   OH227649   0.950   1.503   1.553
 9235TIP3    H127650   1.003   1.579   1.527
 9235TIP3    H227651   0.955   1.444   1.478
 9236TIP3   OH227652   5.118   4.139   6.225
 9236TIP3    H127653   5.058   4.212   6.214
 9236TIP3    H227654   5.170   4.138   6.144
 9237TIP3   OH227655   6.408   2.033   2.542
 9237TIP3    H127656   6.498   2.027   2.573
 9237TIP3    H227657   6.355   2.022   2.621
 9238TIP3   OH227658   5.092   0.449   0.446
 9238TIP3    H127659   5.047   0.401   0.377
 9238TIP3    H227660   5.029   0.515   0.475
 9239TIP3   OH227661   3.596   2.664   5.469
 9239TIP3    H127662   3.626   2.674   5.378
 9239TIP3    H227663   3.655   2.599   5.506
 9240TIP3   OH227664   4.644   3.976   3.952
 9240TIP3    H127665   4.577   3.946   4.013
 9240TIP3    H227666   4.664   4.065   3.979
 9241TIP3   OH227667   5.081   6.145   0.645
 9241TIP3    H127668   5.011   6.186   0.593
 9241TIP3    H227669   5.084   6.055   0.615
 9242TIP3   OH227670   5.948   1.179   0.743
 9242TIP3    H127671   5.901   1.096   0.755
 9242TIP3    H227672   5.926   1.230   0.822
 9243TIP3   OH227673   5.668   4.236   3.798
 9243TIP3    H127674   5.631   4.221   3.885
 9243TIP3    H227675   5.660   4.331   3.784
 9244TIP3   OH227676   2.146   7.528   4.605
 9244TIP3    H127677   2.066   7.489   4.639
 9244TIP3    H227678   2.193   7.456   4.563
 9245TIP3   OH227679   7.512   1.393   5.906
 9245TIP3    H127680   7.521   1.471   5.852
 9245TIP3    H227681   7.482   1.325   5.845
 9246TIP3   OH227682   0.072   5.343   1.521
 9246TIP3    H127683   0.059   5.328   1.427
 9246TIP3    H227684   0.159   5.307   1.539
 9247TIP3   OH227685   8.293   7.317   1.182
 9247TIP3    H127686   8.271   7.351   1.095
 9247TIP3    H227687   8.217   7.265   1.206
 9248TIP3   OH227688   6.996   1.152   3.709
 9248TIP3    H127689   7.081   1.165   3.750
 9248TIP3    H227690   7.015   1.102   3.629
 9249TIP3   OH227691   0.623   4.665   0.374
 9249TIP3    H127692   0.535   4.659   0.337
 9249TIP3    H227693   0.610   4.702   0.461
 9250TIP3   OH227694   7.274   4.108   6.406
 9250TIP3    H127695   7.367   4.123   6.422
 9250TIP3    H227696   7.237   4.090   6.493
 9251TIP3   OH227697   7.359   7.477   4.041
 9251TIP3    H127698   7.275   7.434   4.033
 9251TIP3    H227699   7.343   7.567   4.012
 9252TIP3   OH227700   1.162   1.950   1.847
 9252TIP3    H127701   1.120   1.993   1.922
 9252TIP3    H227702   1.254   1.943   1.872
 9253TIP3   OH227703   1.387   5.676   2.662
 9253TIP3    H127704   1.409   5.661   2.570
 9253TIP3    H227705   1.294   5.652   2.668
 9254TIP3   OH227706   3.305   0.923   1.266
 9254TIP3    H127707   3.233   0.985   1.273
 9254TIP3    H227708   3.266   0.846   1.223
 9255TIP3   OH227709   0.294   5.928   6.426
 9255TIP3    H127710   0.286   5.842   6.385
 9255TIP3    H227711   0.285   5.911   6.520
 9256TIP3   OH227712   0.630   6.641   0.675
 9256TIP3    H127713   0.560   6.593   0.630
 9256TIP3    H227714   0.698   6.575   0.690
 9257TIP3   OH227715   5.325   3.158   4.356
 9257TIP3    H127716   5.370   3.191   4.278
 9257TIP3    H227717   5.298   3.237   4.404
 9258TIP3   OH227718   1.789   7.593   3.894
 9258TIP3    H127719   1.789   7.605   3.988
 9258TIP3    H227720   1.707   7.633   3.864
 9259TIP3   OH227721   7.567   3.016   0.967
 9259TIP3    H127722   7.515   3.037   0.890
 9259TIP3    H227723   7.538   2.928   0.993
 9260TIP3   OH227724   2.105   0.017   3.188
 9260TIP3    H127725   2.074   0.104   3.162
 9260TIP3    H227726   2.027  -0.038   3.189
 9261TIP3   OH227727   3.069   5.776   1.112
 9261TIP3    H127728   2.986   5.771   1.159
 9261TIP3    H227729   3.135   5.756   1.179
 9262TIP3   OH227730   3.011   2.854   4.795
 9262TIP3    H127731   2.923   2.821   4.814
 9262TIP3    H227732   3.003   2.895   4.709
 9263TIP3   OH227733   3.634   5.900   3.823
 9263TIP3    H127734   3.635   5.960   3.897
 9263TIP3    H227735   3.567   5.935   3.764
 9264TIP3   OH227736   2.202   4.130   6.427
 9264TIP3    H127737   2.225   4.098   6.339
 9264TIP3    H227738   2.137   4.067   6.458
 9265TIP3   OH227739   1.006   5.947   2.780
 9265TIP3    H127740   0.961   5.986   2.705
 9265TIP3    H227741   0.957   5.868   2.800
 9266TIP3   OH227742   6.683   6.411   3.815
 9266TIP3    H127743   6.764   6.364   3.838
 9266TIP3    H227744   6.654   6.450   3.897
 9267TIP3   OH227745   6.583   1.254   4.952
 9267TIP3    H127746   6.611   1.194   4.882
 9267TIP3    H227747   6.528   1.319   4.907
 9268TIP3   OH227748   6.971   1.605   3.347
 9268TIP3    H127749   6.946   1.540   3.282
 9268TIP3    H227750   7.059   1.633   3.321
 9269TIP3   OH227751   4.736   4.590   4.874
 9269TIP3    H127752   4.643   4.585   4.896
 9269TIP3    H227753   4.782   4.575   4.956
 9270TIP3   OH227754   6.901   5.072   2.557
 9270TIP3    H127755   6.987   5.088   2.597
 9270TIP3    H227756   6.871   5.159   2.529
 9271TIP3   OH227757   5.649   6.514   5.467
 9271TIP3    H127758   5.647   6.597   5.515
 9271TIP3    H227759   5.682   6.451   5.531
 9272TIP3   OH227760   5.514   4.239   0.800
 9272TIP3    H127761   5.581   4.278   0.856
 9272TIP3    H227762   5.433   4.247   0.850
 9273TIP3   OH227763   3.274   3.512   0.129
 9273TIP3    H127764   3.212   3.444   0.103
 9273TIP3    H227765   3.250   3.534   0.219
 9274TIP3   OH227766   6.830   1.962   0.465
 9274TIP3    H127767   6.839   1.917   0.381
 9274TIP3    H227768   6.837   2.055   0.444
 9275TIP3   OH227769   5.933   5.625   4.557
 9275TIP3    H127770   5.842   5.611   4.532
 9275TIP3    H227771   5.981   5.556   4.512
 9276TIP3   OH227772   8.113   2.409   0.087
 9276TIP3    H127773   8.183   2.401   0.022
 9276TIP3    H227774   8.160   2.429   0.169
 9277TIP3   OH227775   8.159   3.577   3.616
 9277TIP3    H127776   8.217   3.539   3.682
 9277TIP3    H227777   8.204   3.657   3.588
 9278TIP3   OH227778   3.782   2.261   2.395
 9278TIP3    H127779   3.840   2.195   2.357
 9278TIP3    H227780   3.736   2.215   2.465
 9279TIP3   OH227781   5.192   2.128   5.066
 9279TIP3    H127782   5.220   2.038   5.049
 9279TIP3    H227783   5.168   2.128   5.159
 9280TIP3   OH227784   8.066   0.677   3.107
 9280TIP3    H127785   8.055   0.733   3.030
 9280TIP3    H227786   7.978   0.670   3.144
 9281TIP3   OH227787   3.321   3.487   6.539
 9281TIP3    H127788   3.408   3.473   6.501
 9281TIP3    H227789   3.286   3.399   6.554
 9282TIP3   OH227790   1.976   6.507   4.635
 9282TIP3    H127791   1.881   6.504   4.620
 9282TIP3    H227792   2.006   6.584   4.587
 9283TIP3   OH227793   4.313   7.101   0.710
 9283TIP3    H127794   4.342   7.014   0.682
 9283TIP3    H227795   4.384   7.159   0.683
 9284TIP3   OH227796   1.333   3.264   0.630
 9284TIP3    H127797   1.372   3.178   0.648
 9284TIP3    H227798   1.260   3.271   0.691
 9285TIP3   OH227799   0.632   6.061   4.378
 9285TIP3    H127800   0.586   6.031   4.299
 9285TIP3    H227801   0.571   6.121   4.420
 9286TIP3   OH227802   3.561   6.324   1.747
 9286TIP3    H127803   3.596   6.346   1.660
 9286TIP3    H227804   3.634   6.339   1.806
 9287TIP3   OH227805   3.071   6.759   2.502
 9287TIP3    H127806   3.016   6.838   2.506
 9287TIP3    H227807   3.029   6.703   2.437
 9288TIP3   OH227808   5.616   2.528   4.467
 9288TIP3    H127809   5.674   2.552   4.539
 9288TIP3    H227810   5.556   2.463   4.505
 9289TIP3   OH227811   2.344   5.014   3.200
 9289TIP3    H127812   2.420   4.989   3.253
 9289TIP3    H227813   2.282   5.051   3.263
 9290TIP3   OH227814   7.406   4.652   2.818
 9290TIP3    H127815   7.463   4.691   2.752
 9290TIP3    H227816   7.415   4.710   2.894
 9291TIP3   OH227817   3.929   3.888   0.416
 9291TIP3    H127818   4.020   3.884   0.385
 9291TIP3    H227819   3.877   3.872   0.337
 9292TIP3   OH227820   6.108   2.649   5.551
 9292TIP3    H127821   6.137   2.577   5.495
 9292TIP3    H227822   6.017   2.629   5.571
 9293TIP3   OH227823   7.821   0.427   2.937
 9293TIP3    H127824   7.743   0.392   2.980
 9293TIP3    H227825   7.793   0.512   2.903
 9294TIP3   OH227826   1.840   6.981   3.655
 9294TIP3    H127827   1.808   7.004   3.568
 9294TIP3    H227828   1.842   6.885   3.654
 9295TIP3   OH227829   5.179   5.844   3.770
 9295TIP3    H127830   5.246   5.787   3.732
 9295TIP3    H227831   5.117   5.784   3.812
 9296TIP3   OH227832   0.786   4.070   3.891
 9296TIP3    H127833   0.788   4.086   3.986
 9296TIP3    H227834   0.824   4.149   3.853
 9297TIP3   OH227835   1.558   2.508   2.606
 9297TIP3    H127836   1.522   2.437   2.659
 9297TIP3    H227837   1.531   2.487   2.516
 9298TIP3   OH227838   3.973   6.913   1.205
 9298TIP3    H127839   4.006   7.003   1.208
 9298TIP3    H227840   3.967   6.886   1.297
 9299TIP3   OH227841   7.603   0.936   0.916
 9299TIP3    H127842   7.628   1.028   0.906
 9299TIP3    H227843   7.597   0.922   1.010
 9300TIP3   OH227844   0.134   4.904   2.912
 9300TIP3    H127845   0.123   4.919   2.818
 9300TIP3    H227846   0.207   4.842   2.917
 9301TIP3   OH227847   4.599   1.071   0.773
 9301TIP3    H127848   4.616   1.142   0.835
 9301TIP3    H227849   4.644   1.097   0.693
 9302TIP3   OH227850   8.090   1.706   2.093
 9302TIP3    H127851   8.118   1.630   2.042
 9302TIP3    H227852   8.041   1.759   2.031
 9303TIP3   OH227853   6.686   2.294   2.321
 9303TIP3    H127854   6.607   2.246   2.343
 9303TIP3    H227855   6.655   2.369   2.271
 9304TIP3   OH227856   4.281   5.550   0.444
 9304TIP3    H127857   4.276   5.644   0.428
 9304TIP3    H227858   4.190   5.521   0.441
 9305TIP3   OH227859   6.047  -0.007   1.325
 9305TIP3    H127860   6.107   0.018   1.395
 9305TIP3    H227861   6.104  -0.023   1.250
 9306TIP3   OH227862   7.386   6.892   5.551
 9306TIP3    H127863   7.324   6.821   5.532
 9306TIP3    H227864   7.402   6.886   5.645
 9307TIP3   OH227865   5.824   4.525   5.739
 9307TIP3    H127866   5.824   4.618   5.761
 9307TIP3    H227867   5.913   4.508   5.708
 9308TIP3   OH227868   1.330   0.732   1.873
 9308TIP3    H127869   1.401   0.751   1.812
 9308TIP3    H227870   1.258   0.703   1.817
 9309TIP3   OH227871   7.485   5.415   2.641
 9309TIP3    H127872   7.520   5.330   2.667
 9309TIP3    H227873   7.542   5.444   2.570
 9310TIP3   OH227874   1.724   6.241   1.021
 9310TIP3    H127875   1.723   6.320   0.967
 9310TIP3    H227876   1.691   6.269   1.106
 9311TIP3   OH227877   2.190   2.294   2.520
 9311TIP3    H127878   2.163   2.253   2.602
 9311TIP3    H227879   2.188   2.388   2.539
 9312TIP3   OH227880   3.075   6.900   3.855
 9312TIP3    H127881   3.151   6.886   3.912
 9312TIP3    H227882   3.003   6.919   3.915
 9313TIP3   OH227883   7.825   5.966   4.014
 9313TIP3    H127884   7.911   5.960   3.973
 9313TIP3    H227885   7.813   6.060   4.032
 9314TIP3   OH227886   0.055   5.848   3.167
 9314TIP3    H127887   0.150   5.847   3.184
 9314TIP3    H227888   0.029   5.756   3.170
 9315TIP3   OH227889   5.782   3.586   4.164
 9315TIP3    H127890   5.710   3.550   4.216
 9315TIP3    H227891   5.830   3.643   4.225
 9316TIP3   OH227892   7.713   5.126   3.385
 9316TIP3    H127893   7.752   5.202   3.428
 9316TIP3    H227894   7.748   5.128   3.296
 9317TIP3   OH227895   3.742   5.057   6.338
 9317TIP3    H127896   3.704   4.972   6.357
 9317TIP3    H227897   3.745   5.062   6.243
 9318TIP3   OH227898   5.279   5.338   2.264
 9318TIP3    H127899   5.233   5.360   2.183
 9318TIP3    H227900   5.362   5.300   2.236
 9319TIP3   OH227901   2.784   0.242   6.068
 9319TIP3    H127902   2.776   0.149   6.086
 9319TIP3    H227903   2.857   0.271   6.124
 9320TIP3   OH227904   7.170   7.151   2.381
 9320TIP3    H127905   7.213   7.196   2.308
 9320TIP3    H227906   7.189   7.205   2.457
 9321TIP3   OH227907   6.922   2.302   0.593
 9321TIP3    H127908   6.971   2.230   0.634
 9321TIP3    H227909   6.883   2.349   0.667
 9322TIP3   OH227910   0.034   6.728   3.046
 9322TIP3    H127911   0.029   6.634   3.029
 9322TIP3    H227912   0.051   6.733   3.140
 9323TIP3   OH227913   1.221   1.284   1.113
 9323TIP3    H127914   1.157   1.247   1.173
 9323TIP3    H227915   1.302   1.235   1.131
 9324TIP3   OH227916   7.520   5.259   3.146
 9324TIP3    H127917   7.488   5.176   3.183
 9324TIP3    H227918   7.500   5.324   3.213
 9325TIP3   OH227919   7.570   0.976   2.429
 9325TIP3    H127920   7.535   1.065   2.418
 9325TIP3    H227921   7.492   0.921   2.435
 9326TIP3   OH227922   5.340   0.710   2.877
 9326TIP3    H127923   5.373   0.654   2.947
 9326TIP3    H227924   5.368   0.798   2.903
 9327TIP3   OH227925   4.764   4.411   4.672
 9327TIP3    H127926   4.747   4.458   4.754
 9327TIP3    H227927   4.714   4.330   4.680
 9328TIP3   OH227928   6.655   6.833   4.050
 9328TIP3    H127929   6.652   6.741   4.023
 9328TIP3    H227930   6.584   6.841   4.113
 9329TIP3   OH227931   5.414   6.601   0.349
 9329TIP3    H127932   5.327   6.571   0.377
 9329TIP3    H227933   5.408   6.696   0.350
 9330TIP3   OH227934   2.572   2.313   2.137
 9330TIP3    H127935   2.597   2.406   2.136
 9330TIP3    H227936   2.519   2.302   2.059
 9331TIP3   OH227937   2.762   4.726   3.505
 9331TIP3    H127938   2.775   4.632   3.492
 9331TIP3    H227939   2.717   4.732   3.589
 9332TIP3   OH227940   2.108   7.318   4.320
 9332TIP3    H127941   2.138   7.364   4.242
 9332TIP3    H227942   2.179   7.329   4.383
 9333TIP3   OH227943   7.794   1.848   2.631
 9333TIP3    H127944   7.873   1.799   2.608
 9333TIP3    H227945   7.793   1.921   2.570
 9334TIP3   OH227946   5.715   0.391   2.748
 9334TIP3    H127947   5.776   0.455   2.711
 9334TIP3    H227948   5.669   0.439   2.817
 9335TIP3   OH227949   2.331   0.315   1.569
 9335TIP3    H127950   2.421   0.321   1.538
 9335TIP3    H227951   2.294   0.402   1.553
 9336TIP3   OH227952   1.728   2.198   0.335
 9336TIP3    H127953   1.762   2.206   0.246
 9336TIP3    H227954   1.641   2.159   0.324
 9337TIP3   OH227955   7.042   3.506   1.973
 9337TIP3    H127956   7.056   3.465   1.887
 9337TIP3    H227957   7.111   3.572   1.979
 9338TIP3   OH227958   3.687   7.536   2.680
 9338TIP3    H127959   3.723   7.548   2.768
 9338TIP3    H227960   3.592   7.526   2.694
 9339TIP3   OH227961   6.245   3.942   6.515
 9339TIP3    H127962   6.339   3.956   6.506
 9339TIP3    H227963   6.218   3.909   6.429
 9340TIP3   OH227964   0.335   2.231   3.825
 9340TIP3    H127965   0.388   2.293   3.874
 9340TIP3    H227966   0.275   2.194   3.890
 9341TIP3   OH227967   3.722   4.635   2.513
 9341TIP3    H127968   3.751   4.622   2.603
 9341TIP3    H227969   3.800   4.614   2.460
 9342TIP3   OH227970   7.365   3.102   4.384
 9342TIP3    H127971   7.291   3.101   4.445
 9342TIP3    H227972   7.364   3.190   4.346
 9343TIP3   OH227973   6.144   7.152   0.077
 9343TIP3    H127974   6.211   7.091   0.106
 9343TIP3    H227975   6.173   7.237   0.109
 9344TIP3   OH227976   0.157   7.093   3.975
 9344TIP3    H127977   0.246   7.125   3.960
 9344TIP3    H227978   0.109   7.119   3.896
 9345TIP3   OH227979   7.252   7.189   6.384
 9345TIP3    H127980   7.237   7.213   6.293
 9345TIP3    H227981   7.344   7.211   6.400
 9346TIP3   OH227982   1.402   7.479   4.549
 9346TIP3    H127983   1.484   7.508   4.509
 9346TIP3    H227984   1.333   7.521   4.497
 9347TIP3   OH227985   1.933   7.682   1.076
 9347TIP3    H127986   1.916   7.651   1.165
 9347TIP3    H227987   1.923   7.777   1.081
 9348TIP3   OH227988   1.294   4.096   0.745
 9348TIP3    H127989   1.360   4.059   0.803
 9348TIP3    H227990   1.255   4.021   0.701
 9349TIP3   OH227991   3.044   5.550   2.770
 9349TIP3    H127992   2.976   5.591   2.717
 9349TIP3    H227993   3.126   5.574   2.727
 9350TIP3   OH227994   7.657   1.469   4.510
 9350TIP3    H127995   7.636   1.557   4.480
 9350TIP3    H227996   7.631   1.468   4.602
 9351TIP3   OH227997   5.378   4.324   5.119
 9351TIP3    H127998   5.378   4.231   5.143
 9351TIP3    H227999   5.463   4.356   5.149
 9352TIP3   OH228000   5.499   0.886   5.294
 9352TIP3    H128001   5.536   0.907   5.380
 9352TIP3    H228002   5.554   0.933   5.232
 9353TIP3   OH228003   1.640   0.721   0.675
 9353TIP3    H128004   1.562   0.668   0.688
 9353TIP3    H228005   1.621   0.803   0.720
 9354TIP3   OH228006   5.300   4.876   5.147
 9354TIP3    H128007   5.358   4.861   5.222
 9354TIP3    H228008   5.278   4.969   5.153
 9355TIP3   OH228009  -0.018   2.691   4.543
 9355TIP3    H128010   0.024   2.721   4.624
 9355TIP3    H228011  -0.091   2.751   4.530
 9356TIP3   OH228012   7.893   1.760   0.394
 9356TIP3    H128013   7.858   1.797   0.314
 9356TIP3    H228014   7.896   1.666   0.378
 9357TIP3   OH228015   8.152   7.653   4.688
 9357TIP3    H128016   8.145   7.628   4.780
 9357TIP3    H228017   8.234   7.613   4.658
 9358TIP3   OH228018   2.701   5.324   2.571
 9358TIP3    H128019   2.709   5.246   2.626
 9358TIP3    H228020   2.790   5.339   2.538
 9359TIP3   OH228021   0.491   7.177   3.637
 9359TIP3    H128022   0.571   7.139   3.601
 9359TIP3    H228023   0.475   7.255   3.584
 9360TIP3   OH228024   2.384   1.334   2.398
 9360TIP3    H128025   2.306   1.285   2.424
 9360TIP3    H228026   2.353   1.394   2.329
 9361TIP3   OH228027   3.685   5.531   1.121
 9361TIP3    H128028   3.603   5.577   1.135
 9361TIP3    H228029   3.712   5.504   1.209
 9362TIP3   OH228030   3.718   0.799   3.014
 9362TIP3    H128031   3.813   0.795   3.002
 9362TIP3    H228032   3.703   0.760   3.100
 9363TIP3   OH228033   7.660   0.166   4.055
 9363TIP3    H128034   7.596   0.232   4.080
 9363TIP3    H228035   7.608   0.093   4.023
 9364TIP3   OH228036   7.934   7.485   0.884
 9364TIP3    H128037   7.881   7.491   0.964
 9364TIP3    H228038   7.877   7.522   0.816
 9365TIP3   OH228039   4.549   5.727   1.695
 9365TIP3    H128040   4.600   5.653   1.663
 9365TIP3    H228041   4.557   5.723   1.791
 9366TIP3   OH228042   4.199   5.154   1.316
 9366TIP3    H128043   4.209   5.130   1.408
 9366TIP3    H228044   4.157   5.240   1.318
 9367TIP3   OH228045   5.294   6.856   3.131
 9367TIP3    H128046   5.279   6.797   3.058
 9367TIP3    H228047   5.247   6.817   3.205
 9368TIP3   OH228048   6.260   6.969   6.478
 9368TIP3    H128049   6.280   6.913   6.552
 9368TIP3    H228050   6.165   6.978   6.479
 9369TIP3   OH228051   5.547   6.931   4.993
 9369TIP3    H128052   5.632   6.927   5.037
 9369TIP3    H228053   5.498   6.997   5.043
 9370TIP3   OH228054   5.902   3.167   0.767
 9370TIP3    H128055   5.866   3.219   0.838
 9370TIP3    H228056   5.894   3.076   0.797
 9371TIP3   OH228057   2.372   2.127   5.927
 9371TIP3    H128058   2.321   2.047   5.944
 9371TIP3    H228059   2.357   2.145   5.834
 9372TIP3   OH228060   0.225   7.294   1.729
 9372TIP3    H128061   0.279   7.240   1.786
 9372TIP3    H228062   0.147   7.313   1.781
 9373TIP3   OH228063   2.771   0.066   5.456
 9373TIP3    H128064   2.861   0.098   5.448
 9373TIP3    H228065   2.719   0.126   5.404
 9374TIP3   OH228066   0.754   1.502   3.517
 9374TIP3    H128067   0.783   1.442   3.448
 9374TIP3    H228068   0.835   1.526   3.564
 9375TIP3   OH228069   7.090   5.976   6.677
 9375TIP3    H128070   7.069   5.976   6.770
 9375TIP3    H228071   7.184   5.959   6.673
 9376TIP3   OH228072   6.920   0.790   6.037
 9376TIP3    H128073   7.012   0.811   6.022
 9376TIP3    H228074   6.889   0.858   6.098
 9377TIP3   OH228075   7.007   0.140   2.327
 9377TIP3    H128076   7.075   0.199   2.358
 9377TIP3    H228077   7.000   0.157   2.233
 9378TIP3   OH228078   0.316   4.813   1.986
 9378TIP3    H128079   0.407   4.786   1.999
 9378TIP3    H228080   0.320   4.880   1.918
 9379TIP3   OH228081   3.755   7.549   2.263
 9379TIP3    H128082   3.709   7.514   2.186
 9379TIP3    H228083   3.685   7.572   2.324
 9380TIP3   OH228084   6.525   6.352   1.484
 9380TIP3    H128085   6.504   6.408   1.409
 9380TIP3    H228086   6.601   6.393   1.524
 9381TIP3   OH228087   6.768   0.789   3.215
 9381TIP3    H128088   6.724   0.730   3.154
 9381TIP3    H228089   6.752   0.751   3.301
 9382TIP3   OH228090   5.116   2.540   5.767
 9382TIP3    H128091   5.173   2.610   5.735
 9382TIP3    H228092   5.060   2.519   5.692
 9383TIP3   OH228093   3.168   6.643   1.215
 9383TIP3    H128094   3.167   6.738   1.231
 9383TIP3    H228095   3.202   6.634   1.126
 9384TIP3   OH228096   4.572   5.826   3.769
 9384TIP3    H128097   4.507   5.892   3.749
 9384TIP3    H228098   4.647   5.848   3.714
 9385TIP3   OH228099   1.695   4.129   3.005
 9385TIP3    H128100   1.654   4.184   3.072
 9385TIP3    H228101   1.714   4.047   3.049
 9386TIP3   OH228102   3.090   5.556   3.396
 9386TIP3    H128103   3.056   5.473   3.430
 9386TIP3    H228104   3.185   5.548   3.404
 9387TIP3   OH228105   5.846   1.229   3.638
 9387TIP3    H128106   5.904   1.295   3.677
 9387TIP3    H228107   5.823   1.265   3.552
 9388TIP3   OH228108   5.106   0.786   5.300
 9388TIP3    H128109   5.160   0.839   5.358
 9388TIP3    H228110   5.038   0.846   5.269
 9389TIP3   OH228111   5.634   0.706   6.053
 9389TIP3    H128112   5.581   0.633   6.083
 9389TIP3    H228113   5.696   0.722   6.124
 9390TIP3   OH228114   6.310   1.349   1.719
 9390TIP3    H128115   6.364   1.276   1.689
 9390TIP3    H228116   6.371   1.405   1.767
 9391TIP3   OH228117   1.276   2.878   2.763
 9391TIP3    H128118   1.305   2.787   2.762
 9391TIP3    H228119   1.282   2.906   2.672
 9392TIP3   OH228120   7.632   3.283   5.688
 9392TIP3    H128121   7.601   3.324   5.607
 9392TIP3    H228122   7.718   3.323   5.702
 9393TIP3   OH228123   6.943   6.088   2.522
 9393TIP3    H128124   6.874   6.108   2.459
 9393TIP3    H228125   7.016   6.057   2.467
 9394TIP3   OH228126   3.606   2.863   4.337
 9394TIP3    H128127   3.513   2.877   4.324
 9394TIP3    H228128   3.613   2.821   4.422
 9395TIP3   OH228129   0.739   7.660   0.524
 9395TIP3    H128130   0.693   7.604   0.463
 9395TIP3    H228131   0.717   7.749   0.496
 9396TIP3   OH228132   0.999   1.183   6.733
 9396TIP3    H128133   0.975   1.218   6.818
 9396TIP3    H228134   0.963   1.246   6.670
 9397TIP3   OH228135   1.041   4.099   2.536
 9397TIP3    H128136   0.998   4.154   2.601
 9397TIP3    H228137   0.970   4.048   2.498
 9398TIP3   OH228138   1.238   0.880   0.527
 9398TIP3    H128139   1.263   0.970   0.547
 9398TIP3    H228140   1.229   0.838   0.612
 9399TIP3   OH228141   3.601   4.800   0.127
 9399TIP3    H128142   3.554   4.718   0.137
 9399TIP3    H228143   3.681   4.789   0.179
 9400TIP3   OH228144   0.974   1.471   0.616
 9400TIP3    H128145   0.973   1.429   0.702
 9400TIP3    H228146   0.956   1.401   0.554
 9401TIP3   OH228147   3.462   4.861   4.168
 9401TIP3    H128148   3.430   4.819   4.089
 9401TIP3    H228149   3.543   4.904   4.141
 9402TIP3   OH228150   0.953   3.716   4.414
 9402TIP3    H128151   1.008   3.640   4.436
 9402TIP3    H228152   0.901   3.732   4.492
 9403TIP3   OH228153   1.635   0.809   0.320
 9403TIP3    H128154   1.726   0.824   0.344
 9403TIP3    H228155   1.590   0.888   0.351
 9404TIP3   OH228156   1.740   6.327   5.019
 9404TIP3    H128157   1.707   6.399   5.073
 9404TIP3    H228158   1.736   6.250   5.075
 9405TIP3   OH228159   0.262   3.906   4.066
 9405TIP3    H128160   0.227   3.992   4.089
 9405TIP3    H228161   0.239   3.850   4.140
 9406TIP3   OH228162   5.615   5.167   3.136
 9406TIP3    H128163   5.588   5.190   3.225
 9406TIP3    H228164   5.707   5.141   3.145
 9407TIP3   OH228165   5.335   1.417   1.346
 9407TIP3    H128166   5.403   1.410   1.413
 9407TIP3    H228167   5.288   1.497   1.367
 9408TIP3   OH228168   1.395   4.521   5.558
 9408TIP3    H128169   1.434   4.561   5.635
 9408TIP3    H228170   1.433   4.433   5.555
 9409TIP3   OH228171   6.684   2.292   3.350
 9409TIP3    H128172   6.644   2.369   3.308
 9409TIP3    H228173   6.709   2.235   3.278
 9410TIP3   OH228174   7.312   7.372   5.096
 9410TIP3    H128175   7.363   7.291   5.086
 9410TIP3    H228176   7.355   7.433   5.036
 9411TIP3   OH228177   7.612   5.077   5.796
 9411TIP3    H128178   7.524   5.096   5.763
 9411TIP3    H228179   7.671   5.117   5.732
 9412TIP3   OH228180   6.848   4.500   2.360
 9412TIP3    H128181   6.918   4.485   2.295
 9412TIP3    H228182   6.880   4.458   2.439
 9413TIP3   OH228183   3.280   7.150   3.459
 9413TIP3    H128184   3.193   7.141   3.499
 9413TIP3    H228185   3.279   7.236   3.417
 9414TIP3   OH228186   1.455   1.874   0.842
 9414TIP3    H128187   1.510   1.806   0.803
 9414TIP3    H228188   1.366   1.841   0.835
 9415TIP3   OH228189   5.293   3.239   3.642
 9415TIP3    H128190   5.365   3.266   3.584
 9415TIP3    H228191   5.225   3.305   3.629
 9416TIP3   OH228192   6.768   5.650   2.729
 9416TIP3    H128193   6.760   5.557   2.711
 9416TIP3    H228194   6.679   5.679   2.749
 9417TIP3   OH228195   3.918   3.374   2.032
 9417TIP3    H128196   3.864   3.296   2.020
 9417TIP3    H228197   3.892   3.409   2.117
 9418TIP3   OH228198   1.570   4.909   0.889
 9418TIP3    H128199   1.492   4.935   0.938
 9418TIP3    H228200   1.554   4.940   0.800
 9419TIP3   OH228201   5.912   6.578   0.774
 9419TIP3    H128202   6.001   6.596   0.744
 9419TIP3    H228203   5.858   6.585   0.695
 9420TIP3   OH228204   1.626  -0.062   4.582
 9420TIP3    H128205   1.578   0.012   4.545
 9420TIP3    H228206   1.676  -0.025   4.654
 9421TIP3   OH228207   1.793   7.040   0.584
 9421TIP3    H128208   1.868   6.999   0.540
 9421TIP3    H228209   1.775   7.119   0.532
 9422TIP3   OH228210   6.005   2.598   4.968
 9422TIP3    H128211   6.053   2.515   4.974
 9422TIP3    H228212   6.063   2.662   5.010
 9423TIP3   OH228213   7.970   7.093   1.511
 9423TIP3    H128214   7.906   7.159   1.536
 9423TIP3    H228215   7.918   7.022   1.473
 9424TIP3   OH228216   2.168   2.958   0.780
 9424TIP3    H128217   2.110   2.922   0.847
 9424TIP3    H228218   2.178   3.050   0.803
 9425TIP3   OH228219   0.249   4.856   5.672
 9425TIP3    H128220   0.265   4.934   5.725
 9425TIP3    H228221   0.153   4.854   5.661
 9426TIP3   OH228222   7.030   6.490   4.676
 9426TIP3    H128223   6.985   6.428   4.619
 9426TIP3    H228224   6.969   6.563   4.685
 9427TIP3   OH228225   5.478   6.112   4.167
 9427TIP3    H128226   5.542   6.183   4.173
 9427TIP3    H228227   5.504   6.051   4.236
 9428TIP3   OH228228   0.705   0.284   6.180
 9428TIP3    H128229   0.790   0.327   6.185
 9428TIP3    H228230   0.724   0.192   6.197
 9429TIP3   OH228231   2.372   1.430   1.983
 9429TIP3    H128232   2.334   1.441   2.070
 9429TIP3    H228233   2.399   1.519   1.958
 9430TIP3   OH228234   6.060   2.679   2.357
 9430TIP3    H128235   6.064   2.653   2.449
 9430TIP3    H228236   6.149   2.668   2.325
 9431TIP3   OH228237   7.810   1.573   5.626
 9431TIP3    H128238   7.871   1.543   5.559
 9431TIP3    H228239   7.800   1.499   5.685
 9432TIP3   OH228240   4.761   7.276   6.351
 9432TIP3    H128241   4.752   7.360   6.306
 9432TIP3    H228242   4.716   7.213   6.295
 9433TIP3   OH228243   5.587   0.298   5.867
 9433TIP3    H128244   5.631   0.223   5.909
 9433TIP3    H228245   5.498   0.297   5.902
 9434TIP3   OH228246   3.629   6.074   0.862
 9434TIP3    H128247   3.681   6.050   0.939
 9434TIP3    H228248   3.538   6.071   0.893
 9435TIP3   OH228249   1.188   7.491   5.784
 9435TIP3    H128250   1.239   7.458   5.858
 9435TIP3    H228251   1.251   7.498   5.712
 9436TIP3   OH228252   1.512   4.599   5.012
 9436TIP3    H128253   1.464   4.628   4.935
 9436TIP3    H228254   1.583   4.545   4.977
 9437TIP3   OH228255   4.485   1.409   3.144
 9437TIP3    H128256   4.432   1.468   3.091
 9437TIP3    H228257   4.574   1.445   3.138
 9438TIP3   OH228258   2.458   6.295   5.133
 9438TIP3    H128259   2.495   6.217   5.175
 9438TIP3    H228260   2.439   6.355   5.205
 9439TIP3   OH228261   8.115   3.654   5.176
 9439TIP3    H128262   8.033   3.702   5.187
 9439TIP3    H228263   8.114   3.587   5.244
 9440TIP3   OH228264   6.628   3.684   2.267
 9440TIP3    H128265   6.711   3.711   2.306
 9440TIP3    H228266   6.564   3.693   2.338
 9441TIP3   OH228267   1.354   1.909   1.254
 9441TIP3    H128268   1.288   1.857   1.210
 9441TIP3    H228269   1.307   1.987   1.285
 9442TIP3   OH228270   4.943   4.449   5.824
 9442TIP3    H128271   4.973   4.416   5.739
 9442TIP3    H228272   5.004   4.520   5.845
 9443TIP3   OH228273   5.893   7.144   5.369
 9443TIP3    H128274   5.905   7.238   5.380
 9443TIP3    H228275   5.813   7.136   5.316
 9444TIP3   OH228276   5.586   6.458   5.866
 9444TIP3    H128277   5.582   6.548   5.898
 9444TIP3    H228278   5.609   6.406   5.943
 9445TIP3   OH228279   1.279   1.298   4.200
 9445TIP3    H128280   1.302   1.263   4.286
 9445TIP3    H228281   1.322   1.239   4.138
 9446TIP3   OH228282   3.731   5.837   2.012
 9446TIP3    H128283   3.812   5.851   2.060
 9446TIP3    H228284   3.741   5.751   1.972
 9447TIP3   OH228285   1.488   0.823   4.155
 9447TIP3    H128286   1.553   0.793   4.091
 9447TIP3    H228287   1.477   0.749   4.214
 9448TIP3   OH228288   0.821   4.579   3.817
 9448TIP3    H128289   0.893   4.535   3.772
 9448TIP3    H228290   0.766   4.508   3.850
 9449TIP3   OH228291   2.913   7.763   1.847
 9449TIP3    H128292   3.000   7.786   1.815
 9449TIP3    H228293   2.890   7.834   1.908
 9450TIP3   OH228294   3.787   2.364   0.338
 9450TIP3    H128295   3.754   2.306   0.406
 9450TIP3    H228296   3.878   2.335   0.325
 9451TIP3   OH228297   0.929   1.941   0.500
 9451TIP3    H128298   0.845   1.977   0.471
 9451TIP3    H228299   0.960   2.002   0.567
 9452TIP3   OH228300   6.135   1.271   6.444
 9452TIP3    H128301   6.189   1.204   6.403
 9452TIP3    H228302   6.143   1.347   6.387
 9453TIP3   OH228303   0.453   0.673   0.170
 9453TIP3    H128304   0.401   0.675   0.089
 9453TIP3    H228305   0.412   0.740   0.226
 9454TIP3   OH228306   7.128   7.010   0.577
 9454TIP3    H128307   7.097   6.919   0.568
 9454TIP3    H228308   7.049   7.060   0.595
 9455TIP3   OH228309   7.109   0.589   2.270
 9455TIP3    H128310   7.108   0.604   2.175
 9455TIP3    H228311   7.047   0.652   2.305
 9456TIP3   OH228312   8.249   6.707   6.000
 9456TIP3    H128313   8.335   6.716   6.042
 9456TIP3    H228314   8.187   6.734   6.067
 9457TIP3   OH228315   2.498   0.960   4.574
 9457TIP3    H128316   2.553   1.039   4.576
 9457TIP3    H228317   2.444   0.970   4.496
 9458TIP3   OH228318   8.297   3.090   0.628
 9458TIP3    H128319   8.265   3.060   0.713
 9458TIP3    H228320   8.371   3.147   0.649
 9459TIP3   OH228321   1.989   2.043   4.141
 9459TIP3    H128322   2.082   2.022   4.151
 9459TIP3    H228323   1.944   1.960   4.156
 9460TIP3   OH228324   5.692   4.463   2.514
 9460TIP3    H128325   5.630   4.463   2.587
 9460TIP3    H228326   5.637   4.474   2.436
 9461TIP3   OH228327   7.028   2.139   4.981
 9461TIP3    H128328   7.008   2.067   5.041
 9461TIP3    H228329   7.030   2.217   5.038
 9462TIP3   OH228330   4.491   4.097   5.229
 9462TIP3    H128331   4.554   4.029   5.204
 9462TIP3    H228332   4.537   4.179   5.213
 9463TIP3   OH228333   7.142   6.596   0.766
 9463TIP3    H128334   7.213   6.544   0.803
 9463TIP3    H228335   7.174   6.624   0.681
 9464TIP3   OH228336   7.719   3.966   0.306
 9464TIP3    H128337   7.715   3.887   0.359
 9464TIP3    H228338   7.659   3.949   0.233
 9465TIP3   OH228339   3.634   4.391   4.512
 9465TIP3    H128340   3.574   4.395   4.586
 9465TIP3    H228341   3.581   4.356   4.440
 9466TIP3   OH228342   4.541   6.716   0.832
 9466TIP3    H128343   4.519   6.710   0.925
 9466TIP3    H228344   4.630   6.683   0.826
 9467TIP3   OH228345   4.767   6.018   0.530
 9467TIP3    H128346   4.727   6.015   0.617
 9467TIP3    H228347   4.702   5.978   0.472
 9468TIP3   OH228348   0.717   7.408   3.894
 9468TIP3    H128349   0.719   7.498   3.862
 9468TIP3    H228350   0.663   7.412   3.974
 9469TIP3   OH228351   0.588   4.875   3.228
 9469TIP3    H128352   0.620   4.957   3.265
 9469TIP3    H228353   0.648   4.809   3.262
 9470TIP3   OH228354   6.771   7.579   6.299
 9470TIP3    H128355   6.833   7.520   6.342
 9470TIP3    H228356   6.693   7.576   6.354
 9471TIP3   OH228357   7.828   7.543   5.712
 9471TIP3    H128358   7.857   7.620   5.662
 9471TIP3    H228359   7.831   7.471   5.649
 9472TIP3   OH228360   3.045   4.187   4.621
 9472TIP3    H128361   3.065   4.185   4.715
 9472TIP3    H228362   2.953   4.212   4.617
 9473TIP3   OH228363   0.744   4.085   1.997
 9473TIP3    H128364   0.836   4.090   1.971
 9473TIP3    H228365   0.728   4.167   2.044
 9474TIP3   OH228366   4.710   2.789   2.689
 9474TIP3    H128367   4.702   2.729   2.763
 9474TIP3    H228368   4.636   2.769   2.632
 9475TIP3   OH228369   7.444   3.443   3.683
 9475TIP3    H128370   7.365   3.433   3.630
 9475TIP3    H228371   7.493   3.514   3.639
 9476TIP3   OH228372   6.628   5.518   0.071
 9476TIP3    H128373   6.615   5.549  -0.019
 9476TIP3    H228374   6.662   5.429   0.061
 9477TIP3   OH228375   6.826   0.027   2.896
 9477TIP3    H128376   6.737   0.019   2.931
 9477TIP3    H228377   6.826   0.110   2.849
 9478TIP3   OH228378   3.366   0.553   5.881
 9478TIP3    H128379   3.431   0.540   5.812
 9478TIP3    H228380   3.308   0.621   5.847
 9479TIP3   OH228381   4.554   1.739   3.345
 9479TIP3    H128382   4.596   1.719   3.262
 9479TIP3    H228383   4.478   1.680   3.348
 9480TIP3   OH228384   3.551   3.511   1.794
 9480TIP3    H128385   3.482   3.573   1.771
 9480TIP3    H228386   3.526   3.430   1.750
 9481TIP3   OH228387   2.597   4.305   1.709
 9481TIP3    H128388   2.681   4.263   1.726
 9481TIP3    H228389   2.619   4.379   1.653
 9482TIP3   OH228390   4.591   0.377   3.546
 9482TIP3    H128391   4.671   0.325   3.539
 9482TIP3    H228392   4.605   0.451   3.486
 9483TIP3   OH228393   3.573   1.120   2.661
 9483TIP3    H128394   3.551   1.063   2.734
 9483TIP3    H228395   3.519   1.088   2.589
 9484TIP3   OH228396   6.381   2.088   4.484
 9484TIP3    H128397   6.408   2.110   4.395
 9484TIP3    H228398   6.286   2.103   4.485
 9485TIP3   OH228399   5.656   7.185   1.628
 9485TIP3    H128400   5.733   7.185   1.683
 9485TIP3    H228401   5.668   7.259   1.569
 9486TIP3   OH228402   4.742   5.897   1.120
 9486TIP3    H128403   4.744   5.887   1.025
 9486TIP3    H228404   4.727   5.808   1.153
 9487TIP3   OH228405   1.372   2.944   3.060
 9487TIP3    H128406   1.307   3.003   3.099
 9487TIP3    H228407   1.368   2.962   2.966
 9488TIP3   OH228408   4.677   7.250   1.281
 9488TIP3    H128409   4.617   7.194   1.231
 9488TIP3    H228410   4.763   7.232   1.243
 9489TIP3   OH228411   3.306   6.634   5.786
 9489TIP3    H128412   3.264   6.677   5.861
 9489TIP3    H228413   3.235   6.617   5.725
 9490TIP3   OH228414   0.696   2.823   4.454
 9490TIP3    H128415   0.738   2.742   4.484
 9490TIP3    H228416   0.753   2.893   4.486
 9491TIP3   OH228417   1.123   0.174   1.514
 9491TIP3    H128418   1.037   0.197   1.549
 9491TIP3    H228419   1.113   0.181   1.419
 9492TIP3   OH228420   2.013   0.802   2.288
 9492TIP3    H128421   1.959   0.769   2.360
 9492TIP3    H228422   1.959   0.791   2.210
 9493TIP3   OH228423   1.722   1.437   3.130
 9493TIP3    H128424   1.800   1.460   3.182
 9493TIP3    H228425   1.679   1.368   3.181
 9494TIP3   OH228426   5.618   4.805   1.172
 9494TIP3    H128427   5.678   4.874   1.198
 9494TIP3    H228428   5.674   4.728   1.157
 9495TIP3   OH228429   5.030   4.638   3.738
 9495TIP3    H128430   5.078   4.689   3.803
 9495TIP3    H228431   5.016   4.698   3.665
 9496TIP3   OH228432   2.600   6.206   0.330
 9496TIP3    H128433   2.617   6.121   0.288
 9496TIP3    H228434   2.687   6.236   0.358
 9497TIP3   OH228435   5.508   7.636   4.215
 9497TIP3    H128436   5.524   7.542   4.209
 9497TIP3    H228437   5.561   7.665   4.290
 9498TIP3   OH228438   1.231   1.140   6.512
 9498TIP3    H128439   1.173   1.185   6.573
 9498TIP3    H228440   1.197   1.163   6.425
 9499TIP3   OH228441   0.154   1.026   3.566
 9499TIP3    H128442   0.134   0.935   3.586
 9499TIP3    H228443   0.083   1.076   3.606
 9500TIP3   OH228444   0.152   6.749   6.193
 9500TIP3    H128445   0.205   6.826   6.173
 9500TIP3    H228446   0.097   6.776   6.267
 9501TIP3   OH228447   7.242   6.305   2.828
 9501TIP3    H128448   7.224   6.287   2.921
 9501TIP3    H228449   7.173   6.366   2.801
 9502TIP3   OH228450   6.797   6.621   0.518
 9502TIP3    H128451   6.804   6.633   0.613
 9502TIP3    H228452   6.819   6.528   0.505
 9503TIP3   OH228453   4.109   3.343   3.304
 9503TIP3    H128454   4.093   3.324   3.396
 9503TIP3    H228455   4.056   3.279   3.256
 9504TIP3   OH228456   4.420   6.974   2.700
 9504TIP3    H128457   4.449   6.955   2.790
 9504TIP3    H228458   4.432   7.068   2.691
 9505TIP3   OH228459   1.984   2.984   4.624
 9505TIP3    H128460   1.896   2.986   4.588
 9505TIP3    H228461   2.036   3.037   4.563
 9506TIP3   OH228462   6.081   0.157   3.539
 9506TIP3    H128463   6.146   0.155   3.468
 9506TIP3    H228464   6.003   0.195   3.499
 9507TIP3   OH228465   3.119   2.208   0.265
 9507TIP3    H128466   3.117   2.195   0.360
 9507TIP3    H228467   3.056   2.278   0.249
 9508TIP3   OH228468   6.557   0.646   0.727
 9508TIP3    H128469   6.494   0.586   0.765
 9508TIP3    H228470   6.643   0.609   0.748
 9509TIP3   OH228471   4.902   1.907   4.864
 9509TIP3    H128472   4.815   1.915   4.826
 9509TIP3    H228473   4.889   1.861   4.947
 9510TIP3   OH228474   3.130   4.655   3.551
 9510TIP3    H128475   3.073   4.731   3.550
 9510TIP3    H228476   3.219   4.690   3.547
 9511TIP3   OH228477   4.689   5.797   2.615
 9511TIP3    H128478   4.707   5.705   2.595
 9511TIP3    H228479   4.619   5.794   2.680
 9512TIP3   OH228480   3.593   1.684   1.302
 9512TIP3    H128481   3.569   1.775   1.318
 9512TIP3    H228482   3.586   1.642   1.388
 9513TIP3   OH228483   6.892   5.274   5.589
 9513TIP3    H128484   6.907   5.279   5.683
 9513TIP3    H228485   6.979   5.261   5.551
 9514TIP3   OH228486   7.995   0.825   0.019
 9514TIP3    H128487   8.051   0.758   0.058
 9514TIP3    H228488   7.926   0.777  -0.025
 9515TIP3   OH228489   1.932   1.111   2.792
 9515TIP3    H128490   1.951   1.075   2.879
 9515TIP3    H228491   1.946   1.038   2.732
 9516TIP3   OH228492   5.389   1.964   1.657
 9516TIP3    H128493   5.417   2.015   1.581
 9516TIP3    H228494   5.299   1.992   1.673
 9517TIP3   OH228495   4.094   2.766   0.037
 9517TIP3    H128496   4.040   2.845   0.032
 9517TIP3    H228497   4.182   2.796   0.014
 9518TIP3   OH228498   7.378   7.209   4.586
 9518TIP3    H128499   7.464   7.235   4.553
 9518TIP3    H228500   7.395   7.129   4.636
 9519TIP3   OH228501   1.153   5.233   3.985
 9519TIP3    H128502   1.143   5.253   4.078
 9519TIP3    H228503   1.167   5.318   3.943
 9520TIP3   OH228504   3.396   3.825   0.490
 9520TIP3    H128505   3.448   3.760   0.537
 9520TIP3    H228506   3.440   3.834   0.405
 9521TIP3   OH228507   6.841   4.265   2.580
 9521TIP3    H128508   6.849   4.356   2.611
 9521TIP3    H228509   6.899   4.215   2.637
 9522TIP3   OH228510   3.645   5.527   1.798
 9522TIP3    H128511   3.663   5.433   1.787
 9522TIP3    H228512   3.602   5.553   1.717
 9523TIP3   OH228513   0.201   3.495   4.955
 9523TIP3    H128514   0.209   3.410   4.998
 9523TIP3    H228515   0.158   3.550   5.020
 9524TIP3   OH228516   1.062   6.632   3.605
 9524TIP3    H128517   1.107   6.686   3.670
 9524TIP3    H228518   1.018   6.564   3.655
 9525TIP3   OH228519   6.299   7.013   5.080
 9525TIP3    H128520   6.296   7.091   5.025
 9525TIP3    H228521   6.290   6.939   5.019
 9526TIP3   OH228522   5.802   4.545   3.317
 9526TIP3    H128523   5.893   4.518   3.319
 9526TIP3    H228524   5.771   4.531   3.407
 9527TIP3   OH228525   2.631   4.488   2.703
 9527TIP3    H128526   2.659   4.400   2.679
 9527TIP3    H228527   2.698   4.519   2.763
 9528TIP3   OH228528   2.915   4.223   6.440
 9528TIP3    H128529   2.823   4.234   6.414
 9528TIP3    H228530   2.964   4.273   6.374
 9529TIP3   OH228531   6.974   7.745   0.878
 9529TIP3    H128532   7.040   7.780   0.938
 9529TIP3    H228533   6.962   7.654   0.904
 9530TIP3   OH228534   1.893   1.007   6.340
 9530TIP3    H128535   1.901   1.088   6.290
 9530TIP3    H228536   1.807   1.012   6.382
 9531TIP3   OH228537   6.619   5.489   6.568
 9531TIP3    H128538   6.610   5.576   6.531
 9531TIP3    H228539   6.701   5.492   6.617
 9532TIP3   OH228540   2.446   3.491   0.982
 9532TIP3    H128541   2.411   3.552   0.917
 9532TIP3    H228542   2.414   3.405   0.954
 9533TIP3   OH228543   6.963   1.019   1.959
 9533TIP3    H128544   6.983   0.984   2.045
 9533TIP3    H228545   6.911   1.098   1.976
 9534TIP3   OH228546   6.242   0.153   3.328
 9534TIP3    H128547   6.299   0.077   3.318
 9534TIP3    H228548   6.201   0.165   3.242
 9535TIP3   OH228549   5.604   1.099   1.333
 9535TIP3    H128550   5.642   1.187   1.331
 9535TIP3    H228551   5.538   1.103   1.402
 9536TIP3   OH228552   4.439   6.975   3.819
 9536TIP3    H128553   4.485   6.955   3.900
 9536TIP3    H228554   4.402   6.891   3.791
 9537TIP3   OH228555   7.444   1.946   2.476
 9537TIP3    H128556   7.383   1.962   2.404
 9537TIP3    H228557   7.507   1.883   2.440
 9538TIP3   OH228558   5.411   5.527   0.115
 9538TIP3    H128559   5.387   5.546   0.024
 9538TIP3    H228560   5.343   5.569   0.167
 9539TIP3   OH228561   5.249   1.871   5.893
 9539TIP3    H128562   5.243   1.776   5.897
 9539TIP3    H228563   5.280   1.889   5.805
 9540TIP3   OH228564   7.778   2.550   3.951
 9540TIP3    H128565   7.818   2.621   4.002
 9540TIP3    H228566   7.736   2.593   3.877
 9541TIP3   OH228567   1.801   7.610   6.198
 9541TIP3    H128568   1.853   7.680   6.158
 9541TIP3    H228569   1.768   7.559   6.124
 9542TIP3   OH228570   4.622   2.002   5.943
 9542TIP3    H128571   4.584   1.952   5.870
 9542TIP3    H228572   4.590   1.957   6.021
 9543TIP3   OH228573   5.316   7.140   2.904
 9543TIP3    H128574   5.367   7.075   2.856
 9543TIP3    H228575   5.380   7.184   2.960
 9544TIP3   OH228576   7.727   3.106   0.346
 9544TIP3    H128577   7.689   3.049   0.279
 9544TIP3    H228578   7.787   3.163   0.297
 9545TIP3   OH228579   4.581   5.169   1.785
 9545TIP3    H128580   4.599   5.094   1.728
 9545TIP3    H228581   4.650   5.168   1.850
 9546TIP3   OH228582   1.144   3.902   6.094
 9546TIP3    H128583   1.234   3.889   6.065
 9546TIP3    H228584   1.138   3.996   6.112
 9547TIP3   OH228585   0.455   4.914   4.607
 9547TIP3    H128586   0.469   4.909   4.702
 9547TIP3    H228587   0.369   4.873   4.594
 9548TIP3   OH228588   5.181   6.145   3.446
 9548TIP3    H128589   5.159   6.150   3.353
 9548TIP3    H228590   5.158   6.231   3.480
 9549TIP3   OH228591   6.374   4.200   0.154
 9549TIP3    H128592   6.343   4.196   0.245
 9549TIP3    H228593   6.371   4.293   0.132
 9550TIP3   OH228594   1.965   5.698   6.271
 9550TIP3    H128595   1.925   5.624   6.316
 9550TIP3    H228596   1.940   5.686   6.179
 9551TIP3   OH228597   0.488   2.217   2.604
 9551TIP3    H128598   0.420   2.189   2.543
 9551TIP3    H228599   0.474   2.311   2.614
 9552TIP3   OH228600   6.680   4.025   2.538
 9552TIP3    H128601   6.604   4.064   2.494
 9552TIP3    H228602   6.697   4.084   2.612
 9553TIP3   OH228603   4.115   4.226   6.249
 9553TIP3    H128604   4.046   4.291   6.235
 9553TIP3    H228605   4.173   4.237   6.174
 9554TIP3   OH228606   7.685   0.530   6.614
 9554TIP3    H128607   7.691   0.591   6.688
 9554TIP3    H228608   7.591   0.513   6.605
 9555TIP3   OH228609   7.677   7.337   0.329
 9555TIP3    H128610   7.594   7.342   0.281
 9555TIP3    H228611   7.718   7.257   0.296
 9556TIP3   OH228612   2.239   5.343   6.213
 9556TIP3    H128613   2.260   5.352   6.306
 9556TIP3    H228614   2.244   5.432   6.179
 9557TIP3   OH228615   1.137   1.540   1.031
 9557TIP3    H128616   1.192   1.467   1.058
 9557TIP3    H228617   1.060   1.499   0.993
 9558TIP3   OH228618   5.979   6.107   2.454
 9558TIP3    H128619   5.967   6.073   2.365
 9558TIP3    H228620   6.042   6.046   2.493
 9559TIP3   OH228621   1.868   2.104   2.954
 9559TIP3    H128622   1.812   2.180   2.971
 9559TIP3    H228623   1.820   2.053   2.888
 9560TIP3   OH228624   4.616   1.694   2.644
 9560TIP3    H128625   4.709   1.687   2.623
 9560TIP3    H228626   4.572   1.688   2.559
 9561TIP3   OH228627   0.995   1.213   4.923
 9561TIP3    H128628   1.052   1.265   4.866
 9561TIP3    H228629   0.907   1.247   4.905
 9562TIP3   OH228630   3.256   2.327   3.287
 9562TIP3    H128631   3.196   2.306   3.358
 9562TIP3    H228632   3.214   2.292   3.208
 9563TIP3   OH228633   6.320   4.573   2.331
 9563TIP3    H128634   6.235   4.616   2.334
 9563TIP3    H228635   6.383   4.644   2.324
 9564TIP3   OH228636   1.524   7.264   0.314
 9564TIP3    H128637   1.602   7.208   0.311
 9564TIP3    H228638   1.464   7.218   0.373
 9565TIP3   OH228639   7.573   2.077   3.405
 9565TIP3    H128640   7.566   1.986   3.434
 9565TIP3    H228641   7.557   2.074   3.311
 9566TIP3   OH228642   0.576   2.267   4.257
 9566TIP3    H128643   0.645   2.322   4.295
 9566TIP3    H228644   0.604   2.177   4.276
 9567TIP3   OH228645   5.435   4.601   4.771
 9567TIP3    H128646   5.452   4.509   4.790
 9567TIP3    H228647   5.466   4.647   4.849
 9568TIP3   OH228648   1.499   7.586   1.573
 9568TIP3    H128649   1.525   7.606   1.483
 9568TIP3    H228650   1.431   7.519   1.563
 9569TIP3   OH228651   8.019   2.790   1.393
 9569TIP3    H128652   7.967   2.851   1.340
 9569TIP3    H228653   8.071   2.846   1.450
 9570TIP3   OH228654   0.239   4.292   3.167
 9570TIP3    H128655   0.272   4.218   3.116
 9570TIP3    H228656   0.145   4.293   3.150
 9571TIP3   OH228657   7.852   5.582   0.628
 9571TIP3    H128658   7.884   5.492   0.631
 9571TIP3    H228659   7.765   5.579   0.669
 9572TIP3   OH228660   4.580   1.569   1.480
 9572TIP3    H128661   4.507   1.516   1.448
 9572TIP3    H228662   4.652   1.548   1.420
 9573TIP3   OH228663   1.500   7.463   5.263
 9573TIP3    H128664   1.493   7.557   5.279
 9573TIP3    H228665   1.437   7.424   5.323
 9574TIP3   OH228666   4.961   7.479   1.231
 9574TIP3    H128667   5.004   7.395   1.247
 9574TIP3    H228668   4.983   7.501   1.140
 9575TIP3   OH228669   5.763   6.971   4.405
 9575TIP3    H128670   5.802   6.978   4.318
 9575TIP3    H228671   5.674   7.002   4.395
 9576TIP3   OH228672   5.771   6.352   4.519
 9576TIP3    H128673   5.809   6.267   4.499
 9576TIP3    H228674   5.834   6.393   4.579
 9577TIP3   OH228675   6.141   6.055   4.107
 9577TIP3    H128676   6.120   5.985   4.170
 9577TIP3    H228677   6.216   6.100   4.146
 9578TIP3   OH228678   2.392   4.273   4.425
 9578TIP3    H128679   2.411   4.294   4.516
 9578TIP3    H228680   2.478   4.268   4.383
 9579TIP3   OH228681   0.984   0.855   3.893
 9579TIP3    H128682   0.965   0.786   3.829
 9579TIP3    H228683   0.920   0.842   3.963
 9580TIP3   OH228684   2.021   3.755   0.871
 9580TIP3    H128685   2.073   3.820   0.919
 9580TIP3    H228686   1.938   3.750   0.918
 9581TIP3   OH228687   7.229   2.913   5.025
 9581TIP3    H128688   7.239   2.823   5.056
 9581TIP3    H228689   7.183   2.957   5.096
 9582TIP3   OH228690   4.880   1.383   3.393
 9582TIP3    H128691   4.811   1.328   3.356
 9582TIP3    H228692   4.842   1.419   3.472
 9583TIP3   OH228693   7.451   7.838   0.544
 9583TIP3    H128694   7.525   7.818   0.488
 9583TIP3    H228695   7.403   7.906   0.498
 9584TIP3   OH228696   7.861   1.778   6.478
 9584TIP3    H128697   7.773   1.769   6.441
 9584TIP3    H228698   7.846   1.781   6.573
 9585TIP3   OH228699   0.462   2.907   2.906
 9585TIP3    H128700   0.538   2.948   2.948
 9585TIP3    H228701   0.469   2.815   2.929
 9586TIP3   OH228702   0.256   2.716  -0.012
 9586TIP3    H128703   0.163   2.694  -0.014
 9586TIP3    H228704   0.275   2.732   0.081
 9587TIP3   OH228705   5.588   0.384   1.783
 9587TIP3    H128706   5.660   0.355   1.840
 9587TIP3    H228707   5.567   0.472   1.814
 9588TIP3   OH228708   6.800   0.141   4.658
 9588TIP3    H128709   6.729   0.081   4.682
 9588TIP3    H228710   6.839   0.165   4.742
 9589TIP3   OH228711   2.663   4.213   2.767
 9589TIP3    H128712   2.758   4.206   2.759
 9589TIP3    H228713   2.645   4.198   2.860
 9590TIP3   OH228714   7.679   3.310   4.203
 9590TIP3    H128715   7.609   3.328   4.266
 9590TIP3    H228716   7.678   3.386   4.144
 9591TIP3   OH228717   6.833   6.997   6.516
 9591TIP3    H128718   6.754   6.958   6.479
 9591TIP3    H228719   6.839   7.083   6.476
 9592TIP3   OH228720   7.192   2.240   2.953
 9592TIP3    H128721   7.161   2.154   2.925
 9592TIP3    H228722   7.286   2.239   2.934
 9593TIP3   OH228723   2.950   2.427   6.341
 9593TIP3    H128724   2.970   2.521   6.341
 9593TIP3    H228725   2.857   2.422   6.364
 9594TIP3   OH228726   0.497   4.789   6.364
 9594TIP3    H128727   0.468   4.880   6.355
 9594TIP3    H228728   0.532   4.783   6.453
 9595TIP3   OH228729   4.525   7.491   3.264
 9595TIP3    H128730   4.573   7.526   3.188
 9595TIP3    H228731   4.535   7.396   3.257
 9596TIP3   OH228732   1.564   1.832   4.272
 9596TIP3    H128733   1.652   1.817   4.305
 9596TIP3    H228734   1.557   1.928   4.265
 9597TIP3   OH228735   2.659   0.577   4.331
 9597TIP3    H128736   2.605   0.654   4.314
 9597TIP3    H228737   2.747   0.602   4.302
 9598TIP3   OH228738   8.024   6.087   5.246
 9598TIP3    H128739   8.109   6.132   5.240
 9598TIP3    H228740   8.000   6.092   5.338
 9599TIP3   OH228741   0.879   0.626   2.587
 9599TIP3    H128742   0.886   0.720   2.606
 9599TIP3    H228743   0.833   0.621   2.503
 9600TIP3   OH228744   3.431   4.597   0.065
 9600TIP3    H128745   3.395   4.635  -0.015
 9600TIP3    H228746   3.371   4.526   0.087
 9601TIP3   OH228747   4.073   5.341   4.182
 9601TIP3    H128748   4.110   5.428   4.163
 9601TIP3    H228749   4.059   5.302   4.095
 9602TIP3   OH228750   3.847   7.769   0.291
 9602TIP3    H128751   3.902   7.843   0.317
 9602TIP3    H228752   3.909   7.700   0.267
 9603TIP3   OH228753   8.078   2.726   5.646
 9603TIP3    H128754   8.058   2.644   5.601
 9603TIP3    H228755   8.123   2.779   5.581
 9604TIP3   OH228756   2.111   3.778   0.451
 9604TIP3    H128757   2.181   3.782   0.516
 9604TIP3    H228758   2.038   3.823   0.492
 9605TIP3   OH228759   1.089   4.891   0.362
 9605TIP3    H128760   1.158   4.896   0.429
 9605TIP3    H228761   1.020   4.839   0.403
 9606TIP3   OH228762   5.638   4.031   0.398
 9606TIP3    H128763   5.623   4.120   0.430
 9606TIP3    H228764   5.648   3.978   0.477
 9607TIP3   OH228765   1.991   4.005   6.546
 9607TIP3    H128766   2.021   4.042   6.630
 9607TIP3    H228767   1.982   3.911   6.563
 9608TIP3   OH228768   0.054   4.635   0.304
 9608TIP3    H128769   0.063   4.659   0.396
 9608TIP3    H228770   0.124   4.685   0.260
 9609TIP3   OH228771   1.958   3.179   2.362
 9609TIP3    H128772   2.011   3.175   2.282
 9609TIP3    H228773   1.999   3.248   2.415
 9610TIP3   OH228774   5.980   1.848   2.801
 9610TIP3    H128775   5.964   1.884   2.888
 9610TIP3    H228776   5.899   1.867   2.753
 9611TIP3   OH228777   4.574   3.745   0.805
 9611TIP3    H128778   4.501   3.765   0.864
 9611TIP3    H228779   4.609   3.662   0.838
 9612TIP3   OH228780   7.472   1.600   0.589
 9612TIP3    H128781   7.381   1.603   0.617
 9612TIP3    H228782   7.503   1.690   0.601
 9613TIP3   OH228783   6.313   5.609   4.589
 9613TIP3    H128784   6.387   5.593   4.648
 9613TIP3    H228785   6.237   5.615   4.647
 9614TIP3   OH228786   4.319   1.603   3.415
 9614TIP3    H128787   4.263   1.659   3.469
 9614TIP3    H228788   4.259   1.563   3.352
 9615TIP3   OH228789   4.048   3.296   6.269
 9615TIP3    H128790   4.105   3.237   6.221
 9615TIP3    H228791   3.959   3.270   6.244
 9616TIP3   OH228792   0.200   5.361   6.304
 9616TIP3    H128793   0.125   5.301   6.311
 9616TIP3    H228794   0.182   5.411   6.224
 9617TIP3   OH228795   0.893   4.220   2.232
 9617TIP3    H128796   0.960   4.236   2.299
 9617TIP3    H228797   0.840   4.150   2.270
 9618TIP3   OH228798   7.848   2.347   1.801
 9618TIP3    H128799   7.907   2.362   1.727
 9618TIP3    H228800   7.876   2.410   1.867
 9619TIP3   OH228801   5.025   0.216   6.069
 9619TIP3    H128802   4.965   0.200   5.996
 9619TIP3    H228803   4.968   0.241   6.142
 9620TIP3   OH228804   4.419   0.073   4.372
 9620TIP3    H128805   4.475   0.107   4.442
 9620TIP3    H228806   4.368   0.149   4.344
 9621TIP3   OH228807   2.554   3.825   6.604
 9621TIP3    H128808   2.532   3.883   6.676
 9621TIP3    H228809   2.599   3.881   6.540
 9622TIP3   OH228810   2.407   0.651   3.716
 9622TIP3    H128811   2.494   0.684   3.739
 9622TIP3    H228812   2.366   0.723   3.668
 9623TIP3   OH228813   6.821   1.046   1.283
 9623TIP3    H128814   6.860   1.036   1.196
 9623TIP3    H228815   6.727   1.038   1.268
 9624TIP3   OH228816   2.120   0.460   4.492
 9624TIP3    H128817   2.185   0.502   4.435
 9624TIP3    H228818   2.159   0.375   4.514
 9625TIP3   OH228819   0.265   7.354   1.271
 9625TIP3    H128820   0.173   7.383   1.273
 9625TIP3    H228821   0.287   7.354   1.178
 9626TIP3   OH228822   1.442   1.720   1.715
 9626TIP3    H128823   1.492   1.659   1.769
 9626TIP3    H228824   1.354   1.681   1.709
 9627TIP3   OH228825   5.884   6.216   6.523
 9627TIP3    H128826   5.825   6.286   6.496
 9627TIP3    H228827   5.827   6.147   6.556
 9628TIP3   OH228828   4.866   3.263   6.147
 9628TIP3    H128829   4.823   3.273   6.062
 9628TIP3    H228830   4.865   3.350   6.185
 9629TIP3   OH228831   2.512   3.368   3.200
 9629TIP3    H128832   2.492   3.416   3.120
 9629TIP3    H228833   2.585   3.416   3.239
 9630TIP3   OH228834   0.765   4.342   0.489
 9630TIP3    H128835   0.784   4.257   0.450
 9630TIP3    H228836   0.786   4.405   0.421
 9631TIP3   OH228837   2.514   4.327   3.798
 9631TIP3    H128838   2.450   4.350   3.730
 9631TIP3    H228839   2.533   4.234   3.781
 9632TIP3   OH228840   3.709   4.637   0.640
 9632TIP3    H128841   3.647   4.706   0.664
 9632TIP3    H228842   3.677   4.559   0.685
 9633TIP3   OH228843   4.849   3.365   4.815
 9633TIP3    H128844   4.781   3.422   4.852
 9633TIP3    H228845   4.853   3.390   4.723
 9634TIP3   OH228846   1.062   3.297   5.905
 9634TIP3    H128847   1.133   3.279   5.843
 9634TIP3    H228848   1.038   3.211   5.940
 9635TIP3   OH228849   7.265   2.677   4.297
 9635TIP3    H128850   7.356   2.707   4.292
 9635TIP3    H228851   7.271   2.582   4.283
 9636TIP3   OH228852   0.919   0.959   0.483
 9636TIP3    H128853   0.958   0.953   0.571
 9636TIP3    H228854   0.885   0.872   0.466
 9637TIP3   OH228855   5.432   3.115   4.980
 9637TIP3    H128856   5.493   3.095   4.910
 9637TIP3    H228857   5.416   3.032   5.024
 9638TIP3   OH228858   5.759   6.148   2.596
 9638TIP3    H128859   5.713   6.074   2.557
 9638TIP3    H228860   5.843   6.151   2.550
 9639TIP3   OH228861   2.489   1.670   1.059
 9639TIP3    H128862   2.506   1.621   0.978
 9639TIP3    H228863   2.415   1.624   1.099
 9640TIP3   OH228864   4.720   7.385   0.484
 9640TIP3    H128865   4.769   7.462   0.454
 9640TIP3    H228866   4.773   7.310   0.456
 9641TIP3   OH228867   0.198   0.747   5.216
 9641TIP3    H128868   0.156   0.793   5.289
 9641TIP3    H228869   0.217   0.660   5.250
 9642TIP3   OH228870   7.188   1.113   2.351
 9642TIP3    H128871   7.141   1.051   2.294
 9642TIP3    H228872   7.183   1.073   2.438
 9643TIP3   OH228873   7.197   6.803   1.453
 9643TIP3    H128874   7.181   6.884   1.405
 9643TIP3    H228875   7.112   6.759   1.455
 9644TIP3   OH228876   0.410   1.415   0.731
 9644TIP3    H128877   0.365   1.401   0.648
 9644TIP3    H228878   0.391   1.337   0.782
 9645TIP3   OH228879   2.033   7.208   3.450
 9645TIP3    H128880   2.084   7.261   3.511
 9645TIP3    H228881   1.981   7.271   3.401
 9646TIP3   OH228882   3.960   2.865   4.723
 9646TIP3    H128883   3.913   2.936   4.680
 9646TIP3    H228884   3.896   2.825   4.782
 9647TIP3   OH228885   4.505   5.775   2.843
 9647TIP3    H128886   4.528   5.769   2.936
 9647TIP3    H228887   4.450   5.698   2.827
 9648TIP3   OH228888   0.353   7.573   6.729
 9648TIP3    H128889   0.391   7.575   6.641
 9648TIP3    H228890   0.410   7.515   6.779
 9649TIP3   OH228891   2.130   0.493   0.325
 9649TIP3    H128892   2.133   0.537   0.410
 9649TIP3    H228893   2.214   0.447   0.318
 9650TIP3   OH228894   1.175   1.877   3.242
 9650TIP3    H128895   1.183   1.793   3.287
 9650TIP3    H228896   1.112   1.927   3.293
 9651TIP3   OH228897   2.394   6.217   4.158
 9651TIP3    H128898   2.352   6.255   4.080
 9651TIP3    H228899   2.328   6.158   4.194
 9652TIP3   OH228900   4.467   4.980   1.459
 9652TIP3    H128901   4.418   4.904   1.426
 9652TIP3    H228902   4.491   5.029   1.381
 9653TIP3   OH228903   6.292   5.406   3.824
 9653TIP3    H128904   6.277   5.391   3.731
 9653TIP3    H228905   6.369   5.353   3.845
 9654TIP3   OH228906   6.795   4.788   0.867
 9654TIP3    H128907   6.788   4.763   0.959
 9654TIP3    H228908   6.816   4.705   0.822
 9655TIP3   OH228909   6.294   0.710   6.283
 9655TIP3    H128910   6.296   0.710   6.187
 9655TIP3    H228911   6.326   0.623   6.307
 9656TIP3   OH228912   5.529   4.642   0.824
 9656TIP3    H128913   5.573   4.725   0.844
 9656TIP3    H228914   5.514   4.645   0.730
 9657TIP3   OH228915   4.309   0.771   5.025
 9657TIP3    H128916   4.283   0.858   5.055
 9657TIP3    H228917   4.272   0.711   5.090
 9658TIP3   OH228918   4.676   1.697   6.184
 9658TIP3    H128919   4.722   1.631   6.132
 9658TIP3    H228920   4.684   1.667   6.274
 9659TIP3   OH228921   7.737   3.600   3.230
 9659TIP3    H128922   7.796   3.672   3.252
 9659TIP3    H228923   7.787   3.545   3.170
 9660TIP3   OH228924   0.143   1.827   5.108
 9660TIP3    H128925   0.095   1.796   5.185
 9660TIP3    H228926   0.102   1.912   5.088
 9661TIP3   OH228927   2.375   2.693   6.816
 9661TIP3    H128928   2.337   2.608   6.837
 9661TIP3    H228929   2.338   2.715   6.730
 9662TIP3   OH228930   0.564   7.291   5.846
 9662TIP3    H128931   0.569   7.285   5.751
 9662TIP3    H228932   0.509   7.367   5.863
 9663TIP3   OH228933   8.023   6.644   2.215
 9663TIP3    H128934   8.117   6.644   2.236
 9663TIP3    H228935   8.013   6.574   2.151
 9664TIP3   OH228936   7.574   7.083   3.745
 9664TIP3    H128937   7.546   7.089   3.837
 9664TIP3    H228938   7.620   6.999   3.739
 9665TIP3   OH228939   6.884   7.663   4.697
 9665TIP3    H128940   6.848   7.682   4.783
 9665TIP3    H228941   6.976   7.642   4.713
 9666TIP3   OH228942   0.530   1.337   5.294
 9666TIP3    H128943   0.481   1.403   5.342
 9666TIP3    H228944   0.463   1.284   5.251
 9667TIP3   OH228945   7.923   3.775   6.724
 9667TIP3    H128946   7.920   3.717   6.648
 9667TIP3    H228947   8.009   3.758   6.764
 9668TIP3   OH228948   2.812   4.958   6.271
 9668TIP3    H128949   2.810   5.046   6.310
 9668TIP3    H228950   2.803   4.973   6.177
 9669TIP3   OH228951   7.546   6.099   4.589
 9669TIP3    H128952   7.609   6.109   4.517
 9669TIP3    H228953   7.503   6.016   4.571
 9670TIP3   OH228954   5.156   2.811   3.803
 9670TIP3    H128955   5.226   2.753   3.833
 9670TIP3    H228956   5.102   2.755   3.747
 9671TIP3   OH228957   3.825   1.898   0.309
 9671TIP3    H128958   3.905   1.933   0.269
 9671TIP3    H228959   3.849   1.880   0.400
 9672TIP3   OH228960   6.806   6.771   1.251
 9672TIP3    H128961   6.810   6.679   1.225
 9672TIP3    H228962   6.838   6.771   1.341
 9673TIP3   OH228963   4.962   2.922   4.567
 9673TIP3    H128964   5.026   2.886   4.627
 9673TIP3    H228965   5.006   2.926   4.482
 9674TIP3   OH228966   5.421   7.404   3.944
 9674TIP3    H128967   5.399   7.311   3.941
 9674TIP3    H228968   5.516   7.407   3.951
 9675TIP3   OH228969   3.371   0.098   0.506
 9675TIP3    H128970   3.336   0.175   0.550
 9675TIP3    H228971   3.315   0.086   0.429
 9676TIP3   OH228972   3.354   5.230   1.620
 9676TIP3    H128973   3.439   5.205   1.655
 9676TIP3    H228974   3.295   5.225   1.695
 9677TIP3   OH228975   2.712   5.094   2.730
 9677TIP3    H128976   2.632   5.042   2.740
 9677TIP3    H228977   2.769   5.041   2.674
 9678TIP3   OH228978   8.026   2.352   0.966
 9678TIP3    H128979   8.121   2.347   0.965
 9678TIP3    H228980   8.007   2.445   0.979
 9679TIP3   OH228981   2.671   4.806   1.357
 9679TIP3    H128982   2.662   4.788   1.263
 9679TIP3    H228983   2.589   4.773   1.395
 9680TIP3   OH228984   1.325   5.957   0.171
 9680TIP3    H128985   1.302   5.869   0.201
 9680TIP3    H228986   1.252   6.012   0.201
 9681TIP3   OH228987   6.866   7.108   5.980
 9681TIP3    H128988   6.806   7.047   5.937
 9681TIP3    H228989   6.842   7.194   5.943
 9682TIP3   OH228990   4.024   6.030   0.145
 9682TIP3    H128991   4.000   5.984   0.226
 9682TIP3    H228992   4.118   6.049   0.156
 9683TIP3   OH228993   1.461   6.245   4.861
 9683TIP3    H128994   1.427   6.197   4.936
 9683TIP3    H228995   1.386   6.291   4.825
 9684TIP3   OH228996   5.319   3.008   2.034
 9684TIP3    H128997   5.355   2.919   2.041
 9684TIP3    H228998   5.288   3.028   2.122
 9685TIP3   OH228999   5.536   3.337   3.384
 9685TIP3    H129000   5.510   3.392   3.458
 9685TIP3    H229001   5.630   3.322   3.396
 9686TIP3   OH229002   2.405   5.245   1.193
 9686TIP3    H129003   2.491   5.222   1.157
 9686TIP3    H229004   2.358   5.162   1.199
 9687TIP3   OH229005   5.936   6.629   4.155
 9687TIP3    H129006   5.980   6.688   4.094
 9687TIP3    H229007   6.006   6.590   4.206
 9688TIP3   OH229008   1.894   5.651   4.705
 9688TIP3    H129009   1.850   5.712   4.646
 9688TIP3    H229010   1.926   5.705   4.778
 9689TIP3   OH229011   2.782   1.985   0.446
 9689TIP3    H129012   2.701   1.967   0.399
 9689TIP3    H229013   2.851   1.958   0.386
 9690TIP3   OH229014   4.864   0.782   4.574
 9690TIP3    H129015   4.884   0.871   4.545
 9690TIP3    H229016   4.917   0.770   4.653
 9691TIP3   OH229017   5.518   0.418   2.156
 9691TIP3    H129018   5.503   0.329   2.188
 9691TIP3    H229019   5.545   0.467   2.234
 9692TIP3   OH229020   1.672   3.731   3.561
 9692TIP3    H129021   1.589   3.747   3.516
 9692TIP3    H229022   1.715   3.665   3.507
 9693TIP3   OH229023   0.894   3.575   3.663
 9693TIP3    H129024   0.914   3.598   3.572
 9693TIP3    H229025   0.853   3.653   3.699
 9694TIP3   OH229026   2.971   2.208   1.766
 9694TIP3    H129027   2.908   2.255   1.821
 9694TIP3    H229028   2.997   2.273   1.700
 9695TIP3   OH229029   7.626   2.742   1.024
 9695TIP3    H129030   7.629   2.664   1.079
 9695TIP3    H229031   7.567   2.718   0.952
 9696TIP3   OH229032   5.127   6.847   0.274
 9696TIP3    H129033   5.150   6.798   0.195
 9696TIP3    H229034   5.136   6.939   0.249
 9697TIP3   OH229035   4.042   2.583   4.710
 9697TIP3    H129036   4.026   2.677   4.704
 9697TIP3    H229037   3.968   2.549   4.761
 9698TIP3   OH229038   5.802   5.097   5.276
 9698TIP3    H129039   5.720   5.103   5.326
 9698TIP3    H229040   5.836   5.187   5.276
 9699TIP3   OH229041   7.918   1.528   5.372
 9699TIP3    H129042   8.010   1.502   5.365
 9699TIP3    H229043   7.881   1.503   5.287
 9700TIP3   OH229044   1.435   4.897   4.024
 9700TIP3    H129045   1.389   4.970   3.983
 9700TIP3    H229046   1.518   4.935   4.054
 9701TIP3   OH229047   1.333   5.436   0.074
 9701TIP3    H129048   1.264   5.500   0.058
 9701TIP3    H229049   1.415   5.486   0.064
 9702TIP3   OH229050   4.924   5.090   5.153
 9702TIP3    H129051   4.937   5.093   5.247
 9702TIP3    H229052   4.850   5.150   5.137
 9703TIP3   OH229053   2.904   6.584   4.494
 9703TIP3    H129054   2.945   6.519   4.437
 9703TIP3    H229055   2.885   6.658   4.435
 9704TIP3   OH229056   0.581   3.442   4.625
 9704TIP3    H129057   0.487   3.437   4.640
 9704TIP3    H229058   0.615   3.359   4.658
 9705TIP3   OH229059   3.269   4.426   5.956
 9705TIP3    H129060   3.348   4.372   5.949
 9705TIP3    H229061   3.287   4.486   6.029
 9706TIP3   OH229062   5.941   3.697   2.976
 9706TIP3    H129063   5.850   3.714   3.001
 9706TIP3    H229064   5.986   3.780   2.988
 9707TIP3   OH229065   2.708   6.730   1.126
 9707TIP3    H129066   2.733   6.646   1.164
 9707TIP3    H229067   2.776   6.747   1.060
 9708TIP3   OH229068   6.295   4.517   4.455
 9708TIP3    H129069   6.312   4.607   4.482
 9708TIP3    H229070   6.207   4.520   4.416
 9709TIP3   OH229071   7.845   2.629   1.592
 9709TIP3    H129072   7.894   2.571   1.650
 9709TIP3    H229073   7.909   2.655   1.526
 9710TIP3   OH229074   7.426   2.222   1.405
 9710TIP3    H129075   7.397   2.307   1.371
 9710TIP3    H229076   7.414   2.229   1.499
 9711TIP3   OH229077   0.818   2.325   3.437
 9711TIP3    H129078   0.913   2.317   3.452
 9711TIP3    H229079   0.792   2.240   3.402
 9712TIP3   OH229080   2.397   5.930   4.340
 9712TIP3    H129081   2.446   6.011   4.353
 9712TIP3    H229082   2.462   5.861   4.346
 9713TIP3   OH229083   6.350   7.715   0.363
 9713TIP3    H129084   6.419   7.781   0.360
 9713TIP3    H229085   6.270   7.764   0.380
 9714TIP3   OH229086   5.200   3.637   1.165
 9714TIP3    H129087   5.255   3.626   1.242
 9714TIP3    H229088   5.258   3.619   1.091
 9715TIP3   OH229089   0.859   3.303   3.770
 9715TIP3    H129090   0.852   3.382   3.717
 9715TIP3    H229091   0.855   3.231   3.706
 9716TIP3   OH229092   4.254   0.239   2.932
 9716TIP3    H129093   4.166   0.276   2.942
 9716TIP3    H229094   4.265   0.182   3.007
 9717TIP3   OH229095   5.570   7.439   6.625
 9717TIP3    H129096   5.655   7.482   6.636
 9717TIP3    H229097   5.592   7.353   6.588
 9718TIP3   OH229098   0.748   4.621   1.753
 9718TIP3    H129099   0.788   4.689   1.807
 9718TIP3    H229100   0.811   4.548   1.756
 9719TIP3   OH229101   8.224   1.448   0.218
 9719TIP3    H129102   8.254   1.364   0.183
 9719TIP3    H229103   8.142   1.426   0.264
 9720TIP3   OH229104   6.246   6.256   2.252
 9720TIP3    H129105   6.152   6.244   2.261
 9720TIP3    H229106   6.257   6.302   2.169
 9721TIP3   OH229107   4.189   5.919   4.573
 9721TIP3    H129108   4.186   5.968   4.655
 9721TIP3    H229109   4.181   5.827   4.600
 9722TIP3   OH229110   5.149   6.943   3.727
 9722TIP3    H129111   5.243   6.954   3.740
 9722TIP3    H229112   5.111   6.952   3.814
 9723TIP3   OH229113   1.325   2.683   1.284
 9723TIP3    H129114   1.383   2.612   1.311
 9723TIP3    H229115   1.342   2.695   1.191
 9724TIP3   OH229116   1.974   2.671   1.648
 9724TIP3    H129117   1.884   2.643   1.664
 9724TIP3    H229118   1.975   2.764   1.671
 9725TIP3   OH229119   4.087   3.252   3.594
 9725TIP3    H129120   4.154   3.290   3.650
 9725TIP3    H229121   4.005   3.269   3.640
 9726TIP3   OH229122   3.992   3.041   0.022
 9726TIP3    H129123   3.908   3.084   0.036
 9726TIP3    H229124   4.023   3.076  -0.061
 9727TIP3   OH229125   5.197   4.476   4.459
 9727TIP3    H129126   5.165   4.390   4.483
 9727TIP3    H229127   5.139   4.537   4.505
 9728TIP3   OH229128   2.875   6.511   5.412
 9728TIP3    H129129   2.885   6.474   5.499
 9728TIP3    H229130   2.837   6.441   5.359
 9729TIP3   OH229131   0.861   6.577   2.937
 9729TIP3    H129132   0.952   6.604   2.946
 9729TIP3    H229133   0.816   6.654   2.903
 9730TIP3   OH229134   5.172   3.423   4.312
 9730TIP3    H129135   5.165   3.502   4.258
 9730TIP3    H229136   5.137   3.353   4.257
 9731TIP3   OH229137   8.158   0.329   3.985
 9731TIP3    H129138   8.067   0.302   3.976
 9731TIP3    H229139   8.204   0.281   3.916
 9732TIP3   OH229140   2.383   4.132   1.796
 9732TIP3    H129141   2.451   4.195   1.773
 9732TIP3    H229142   2.429   4.048   1.798
 9733TIP3   OH229143   7.682   0.456   4.810
 9733TIP3    H129144   7.726   0.382   4.768
 9733TIP3    H229145   7.698   0.529   4.751
 9734TIP3   OH229146   3.676   5.638   3.870
 9734TIP3    H129147   3.674   5.733   3.874
 9734TIP3    H229148   3.686   5.619   3.776
 9735TIP3   OH229149   4.365   7.496   0.199
 9735TIP3    H129150   4.318   7.535   0.125
 9735TIP3    H229151   4.456   7.492   0.169
 9736TIP3   OH229152   7.335   2.492   3.945
 9736TIP3    H129153   7.349   2.542   3.865
 9736TIP3    H229154   7.309   2.405   3.915
 9737TIP3   OH229155   0.169   7.386   3.257
 9737TIP3    H129156   0.225   7.311   3.281
 9737TIP3    H229157   0.163   7.381   3.161
 9738TIP3   OH229158   6.985   7.173   1.745
 9738TIP3    H129159   7.002   7.138   1.833
 9738TIP3    H229160   6.943   7.101   1.698
 9739TIP3   OH229161   4.206   6.139   2.424
 9739TIP3    H129162   4.228   6.203   2.357
 9739TIP3    H229163   4.222   6.185   2.507
 9740TIP3   OH229164   7.243   6.592   3.555
 9740TIP3    H129165   7.167   6.634   3.514
 9740TIP3    H229166   7.290   6.551   3.482
 9741TIP3   OH229167   2.935   4.015   1.536
 9741TIP3    H129168   2.965   4.035   1.625
 9741TIP3    H229169   3.005   4.047   1.480
 9742TIP3   OH229170   0.729   6.759   5.860
 9742TIP3    H129171   0.805   6.802   5.898
 9742TIP3    H229172   0.712   6.808   5.779
 9743TIP3   OH229173   6.517   1.640   2.363
 9743TIP3    H129174   6.554   1.650   2.275
 9743TIP3    H229175   6.593   1.632   2.420
 9744TIP3   OH229176   1.478   6.238   3.040
 9744TIP3    H129177   1.405   6.278   3.087
 9744TIP3    H229178   1.556   6.283   3.073
 9745TIP3   OH229179   0.107   2.707   5.044
 9745TIP3    H129180   0.068   2.672   5.124
 9745TIP3    H229181   0.201   2.699   5.057
 9746TIP3   OH229182   3.433   5.975   2.143
 9746TIP3    H129183   3.398   5.908   2.202
 9746TIP3    H229184   3.505   5.931   2.097
 9747TIP3   OH229185   1.587   3.552   3.761
 9747TIP3    H129186   1.643   3.567   3.837
 9747TIP3    H229187   1.604   3.627   3.703
 9748TIP3   OH229188   1.376   0.124   3.186
 9748TIP3    H129189   1.309   0.156   3.246
 9748TIP3    H229190   1.422   0.203   3.157
 9749TIP3   OH229191   7.798   0.293   6.710
 9749TIP3    H129192   7.757   0.355   6.649
 9749TIP3    H229193   7.735   0.283   6.781
 9750TIP3   OH229194   3.339   7.559   4.711
 9750TIP3    H129195   3.318   7.491   4.775
 9750TIP3    H229196   3.428   7.586   4.733
 9751TIP3   OH229197   3.419   0.578   0.138
 9751TIP3    H129198   3.339   0.535   0.167
 9751TIP3    H229199   3.420   0.565   0.043
 9752TIP3   OH229200   5.900   4.147   3.968
 9752TIP3    H129201   5.866   4.058   3.972
 9752TIP3    H229202   5.994   4.138   3.978
 9753TIP3   OH229203   8.236   2.269   5.145
 9753TIP3    H129204   8.270   2.300   5.061
 9753TIP3    H229205   8.313   2.266   5.202
 9754TIP3   OH229206   0.940   5.776   1.313
 9754TIP3    H129207   1.010   5.806   1.371
 9754TIP3    H229208   0.985   5.732   1.241
 9755TIP3   OH229209   3.292   7.079   6.044
 9755TIP3    H129210   3.235   7.147   6.009
 9755TIP3    H229211   3.268   7.073   6.137
 9756TIP3   OH229212   1.492   2.447   3.631
 9756TIP3    H129213   1.525   2.390   3.701
 9756TIP3    H229214   1.462   2.526   3.677
 9757TIP3   OH229215   3.162   5.753   6.459
 9757TIP3    H129216   3.136   5.710   6.378
 9757TIP3    H229217   3.173   5.682   6.522
 9758TIP3   OH229218   1.024   7.115   6.694
 9758TIP3    H129219   1.099   7.128   6.752
 9758TIP3    H229220   1.024   7.022   6.674
 9759TIP3   OH229221   6.414   0.415   2.812
 9759TIP3    H129222   6.434   0.431   2.720
 9759TIP3    H229223   6.419   0.319   2.820
 9760TIP3   OH229224   2.755   6.248   3.312
 9760TIP3    H129225   2.799   6.179   3.262
 9760TIP3    H229226   2.670   6.258   3.268
 9761TIP3   OH229227   2.929   0.414   1.816
 9761TIP3    H129228   2.940   0.472   1.891
 9761TIP3    H229229   2.839   0.382   1.822
 9762TIP3   OH229230   0.879   7.248   2.318
 9762TIP3    H129231   0.884   7.180   2.385
 9762TIP3    H229232   0.835   7.207   2.244
 9763TIP3   OH229233   6.542   0.956   1.267
 9763TIP3    H129234   6.492   1.020   1.217
 9763TIP3    H229235   6.565   0.888   1.204
 9764TIP3   OH229236   5.312   0.177   1.897
 9764TIP3    H129237   5.372   0.246   1.870
 9764TIP3    H229238   5.233   0.192   1.845
 9765TIP3   OH229239   8.296   3.486   4.274
 9765TIP3    H129240   8.249   3.548   4.330
 9765TIP3    H229241   8.242   3.479   4.196
 9766TIP3   OH229242   7.553   3.877   3.732
 9766TIP3    H129243   7.639   3.911   3.756
 9766TIP3    H229244   7.512   3.853   3.816
 9767TIP3   OH229245   5.055   0.339   3.433
 9767TIP3    H129246   5.052   0.391   3.513
 9767TIP3    H229247   5.133   0.285   3.443
 9768TIP3   OH229248   0.468   3.979   2.713
 9768TIP3    H129249   0.556   3.954   2.686
 9768TIP3    H229250   0.453   4.064   2.671
 9769TIP3   OH229251   6.810   5.107   0.628
 9769TIP3    H129252   6.741   5.149   0.577
 9769TIP3    H229253   6.869   5.178   0.652
 9770TIP3   OH229254   5.945   2.614   3.210
 9770TIP3    H129255   5.876   2.550   3.196
 9770TIP3    H229256   5.911   2.695   3.171
 9771TIP3   OH229257   7.470   2.311   4.483
 9771TIP3    H129258   7.444   2.401   4.504
 9771TIP3    H229259   7.509   2.279   4.564
 9772TIP3   OH229260   5.754   4.363   4.063
 9772TIP3    H129261   5.816   4.435   4.053
 9772TIP3    H229262   5.801   4.286   4.031
 9773TIP3   OH229263   6.666   1.603   6.467
 9773TIP3    H129264   6.756   1.592   6.498
 9773TIP3    H229265   6.612   1.591   6.545
 9774TIP3   OH229266   2.508   2.427   2.603
 9774TIP3    H129267   2.455   2.348   2.614
 9774TIP3    H229268   2.588   2.410   2.654
 9775TIP3   OH229269   6.547   2.546   0.552
 9775TIP3    H129270   6.481   2.590   0.605
 9775TIP3    H229271   6.630   2.576   0.588
 9776TIP3   OH229272   3.660   6.361   3.641
 9776TIP3    H129273   3.606   6.380   3.717
 9776TIP3    H229274   3.600   6.364   3.567
 9777TIP3   OH229275   7.808   2.714   6.011
 9777TIP3    H129276   7.716   2.741   6.007
 9777TIP3    H229277   7.836   2.714   5.919
 9778TIP3   OH229278   3.383   3.293   0.613
 9778TIP3    H129279   3.346   3.374   0.648
 9778TIP3    H229280   3.384   3.232   0.687
 9779TIP3   OH229281   1.305   6.677   0.021
 9779TIP3    H129282   1.233   6.639  -0.029
 9779TIP3    H229283   1.285   6.654   0.112
 9780TIP3   OH229284   6.848   3.957   6.253
 9780TIP3    H129285   6.824   3.986   6.165
 9780TIP3    H229286   6.917   3.893   6.240
 9781TIP3   OH229287   3.856   3.974   5.855
 9781TIP3    H129288   3.864   4.045   5.919
 9781TIP3    H229289   3.943   3.966   5.816
 9782TIP3   OH229290   8.059   4.834   0.051
 9782TIP3    H129291   8.034   4.835  -0.042
 9782TIP3    H229292   8.041   4.923   0.081
 9783TIP3   OH229293   2.693   6.483   3.790
 9783TIP3    H129294   2.710   6.425   3.715
 9783TIP3    H229295   2.753   6.556   3.778
 9784TIP3   OH229296   3.568   0.555   2.161
 9784TIP3    H129297   3.596   0.531   2.073
 9784TIP3    H229298   3.532   0.474   2.197
 9785TIP3   OH229299   2.951   4.655   6.334
 9785TIP3    H129300   2.897   4.712   6.280
 9785TIP3    H229301   2.934   4.567   6.300
 9786TIP3   OH229302   0.030   7.403   4.075
 9786TIP3    H129303  -0.041   7.361   4.027
 9786TIP3    H229304   0.046   7.345   4.150
 9787TIP3   OH229305   5.735   0.032   4.853
 9787TIP3    H129306   5.640   0.016   4.849
 9787TIP3    H229307   5.753   0.046   4.946
 9788TIP3   OH229308   6.154   4.142   4.053
 9788TIP3    H129309   6.225   4.084   4.080
 9788TIP3    H229310   6.199   4.216   4.011
 9789TIP3   OH229311   6.352   4.930   3.997
 9789TIP3    H129312   6.324   4.927   3.906
 9789TIP3    H229313   6.270   4.926   4.047
 9790TIP3   OH229314   7.095   1.924   3.841
 9790TIP3    H129315   7.018   1.914   3.786
 9790TIP3    H229316   7.085   1.859   3.910
 9791TIP3   OH229317   0.914   4.800   0.151
 9791TIP3    H129318   0.829   4.799   0.195
 9791TIP3    H229319   0.960   4.876   0.189
 9792TIP3   OH229320   4.703   6.886   1.755
 9792TIP3    H129321   4.656   6.908   1.674
 9792TIP3    H229322   4.707   6.969   1.803
 9793TIP3   OH229323   0.295   3.401   0.343
 9793TIP3    H129324   0.349   3.392   0.264
 9793TIP3    H229325   0.292   3.313   0.379
 9794TIP3   OH229326   6.518   3.937   0.218
 9794TIP3    H129327   6.500   4.031   0.211
 9794TIP3    H229328   6.602   3.925   0.175
 9795TIP3   OH229329   5.264   0.361   2.892
 9795TIP3    H129330   5.271   0.412   2.973
 9795TIP3    H229331   5.220   0.420   2.831
 9796TIP3   OH229332   7.430   5.512   1.298
 9796TIP3    H129333   7.440   5.607   1.299
 9796TIP3    H229334   7.485   5.482   1.371
 9797TIP3   OH229335   6.819   6.139   4.875
 9797TIP3    H129336   6.906   6.110   4.849
 9797TIP3    H229337   6.760   6.092   4.817
 9798TIP3   OH229338   1.769   1.116   1.892
 9798TIP3    H129339   1.724   1.059   1.954
 9798TIP3    H229340   1.723   1.103   1.809
 9799TIP3   OH229341   4.035   0.228   2.197
 9799TIP3    H129342   4.102   0.188   2.252
 9799TIP3    H229343   3.962   0.244   2.258
 9800TIP3   OH229344   2.375   5.287   3.186
 9800TIP3    H129345   2.317   5.212   3.175
 9800TIP3    H229346   2.390   5.292   3.280
 9801TIP3   OH229347   5.631   2.751   3.688
 9801TIP3    H129348   5.563   2.716   3.745
 9801TIP3    H229349   5.676   2.816   3.741
 9802TIP3   OH229350   0.936   5.045   6.212
 9802TIP3    H129351   0.864   5.027   6.273
 9802TIP3    H229352   0.914   4.992   6.135
 9803TIP3   OH229353   2.215   3.359   1.236
 9803TIP3    H129354   2.308   3.336   1.244
 9803TIP3    H229355   2.214   3.431   1.173
 9804TIP3   OH229356   3.123   3.383   2.090
 9804TIP3    H129357   3.129   3.291   2.065
 9804TIP3    H229358   3.206   3.401   2.133
 9805TIP3   OH229359   5.938   3.296   4.401
 9805TIP3    H129360   5.849   3.311   4.432
 9805TIP3    H229361   5.929   3.285   4.307
 9806TIP3   OH229362   6.000   1.179   5.158
 9806TIP3    H129363   5.959   1.210   5.239
 9806TIP3    H229364   5.982   1.248   5.094
 9807TIP3   OH229365   5.112   4.716   4.926
 9807TIP3    H129366   5.018   4.732   4.937
 9807TIP3    H229367   5.154   4.775   4.989
 9808TIP3   OH229368   5.105   3.845   2.967
 9808TIP3    H129369   5.151   3.866   3.048
 9808TIP3    H229370   5.032   3.908   2.964
 9809TIP3   OH229371   6.538   2.024   6.604
 9809TIP3    H129372   6.609   2.082   6.631
 9809TIP3    H229373   6.476   2.081   6.558
 9810TIP3   OH229374   1.374   0.990   4.712
 9810TIP3    H129375   1.333   1.032   4.787
 9810TIP3    H229376   1.403   1.063   4.656
 9811TIP3   OH229377   0.264   0.696   0.465
 9811TIP3    H129378   0.211   0.691   0.545
 9811TIP3    H229379   0.340   0.748   0.489
 9812TIP3   OH229380   6.460   2.078   0.887
 9812TIP3    H129381   6.535   2.058   0.943
 9812TIP3    H229382   6.401   2.003   0.898
 9813TIP3   OH229383   1.914   3.081   6.791
 9813TIP3    H129384   1.977   3.118   6.730
 9813TIP3    H229385   1.830   3.084   6.745
 9814TIP3   OH229386   4.328   2.327   5.173
 9814TIP3    H129387   4.250   2.357   5.220
 9814TIP3    H229388   4.397   2.388   5.200
 9815TIP3   OH229389   4.431   5.792   5.571
 9815TIP3    H129390   4.389   5.795   5.486
 9815TIP3    H229391   4.438   5.883   5.599
 9816TIP3   OH229392   3.962   3.092   5.284
 9816TIP3    H129393   3.974   3.029   5.354
 9816TIP3    H229394   3.983   3.177   5.323
 9817TIP3   OH229395   5.168   7.143   4.935
 9817TIP3    H129396   5.082   7.155   4.976
 9817TIP3    H229397   5.165   7.199   4.857
 9818TIP3   OH229398   6.573   3.065   4.239
 9818TIP3    H129399   6.514   3.131   4.275
 9818TIP3    H229400   6.659   3.106   4.240
 9819TIP3   OH229401   0.656   5.567   2.780
 9819TIP3    H129402   0.604   5.494   2.746
 9819TIP3    H229403   0.690   5.609   2.701
 9820TIP3   OH229404   3.946   3.205   3.066
 9820TIP3    H129405   3.964   3.205   2.972
 9820TIP3    H229406   3.858   3.242   3.074
 9821TIP3   OH229407   1.269   5.762   3.894
 9821TIP3    H129408   1.204   5.827   3.869
 9821TIP3    H229409   1.350   5.812   3.903
 9822TIP3   OH229410   1.766   1.816   6.343
 9822TIP3    H129411   1.832   1.836   6.409
 9822TIP3    H229412   1.775   1.722   6.327
 9823TIP3   OH229413   5.219   2.147   0.479
 9823TIP3    H129414   5.169   2.127   0.400
 9823TIP3    H229415   5.308   2.117   0.460
 9824TIP3   OH229416   0.190   4.064   0.075
 9824TIP3    H129417   0.151   4.050   0.162
 9824TIP3    H229418   0.273   4.107   0.094
 9825TIP3   OH229419   1.349   1.046   4.081
 9825TIP3    H129420   1.404   1.074   4.009
 9825TIP3    H229421   1.372   0.953   4.094
 9826TIP3   OH229422   8.156   7.078   0.206
 9826TIP3    H129423   8.123   7.120   0.126
 9826TIP3    H229424   8.251   7.085   0.200
 9827TIP3   OH229425   3.685   4.239   5.370
 9827TIP3    H129426   3.591   4.223   5.377
 9827TIP3    H229427   3.723   4.186   5.439
 9828TIP3   OH229428   3.623   5.233   1.080
 9828TIP3    H129429   3.549   5.197   1.032
 9828TIP3    H229430   3.624   5.326   1.058
 9829TIP3   OH229431   2.797   0.104   1.712
 9829TIP3    H129432   2.735   0.167   1.675
 9829TIP3    H229433   2.773   0.020   1.671
 9830TIP3   OH229434   7.388   3.898   1.701
 9830TIP3    H129435   7.402   3.943   1.618
 9830TIP3    H229436   7.294   3.883   1.705
 9831TIP3   OH229437   4.932   5.240   1.150
 9831TIP3    H129438   4.926   5.325   1.106
 9831TIP3    H229439   4.987   5.188   1.092
 9832TIP3   OH229440   6.076   6.456   1.643
 9832TIP3    H129441   6.121   6.451   1.559
 9832TIP3    H229442   6.124   6.395   1.700
 9833TIP3   OH229443   0.515   7.013   0.465
 9833TIP3    H129444   0.584   6.958   0.502
 9833TIP3    H229445   0.544   7.103   0.482
 9834TIP3   OH229446   7.619   0.632   3.806
 9834TIP3    H129447   7.694   0.670   3.760
 9834TIP3    H229448   7.626   0.538   3.792
 9835TIP3   OH229449   4.360   1.254   1.691
 9835TIP3    H129450   4.311   1.298   1.621
 9835TIP3    H229451   4.442   1.228   1.650
 9836TIP3   OH229452   6.815   2.958   6.576
 9836TIP3    H129453   6.795   2.867   6.596
 9836TIP3    H229454   6.738   2.989   6.527
 9837TIP3   OH229455   2.263   7.587   5.574
 9837TIP3    H129456   2.311   7.507   5.595
 9837TIP3    H229457   2.330   7.650   5.548
 9838TIP3   OH229458   2.535   3.134   6.447
 9838TIP3    H129459   2.613   3.135   6.502
 9838TIP3    H229460   2.493   3.051   6.467
 9839TIP3   OH229461   7.732   6.075   0.838
 9839TIP3    H129462   7.755   5.982   0.844
 9839TIP3    H229463   7.727   6.104   0.930
 9840TIP3   OH229464   5.792   1.444   6.658
 9840TIP3    H129465   5.760   1.512   6.599
 9840TIP3    H229466   5.724   1.377   6.655
 9841TIP3   OH229467   1.610   4.275   0.995
 9841TIP3    H129468   1.691   4.282   0.945
 9841TIP3    H229469   1.619   4.194   1.045
 9842TIP3   OH229470   3.050   1.905   6.094
 9842TIP3    H129471   2.972   1.890   6.148
 9842TIP3    H229472   3.019   1.961   6.023
 9843TIP3   OH229473   0.247   6.205   1.390
 9843TIP3    H129474   0.227   6.280   1.447
 9843TIP3    H229475   0.298   6.243   1.318
 9844TIP3   OH229476   1.275   1.295   0.820
 9844TIP3    H129477   1.304   1.382   0.795
 9844TIP3    H229478   1.260   1.300   0.914
 9845TIP3   OH229479   5.024   6.903   6.061
 9845TIP3    H129480   5.118   6.904   6.044
 9845TIP3    H229481   5.001   6.995   6.073
 9846TIP3   OH229482   2.815   2.143   4.176
 9846TIP3    H129483   2.897   2.096   4.165
 9846TIP3    H229484   2.840   2.228   4.212
 9847TIP3   OH229485   3.708   2.524   4.221
 9847TIP3    H129486   3.784   2.517   4.162
 9847TIP3    H229487   3.731   2.597   4.280
 9848TIP3   OH229488   6.320   0.185   5.562
 9848TIP3    H129489   6.300   0.271   5.527
 9848TIP3    H229490   6.239   0.135   5.551
 9849TIP3   OH229491   5.422   6.226   5.155
 9849TIP3    H129492   5.411   6.312   5.116
 9849TIP3    H229493   5.465   6.174   5.086
 9850TIP3   OH229494   1.358   3.651   0.160
 9850TIP3    H129495   1.360   3.654   0.064
 9850TIP3    H229496   1.419   3.720   0.187
 9851TIP3   OH229497   5.971   3.866   5.456
 9851TIP3    H129498   5.888   3.824   5.431
 9851TIP3    H229499   6.036   3.797   5.448
 9852TIP3   OH229500   5.893   3.946   2.739
 9852TIP3    H129501   5.888   3.875   2.675
 9852TIP3    H229502   5.819   4.003   2.717
 9853TIP3   OH229503   3.382   2.861   1.169
 9853TIP3    H129504   3.400   2.875   1.076
 9853TIP3    H229505   3.467   2.838   1.206
 9854TIP3   OH229506   1.866   1.710   6.051
 9854TIP3    H129507   1.901   1.781   6.106
 9854TIP3    H229508   1.934   1.694   5.986
 9855TIP3   OH229509   5.419   2.996   3.912
 9855TIP3    H129510   5.505   2.992   3.871
 9855TIP3    H229511   5.431   2.955   3.997
 9856TIP3   OH229512   3.450   3.964   5.203
 9856TIP3    H129513   3.420   4.029   5.267
 9856TIP3    H229514   3.463   3.884   5.254
 9857TIP3   OH229515   8.306   4.973   5.657
 9857TIP3    H129516   8.252   5.041   5.697
 9857TIP3    H229517   8.247   4.898   5.648
 9858TIP3   OH229518   0.529   3.062   0.138
 9858TIP3    H129519   0.437   3.037   0.146
 9858TIP3    H229520   0.548   3.056   0.044
 9859TIP3   OH229521   1.806   5.172   1.546
 9859TIP3    H129522   1.876   5.109   1.527
 9859TIP3    H229523   1.823   5.245   1.486
 9860TIP3   OH229524   4.201   4.950   4.027
 9860TIP3    H129525   4.110   4.923   4.011
 9860TIP3    H229526   4.216   4.930   4.119
 9861TIP3   OH229527   4.032   5.670   1.029
 9861TIP3    H129528   4.089   5.719   1.087
 9861TIP3    H229529   3.946   5.673   1.071
 9862TIP3   OH229530   5.417   1.746   1.983
 9862TIP3    H129531   5.414   1.655   2.013
 9862TIP3    H229532   5.329   1.764   1.951
 9863TIP3   OH229533   1.674   3.243   2.398
 9863TIP3    H129534   1.770   3.252   2.400
 9863TIP3    H229535   1.647   3.293   2.321
 9864TIP3   OH229536   4.060   3.388   1.526
 9864TIP3    H129537   4.140   3.356   1.568
 9864TIP3    H229538   3.988   3.350   1.577
 9865TIP3   OH229539   2.295   6.530   6.019
 9865TIP3    H129540   2.260   6.533   6.108
 9865TIP3    H229541   2.307   6.437   6.001
 9866TIP3   OH229542   4.933   4.412   2.633
 9866TIP3    H129543   4.981   4.343   2.589
 9866TIP3    H229544   4.989   4.489   2.625
 9867TIP3   OH229545   4.340   3.480   2.054
 9867TIP3    H129546   4.414   3.444   2.102
 9867TIP3    H229547   4.287   3.523   2.122
 9868TIP3   OH229548   6.490   7.347   1.687
 9868TIP3    H129549   6.457   7.260   1.710
 9868TIP3    H229550   6.577   7.350   1.727
 9869TIP3   OH229551   0.660   2.028   2.727
 9869TIP3    H129552   0.598   2.101   2.720
 9869TIP3    H229553   0.633   1.967   2.658
 9870TIP3   OH229554   2.477   0.180   2.034
 9870TIP3    H129555   2.467   0.274   2.019
 9870TIP3    H229556   2.442   0.139   1.955
 9871TIP3   OH229557   3.215   1.663   5.304
 9871TIP3    H129558   3.132   1.620   5.281
 9871TIP3    H229559   3.272   1.647   5.229
 9872TIP3   OH229560   7.550   1.379   1.003
 9872TIP3    H129561   7.537   1.474   1.014
 9872TIP3    H229562   7.462   1.344   0.996
 9873TIP3   OH229563   3.525   0.019   3.043
 9873TIP3    H129564   3.539   0.102   2.996
 9873TIP3    H229565   3.453  -0.023   2.996
 9874TIP3   OH229566   2.748   1.780   1.182
 9874TIP3    H129567   2.672   1.730   1.154
 9874TIP3    H229568   2.814   1.715   1.203
 9875TIP3   OH229569   4.980   3.465   2.690
 9875TIP3    H129570   4.979   3.377   2.727
 9875TIP3    H229571   5.065   3.471   2.646
 9876TIP3   OH229572   2.573   4.737   1.091
 9876TIP3    H129573   2.483   4.731   1.121
 9876TIP3    H229574   2.577   4.818   1.039
 9877TIP3   OH229575   7.999   2.569   3.196
 9877TIP3    H129576   8.039   2.482   3.203
 9877TIP3    H229577   7.912   2.552   3.160
 9878TIP3   OH229578   0.605   4.214   6.356
 9878TIP3    H129579   0.676   4.276   6.341
 9878TIP3    H229580   0.585   4.179   6.270
 9879TIP3   OH229581   1.483   1.205   5.658
 9879TIP3    H129582   1.520   1.275   5.604
 9879TIP3    H229583   1.536   1.205   5.737
 9880TIP3   OH229584   2.944   2.902   4.338
 9880TIP3    H129585   2.998   2.881   4.261
 9880TIP3    H229586   2.970   2.991   4.361
 9881TIP3   OH229587   4.817   5.593   4.389
 9881TIP3    H129588   4.770   5.530   4.443
 9881TIP3    H229589   4.762   5.672   4.392
 9882TIP3   OH229590   7.422   4.588   4.478
 9882TIP3    H129591   7.492   4.536   4.438
 9882TIP3    H229592   7.342   4.538   4.459
 9883TIP3   OH229593   8.111   4.572   2.544
 9883TIP3    H129594   8.160   4.615   2.614
 9883TIP3    H229595   8.176   4.526   2.493
 9884TIP3   OH229596   8.154   1.932   1.860
 9884TIP3    H129597   8.153   1.989   1.784
 9884TIP3    H229598   8.184   1.847   1.826
 9885TIP3   OH229599   1.402   2.776   1.917
 9885TIP3    H129600   1.365   2.847   1.970
 9885TIP3    H229601   1.358   2.697   1.949
 9886TIP3   OH229602   3.455   4.124   3.907
 9886TIP3    H129603   3.540   4.083   3.926
 9886TIP3    H229604   3.471   4.218   3.913
 9887TIP3   OH229605   0.750   1.778   4.415
 9887TIP3    H129606   0.793   1.703   4.457
 9887TIP3    H229607   0.812   1.808   4.349
 9888TIP3   OH229608   1.824   1.729   5.758
 9888TIP3    H129609   1.729   1.739   5.757
 9888TIP3    H229610   1.840   1.645   5.714
 9889TIP3   OH229611   0.423   5.080   5.322
 9889TIP3    H129612   0.398   5.153   5.377
 9889TIP3    H229613   0.427   5.005   5.381
 9890TIP3   OH229614   2.775   6.424   1.682
 9890TIP3    H129615   2.836   6.381   1.623
 9890TIP3    H229616   2.796   6.390   1.769
 9891TIP3   OH229617   6.570   3.393   1.792
 9891TIP3    H129618   6.596   3.458   1.858
 9891TIP3    H229619   6.622   3.416   1.715
 9892TIP3   OH229620   6.300   2.888   2.821
 9892TIP3    H129621   6.369   2.947   2.851
 9892TIP3    H229622   6.324   2.802   2.857
 9893TIP3   OH229623   5.094   5.678   1.235
 9893TIP3    H129624   5.052   5.634   1.309
 9893TIP3    H229625   5.058   5.634   1.157
 9894TIP3   OH229626   4.186   6.758   0.014
 9894TIP3    H129627   4.187   6.853   0.027
 9894TIP3    H229628   4.275   6.730   0.036
 9895TIP3   OH229629   4.364   0.880   3.129
 9895TIP3    H129630   4.333   0.971   3.128
 9895TIP3    H229631   4.456   0.885   3.105
 9896TIP3   OH229632   5.997   1.462   2.877
 9896TIP3    H129633   6.007   1.487   2.785
 9896TIP3    H229634   5.918   1.509   2.905
 9897TIP3   OH229635   0.642   2.769   4.750
 9897TIP3    H129636   0.689   2.705   4.696
 9897TIP3    H229637   0.555   2.773   4.710
 9898TIP3   OH229638   8.064   3.220   5.899
 9898TIP3    H129639   8.040   3.237   5.990
 9898TIP3    H229640   8.011   3.144   5.874
 9899TIP3   OH229641   6.271   3.075   0.189
 9899TIP3    H129642   6.334   3.103   0.256
 9899TIP3    H229643   6.190   3.060   0.238
 9900TIP3   OH229644   1.861   3.941   6.176
 9900TIP3    H129645   1.766   3.926   6.181
 9900TIP3    H229646   1.899   3.871   6.228
 9901TIP3   OH229647   6.573   7.121   2.759
 9901TIP3    H129648   6.566   7.155   2.670
 9901TIP3    H229649   6.519   7.181   2.811
 9902TIP3   OH229650   6.640   7.347   4.204
 9902TIP3    H129651   6.603   7.270   4.162
 9902TIP3    H229652   6.611   7.342   4.295
 9903TIP3   OH229653   5.345   6.486   5.078
 9903TIP3    H129654   5.363   6.561   5.022
 9903TIP3    H229655   5.275   6.515   5.136
 9904TIP3   OH229656   0.043   2.649   3.266
 9904TIP3    H129657  -0.022   2.617   3.330
 9904TIP3    H229658   0.060   2.573   3.211
 9905TIP3   OH229659   7.240   6.672   5.053
 9905TIP3    H129660   7.266   6.764   5.043
 9905TIP3    H229661   7.169   6.660   4.991
 9906TIP3   OH229662   7.303   6.833   3.848
 9906TIP3    H129663   7.307   6.749   3.894
 9906TIP3    H229664   7.376   6.830   3.786
 9907TIP3   OH229665   0.438   6.844   3.191
 9907TIP3    H129666   0.443   6.850   3.096
 9907TIP3    H229667   0.458   6.753   3.211
 9908TIP3   OH229668   3.611   6.517   5.700
 9908TIP3    H129669   3.551   6.591   5.698
 9908TIP3    H229670   3.630   6.499   5.608
 9909TIP3   OH229671   1.708   1.090   1.634
 9909TIP3    H129672   1.798   1.106   1.605
 9909TIP3    H229673   1.660   1.074   1.553
 9910TIP3   OH229674   3.439   5.986   3.644
 9910TIP3    H129675   3.422   6.040   3.721
 9910TIP3    H229676   3.408   6.040   3.571
 9911TIP3   OH229677   1.344   1.945   5.404
 9911TIP3    H129678   1.414   1.990   5.357
 9911TIP3    H229679   1.275   2.010   5.413
 9912TIP3   OH229680   3.890   4.766   4.973
 9912TIP3    H129681   3.913   4.673   4.979
 9912TIP3    H229682   3.825   4.770   4.904
 9913TIP3   OH229683   0.862   2.215   1.741
 9913TIP3    H129684   0.872   2.309   1.752
 9913TIP3    H229685   0.794   2.206   1.674
 9914TIP3   OH229686   7.894   0.422   4.340
 9914TIP3    H129687   7.895   0.327   4.338
 9914TIP3    H229688   7.820   0.445   4.395
 9915TIP3   OH229689   4.452   1.390   1.304
 9915TIP3    H129690   4.516   1.325   1.275
 9915TIP3    H229691   4.428   1.437   1.225
 9916TIP3   OH229692   3.675   1.566   2.743
 9916TIP3    H129693   3.641   1.551   2.655
 9916TIP3    H229694   3.597   1.569   2.798
 9917TIP3   OH229695   4.726   2.004   1.633
 9917TIP3    H129696   4.671   1.966   1.565
 9917TIP3    H229697   4.813   1.966   1.617
 9918TIP3   OH229698   7.465   5.569   1.670
 9918TIP3    H129699   7.534   5.537   1.727
 9918TIP3    H229700   7.393   5.507   1.682
 9919TIP3   OH229701   2.187   2.353   6.290
 9919TIP3    H129702   2.175   2.365   6.384
 9919TIP3    H229703   2.107   2.309   6.261
 9920TIP3   OH229704   0.730   0.112   4.280
 9920TIP3    H129705   0.783   0.123   4.360
 9920TIP3    H229706   0.703   0.201   4.257
 9921TIP3   OH229707   2.235   2.849   6.076
 9921TIP3    H129708   2.233   2.777   6.139
 9921TIP3    H229709   2.157   2.901   6.095
 9922TIP3   OH229710   0.488   5.723   2.568
 9922TIP3    H129711   0.469   5.634   2.596
 9922TIP3    H229712   0.583   5.731   2.575
 9923TIP3   OH229713   6.966   6.637   5.042
 9923TIP3    H129714   6.995   6.613   5.130
 9923TIP3    H229715   6.923   6.558   5.009
 9924TIP3   OH229716   6.349   6.647   0.120
 9924TIP3    H129717   6.297   6.670   0.043
 9924TIP3    H229718   6.329   6.715   0.184
 9925TIP3   OH229719   0.967   2.323   5.356
 9925TIP3    H129720   1.043   2.379   5.341
 9925TIP3    H229721   0.953   2.278   5.273
 9926TIP3   OH229722   2.455   0.617   5.181
 9926TIP3    H129723   2.436   0.667   5.102
 9926TIP3    H229724   2.369   0.588   5.212
 9927TIP3   OH229725   5.607   7.463   1.786
 9927TIP3    H129726   5.655   7.516   1.850
 9927TIP3    H229727   5.618   7.510   1.703
 9928TIP3   OH229728   2.919   5.206   4.122
 9928TIP3    H129729   2.936   5.277   4.184
 9928TIP3    H229730   2.873   5.249   4.049
 9929TIP3   OH229731   5.558   2.682   2.865
 9929TIP3    H129732   5.582   2.590   2.860
 9929TIP3    H229733   5.510   2.690   2.948
 9930TIP3   OH229734   0.023   6.405   2.956
 9930TIP3    H129735   0.044   6.451   2.874
 9930TIP3    H229736   0.107   6.369   2.985
 9931TIP3   OH229737   7.426   5.912   5.161
 9931TIP3    H129738   7.364   5.927   5.090
 9931TIP3    H229739   7.470   5.830   5.138
 9932TIP3   OH229740   4.930   6.607   0.527
 9932TIP3    H129741   4.883   6.646   0.454
 9932TIP3    H229742   4.864   6.600   0.597
 9933TIP3   OH229743   6.415   2.387   1.010
 9933TIP3    H129744   6.394   2.307   0.963
 9933TIP3    H229745   6.506   2.376   1.038
 9934TIP3   OH229746   4.295   0.611   6.281
 9934TIP3    H129747   4.268   0.529   6.322
 9934TIP3    H229748   4.349   0.654   6.346
 9935TIP3   OH229749   6.245   2.497   6.359
 9935TIP3    H129750   6.265   2.428   6.296
 9935TIP3    H229751   6.172   2.545   6.320
 9936TIP3   OH229752   0.329   7.622   3.352
 9936TIP3    H129753   0.337   7.696   3.412
 9936TIP3    H229754   0.285   7.658   3.275
 9937TIP3   OH229755   4.159   0.310   3.771
 9937TIP3    H129756   4.201   0.391   3.744
 9937TIP3    H229757   4.071   0.336   3.798
 9938TIP3   OH229758   3.178   2.250   1.929
 9938TIP3    H129759   3.112   2.206   1.875
 9938TIP3    H229760   3.262   2.219   1.895
 9939TIP3   OH229761   0.355   6.455   2.445
 9939TIP3    H129762   0.326   6.490   2.530
 9939TIP3    H229763   0.371   6.533   2.392
 9940TIP3   OH229764   5.737   1.942   2.714
 9940TIP3    H129765   5.723   2.016   2.655
 9940TIP3    H229766   5.653   1.896   2.715
 9941TIP3   OH229767   7.480   6.111   1.268
 9941TIP3    H129768   7.535   6.152   1.201
 9941TIP3    H229769   7.407   6.073   1.220
 9942TIP3   OH229770   5.854   7.260   1.819
 9942TIP3    H129771   5.867   7.284   1.911
 9942TIP3    H229772   5.819   7.340   1.779
 9943TIP3   OH229773   8.106   7.153   1.302
 9943TIP3    H129774   8.051   7.229   1.287
 9943TIP3    H229775   8.074   7.116   1.385
 9944TIP3   OH229776   1.499   1.652   6.731
 9944TIP3    H129777   1.527   1.706   6.656
 9944TIP3    H229778   1.434   1.706   6.776
 9945TIP3   OH229779   1.992   0.164   4.457
 9945TIP3    H129780   2.033   0.090   4.502
 9945TIP3    H229781   1.945   0.211   4.526
 9946TIP3   OH229782   6.484   1.570   3.407
 9946TIP3    H129783   6.519   1.596   3.492
 9946TIP3    H229784   6.435   1.490   3.425
 9947TIP3   OH229785   6.576   1.593   0.524
 9947TIP3    H129786   6.651   1.645   0.552
 9947TIP3    H229787   6.510   1.605   0.592
 9948TIP3   OH229788   5.917   0.059   5.943
 9948TIP3    H129789   5.822   0.045   5.939
 9948TIP3    H229790   5.945   0.060   5.851
 9949TIP3   OH229791   0.898   6.059   3.854
 9949TIP3    H129792   0.868   6.101   3.773
 9949TIP3    H229793   0.820   6.058   3.910
 9950TIP3   OH229794   7.296   3.718   2.496
 9950TIP3    H129795   7.227   3.706   2.431
 9950TIP3    H229796   7.374   3.738   2.445
 9951TIP3   OH229797   0.582   2.653   6.546
 9951TIP3    H129798   0.596   2.561   6.568
 9951TIP3    H229799   0.496   2.673   6.584
 9952TIP3   OH229800   4.306   2.751   4.277
 9952TIP3    H129801   4.220   2.712   4.293
 9952TIP3    H229802   4.367   2.690   4.317
 9953TIP3   OH229803   1.409   4.620   0.926
 9953TIP3    H129804   1.420   4.697   0.871
 9953TIP3    H229805   1.432   4.546   0.869
 9954TIP3   OH229806   7.235   3.054   0.520
 9954TIP3    H129807   7.248   2.959   0.521
 9954TIP3    H229808   7.236   3.080   0.612
 9955TIP3   OH229809   4.402   1.737   6.508
 9955TIP3    H129810   4.392   1.646   6.479
 9955TIP3    H229811   4.419   1.786   6.428
 9956TIP3   OH229812   8.000   3.951   4.042
 9956TIP3    H129813   7.983   3.908   4.125
 9956TIP3    H229814   8.096   3.954   4.036
 9957TIP3   OH229815   8.258   7.173   6.325
 9957TIP3    H129816   8.177   7.148   6.280
 9957TIP3    H229817   8.234   7.247   6.380
 9958TIP3   OH229818   7.120   2.519   5.702
 9958TIP3    H129819   7.032   2.527   5.737
 9958TIP3    H229820   7.115   2.449   5.638
 9959TIP3   OH229821   0.604   1.690   4.140
 9959TIP3    H129822   0.591   1.598   4.116
 9959TIP3    H229823   0.699   1.701   4.139
 9960TIP3   OH229824   5.906   5.345   4.009
 9960TIP3    H129825   5.915   5.429   3.963
 9960TIP3    H229826   5.816   5.344   4.042
 9961TIP3   OH229827   7.729   1.097   5.955
 9961TIP3    H129828   7.788   1.022   5.965
 9961TIP3    H229829   7.641   1.060   5.967
 9962TIP3   OH229830   6.502   2.724   1.596
 9962TIP3    H129831   6.574   2.662   1.611
 9962TIP3    H229832   6.543   2.810   1.603
 9963TIP3   OH229833   3.242   2.732   5.831
 9963TIP3    H129834   3.246   2.649   5.878
 9963TIP3    H229835   3.293   2.716   5.751
 9964TIP3   OH229836   5.858   1.910   1.840
 9964TIP3    H129837   5.802   1.874   1.771
 9964TIP3    H229838   5.873   1.836   1.899
 9965TIP3   OH229839   5.155   1.262   4.901
 9965TIP3    H129840   5.226   1.230   4.846
 9965TIP3    H229841   5.100   1.186   4.916
 9966TIP3   OH229842   5.169   4.302   1.859
 9966TIP3    H129843   5.257   4.268   1.842
 9966TIP3    H229844   5.113   4.259   1.795
 9967TIP3   OH229845   7.143   3.283   5.104
 9967TIP3    H129846   7.094   3.304   5.025
 9967TIP3    H229847   7.234   3.274   5.074
 9968TIP3   OH229848   7.962   7.512   2.351
 9968TIP3    H129849   8.043   7.461   2.341
 9968TIP3    H229850   7.896   7.461   2.305
 9969TIP3   OH229851  -0.001   0.114   4.567
 9969TIP3    H129852   0.025   0.116   4.475
 9969TIP3    H229853   0.081   0.103   4.616
 9970TIP3   OH229854   2.390   0.481   3.424
 9970TIP3    H129855   2.465   0.439   3.465
 9970TIP3    H229856   2.365   0.421   3.353
 9971TIP3   OH229857   2.731   1.296   3.174
 9971TIP3    H129858   2.760   1.228   3.234
 9971TIP3    H229859   2.636   1.287   3.172
 9972TIP3   OH229860   7.695   3.930   2.102
 9972TIP3    H129861   7.712   3.963   2.190
 9972TIP3    H229862   7.637   3.995   2.062
 9973TIP3   OH229863   0.264   1.680   2.876
 9973TIP3    H129864   0.228   1.739   2.941
 9973TIP3    H229865   0.355   1.709   2.865
 9974TIP3   OH229866   0.496   0.869   4.819
 9974TIP3    H129867   0.449   0.891   4.739
 9974TIP3    H229868   0.506   0.953   4.865
 9975TIP3   OH229869   3.060   0.063   6.367
 9975TIP3    H129870   2.981   0.068   6.420
 9975TIP3    H229871   3.039   0.112   6.287
 9976TIP3   OH229872   0.198   5.613   2.883
 9976TIP3    H129873   0.120   5.663   2.862
 9976TIP3    H229874   0.165   5.532   2.921
 9977TIP3   OH229875   2.391   3.880   1.294
 9977TIP3    H129876   2.397   3.791   1.259
 9977TIP3    H229877   2.481   3.904   1.314
 9978TIP3   OH229878   7.934   4.065   0.604
 9978TIP3    H129879   7.955   3.976   0.630
 9978TIP3    H229880   7.839   4.071   0.616
 9979TIP3   OH229881   0.672   6.162   3.009
 9979TIP3    H129882   0.610   6.177   2.938
 9979TIP3    H229883   0.644   6.080   3.049
 9980TIP3   OH229884   0.831   6.095   4.762
 9980TIP3    H129885   0.758   6.116   4.821
 9980TIP3    H229886   0.866   6.181   4.737
 9981TIP3   OH229887   2.906   0.530   6.310
 9981TIP3    H129888   2.890   0.625   6.305
 9981TIP3    H229889   2.825   0.494   6.346
 9982TIP3   OH229890   4.234   2.279   2.465
 9982TIP3    H129891   4.246   2.369   2.435
 9982TIP3    H229892   4.239   2.227   2.384
 9983TIP3   OH229893   7.806   3.031   4.025
 9983TIP3    H129894   7.786   3.023   4.118
 9983TIP3    H229895   7.737   2.982   3.981
 9984TIP3   OH229896   2.170   7.657   4.218
 9984TIP3    H129897   2.250   7.703   4.243
 9984TIP3    H229898   2.112   7.667   4.294
 9985TIP3   OH229899   5.987   3.211   6.591
 9985TIP3    H129900   5.972   3.155   6.667
 9985TIP3    H229901   6.011   3.150   6.521
 9986TIP3   OH229902   4.619   3.993   6.317
 9986TIP3    H129903   4.694   3.967   6.370
 9986TIP3    H229904   4.556   3.923   6.328
 9987TIP3   OH229905   4.004   2.908   1.550
 9987TIP3    H129906   3.945   2.982   1.564
 9987TIP3    H229907   4.086   2.948   1.518
 9988TIP3   OH229908   2.695   4.133   0.079
 9988TIP3    H129909   2.643   4.214   0.075
 9988TIP3    H229910   2.779   4.161   0.115
 9989TIP3   OH229911   5.409   2.631   2.409
 9989TIP3    H129912   5.478   2.697   2.415
 9989TIP3    H229913   5.446   2.563   2.353
 9990TIP3   OH229914   2.505   7.329   4.230
 9990TIP3    H129915   2.581   7.381   4.205
 9990TIP3    H229916   2.434   7.362   4.174
 9991TIP3   OH229917   7.156   7.830   0.368
 9991TIP3    H129918   7.116   7.758   0.320
 9991TIP3    H229919   7.204   7.788   0.439
 9992TIP3   OH229920   5.181   7.439   6.147
 9992TIP3    H129921   5.148   7.356   6.180
 9992TIP3    H229922   5.179   7.429   6.051
 9993TIP3   OH229923   6.556   3.542   6.045
 9993TIP3    H129924   6.542   3.486   6.121
 9993TIP3    H229925   6.486   3.519   5.985
 9994TIP3   OH229926   4.798   3.284   2.472
 9994TIP3    H129927   4.766   3.195   2.461
 9994TIP3    H229928   4.887   3.274   2.506
 9995TIP3   OH229929   3.119   3.681   6.646
 9995TIP3    H129930   3.100   3.769   6.612
 9995TIP3    H229931   3.188   3.648   6.589
 9996TIP3   OH229932   1.837   2.730   4.790
 9996TIP3    H129933   1.906   2.737   4.724
 9996TIP3    H229934   1.866   2.789   4.860
 9997TIP3   OH229935   5.984   4.218   2.864
 9997TIP3    H129936   5.958   4.194   2.953
 9997TIP3    H229937   5.944   4.304   2.851
 9998TIP3   OH229938   7.480   0.519   2.685
 9998TIP3    H129939   7.504   0.436   2.727
 9998TIP3    H229940   7.552   0.535   2.623
 9999TIP3   OH229941   5.007   4.820   5.618
 9999TIP3    H129942   5.020   4.893   5.679
 9999TIP3    H229943   5.095   4.796   5.590
10000TIP3   OH229944   5.668   3.834   0.646
10000TIP3    H129945   5.591   3.780   0.626
10000TIP3    H229946   5.743   3.781   0.617
10001TIP3   OH229947   3.448   0.076   1.552
10001TIP3    H129948   3.434   0.001   1.609
10001TIP3    H229949   3.412   0.151   1.600
10002TIP3   OH229950   2.218   2.124   6.552
10002TIP3    H129951   2.307   2.143   6.520
10002TIP3    H229952   2.179   2.210   6.568
10003TIP3   OH229953   4.308   0.744   3.377
10003TIP3    H129954   4.361   0.799   3.435
10003TIP3    H229955   4.297   0.797   3.298
10004TIP3   OH229956   7.489   7.621   4.717
10004TIP3    H129957   7.487   7.549   4.780
10004TIP3    H229958   7.574   7.664   4.732
10005TIP3   OH229959   5.670   0.962   1.089
10005TIP3    H129960   5.648   0.993   1.177
10005TIP3    H229961   5.766   0.968   1.085
10006TIP3   OH229962   2.605   4.150   5.764
10006TIP3    H129963   2.571   4.088   5.700
10006TIP3    H229964   2.580   4.112   5.849
10007TIP3   OH229965   1.903   0.881   0.377
10007TIP3    H129966   1.910   0.843   0.289
10007TIP3    H229967   1.962   0.828   0.431
10008TIP3   OH229968   4.879   5.571   2.910
10008TIP3    H129969   4.869   5.476   2.908
10008TIP3    H229970   4.833   5.601   2.832
10009TIP3   OH229971   4.706   3.056   4.522
10009TIP3    H129972   4.741   3.139   4.489
10009TIP3    H229973   4.778   3.017   4.571
10010TIP3   OH229974   7.664   4.676   0.623
10010TIP3    H129975   7.713   4.601   0.588
10010TIP3    H229976   7.662   4.739   0.551
10011TIP3   OH229977   0.632   4.409   6.630
10011TIP3    H129978   0.565   4.430   6.564
10011TIP3    H229979   0.616   4.471   6.700
10012TIP3   OH229980   5.292   4.635   0.985
10012TIP3    H129981   5.370   4.656   0.933
10012TIP3    H229982   5.247   4.568   0.933
10013TIP3   OH229983   1.072   7.064   1.595
10013TIP3    H129984   1.011   7.037   1.664
10013TIP3    H229985   1.020   7.120   1.538
10014TIP3   OH229986   2.552   7.670   5.788
10014TIP3    H129987   2.490   7.647   5.857
10014TIP3    H229988   2.629   7.616   5.806
10015TIP3   OH229989   1.791   3.627   3.948
10015TIP3    H129990   1.844   3.575   4.009
10015TIP3    H229991   1.762   3.703   4.000
10016TIP3   OH229992   0.019   3.924   2.954
10016TIP3    H129993  -0.040   3.962   2.889
10016TIP3    H229994   0.099   3.904   2.907
10017TIP3   OH229995   7.503   5.143   2.711
10017TIP3    H129996   7.584   5.154   2.762
10017TIP3    H229997   7.449   5.084   2.764
10018TIP3   OH229998   6.770   4.709   5.726
10018TIP3    H129999   6.781   4.649   5.652
10018TIP3    H230000   6.849   4.762   5.726
10019TIP3   OH230001   0.579   6.376   4.357
10019TIP3    H130002   0.569   6.466   4.326
10019TIP3    H230003   0.508   6.364   4.420
10020TIP3   OH230004   8.093   3.213   3.362
10020TIP3    H130005   8.145   3.219   3.442
10020TIP3    H230006   8.157   3.208   3.292
10021TIP3   OH230007   6.252   6.751   1.429
10021TIP3    H130008   6.257   6.679   1.366
10021TIP3    H230009   6.214   6.824   1.380
10022TIP3   OH230010   4.163   4.843   0.370
10022TIP3    H130011   4.197   4.844   0.281
10022TIP3    H230012   4.069   4.854   0.360
10023TIP3   OH230013   0.364   5.682   4.754
10023TIP3    H130014   0.294   5.730   4.798
10023TIP3    H230015   0.334   5.673   4.664
10024TIP3   OH230016   0.433   1.865   5.056
10024TIP3    H130017   0.476   1.783   5.032
10024TIP3    H230018   0.343   1.840   5.077
10025TIP3   OH230019   4.278   1.483   2.943
10025TIP3    H130020   4.234   1.541   2.881
10025TIP3    H230021   4.266   1.395   2.906
10026TIP3   OH230022   1.620   4.433   2.594
10026TIP3    H130023   1.589   4.490   2.664
10026TIP3    H230024   1.706   4.404   2.623
10027TIP3   OH230025   7.700   3.298   2.551
10027TIP3    H130026   7.624   3.279   2.606
10027TIP3    H230027   7.662   3.321   2.466
10028TIP3   OH230028   1.220   0.853   6.300
10028TIP3    H130029   1.309   0.885   6.285
10028TIP3    H230030   1.212   0.851   6.395
10029TIP3   OH230031   4.369   0.500   6.701
10029TIP3    H130032   4.352   0.407   6.715
10029TIP3    H230033   4.445   0.519   6.756
10030TIP3   OH230034   7.871   6.447   2.391
10030TIP3    H130035   7.899   6.360   2.364
10030TIP3    H230036   7.912   6.506   2.328
10031TIP3   OH230037   2.262   6.985   6.752
10031TIP3    H130038   2.310   7.029   6.682
10031TIP3    H230039   2.197   7.049   6.780
10032TIP3   OH230040   3.403   6.999   5.302
10032TIP3    H130041   3.492   7.020   5.330
10032TIP3    H230042   3.356   7.083   5.304
10033TIP3   OH230043   0.579   7.404   4.134
10033TIP3    H130044   0.555   7.312   4.128
10033TIP3    H230045   0.495   7.451   4.125
10034TIP3   OH230046   2.987   5.645   0.827
10034TIP3    H130047   3.029   5.648   0.914
10034TIP3    H230048   3.053   5.604   0.771
10035TIP3   OH230049   1.881   7.235   5.697
10035TIP3    H130050   1.891   7.188   5.780
10035TIP3    H230051   1.925   7.180   5.633
10036TIP3   OH230052   4.155   4.462   1.071
10036TIP3    H130053   4.136   4.552   1.045
10036TIP3    H230054   4.094   4.444   1.141
10037TIP3   OH230055   1.163   2.215   0.952
10037TIP3    H130056   1.189   2.305   0.935
10037TIP3    H230057   1.240   2.175   0.992
10038TIP3   OH230058   8.018   6.350   3.892
10038TIP3    H130059   7.983   6.267   3.923
10038TIP3    H230060   8.112   6.334   3.884
10039TIP3   OH230061   0.257   6.757   4.257
10039TIP3    H130062   0.217   6.843   4.251
10039TIP3    H230063   0.183   6.696   4.257
10040TIP3   OH230064   0.310   5.335   0.286
10040TIP3    H130065   0.322   5.357   0.378
10040TIP3    H230066   0.249   5.401   0.253
10041TIP3   OH230067   2.578   5.494   0.360
10041TIP3    H130068   2.556   5.503   0.453
10041TIP3    H230069   2.656   5.438   0.359
10042TIP3   OH230070   4.629   1.188   3.924
10042TIP3    H130071   4.685   1.161   3.997
10042TIP3    H230072   4.634   1.283   3.923
10043TIP3   OH230073   7.910   4.703   5.431
10043TIP3    H130074   7.990   4.729   5.386
10043TIP3    H230075   7.896   4.773   5.495
10044TIP3   OH230076   5.803   7.504   2.238
10044TIP3    H130077   5.881   7.555   2.215
10044TIP3    H230078   5.745   7.567   2.281
10045TIP3   OH230079   7.369   6.899   2.932
10045TIP3    H130080   7.281   6.937   2.927
10045TIP3    H230081   7.376   6.866   3.021
10046TIP3   OH230082   3.120   5.171   6.088
10046TIP3    H130083   3.136   5.211   6.003
10046TIP3    H230084   3.031   5.136   6.083
10047TIP3   OH230085   3.190   0.807   2.852
10047TIP3    H130086   3.160   0.885   2.898
10047TIP3    H230087   3.159   0.819   2.763
10048TIP3   OH230088   2.800   7.254   3.481
10048TIP3    H130089   2.877   7.299   3.516
10048TIP3    H230090   2.834   7.173   3.443
10049TIP3   OH230091   3.826   2.643   0.402
10049TIP3    H130092   3.820   2.577   0.333
10049TIP3    H230093   3.920   2.661   0.410
10050TIP3   OH230094   0.545   0.650   6.034
10050TIP3    H130095   0.490   0.727   6.050
10050TIP3    H230096   0.610   0.680   5.971
10051TIP3   OH230097   5.875   1.118   4.682
10051TIP3    H130098   5.938   1.189   4.694
10051TIP3    H230099   5.878   1.101   4.588
10052TIP3   OH230100   3.975   1.931   1.584
10052TIP3    H130101   3.975   1.904   1.676
10052TIP3    H230102   4.043   1.878   1.543
10053TIP3   OH230103   6.535   6.852   4.674
10053TIP3    H130104   6.557   6.806   4.756
10053TIP3    H230105   6.571   6.940   4.685
10054TIP3   OH230106   5.424   6.864   1.994
10054TIP3    H130107   5.466   6.789   2.037
10054TIP3    H230108   5.450   6.856   1.902
10055TIP3   OH230109   0.502   0.404   2.811
10055TIP3    H130110   0.542   0.491   2.819
10055TIP3    H230111   0.415   0.421   2.774
10056TIP3   OH230112   2.891   0.362   3.655
10056TIP3    H130113   2.955   0.434   3.658
10056TIP3    H230114   2.925   0.298   3.718
10057TIP3   OH230115   2.777   6.145   5.830
10057TIP3    H130116   2.854   6.129   5.775
10057TIP3    H230117   2.712   6.081   5.800
10058TIP3   OH230118   5.579   5.295   2.683
10058TIP3    H130119   5.640   5.273   2.754
10058TIP3    H230120   5.609   5.242   2.609
10059TIP3   OH230121   0.346   0.408   2.342
10059TIP3    H130122   0.352   0.465   2.266
10059TIP3    H230123   0.372   0.322   2.310
10060TIP3   OH230124   8.101   4.026   0.925
10060TIP3    H130125   8.173   4.025   0.862
10060TIP3    H230126   8.063   3.938   0.921
10061TIP3   OH230127   8.035   2.607   4.209
10061TIP3    H130128   7.958   2.555   4.229
10061TIP3    H230129   8.108   2.546   4.214
10062TIP3   OH230130   7.221   4.614   0.810
10062TIP3    H130131   7.252   4.556   0.880
10062TIP3    H230132   7.210   4.699   0.852
10063TIP3   OH230133   7.927   5.390   4.385
10063TIP3    H130134   8.003   5.365   4.438
10063TIP3    H230135   7.851   5.361   4.436
10064TIP3   OH230136   5.756   5.656   1.171
10064TIP3    H130137   5.772   5.626   1.260
10064TIP3    H230138   5.678   5.608   1.143
10065TIP3   OH230139   3.257   5.701   3.017
10065TIP3    H130140   3.264   5.754   3.096
10065TIP3    H230141   3.318   5.741   2.955
10066TIP3   OH230142   2.665   2.022   2.978
10066TIP3    H130143   2.751   2.065   2.988
10066TIP3    H230144   2.664   1.954   3.046
10067TIP3   OH230145   0.181   2.906   5.512
10067TIP3    H130146   0.258   2.859   5.545
10067TIP3    H230147   0.200   2.921   5.420
10068TIP3   OH230148   8.016   4.464   4.202
10068TIP3    H130149   8.110   4.444   4.206
10068TIP3    H230150   7.997   4.507   4.285
10069TIP3   OH230151   6.142   7.300   4.363
10069TIP3    H130152   6.088   7.236   4.409
10069TIP3    H230153   6.221   7.251   4.339
10070TIP3   OH230154   1.107   1.062   4.540
10070TIP3    H130155   1.158   1.021   4.610
10070TIP3    H230156   1.166   1.061   4.464
10071TIP3   OH230157   0.298   3.115   3.823
10071TIP3    H130158   0.306   3.075   3.909
10071TIP3    H230159   0.384   3.105   3.783
10072TIP3   OH230160   5.586   5.116   5.449
10072TIP3    H130161   5.512   5.144   5.395
10072TIP3    H230162   5.588   5.179   5.521
10073TIP3   OH230163   1.782   2.235   0.831
10073TIP3    H130164   1.729   2.229   0.752
10073TIP3    H230165   1.866   2.196   0.807
10074TIP3   OH230166   2.198   3.781   5.270
10074TIP3    H130167   2.184   3.687   5.261
10074TIP3    H230168   2.292   3.793   5.256
10075TIP3   OH230169   6.942   5.420   3.221
10075TIP3    H130170   7.035   5.441   3.226
10075TIP3    H230171   6.900   5.485   3.278
10076TIP3   OH230172   1.009   0.825   1.296
10076TIP3    H130173   0.969   0.892   1.352
10076TIP3    H230174   1.050   0.875   1.225
10077TIP3   OH230175   0.470   3.078   2.413
10077TIP3    H130176   0.496   3.090   2.504
10077TIP3    H230177   0.444   3.165   2.384
10078TIP3   OH230178   1.495   6.849   0.869
10078TIP3    H130179   1.547   6.910   0.922
10078TIP3    H230180   1.546   6.839   0.789
10079TIP3   OH230181   6.220   1.558   4.900
10079TIP3    H130182   6.131   1.560   4.864
10079TIP3    H230183   6.273   1.604   4.836
10080TIP3   OH230184   1.739   7.611   5.196
10080TIP3    H130185   1.767   7.617   5.105
10080TIP3    H230186   1.670   7.544   5.196
10081TIP3   OH230187   4.508   4.119   3.252
10081TIP3    H130188   4.544   4.090   3.336
10081TIP3    H230189   4.502   4.039   3.200
10082TIP3   OH230190   7.048   0.669   1.577
10082TIP3    H130191   7.141   0.667   1.598
10082TIP3    H230192   7.012   0.737   1.635
10083TIP3   OH230193   7.195   7.736   6.208
10083TIP3    H130194   7.101   7.752   6.203
10083TIP3    H230195   7.230   7.773   6.127
10084TIP3   OH230196   4.359   5.351   1.681
10084TIP3    H130197   4.389   5.323   1.767
10084TIP3    H230198   4.440   5.372   1.633
10085TIP3   OH230199   3.662   0.815   5.877
10085TIP3    H130200   3.757   0.812   5.888
10085TIP3    H230201   3.643   0.747   5.813
10086TIP3   OH230202   3.801   1.273   5.027
10086TIP3    H130203   3.822   1.190   4.985
10086TIP3    H230204   3.716   1.259   5.069
10087TIP3   OH230205   3.768   2.738   3.808
10087TIP3    H130206   3.788   2.830   3.825
10087TIP3    H230207   3.825   2.713   3.735
10088TIP3   OH230208   8.092   1.401   6.541
10088TIP3    H130209   8.025   1.391   6.472
10088TIP3    H230210   8.101   1.496   6.551
10089TIP3   OH230211   5.787   6.685   4.402
10089TIP3    H130212   5.820   6.665   4.314
10089TIP3    H230213   5.792   6.780   4.409
10090TIP3   OH230214   1.744   0.551   3.727
10090TIP3    H130215   1.785   0.472   3.764
10090TIP3    H230216   1.653   0.525   3.711
10091TIP3   OH230217   0.681   0.371   2.291
10091TIP3    H130218   0.723   0.361   2.205
10091TIP3    H230219   0.596   0.330   2.280
10092TIP3   OH230220   3.596   3.266   2.797
10092TIP3    H130221   3.654   3.225   2.733
10092TIP3    H230222   3.650   3.334   2.838
10093TIP3   OH230223   2.798   2.558   5.145
10093TIP3    H130224   2.875   2.563   5.201
10093TIP3    H230225   2.815   2.484   5.087
10094TIP3   OH230226   6.967   6.121   2.815
10094TIP3    H130227   6.889   6.161   2.855
10094TIP3    H230228   6.946   6.115   2.722
10095TIP3   OH230229   1.832   4.192   1.623
10095TIP3    H130230   1.895   4.121   1.627
10095TIP3    H230231   1.863   4.255   1.689
10096TIP3   OH230232   0.117   5.655   6.357
10096TIP3    H130233   0.157   5.673   6.442
10096TIP3    H230234   0.026   5.633   6.378
10097TIP3   OH230235   0.278   0.374   3.214
10097TIP3    H130236   0.228   0.414   3.286
10097TIP3    H230237   0.212   0.353   3.148
10098TIP3   OH230238   1.102   0.828   5.691
10098TIP3    H130239   1.114   0.749   5.744
10098TIP3    H230240   1.169   0.889   5.722
10099TIP3   OH230241   0.149   0.299   1.471
10099TIP3    H130242   0.096   0.340   1.539
10099TIP3    H230243   0.095   0.226   1.440
10100TIP3   OH230244   0.643   5.037   6.199
10100TIP3    H130245   0.688   5.121   6.203
10100TIP3    H230246   0.560   5.051   6.245
10101TIP3   OH230247   5.238   5.402   1.753
10101TIP3    H130248   5.216   5.471   1.690
10101TIP3    H230249   5.333   5.407   1.762
10102TIP3   OH230250   2.710   7.788   3.728
10102TIP3    H130251   2.697   7.873   3.770
10102TIP3    H230252   2.624   7.765   3.694
10103TIP3   OH230253   7.923   4.590   3.980
10103TIP3    H130254   7.937   4.527   4.050
10103TIP3    H230255   7.853   4.646   4.011
10104TIP3   OH230256   4.460   5.440   3.676
10104TIP3    H130257   4.531   5.378   3.660
10104TIP3    H230258   4.453   5.444   3.772
10105TIP3   OH230259   4.264   7.794   1.749
10105TIP3    H130260   4.187   7.831   1.792
10105TIP3    H230261   4.237   7.707   1.720
10106TIP3   OH230262   0.822   6.008   0.093
10106TIP3    H130263   0.850   6.065   0.022
10106TIP3    H230264   0.816   5.921   0.053
10107TIP3   OH230265   2.287   6.471   0.527
10107TIP3    H130266   2.224   6.532   0.490
10107TIP3    H230267   2.371   6.516   0.521
10108TIP3   OH230268   6.025   5.870   3.899
10108TIP3    H130269   6.077   5.849   3.976
10108TIP3    H230270   5.967   5.941   3.928
10109TIP3   OH230271   2.268   4.502   5.773
10109TIP3    H130272   2.187   4.533   5.813
10109TIP3    H230273   2.240   4.446   5.701
10110TIP3   OH230274   2.124   6.911   1.073
10110TIP3    H130275   2.143   6.818   1.057
10110TIP3    H230276   2.036   6.911   1.111
10111TIP3   OH230277   4.829   7.601   2.314
10111TIP3    H130278   4.874   7.609   2.398
10111TIP3    H230279   4.857   7.677   2.264
10112TIP3   OH230280   7.622   4.838   5.507
10112TIP3    H130281   7.616   4.749   5.542
10112TIP3    H230282   7.541   4.880   5.536
10113TIP3   OH230283   0.842   1.164   5.993
10113TIP3    H130284   0.751   1.139   6.011
10113TIP3    H230285   0.860   1.128   5.906
10114TIP3   OH230286   0.492   5.411   6.321
10114TIP3    H130287   0.480   5.456   6.405
10114TIP3    H230288   0.439   5.332   6.328
10115TIP3   OH230289   6.080   4.741   5.491
10115TIP3    H130290   6.160   4.709   5.449
10115TIP3    H230291   6.087   4.836   5.487
10116TIP3   OH230292   3.428   5.769   2.807
10116TIP3    H130293   3.502   5.715   2.778
10116TIP3    H230294   3.351   5.729   2.767
10117TIP3   OH230295   1.115   0.850   2.437
10117TIP3    H130296   1.132   0.829   2.345
10117TIP3    H230297   1.019   0.855   2.443
10118TIP3   OH230298   2.661   6.562   3.432
10118TIP3    H130299   2.732   6.522   3.483
10118TIP3    H230300   2.588   6.500   3.441
10119TIP3   OH230301   5.860   3.389   0.227
10119TIP3    H130302   5.785   3.440   0.257
10119TIP3    H230303   5.831   3.298   0.232
10120TIP3   OH230304   0.402   7.534   5.900
10120TIP3    H130305   0.355   7.602   5.850
10120TIP3    H230306   0.478   7.580   5.936
10121TIP3   OH230307   5.298   5.666   1.940
10121TIP3    H130308   5.372   5.681   2.000
10121TIP3    H230309   5.339   5.659   1.853
10122TIP3   OH230310   3.894   3.369   6.605
10122TIP3    H130311   3.826   3.421   6.647
10122TIP3    H230312   3.904   3.409   6.518
10123TIP3   OH230313   0.956   0.674   6.580
10123TIP3    H130314   0.988   0.613   6.646
10123TIP3    H230315   0.950   0.621   6.500
10124TIP3   OH230316   4.138   0.075   1.077
10124TIP3    H130317   4.143   0.144   1.010
10124TIP3    H230318   4.054   0.033   1.061
10125TIP3   OH230319   0.276   3.936   1.913
10125TIP3    H130320   0.334   3.878   1.865
10125TIP3    H230321   0.326   4.017   1.924
10126TIP3   OH230322   2.243   7.188   2.015
10126TIP3    H130323   2.221   7.095   2.020
10126TIP3    H230324   2.326   7.196   2.062
10127TIP3   OH230325   4.240   7.102   4.826
10127TIP3    H130326   4.205   7.017   4.799
10127TIP3    H230327   4.318   7.080   4.877
10128TIP3   OH230328   5.880   0.203   3.358
10128TIP3    H130329   5.793   0.236   3.334
10128TIP3    H230330   5.889   0.121   3.309
10129TIP3   OH230331   6.169   5.851   2.038
10129TIP3    H130332   6.213   5.784   2.090
10129TIP3    H230333   6.235   5.879   1.974
10130TIP3   OH230334   2.952   4.076   5.094
10130TIP3    H130335   3.033   4.127   5.097
10130TIP3    H230336   2.899   4.110   5.166
10131TIP3   OH230337   6.257   7.470   3.740
10131TIP3    H130338   6.263   7.564   3.755
10131TIP3    H230339   6.346   7.445   3.714
10132TIP3   OH230340   4.236   2.993   1.453
10132TIP3    H130341   4.283   3.077   1.455
10132TIP3    H230342   4.258   2.956   1.368
10133TIP3   OH230343   1.112   4.601   4.773
10133TIP3    H130344   1.030   4.556   4.753
10133TIP3    H230345   1.178   4.552   4.723
10134TIP3   OH230346   2.755   1.305   1.742
10134TIP3    H130347   2.692   1.293   1.813
10134TIP3    H230348   2.835   1.335   1.786
10135TIP3   OH230349   3.971   1.366   0.906
10135TIP3    H130350   4.051   1.383   0.856
10135TIP3    H230351   3.922   1.304   0.852
10136TIP3   OH230352   5.034   7.382   0.171
10136TIP3    H130353   5.046   7.416   0.082
10136TIP3    H230354   5.040   7.459   0.227
10137TIP3   OH230355   0.903   0.642   0.700
10137TIP3    H130356   0.938   0.630   0.612
10137TIP3    H230357   0.976   0.678   0.751
10138TIP3   OH230358   3.332   1.939   2.306
10138TIP3    H130359   3.378   2.020   2.326
10138TIP3    H230360   3.258   1.937   2.367
10139TIP3   OH230361   2.967   1.251   5.045
10139TIP3    H130362   2.893   1.254   5.106
10139TIP3    H230363   2.981   1.342   5.020
10140TIP3   OH230364   4.680   2.829   0.044
10140TIP3    H130365   4.769   2.823   0.011
10140TIP3    H230366   4.672   2.919   0.075
10141TIP3   OH230367   2.245   7.148   1.498
10141TIP3    H130368   2.283   7.200   1.427
10141TIP3    H230369   2.153   7.137   1.473
10142TIP3   OH230370   3.854   7.543   1.092
10142TIP3    H130371   3.784   7.549   1.157
10142TIP3    H230372   3.827   7.602   1.022
10143TIP3   OH230373   2.072   6.257   6.258
10143TIP3    H130374   1.976   6.259   6.260
10143TIP3    H230375   2.094   6.192   6.191
10144TIP3   OH230376   3.660   5.848   0.324
10144TIP3    H130377   3.594   5.894   0.272
10144TIP3    H230378   3.631   5.860   0.415
10145TIP3   OH230379   4.236   0.680   4.728
10145TIP3    H130380   4.142   0.695   4.732
10145TIP3    H230381   4.261   0.703   4.639
10146TIP3   OH230382   5.817   6.086   4.481
10146TIP3    H130383   5.757   6.011   4.471
10146TIP3    H230384   5.880   6.057   4.547
10147TIP3   OH230385   0.996   2.573   5.854
10147TIP3    H130386   1.049   2.556   5.776
10147TIP3    H230387   0.913   2.530   5.837
10148TIP3   OH230388   2.683   5.039   1.021
10148TIP3    H130389   2.710   5.103   1.087
10148TIP3    H230390   2.759   5.031   0.963
10149TIP3   OH230391   1.038   5.011   1.802
10149TIP3    H130392   0.959   5.010   1.747
10149TIP3    H230393   1.052   5.104   1.822
10150TIP3   OH230394   0.537   4.206   1.819
10150TIP3    H130395   0.566   4.213   1.728
10150TIP3    H230396   0.618   4.191   1.868
10151TIP3   OH230397   1.178   3.848   4.082
10151TIP3    H130398   1.152   3.902   4.157
10151TIP3    H230399   1.107   3.785   4.071
10152TIP3   OH230400   7.142   5.014   3.529
10152TIP3    H130401   7.105   4.928   3.512
10152TIP3    H230402   7.211   4.998   3.593
10153TIP3   OH230403   0.600   3.958   6.207
10153TIP3    H130404   0.552   3.894   6.154
10153TIP3    H230405   0.692   3.940   6.188
10154TIP3   OH230406   4.307   1.169   6.753
10154TIP3    H130407   4.256   1.215   6.820
10154TIP3    H230408   4.301   1.225   6.676
10155TIP3   OH230409   5.397   2.206   6.438
10155TIP3    H130410   5.472   2.212   6.497
10155TIP3    H230411   5.418   2.133   6.379
10156TIP3   OH230412   3.756   5.410   2.488
10156TIP3    H130413   3.664   5.389   2.474
10156TIP3    H230414   3.779   5.367   2.570
10157TIP3   OH230415   5.188   0.893   1.378
10157TIP3    H130416   5.212   0.809   1.338
10157TIP3    H230417   5.124   0.931   1.318
10158TIP3   OH230418   2.321   6.853   0.046
10158TIP3    H130419   2.236   6.857   0.004
10158TIP3    H230420   2.318   6.922   0.113
10159TIP3   OH230421   7.830   1.613   1.301
10159TIP3    H130422   7.797   1.524   1.300
10159TIP3    H230423   7.827   1.641   1.209
10160TIP3   OH230424   4.732   1.079   6.251
10160TIP3    H130425   4.756   1.044   6.336
10160TIP3    H230426   4.636   1.089   6.255
10161TIP3   OH230427   1.461   3.000   6.497
10161TIP3    H130428   1.402   2.977   6.426
10161TIP3    H230429   1.455   2.927   6.558
10162TIP3   OH230430   4.043   7.110   1.507
10162TIP3    H130431   4.045   7.096   1.602
10162TIP3    H230432   4.092   7.191   1.494
10163TIP3   OH230433   6.855   0.115   3.351
10163TIP3    H130434   6.789   0.077   3.293
10163TIP3    H230435   6.819   0.105   3.439
10164TIP3   OH230436   7.942   4.596   2.086
10164TIP3    H130437   7.927   4.625   1.996
10164TIP3    H230438   8.003   4.660   2.122
10165TIP3   OH230439   8.284   4.434   3.975
10165TIP3    H130440   8.362   4.423   3.920
10165TIP3    H230441   8.219   4.375   3.937
10166TIP3   OH230442   7.943   6.680   5.119
10166TIP3    H130443   7.983   6.641   5.041
10166TIP3    H230444   7.854   6.644   5.121
10167TIP3   OH230445   2.904   3.156   0.928
10167TIP3    H130446   2.887   3.178   1.019
10167TIP3    H230447   2.939   3.238   0.890
10168TIP3   OH230448   2.331   0.884   1.693
10168TIP3    H130449   2.306   0.974   1.716
10168TIP3    H230450   2.308   0.877   1.600
10169TIP3   OH230451   4.408   5.774   0.653
10169TIP3    H130452   4.366   5.821   0.581
10169TIP3    H230453   4.340   5.714   0.685
10170TIP3   OH230454   5.276   4.206   1.090
10170TIP3    H130455   5.209   4.221   1.023
10170TIP3    H230456   5.233   4.226   1.172
10171TIP3   OH230457   1.107   3.707   0.393
10171TIP3    H130458   1.102   3.631   0.451
10171TIP3    H230459   1.038   3.766   0.424
10172TIP3   OH230460   4.620   6.638   3.849
10172TIP3    H130461   4.616   6.559   3.796
10172TIP3    H230462   4.652   6.706   3.789
10173TIP3   OH230463   7.357   2.583   1.541
10173TIP3    H130464   7.310   2.569   1.459
10173TIP3    H230465   7.419   2.510   1.546
10174TIP3   OH230466   1.406   5.814   5.273
10174TIP3    H130467   1.327   5.862   5.249
10174TIP3    H230468   1.397   5.797   5.367
10175TIP3   OH230469   4.920   6.630   2.248
10175TIP3    H130470   4.956   6.555   2.201
10175TIP3    H230471   4.921   6.604   2.340
10176TIP3   OH230472   0.321   2.687   0.936
10176TIP3    H130473   0.355   2.653   0.853
10176TIP3    H230474   0.285   2.773   0.914
10177TIP3   OH230475   8.015   1.406   3.084
10177TIP3    H130476   7.972   1.476   3.036
10177TIP3    H230477   7.969   1.402   3.168
10178TIP3   OH230478   5.928   2.829   6.008
10178TIP3    H130479   5.952   2.739   5.988
10178TIP3    H230480   5.836   2.824   6.036
10179TIP3   OH230481   5.626   4.756   5.609
10179TIP3    H130482   5.700   4.766   5.549
10179TIP3    H230483   5.631   4.834   5.665
10180TIP3   OH230484   3.545   4.623   4.286
10180TIP3    H130485   3.494   4.701   4.265
10180TIP3    H230486   3.496   4.581   4.357
10181TIP3   OH230487   4.290   1.161   2.361
10181TIP3    H130488   4.218   1.169   2.424
10181TIP3    H230489   4.288   1.070   2.332
10182TIP3   OH230490   7.696   0.004   2.145
10182TIP3    H130491   7.790   0.008   2.158
10182TIP3    H230492   7.685  -0.037   2.059
10183TIP3   OH230493   2.257   4.551   0.880
10183TIP3    H130494   2.264   4.455   0.879
10183TIP3    H230495   2.169   4.569   0.914
10184TIP3   OH230496   5.795   0.332   1.991
10184TIP3    H130497   5.843   0.389   2.051
10184TIP3    H230498   5.711   0.317   2.033
10185TIP3   OH230499   7.724   1.556   2.700
10185TIP3    H130500   7.781   1.630   2.678
10185TIP3    H230501   7.636   1.588   2.681
10186TIP3   OH230502   6.555   3.140   0.597
10186TIP3    H130503   6.579   3.105   0.683
10186TIP3    H230504   6.629   3.196   0.573
10187TIP3   OH230505   0.216   0.479   3.986
10187TIP3    H130506   0.199   0.408   3.924
10187TIP3    H230507   0.129   0.502   4.020
10188TIP3   OH230508   5.690   4.925   2.568
10188TIP3    H130509   5.610   4.879   2.593
10188TIP3    H230510   5.663   4.986   2.500
10189TIP3   OH230511   5.040   1.639   1.370
10189TIP3    H130512   4.987   1.697   1.316
10189TIP3    H230513   5.111   1.695   1.403
10190TIP3   OH230514   2.492   2.175   6.512
10190TIP3    H130515   2.559   2.243   6.518
10190TIP3    H230516   2.491   2.135   6.599
10191TIP3   OH230517   3.111   2.351   4.191
10191TIP3    H130518   3.179   2.397   4.239
10191TIP3    H230519   3.144   2.345   4.101
10192TIP3   OH230520   4.165   0.126   5.282
10192TIP3    H130521   4.168   0.068   5.358
10192TIP3    H230522   4.251   0.167   5.280
10193TIP3   OH230523   5.116   4.670   6.730
10193TIP3    H130524   5.071   4.649   6.812
10193TIP3    H230525   5.182   4.601   6.722
10194TIP3   OH230526   3.969   6.091   2.059
10194TIP3    H130527   3.939   6.162   2.116
10194TIP3    H230528   3.926   6.109   1.975
10195TIP3   OH230529   3.622   7.742   3.372
10195TIP3    H130530   3.682   7.741   3.447
10195TIP3    H230531   3.609   7.650   3.351
10196TIP3   OH230532   0.792   7.059   2.590
10196TIP3    H130533   0.757   7.141   2.627
10196TIP3    H230534   0.870   7.041   2.643
10197TIP3   OH230535   6.234   2.785   6.643
10197TIP3    H130536   6.315   2.763   6.598
10197TIP3    H230537   6.244   2.877   6.668
10198TIP3   OH230538   2.747   4.645   6.120
10198TIP3    H130539   2.780   4.608   6.039
10198TIP3    H230540   2.672   4.698   6.094
10199TIP3   OH230541   8.034   4.345   0.681
10199TIP3    H130542   7.986   4.265   0.659
10199TIP3    H230543   8.079   4.369   0.599
10200TIP3   OH230544   0.596   2.742   6.256
10200TIP3    H130545   0.610   2.679   6.186
10200TIP3    H230546   0.644   2.707   6.331
10201TIP3   OH230547   7.432   0.759   4.724
10201TIP3    H130548   7.343   0.743   4.755
10201TIP3    H230549   7.422   0.774   4.630
10202TIP3   OH230550   4.025   5.362   1.888
10202TIP3    H130551   4.045   5.273   1.859
10202TIP3    H230552   4.100   5.388   1.940
10203TIP3   OH230553   6.772   1.545   6.083
10203TIP3    H130554   6.816   1.622   6.119
10203TIP3    H230555   6.836   1.507   6.022
10204TIP3   OH230556   3.623   0.252   5.247
10204TIP3    H130557   3.672   0.198   5.185
10204TIP3    H230558   3.686   0.274   5.316
10205TIP3   OH230559   1.019   6.870   0.176
10205TIP3    H130560   1.047   6.779   0.171
10205TIP3    H230561   1.096   6.917   0.209
10206TIP3   OH230562   5.987   4.841   3.920
10206TIP3    H130563   5.995   4.913   3.984
10206TIP3    H230564   5.893   4.821   3.919
10207TIP3   OH230565   1.636   1.937   4.885
10207TIP3    H130566   1.702   1.970   4.824
10207TIP3    H230567   1.556   1.983   4.862
10208TIP3   OH230568   1.863   6.472   0.971
10208TIP3    H130569   1.837   6.475   1.063
10208TIP3    H230570   1.863   6.564   0.943
10209TIP3   OH230571   6.171   0.352   0.100
10209TIP3    H130572   6.250   0.305   0.127
10209TIP3    H230573   6.195   0.392   0.017
10210TIP3   OH230574   5.752   2.092   1.015
10210TIP3    H130575   5.782   2.172   1.059
10210TIP3    H230576   5.811   2.081   0.941
10211TIP3   OH230577   3.811   1.898   3.020
10211TIP3    H130578   3.845   1.857   2.941
10211TIP3    H230579   3.828   1.991   3.009
10212TIP3   OH230580   1.502   6.656   4.810
10212TIP3    H130581   1.506   6.750   4.795
10212TIP3    H230582   1.414   6.640   4.844
10213TIP3   OH230583   2.472   2.816   4.675
10213TIP3    H130584   2.378   2.821   4.659
10213TIP3    H230585   2.479   2.789   4.767
10214TIP3   OH230586   1.129   7.621   4.084
10214TIP3    H130587   1.098   7.712   4.078
10214TIP3    H230588   1.055   7.573   4.121
10215TIP3   OH230589   2.605   6.319   6.131
10215TIP3    H130590   2.638   6.293   6.217
10215TIP3    H230591   2.600   6.237   6.082
10216TIP3   OH230592   0.714   0.942   4.492
10216TIP3    H130593   0.807   0.954   4.471
10216TIP3    H230594   0.667   0.971   4.414
10217TIP3   OH230595   7.833   2.540   6.663
10217TIP3    H130596   7.759   2.495   6.622
10217TIP3    H230597   7.824   2.523   6.756
10218TIP3   OH230598   0.520   3.482   0.822
10218TIP3    H130599   0.491   3.488   0.912
10218TIP3    H230600   0.614   3.460   0.828
10219TIP3   OH230601   7.939   2.291   4.066
10219TIP3    H130602   7.899   2.234   4.000
10219TIP3    H230603   7.963   2.370   4.017
10220TIP3   OH230604   4.880   5.917   2.815
10220TIP3    H130605   4.833   5.898   2.895
10220TIP3    H230606   4.816   5.904   2.745
10221TIP3   OH230607   8.200   3.549   5.919
10221TIP3    H130608   8.130   3.589   5.972
10221TIP3    H230609   8.255   3.622   5.893
10222TIP3   OH230610   1.895   4.167   6.047
10222TIP3    H130611   1.892   4.092   6.106
10222TIP3    H230612   1.944   4.135   5.971
10223TIP3   OH230613   3.616   3.778   2.943
10223TIP3    H130614   3.641   3.863   2.906
10223TIP3    H230615   3.653   3.715   2.882
10224TIP3   OH230616   6.540   0.448   0.205
10224TIP3    H130617   6.523   0.542   0.217
10224TIP3    H230618   6.603   0.444   0.133
10225TIP3   OH230619   0.224   7.469   2.725
10225TIP3    H130620   0.179   7.548   2.756
10225TIP3    H230621   0.169   7.397   2.755
10226TIP3   OH230622   6.010   4.307   6.188
10226TIP3    H130623   5.964   4.383   6.224
10226TIP3    H230624   6.103   4.331   6.193
10227TIP3   OH230625   1.865   0.964   1.112
10227TIP3    H130626   1.801   1.032   1.092
10227TIP3    H230627   1.880   0.920   1.029
10228TIP3   OH230628   0.311   3.126   4.125
10228TIP3    H130629   0.256   3.138   4.202
10228TIP3    H230630   0.365   3.050   4.146
10229TIP3   OH230631   5.171   0.107   3.798
10229TIP3    H130632   5.113   0.148   3.862
10229TIP3    H230633   5.173   0.168   3.724
10230TIP3   OH230634   2.683   1.587   4.215
10230TIP3    H130635   2.762   1.534   4.225
10230TIP3    H230636   2.649   1.564   4.129
10231TIP3   OH230637   3.685   4.474   4.846
10231TIP3    H130638   3.605   4.477   4.795
10231TIP3    H230639   3.656   4.480   4.937
10232TIP3   OH230640   7.637   5.698   6.594
10232TIP3    H130641   7.664   5.789   6.578
10232TIP3    H230642   7.572   5.680   6.527
10233TIP3   OH230643   2.104   7.482   0.177
10233TIP3    H130644   2.015   7.447   0.178
10233TIP3    H230645   2.101   7.554   0.115
10234TIP3   OH230646   5.402   6.398   6.596
10234TIP3    H130647   5.346   6.323   6.615
10234TIP3    H230648   5.468   6.398   6.665
10235TIP3   OH230649   7.574   3.600   0.084
10235TIP3    H130650   7.637   3.528   0.085
10235TIP3    H230651   7.490   3.558   0.099
10236TIP3   OH230652   5.065   6.237   1.413
10236TIP3    H130653   5.152   6.234   1.375
10236TIP3    H230654   5.026   6.152   1.391
10237TIP3   OH230655   4.903   1.954   2.808
10237TIP3    H130656   4.947   1.988   2.730
10237TIP3    H230657   4.899   2.028   2.868
10238TIP3   OH230658   5.223   6.201   4.240
10238TIP3    H130659   5.301   6.147   4.229
10238TIP3    H230660   5.257   6.291   4.242
10239TIP3   OH230661   7.103   3.618   1.565
10239TIP3    H130662   7.121   3.707   1.536
10239TIP3    H230663   7.184   3.589   1.607
10240TIP3   OH230664   5.405   6.163   4.522
10240TIP3    H130665   5.448   6.247   4.537
10240TIP3    H230666   5.337   6.159   4.589
10241TIP3   OH230667   0.771   4.009   2.700
10241TIP3    H130668   0.804   4.095   2.727
10241TIP3    H230669   0.773   4.012   2.604
10242TIP3   OH230670   5.635   1.036   0.449
10242TIP3    H130671   5.579   1.102   0.489
10242TIP3    H230672   5.645   1.065   0.358
10243TIP3   OH230673   8.253   0.843   6.424
10243TIP3    H130674   8.211   0.861   6.339
10243TIP3    H230675   8.192   0.878   6.489
10244TIP3   OH230676   3.772   2.571   6.281
10244TIP3    H130677   3.750   2.664   6.281
10244TIP3    H230678   3.698   2.528   6.238
10245TIP3   OH230679   1.745   3.571   0.274
10245TIP3    H130680   1.730   3.509   0.203
10245TIP3    H230681   1.835   3.600   0.262
10246TIP3   OH230682   0.290   2.146   2.436
10246TIP3    H130683   0.203   2.108   2.444
10246TIP3    H230684   0.276   2.226   2.384
10247TIP3   OH230685   3.283   1.861   3.722
10247TIP3    H130686   3.278   1.897   3.810
10247TIP3    H230687   3.289   1.937   3.665
10248TIP3   OH230688   8.151   6.548   2.514
10248TIP3    H130689   8.162   6.635   2.553
10248TIP3    H230690   8.057   6.540   2.501
10249TIP3   OH230691   4.019   2.030   4.236
10249TIP3    H130692   3.985   1.941   4.226
10249TIP3    H230693   4.019   2.067   4.148
10250TIP3   OH230694   2.670   0.567   5.353
10250TIP3    H130695   2.720   0.634   5.305
10250TIP3    H230696   2.583   0.570   5.315
10251TIP3   OH230697   1.078   3.900   2.265
10251TIP3    H130698   1.046   3.850   2.190
10251TIP3    H230699   1.171   3.912   2.248
10252TIP3   OH230700   5.119   0.948   2.497
10252TIP3    H130701   5.095   0.855   2.504
10252TIP3    H230702   5.213   0.949   2.513
10253TIP3   OH230703   3.970   4.773   2.874
10253TIP3    H130704   3.981   4.698   2.816
10253TIP3    H230705   3.938   4.734   2.956
10254TIP3   OH230706   6.632   7.458   1.433
10254TIP3    H130707   6.707   7.441   1.490
10254TIP3    H230708   6.581   7.524   1.481
10255TIP3   OH230709   3.803   3.127   3.323
10255TIP3    H130710   3.762   3.138   3.237
10255TIP3    H230711   3.770   3.201   3.374
10256TIP3   OH230712   3.218   7.560   0.077
10256TIP3    H130713   3.273   7.626   0.119
10256TIP3    H230714   3.165   7.609   0.015
10257TIP3   OH230715   4.372   5.072   6.170
10257TIP3    H130716   4.329   5.097   6.252
10257TIP3    H230717   4.300   5.044   6.113
10258TIP3   OH230718   7.868   6.295   5.087
10258TIP3    H130719   7.902   6.241   5.159
10258TIP3    H230720   7.789   6.336   5.123
10259TIP3   OH230721   0.266   6.091   0.987
10259TIP3    H130722   0.228   6.094   0.899
10259TIP3    H230723   0.258   6.181   1.019
10260TIP3   OH230724   6.646   7.601   2.854
10260TIP3    H130725   6.740   7.593   2.864
10260TIP3    H230726   6.634   7.657   2.777
10261TIP3   OH230727   2.304   5.239   5.657
10261TIP3    H130728   2.213   5.223   5.681
10261TIP3    H230729   2.345   5.267   5.739
10262TIP3   OH230730   4.714   4.605   3.532
10262TIP3    H130731   4.627   4.587   3.496
10262TIP3    H230732   4.711   4.698   3.555
10263TIP3   OH230733   7.295   4.842   4.814
10263TIP3    H130734   7.323   4.846   4.723
10263TIP3    H230735   7.253   4.756   4.823
10264TIP3   OH230736   1.483   1.254   5.927
10264TIP3    H130737   1.426   1.263   5.851
10264TIP3    H230738   1.479   1.340   5.970
10265TIP3   OH230739   7.202   1.731   0.158
10265TIP3    H130740   7.284   1.689   0.184
10265TIP3    H230741   7.137   1.697   0.219
10266TIP3   OH230742   5.580   5.094   2.878
10266TIP3    H130743   5.667   5.128   2.859
10266TIP3    H230744   5.560   5.126   2.966
10267TIP3   OH230745   5.732   3.215   4.998
10267TIP3    H130746   5.700   3.162   4.924
10267TIP3    H230747   5.747   3.152   5.068
10268TIP3   OH230748   0.505   2.481   5.457
10268TIP3    H130749   0.504   2.486   5.361
10268TIP3    H230750   0.593   2.452   5.479
10269TIP3   OH230751   6.125   5.018   2.872
10269TIP3    H130752   6.183   4.950   2.907
10269TIP3    H230753   6.085   4.979   2.795
10270TIP3   OH230754   5.688   1.622   6.483
10270TIP3    H130755   5.599   1.653   6.500
10270TIP3    H230756   5.687   1.595   6.391
10271TIP3   OH230757   7.120   5.658   1.718
10271TIP3    H130758   7.088   5.741   1.684
10271TIP3    H230759   7.148   5.678   1.807
10272TIP3   OH230760   1.494   3.880   5.018
10272TIP3    H130761   1.542   3.959   4.994
10272TIP3    H230762   1.513   3.818   4.947
10273TIP3   OH230763   7.265   1.600   4.248
10273TIP3    H130764   7.339   1.638   4.296
10273TIP3    H230765   7.304   1.540   4.185
10274TIP3   OH230766   3.957   0.125   6.632
10274TIP3    H130767   3.921   0.209   6.658
10274TIP3    H230768   3.904   0.060   6.679
10275TIP3   OH230769   2.758   7.577   2.310
10275TIP3    H130770   2.757   7.572   2.215
10275TIP3    H230771   2.672   7.543   2.337
10276TIP3   OH230772   3.350   7.549   4.436
10276TIP3    H130773   3.350   7.570   4.530
10276TIP3    H230774   3.437   7.514   4.420
10277TIP3   OH230775   6.321   6.631   2.826
10277TIP3    H130776   6.303   6.694   2.756
10277TIP3    H230777   6.248   6.640   2.887
10278TIP3   OH230778   5.028   0.801   3.876
10278TIP3    H130779   5.053   0.828   3.965
10278TIP3    H230780   4.933   0.788   3.881
10279TIP3   OH230781   3.962   0.169   4.242
10279TIP3    H130782   4.028   0.106   4.272
10279TIP3    H230783   3.911   0.189   4.321
10280TIP3   OH230784   3.623   3.860   2.122
10280TIP3    H130785   3.574   3.937   2.094
10280TIP3    H230786   3.633   3.871   2.217
10281TIP3   OH230787   7.828   6.040   1.267
10281TIP3    H130788   7.860   6.121   1.306
10281TIP3    H230789   7.791   5.991   1.340
10282TIP3   OH230790   0.435   0.402   0.426
10282TIP3    H130791   0.381   0.329   0.395
10282TIP3    H230792   0.382   0.480   0.406
10283TIP3   OH230793   6.095   5.284   2.908
10283TIP3    H130794   6.174   5.325   2.941
10283TIP3    H230795   6.123   5.196   2.880
10284TIP3   OH230796   5.094   2.606   1.998
10284TIP3    H130797   5.000   2.624   1.989
10284TIP3    H230798   5.098   2.532   2.058
10285TIP3   OH230799   7.831   0.668   3.614
10285TIP3    H130800   7.898   0.665   3.546
10285TIP3    H230801   7.749   0.649   3.567
10286TIP3   OH230802   0.172   1.213   1.356
10286TIP3    H130803   0.077   1.214   1.367
10286TIP3    H230804   0.202   1.293   1.399
10287TIP3   OH230805   5.689   6.753   1.283
10287TIP3    H130806   5.767   6.771   1.231
10287TIP3    H230807   5.667   6.662   1.263
10288TIP3   OH230808   8.301   6.383   3.386
10288TIP3    H130809   8.256   6.397   3.302
10288TIP3    H230810   8.374   6.325   3.364
10289TIP3   OH230811   2.198   1.934   5.906
10289TIP3    H130812   2.123   1.942   5.847
10289TIP3    H230813   2.220   1.841   5.905
10290TIP3   OH230814   6.934   5.429   1.112
10290TIP3    H130815   6.976   5.510   1.082
10290TIP3    H230816   6.985   5.359   1.072
10291TIP3   OH230817   1.174   0.639   4.039
10291TIP3    H130818   1.262   0.615   4.066
10291TIP3    H230819   1.186   0.689   3.959
10292TIP3   OH230820   4.430   4.804   4.486
10292TIP3    H130821   4.435   4.756   4.568
10292TIP3    H230822   4.511   4.783   4.440
10293TIP3   OH230823   1.866   5.133   4.351
10293TIP3    H130824   1.867   5.129   4.446
10293TIP3    H230825   1.870   5.227   4.331
10294TIP3   OH230826   2.373   5.561   6.345
10294TIP3    H130827   2.335   5.619   6.280
10294TIP3    H230828   2.461   5.596   6.360
10295TIP3   OH230829   3.906   1.229   6.598
10295TIP3    H130830   3.860   1.182   6.527
10295TIP3    H230831   3.909   1.320   6.568
10296TIP3   OH230832   2.838   6.956   1.585
10296TIP3    H130833   2.933   6.950   1.578
10296TIP3    H230834   2.814   7.028   1.527
10297TIP3   OH230835   5.467   2.729   5.347
10297TIP3    H130836   5.480   2.666   5.276
10297TIP3    H230837   5.387   2.775   5.324
10298TIP3   OH230838   0.361   1.798   1.668
10298TIP3    H130839   0.364   1.857   1.593
10298TIP3    H230840   0.368   1.856   1.744
10299TIP3   OH230841   6.263   1.501   1.066
10299TIP3    H130842   6.274   1.498   0.971
10299TIP3    H230843   6.352   1.505   1.101
10300TIP3   OH230844   8.153   0.502   1.496
10300TIP3    H130845   8.063   0.470   1.504
10300TIP3    H230846   8.186   0.502   1.586
10301TIP3   OH230847   2.546   5.565   4.611
10301TIP3    H130848   2.509   5.651   4.629
10301TIP3    H230849   2.471   5.505   4.618
10302TIP3   OH230850   3.395   4.199   5.337
10302TIP3    H130851   3.312   4.227   5.375
10302TIP3    H230852   3.393   4.232   5.247
10303TIP3   OH230853   7.832   1.846   3.309
10303TIP3    H130854   7.788   1.768   3.275
10303TIP3    H230855   7.863   1.820   3.395
10304TIP3   OH230856   2.478   4.699   2.366
10304TIP3    H130857   2.427   4.627   2.402
10304TIP3    H230858   2.474   4.687   2.272
10305TIP3   OH230859   6.123   6.948   5.306
10305TIP3    H130860   6.141   6.982   5.219
10305TIP3    H230861   6.046   6.997   5.336
10306TIP3   OH230862  -0.017   2.273   0.970
10306TIP3    H130863   0.021   2.257   0.883
10306TIP3    H230864   0.059   2.280   1.028
10307TIP3   OH230865   6.611   1.582   3.911
10307TIP3    H130866   6.519   1.609   3.905
10307TIP3    H230867   6.608   1.487   3.900
10308TIP3   OH230868   7.457   5.857   4.540
10308TIP3    H130869   7.465   5.837   4.447
10308TIP3    H230870   7.430   5.774   4.580
10309TIP3   OH230871   6.336   1.825   0.380
10309TIP3    H130872   6.300   1.914   0.373
10309TIP3    H230873   6.259   1.768   0.386
10310TIP3   OH230874   6.082   4.630   0.519
10310TIP3    H130875   6.080   4.612   0.425
10310TIP3    H230876   6.144   4.703   0.528
10311TIP3   OH230877   0.856   7.664   3.226
10311TIP3    H130878   0.777   7.641   3.274
10311TIP3    H230879   0.832   7.740   3.174
10312TIP3   OH230880   5.262   0.934   3.225
10312TIP3    H130881   5.237   1.022   3.251
10312TIP3    H230882   5.296   0.894   3.305
10313TIP3   OH230883   1.218   2.590   3.771
10313TIP3    H130884   1.133   2.550   3.785
10313TIP3    H230885   1.202   2.662   3.711
10314TIP3   OH230886  -0.003   3.242   3.151
10314TIP3    H130887  -0.049   3.311   3.103
10314TIP3    H230888   0.064   3.288   3.202
10315TIP3   OH230889   6.454   5.201   0.691
10315TIP3    H130890   6.398   5.269   0.654
10315TIP3    H230891   6.400   5.122   0.690
10316TIP3   OH230892   7.245   6.955   2.225
10316TIP3    H130893   7.207   7.015   2.289
10316TIP3    H230894   7.190   6.876   2.231
10317TIP3   OH230895   1.296   5.838   1.194
10317TIP3    H130896   1.269   5.917   1.240
10317TIP3    H230897   1.383   5.819   1.229
10318TIP3   OH230898   2.634   5.272   0.615
10318TIP3    H130899   2.653   5.274   0.521
10318TIP3    H230900   2.611   5.362   0.636
10319TIP3   OH230901   4.769   1.766   0.796
10319TIP3    H130902   4.813   1.740   0.716
10319TIP3    H230903   4.792   1.698   0.859
10320TIP3   OH230904   3.170   1.544   5.574
10320TIP3    H130905   3.195   1.590   5.495
10320TIP3    H230906   3.241   1.561   5.636
10321TIP3   OH230907   7.305   1.237   2.116
10321TIP3    H130908   7.292   1.179   2.190
10321TIP3    H230909   7.352   1.312   2.151
10322TIP3   OH230910   6.595   4.723   3.046
10322TIP3    H130911   6.546   4.692   3.123
10322TIP3    H230912   6.683   4.741   3.079
10323TIP3   OH230913   0.536   6.650   4.300
10323TIP3    H130914   0.458   6.704   4.286
10323TIP3    H230915   0.587   6.659   4.219
10324TIP3   OH230916   7.558   7.517   5.013
10324TIP3    H130917   7.652   7.507   4.999
10324TIP3    H230918   7.550   7.546   5.104
10325TIP3   OH230919   3.733   5.613   3.567
10325TIP3    H130920   3.771   5.586   3.483
10325TIP3    H230921   3.663   5.674   3.543
10326TIP3   OH230922   2.651   3.908   1.560
10326TIP3    H130923   2.620   3.926   1.649
10326TIP3    H230924   2.745   3.925   1.563
10327TIP3   OH230925   0.850   1.425   1.299
10327TIP3    H130926   0.861   1.520   1.291
10327TIP3    H230927   0.804   1.399   1.220
10328TIP3   OH230928   7.451   1.180   5.739
10328TIP3    H130929   7.420   1.174   5.649
10328TIP3    H230930   7.446   1.090   5.772
10329TIP3   OH230931   1.097   1.092   3.552
10329TIP3    H130932   1.023   1.128   3.504
10329TIP3    H230933   1.173   1.142   3.521
10330TIP3   OH230934   4.537   5.992   0.231
10330TIP3    H130935   4.604   6.045   0.188
10330TIP3    H230936   4.586   5.927   0.281
10331TIP3   OH230937   4.902   7.424   4.713
10331TIP3    H130938   4.913   7.464   4.799
10331TIP3    H230939   4.848   7.486   4.664
10332TIP3   OH230940   6.838   2.530   4.051
10332TIP3    H130941   6.921   2.493   4.020
10332TIP3    H230942   6.782   2.531   3.973
10333TIP3   OH230943   3.987   5.726   3.734
10333TIP3    H130944   4.007   5.669   3.808
10333TIP3    H230945   3.939   5.670   3.673
10334TIP3   OH230946   1.576   4.967   5.545
10334TIP3    H130947   1.484   4.957   5.520
10334TIP3    H230948   1.600   5.053   5.511
10335TIP3   OH230949   1.309   5.555   3.733
10335TIP3    H130950   1.394   5.575   3.694
10335TIP3    H230951   1.285   5.635   3.779
10336TIP3   OH230952   7.594   6.921   3.381
10336TIP3    H130953   7.685   6.905   3.354
10336TIP3    H230954   7.586   6.873   3.464
10337TIP3   OH230955   0.067   3.254   5.278
10337TIP3    H130956  -0.023   3.287   5.276
10337TIP3    H230957   0.090   3.244   5.185
10338TIP3   OH230958   2.493   3.859   0.864
10338TIP3    H130959   2.553   3.817   0.926
10338TIP3    H230960   2.547   3.927   0.822
10339TIP3   OH230961   8.125   2.319   3.473
10339TIP3    H130962   8.036   2.321   3.509
10339TIP3    H230963   8.143   2.409   3.448
10340TIP3   OH230964   0.942   2.440   3.846
10340TIP3    H130965   0.865   2.396   3.811
10340TIP3    H230966   0.946   2.412   3.938
10341TIP3   OH230967   3.882   7.168   3.266
10341TIP3    H130968   3.927   7.248   3.240
10341TIP3    H230969   3.816   7.154   3.197
10342TIP3   OH230970   5.944   5.236   4.472
10342TIP3    H130971   5.992   5.297   4.527
10342TIP3    H230972   6.008   5.206   4.407
10343TIP3   OH230973   5.350   2.114   0.154
10343TIP3    H130974   5.434   2.071   0.174
10343TIP3    H230975   5.371   2.207   0.153
10344TIP3   OH230976   8.297   6.235   4.273
10344TIP3    H130977   8.266   6.293   4.343
10344TIP3    H230978   8.336   6.160   4.319
10345TIP3   OH230979   5.265   0.813   2.107
10345TIP3    H130980   5.265   0.902   2.072
10345TIP3    H230981   5.284   0.823   2.200
10346TIP3   OH230982   7.879   7.476   4.007
10346TIP3    H130983   7.903   7.412   3.940
10346TIP3    H230984   7.821   7.428   4.066
10347TIP3   OH230985   5.080   2.736   0.136
10347TIP3    H130986   5.055   2.787   0.212
10347TIP3    H230987   5.000   2.728   0.084
10348TIP3   OH230988   0.153   7.088   1.890
10348TIP3    H130989   0.209   7.070   1.813
10348TIP3    H230990   0.091   7.016   1.892
10349TIP3   OH230991   4.769   5.711   0.863
10349TIP3    H130992   4.832   5.650   0.900
10349TIP3    H230993   4.820   5.789   0.843
10350TIP3   OH230994   2.761   5.891   3.312
10350TIP3    H130995   2.729   5.819   3.259
10350TIP3    H230996   2.699   5.896   3.385
10351TIP3   OH230997   7.798   0.862   6.190
10351TIP3    H130998   7.715   0.845   6.145
10351TIP3    H230999   7.792   0.812   6.271
10352TIP3   OH231000   7.486   6.742   1.446
10352TIP3    H131001   7.395   6.739   1.417
10352TIP3    H231002   7.489   6.816   1.507
10353TIP3   OH231003   2.583   4.485   3.470
10353TIP3    H131004   2.573   4.468   3.377
10353TIP3    H231005   2.554   4.405   3.513
10354TIP3   OH231006   6.728   4.553   0.999
10354TIP3    H131007   6.815   4.530   1.033
10354TIP3    H231008   6.696   4.472   0.959
10355TIP3   OH231009   1.125   0.775   2.746
10355TIP3    H131010   1.213   0.754   2.776
10355TIP3    H231011   1.115   0.725   2.665
10356TIP3   OH231012   0.537   1.217   4.833
10356TIP3    H131013   0.607   1.176   4.782
10356TIP3    H231014   0.582   1.275   4.894
10357TIP3   OH231015   3.957   2.697   3.591
10357TIP3    H131016   3.946   2.694   3.496
10357TIP3    H231017   3.995   2.783   3.608
10358TIP3   OH231018   5.562   7.161   0.383
10358TIP3    H131019   5.623   7.090   0.403
10358TIP3    H231020   5.573   7.223   0.454
10359TIP3   OH231021   2.219   4.288   2.606
10359TIP3    H131022   2.252   4.233   2.677
10359TIP3    H231023   2.129   4.308   2.632
10360TIP3   OH231024   5.518   1.291   4.351
10360TIP3    H131025   5.447   1.240   4.313
10360TIP3    H231026   5.541   1.244   4.431
10361TIP3   OH231027   3.401   0.052   1.285
10361TIP3    H131028   3.314   0.013   1.299
10361TIP3    H231029   3.442   0.049   1.371
10362TIP3   OH231030   4.864   0.303   5.603
10362TIP3    H131031   4.923   0.368   5.641
10362TIP3    H231032   4.881   0.223   5.652
10363TIP3   OH231033   5.266   6.502   4.311
10363TIP3    H131034   5.198   6.531   4.372
10363TIP3    H231035   5.348   6.515   4.358
10364TIP3   OH231036   1.776   4.085   4.992
10364TIP3    H131037   1.705   4.110   4.933
10364TIP3    H231038   1.774   4.150   5.062
10365TIP3   OH231039   2.009   4.551   4.782
10365TIP3    H131040   2.075   4.596   4.729
10365TIP3    H231041   1.930   4.605   4.772
10366TIP3   OH231042   6.940   6.399   1.308
10366TIP3    H131043   6.986   6.428   1.387
10366TIP3    H231044   6.994   6.431   1.236
10367TIP3   OH231045   2.002   3.949   5.459
10367TIP3    H131046   2.072   3.885   5.444
10367TIP3    H231047   1.934   3.924   5.396
10368TIP3   OH231048   2.243   0.106   3.658
10368TIP3    H131049   2.284   0.056   3.588
10368TIP3    H231050   2.150   0.083   3.653
10369TIP3   OH231051   0.293   6.325   4.965
10369TIP3    H131052   0.268   6.309   5.056
10369TIP3    H231053   0.382   6.292   4.958
10370TIP3   OH231054   0.614   6.050   3.907
10370TIP3    H131055   0.555   6.120   3.879
10370TIP3    H231056   0.582   6.027   3.994
10371TIP3   OH231057   3.340   5.746   1.744
10371TIP3    H131058   3.375   5.724   1.830
10371TIP3    H231059   3.359   5.840   1.733
10372TIP3   OH231060   4.050   6.652   1.165
10372TIP3    H131061   4.130   6.660   1.113
10372TIP3    H231062   4.019   6.742   1.174
10373TIP3   OH231063   1.100   5.657   1.098
10373TIP3    H131064   1.176   5.715   1.108
10373TIP3    H231065   1.137   5.573   1.073
10374TIP3   OH231066   5.737   6.954   0.437
10374TIP3    H131067   5.687   6.935   0.517
10374TIP3    H231068   5.828   6.949   0.465
10375TIP3   OH231069   4.624   0.904   3.014
10375TIP3    H131070   4.631   1.000   3.013
10375TIP3    H231071   4.639   0.878   2.924
10376TIP3   OH231072   1.436   5.595   1.073
10376TIP3    H131073   1.443   5.672   1.130
10376TIP3    H231074   1.424   5.632   0.985
10377TIP3   OH231075   0.953   2.314   4.105
10377TIP3    H131076   0.860   2.325   4.120
10377TIP3    H231077   0.978   2.240   4.160
10378TIP3   OH231078   2.157   7.669   6.216
10378TIP3    H131079   2.116   7.664   6.302
10378TIP3    H231080   2.247   7.641   6.230
10379TIP3   OH231081   4.392   5.615   4.859
10379TIP3    H131082   4.450   5.679   4.902
10379TIP3    H231083   4.305   5.654   4.865
10380TIP3   OH231084   1.228   3.172   5.377
10380TIP3    H131085   1.302   3.136   5.425
10380TIP3    H231086   1.210   3.107   5.309
10381TIP3   OH231087   3.345   6.366   5.625
10381TIP3    H131088   3.303   6.446   5.596
10381TIP3    H231089   3.377   6.385   5.713
10382TIP3   OH231090   8.257   6.390   2.043
10382TIP3    H131091   8.163   6.408   2.045
10382TIP3    H231092   8.290   6.426   2.125
10383TIP3   OH231093   4.524   3.866   3.115
10383TIP3    H131094   4.559   3.852   3.027
10383TIP3    H231095   4.434   3.834   3.112
10384TIP3   OH231096   5.381   0.412   5.348
10384TIP3    H131097   5.355   0.498   5.381
10384TIP3    H231098   5.473   0.403   5.372
10385TIP3   OH231099   7.177   1.699   5.755
10385TIP3    H131100   7.150   1.789   5.739
10385TIP3    H231101   7.106   1.646   5.721
10386TIP3   OH231102   8.284   7.610   5.440
10386TIP3    H131103   8.297   7.584   5.531
10386TIP3    H231104   8.285   7.706   5.442
10387TIP3   OH231105   1.334   1.499   3.547
10387TIP3    H131106   1.369   1.416   3.514
10387TIP3    H231107   1.269   1.474   3.612
10388TIP3   OH231108   2.102   1.990   1.418
10388TIP3    H131109   2.019   1.996   1.467
10388TIP3    H231110   2.077   1.952   1.334
10389TIP3   OH231111   4.516   7.539   1.478
10389TIP3    H131112   4.523   7.588   1.560
10389TIP3    H231113   4.607   7.523   1.451
10390TIP3   OH231114   7.068   1.437   4.047
10390TIP3    H131115   7.157   1.424   4.079
10390TIP3    H231116   7.023   1.354   4.066
10391TIP3   OH231117   2.819   0.028   0.518
10391TIP3    H131118   2.796   0.103   0.574
10391TIP3    H231119   2.864   0.068   0.443
10392TIP3   OH231120   4.018   0.118   6.074
10392TIP3    H131121   4.076   0.043   6.059
10392TIP3    H231122   3.953   0.112   6.004
10393TIP3   OH231123   3.740   6.784   5.327
10393TIP3    H131124   3.703   6.846   5.263
10393TIP3    H231125   3.727   6.827   5.412
10394TIP3   OH231126   4.609   4.736   5.320
10394TIP3    H131127   4.548   4.770   5.385
10394TIP3    H231128   4.554   4.719   5.243
10395TIP3   OH231129   4.407   0.076   0.891
10395TIP3    H131130   4.360   0.158   0.906
10395TIP3    H231131   4.359   0.033   0.821
10396TIP3   OH231132   5.382   2.461   6.310
10396TIP3    H131133   5.304   2.502   6.274
10396TIP3    H231134   5.349   2.393   6.369
10397TIP3   OH231135   6.715   4.012   5.980
10397TIP3    H131136   6.770   4.080   5.941
10397TIP3    H231137   6.656   4.059   6.039
10398TIP3   OH231138  -0.065   4.858   6.012
10398TIP3    H131139  -0.097   4.875   5.923
10398TIP3    H231140  -0.039   4.766   6.012
10399TIP3   OH231141   0.592   4.778   5.194
10399TIP3    H131142   0.627   4.741   5.275
10399TIP3    H231143   0.572   4.869   5.216
10400TIP3   OH231144   2.096   0.974   6.548
10400TIP3    H131145   2.185   0.941   6.536
10400TIP3    H231146   2.053   0.958   6.464
10401TIP3   OH231147   1.301   0.624   4.772
10401TIP3    H131148   1.231   0.607   4.835
10401TIP3    H231149   1.368   0.559   4.792
10402TIP3   OH231150   6.768   3.349   0.575
10402TIP3    H131151   6.805   3.424   0.529
10402TIP3    H231152   6.726   3.386   0.652
10403TIP3   OH231153   6.724   2.769   2.834
10403TIP3    H131154   6.772   2.687   2.828
10403TIP3    H231155   6.782   2.828   2.883
10404TIP3   OH231156   3.340   1.954   4.771
10404TIP3    H131157   3.392   1.953   4.691
10404TIP3    H231158   3.251   1.972   4.742
10405TIP3   OH231159   3.482   4.898   1.581
10405TIP3    H131160   3.465   4.961   1.511
10405TIP3    H231161   3.410   4.909   1.643
10406TIP3   OH231162   3.293   7.647   3.372
10406TIP3    H131163   3.370   7.697   3.344
10406TIP3    H231164   3.314   7.557   3.348
10407TIP3   OH231165   1.571   5.945   1.873
10407TIP3    H131166   1.562   5.851   1.859
10407TIP3    H231167   1.631   5.952   1.948
10408TIP3   OH231168   2.247   7.704   3.829
10408TIP3    H131169   2.301   7.783   3.828
10408TIP3    H231170   2.177   7.723   3.892
10409TIP3   OH231171   5.117   6.169   3.934
10409TIP3    H131172   5.139   6.115   4.009
10409TIP3    H231173   5.066   6.112   3.877
10410TIP3   OH231174   6.184   6.440   4.792
10410TIP3    H131175   6.142   6.517   4.829
10410TIP3    H231176   6.121   6.369   4.803
10411TIP3   OH231177   6.252   5.438   6.217
10411TIP3    H131178   6.164   5.422   6.252
10411TIP3    H231179   6.286   5.351   6.196
10412TIP3   OH231180   2.750   0.291   0.945
10412TIP3    H131181   2.665   0.274   0.905
10412TIP3    H231182   2.810   0.233   0.897
10413TIP3   OH231183   1.529   4.141   0.330
10413TIP3    H131184   1.603   4.120   0.273
10413TIP3    H231185   1.461   4.078   0.305
10414TIP3   OH231186   0.725   4.649   1.089
10414TIP3    H131187   0.714   4.554   1.083
10414TIP3    H231188   0.819   4.661   1.105
10415TIP3   OH231189   7.729   7.062   0.353
10415TIP3    H131190   7.768   7.019   0.277
10415TIP3    H231191   7.639   7.028   0.357
10416TIP3   OH231192   5.647   3.685   2.979
10416TIP3    H131193   5.594   3.633   2.920
10416TIP3    H231194   5.645   3.638   3.062
10417TIP3   OH231195   2.981   3.520   2.516
10417TIP3    H131196   2.922   3.522   2.440
10417TIP3    H231197   3.043   3.591   2.500
10418TIP3   OH231198   1.555   7.603   2.505
10418TIP3    H131199   1.520   7.691   2.491
10418TIP3    H231200   1.551   7.591   2.600
10419TIP3   OH231201   6.645   4.764   2.783
10419TIP3    H131202   6.631   4.741   2.875
10419TIP3    H231203   6.570   4.818   2.760
10420TIP3   OH231204   0.969   5.304   0.867
10420TIP3    H131205   0.986   5.284   0.959
10420TIP3    H231206   1.055   5.307   0.826
10421TIP3   OH231207   6.832   7.395   2.324
10421TIP3    H131208   6.833   7.300   2.312
10421TIP3    H231209   6.836   7.430   2.235
10422TIP3   OH231210   1.749   5.516   1.930
10422TIP3    H131211   1.790   5.561   2.004
10422TIP3    H231212   1.800   5.436   1.920
10423TIP3   OH231213   1.918   3.413   3.770
10423TIP3    H131214   1.907   3.502   3.805
10423TIP3    H231215   1.967   3.367   3.838
10424TIP3   OH231216   6.384   6.371   0.311
10424TIP3    H131217   6.310   6.359   0.371
10424TIP3    H231218   6.351   6.342   0.226
10425TIP3   OH231219   1.903   6.028   5.043
10425TIP3    H131220   1.931   6.092   5.109
10425TIP3    H231221   1.973   6.029   4.977
10426TIP3   OH231222   2.368   3.606   6.706
10426TIP3    H131223   2.383   3.661   6.629
10426TIP3    H231224   2.454   3.600   6.748
10427TIP3   OH231225   6.578   3.999   5.522
10427TIP3    H131226   6.507   3.940   5.496
10427TIP3    H231227   6.567   4.076   5.467
10428TIP3   OH231228   6.207   4.605   0.991
10428TIP3    H131229   6.252   4.672   0.940
10428TIP3    H231230   6.251   4.607   1.076
10429TIP3   OH231231   2.184   7.084   2.673
10429TIP3    H131232   2.089   7.077   2.667
10429TIP3    H231233   2.208   7.025   2.745
10430TIP3   OH231234   0.464   1.616   2.591
10430TIP3    H131235   0.481   1.702   2.554
10430TIP3    H231236   0.485   1.555   2.520
10431TIP3   OH231237   3.290   0.938   6.463
10431TIP3    H131238   3.229   0.867   6.484
10431TIP3    H231239   3.353   0.936   6.535
10432TIP3   OH231240   5.974   1.524   4.792
10432TIP3    H131241   6.004   1.435   4.774
10432TIP3    H231242   5.928   1.550   4.712
10433TIP3   OH231243   4.948   2.171   2.350
10433TIP3    H131244   4.901   2.247   2.384
10433TIP3    H231245   5.002   2.141   2.424
10434TIP3   OH231246   6.649   2.011   1.866
10434TIP3    H131247   6.703   2.013   1.944
10434TIP3    H231248   6.560   2.020   1.898
10435TIP3   OH231249   8.058   0.128   2.646
10435TIP3    H131250   8.033   0.037   2.627
10435TIP3    H231251   8.116   0.121   2.722
10436TIP3   OH231252   1.590   1.793   0.219
10436TIP3    H131253   1.601   1.723   0.155
10436TIP3    H231254   1.528   1.854   0.178
10437TIP3   OH231255   0.630   0.478   3.373
10437TIP3    H131256   0.716   0.511   3.400
10437TIP3    H231257   0.647   0.431   3.291
10438TIP3   OH231258   3.400   4.906   1.075
10438TIP3    H131259   3.491   4.904   1.045
10438TIP3    H231260   3.350   4.940   1.001
10439TIP3   OH231261   1.145   0.583   2.548
10439TIP3    H131262   1.178   0.620   2.466
10439TIP3    H231263   1.052   0.564   2.530
10440TIP3   OH231264   0.846   5.267   1.979
10440TIP3    H131265   0.842   5.243   2.072
10440TIP3    H231266   0.937   5.291   1.965
10441TIP3   OH231267   3.164   7.087   6.319
10441TIP3    H131268   3.177   7.065   6.411
10441TIP3    H231269   3.137   7.004   6.279
10442TIP3   OH231270   0.452   4.094   5.898
10442TIP3    H131271   0.503   4.107   5.978
10442TIP3    H231272   0.374   4.047   5.926
10443TIP3   OH231273   0.315   5.323   4.095
10443TIP3    H131274   0.384   5.278   4.143
10443TIP3    H231275   0.325   5.415   4.120
10444TIP3   OH231276   1.454   4.914   2.034
10444TIP3    H131277   1.513   4.979   1.996
10444TIP3    H231278   1.502   4.831   2.028
10445TIP3   OH231279   3.491   6.286   0.154
10445TIP3    H131280   3.586   6.293   0.161
10445TIP3    H231281   3.471   6.202   0.196
10446TIP3   OH231282   7.081   4.689   2.918
10446TIP3    H131283   7.074   4.744   2.840
10446TIP3    H231284   7.174   4.669   2.925
10447TIP3   OH231285   6.186   3.658   6.024
10447TIP3    H131286   6.182   3.724   6.093
10447TIP3    H231287   6.214   3.706   5.946
10448TIP3   OH231288   2.353   2.723   0.020
10448TIP3    H131289   2.355   2.647   0.078
10448TIP3    H231290   2.284   2.779   0.056
10449TIP3   OH231291   4.994   5.039   6.250
10449TIP3    H131292   5.009   5.057   6.343
10449TIP3    H231293   5.056   5.095   6.204
10450TIP3   OH231294   6.518   0.863   3.435
10450TIP3    H131295   6.586   0.795   3.440
10450TIP3    H231296   6.479   0.864   3.522
10451TIP3   OH231297   5.072   5.551   6.010
10451TIP3    H131298   5.003   5.516   6.066
10451TIP3    H231299   5.078   5.643   6.034
10452TIP3   OH231300   3.833   6.754   4.760
10452TIP3    H131301   3.847   6.738   4.854
10452TIP3    H231302   3.801   6.844   4.756
10453TIP3   OH231303   2.794   0.786   6.361
10453TIP3    H131304   2.783   0.876   6.332
10453TIP3    H231305   2.771   0.788   6.454
10454TIP3   OH231306   4.504   3.774   0.282
10454TIP3    H131307   4.566   3.828   0.330
10454TIP3    H231308   4.452   3.731   0.351
10455TIP3   OH231309   0.680   3.092   5.879
10455TIP3    H131310   0.597   3.067   5.839
10455TIP3    H231311   0.704   3.017   5.933
10456TIP3   OH231312   3.190   6.340   4.041
10456TIP3    H131313   3.144   6.265   4.002
10456TIP3    H231314   3.202   6.401   3.969
10457TIP3   OH231315   3.202   5.632   6.724
10457TIP3    H131316   3.216   5.552   6.672
10457TIP3    H231317   3.274   5.632   6.787
10458TIP3   OH231318   3.049   6.088   3.981
10458TIP3    H131319   2.969   6.050   4.018
10458TIP3    H231320   3.099   6.013   3.950
10459TIP3   OH231321   3.549   3.543   2.522
10459TIP3    H131322   3.505   3.477   2.470
10459TIP3    H231323   3.543   3.624   2.470
10460TIP3   OH231324   4.890   3.929   4.226
10460TIP3    H131325   4.803   3.924   4.186
10460TIP3    H231326   4.887   4.006   4.282
10461TIP3   OH231327   5.334   6.017   2.838
10461TIP3    H131328   5.255   6.070   2.843
10461TIP3    H231329   5.355   6.015   2.744
10462TIP3   OH231330   7.100   3.434   0.276
10462TIP3    H131331   7.108   3.339   0.272
10462TIP3    H231332   7.035   3.450   0.344
10463TIP3   OH231333   5.781   3.907   5.726
10463TIP3    H131334   5.838   3.835   5.699
10463TIP3    H231335   5.837   3.962   5.781
10464TIP3   OH231336   0.139   7.626   1.903
10464TIP3    H131337   0.116   7.539   1.935
10464TIP3    H231338   0.055   7.667   1.881
10465TIP3   OH231339   1.288   3.618   3.778
10465TIP3    H131340   1.382   3.606   3.762
10465TIP3    H231341   1.272   3.709   3.752
10466TIP3   OH231342   6.107   3.415   2.774
10466TIP3    H131343   6.029   3.373   2.737
10466TIP3    H231344   6.146   3.463   2.701
10467TIP3   OH231345   2.327   1.082   1.306
10467TIP3    H131346   2.360   1.109   1.221
10467TIP3    H231347   2.311   1.164   1.353
10468TIP3   OH231348   1.233   2.281   4.087
10468TIP3    H131349   1.138   2.277   4.075
10468TIP3    H231350   1.263   2.191   4.077
10469TIP3   OH231351   0.058   5.282   4.824
10469TIP3    H131352   0.081   5.284   4.731
10469TIP3    H231353  -0.021   5.335   4.831
10470TIP3   OH231354   2.710   6.817   6.577
10470TIP3    H131355   2.712   6.778   6.489
10470TIP3    H231356   2.617   6.827   6.596
10471TIP3   OH231357   6.100   1.287   4.687
10471TIP3    H131358   6.179   1.266   4.736
10471TIP3    H231359   6.123   1.268   4.596
10472TIP3   OH231360   4.451   3.762   6.373
10472TIP3    H131361   4.403   3.712   6.307
10472TIP3    H231362   4.393   3.835   6.394
10473TIP3   OH231363   6.874   2.746   1.743
10473TIP3    H131364   6.900   2.838   1.735
10473TIP3    H231365   6.899   2.707   1.659
10474TIP3   OH231366   5.216   5.922   3.241
10474TIP3    H131367   5.181   5.858   3.302
10474TIP3    H231368   5.311   5.908   3.243
10475TIP3   OH231369   3.930   1.695   1.350
10475TIP3    H131370   3.842   1.668   1.375
10475TIP3    H231371   3.924   1.713   1.256
10476TIP3   OH231372   2.107   1.532   0.803
10476TIP3    H131373   2.137   1.500   0.718
10476TIP3    H231374   2.048   1.604   0.783
10477TIP3   OH231375   5.500   0.658   4.357
10477TIP3    H131376   5.513   0.574   4.313
10477TIP3    H231377   5.412   0.653   4.394
10478TIP3   OH231378   0.541   5.056   1.170
10478TIP3    H131379   0.622   5.083   1.127
10478TIP3    H231380   0.485   5.133   1.167
10479TIP3   OH231381   3.401   6.738   4.267
10479TIP3    H131382   3.389   6.778   4.181
10479TIP3    H231383   3.493   6.752   4.288
10480TIP3   OH231384   7.716   4.343   4.746
10480TIP3    H131385   7.730   4.392   4.828
10480TIP3    H231386   7.802   4.306   4.727
10481TIP3   OH231387   2.607   1.156   3.471
10481TIP3    H131388   2.552   1.175   3.547
10481TIP3    H231389   2.671   1.093   3.502
10482TIP3   OH231390   6.817   6.498   2.979
10482TIP3    H131391   6.731   6.508   2.938
10482TIP3    H231392   6.830   6.579   3.028
10483TIP3   OH231393   6.474   7.141   5.936
10483TIP3    H131394   6.388   7.138   5.895
10483TIP3    H231395   6.524   7.201   5.881
10484TIP3   OH231396   1.905   0.166   2.573
10484TIP3    H131397   1.864   0.087   2.536
10484TIP3    H231398   1.999   0.149   2.566
10485TIP3   OH231399   6.807   2.142   6.656
10485TIP3    H131400   6.798   2.217   6.713
10485TIP3    H231401   6.861   2.080   6.705
10486TIP3   OH231402   5.629   0.046   2.779
10486TIP3    H131403   5.565  -0.018   2.747
10486TIP3    H231404   5.576   0.117   2.816
10487TIP3   OH231405   1.492   1.058   3.780
10487TIP3    H131406   1.499   1.043   3.686
10487TIP3    H231407   1.398   1.056   3.798
10488TIP3   OH231408   0.937   1.361   6.507
10488TIP3    H131409   0.948   1.321   6.421
10488TIP3    H231410   0.854   1.408   6.502
10489TIP3   OH231411   0.628   4.849   2.834
10489TIP3    H131412   0.567   4.795   2.784
10489TIP3    H231413   0.572   4.906   2.887
10490TIP3   OH231414   5.075   4.916   5.883
10490TIP3    H131415   4.993   4.917   5.933
10490TIP3    H231416   5.135   4.970   5.935
10491TIP3   OH231417   1.716   5.671   0.948
10491TIP3    H131418   1.760   5.713   1.021
10491TIP3    H231419   1.631   5.716   0.942
10492TIP3   OH231420   6.970   5.802   0.602
10492TIP3    H131421   6.902   5.866   0.582
10492TIP3    H231422   6.933   5.718   0.576
10493TIP3   OH231423   2.719   2.896   0.261
10493TIP3    H131424   2.696   2.983   0.295
10493TIP3    H231425   2.725   2.841   0.339
10494TIP3   OH231426   0.218   1.153   3.328
10494TIP3    H131427   0.194   1.113   3.411
10494TIP3    H231428   0.141   1.205   3.304
10495TIP3   OH231429   0.427   0.639   2.494
10495TIP3    H131430   0.364   0.566   2.498
10495TIP3    H231431   0.408   0.681   2.410
10496TIP3   OH231432   7.587   0.648   1.425
10496TIP3    H131433   7.557   0.567   1.466
10496TIP3    H231434   7.573   0.634   1.331
10497TIP3   OH231435   4.611   2.549   2.150
10497TIP3    H131436   4.529   2.572   2.194
10497TIP3    H231437   4.635   2.627   2.101
10498TIP3   OH231438   1.703   7.170   6.097
10498TIP3    H131439   1.689   7.089   6.145
10498TIP3    H231440   1.664   7.154   6.011
10499TIP3   OH231441   0.080   1.607   6.064
10499TIP3    H131442   0.165   1.645   6.043
10499TIP3    H231443   0.073   1.531   6.006
10500TIP3   OH231444   4.667   2.266   2.616
10500TIP3    H131445   4.588   2.317   2.600
10500TIP3    H231446   4.638   2.175   2.611
10501TIP3   OH231447   0.766   5.232   3.349
10501TIP3    H131448   0.743   5.153   3.398
10501TIP3    H231449   0.831   5.202   3.285
10502TIP3   OH231450   1.658   6.988   0.163
10502TIP3    H131451   1.657   6.923   0.234
10502TIP3    H231452   1.568   6.990   0.131
10503TIP3   OH231453   0.555   3.269   2.171
10503TIP3    H131454   0.604   3.329   2.114
10503TIP3    H231455   0.557   3.312   2.257
10504TIP3   OH231456   0.240   7.166   6.257
10504TIP3    H131457   0.150   7.187   6.284
10504TIP3    H231458   0.260   7.229   6.188
10505TIP3   OH231459   1.043   7.810   5.461
10505TIP3    H131460   1.020   7.755   5.387
10505TIP3    H231461   1.064   7.749   5.531
10506TIP3   OH231462   5.984   3.796   2.512
10506TIP3    H131463   6.058   3.763   2.461
10506TIP3    H231464   5.968   3.728   2.577
10507TIP3   OH231465   5.448   3.320   4.732
10507TIP3    H131466   5.369   3.274   4.761
10507TIP3    H231467   5.419   3.375   4.660
10508TIP3   OH231468   7.919   5.296   0.621
10508TIP3    H131469   7.975   5.241   0.675
10508TIP3    H231470   7.831   5.261   0.635
10509TIP3   OH231471   2.636   0.502   1.834
10509TIP3    H131472   2.606   0.592   1.818
10509TIP3    H231473   2.581   0.471   1.906
10510TIP3   OH231474   5.574   1.459   1.853
10510TIP3    H131475   5.604   1.486   1.766
10510TIP3    H231476   5.625   1.380   1.873
10511TIP3   OH231477   7.070   1.700   4.057
10511TIP3    H131478   7.093   1.703   4.150
10511TIP3    H231479   7.077   1.607   4.034
10512TIP3   OH231480   4.072   0.640   0.246
10512TIP3    H131481   4.053   0.547   0.241
10512TIP3    H231482   4.165   0.645   0.264
10513TIP3   OH231483   0.620   3.740   2.075
10513TIP3    H131484   0.578   3.717   2.158
10513TIP3    H231485   0.643   3.656   2.036
10514TIP3   OH231486   2.431   2.942   2.791
10514TIP3    H131487   2.511   2.974   2.833
10514TIP3    H231488   2.459   2.866   2.740
10515TIP3   OH231489   8.029   1.202   2.762
10515TIP3    H131490   7.962   1.152   2.809
10515TIP3    H231491   8.074   1.251   2.831
10516TIP3   OH231492   5.930   4.997   2.672
10516TIP3    H131493   5.975   5.028   2.593
10516TIP3    H231494   5.847   4.961   2.639
10517TIP3   OH231495   7.157   0.535   0.199
10517TIP3    H131496   7.169   0.528   0.294
10517TIP3    H231497   7.244   0.521   0.162
10518TIP3   OH231498   2.271   5.667   6.569
10518TIP3    H131499   2.309   5.638   6.486
10518TIP3    H231500   2.224   5.747   6.547
10519TIP3   OH231501   2.220   3.437   3.105
10519TIP3    H131502   2.306   3.452   3.065
10519TIP3    H231503   2.233   3.453   3.198
10520TIP3   OH231504   7.876   1.141   6.664
10520TIP3    H131505   7.877   1.194   6.584
10520TIP3    H231506   7.892   1.204   6.734
10521TIP3   OH231507   1.590   7.333   5.056
10521TIP3    H131508   1.563   7.242   5.046
10521TIP3    H231509   1.548   7.362   5.137
10522TIP3   OH231510   1.214   0.256   4.318
10522TIP3    H131511   1.142   0.221   4.370
10522TIP3    H231512   1.209   0.351   4.330
10523TIP3   OH231513   2.038   5.259   5.755
10523TIP3    H131514   2.016   5.169   5.731
10523TIP3    H231515   1.965   5.287   5.811
10524TIP3   OH231516   1.762   0.480   4.920
10524TIP3    H131517   1.762   0.497   5.015
10524TIP3    H231518   1.678   0.438   4.903
10525TIP3   OH231519   0.176   2.377   2.818
10525TIP3    H131520   0.169   2.409   2.728
10525TIP3    H231521   0.199   2.454   2.869
10526TIP3   OH231522   4.330   4.357   3.345
10526TIP3    H131523   4.298   4.345   3.435
10526TIP3    H231524   4.363   4.271   3.320
10527TIP3   OH231525   1.159   0.561   5.109
10527TIP3    H131526   1.137   0.469   5.118
10527TIP3    H231527   1.131   0.601   5.191
10528TIP3   OH231528   5.214   0.399   3.194
10528TIP3    H131529   5.228   0.313   3.232
10528TIP3    H231530   5.140   0.435   3.243
10529TIP3   OH231531   6.929   5.416   3.569
10529TIP3    H131532   6.984   5.376   3.502
10529TIP3    H231533   6.968   5.502   3.585
10530TIP3   OH231534   5.614   4.321   0.228
10530TIP3    H131535   5.677   4.393   0.227
10530TIP3    H231536   5.576   4.323   0.315
10531TIP3   OH231537   3.852   3.206   5.915
10531TIP3    H131538   3.820   3.124   5.953
10531TIP3    H231539   3.801   3.274   5.958
10532TIP3   OH231540   6.743   6.716   6.402
10532TIP3    H131541   6.655   6.738   6.431
10532TIP3    H231542   6.774   6.652   6.466
10533TIP3   OH231543   4.855   0.260   4.859
10533TIP3    H131544   4.827   0.243   4.949
10533TIP3    H231545   4.823   0.348   4.840
10534TIP3   OH231546   0.489   0.146   3.946
10534TIP3    H131547   0.571   0.178   3.910
10534TIP3    H231548   0.515   0.093   4.021
10535TIP3   OH231549   1.791   6.624   5.670
10535TIP3    H131550   1.711   6.676   5.667
10535TIP3    H231551   1.762   6.536   5.696
10536TIP3   OH231552   6.672   4.838   6.333
10536TIP3    H131553   6.629   4.912   6.374
10536TIP3    H231554   6.645   4.762   6.384
10537TIP3   OH231555   2.969   2.916   6.492
10537TIP3    H131556   3.007   2.972   6.425
10537TIP3    H231557   2.894   2.966   6.525
10538TIP3   OH231558   7.116   7.395   6.550
10538TIP3    H131559   7.184   7.395   6.482
10538TIP3    H231560   7.082   7.306   6.550
10539TIP3   OH231561   6.438   4.925   6.706
10539TIP3    H131562   6.422   4.993   6.771
10539TIP3    H231563   6.350   4.896   6.680
10540TIP3   OH231564   5.251   4.414   0.417
10540TIP3    H131565   5.272   4.505   0.394
10540TIP3    H231566   5.329   4.365   0.394
10541TIP3   OH231567   1.664   3.346   2.686
10541TIP3    H131568   1.757   3.332   2.705
10541TIP3    H231569   1.628   3.257   2.683
10542TIP3   OH231570   6.256   1.558   5.864
10542TIP3    H131571   6.169   1.562   5.825
10542TIP3    H231572   6.306   1.502   5.805
10543TIP3   OH231573   5.313   4.528   1.651
10543TIP3    H131574   5.347   4.505   1.738
10543TIP3    H231575   5.382   4.499   1.591
10544TIP3   OH231576   4.507   5.738   1.301
10544TIP3    H131577   4.455   5.664   1.332
10544TIP3    H231578   4.585   5.698   1.263
10545TIP3   OH231579   4.204   3.912   2.402
10545TIP3    H131580   4.280   3.887   2.455
10545TIP3    H231581   4.241   3.937   2.317
10546TIP3   OH231582   0.939   6.924   5.020
10546TIP3    H131583   0.863   6.888   5.068
10546TIP3    H231584   1.014   6.902   5.075
10547TIP3   OH231585   5.619   7.692   1.627
10547TIP3    H131586   5.640   7.744   1.549
10547TIP3    H231587   5.577   7.754   1.686
10548TIP3   OH231588   4.492   6.232   6.419
10548TIP3    H131589   4.445   6.151   6.397
10548TIP3    H231590   4.430   6.302   6.401
10549TIP3   OH231591   0.844   5.061   2.846
10549TIP3    H131592   0.881   5.074   2.758
10549TIP3    H231593   0.762   5.015   2.831
10550TIP3   OH231594   6.657   0.602   2.778
10550TIP3    H131595   6.741   0.637   2.808
10550TIP3    H231596   6.625   0.549   2.851
10551TIP3   OH231597   3.791   1.429   3.416
10551TIP3    H131598   3.736   1.375   3.472
10551TIP3    H231599   3.767   1.403   3.327
10552TIP3   OH231600   1.771   4.603   0.078
10552TIP3    H131601   1.771   4.682   0.132
10552TIP3    H231602   1.843   4.551   0.112
10553TIP3   OH231603   6.799   4.142   0.440
10553TIP3    H131604   6.740   4.216   0.425
10553TIP3    H231605   6.847   4.133   0.358
10554TIP3   OH231606   5.745   4.793   3.135
10554TIP3    H131607   5.817   4.856   3.137
10554TIP3    H231608   5.788   4.708   3.137
10555TIP3   OH231609   4.789   0.647   3.660
10555TIP3    H131610   4.770   0.736   3.629
10555TIP3    H231611   4.716   0.595   3.629
10556TIP3   OH231612   8.224   1.789   0.883
10556TIP3    H131613   8.148   1.828   0.840
10556TIP3    H231614   8.274   1.750   0.812
10557TIP3   OH231615   5.023   5.037   3.720
10557TIP3    H131616   5.033   4.993   3.636
10557TIP3    H231617   5.080   5.113   3.715
10558TIP3   OH231618   2.813   3.240   0.193
10558TIP3    H131619   2.777   3.177   0.131
10558TIP3    H231620   2.741   3.300   0.211
10559TIP3   OH231621   3.652   2.479   3.836
10559TIP3    H131622   3.674   2.494   3.744
10559TIP3    H231623   3.621   2.563   3.867
10560TIP3   OH231624   0.954   6.138   2.533
10560TIP3    H131625   0.982   6.230   2.535
10560TIP3    H231626   0.876   6.136   2.588
10561TIP3   OH231627   6.500   7.360   2.895
10561TIP3    H131628   6.446   7.379   2.818
10561TIP3    H231629   6.544   7.443   2.915
10562TIP3   OH231630   1.298   5.174   2.910
10562TIP3    H131631   1.335   5.254   2.947
10562TIP3    H231632   1.203   5.188   2.911
10563TIP3   OH231633   3.862   0.605   3.488
10563TIP3    H131634   3.949   0.567   3.474
10563TIP3    H231635   3.879   0.689   3.530
10564TIP3   OH231636   6.000   3.970   0.571
10564TIP3    H131637   6.025   3.877   0.563
10564TIP3    H231638   5.986   3.982   0.665
10565TIP3   OH231639   2.183   2.043   3.575
10565TIP3    H131640   2.098   2.002   3.559
10565TIP3    H231641   2.200   2.028   3.668
10566TIP3   OH231642   6.252   2.838   1.537
10566TIP3    H131643   6.335   2.797   1.513
10566TIP3    H231644   6.263   2.930   1.514
10567TIP3   OH231645   4.357   7.104   5.207
10567TIP3    H131646   4.398   7.151   5.280
10567TIP3    H231647   4.421   7.037   5.184
10568TIP3   OH231648   0.986   5.604   4.497
10568TIP3    H131649   1.007   5.597   4.590
10568TIP3    H231650   0.979   5.513   4.468
10569TIP3   OH231651   2.920   4.221   2.666
10569TIP3    H131652   2.900   4.287   2.600
10569TIP3    H231653   2.992   4.258   2.716
10570TIP3   OH231654   5.791   5.937   1.166
10570TIP3    H131655   5.848   5.860   1.168
10570TIP3    H231656   5.711   5.908   1.210
10571TIP3   OH231657   0.162   3.384   2.687
10571TIP3    H131658   0.094   3.350   2.744
10571TIP3    H231659   0.118   3.449   2.633
10572TIP3   OH231660   7.889   4.575   4.450
10572TIP3    H131661   7.803   4.546   4.420
10572TIP3    H231662   7.893   4.667   4.426
10573TIP3   OH231663   7.646   1.369   1.859
10573TIP3    H131664   7.651   1.334   1.770
10573TIP3    H231665   7.726   1.422   1.868
10574TIP3   OH231666   4.887   0.345   3.192
10574TIP3    H131667   4.814   0.285   3.204
10574TIP3    H231668   4.935   0.341   3.275
10575TIP3   OH231669   7.285   2.942   6.153
10575TIP3    H131670   7.280   2.943   6.249
10575TIP3    H231671   7.195   2.959   6.124
10576TIP3   OH231672   3.274   0.250   4.277
10576TIP3    H131673   3.218   0.189   4.326
10576TIP3    H231674   3.256   0.230   4.185
10577TIP3   OH231675   4.527   7.629   5.386
10577TIP3    H131676   4.531   7.542   5.346
10577TIP3    H231677   4.445   7.667   5.355
10578TIP3   OH231678   6.436   2.083   2.010
10578TIP3    H131679   6.352   2.102   1.967
10578TIP3    H231680   6.413   2.068   2.102
10579TIP3   OH231681   5.499   1.273   6.053
10579TIP3    H131682   5.594   1.272   6.064
10579TIP3    H231683   5.472   1.183   6.071
10580TIP3   OH231684   8.026   2.376   1.596
10580TIP3    H131685   8.081   2.450   1.569
10580TIP3    H231686   8.030   2.316   1.522
10581TIP3   OH231687   2.394   5.978   1.123
10581TIP3    H131688   2.365   6.050   1.067
10581TIP3    H231689   2.314   5.929   1.142
10582TIP3   OH231690   0.311   6.538   0.009
10582TIP3    H131691   0.253   6.582  -0.053
10582TIP3    H231692   0.291   6.578   0.093
10583TIP3   OH231693   6.744   4.974   0.326
10583TIP3    H131694   6.756   5.053   0.378
10583TIP3    H231695   6.649   4.963   0.322
10584TIP3   OH231696   3.483   6.240   6.007
10584TIP3    H131697   3.452   6.212   6.094
10584TIP3    H231698   3.478   6.336   6.010
10585TIP3   OH231699   7.079   5.648   3.567
10585TIP3    H131700   7.133   5.672   3.642
10585TIP3    H231701   7.003   5.706   3.572
10586TIP3   OH231702   0.721   4.297   0.777
10586TIP3    H131703   0.710   4.323   0.685
10586TIP3    H231704   0.800   4.344   0.806
10587TIP3   OH231705   1.791   6.795   5.006
10587TIP3    H131706   1.827   6.708   4.987
10587TIP3    H231707   1.838   6.853   4.946
10588TIP3   OH231708   2.176   1.735   2.056
10588TIP3    H131709   2.096   1.743   2.004
10588TIP3    H231710   2.197   1.825   2.082
10589TIP3   OH231711   0.247   4.038   6.133
10589TIP3    H131712   0.315   4.049   6.199
10589TIP3    H231713   0.189   3.971   6.169
10590TIP3   OH231714   6.462   5.477   1.401
10590TIP3    H131715   6.450   5.520   1.317
10590TIP3    H231716   6.556   5.480   1.417
10591TIP3   OH231717   2.192   3.106   1.929
10591TIP3    H131718   2.209   3.046   2.002
10591TIP3    H231719   2.278   3.119   1.889
10592TIP3   OH231720   0.344   5.805   0.567
10592TIP3    H131721   0.275   5.832   0.506
10592TIP3    H231722   0.298   5.789   0.649
10593TIP3   OH231723   6.225   4.912   3.750
10593TIP3    H131724   6.190   4.983   3.697
10593TIP3    H231725   6.155   4.892   3.813
10594TIP3   OH231726   6.011   7.449   2.582
10594TIP3    H131727   6.030   7.496   2.501
10594TIP3    H231728   6.019   7.516   2.650
10595TIP3   OH231729   6.883   3.031   2.394
10595TIP3    H131730   6.876   3.082   2.313
10595TIP3    H231731   6.807   3.058   2.446
10596TIP3   OH231732   3.900   3.986   4.996
10596TIP3    H131733   3.908   3.934   4.917
10596TIP3    H231734   3.818   4.034   4.985
10597TIP3   OH231735   7.854   6.368   1.023
10597TIP3    H131736   7.939   6.347   1.062
10597TIP3    H231737   7.875   6.421   0.946
10598TIP3   OH231738   1.862   5.413   1.428
10598TIP3    H131739   1.925   5.479   1.400
10598TIP3    H231740   1.792   5.418   1.363
10599TIP3   OH231741   2.214   3.657   4.084
10599TIP3    H131742   2.272   3.590   4.120
10599TIP3    H231743   2.138   3.609   4.051
10600TIP3   OH231744   3.190   7.792   2.233
10600TIP3    H131745   3.252   7.725   2.263
10600TIP3    H231746   3.121   7.792   2.300
10601TIP3   OH231747   0.975   3.930   0.576
10601TIP3    H131748   1.066   3.932   0.603
10601TIP3    H231749   0.926   3.918   0.658
10602TIP3   OH231750   0.232   4.345   3.916
10602TIP3    H131751   0.226   4.267   3.971
10602TIP3    H231752   0.286   4.318   3.842
10603TIP3   OH231753   3.105   2.103   0.855
10603TIP3    H131754   3.044   2.158   0.806
10603TIP3    H231755   3.053   2.070   0.929
10604TIP3   OH231756   1.263   2.283   6.365
10604TIP3    H131757   1.168   2.270   6.361
10604TIP3    H231758   1.283   2.283   6.459
10605TIP3   OH231759   7.368   2.222   5.424
10605TIP3    H131760   7.328   2.275   5.354
10605TIP3    H231761   7.437   2.173   5.380
10606TIP3   OH231762   7.424   6.449   3.725
10606TIP3    H131763   7.476   6.499   3.788
10606TIP3    H231764   7.380   6.516   3.672
10607TIP3   OH231765   4.564   4.208   3.534
10607TIP3    H131766   4.499   4.233   3.468
10607TIP3    H231767   4.599   4.292   3.566
10608TIP3   OH231768   8.235   5.800   3.447
10608TIP3    H131769   8.274   5.765   3.367
10608TIP3    H231770   8.176   5.731   3.477
10609TIP3   OH231771   3.923   1.711   2.088
10609TIP3    H131772   3.951   1.624   2.058
10609TIP3    H231773   3.979   1.728   2.164
10610TIP3   OH231774   6.876   5.525   6.598
10610TIP3    H131775   6.884   5.474   6.517
10610TIP3    H231776   6.941   5.595   6.589
10611TIP3   OH231777   4.284   4.301   0.730
10611TIP3    H131778   4.314   4.313   0.640
10611TIP3    H231779   4.208   4.358   0.738
10612TIP3   OH231780   6.025   1.954   0.558
10612TIP3    H131781   6.031   1.863   0.587
10612TIP3    H231782   5.931   1.971   0.550
10613TIP3   OH231783   5.397   2.029   6.705
10613TIP3    H131784   5.317   2.079   6.688
10613TIP3    H231785   5.468   2.090   6.684
10614TIP3   OH231786   5.668   5.710   1.727
10614TIP3    H131787   5.594   5.650   1.737
10614TIP3    H231788   5.662   5.768   1.803
10615TIP3   OH231789   2.887   1.244   6.376
10615TIP3    H131790   2.878   1.307   6.305
10615TIP3    H231791   2.980   1.244   6.397
10616TIP3   OH231792   7.624   0.996   2.774
10616TIP3    H131793   7.618   1.090   2.791
10616TIP3    H231794   7.534   0.966   2.774
10617TIP3   OH231795   0.069   4.055   5.593
10617TIP3    H131796   0.118   4.105   5.527
10617TIP3    H231797   0.127   3.983   5.616
10618TIP3   OH231798   6.956   3.420   0.904
10618TIP3    H131799   6.980   3.506   0.939
10618TIP3    H231800   7.013   3.408   0.828
10619TIP3   OH231801   1.736   2.222   5.769
10619TIP3    H131802   1.646   2.192   5.780
10619TIP3    H231803   1.761   2.193   5.681
10620TIP3   OH231804   7.009   5.351   1.502
10620TIP3    H131805   6.997   5.266   1.546
10620TIP3    H231806   7.056   5.330   1.421
10621TIP3   OH231807   1.808   0.853   6.757
10621TIP3    H131808   1.725   0.841   6.804
10621TIP3    H231809   1.818   0.948   6.751
10622TIP3   OH231810   2.801   7.532   3.844
10622TIP3    H131811   2.765   7.605   3.795
10622TIP3    H231812   2.895   7.537   3.832
10623TIP3   OH231813   1.712   4.342   3.576
10623TIP3    H131814   1.738   4.343   3.668
10623TIP3    H231815   1.688   4.251   3.559
10624TIP3   OH231816   0.448   6.093   0.654
10624TIP3    H131817   0.509   6.166   0.669
10624TIP3    H231818   0.364   6.124   0.688
10625TIP3   OH231819   0.477   2.211   3.592
10625TIP3    H131820   0.475   2.131   3.540
10625TIP3    H231821   0.424   2.192   3.669
10626TIP3   OH231822   5.691   3.760   1.212
10626TIP3    H131823   5.602   3.796   1.214
10626TIP3    H231824   5.731   3.799   1.135
10627TIP3   OH231825   5.409   6.864   1.199
10627TIP3    H131826   5.365   6.795   1.249
10627TIP3    H231827   5.502   6.851   1.216
10628TIP3   OH231828   6.755   5.494   5.540
10628TIP3    H131829   6.793   5.408   5.559
10628TIP3    H231830   6.696   5.510   5.614
10629TIP3   OH231831   6.445   6.395   4.807
10629TIP3    H131832   6.351   6.403   4.791
10629TIP3    H231833   6.486   6.433   4.729
10630TIP3   OH231834   7.820   2.500   4.339
10630TIP3    H131835   7.785   2.420   4.379
10630TIP3    H231836   7.885   2.532   4.401
10631TIP3   OH231837   5.353   0.124   1.407
10631TIP3    H131838   5.279   0.105   1.465
10631TIP3    H231839   5.398   0.197   1.449
10632TIP3   OH231840   0.865   3.134   5.247
10632TIP3    H131841   0.855   3.107   5.156
10632TIP3    H231842   0.778   3.125   5.285
10633TIP3   OH231843   1.044   6.396   4.245
10633TIP3    H131844   0.982   6.423   4.313
10633TIP3    H231845   1.112   6.349   4.292
10634TIP3   OH231846   0.959   7.351   4.588
10634TIP3    H131847   0.987   7.293   4.517
10634TIP3    H231848   1.001   7.315   4.666
10635TIP3   OH231849   7.201   2.655   5.968
10635TIP3    H131850   7.182   2.664   5.875
10635TIP3    H231851   7.163   2.733   6.008
10636TIP3   OH231852   5.870   5.590   6.695
10636TIP3    H131853   5.881   5.519   6.758
10636TIP3    H231854   5.777   5.614   6.702
10637TIP3   OH231855   4.803   0.677   3.179
10637TIP3    H131856   4.896   0.687   3.160
10637TIP3    H231857   4.759   0.722   3.108
10638TIP3   OH231858   5.626   7.476   5.209
10638TIP3    H131859   5.628   7.391   5.253
10638TIP3    H231860   5.713   7.485   5.171
10639TIP3   OH231861   1.047   5.296   2.628
10639TIP3    H131862   1.055   5.374   2.683
10639TIP3    H231863   1.133   5.287   2.586
10640TIP3   OH231864   3.933   0.454   3.232
10640TIP3    H131865   3.957   0.545   3.216
10640TIP3    H231866   3.837   0.454   3.235
10641TIP3   OH231867   7.272   2.412   0.692
10641TIP3    H131868   7.224   2.341   0.650
10641TIP3    H231869   7.284   2.384   0.782
10642TIP3   OH231870   1.473   7.300   6.325
10642TIP3    H131871   1.561   7.266   6.310
10642TIP3    H231872   1.484   7.395   6.328
10643TIP3   OH231873   6.902   1.804   1.922
10643TIP3    H131874   6.909   1.762   2.008
10643TIP3    H231875   6.952   1.885   1.932
10644TIP3   OH231876   2.116   4.148   6.745
10644TIP3    H131877   2.103   4.109   6.832
10644TIP3    H231878   2.207   4.128   6.723
10645TIP3   OH231879   8.036   0.408   6.789
10645TIP3    H131880   8.085   0.437   6.712
10645TIP3    H231881   7.954   0.373   6.753
10646TIP3   OH231882   4.114   7.644   4.672
10646TIP3    H131883   4.058   7.585   4.621
10646TIP3    H231884   4.141   7.712   4.610
10647TIP3   OH231885   5.423   4.446   1.903
10647TIP3    H131886   5.504   4.480   1.941
10647TIP3    H231887   5.436   4.351   1.901
10648TIP3   OH231888   6.309   1.378   3.486
10648TIP3    H131889   6.313   1.306   3.423
10648TIP3    H231890   6.274   1.339   3.566
10649TIP3   OH231891   4.101   3.867   5.709
10649TIP3    H131892   4.061   3.891   5.625
10649TIP3    H231893   4.080   3.775   5.720
10650TIP3   OH231894   8.230   3.322   6.753
10650TIP3    H131895   8.202   3.404   6.712
10650TIP3    H231896   8.156   3.263   6.741
10651TIP3   OH231897   7.795   3.990   3.108
10651TIP3    H131898   7.703   3.967   3.118
10651TIP3    H231899   7.842   3.917   3.149
10652TIP3   OH231900   1.713   5.277   5.138
10652TIP3    H131901   1.785   5.336   5.164
10652TIP3    H231902   1.755   5.212   5.082
10653TIP3   OH231903   6.951   3.299   1.164
10653TIP3    H131904   6.991   3.373   1.209
10653TIP3    H231905   6.974   3.312   1.072
10654TIP3   OH231906   3.825   4.214   6.049
10654TIP3    H131907   3.850   4.257   6.130
10654TIP3    H231908   3.853   4.275   5.980
10655TIP3   OH231909   8.039   0.543   0.308
10655TIP3    H131910   8.056   0.625   0.354
10655TIP3    H231911   8.113   0.535   0.247
10656TIP3   OH231912   7.875   0.245   2.349
10656TIP3    H131913   7.828   0.165   2.370
10656TIP3    H231914   7.967   0.221   2.355
10657TIP3   OH231915   6.370   7.763   1.144
10657TIP3    H131916   6.290   7.710   1.147
10657TIP3    H231917   6.440   7.703   1.169
10658TIP3   OH231918   1.387   4.081   5.341
10658TIP3    H131919   1.356   3.990   5.338
10658TIP3    H231920   1.364   4.117   5.255
10659TIP3   OH231921   0.978   5.762   3.976
10659TIP3    H131922   0.941   5.791   3.893
10659TIP3    H231923   1.042   5.829   3.998
10660TIP3   OH231924   4.971   6.395   2.063
10660TIP3    H131925   5.042   6.440   2.018
10660TIP3    H231926   4.921   6.352   1.993
10661TIP3   OH231927   2.289   1.212   5.070
10661TIP3    H131928   2.344   1.180   4.998
10661TIP3    H231929   2.203   1.227   5.030
10662TIP3   OH231930   4.002   3.139   1.095
10662TIP3    H131931   3.971   3.058   1.137
10662TIP3    H231932   3.922   3.183   1.065
10663TIP3   OH231933   0.919   0.205   1.735
10663TIP3    H131934   0.872   0.274   1.689
10663TIP3    H231935   0.858   0.132   1.739
10664TIP3   OH231936   2.020   3.185   3.956
10664TIP3    H131937   1.995   3.168   3.865
10664TIP3    H231938   1.982   3.112   4.005
10665TIP3   OH231939   5.906   4.742   2.085
10665TIP3    H131940   5.927   4.719   1.995
10665TIP3    H231941   5.884   4.835   2.082
10666TIP3   OH231942   7.271   1.779   0.950
10666TIP3    H131943   7.226   1.696   0.968
10666TIP3    H231944   7.233   1.841   1.012
10667TIP3   OH231945   4.607   3.415   2.618
10667TIP3    H131946   4.621   3.379   2.705
10667TIP3    H231947   4.677   3.376   2.565
10668TIP3   OH231948   4.497   3.732   2.854
10668TIP3    H131949   4.431   3.800   2.840
10668TIP3    H231950   4.447   3.659   2.891
10669TIP3   OH231951   6.295   6.644   6.329
10669TIP3    H131952   6.280   6.736   6.309
10669TIP3    H231953   6.360   6.645   6.400
10670TIP3   OH231954   1.837   5.602   3.682
10670TIP3    H131955   1.846   5.516   3.724
10670TIP3    H231956   1.743   5.610   3.666
10671TIP3   OH231957   7.320   7.345   0.524
10671TIP3    H131958   7.391   7.401   0.554
10671TIP3    H231959   7.360   7.260   0.510
10672TIP3   OH231960   6.346   0.756   1.156
10672TIP3    H131961   6.331   0.775   1.064
10672TIP3    H231962   6.263   0.776   1.199
10673TIP3   OH231963   0.413   4.839   4.307
10673TIP3    H131964   0.381   4.898   4.376
10673TIP3    H231965   0.337   4.784   4.287
10674TIP3   OH231966   6.102   1.401   3.688
10674TIP3    H131967   6.131   1.337   3.752
10674TIP3    H231968   6.062   1.471   3.740
10675TIP3   OH231969   0.544   5.987   4.903
10675TIP3    H131970   0.590   6.041   4.967
10675TIP3    H231971   0.500   6.050   4.846
10676TIP3   OH231972   6.601   0.964   2.958
10676TIP3    H131973   6.506   0.971   2.969
10676TIP3    H231974   6.637   1.029   3.018
10677TIP3   OH231975   0.757  -0.005   1.742
10677TIP3    H131976   0.719  -0.045   1.664
10677TIP3    H231977   0.689  -0.012   1.809
10678TIP3   OH231978   4.472   1.767   0.847
10678TIP3    H131979   4.477   1.723   0.932
10678TIP3    H231980   4.562   1.791   0.826
10679TIP3   OH231981   5.187   3.549   2.511
10679TIP3    H131982   5.161   3.638   2.488
10679TIP3    H231983   5.250   3.524   2.443
10680TIP3   OH231984   1.659   4.706   5.566
10680TIP3    H131985   1.634   4.797   5.552
10680TIP3    H231986   1.653   4.666   5.479
10681TIP3   OH231987   1.449   0.783   6.681
10681TIP3    H131988   1.373   0.774   6.624
10681TIP3    H231989   1.524   0.766   6.625
10682TIP3   OH231990   2.365   6.943   5.505
10682TIP3    H131991   2.304   6.870   5.511
10682TIP3    H231992   2.399   6.954   5.594
10683TIP3   OH231993   4.359   5.568   3.019
10683TIP3    H131994   4.277   5.521   3.030
10683TIP3    H231995   4.427   5.500   3.025
10684TIP3   OH231996   5.501   1.799   6.572
10684TIP3    H131997   5.458   1.846   6.644
10684TIP3    H231998   5.483   1.854   6.495
10685TIP3   OH231999   0.742   0.448   0.778
10685TIP3    H132000   0.804   0.520   0.763
10685TIP3    H232001   0.682   0.481   0.845
10686TIP3   OH232002   7.121   2.249   2.284
10686TIP3    H132003   7.168   2.211   2.358
10686TIP3    H232004   7.054   2.305   2.324
10687TIP3   OH232005   7.605   3.732   0.393
10687TIP3    H132006   7.651   3.650   0.377
10687TIP3    H232007   7.517   3.717   0.359
10688TIP3   OH232008   5.669   0.945   4.751
10688TIP3    H132009   5.746   0.995   4.723
10688TIP3    H232010   5.706   0.873   4.804
10689TIP3   OH232011   7.153   0.487   1.012
10689TIP3    H132012   7.230   0.439   1.042
10689TIP3    H232013   7.117   0.434   0.941
10690TIP3   OH232014   0.167   7.367   3.830
10690TIP3    H132015   0.231   7.297   3.841
10690TIP3    H232016   0.151   7.399   3.919
10691TIP3   OH232017   5.114   2.656   1.308
10691TIP3    H132018   5.073   2.740   1.327
10691TIP3    H232019   5.082   2.632   1.221
10692TIP3   OH232020   5.002   6.664   2.948
10692TIP3    H132021   5.050   6.740   2.915
10692TIP3    H232022   4.975   6.617   2.869
10693TIP3   OH232023   3.492   1.882   0.421
10693TIP3    H132024   3.529   1.892   0.333
10693TIP3    H232025   3.411   1.933   0.419
10694TIP3   OH232026   2.017   5.774   0.670
10694TIP3    H132027   2.024   5.851   0.726
10694TIP3    H232028   1.989   5.809   0.585
10695TIP3   OH232029   5.736   0.579   3.968
10695TIP3    H132030   5.652   0.603   3.927
10695TIP3    H232031   5.730   0.616   4.056
10696TIP3   OH232032   5.978   2.787   1.508
10696TIP3    H132033   6.030   2.839   1.570
10696TIP3    H232034   5.889   2.821   1.518
10697TIP3   OH232035   2.479   0.036   2.651
10697TIP3    H132036   2.568   0.003   2.655
10697TIP3    H232037   2.448   0.014   2.564
10698TIP3   OH232038   1.299   6.164   3.798
10698TIP3    H132039   1.254   6.211   3.728
10698TIP3    H232040   1.387   6.203   3.800
10699TIP3   OH232041   6.705   7.677   4.358
10699TIP3    H132042   6.680   7.741   4.425
10699TIP3    H232043   6.797   7.696   4.342
10700TIP3   OH232044   3.300   7.106   0.935
10700TIP3    H132045   3.307   7.096   0.840
10700TIP3    H232046   3.215   7.149   0.948
10701TIP3   OH232047   3.074   1.906   5.529
10701TIP3    H132048   3.108   1.901   5.618
10701TIP3    H232049   2.995   1.852   5.531
10702TIP3   OH232050   8.120   1.963   6.293
10702TIP3    H132051   8.118   1.870   6.268
10702TIP3    H232052   8.053   2.003   6.237
10703TIP3   OH232053   3.525   6.940   3.838
10703TIP3    H132054   3.619   6.952   3.833
10703TIP3    H232055   3.494   6.955   3.748
10704TIP3   OH232056   7.383   4.312   0.261
10704TIP3    H132057   7.409   4.263   0.339
10704TIP3    H232058   7.288   4.323   0.270
10705TIP3   OH232059   3.927   3.984   2.315
10705TIP3    H132060   4.020   3.963   2.303
10705TIP3    H232061   3.883   3.900   2.314
10706TIP3   OH232062   6.664   2.447   3.043
10706TIP3    H132063   6.672   2.541   3.027
10706TIP3    H232064   6.750   2.411   3.021
10707TIP3   OH232065   3.932   4.392   2.491
10707TIP3    H132066   4.001   4.344   2.445
10707TIP3    H232067   3.902   4.456   2.427
10708TIP3   OH232068   7.541   7.815   5.848
10708TIP3    H132069   7.590   7.886   5.888
10708TIP3    H232070   7.581   7.735   5.881
10709TIP3   OH232071   8.205   6.129   4.030
10709TIP3    H132072   8.227   6.205   3.976
10709TIP3    H232073   8.231   6.153   4.118
10710TIP3   OH232074   0.646   5.233   4.291
10710TIP3    H132075   0.657   5.153   4.240
10710TIP3    H232076   0.687   5.215   4.375
10711TIP3   OH232077   3.346   2.288   1.208
10711TIP3    H132078   3.412   2.220   1.192
10711TIP3    H232079   3.309   2.306   1.122
10712TIP3   OH232080   5.507   6.645   2.602
10712TIP3    H132081   5.567   6.629   2.675
10712TIP3    H232082   5.564   6.664   2.528
10713TIP3   OH232083   7.627   4.301   2.016
10713TIP3    H132084   7.553   4.328   2.071
10713TIP3    H232085   7.605   4.331   1.929
10714TIP3   OH232086   7.604   1.450   3.954
10714TIP3    H132087   7.643   1.528   3.914
10714TIP3    H232088   7.619   1.380   3.890
10715TIP3   OH232089   1.032   4.456   2.375
10715TIP3    H132090   1.081   4.516   2.431
10715TIP3    H232091   0.940   4.469   2.400
10716TIP3   OH232092   4.336   3.856   0.042
10716TIP3    H132093   4.255   3.808   0.063
10716TIP3    H232094   4.402   3.817   0.099
10717TIP3   OH232095   5.373   4.124   5.730
10717TIP3    H132096   5.371   4.193   5.664
10717TIP3    H232097   5.282   4.119   5.762
10718TIP3   OH232098   3.011   0.455   0.860
10718TIP3    H132099   2.978   0.430   0.773
10718TIP3    H232100   2.943   0.426   0.921
10719TIP3   OH232101   5.974   3.515   1.925
10719TIP3    H132102   6.014   3.428   1.920
10719TIP3    H232103   5.882   3.497   1.943
10720TIP3   OH232104   1.085   4.884   0.936
10720TIP3    H132105   1.002   4.896   0.890
10720TIP3    H232106   1.087   4.790   0.956
10721TIP3   OH232107   1.387   3.012   0.771
10721TIP3    H132108   1.402   3.019   0.866
10721TIP3    H232109   1.432   2.932   0.745
10722TIP3   OH232110   6.317   6.965   3.459
10722TIP3    H132111   6.332   6.990   3.550
10722TIP3    H232112   6.397   6.919   3.434
10723TIP3   OH232113   8.041   4.368   1.773
10723TIP3    H132114   7.984   4.443   1.758
10723TIP3    H232115   8.029   4.348   1.866
10724TIP3   OH232116   6.142   2.387   3.936
10724TIP3    H132117   6.057   2.391   3.980
10724TIP3    H232118   6.206   2.384   4.008
10725TIP3   OH232119   4.737   0.762   6.329
10725TIP3    H132120   4.656   0.762   6.277
10725TIP3    H232121   4.805   0.736   6.267
10726TIP3   OH232122   4.940   6.504   0.922
10726TIP3    H132123   4.848   6.524   0.906
10726TIP3    H232124   4.949   6.501   1.017
10727TIP3   OH232125   0.871   0.955   5.703
10727TIP3    H132126   0.836   0.943   5.615
10727TIP3    H232127   0.947   0.897   5.708
10728TIP3   OH232128   3.685   3.202   5.441
10728TIP3    H132129   3.646   3.144   5.376
10728TIP3    H232130   3.611   3.233   5.493
10729TIP3   OH232131   2.528   0.944   0.987
10729TIP3    H132132   2.604   0.885   0.989
10729TIP3    H232133   2.556   1.019   1.039
10730TIP3   OH232134   6.437   3.921   4.670
10730TIP3    H132135   6.343   3.915   4.687
10730TIP3    H232136   6.478   3.879   4.746
10731TIP3   OH232137   2.944   7.150   5.432
10731TIP3    H132138   2.931   7.082   5.498
10731TIP3    H232139   2.856   7.181   5.411
10732TIP3   OH232140   1.537   3.122   3.240
10732TIP3    H132141   1.490   3.205   3.256
10732TIP3    H232142   1.477   3.054   3.271
10733TIP3   OH232143   1.935   7.619   4.392
10733TIP3    H132144   1.841   7.617   4.410
10733TIP3    H232145   1.975   7.577   4.469
10734TIP3   OH232146   6.189   5.189   5.189
10734TIP3    H132147   6.176   5.095   5.199
10734TIP3    H232148   6.238   5.198   5.108
10735TIP3   OH232149   4.317   7.221   4.101
10735TIP3    H132150   4.299   7.305   4.143
10735TIP3    H232151   4.345   7.243   4.013
10736TIP3   OH232152   3.056   7.582   4.443
10736TIP3    H132153   3.058   7.618   4.532
10736TIP3    H232154   3.146   7.553   4.427
10737TIP3   OH232155   0.051   4.049   5.189
10737TIP3    H132156  -0.030   4.089   5.220
10737TIP3    H232157   0.028   4.012   5.103
10738TIP3   OH232158   4.712   7.355   2.186
10738TIP3    H132159   4.778   7.415   2.151
10738TIP3    H232160   4.655   7.411   2.240
10739TIP3   OH232161   6.364   3.039   1.792
10739TIP3    H132162   6.382   3.086   1.711
10739TIP3    H232163   6.438   2.980   1.804
10740TIP3   OH232164   5.840   5.876   1.964
10740TIP3    H132165   5.745   5.861   1.963
10740TIP3    H232166   5.851   5.960   2.008
10741TIP3   OH232167   3.634   1.584   3.240
10741TIP3    H132168   3.540   1.584   3.257
10741TIP3    H232169   3.651   1.499   3.199
10742TIP3   OH232170   1.108   5.522   3.957
10742TIP3    H132171   1.184   5.558   3.910
10742TIP3    H232172   1.073   5.597   4.005
10743TIP3   OH232173   6.751   2.185   6.388
10743TIP3    H132174   6.734   2.105   6.338
10743TIP3    H232175   6.757   2.155   6.479
10744TIP3   OH232176   1.652   5.667   5.043
10744TIP3    H132177   1.667   5.576   5.018
10744TIP3    H232178   1.660   5.715   4.960
10745TIP3   OH232179   8.120   0.795   0.372
10745TIP3    H132180   8.114   0.863   0.305
10745TIP3    H232181   8.204   0.812   0.415
10746TIP3   OH232182   4.404   6.721   3.988
10746TIP3    H132183   4.476   6.678   3.941
10746TIP3    H232184   4.413   6.691   4.078
10747TIP3   OH232185   3.117   0.309   4.997
10747TIP3    H132186   3.193   0.313   5.055
10747TIP3    H232187   3.140   0.365   4.923
10748TIP3   OH232188   7.868   4.699   2.705
10748TIP3    H132189   7.907   4.774   2.750
10748TIP3    H232190   7.943   4.642   2.685
10749TIP3   OH232191   4.384   2.260   2.675
10749TIP3    H132192   4.306   2.257   2.729
10749TIP3    H232193   4.351   2.253   2.585
10750TIP3   OH232194   0.517   5.353   2.671
10750TIP3    H132195   0.493   5.272   2.717
10750TIP3    H232196   0.433   5.395   2.652
10751TIP3   OH232197   5.935   0.150   6.542
10751TIP3    H132198   5.982   0.132   6.623
10751TIP3    H232199   6.004   0.167   6.477
10752TIP3   OH232200   6.381   6.676   1.679
10752TIP3    H132201   6.339   6.692   1.594
10752TIP3    H232202   6.359   6.585   1.700
10753TIP3   OH232203   7.288   3.878   3.584
10753TIP3    H132204   7.377   3.886   3.619
10753TIP3    H232205   7.250   3.965   3.596
10754TIP3   OH232206   2.958   4.178   3.856
10754TIP3    H132207   3.040   4.183   3.906
10754TIP3    H232208   2.901   4.243   3.897
10755TIP3   OH232209   6.541   3.660   0.299
10755TIP3    H132210   6.493   3.741   0.280
10755TIP3    H232211   6.500   3.594   0.244
10756TIP3   OH232212   6.828   4.158   3.350
10756TIP3    H132213   6.812   4.099   3.276
10756TIP3    H232214   6.839   4.101   3.425
10757TIP3   OH232215   1.361   3.616   0.643
10757TIP3    H132216   1.364   3.536   0.590
10757TIP3    H232217   1.345   3.585   0.733
10758TIP3   OH232218   4.392   5.107   0.098
10758TIP3    H132219   4.334   5.121   0.023
10758TIP3    H232220   4.401   5.194   0.137
10759TIP3   OH232221   3.214   4.774   0.606
10759TIP3    H132222   3.172   4.831   0.542
10759TIP3    H232223   3.198   4.685   0.573
10760TIP3   OH232224   3.309   6.767   2.617
10760TIP3    H132225   3.308   6.862   2.631
10760TIP3    H232226   3.225   6.748   2.575
10761TIP3   OH232227   1.614   0.492   2.473
10761TIP3    H132228   1.575   0.559   2.416
10761TIP3    H232229   1.541   0.434   2.496
10762TIP3   OH232230   7.224   3.728   1.991
10762TIP3    H132231   7.304   3.731   2.044
10762TIP3    H232232   7.255   3.709   1.902
10763TIP3   OH232233   3.530   5.226   6.389
10763TIP3    H132234   3.511   5.198   6.478
10763TIP3    H232235   3.604   5.171   6.362
10764TIP3   OH232236   1.818   6.396   3.761
10764TIP3    H132237   1.761   6.451   3.814
10764TIP3    H232238   1.794   6.416   3.671
10765TIP3   OH232239   8.022   6.672   5.465
10765TIP3    H132240   8.090   6.634   5.520
10765TIP3    H232241   8.044   6.765   5.461
10766TIP3   OH232242   1.991   5.737   5.986
10766TIP3    H132243   1.928   5.709   5.919
10766TIP3    H232244   1.961   5.824   6.012
10767TIP3   OH232245   4.196   4.299   4.164
10767TIP3    H132246   4.157   4.360   4.226
10767TIP3    H232247   4.159   4.324   4.079
10768TIP3   OH232248   3.083   7.083   3.653
10768TIP3    H132249   3.059   7.012   3.713
10768TIP3    H232250   3.072   7.163   3.705
10769TIP3   OH232251   7.131   4.502   3.591
10769TIP3    H132252   7.186   4.507   3.513
10769TIP3    H232253   7.132   4.410   3.616
10770TIP3   OH232254   5.937   5.906   4.652
10770TIP3    H132255   5.946   5.820   4.612
10770TIP3    H232256   6.014   5.915   4.708
10771TIP3   OH232257   6.960   5.147   6.337
10771TIP3    H132258   6.920   5.190   6.262
10771TIP3    H232259   6.954   5.212   6.408
10772TIP3   OH232260   5.885   6.150   3.704
10772TIP3    H132261   5.942   6.149   3.628
10772TIP3    H232262   5.796   6.155   3.668
10773TIP3   OH232263   5.186   1.743   2.540
10773TIP3    H132264   5.182   1.647   2.541
10773TIP3    H232265   5.256   1.765   2.602
10774TIP3   OH232266   7.115   3.644   0.879
10774TIP3    H132267   7.074   3.692   0.808
10774TIP3    H232268   7.204   3.679   0.883
10775TIP3   OH232269   1.814   3.603   6.643
10775TIP3    H132270   1.762   3.526   6.623
10775TIP3    H232271   1.904   3.572   6.645
10776TIP3   OH232272   2.256   4.969   6.702
10776TIP3    H132273   2.313   4.966   6.625
10776TIP3    H232274   2.210   4.886   6.701
10777TIP3   OH232275   1.466   2.412   4.648
10777TIP3    H132276   1.541   2.425   4.706
10777TIP3    H232277   1.503   2.421   4.560
10778TIP3   OH232278   1.876   3.592   1.983
10778TIP3    H132279   1.897   3.677   2.023
10778TIP3    H232280   1.931   3.587   1.905
10779TIP3   OH232281   3.920   6.715   2.604
10779TIP3    H132282   3.956   6.683   2.522
10779TIP3    H232283   3.997   6.730   2.659
10780TIP3   OH232284   4.881   0.226   3.935
10780TIP3    H132285   4.820   0.159   3.965
10780TIP3    H232286   4.828   0.283   3.878
10781TIP3   OH232287   7.791   0.061   4.642
10781TIP3    H132288   7.796   0.032   4.550
10781TIP3    H232289   7.882   0.062   4.671
10782TIP3   OH232290   3.202   4.249   0.321
10782TIP3    H132291   3.257   4.204   0.386
10782TIP3    H232292   3.134   4.291   0.372
10783TIP3   OH232293   8.030   3.115   0.502
10783TIP3    H132294   8.012   3.021   0.504
10783TIP3    H232295   8.122   3.122   0.527
10784TIP3   OH232296   2.017   1.194   5.410
10784TIP3    H132297   1.938   1.173   5.361
10784TIP3    H232298   1.997   1.277   5.454
10785TIP3   OH232299   3.651   6.953   5.116
10785TIP3    H132300   3.721   6.907   5.071
10785TIP3    H232301   3.672   7.046   5.105
10786TIP3   OH232302   3.998   3.142   2.226
10786TIP3    H132303   3.928   3.125   2.164
10786TIP3    H232304   3.989   3.072   2.292
10787TIP3   OH232305   4.528   7.629   4.800
10787TIP3    H132306   4.548   7.537   4.784
10787TIP3    H232307   4.573   7.676   4.730
10788TIP3   OH232308   7.900   0.220   3.276
10788TIP3    H132309   7.958   0.150   3.247
10788TIP3    H232310   7.838   0.177   3.335
10789TIP3   OH232311   5.328   1.310   1.820
10789TIP3    H132312   5.350   1.235   1.874
10789TIP3    H232313   5.397   1.374   1.839
10790TIP3   OH232314   2.665   2.781   3.040
10790TIP3    H132315   2.756   2.803   3.057
10790TIP3    H232316   2.634   2.850   2.982
10791TIP3   OH232317   4.662   5.945   1.535
10791TIP3    H132318   4.610   5.884   1.587
10791TIP3    H232319   4.746   5.901   1.522
10792TIP3   OH232320   1.410   1.545   0.887
10792TIP3    H132321   1.346   1.609   0.855
10792TIP3    H232322   1.426   1.571   0.978
10793TIP3   OH232323   8.045   5.547   3.046
10793TIP3    H132324   7.979   5.566   2.979
10793TIP3    H232325   8.044   5.623   3.104
10794TIP3   OH232326   6.730   5.293   1.213
10794TIP3    H132327   6.737   5.313   1.307
10794TIP3    H232328   6.802   5.341   1.173
10795TIP3   OH232329   4.981   5.940   6.299
10795TIP3    H132330   4.958   5.885   6.375
10795TIP3    H232331   4.988   6.029   6.336
10796TIP3   OH232332   4.692   3.058   1.137
10796TIP3    H132333   4.655   3.133   1.183
10796TIP3    H232334   4.701   2.991   1.204
10797TIP3   OH232335   0.283   2.844   4.180
10797TIP3    H132336   0.317   2.756   4.196
10797TIP3    H232337   0.231   2.835   4.100
10798TIP3   OH232338   2.741   4.335   5.549
10798TIP3    H132339   2.694   4.276   5.608
10798TIP3    H232340   2.679   4.405   5.530
10799TIP3   OH232341   7.340   6.461   1.360
10799TIP3    H132342   7.346   6.366   1.368
10799TIP3    H232343   7.277   6.476   1.290
10800TIP3   OH232344   0.875   6.362   5.223
10800TIP3    H132345   0.794   6.330   5.262
10800TIP3    H232346   0.939   6.359   5.294
10801TIP3   OH232347   5.093   5.679   4.915
10801TIP3    H132348   5.050   5.649   4.835
10801TIP3    H232349   5.181   5.644   4.910
10802TIP3   OH232350   6.734   2.429   0.774
10802TIP3    H132351   6.741   2.405   0.867
10802TIP3    H232352   6.666   2.371   0.740
10803TIP3   OH232353   3.118   7.778   3.205
10803TIP3    H132354   3.045   7.736   3.159
10803TIP3    H232355   3.149   7.712   3.267
10804TIP3   OH232356   4.276   6.104   0.145
10804TIP3    H132357   4.325   6.167   0.092
10804TIP3    H232358   4.343   6.057   0.194
10805TIP3   OH232359   4.274   0.410   0.484
10805TIP3    H132360   4.181   0.419   0.463
10805TIP3    H232361   4.300   0.329   0.440
10806TIP3   OH232362   0.316   5.016   1.799
10806TIP3    H132363   0.276   5.090   1.753
10806TIP3    H232364   0.404   5.008   1.761
10807TIP3   OH232365   0.382   7.124   4.312
10807TIP3    H132366   0.361   7.215   4.336
10807TIP3    H232367   0.299   7.077   4.323
10808TIP3   OH232368   6.395   0.870   3.191
10808TIP3    H132369   6.382   0.961   3.164
10808TIP3    H232370   6.428   0.877   3.281
10809TIP3   OH232371   0.872   7.721   2.779
10809TIP3    H132372   0.872   7.684   2.867
10809TIP3    H232373   0.806   7.671   2.732
10810TIP3   OH232374   7.138   0.121   1.118
10810TIP3    H132375   7.117   0.093   1.029
10810TIP3    H232376   7.150   0.040   1.167
10811TIP3   OH232377   4.595   6.355   2.441
10811TIP3    H132378   4.577   6.263   2.419
10811TIP3    H232379   4.657   6.384   2.374
10812TIP3   OH232380   0.286   3.578   1.717
10812TIP3    H132381   0.364   3.540   1.676
10812TIP3    H232382   0.251   3.508   1.772
10813TIP3   OH232383   1.742   5.665   5.316
10813TIP3    H132384   1.788   5.586   5.289
10813TIP3    H232385   1.694   5.693   5.238
10814TIP3   OH232386   2.413   0.701   2.851
10814TIP3    H132387   2.476   0.765   2.817
10814TIP3    H232388   2.420   0.627   2.790
10815TIP3   OH232389   8.276   6.076   5.757
10815TIP3    H132390   8.204   6.037   5.806
10815TIP3    H232391   8.234   6.136   5.695
10816TIP3   OH232392   3.949   1.678   2.498
10816TIP3    H132393   3.888   1.752   2.492
10816TIP3    H232394   3.901   1.604   2.461
10817TIP3   OH232395   2.742   3.071   5.969
10817TIP3    H132396   2.768   3.078   6.061
10817TIP3    H232397   2.821   3.039   5.924
10818TIP3   OH232398   0.105   0.189   4.076
10818TIP3    H132399   0.155   0.234   4.144
10818TIP3    H232400   0.023   0.165   4.118
10819TIP3   OH232401   7.578   1.648   3.029
10819TIP3    H132402   7.584   1.618   3.119
10819TIP3    H232403   7.622   1.733   3.029
10820TIP3   OH232404   5.853   3.633   0.577
10820TIP3    H132405   5.943   3.620   0.548
10820TIP3    H232406   5.843   3.575   0.652
10821TIP3   OH232407   3.774   3.878   1.890
10821TIP3    H132408   3.812   3.800   1.851
10821TIP3    H232409   3.753   3.852   1.980
10822TIP3   OH232410   2.749   6.578   6.719
10822TIP3    H132411   2.727   6.667   6.691
10822TIP3    H232412   2.739   6.525   6.640
10823TIP3   OH232413   6.136   2.671   2.696
10823TIP3    H132414   6.116   2.634   2.782
10823TIP3    H232415   6.191   2.747   2.714
10824TIP3   OH232416   7.183   3.117   3.428
10824TIP3    H132417   7.087   3.112   3.426
10824TIP3    H232418   7.204   3.132   3.520
10825TIP3   OH232419   3.921   4.589   2.289
10825TIP3    H132420   3.969   4.538   2.224
10825TIP3    H232421   3.857   4.638   2.237
10826TIP3   OH232422   0.878   1.045   6.338
10826TIP3    H132423   0.871   0.980   6.268
10826TIP3    H232424   0.911   0.996   6.413
10827TIP3   OH232425   1.966   1.041   1.463
10827TIP3    H132426   2.029   1.102   1.425
10827TIP3    H232427   1.909   1.016   1.391
10828TIP3   OH232428   5.322   6.056   6.398
10828TIP3    H132429   5.357   6.070   6.486
10828TIP3    H232430   5.238   6.100   6.398
10829TIP3   OH232431   7.763   4.614   3.010
10829TIP3    H132432   7.678   4.648   3.038
10829TIP3    H232433   7.751   4.591   2.918
10830TIP3   OH232434   0.121   3.346   5.541
10830TIP3    H132435   0.111   3.317   5.450
10830TIP3    H232436   0.033   3.346   5.576
10831TIP3   OH232437   6.376   6.578   4.151
10831TIP3    H132438   6.288   6.544   4.137
10831TIP3    H232439   6.367   6.673   4.140
10832TIP3   OH232440   1.339   3.428   5.435
10832TIP3    H132441   1.269   3.467   5.488
10832TIP3    H232442   1.302   3.347   5.401
10833TIP3   OH232443   6.574   1.371   5.930
10833TIP3    H132444   6.617   1.287   5.914
10833TIP3    H232445   6.643   1.426   5.966
10834TIP3   OH232446   7.293   1.113   4.107
10834TIP3    H132447   7.232   1.080   4.042
10834TIP3    H232448   7.265   1.074   4.190
10835TIP3   OH232449   2.714   5.423   4.454
10835TIP3    H132450   2.683   5.400   4.366
10835TIP3    H232451   2.640   5.468   4.495
10836TIP3   OH232452   1.567   4.762   3.573
10836TIP3    H132453   1.508   4.763   3.647
10836TIP3    H232454   1.518   4.803   3.502
10837TIP3   OH232455   5.890   7.793   1.513
10837TIP3    H132456   5.812   7.802   1.459
10837TIP3    H232457   5.906   7.881   1.546
10838TIP3   OH232458   2.758   6.727   3.202
10838TIP3    H132459   2.745   6.660   3.269
10838TIP3    H232460   2.848   6.758   3.215
10839TIP3   OH232461   2.280   6.508   5.568
10839TIP3    H132462   2.331   6.561   5.630
10839TIP3    H232463   2.189   6.519   5.597
10840TIP3   OH232464   3.335   0.291   5.168
10840TIP3    H132465   3.425   0.262   5.182
10840TIP3    H232466   3.317   0.349   5.242
10841TIP3   OH232467   0.443   1.861   6.395
10841TIP3    H132468   0.537   1.862   6.377
10841TIP3    H232469   0.413   1.778   6.359
10842TIP3   OH232470   1.508   3.056   0.458
10842TIP3    H132471   1.510   2.960   0.457
10842TIP3    H232472   1.590   3.081   0.500
10843TIP3   OH232473   5.503   4.300   2.348
10843TIP3    H132474   5.592   4.270   2.326
10843TIP3    H232475   5.464   4.226   2.395
10844TIP3   OH232476   5.156   0.835   5.844
10844TIP3    H132477   5.101   0.821   5.768
10844TIP3    H232478   5.135   0.923   5.874
10845TIP3   OH232479   1.655   3.434   0.038
10845TIP3    H132480   1.608   3.369   0.090
10845TIP3    H232481   1.610   3.434  -0.047
10846TIP3   OH232482   1.695   6.621   0.602
10846TIP3    H132483   1.654   6.572   0.673
10846TIP3    H232484   1.758   6.559   0.564
10847TIP3   OH232485   5.530   2.074   4.500
10847TIP3    H132486   5.490   2.161   4.494
10847TIP3    H232487   5.625   2.091   4.498
10848TIP3   OH232488   2.644   2.413   6.706
10848TIP3    H132489   2.674   2.497   6.739
10848TIP3    H232490   2.596   2.374   6.779
10849TIP3   OH232491   1.403   5.409   3.374
10849TIP3    H132492   1.485   5.375   3.409
10849TIP3    H232493   1.408   5.504   3.387
10850TIP3   OH232494   1.031   0.365   0.089
10850TIP3    H132495   1.074   0.444   0.123
10850TIP3    H232496   0.988   0.394   0.009
10851TIP3   OH232497   6.078   5.785   6.172
10851TIP3    H132498   6.168   5.809   6.192
10851TIP3    H232499   6.058   5.715   6.234
10852TIP3   OH232500   6.262   7.623   6.591
10852TIP3    H132501   6.337   7.599   6.646
10852TIP3    H232502   6.278   7.581   6.507
10853TIP3   OH232503   2.786   5.438   5.470
10853TIP3    H132504   2.808   5.530   5.456
10853TIP3    H232505   2.713   5.439   5.531
10854TIP3   OH232506   0.847   4.215   5.441
10854TIP3    H132507   0.840   4.146   5.375
10854TIP3    H232508   0.917   4.272   5.409
10855TIP3   OH232509   4.111   7.473   0.575
10855TIP3    H132510   4.134   7.436   0.490
10855TIP3    H232511   4.072   7.558   0.554
10856TIP3   OH232512   7.343   0.288   4.907
10856TIP3    H132513   7.271   0.236   4.872
10856TIP3    H232514   7.306   0.376   4.918
10857TIP3   OH232515   7.985   4.812   5.135
10857TIP3    H132516   8.026   4.843   5.215
10857TIP3    H232517   7.943   4.889   5.097
10858TIP3   OH232518   3.350   4.754   4.739
10858TIP3    H132519   3.378   4.840   4.770
10858TIP3    H232520   3.271   4.772   4.687
10859TIP3   OH232521   0.510   2.790   1.147
10859TIP3    H132522   0.569   2.720   1.176
10859TIP3    H232523   0.458   2.750   1.077
10860TIP3   OH232524   1.179   3.100   4.000
10860TIP3    H132525   1.200   3.012   4.031
10860TIP3    H232526   1.086   3.110   4.018
10861TIP3   OH232527   6.851   5.816   3.547
10861TIP3    H132528   6.868   5.908   3.524
10861TIP3    H232529   6.836   5.773   3.462
10862TIP3   OH232530   6.385   2.934   2.131
10862TIP3    H132531   6.394   2.975   2.216
10862TIP3    H232532   6.332   2.995   2.079
10863TIP3   OH232533   8.089   6.058   6.392
10863TIP3    H132534   8.141   6.020   6.464
10863TIP3    H232535   8.150   6.062   6.318
10864TIP3   OH232536   5.043   6.329   5.304
10864TIP3    H132537   4.965   6.334   5.248
10864TIP3    H232538   5.029   6.398   5.369
10865TIP3   OH232539   7.592   7.730   5.554
10865TIP3    H132540   7.612   7.748   5.646
10865TIP3    H232541   7.529   7.798   5.530
10866TIP3   OH232542   6.752   2.463   4.986
10866TIP3    H132543   6.751   2.515   4.906
10866TIP3    H232544   6.689   2.505   5.043
10867TIP3   OH232545   2.472   3.588   4.125
10867TIP3    H132546   2.558   3.606   4.087
10867TIP3    H232547   2.429   3.673   4.130
10868TIP3   OH232548   0.204   5.384   2.168
10868TIP3    H132549   0.162   5.459   2.211
10868TIP3    H232550   0.282   5.420   2.127
10869TIP3   OH232551   4.086   0.351   4.560
10869TIP3    H132552   4.054   0.266   4.531
10869TIP3    H232553   4.007   0.402   4.576
10870TIP3   OH232554   4.631   7.285   5.773
10870TIP3    H132555   4.714   7.270   5.818
10870TIP3    H232556   4.657   7.315   5.686
10871TIP3   OH232557   2.682   3.689   0.948
10871TIP3    H132558   2.716   3.680   0.859
10871TIP3    H232559   2.691   3.601   0.986
10872TIP3   OH232560   7.360   7.800   2.392
10872TIP3    H132561   7.415   7.824   2.318
10872TIP3    H232562   7.393   7.715   2.420
10873TIP3   OH232563   6.803   4.312   4.657
10873TIP3    H132564   6.814   4.285   4.748
10873TIP3    H232565   6.713   4.342   4.650
10874TIP3   OH232566   5.804   0.201   5.136
10874TIP3    H132567   5.851   0.255   5.200
10874TIP3    H232568   5.872   0.152   5.091
10875TIP3   OH232569   4.313   4.298   0.467
10875TIP3    H132570   4.367   4.340   0.400
10875TIP3    H232571   4.225   4.332   0.453
10876TIP3   OH232572   3.897   4.620   3.120
10876TIP3    H132573   3.856   4.548   3.168
10876TIP3    H232574   3.991   4.608   3.134
10877TIP3   OH232575   4.291   5.002   0.575
10877TIP3    H132576   4.249   4.982   0.491
10877TIP3    H232577   4.378   5.034   0.550
10878TIP3   OH232578   5.801   4.683   2.807
10878TIP3    H132579   5.708   4.701   2.801
10878TIP3    H232580   5.843   4.757   2.764
10879TIP3   OH232581   0.814   1.831   4.715
10879TIP3    H132582   0.750   1.775   4.670
10879TIP3    H232583   0.897   1.786   4.701
10880TIP3   OH232584   7.819   5.837   4.884
10880TIP3    H132585   7.809   5.820   4.978
10880TIP3    H232586   7.825   5.932   4.877
10881TIP3   OH232587   2.437   3.356   3.961
10881TIP3    H132588   2.462   3.411   4.035
10881TIP3    H232589   2.393   3.415   3.900
10882TIP3   OH232590   3.366   5.212   0.980
10882TIP3    H132591   3.319   5.133   0.956
10882TIP3    H232592   3.321   5.244   1.058
10883TIP3   OH232593   3.648   4.806   5.881
10883TIP3    H132594   3.666   4.815   5.788
10883TIP3    H232595   3.555   4.785   5.886
10884TIP3   OH232596   5.987   2.582   4.309
10884TIP3    H132597   5.930   2.646   4.267
10884TIP3    H232598   6.027   2.628   4.382
10885TIP3   OH232599   4.681   6.767   2.146
10885TIP3    H132600   4.601   6.716   2.130
10885TIP3    H232601   4.750   6.701   2.154
10886TIP3   OH232602   4.964   4.178   0.393
10886TIP3    H132603   5.007   4.206   0.312
10886TIP3    H232604   4.979   4.249   0.454
10887TIP3   OH232605   3.145   0.962   3.222
10887TIP3    H132606   3.136   0.867   3.228
10887TIP3    H232607   3.137   0.980   3.128
10888TIP3   OH232608   3.081   2.024   2.082
10888TIP3    H132609   3.162   2.075   2.076
10888TIP3    H232610   3.015   2.079   2.040
10889TIP3   OH232611   5.250   2.792   0.467
10889TIP3    H132612   5.315   2.862   0.461
10889TIP3    H232613   5.289   2.719   0.419
10890TIP3   OH232614   8.283   2.889   3.436
10890TIP3    H132615   8.233   2.854   3.510
10890TIP3    H232616   8.257   2.834   3.362
10891TIP3   OH232617   1.822   4.990   6.743
10891TIP3    H132618   1.731   4.998   6.774
10891TIP3    H232619   1.872   4.972   6.823
10892TIP3   OH232620   2.371   0.659   5.515
10892TIP3    H132621   2.382   0.573   5.476
10892TIP3    H232622   2.276   0.671   5.522
10893TIP3   OH232623   6.534   0.011   0.012
10893TIP3    H132624   6.524   0.070  -0.063
10893TIP3    H232625   6.628  -0.006   0.017
10894TIP3   OH232626   6.977   5.017   3.174
10894TIP3    H132627   6.957   5.065   3.094
10894TIP3    H232628   7.055   5.060   3.209
10895TIP3   OH232629   2.303   1.826   5.574
10895TIP3    H132630   2.383   1.774   5.570
10895TIP3    H232631   2.243   1.774   5.626
10896TIP3   OH232632   5.686   3.191   4.064
10896TIP3    H132633   5.671   3.112   4.115
10896TIP3    H232634   5.777   3.214   4.082
10897TIP3   OH232635   6.677   1.218   2.569
10897TIP3    H132636   6.682   1.265   2.485
10897TIP3    H232637   6.652   1.129   2.545
10898TIP3   OH232638   0.102   2.782   4.004
10898TIP3    H132639   0.046   2.857   3.984
10898TIP3    H232640   0.072   2.712   3.946
10899TIP3   OH232641   2.079   7.196   6.738
10899TIP3    H132642   2.081   7.219   6.645
10899TIP3    H232643   2.000   7.142   6.748
10900TIP3   OH232644   6.470   5.924   1.524
10900TIP3    H132645   6.422   5.855   1.479
10900TIP3    H232646   6.455   5.907   1.617
10901TIP3   OH232647   7.406   7.634   1.089
10901TIP3    H132648   7.430   7.549   1.126
10901TIP3    H232649   7.463   7.697   1.133
10902TIP3   OH232650   4.164   6.766   0.396
10902TIP3    H132651   4.096   6.711   0.357
10902TIP3    H232652   4.133   6.856   0.381
10903TIP3   OH232653   1.738   0.994   6.021
10903TIP3    H132654   1.721   1.073   6.073
10903TIP3    H232655   1.653   0.948   6.020
10904TIP3   OH232656   3.510   2.483   3.135
10904TIP3    H132657   3.553   2.440   3.208
10904TIP3    H232658   3.469   2.411   3.086
10905TIP3   OH232659   0.640   2.941   4.094
10905TIP3    H132660   0.638   3.028   4.135
10905TIP3    H232661   0.729   2.932   4.061
10906TIP3   OH232662   2.167   2.515   3.954
10906TIP3    H132663   2.107   2.587   3.934
10906TIP3    H232664   2.172   2.464   3.873
10907TIP3   OH232665   2.013   5.338   2.800
10907TIP3    H132666   2.001   5.412   2.860
10907TIP3    H232667   1.980   5.370   2.716
10908TIP3   OH232668   3.170   5.942   5.274
10908TIP3    H132669   3.207   5.994   5.345
10908TIP3    H232670   3.220   5.861   5.274
10909TIP3   OH232671   5.935   5.630   3.969
10909TIP3    H132672   5.879   5.683   4.027
10909TIP3    H232673   6.022   5.634   4.010
10910TIP3   OH232674   4.457   4.572   3.451
10910TIP3    H132675   4.402   4.505   3.411
10910TIP3    H232676   4.395   4.629   3.498
10911TIP3   OH232677   3.861   6.868   0.943
10911TIP3    H132678   3.930   6.932   0.927
10911TIP3    H232679   3.845   6.872   1.037
10912TIP3   OH232680   6.844   6.102   6.242
10912TIP3    H132681   6.856   6.115   6.147
10912TIP3    H232682   6.822   6.189   6.275
10913TIP3   OH232683   0.775   0.379   6.578
10913TIP3    H132684   0.739   0.294   6.604
10913TIP3    H232685   0.700   0.427   6.545
10914TIP3   OH232686   1.946   2.530   2.426
10914TIP3    H132687   1.898   2.501   2.349
10914TIP3    H232688   1.901   2.489   2.500
10915TIP3   OH232689   0.036   5.296   3.196
10915TIP3    H132690  -0.006   5.293   3.281
10915TIP3    H232691   0.075   5.209   3.185
10916TIP3   OH232692   1.877   6.106   5.677
10916TIP3    H132693   1.844   6.052   5.604
10916TIP3    H232694   1.941   6.164   5.636
10917TIP3   OH232695   0.669   6.631   4.058
10917TIP3    H132696   0.594   6.622   3.999
10917TIP3    H232697   0.708   6.543   4.061
10918TIP3   OH232698   7.565   3.297   0.778
10918TIP3    H132699   7.637   3.344   0.821
10918TIP3    H232700   7.494   3.299   0.843
10919TIP3   OH232701   0.869   3.269   1.295
10919TIP3    H132702   0.962   3.291   1.286
10919TIP3    H232703   0.858   3.249   1.388
10920TIP3   OH232704   4.033   3.065   0.551
10920TIP3    H132705   4.121   3.051   0.586
10920TIP3    H232706   4.037   3.031   0.462
10921TIP3   OH232707   0.512   1.465   1.859
10921TIP3    H132708   0.577   1.467   1.789
10921TIP3    H232709   0.437   1.514   1.825
10922TIP3   OH232710   2.671   3.519   0.076
10922TIP3    H132711   2.599   3.463   0.047
10922TIP3    H232712   2.727   3.528  -0.002
10923TIP3   OH232713   6.037   2.340  -0.066
10923TIP3    H132714   6.020   2.253  -0.030
10923TIP3    H232715   6.043   2.397   0.011
10924TIP3   OH232716   5.171   6.010   0.288
10924TIP3    H132717   5.197   5.977   0.374
10924TIP3    H232718   5.093   5.960   0.265
10925TIP3   OH232719   1.333   5.917   3.189
10925TIP3    H132720   1.313   5.949   3.101
10925TIP3    H232721   1.261   5.857   3.209
10926TIP3   OH232722   7.431   1.433   2.255
10926TIP3    H132723   7.517   1.461   2.224
10926TIP3    H232724   7.382   1.515   2.267
10927TIP3   OH232725   0.805   0.680   5.928
10927TIP3    H132726   0.854   0.693   5.847
10927TIP3    H232727   0.823   0.589   5.953
10928TIP3   OH232728   2.112   5.403   6.574
10928TIP3    H132729   2.084   5.399   6.666
10928TIP3    H232730   2.146   5.492   6.563
10929TIP3   OH232731   6.280   5.132   6.797
10929TIP3    H132732   6.191   5.147   6.764
10929TIP3    H232733   6.324   5.217   6.787
10930TIP3   OH232734   0.407   0.381   0.794
10930TIP3    H132735   0.421   0.336   0.877
10930TIP3    H232736   0.492   0.422   0.775
10931TIP3   OH232737   2.829   2.925   4.599
10931TIP3    H132738   2.826   2.881   4.513
10931TIP3    H232739   2.849   3.016   4.578
10932TIP3   OH232740   6.363   6.167   4.229
10932TIP3    H132741   6.427   6.097   4.234
10932TIP3    H232742   6.406   6.243   4.269
10933TIP3   OH232743   8.020   3.467   2.775
10933TIP3    H132744   8.036   3.542   2.717
10933TIP3    H232745   8.028   3.391   2.718
10934TIP3   OH232746   4.897   5.345   6.166
10934TIP3    H132747   4.934   5.352   6.254
10934TIP3    H232748   4.814   5.298   6.178
10935TIP3   OH232749   3.922   0.494   2.394
10935TIP3    H132750   3.849   0.553   2.375
10935TIP3    H232751   3.881   0.412   2.420
10936TIP3   OH232752   1.763   1.427   0.195
10936TIP3    H132753   1.707   1.484   0.143
10936TIP3    H232754   1.721   1.424   0.281
10937TIP3   OH232755   7.562   3.004   1.755
10937TIP3    H132756   7.612   2.968   1.681
10937TIP3    H232757   7.520   3.082   1.720
10938TIP3   OH232758   4.317   0.739   0.317
10938TIP3    H132759   4.306   0.814   0.258
10938TIP3    H232760   4.281   0.770   0.400
10939TIP3   OH232761   5.926   3.224   2.147
10939TIP3    H132762   5.935   3.145   2.200
10939TIP3    H232763   6.010   3.230   2.100
10940TIP3   OH232764   5.667   4.658   1.662
10940TIP3    H132765   5.699   4.615   1.742
10940TIP3    H232766   5.613   4.591   1.620
10941TIP3   OH232767   0.447   3.016   5.748
10941TIP3    H132768   0.398   3.089   5.708
10941TIP3    H232769   0.485   2.970   5.674
10942TIP3   OH232770   1.325   4.297   1.002
10942TIP3    H132771   1.274   4.328   0.928
10942TIP3    H232772   1.414   4.289   0.968
10943TIP3   OH232773   7.248   6.227   0.710
10943TIP3    H132774   7.173   6.233   0.650
10943TIP3    H232775   7.219   6.166   0.778
10944TIP3   OH232776   1.949   2.804   4.363
10944TIP3    H132777   1.929   2.897   4.378
10944TIP3    H232778   1.899   2.782   4.283
10945TIP3   OH232779   3.872   0.505   0.573
10945TIP3    H132780   3.893   0.460   0.491
10945TIP3    H232781   3.785   0.473   0.597
10946TIP3   OH232782   6.417   0.333   4.789
10946TIP3    H132783   6.454   0.402   4.844
10946TIP3    H232784   6.467   0.255   4.813
10947TIP3   OH232785   5.612   6.180   0.634
10947TIP3    H132786   5.550   6.182   0.562
10947TIP3    H232787   5.572   6.235   0.702
10948TIP3   OH232788   2.870   5.378   0.062
10948TIP3    H132789   2.907   5.438   0.127
10948TIP3    H232790   2.900   5.413  -0.022
10949TIP3   OH232791   5.891   3.959   2.215
10949TIP3    H132792   5.850   3.889   2.163
10949TIP3    H232793   5.916   3.915   2.297
10950TIP3   OH232794   0.336   0.415   6.632
10950TIP3    H132795   0.260   0.430   6.574
10950TIP3    H232796   0.333   0.321   6.650
10951TIP3   OH232797   0.456   7.640   5.211
10951TIP3    H132798   0.540   7.608   5.177
10951TIP3    H232799   0.449   7.601   5.298
10952TIP3   OH232800   3.918   4.049   2.592
10952TIP3    H132801   3.947   3.960   2.614
10952TIP3    H232802   3.916   4.049   2.496
10953TIP3   OH232803   3.924   5.979   4.436
10953TIP3    H132804   4.002   5.934   4.467
10953TIP3    H232805   3.857   5.960   4.502
10954TIP3   OH232806   5.131   4.484   5.081
10954TIP3    H132807   5.150   4.553   5.018
10954TIP3    H232808   5.199   4.418   5.067
10955TIP3   OH232809   3.900   0.419   3.857
10955TIP3    H132810   3.904   0.335   3.902
10955TIP3    H232811   3.973   0.470   3.893
10956TIP3   OH232812   0.705   5.177   0.782
10956TIP3    H132813   0.670   5.266   0.779
10956TIP3    H232814   0.783   5.184   0.838
10957TIP3   OH232815   1.354   5.263   0.301
10957TIP3    H132816   1.335   5.327   0.232
10957TIP3    H232817   1.268   5.230   0.327
10958TIP3   OH232818   1.524   3.617   2.757
10958TIP3    H132819   1.527   3.709   2.784
10958TIP3    H232820   1.456   3.577   2.811
10959TIP3   OH232821   5.574   0.056   6.006
10959TIP3    H132822   5.591  -0.028   6.050
10959TIP3    H232823   5.507   0.098   6.060
10960TIP3   OH232824   3.211   3.285   5.439
10960TIP3    H132825   3.132   3.270   5.492
10960TIP3    H232826   3.201   3.226   5.365
10961TIP3   OH232827   3.542   6.000   3.186
10961TIP3    H132828   3.531   5.932   3.121
10961TIP3    H232829   3.630   5.988   3.220
10962TIP3   OH232830   0.292   6.659   6.512
10962TIP3    H132831   0.298   6.627   6.602
10962TIP3    H232832   0.293   6.579   6.458
10963TIP3   OH232833   5.606   1.613   0.128
10963TIP3    H132834   5.518   1.626   0.164
10963TIP3    H232835   5.619   1.519   0.130
10964TIP3   OH232836   2.005   5.147   0.113
10964TIP3    H132837   2.097   5.171   0.105
10964TIP3    H232838   2.003   5.083   0.184
10965TIP3   OH232839   1.316   2.698   5.942
10965TIP3    H132840   1.291   2.740   5.859
10965TIP3    H232841   1.343   2.610   5.918
10966TIP3   OH232842   1.898   7.740   2.048
10966TIP3    H132843   1.828   7.799   2.076
10966TIP3    H232844   1.974   7.797   2.037
10967TIP3   OH232845   3.957   5.833   2.239
10967TIP3    H132846   3.986   5.916   2.202
10967TIP3    H232847   4.016   5.818   2.313
10968TIP3   OH232848   4.620   3.655   0.070
10968TIP3    H132849   4.653   3.570   0.101
10968TIP3    H232850   4.575   3.691   0.146
10969TIP3   OH232851   5.002   5.351   2.573
10969TIP3    H132852   5.022   5.357   2.480
10969TIP3    H232853   4.941   5.278   2.579
10970TIP3   OH232854   1.981   1.650   4.815
10970TIP3    H132855   1.981   1.712   4.888
10970TIP3    H232856   2.007   1.567   4.855
10971TIP3   OH232857   0.363   1.217   3.674
10971TIP3    H132858   0.389   1.282   3.609
10971TIP3    H232859   0.305   1.157   3.627
10972TIP3   OH232860   5.613   2.898   5.910
10972TIP3    H132861   5.539   2.929   5.858
10972TIP3    H232862   5.684   2.888   5.847
10973TIP3   OH232863   3.223   4.975   2.302
10973TIP3    H132864   3.198   4.883   2.314
10973TIP3    H232865   3.190   4.997   2.214
10974TIP3   OH232866   3.125   5.269   2.691
10974TIP3    H132867   3.110   5.359   2.722
10974TIP3    H232868   3.215   5.250   2.717
10975TIP3   OH232869   6.866   1.510   2.351
10975TIP3    H132870   6.793   1.511   2.413
10975TIP3    H232871   6.935   1.463   2.397
10976TIP3   OH232872   7.750   3.539   2.716
10976TIP3    H132873   7.718   3.485   2.644
10976TIP3    H232874   7.845   3.524   2.718
10977TIP3   OH232875   0.648   5.546   4.105
10977TIP3    H132876   0.586   5.487   4.149
10977TIP3    H232877   0.595   5.619   4.075
10978TIP3   OH232878   6.584   1.409   4.162
10978TIP3    H132879   6.492   1.389   4.141
10978TIP3    H232880   6.634   1.361   4.096
10979TIP3   OH232881   1.616   4.707   1.979
10979TIP3    H132882   1.711   4.716   1.978
10979TIP3    H232883   1.595   4.672   1.892
10980TIP3   OH232884   2.183   4.246   3.377
10980TIP3    H132885   2.125   4.210   3.310
10980TIP3    H232886   2.137   4.325   3.407
10981TIP3   OH232887   2.980   3.817   2.343
10981TIP3    H132888   2.922   3.846   2.414
10981TIP3    H232889   3.064   3.858   2.363
10982TIP3   OH232890   4.702   6.078   1.783
10982TIP3    H132891   4.748   6.016   1.839
10982TIP3    H232892   4.688   6.031   1.701
10983TIP3   OH232893   6.256   0.113   1.509
10983TIP3    H132894   6.217   0.174   1.571
10983TIP3    H232895   6.326   0.164   1.466
10984TIP3   OH232896   1.995   1.737   3.631
10984TIP3    H132897   1.931   1.787   3.581
10984TIP3    H232898   2.070   1.728   3.572
10985TIP3   OH232899   2.021   3.702   3.350
10985TIP3    H132900   1.998   3.781   3.399
10985TIP3    H232901   1.938   3.668   3.319
10986TIP3   OH232902   7.872   0.798   0.536
10986TIP3    H132903   7.960   0.823   0.507
10986TIP3    H232904   7.859   0.711   0.500
10987TIP3   OH232905   3.522   3.310   4.490
10987TIP3    H132906   3.530   3.301   4.585
10987TIP3    H232907   3.454   3.247   4.465
10988TIP3   OH232908   3.515   1.216   1.341
10988TIP3    H132909   3.576   1.274   1.387
10988TIP3    H232910   3.468   1.171   1.411
10989TIP3   OH232911   3.862   0.036   2.612
10989TIP3    H132912   3.787   0.017   2.555
10989TIP3    H232913   3.847  -0.017   2.690
10990TIP3   OH232914   6.109   3.066   2.730
10990TIP3    H132915   6.125   3.089   2.822
10990TIP3    H232916   6.156   2.983   2.718
10991TIP3   OH232917   5.054   4.204   1.296
10991TIP3    H132918   5.075   4.172   1.383
10991TIP3    H232919   4.983   4.146   1.266
10992TIP3   OH232920   2.508   4.479   4.186
10992TIP3    H132921   2.549   4.422   4.251
10992TIP3    H232922   2.582   4.521   4.141
10993TIP3   OH232923   0.055   7.792   0.044
10993TIP3    H132924   0.076   7.822  -0.045
10993TIP3    H232925   0.094   7.704   0.049
10994TIP3   OH232926   1.381   0.743   2.823
10994TIP3    H132927   1.401   0.804   2.895
10994TIP3    H232928   1.427   0.780   2.747
10995TIP3   OH232929   7.381   4.245   3.869
10995TIP3    H132930   7.459   4.200   3.836
10995TIP3    H232931   7.334   4.177   3.918
10996TIP3   OH232932   4.511   3.296   5.901
10996TIP3    H132933   4.470   3.379   5.924
10996TIP3    H232934   4.484   3.236   5.971
10997TIP3   OH232935   3.930   0.801   0.444
10997TIP3    H132936   3.955   0.885   0.404
10997TIP3    H232937   3.937   0.738   0.372
10998TIP3   OH232938   6.701   6.724   4.326
10998TIP3    H132939   6.688   6.818   4.336
10998TIP3    H232940   6.613   6.686   4.338
10999TIP3   OH232941   5.607   1.334   4.769
10999TIP3    H132942   5.623   1.280   4.692
10999TIP3    H232943   5.626   1.423   4.742
11000TIP3   OH232944   4.429   0.531   0.694
11000TIP3    H132945   4.408   0.493   0.609
11000TIP3    H232946   4.345   0.535   0.740
11001TIP3   OH232947   7.416   5.569   4.230
11001TIP3    H132948   7.505   5.576   4.265
11001TIP3    H232949   7.378   5.656   4.246
11002TIP3   OH232950   5.606   6.335   6.352
11002TIP3    H132951   5.566   6.248   6.350
11002TIP3    H232952   5.555   6.383   6.416
11003TIP3   OH232953   0.458   6.341   3.470
11003TIP3    H132954   0.456   6.246   3.484
11003TIP3    H232955   0.369   6.370   3.490
11004TIP3   OH232956   7.104   7.541   2.393
11004TIP3    H132957   7.023   7.504   2.428
11004TIP3    H232958   7.153   7.569   2.470
11005TIP3   OH232959   0.779   6.882   0.681
11005TIP3    H132960   0.720   6.807   0.669
11005TIP3    H232961   0.856   6.844   0.723
11006TIP3   OH232962   6.853   6.286   4.015
11006TIP3    H132963   6.869   6.360   4.073
11006TIP3    H232964   6.925   6.225   4.032
11007TIP3   OH232965   5.624   3.333   1.859
11007TIP3    H132966   5.544   3.282   1.851
11007TIP3    H232967   5.635   3.347   1.953
11008TIP3   OH232968   7.688   5.579   4.361
11008TIP3    H132969   7.770   5.537   4.334
11008TIP3    H232970   7.661   5.532   4.439
11009TIP3   OH232971   5.323   2.821   2.775
11009TIP3    H132972   5.411   2.793   2.802
11009TIP3    H232973   5.282   2.741   2.741
11010TIP3   OH232974   1.072   4.995   4.131
11010TIP3    H132975   1.129   5.050   4.076
11010TIP3    H232976   1.130   4.961   4.199
11011TIP3   OH232977   8.213   5.479   0.650
11011TIP3    H132978   8.225   5.428   0.570
11011TIP3    H232979   8.166   5.557   0.622
11012TIP3   OH232980   3.799   3.065   4.692
11012TIP3    H132981   3.786   3.109   4.608
11012TIP3    H232982   3.753   3.120   4.755
11013TIP3   OH232983   2.649   1.859   4.525
11013TIP3    H132984   2.694   1.899   4.600
11013TIP3    H232985   2.620   1.774   4.557
11014TIP3   OH232986   0.585   5.664   0.569
11014TIP3    H132987   0.497   5.700   0.566
11014TIP3    H232988   0.641   5.738   0.592
11015TIP3   OH232989   1.057   7.032   5.690
11015TIP3    H132990   1.051   7.123   5.721
11015TIP3    H232991   1.068   6.981   5.770
11016TIP3   OH232992   5.393   3.589   0.947
11016TIP3    H132993   5.471   3.547   0.984
11016TIP3    H232994   5.373   3.538   0.868
11017TIP3   OH232995   1.053   7.587   0.467
11017TIP3    H132996   0.995   7.650   0.508
11017TIP3    H232997   1.068   7.621   0.379
11018TIP3   OH232998   4.545   1.285   2.050
11018TIP3    H132999   4.622   1.228   2.049
11018TIP3    H233000   4.496   1.260   1.972
11019TIP3   OH233001   2.603   5.719   5.696
11019TIP3    H133002   2.635   5.726   5.606
11019TIP3    H233003   2.608   5.808   5.731
11020TIP3   OH233004   8.124   7.549   1.074
11020TIP3    H133005   8.083   7.517   0.993
11020TIP3    H233006   8.191   7.611   1.044
11021TIP3   OH233007   4.897   2.298   2.803
11021TIP3    H133008   4.963   2.305   2.734
11021TIP3    H233009   4.815   2.279   2.757
11022TIP3   OH233010   1.263   5.436   0.527
11022TIP3    H133011   1.219   5.351   0.524
11022TIP3    H233012   1.192   5.499   0.540
11023TIP3   OH233013   3.169   6.881   2.855
11023TIP3    H133014   3.144   6.809   2.798
11023TIP3    H233015   3.145   6.960   2.806
11024TIP3   OH233016   8.185   4.955   6.255
11024TIP3    H133017   8.096   4.927   6.280
11024TIP3    H233018   8.189   4.938   6.161
11025TIP3   OH233019   7.502   2.389   3.699
11025TIP3    H133020   7.430   2.330   3.677
11025TIP3    H233021   7.581   2.336   3.685
11026TIP3   OH233022   7.335   3.875   4.611
11026TIP3    H133023   7.309   3.936   4.543
11026TIP3    H233024   7.428   3.858   4.593
11027TIP3   OH233025   6.978   3.577   2.648
11027TIP3    H133026   7.055   3.569   2.705
11027TIP3    H233027   6.921   3.505   2.673
11028TIP3   OH233028   7.582   6.654   4.872
11028TIP3    H133029   7.538   6.584   4.920
11028TIP3    H233030   7.674   6.628   4.870
11029TIP3   OH233031   4.034   6.401   2.403
11029TIP3    H133032   4.129   6.404   2.406
11029TIP3    H233033   4.007   6.404   2.495
11030TIP3   OH233034   2.162   3.832   3.099
11030TIP3    H133035   2.154   3.817   3.004
11030TIP3    H233036   2.143   3.747   3.138
11031TIP3   OH233037   0.938   3.479   4.772
11031TIP3    H133038   0.985   3.519   4.845
11031TIP3    H233039   0.898   3.554   4.726
11032TIP3   OH233040   0.352   7.704   5.684
11032TIP3    H133041   0.428   7.670   5.636
11032TIP3    H233042   0.374   7.795   5.701
11033TIP3   OH233043   2.447   6.496   1.655
11033TIP3    H133044   2.395   6.447   1.719
11033TIP3    H233045   2.393   6.573   1.635
11034TIP3   OH233046   1.875   0.789   1.536
11034TIP3    H133047   1.824   0.767   1.459
11034TIP3    H233048   1.921   0.870   1.513
11035TIP3   OH233049   4.257   7.197   2.336
11035TIP3    H133050   4.176   7.177   2.290
11035TIP3    H233051   4.322   7.139   2.297
11036TIP3   OH233052   2.417   7.846   4.263
11036TIP3    H133053   2.456   7.803   4.338
11036TIP3    H233054   2.438   7.789   4.189
11037TIP3   OH233055   1.127   5.313   4.253
11037TIP3    H133056   1.059   5.320   4.320
11037TIP3    H233057   1.188   5.384   4.273
11038TIP3   OH233058   1.492   5.237   4.938
11038TIP3    H133059   1.571   5.258   4.986
11038TIP3    H233060   1.478   5.143   4.953
11039TIP3   OH233061   4.258   2.328   2.958
11039TIP3    H133062   4.265   2.372   3.043
11039TIP3    H233063   4.239   2.237   2.979
11040TIP3   OH233064   7.815   7.011   5.624
11040TIP3    H133065   7.735   7.032   5.574
11040TIP3    H233066   7.850   6.933   5.581
11041TIP3   OH233067   2.123   6.761   6.613
11041TIP3    H133068   2.197   6.708   6.642
11041TIP3    H233069   2.099   6.813   6.689
11042TIP3   OH233070   2.196   7.507   0.808
11042TIP3    H133071   2.178   7.586   0.757
11042TIP3    H233072   2.290   7.493   0.797
11043TIP3   OH233073   1.902   1.979   3.218
11043TIP3    H133074   1.919   2.022   3.134
11043TIP3    H233075   1.919   1.887   3.202
11044TIP3   OH233076   6.220   7.532   1.787
11044TIP3    H133077   6.239   7.453   1.838
11044TIP3    H233078   6.169   7.501   1.712
11045TIP3   OH233079   4.429   6.033   1.812
11045TIP3    H133080   4.524   6.039   1.806
11045TIP3    H233081   4.412   5.989   1.895
11046TIP3   OH233082   6.085   0.467   1.105
11046TIP3    H133083   6.119   0.440   1.191
11046TIP3    H233084   6.009   0.521   1.126
11047TIP3   OH233085   1.886   7.131   4.315
11047TIP3    H133086   1.869   7.110   4.407
11047TIP3    H233087   1.972   7.173   4.316
11048TIP3   OH233088   2.742   0.642   2.878
11048TIP3    H133089   2.664   0.587   2.874
11048TIP3    H233090   2.710   0.727   2.909
11049TIP3   OH233091   1.264   4.763   4.249
11049TIP3    H133092   1.330   4.786   4.183
11049TIP3    H233093   1.311   4.709   4.313
11050TIP3   OH233094   2.503   2.255   1.854
11050TIP3    H133095   2.445   2.191   1.813
11050TIP3    H233096   2.493   2.334   1.801
11051TIP3   OH233097   4.197   0.877   2.029
11051TIP3    H133098   4.217   0.845   1.941
11051TIP3    H233099   4.196   0.798   2.083
11052TIP3   OH233100   1.183   0.913   3.093
11052TIP3    H133101   1.207   0.960   3.013
11052TIP3    H233102   1.143   0.831   3.062
11053TIP3   OH233103   0.693   2.193   6.105
11053TIP3    H133104   0.599   2.206   6.092
11053TIP3    H233105   0.718   2.257   6.171
11054TIP3   OH233106   3.283   0.288   1.693
11054TIP3    H133107   3.290   0.364   1.751
11054TIP3    H233108   3.220   0.315   1.626
11055TIP3   OH233109   8.010   7.088   0.674
11055TIP3    H133110   8.068   7.013   0.691
11055TIP3    H233111   8.069   7.163   0.667
11056TIP3   OH233112   7.333   1.834   3.278
11056TIP3    H133113   7.367   1.802   3.362
11056TIP3    H233114   7.296   1.756   3.236
11057TIP3   OH233115   8.256   0.278   1.699
11057TIP3    H133116   8.165   0.303   1.689
11057TIP3    H233117   8.253   0.186   1.727
11058TIP3   OH233118   0.493   2.011   0.875
11058TIP3    H133119   0.550   2.007   0.952
11058TIP3    H233120   0.460   2.100   0.875
11059TIP3   OH233121   1.476   4.346   4.298
11059TIP3    H133122   1.542   4.343   4.368
11059TIP3    H233123   1.521   4.387   4.224
11060TIP3   OH233124   4.627   1.639   4.599
11060TIP3    H133125   4.587   1.700   4.661
11060TIP3    H233126   4.713   1.620   4.637
11061TIP3   OH233127   5.178   1.408   6.547
11061TIP3    H133128   5.252   1.433   6.603
11061TIP3    H233129   5.215   1.341   6.489
11062TIP3   OH233130   5.613   2.408   2.601
11062TIP3    H133131   5.636   2.500   2.584
11062TIP3    H233132   5.695   2.360   2.586
11063TIP3   OH233133   3.819   0.189   0.887
11063TIP3    H133134   3.888   0.228   0.834
11063TIP3    H233135   3.742   0.244   0.869
11064TIP3   OH233136   2.075   5.578   1.336
11064TIP3    H133137   2.159   5.548   1.301
11064TIP3    H233138   2.098   5.621   1.418
11065TIP3   OH233139   5.765   5.795   3.385
11065TIP3    H133140   5.857   5.820   3.382
11065TIP3    H233141   5.745   5.788   3.478
11066TIP3   OH233142   0.796   6.151   0.876
11066TIP3    H133143   0.723   6.209   0.897
11066TIP3    H233144   0.755   6.073   0.839
11067TIP3   OH233145   1.037   5.465   5.572
11067TIP3    H133146   1.103   5.423   5.627
11067TIP3    H233147   1.024   5.404   5.500
11068TIP3   OH233148   0.235   3.209   6.483
11068TIP3    H133149   0.193   3.281   6.530
11068TIP3    H233150   0.286   3.163   6.550
11069TIP3   OH233151   2.982   6.435   4.287
11069TIP3    H133152   3.074   6.427   4.264
11069TIP3    H233153   2.937   6.449   4.204
11070TIP3   OH233154   6.132   7.015   6.024
11070TIP3    H133155   6.177   6.978   6.100
11070TIP3    H233156   6.039   6.999   6.041
11071TIP3   OH233157   0.524   1.595   3.359
11071TIP3    H133158   0.550   1.656   3.289
11071TIP3    H233159   0.603   1.583   3.410
11072TIP3   OH233160   6.996   0.914   3.053
11072TIP3    H133161   7.070   0.973   3.044
11072TIP3    H233162   6.966   0.926   3.143
11073TIP3   OH233163   3.256   4.744   2.098
11073TIP3    H133164   3.206   4.664   2.118
11073TIP3    H233165   3.322   4.715   2.036
11074TIP3   OH233166   8.293   6.825   6.385
11074TIP3    H133167   8.287   6.750   6.444
11074TIP3    H233168   8.319   6.898   6.440
11075TIP3   OH233169   0.838   7.413   2.060
11075TIP3    H133170   0.771   7.442   2.122
11075TIP3    H233171   0.920   7.414   2.110
11076TIP3   OH233172   7.273   3.721   0.582
11076TIP3    H133173   7.221   3.802   0.576
11076TIP3    H233174   7.314   3.713   0.496
11077TIP3   OH233175   1.627   2.186   0.607
11077TIP3    H133176   1.672   2.184   0.522
11077TIP3    H233177   1.534   2.174   0.585
11078TIP3   OH233178   7.680   5.210   4.386
11078TIP3    H133179   7.674   5.125   4.429
11078TIP3    H233180   7.689   5.188   4.293
11079TIP3   OH233181   3.315   1.826   1.201
11079TIP3    H133182   3.259   1.768   1.253
11079TIP3    H233183   3.362   1.878   1.266
11080TIP3   OH233184   2.159   4.523   3.445
11080TIP3    H133185   2.229   4.560   3.391
11080TIP3    H233186   2.084   4.583   3.431
11081TIP3   OH233187   0.245   1.372   4.966
11081TIP3    H133188   0.265   1.294   4.915
11081TIP3    H233189   0.214   1.339   5.050
11082TIP3   OH233190   8.031   5.524   5.838
11082TIP3    H133191   8.126   5.524   5.825
11082TIP3    H233192   8.018   5.479   5.922
11083TIP3   OH233193   4.572   1.370   4.514
11083TIP3    H133194   4.477   1.375   4.507
11083TIP3    H233195   4.598   1.453   4.554
11084TIP3   OH233196   1.334   6.897   5.707
11084TIP3    H133197   1.269   6.890   5.637
11084TIP3    H233198   1.284   6.880   5.787
11085TIP3   OH233199   1.842   1.326   5.792
11085TIP3    H133200   1.807   1.373   5.716
11085TIP3    H233201   1.818   1.380   5.867
11086TIP3   OH233202   1.351   7.675   6.051
11086TIP3    H133203   1.352   7.590   6.007
11086TIP3    H233204   1.422   7.669   6.115
11087TIP3   OH233205   4.344   5.177   4.521
11087TIP3    H133206   4.354   5.264   4.560
11087TIP3    H233207   4.264   5.184   4.468
11088TIP3   OH233208   1.489   5.714   3.363
11088TIP3    H133209   1.396   5.733   3.373
11088TIP3    H233210   1.520   5.777   3.298
11089TIP3   OH233211   7.094   3.843   1.150
11089TIP3    H133212   7.010   3.878   1.120
11089TIP3    H233213   7.105   3.762   1.100
11090TIP3   OH233214   6.635   4.922   2.483
11090TIP3    H133215   6.640   5.017   2.476
11090TIP3    H233216   6.726   4.893   2.485
11091TIP3   OH233217   1.203   1.653   2.115
11091TIP3    H133218   1.138   1.583   2.122
11091TIP3    H233219   1.159   1.730   2.151
11092TIP3   OH233220   4.154   6.327   0.677
11092TIP3    H133221   4.226   6.359   0.730
11092TIP3    H233222   4.121   6.251   0.725
11093TIP3   OH233223   2.364   6.406   2.410
11093TIP3    H133224   2.354   6.501   2.406
11093TIP3    H233225   2.310   6.379   2.484
11094TIP3   OH233226   5.593   5.756   3.992
11094TIP3    H133227   5.563   5.842   3.962
11094TIP3    H233228   5.676   5.774   4.037
11095TIP3   OH233229   5.848   1.522   5.983
11095TIP3    H133230   5.914   1.494   5.920
11095TIP3    H233231   5.835   1.615   5.964
11096TIP3   OH233232   2.897   2.327   4.366
11096TIP3    H133233   2.876   2.404   4.420
11096TIP3    H233234   2.956   2.360   4.299
11097TIP3   OH233235   3.326   1.317   4.935
11097TIP3    H133236   3.291   1.272   5.012
11097TIP3    H233237   3.253   1.316   4.873
11098TIP3   OH233238   7.764   4.227   4.438
11098TIP3    H133239   7.828   4.197   4.504
11098TIP3    H233240   7.715   4.148   4.416
11099TIP3   OH233241   0.230   7.714   5.059
11099TIP3    H133242   0.293   7.694   5.128
11099TIP3    H233243   0.180   7.633   5.048
11100TIP3   OH233244   4.627   4.361   1.927
11100TIP3    H133245   4.615   4.266   1.930
11100TIP3    H233246   4.539   4.395   1.911
11101TIP3   OH233247   5.015   6.943   0.499
11101TIP3    H133248   4.927   6.908   0.513
11101TIP3    H233249   5.042   6.907   0.415
11102TIP3   OH233250   3.098   5.417   5.489
11102TIP3    H133251   3.019   5.439   5.440
11102TIP3    H233252   3.067   5.404   5.579
11103TIP3   OH233253   7.017   1.554   1.467
11103TIP3    H133254   6.951   1.593   1.523
11103TIP3    H233255   6.976   1.474   1.434
11104TIP3   OH233256   7.755   7.062   2.043
11104TIP3    H133257   7.666   7.035   2.061
11104TIP3    H233258   7.808   6.983   2.055
11105TIP3   OH233259   7.018   1.000   0.392
11105TIP3    H133260   7.001   0.924   0.447
11105TIP3    H233261   7.053   0.964   0.310
11106TIP3   OH233262   3.967   4.647   1.916
11106TIP3    H133263   4.023   4.701   1.972
11106TIP3    H233264   3.966   4.561   1.958
11107TIP3   OH233265   2.458   5.067   0.577
11107TIP3    H133266   2.526   5.132   0.594
11107TIP3    H233267   2.396   5.077   0.649
11108TIP3   OH233268   1.016   2.947   5.422
11108TIP3    H133269   0.995   3.005   5.349
11108TIP3    H233270   1.066   2.875   5.382
11109TIP3   OH233271   1.916   5.402   0.006
11109TIP3    H133272   1.960   5.462   0.066
11109TIP3    H233273   1.941   5.314   0.036
11110TIP3   OH233274   7.096   0.545   0.477
11110TIP3    H133275   7.082   0.450   0.483
11110TIP3    H233276   7.189   0.557   0.498
11111TIP3   OH233277   4.506   6.031   1.286
11111TIP3    H133278   4.588   6.075   1.311
11111TIP3    H233279   4.519   5.940   1.312
11112TIP3   OH233280   3.535   5.465   2.198
11112TIP3    H133281   3.584   5.382   2.200
11112TIP3    H233282   3.598   5.531   2.225
11113TIP3   OH233283   4.705   5.122   6.545
11113TIP3    H133284   4.680   5.033   6.520
11113TIP3    H233285   4.694   5.174   6.465
11114TIP3   OH233286   5.638   7.723   5.610
11114TIP3    H133287   5.616   7.805   5.654
11114TIP3    H233288   5.713   7.743   5.555
11115TIP3   OH233289   2.653   6.001   5.598
11115TIP3    H133290   2.680   5.938   5.532
11115TIP3    H233291   2.560   6.015   5.582
11116TIP3   OH233292   4.206   0.834   6.141
11116TIP3    H133293   4.301   0.836   6.132
11116TIP3    H233294   4.188   0.747   6.176
11117TIP3   OH233295   0.580   1.207   4.345
11117TIP3    H133296   0.572   1.292   4.388
11117TIP3    H233297   0.674   1.195   4.333
11118TIP3   OH233298   6.624   0.882   0.612
11118TIP3    H133299   6.636   0.794   0.647
11118TIP3    H233300   6.638   0.873   0.518
11119TIP3   OH233301   4.451   5.190   5.594
11119TIP3    H133302   4.406   5.274   5.581
11119TIP3    H233303   4.539   5.204   5.558
11120TIP3   OH233304   6.554   4.570   6.191
11120TIP3    H133305   6.609   4.642   6.160
11120TIP3    H233306   6.592   4.545   6.275
11121TIP3   OH233307   7.949   7.363   1.246
11121TIP3    H133308   7.910   7.432   1.299
11121TIP3    H233309   8.010   7.407   1.188
11122TIP3   OH233310   0.366   5.259   1.179
11122TIP3    H133311   0.334   5.294   1.097
11122TIP3    H233312   0.419   5.329   1.217
11123TIP3   OH233313   3.465   2.169   2.363
11123TIP3    H133314   3.474   2.239   2.428
11123TIP3    H233315   3.550   2.168   2.319
11124TIP3   OH233316   3.999   5.930   4.880
11124TIP3    H133317   4.033   5.870   4.814
11124TIP3    H233318   3.945   5.876   4.937
11125TIP3   OH233319   0.165   2.505   1.094
11125TIP3    H133320   0.218   2.582   1.075
11125TIP3    H233321   0.229   2.436   1.111
11126TIP3   OH233322   7.691   0.606   2.488
11126TIP3    H133323   7.703   0.558   2.406
11126TIP3    H233324   7.774   0.651   2.502
11127TIP3   OH233325   8.193  -0.006   3.042
11127TIP3    H133326   8.257   0.058   3.010
11127TIP3    H233327   8.138  -0.025   2.966
11128TIP3   OH233328   2.299   2.627   5.905
11128TIP3    H133329   2.221   2.657   5.860
11128TIP3    H233330   2.325   2.701   5.959
11129TIP3   OH233331   3.797   6.651   4.515
11129TIP3    H133332   3.761   6.697   4.590
11129TIP3    H233333   3.736   6.579   4.499
11130TIP3   OH233334   5.888   0.621   5.525
11130TIP3    H133335   5.797   0.604   5.547
11130TIP3    H233336   5.918   0.541   5.483
11131TIP3   OH233337   6.559   5.043   6.478
11131TIP3    H133338   6.536   4.984   6.549
11131TIP3    H233339   6.483   5.040   6.419
11132TIP3   OH233340   4.667   7.776   6.607
11132TIP3    H133341   4.682   7.862   6.568
11132TIP3    H233342   4.745   7.726   6.585
11133TIP3   OH233343   6.125   6.430   3.627
11133TIP3    H133344   6.075   6.506   3.656
11133TIP3    H233345   6.088   6.356   3.675
11134TIP3   OH233346   2.724   2.386   0.585
11134TIP3    H133347   2.636   2.369   0.553
11134TIP3    H233348   2.776   2.313   0.549
11135TIP3   OH233349   7.777   1.764   1.545
11135TIP3    H133350   7.703   1.717   1.583
11135TIP3    H233351   7.818   1.701   1.486
11136TIP3   OH233352   2.009   6.506   0.326
11136TIP3    H133353   1.943   6.510   0.257
11136TIP3    H233354   2.083   6.460   0.286
11137TIP3   OH233355   2.125   5.747   2.318
11137TIP3    H133356   2.199   5.722   2.262
11137TIP3    H233357   2.072   5.668   2.326
11138TIP3   OH233358   1.218   1.513   1.361
11138TIP3    H133359   1.313   1.499   1.361
11138TIP3    H233360   1.188   1.461   1.286
11139TIP3   OH233361   1.293   3.420   1.041
11139TIP3    H133362   1.240   3.373   1.106
11139TIP3    H233363   1.361   3.357   1.016
11140TIP3   OH233364   6.579   7.599   0.277
11140TIP3    H133365   6.484   7.610   0.279
11140TIP3    H233366   6.614   7.683   0.304
11141TIP3   OH233367   2.308   4.312   3.108
11141TIP3    H133368   2.356   4.236   3.140
11141TIP3    H233369   2.348   4.387   3.152
11142TIP3   OH233370   2.527   3.827   0.257
11142TIP3    H133371   2.465   3.894   0.285
11142TIP3    H233372   2.578   3.807   0.335
11143TIP3   OH233373   0.486   2.310   3.096
11143TIP3    H133374   0.580   2.297   3.100
11143TIP3    H233375   0.452   2.227   3.062
11144TIP3   OH233376   3.381   0.865   1.511
11144TIP3    H133377   3.379   0.887   1.418
11144TIP3    H233378   3.379   0.950   1.555
11145TIP3   OH233379   3.856   2.266   4.964
11145TIP3    H133380   3.864   2.355   4.930
11145TIP3    H233381   3.894   2.210   4.896
11146TIP3   OH233382   7.768   3.390   0.154
11146TIP3    H133383   7.852   3.345   0.157
11146TIP3    H233384   7.715   3.338   0.093
11147TIP3   OH233385   4.027   7.372   3.208
11147TIP3    H133386   4.019   7.461   3.243
11147TIP3    H233387   4.122   7.355   3.206
11148TIP3   OH233388   7.799   1.057   1.553
11148TIP3    H133389   7.718   1.009   1.536
11148TIP3    H233390   7.867   0.990   1.553
11149TIP3   OH233391   4.638   7.465   2.476
11149TIP3    H133392   4.662   7.539   2.420
11149TIP3    H233393   4.721   7.424   2.498
11150TIP3   OH233394   4.935   3.054   2.844
11150TIP3    H133395   5.016   3.102   2.827
11150TIP3    H233396   4.928   3.052   2.940
11151TIP3   OH233397   7.019   6.473   2.791
11151TIP3    H133398   7.069   6.554   2.803
11151TIP3    H233399   6.952   6.476   2.859
11152TIP3   OH233400   0.376   4.607   1.161
11152TIP3    H133401   0.461   4.634   1.195
11152TIP3    H233402   0.345   4.682   1.111
11153TIP3   OH233403   1.893   3.161   1.608
11153TIP3    H133404   1.956   3.186   1.541
11153TIP3    H233405   1.808   3.183   1.570
11154TIP3   OH233406   7.286   2.069   3.402
11154TIP3    H133407   7.357   2.129   3.379
11154TIP3    H233408   7.296   1.996   3.341
11155TIP3   OH233409   3.347   7.278   3.904
11155TIP3    H133410   3.360   7.324   3.987
11155TIP3    H233411   3.361   7.186   3.926
11156TIP3   OH233412   6.055   5.102   1.827
11156TIP3    H133413   6.144   5.120   1.796
11156TIP3    H233414   6.006   5.182   1.808
11157TIP3   OH233415   2.737   6.287   0.990
11157TIP3    H133416   2.820   6.325   1.021
11157TIP3    H233417   2.669   6.334   1.039
11158TIP3   OH233418   2.486   1.849   0.702
11158TIP3    H133419   2.558   1.862   0.763
11158TIP3    H233420   2.491   1.923   0.642
11159TIP3   OH233421   1.595   0.228   2.126
11159TIP3    H133422   1.518   0.208   2.178
11159TIP3    H233423   1.621   0.316   2.155
11160TIP3   OH233424   4.472   5.182   5.247
11160TIP3    H133425   4.553   5.188   5.297
11160TIP3    H233426   4.466   5.266   5.201
11161TIP3   OH233427   0.434   1.934   4.222
11161TIP3    H133428   0.513   1.982   4.247
11161TIP3    H233429   0.466   1.851   4.185
11162TIP3   OH233430   5.852   0.681   3.060
11162TIP3    H133431   5.936   0.664   3.018
11162TIP3    H233432   5.874   0.716   3.146
11163TIP3   OH233433   5.044   0.771   6.315
11163TIP3    H133434   5.006   0.784   6.228
11163TIP3    H233435   5.067   0.678   6.317
11164TIP3   OH233436   4.457   6.858   0.600
11164TIP3    H133437   4.418   6.775   0.573
11164TIP3    H233438   4.455   6.856   0.696
11165TIP3   OH233439   5.437   4.799   2.570
11165TIP3    H133440   5.387   4.749   2.505
11165TIP3    H233441   5.382   4.797   2.648
11166TIP3   OH233442   1.141   4.775   2.791
11166TIP3    H133443   1.171   4.834   2.860
11166TIP3    H233444   1.049   4.759   2.811
11167TIP3   OH233445   3.950   4.704   0.758
11167TIP3    H133446   3.865   4.691   0.716
11167TIP3    H233447   4.013   4.697   0.687
11168TIP3   OH233448   1.075   2.180   5.741
11168TIP3    H133449   1.140   2.125   5.786
11168TIP3    H233450   0.996   2.171   5.794
11169TIP3   OH233451   0.673   4.674   4.228
11169TIP3    H133452   0.755   4.716   4.199
11169TIP3    H233453   0.643   4.728   4.301
11170TIP3   OH233454   5.339   6.988   5.414
11170TIP3    H133455   5.323   6.900   5.448
11170TIP3    H233456   5.339   6.978   5.319
11171TIP3   OH233457   4.683   0.139   2.386
11171TIP3    H133458   4.630   0.085   2.327
11171TIP3    H233459   4.699   0.082   2.462
11172TIP3   OH233460   7.303   4.376   6.335
11172TIP3    H133461   7.326   4.419   6.417
11172TIP3    H233462   7.283   4.286   6.359
11173TIP3   OH233463   6.975   2.087   3.355
11173TIP3    H133464   7.067   2.111   3.344
11173TIP3    H233465   6.958   2.101   3.448
11174TIP3   OH233466   2.228   7.350   5.040
11174TIP3    H133467   2.192   7.280   4.986
11174TIP3    H233468   2.323   7.339   5.033
11175TIP3   OH233469   2.271   0.316   0.558
11175TIP3    H133470   2.321   0.235   0.550
11175TIP3    H233471   2.190   0.289   0.603
11176TIP3   OH233472   4.512   4.411   0.266
11176TIP3    H133473   4.436   4.423   0.209
11176TIP3    H233474   4.585   4.448   0.218
11177TIP3   OH233475   7.637   1.984   4.812
11177TIP3    H133476   7.728   1.956   4.804
11177TIP3    H233477   7.632   2.065   4.762
11178TIP3   OH233478   2.473   4.104   3.230
11178TIP3    H133479   2.467   4.009   3.243
11178TIP3    H233480   2.438   4.141   3.310
11179TIP3   OH233481   0.248   0.133   4.378
11179TIP3    H133482   0.321   0.166   4.431
11179TIP3    H233483   0.232   0.201   4.313
11180TIP3   OH233484   5.257   6.945   0.640
11180TIP3    H133485   5.170   6.956   0.602
11180TIP3    H233486   5.259   6.854   0.669
11181TIP3   OH233487   3.494   2.306   6.437
11181TIP3    H133488   3.498   2.401   6.435
11181TIP3    H233489   3.501   2.279   6.346
11182TIP3   OH233490   3.003   7.347   5.061
11182TIP3    H133491   3.029   7.259   5.089
11182TIP3    H233492   2.928   7.334   5.004
11183TIP3   OH233493   4.927   1.360   2.496
11183TIP3    H133494   4.846   1.400   2.527
11183TIP3    H233495   4.945   1.290   2.558
11184TIP3   OH233496   7.532   4.460   3.807
11184TIP3    H133497   7.439   4.440   3.811
11184TIP3    H233498   7.565   4.411   3.732
11185TIP3   OH233499   6.691   5.515   1.731
11185TIP3    H133500   6.607   5.479   1.759
11185TIP3    H233501   6.756   5.464   1.781
11186TIP3   OH233502   7.105   5.914   1.947
11186TIP3    H133503   7.169   5.843   1.956
11186TIP3    H233504   7.157   5.994   1.950
11187TIP3   OH233505   1.219   5.355   5.781
11187TIP3    H133506   1.308   5.387   5.772
11187TIP3    H233507   1.228   5.260   5.789
11188TIP3   OH233508   6.465   7.597   4.157
11188TIP3    H133509   6.507   7.512   4.145
11188TIP3    H233510   6.532   7.652   4.198
11189TIP3   OH233511   5.950   6.961   0.684
11189TIP3    H133512   5.904   6.889   0.725
11189TIP3    H233513   6.042   6.934   0.684
11190TIP3   OH233514   1.946   3.097   0.489
11190TIP3    H133515   2.037   3.103   0.458
11190TIP3    H233516   1.901   3.170   0.447
11191TIP3   OH233517   5.902   3.761   2.016
11191TIP3    H133518   5.965   3.832   2.001
11191TIP3    H233519   5.953   3.681   2.004
11192TIP3   OH233520   4.276   0.557   1.662
11192TIP3    H133521   4.257   0.487   1.599
11192TIP3    H233522   4.371   0.551   1.677
11193TIP3   OH233523   7.308   3.800   4.241
11193TIP3    H133524   7.299   3.721   4.188
11193TIP3    H233525   7.225   3.807   4.289
11194TIP3   OH233526   1.287   6.335   4.368
11194TIP3    H133527   1.298   6.305   4.458
11194TIP3    H233528   1.333   6.419   4.365
11195TIP3   OH233529   6.122   2.006   2.327
11195TIP3    H133530   6.081   2.004   2.240
11195TIP3    H233531   6.094   1.925   2.368
11196TIP3   OH233532   6.187   5.961   2.552
11196TIP3    H133533   6.220   5.880   2.591
11196TIP3    H233534   6.203   6.028   2.619
11197TIP3   OH233535   3.525   4.411   1.136
11197TIP3    H133536   3.581   4.437   1.208
11197TIP3    H233537   3.470   4.488   1.119
11198TIP3   OH233538   4.449   5.332   0.270
11198TIP3    H133539   4.382   5.381   0.319
11198TIP3    H233540   4.508   5.299   0.337
11199TIP3   OH233541   7.901   2.240   5.176
11199TIP3    H133542   7.949   2.305   5.125
11199TIP3    H233543   7.914   2.158   5.129
11200TIP3   OH233544   5.513   3.483   3.625
11200TIP3    H133545   5.565   3.449   3.698
11200TIP3    H233546   5.433   3.516   3.666
11201TIP3   OH233547   5.076   5.628   4.470
11201TIP3    H133548   5.052   5.716   4.501
11201TIP3    H233549   4.993   5.581   4.465
11202TIP3   OH233550   5.346   0.106   2.793
11202TIP3    H133551   5.320   0.179   2.849
11202TIP3    H233552   5.306   0.125   2.708
11203TIP3   OH233553   3.009   6.335   1.546
11203TIP3    H133554   3.070   6.300   1.610
11203TIP3    H233555   3.050   6.415   1.515
11204TIP3   OH233556   7.245   1.783   6.016
11204TIP3    H133557   7.285   1.716   5.961
11204TIP3    H233558   7.227   1.856   5.957
11205TIP3   OH233559   3.918   3.673   1.711
11205TIP3    H133560   3.992   3.623   1.746
11205TIP3    H233561   3.920   3.656   1.617
11206TIP3   OH233562   3.799   6.065   3.020
11206TIP3    H133563   3.735   5.993   3.016
11206TIP3    H233564   3.879   6.024   3.051
11207TIP3   OH233565   3.892   5.798   1.271
11207TIP3    H133566   3.827   5.858   1.237
11207TIP3    H233567   3.944   5.850   1.332
11208TIP3   OH233568   7.708   3.046   2.458
11208TIP3    H133569   7.778   3.007   2.511
11208TIP3    H233570   7.725   3.140   2.462
11209TIP3   OH233571   0.195   2.396   0.240
11209TIP3    H133572   0.138   2.472   0.226
11209TIP3    H233573   0.269   2.430   0.290
11210TIP3   OH233574   5.260   1.212   0.455
11210TIP3    H133575   5.181   1.178   0.495
11210TIP3    H233576   5.324   1.218   0.526
11211TIP3   OH233577   1.149   2.670   0.244
11211TIP3    H133578   1.217   2.662   0.312
11211TIP3    H233579   1.126   2.763   0.244
11212TIP3   OH233580   6.579   0.679   3.713
11212TIP3    H133581   6.587   0.590   3.749
11212TIP3    H233582   6.486   0.699   3.719
11213TIP3   OH233583   3.066   6.542   2.072
11213TIP3    H133584   3.145   6.591   2.054
11213TIP3    H233585   3.022   6.536   1.987
11214TIP3   OH233586   1.407   2.928   1.419
11214TIP3    H133587   1.315   2.954   1.426
11214TIP3    H233588   1.404   2.833   1.408
11215TIP3   OH233589   7.418   0.200   5.578
11215TIP3    H133590   7.428   0.258   5.653
11215TIP3    H233591   7.433   0.113   5.613
11216TIP3   OH233592   8.022   2.529   1.986
11216TIP3    H133593   7.997   2.460   2.049
11216TIP3    H233594   8.090   2.489   1.932
11217TIP3   OH233595   0.980   5.767   0.875
11217TIP3    H133596   1.010   5.732   0.959
11217TIP3    H233597   0.948   5.691   0.827
11218TIP3   OH233598   4.972   5.265   4.610
11218TIP3    H133599   4.939   5.269   4.520
11218TIP3    H233600   5.006   5.176   4.619
11219TIP3   OH233601   6.629   7.523   2.449
11219TIP3    H133602   6.706   7.468   2.435
11219TIP3    H233603   6.591   7.534   2.362
11220TIP3   OH233604   2.946   2.873   0.081
11220TIP3    H133605   2.954   2.781   0.104
11220TIP3    H233606   2.888   2.910   0.147
11221TIP3   OH233607   6.255   7.508   6.332
11221TIP3    H133608   6.167   7.507   6.293
11221TIP3    H233609   6.280   7.416   6.337
11222TIP3   OH233610   7.250   2.438   3.200
11222TIP3    H133611   7.342   2.424   3.222
11222TIP3    H233612   7.243   2.414   3.107
11223TIP3   OH233613   7.890   6.329   5.703
11223TIP3    H133614   7.800   6.297   5.692
11223TIP3    H233615   7.895   6.356   5.795
11224TIP3   OH233616   5.541   3.310   3.852
11224TIP3    H133617   5.592   3.258   3.915
11224TIP3    H233618   5.450   3.297   3.880
11225TIP3   OH233619   0.110   6.622   3.730
11225TIP3    H133620   0.135   6.632   3.822
11225TIP3    H233621   0.017   6.599   3.732
11226TIP3   OH233622   6.251   1.998   2.737
11226TIP3    H133623   6.246   1.909   2.771
11226TIP3    H233624   6.285   2.049   2.811
11227TIP3   OH233625   0.718   6.440   3.120
11227TIP3    H133626   0.698   6.352   3.088
11227TIP3    H233627   0.750   6.487   3.043
11228TIP3   OH233628   5.567   2.921   0.727
11228TIP3    H133629   5.556   2.942   0.634
11228TIP3    H233630   5.561   2.825   0.731
11229TIP3   OH233631   4.591   5.419   2.713
11229TIP3    H133632   4.671   5.437   2.663
11229TIP3    H233633   4.527   5.391   2.647
11230TIP3   OH233634   2.848   5.834   6.181
11230TIP3    H133635   2.827   5.832   6.275
11230TIP3    H233636   2.886   5.921   6.167
11231TIP3   OH233637   2.755   7.229   5.020
11231TIP3    H133638   2.753   7.248   5.114
11231TIP3    H233639   2.804   7.146   5.014
11232TIP3   OH233640   2.525   0.262   6.508
11232TIP3    H133641   2.497   0.283   6.597
11232TIP3    H233642   2.449   0.219   6.469
11233TIP3   OH233643   7.758   5.488   1.240
11233TIP3    H133644   7.677   5.510   1.287
11233TIP3    H233645   7.828   5.520   1.296
11234TIP3   OH233646   1.821   1.737   1.651
11234TIP3    H133647   1.846   1.819   1.609
11234TIP3    H233648   1.735   1.754   1.689
11235TIP3   OH233649   0.401   7.231   3.869
11235TIP3    H133650   0.463   7.188   3.928
11235TIP3    H233651   0.444   7.228   3.784
11236TIP3   OH233652   3.900   4.321   3.617
11236TIP3    H133653   3.919   4.414   3.605
11236TIP3    H233654   3.936   4.300   3.703
11237TIP3   OH233655   8.014   7.723   6.507
11237TIP3    H133656   7.938   7.781   6.514
11237TIP3    H233657   8.059   7.752   6.428
11238TIP3   OH233658   1.559   5.684   1.829
11238TIP3    H133659   1.629   5.619   1.831
11238TIP3    H233660   1.510   5.668   1.910
11239TIP3   OH233661   7.736  -0.041   5.163
11239TIP3    H133662   7.831  -0.042   5.150
11239TIP3    H233663   7.707   0.039   5.120
11240TIP3   OH233664   3.591   5.689   6.111
11240TIP3    H133665   3.615   5.744   6.037
11240TIP3    H233666   3.672   5.645   6.136
11241TIP3   OH233667   7.157   0.722   5.430
11241TIP3    H133668   7.202   0.732   5.514
11241TIP3    H233669   7.112   0.637   5.437
11242TIP3   OH233670   0.007   3.336   0.434
11242TIP3    H133671   0.044   3.254   0.468
11242TIP3    H233672   0.083   3.386   0.406
11243TIP3   OH233673   3.345   5.697   2.268
11243TIP3    H133674   3.304   5.641   2.202
11243TIP3    H233675   3.432   5.659   2.281
11244TIP3   OH233676   4.176   4.132   3.071
11244TIP3    H133677   4.145   4.095   3.153
11244TIP3    H233678   4.250   4.187   3.095
11245TIP3   OH233679   4.763   2.699   0.662
11245TIP3    H133680   4.837   2.742   0.618
11245TIP3    H233681   4.797   2.673   0.747
11246TIP3   OH233682   0.499   6.705   5.600
11246TIP3    H133683   0.469   6.733   5.687
11246TIP3    H233684   0.471   6.614   5.593
11247TIP3   OH233685   0.409   0.732   1.149
11247TIP3    H133686   0.320   0.767   1.152
11247TIP3    H233687   0.460   0.788   1.207
11248TIP3   OH233688   4.569   6.542   2.633
11248TIP3    H133689   4.578   6.466   2.575
11248TIP3    H233690   4.531   6.507   2.713
11249TIP3   OH233691   6.707   1.384   0.876
11249TIP3    H133692   6.618   1.394   0.843
11249TIP3    H233693   6.698   1.336   0.958
11250TIP3   OH233694   5.689   6.798   1.554
11250TIP3    H133695   5.757   6.746   1.597
11250TIP3    H233696   5.690   6.770   1.463
11251TIP3   OH233697   5.839   5.638   5.317
11251TIP3    H133698   5.795   5.625   5.401
11251TIP3    H233699   5.840   5.733   5.306
11252TIP3   OH233700   4.744   2.274   4.534
11252TIP3    H133701   4.723   2.364   4.559
11252TIP3    H233702   4.831   2.258   4.572
11253TIP3   OH233703   4.323   1.065   0.461
11253TIP3    H133704   4.395   1.060   0.398
11253TIP3    H233705   4.352   1.013   0.536
11254TIP3   OH233706   3.149   0.489   1.260
11254TIP3    H133707   3.113   0.490   1.349
11254TIP3    H233708   3.213   0.418   1.262
11255TIP3   OH233709   7.385   1.030   6.639
11255TIP3    H133710   7.476   1.002   6.641
11255TIP3    H233711   7.335   0.949   6.625
11256TIP3   OH233712   2.580   1.163   5.161
11256TIP3    H133713   2.598   1.079   5.119
11256TIP3    H233714   2.495   1.190   5.126
11257TIP3   OH233715   7.928   1.584   2.892
11257TIP3    H133716   7.858   1.563   2.830
11257TIP3    H233717   7.976   1.657   2.851
11258TIP3   OH233718   5.260   5.195   3.138
11258TIP3    H133719   5.322   5.195   3.211
11258TIP3    H233720   5.255   5.104   3.111
11259TIP3   OH233721   0.566   5.514   3.562
11259TIP3    H133722   0.636   5.461   3.599
11259TIP3    H233723   0.535   5.567   3.635
11260TIP3   OH233724   0.893   6.774   4.099
11260TIP3    H133725   0.922   6.726   4.177
11260TIP3    H233726   0.807   6.736   4.078
11261TIP3   OH233727   5.315   4.279   0.114
11261TIP3    H133728   5.296   4.187   0.133
11261TIP3    H233729   5.386   4.302   0.174
11262TIP3   OH233730   1.200   7.485   5.458
11262TIP3    H133731   1.129   7.470   5.396
11262TIP3    H233732   1.228   7.398   5.484
11263TIP3   OH233733   4.195   0.088   1.340
11263TIP3    H133734   4.170   0.075   1.248
11263TIP3    H233735   4.112   0.105   1.385
11264TIP3   OH233736   5.369   1.500   2.225
11264TIP3    H133737   5.275   1.483   2.232
11264TIP3    H233738   5.394   1.534   2.310
11265TIP3   OH233739   7.697   6.519   6.330
11265TIP3    H133740   7.695   6.462   6.254
11265TIP3    H233741   7.645   6.596   6.305
11266TIP3   OH233742   5.252   4.744   6.191
11266TIP3    H133743   5.171   4.743   6.140
11266TIP3    H233744   5.318   4.707   6.132
11267TIP3   OH233745   7.005   5.066   4.569
11267TIP3    H133746   7.040   5.013   4.641
11267TIP3    H233747   7.012   5.010   4.492
11268TIP3   OH233748   0.469   0.862   3.681
11268TIP3    H133749   0.498   0.953   3.673
11268TIP3    H233750   0.447   0.836   3.592
11269TIP3   OH233751   8.081   7.759   0.541
11269TIP3    H133752   8.173   7.777   0.520
11269TIP3    H233753   8.085   7.696   0.612
11270TIP3   OH233754   2.328   2.631   3.022
11270TIP3    H133755   2.282   2.713   3.039
11270TIP3    H233756   2.306   2.575   3.097
11271TIP3   OH233757   3.829   4.464   1.182
11271TIP3    H133758   3.891   4.536   1.174
11271TIP3    H233759   3.771   4.490   1.253
11272TIP3   OH233760   3.024   6.257   2.125
11272TIP3    H133761   3.031   6.350   2.103
11272TIP3    H233762   2.932   6.235   2.108
11273TIP3   OH233763   2.762   1.630   2.752
11273TIP3    H133764   2.772   1.534   2.756
11273TIP3    H233765   2.675   1.646   2.788
11274TIP3   OH233766   1.299   6.117   4.235
11274TIP3    H133767   1.279   6.193   4.289
11274TIP3    H233768   1.229   6.115   4.170
11275TIP3   OH233769   2.341   0.414   2.456
11275TIP3    H133770   2.339   0.430   2.361
11275TIP3    H233771   2.269   0.353   2.471
11276TIP3   OH233772   7.323   3.556   1.794
11276TIP3    H133773   7.351   3.467   1.814
11276TIP3    H233774   7.404   3.603   1.773
11277TIP3   OH233775   7.459   6.029   4.076
11277TIP3    H133776   7.422   6.030   3.987
11277TIP3    H233777   7.487   6.119   4.091
11278TIP3   OH233778   6.889   3.327   0.087
11278TIP3    H133779   6.944   3.329   0.165
11278TIP3    H233780   6.799   3.324   0.121
11279TIP3   OH233781   3.001   3.759   2.061
11279TIP3    H133782   2.995   3.785   2.153
11279TIP3    H233783   3.089   3.722   2.053
11280TIP3   OH233784   1.645   3.037   3.973
11280TIP3    H133785   1.674   3.018   3.884
11280TIP3    H233786   1.593   3.116   3.965
11281TIP3   OH233787   0.408   7.208   0.247
11281TIP3    H133788   0.451   7.206   0.162
11281TIP3    H233789   0.468   7.162   0.306
11282TIP3   OH233790   5.166   6.665   3.997
11282TIP3    H133791   5.151   6.737   4.058
11282TIP3    H233792   5.129   6.588   4.041
11283TIP3   OH233793   1.562   7.385   1.183
11283TIP3    H133794   1.580   7.455   1.245
11283TIP3    H233795   1.469   7.366   1.194
11284TIP3   OH233796   3.010   0.200   3.848
11284TIP3    H133797   2.977   0.218   3.936
11284TIP3    H233798   3.101   0.230   3.850
11285TIP3   OH233799   3.812   1.869   4.415
11285TIP3    H133800   3.824   1.879   4.510
11285TIP3    H233801   3.744   1.933   4.393
11286TIP3   OH233802   4.401   5.470   4.425
11286TIP3    H133803   4.348   5.537   4.382
11286TIP3    H233804   4.368   5.467   4.515
11287TIP3   OH233805   6.199   5.387   1.793
11287TIP3    H133806   6.153   5.347   1.719
11287TIP3    H233807   6.196   5.481   1.775
11288TIP3   OH233808   6.840   4.787   1.248
11288TIP3    H133809   6.829   4.694   1.268
11288TIP3    H233810   6.768   4.830   1.293
11289TIP3   OH233811   5.145   7.795   3.674
11289TIP3    H133812   5.051   7.807   3.679
11289TIP3    H233813   5.166   7.737   3.747
11290TIP3   OH233814   5.954   0.153   0.253
11290TIP3    H133815   6.022   0.096   0.290
11290TIP3    H233816   5.957   0.136   0.159
11291TIP3   OH233817   5.279   0.614   4.719
11291TIP3    H133818   5.325   0.540   4.759
11291TIP3    H233819   5.337   0.689   4.731
11292TIP3   OH233820   3.066   2.635   2.671
11292TIP3    H133821   3.123   2.607   2.742
11292TIP3    H233822   3.061   2.559   2.613
11293TIP3   OH233823   7.792   3.788   1.215
11293TIP3    H133824   7.719   3.845   1.239
11293TIP3    H233825   7.851   3.794   1.290
11294TIP3   OH233826   3.783   0.221   3.492
11294TIP3    H133827   3.859   0.279   3.498
11294TIP3    H233828   3.708   0.278   3.507
11295TIP3   OH233829   4.723   7.065   0.751
11295TIP3    H133830   4.790   7.074   0.819
11295TIP3    H233831   4.747   6.985   0.704
11296TIP3   OH233832   6.864   4.768   3.063
11296TIP3    H133833   6.898   4.850   3.099
11296TIP3    H233834   6.927   4.743   2.996
11297TIP3   OH233835   4.389   2.574   1.755
11297TIP3    H133836   4.383   2.600   1.847
11297TIP3    H233837   4.441   2.494   1.755
11298TIP3   OH233838   7.007   5.796   1.232
11298TIP3    H133839   6.938   5.811   1.297
11298TIP3    H233840   7.076   5.751   1.281
11299TIP3   OH233841   8.166   2.863   3.805
11299TIP3    H133842   8.115   2.907   3.738
11299TIP3    H233843   8.249   2.841   3.763
11300TIP3   OH233844   6.061   5.976   1.532
11300TIP3    H133845   6.077   5.926   1.612
11300TIP3    H233846   6.017   6.055   1.561
11301TIP3   OH233847   0.070   7.587   3.509
11301TIP3    H133848   0.135   7.654   3.487
11301TIP3    H233849   0.000   7.636   3.553
11302TIP3   OH233850   7.857   4.500   1.467
11302TIP3    H133851   7.764   4.476   1.476
11302TIP3    H233852   7.880   4.539   1.551
11303TIP3   OH233853   5.061   4.529   4.082
11303TIP3    H133854   5.072   4.621   4.056
11303TIP3    H233855   5.151   4.498   4.096
11304TIP3   OH233856   5.616   7.023   2.493
11304TIP3    H133857   5.687   6.981   2.543
11304TIP3    H233858   5.639   7.116   2.493
11305TIP3   OH233859   6.680   0.553   4.576
11305TIP3    H133860   6.698   0.619   4.509
11305TIP3    H233861   6.663   0.604   4.656
11306TIP3   OH233862   2.949   7.745   0.024
11306TIP3    H133863   3.016   7.812   0.010
11306TIP3    H233864   2.895   7.781   0.095
11307TIP3   OH233865   7.380   4.570   2.500
11307TIP3    H133866   7.367   4.656   2.458
11307TIP3    H233867   7.474   4.554   2.492
11308TIP3   OH233868   3.848   1.862   4.681
11308TIP3    H133869   3.940   1.887   4.673
11308TIP3    H233870   3.804   1.940   4.714
11309TIP3   OH233871  -0.024   4.652   2.738
11309TIP3    H133872   0.018   4.720   2.791
11309TIP3    H233873  -0.043   4.582   2.800
11310TIP3   OH233874   1.686   4.176   5.322
11310TIP3    H133875   1.687   4.208   5.412
11310TIP3    H233876   1.606   4.124   5.315
11311TIP3   OH233877   3.060   4.710   5.604
11311TIP3    H133878   3.032   4.619   5.611
11311TIP3    H233879   3.154   4.705   5.589
11312TIP3   OH233880   0.699   4.725   0.807
11312TIP3    H133881   0.629   4.768   0.856
11312TIP3    H233882   0.749   4.677   0.872
11313TIP3   OH233883   1.677   4.792   2.712
11313TIP3    H133884   1.680   4.703   2.746
11313TIP3    H233885   1.769   4.817   2.703
11314TIP3   OH233886   6.443   5.394   1.657
11314TIP3    H133887   6.360   5.399   1.704
11314TIP3    H233888   6.435   5.460   1.589
11315TIP3   OH233889   2.719   0.039   6.764
11315TIP3    H133890   2.754  -0.044   6.796
11315TIP3    H233891   2.626   0.037   6.787
11316TIP3   OH233892   3.792   7.220   4.259
11316TIP3    H133893   3.803   7.194   4.350
11316TIP3    H233894   3.876   7.257   4.234
11317TIP3   OH233895   1.058   2.874   0.903
11317TIP3    H133896   1.069   2.783   0.930
11317TIP3    H233897   0.970   2.878   0.867
11318TIP3   OH233898   2.814   7.728   4.107
11318TIP3    H133899   2.812   7.733   4.202
11318TIP3    H233900   2.886   7.786   4.081
11319TIP3   OH233901   0.476   2.112   6.694
11319TIP3    H133902   0.467   2.067   6.778
11319TIP3    H233903   0.568   2.103   6.672
11320TIP3   OH233904   4.085   0.394   5.840
11320TIP3    H133905   4.004   0.381   5.790
11320TIP3    H233906   4.057   0.389   5.931
11321TIP3   OH233907   5.117   3.848   6.030
11321TIP3    H133908   5.136   3.785   5.960
11321TIP3    H233909   5.148   3.932   5.996
11322TIP3   OH233910   4.274   3.193   2.230
11322TIP3    H133911   4.183   3.169   2.211
11322TIP3    H233912   4.268   3.278   2.274
11323TIP3   OH233913   3.455   6.092   1.492
11323TIP3    H133914   3.512   6.162   1.461
11323TIP3    H233915   3.442   6.110   1.585
11324TIP3   OH233916   2.274   1.480   1.046
11324TIP3    H133917   2.221   1.510   0.973
11324TIP3    H233918   2.291   1.387   1.028
11325TIP3   OH233919   5.295   4.588   3.668
11325TIP3    H133920   5.311   4.661   3.608
11325TIP3    H233921   5.206   4.602   3.700
11326TIP3   OH233922   7.410   2.757   2.884
11326TIP3    H133923   7.491   2.802   2.861
11326TIP3    H233924   7.430   2.664   2.874
11327TIP3   OH233925   6.260   3.026   4.491
11327TIP3    H133926   6.238   3.004   4.581
11327TIP3    H233927   6.175   3.034   4.447
11328TIP3   OH233928   1.597   4.494   1.174
11328TIP3    H133929   1.559   4.430   1.114
11328TIP3    H233930   1.632   4.442   1.246
11329TIP3   OH233931   7.639   6.135   6.358
11329TIP3    H133932   7.578   6.063   6.342
11329TIP3    H233933   7.722   6.105   6.321
11330TIP3   OH233934   6.107   1.540   2.616
11330TIP3    H133935   6.023   1.520   2.576
11330TIP3    H233936   6.172   1.512   2.551
11331TIP3   OH233937   3.532   0.898   2.827
11331TIP3    H133938   3.596   0.855   2.884
11331TIP3    H233939   3.448   0.861   2.854
11332TIP3   OH233940   5.563   0.951   5.544
11332TIP3    H133941   5.520   0.895   5.609
11332TIP3    H233942   5.501   1.023   5.530
11333TIP3   OH233943   6.822   4.689   5.063
11333TIP3    H133944   6.760   4.718   5.130
11333TIP3    H233945   6.887   4.759   5.057
11334TIP3   OH233946   6.836   5.314   1.923
11334TIP3    H133947   6.786   5.357   1.992
11334TIP3    H233948   6.834   5.221   1.947
11335TIP3   OH233949   8.197   5.851   0.834
11335TIP3    H133950   8.149   5.881   0.911
11335TIP3    H233951   8.154   5.894   0.761
11336TIP3   OH233952   1.277   4.159   0.053
11336TIP3    H133953   1.322   4.100   0.113
11336TIP3    H233954   1.322   4.147  -0.030
11337TIP3   OH233955   3.549   7.582   3.764
11337TIP3    H133956   3.582   7.493   3.773
11337TIP3    H233957   3.582   7.628   3.842
11338TIP3   OH233958   6.411   3.428   0.143
11338TIP3    H133959   6.357   3.401   0.069
11338TIP3    H233960   6.352   3.480   0.198
11339TIP3   OH233961   2.433   2.461   3.990
11339TIP3    H133962   2.443   2.399   3.917
11339TIP3    H233963   2.347   2.502   3.976
11340TIP3   OH233964   7.206   0.909   3.628
11340TIP3    H133965   7.176   0.969   3.560
11340TIP3    H233966   7.281   0.865   3.589
11341TIP3   OH233967   1.213   5.708   3.312
11341TIP3    H133968   1.133   5.750   3.280
11341TIP3    H233969   1.190   5.675   3.399
11342TIP3   OH233970   3.830   6.819   0.469
11342TIP3    H133971   3.798   6.862   0.548
11342TIP3    H233972   3.845   6.728   0.496
11343TIP3   OH233973   6.765   6.373   3.321
11343TIP3    H133974   6.821   6.381   3.398
11343TIP3    H233975   6.695   6.314   3.348
11344TIP3   OH233976   1.480   0.530   3.590
11344TIP3    H133977   1.476   0.624   3.578
11344TIP3    H233978   1.405   0.509   3.646
11345TIP3   OH233979   6.942   1.803   4.481
11345TIP3    H133980   6.973   1.837   4.396
11345TIP3    H233981   7.013   1.747   4.511
11346TIP3   OH233982   6.380   5.679   5.650
11346TIP3    H133983   6.327   5.744   5.697
11346TIP3    H233984   6.460   5.671   5.703
11347TIP3   OH233985   3.076   4.995   2.606
11347TIP3    H133986   3.076   5.089   2.624
11347TIP3    H233987   2.983   4.972   2.600
11348TIP3   OH233988   0.252   3.034   0.188
11348TIP3    H133989   0.163   3.030   0.153
11348TIP3    H233990   0.247   2.989   0.273
11349TIP3   OH233991   0.310   0.229   1.966
11349TIP3    H133992   0.310   0.271   1.880
11349TIP3    H233993   0.322   0.301   2.028
11350TIP3   OH233994   2.622   6.744   6.334
11350TIP3    H133995   2.553   6.709   6.389
11350TIP3    H233996   2.583   6.751   6.247
11351TIP3   OH233997   0.207   0.536   3.700
11351TIP3    H133998   0.299   0.519   3.681
11351TIP3    H233999   0.178   0.461   3.750
11352TIP3   OH234000   2.337   4.367   4.705
11352TIP3    H134001   2.315   4.440   4.763
11352TIP3    H234002   2.255   4.347   4.659
11353TIP3   OH234003   2.044   2.115   2.710
11353TIP3    H134004   2.010   2.162   2.786
11353TIP3    H234005   1.969   2.066   2.676
11354TIP3   OH234006   1.515   2.760   2.447
11354TIP3    H134007   1.449   2.707   2.491
11354TIP3    H234008   1.595   2.747   2.499
11355TIP3   OH234009   2.086   0.610   3.922
11355TIP3    H134010   2.017   0.651   3.974
11355TIP3    H234011   2.056   0.521   3.907
11356TIP3   OH234012   2.355   3.242   6.274
11356TIP3    H134013   2.376   3.195   6.194
11356TIP3    H234014   2.423   3.214   6.336
11357TIP3   OH234015   4.295   7.439   2.488
11357TIP3    H134016   4.276   7.367   2.427
11357TIP3    H234017   4.242   7.512   2.457
11358TIP3   OH234018   1.555   0.392   6.119
11358TIP3    H134019   1.570   0.331   6.047
11358TIP3    H234020   1.633   0.382   6.174
11359TIP3   OH234021   5.266   4.918   3.325
11359TIP3    H134022   5.189   4.873   3.290
11359TIP3    H234023   5.338   4.888   3.269
11360TIP3   OH234024   0.691   0.505   0.112
11360TIP3    H134025   0.612   0.550   0.141
11360TIP3    H234026   0.665   0.413   0.105
11361TIP3   OH234027   5.449   1.185   0.987
11361TIP3    H134028   5.502   1.108   0.969
11361TIP3    H234029   5.407   1.166   1.071
11362TIP3   OH234030   3.443   2.985   0.405
11362TIP3    H134031   3.440   3.079   0.387
11362TIP3    H234032   3.356   2.966   0.441
11363TIP3   OH234033   6.064   7.303   5.622
11363TIP3    H134034   6.112   7.324   5.541
11363TIP3    H234035   6.082   7.211   5.637
11364TIP3   OH234036   4.199   5.571   6.116
11364TIP3    H134037   4.146   5.595   6.040
11364TIP3    H234038   4.138   5.575   6.190
11365TIP3   OH234039   5.998   2.077  -0.027
11365TIP3    H134040   5.940   2.042   0.041
11365TIP3    H234041   6.077   2.022  -0.021
11366TIP3   OH234042   5.715   1.937   0.618
11366TIP3    H134043   5.688   1.899   0.701
11366TIP3    H234044   5.707   2.032   0.631
11367TIP3   OH234045   7.066   3.834   0.377
11367TIP3    H134046   6.993   3.832   0.316
11367TIP3    H234047   7.060   3.920   0.420
11368TIP3   OH234048   6.631   6.936   1.626
11368TIP3    H134049   6.568   6.881   1.578
11368TIP3    H234050   6.657   6.882   1.700
11369TIP3   OH234051   3.355   4.997   3.331
11369TIP3    H134052   3.345   5.010   3.236
11369TIP3    H234053   3.357   4.902   3.342
11370TIP3   OH234054   1.063   4.252   5.863
11370TIP3    H134055   1.118   4.239   5.786
11370TIP3    H234056   1.124   4.280   5.931
11371TIP3   OH234057   1.990   2.660   4.589
11371TIP3    H134058   2.006   2.567   4.569
11371TIP3    H234059   1.965   2.698   4.505
11372TIP3   OH234060   3.988   7.825   6.667
11372TIP3    H134061   3.921   7.802   6.733
11372TIP3    H234062   4.062   7.768   6.689
11373TIP3   OH234063   5.190   7.438   3.332
11373TIP3    H134064   5.247   7.361   3.327
11373TIP3    H234065   5.114   7.409   3.382
11374TIP3   OH234066   5.927   4.585   1.823
11374TIP3    H134067   6.010   4.579   1.775
11374TIP3    H234068   5.928   4.509   1.881
11375TIP3   OH234069   5.881   4.602   6.609
11375TIP3    H134070   5.905   4.515   6.640
11375TIP3    H234071   5.933   4.662   6.663
11376TIP3   OH234072   1.292   3.815   0.874
11376TIP3    H134073   1.204   3.817   0.912
11376TIP3    H234074   1.334   3.894   0.908
11377TIP3   OH234075   3.194   2.042   3.246
11377TIP3    H134076   3.178   1.948   3.250
11377TIP3    H234077   3.108   2.080   3.228
11378TIP3   OH234078   7.461   7.323   4.247
11378TIP3    H134079   7.384   7.297   4.298
11378TIP3    H234080   7.424   7.372   4.173
11379TIP3   OH234081   8.307   0.802   2.888
11379TIP3    H134082   8.331   0.767   2.803
11379TIP3    H234083   8.215   0.824   2.881
11380TIP3   OH234084   6.053   4.468   3.289
11380TIP3    H134085   6.096   4.444   3.206
11380TIP3    H234086   6.077   4.398   3.349
11381TIP3   OH234087   6.311   5.426   2.051
11381TIP3    H134088   6.239   5.397   2.107
11381TIP3    H234089   6.310   5.365   1.978
11382TIP3   OH234090   3.847   2.696   2.152
11382TIP3    H134091   3.942   2.712   2.147
11382TIP3    H234092   3.811   2.775   2.192
11383TIP3   OH234093   4.874   3.485   6.634
11383TIP3    H134094   4.932   3.468   6.560
11383TIP3    H234095   4.787   3.495   6.595
11384TIP3   OH234096   2.051   6.821   4.174
11384TIP3    H134097   2.147   6.825   4.165
11384TIP3    H234098   2.034   6.855   4.261
11385TIP3   OH234099   7.007   7.400   2.074
11385TIP3    H134100   7.026   7.425   1.983
11385TIP3    H234101   7.091   7.403   2.119
11386TIP3   OH234102   8.045   2.642   6.264
11386TIP3    H134103   8.065   2.586   6.189
11386TIP3    H234104   8.044   2.731   6.228
11387TIP3   OH234105   8.209   6.900   0.680
11387TIP3    H134106   8.216   6.875   0.588
11387TIP3    H234107   8.295   6.933   0.703
11388TIP3   OH234108   5.268   0.133   3.303
11388TIP3    H134109   5.285   0.044   3.273
11388TIP3    H234110   5.325   0.143   3.380
11389TIP3   OH234111   6.551   5.623   3.661
11389TIP3    H134112   6.565   5.615   3.755
11389TIP3    H234113   6.567   5.715   3.641
11390TIP3   OH234114   0.346   2.753   3.576
11390TIP3    H134115   0.439   2.775   3.582
11390TIP3    H234116   0.306   2.828   3.531
11391TIP3   OH234117   6.693   0.851   4.153
11391TIP3    H134118   6.720   0.941   4.175
11391TIP3    H234119   6.685   0.852   4.058
11392TIP3   OH234120   0.113   4.745   0.556
11392TIP3    H134121   0.168   4.818   0.583
11392TIP3    H234122   0.038   4.747   0.616
11393TIP3   OH234123   6.968   2.747   4.997
11393TIP3    H134124   7.059   2.721   5.014
11393TIP3    H234125   6.974   2.838   4.968
11394TIP3   OH234126   7.913   4.388   2.509
11394TIP3    H134127   7.968   4.463   2.529
11394TIP3    H234128   7.830   4.407   2.553
11395TIP3   OH234129   0.945   7.255   3.903
11395TIP3    H134130   0.864   7.303   3.888
11395TIP3    H234131   1.014   7.314   3.872
11396TIP3   OH234132   7.103   6.514   1.116
11396TIP3    H134133   7.152   6.591   1.144
11396TIP3    H234134   7.127   6.503   1.023
11397TIP3   OH234135   6.113   3.604   0.532
11397TIP3    H134136   6.147   3.677   0.583
11397TIP3    H234137   6.115   3.530   0.592
11398TIP3   OH234138   6.757   5.433   1.458
11398TIP3    H134139   6.745   5.468   1.547
11398TIP3    H234140   6.851   5.422   1.449
11399TIP3   OH234141   4.034   6.367   5.688
11399TIP3    H134142   3.961   6.307   5.670
11399TIP3    H234143   4.067   6.340   5.774
11400TIP3   OH234144   2.067   6.508   3.812
11400TIP3    H134145   2.085   6.534   3.721
11400TIP3    H234146   1.983   6.463   3.807
11401TIP3   OH234147   0.982   3.312   2.119
11401TIP3    H134148   1.020   3.271   2.041
11401TIP3    H234149   0.900   3.351   2.087
11402TIP3   OH234150   5.957   7.011   1.795
11402TIP3    H134151   6.038   7.010   1.744
11402TIP3    H234152   5.932   7.104   1.798
11403TIP3   OH234153   4.793   5.208   3.407
11403TIP3    H134154   4.783   5.289   3.357
11403TIP3    H234155   4.839   5.149   3.348
11404TIP3   OH234156   1.614   3.807   0.141
11404TIP3    H134157   1.675   3.735   0.125
11404TIP3    H234158   1.667   3.886   0.138
11405TIP3   OH234159   6.618   6.137   3.960
11405TIP3    H134160   6.689   6.200   3.968
11405TIP3    H234161   6.543   6.189   3.932
11406TIP3   OH234162   5.680   0.625   1.535
11406TIP3    H134163   5.748   0.641   1.600
11406TIP3    H234164   5.709   0.674   1.457
11407TIP3   OH234165   5.705   7.407   2.555
11407TIP3    H134166   5.672   7.482   2.505
11407TIP3    H234167   5.800   7.419   2.555
11408TIP3   OH234168   4.499   5.281   2.440
11408TIP3    H134169   4.593   5.294   2.423
11408TIP3    H234170   4.491   5.189   2.463
11409TIP3   OH234171   8.065   7.340   1.920
11409TIP3    H134172   8.011   7.350   1.998
11409TIP3    H234173   8.005   7.311   1.852
11410TIP3   OH234174   2.784   3.186   5.337
11410TIP3    H134175   2.708   3.205   5.392
11410TIP3    H234176   2.749   3.183   5.248
11411TIP3   OH234177   3.859   7.502   4.940
11411TIP3    H134178   3.896   7.586   4.914
11411TIP3    H234179   3.918   7.470   5.009
11412TIP3   OH234180   1.948   4.627   1.701
11412TIP3    H134181   1.951   4.548   1.648
11412TIP3    H234182   1.912   4.694   1.643
11413TIP3   OH234183   3.420   1.326   1.803
11413TIP3    H134184   3.482   1.391   1.835
11413TIP3    H234185   3.352   1.323   1.871
11414TIP3   OH234186   3.935   4.869   0.016
11414TIP3    H134187   3.938   4.889   0.109
11414TIP3    H234188   3.884   4.940  -0.023
11415TIP3   OH234189   4.181   0.043   1.995
11415TIP3    H134190   4.192  -0.052   1.988
11415TIP3    H234191   4.271   0.077   1.991
11416TIP3   OH234192   1.845   6.408   6.553
11416TIP3    H134193   1.845   6.359   6.635
11416TIP3    H234194   1.795   6.353   6.493
11417TIP3   OH234195   6.217   3.641   5.051
11417TIP3    H134196   6.138   3.620   5.100
11417TIP3    H234197   6.288   3.607   5.105
11418TIP3   OH234198   4.921   5.773   3.534
11418TIP3    H134199   4.923   5.855   3.583
11418TIP3    H234200   4.828   5.750   3.528
11419TIP3   OH234201   7.843   5.546   5.392
11419TIP3    H134202   7.907   5.571   5.326
11419TIP3    H234203   7.875   5.586   5.473
11420TIP3   OH234204   1.070   7.180   0.172
11420TIP3    H134205   1.043   7.251   0.230
11420TIP3    H234206   1.141   7.217   0.121
11421TIP3   OH234207   3.953   4.491   4.967
11421TIP3    H134208   3.879   4.484   4.908
11421TIP3    H234209   4.030   4.479   4.911
11422TIP3   OH234210   5.549   0.937   0.807
11422TIP3    H134211   5.563   0.934   0.901
11422TIP3    H234212   5.480   0.873   0.790
11423TIP3   OH234213   5.286   5.819   6.221
11423TIP3    H134214   5.278   5.900   6.272
11423TIP3    H234215   5.222   5.829   6.151
11424TIP3   OH234216   6.065   4.283   1.667
11424TIP3    H134217   6.101   4.230   1.596
11424TIP3    H234218   6.132   4.279   1.735
11425TIP3   OH234219   6.830   2.897   6.143
11425TIP3    H134220   6.817   2.802   6.145
11425TIP3    H234221   6.838   2.922   6.235
11426TIP3   OH234222   7.877   5.712   6.273
11426TIP3    H134223   7.880   5.621   6.300
11426TIP3    H234224   7.968   5.733   6.249
11427TIP3   OH234225   0.261   5.784   6.125
11427TIP3    H134226   0.297   5.700   6.095
11427TIP3    H234227   0.181   5.760   6.172
11428TIP3   OH234228   0.665   0.836   0.265
11428TIP3    H134229   0.749   0.795   0.286
11428TIP3    H234230   0.616   0.767   0.220
11429TIP3   OH234231   8.064   0.308   0.523
11429TIP3    H134232   8.057   0.231   0.467
11429TIP3    H234233   8.050   0.382   0.464
11430TIP3   OH234234   6.197   1.889   1.597
11430TIP3    H134235   6.250   1.959   1.559
11430TIP3    H234236   6.135   1.934   1.655
11431TIP3   OH234237   0.926   0.471   6.263
11431TIP3    H134238   1.015   0.493   6.290
11431TIP3    H234239   0.878   0.554   6.269
11432TIP3   OH234240   2.504   0.171   3.764
11432TIP3    H134241   2.577   0.191   3.823
11432TIP3    H234242   2.513   0.078   3.744
11433TIP3   OH234243   0.896   6.607   1.317
11433TIP3    H134244   0.901   6.679   1.379
11433TIP3    H234245   0.818   6.558   1.342
11434TIP3   OH234246   6.190   3.331   5.243
11434TIP3    H134247   6.142   3.264   5.290
11434TIP3    H234248   6.180   3.410   5.297
11435TIP3   OH234249   7.386   4.189   0.788
11435TIP3    H134250   7.422   4.174   0.700
11435TIP3    H234251   7.463   4.193   0.845
11436TIP3   OH234252   3.245   4.795   6.694
11436TIP3    H134253   3.197   4.713   6.694
11436TIP3    H234254   3.333   4.771   6.665
11437TIP3   OH234255   1.841   4.055   0.389
11437TIP3    H134256   1.830   4.042   0.295
11437TIP3    H234257   1.818   3.971   0.428
11438TIP3   OH234258   3.465   5.090   5.801
11438TIP3    H134259   3.522   5.052   5.734
11438TIP3    H234260   3.518   5.158   5.842
11439TIP3   OH234261   0.892   2.104   6.741
11439TIP3    H134262   0.966   2.155   6.706
11439TIP3    H234263   0.835   2.091   6.666
11440TIP3   OH234264   6.033   6.132   3.456
11440TIP3    H134265   6.010   6.076   3.383
11440TIP3    H234266   6.100   6.083   3.503
11441TIP3   OH234267   1.018   1.593   6.722
11441TIP3    H134268   1.101   1.572   6.678
11441TIP3    H234269   0.972   1.509   6.728
11442TIP3   OH234270   5.655   4.896   5.174
11442TIP3    H134271   5.697   4.975   5.209
11442TIP3    H234272   5.584   4.878   5.234
11443TIP3   OH234273   8.089   4.096   5.511
11443TIP3    H134274   8.159   4.043   5.548
11443TIP3    H234275   8.112   4.186   5.535
11444TIP3   OH234276   4.938   0.794   4.143
11444TIP3    H134277   4.845   0.777   4.125
11444TIP3    H234278   4.961   0.728   4.208
11445TIP3   OH234279   7.105   0.487   4.285
11445TIP3    H134280   7.085   0.580   4.281
11445TIP3    H234281   7.076   0.459   4.372
11446TIP3   OH234282   7.877   1.111   0.336
11446TIP3    H134283   7.875   1.187   0.395
11446TIP3    H234284   7.965   1.075   0.346
11447TIP3   OH234285   0.065   5.836   5.118
11447TIP3    H134286  -0.030   5.821   5.113
11447TIP3    H234287   0.085   5.889   5.041
11448TIP3   OH234288   6.033   0.629   0.063
11448TIP3    H134289   5.974   0.700   0.042
11448TIP3    H234290   6.111   0.671   0.100
11449TIP3   OH234291   3.045   0.872   3.592
11449TIP3    H134292   3.099   0.921   3.653
11449TIP3    H234293   3.107   0.841   3.525
11450TIP3   OH234294   1.857   3.974   0.126
11450TIP3    H134295   1.860   3.938   0.037
11450TIP3    H234296   1.946   3.962   0.160
11451TIP3   OH234297   0.675   3.573   3.026
11451TIP3    H134298   0.610   3.503   3.015
11451TIP3    H234299   0.743   3.553   2.962
11452TIP3   OH234300   5.306   6.319   3.804
11452TIP3    H134301   5.358   6.370   3.865
11452TIP3    H234302   5.249   6.266   3.859
11453TIP3   OH234303   7.643   7.569   5.957
11453TIP3    H134304   7.700   7.535   6.026
11453TIP3    H234305   7.692   7.557   5.876
11454TIP3   OH234306   3.534   7.498   3.265
11454TIP3    H134307   3.550   7.419   3.317
11454TIP3    H234308   3.577   7.481   3.181
11455TIP3   OH234309   8.247   0.938   4.281
11455TIP3    H134310   8.185   0.979   4.341
11455TIP3    H234311   8.286   1.011   4.233
11456TIP3   OH234312   5.320   7.675   1.437
11456TIP3    H134313   5.374   7.640   1.367
11456TIP3    H234314   5.363   7.647   1.518
11457TIP3   OH234315   1.862   6.787   1.494
11457TIP3    H134316   1.904   6.715   1.540
11457TIP3    H234317   1.808   6.830   1.561
11458TIP3   OH234318   8.100   6.819   4.323
11458TIP3    H134319   8.114   6.902   4.370
11458TIP3    H234320   8.006   6.802   4.333
11459TIP3   OH234321   3.180   4.406   1.076
11459TIP3    H134322   3.176   4.438   1.166
11459TIP3    H234323   3.201   4.484   1.024
11460TIP3   OH234324   3.033   4.840   0.921
11460TIP3    H134325   2.971   4.766   0.924
11460TIP3    H234326   3.022   4.882   1.006
11461TIP3   OH234327   1.690   3.392   0.741
11461TIP3    H134328   1.696   3.340   0.821
11461TIP3    H234329   1.644   3.471   0.767
11462TIP3   OH234330   0.371   1.402   4.089
11462TIP3    H134331   0.415   1.330   4.043
11462TIP3    H234332   0.387   1.384   4.182
11463TIP3   OH234333   6.636   2.008   1.106
11463TIP3    H134334   6.592   1.987   1.189
11463TIP3    H234335   6.705   2.069   1.131
11464TIP3   OH234336   2.272   7.175   0.477
11464TIP3    H134337   2.263   7.146   0.567
11464TIP3    H234338   2.366   7.181   0.462
11465TIP3   OH234339   6.919   3.003   1.751
11465TIP3    H134340   6.863   3.067   1.707
11465TIP3    H234341   6.936   3.042   1.837
11466TIP3   OH234342   7.330   2.335   6.328
11466TIP3    H134343   7.397   2.403   6.333
11466TIP3    H234344   7.301   2.337   6.236
11467TIP3   OH234345   5.025   7.136   0.831
11467TIP3    H134346   5.084   7.186   0.887
11467TIP3    H234347   5.051   7.158   0.742
11468TIP3   OH234348   0.089   7.014   1.374
11468TIP3    H134349   0.035   7.045   1.302
11468TIP3    H234350   0.158   7.080   1.383
11469TIP3   OH234351   2.206   0.926   2.774
11469TIP3    H134352   2.146   0.926   2.699
11469TIP3    H234353   2.265   0.852   2.757
11470TIP3   OH234354   5.513   5.139   6.607
11470TIP3    H134355   5.501   5.115   6.515
11470TIP3    H234356   5.608   5.136   6.620
11471TIP3   OH234357   6.314   1.714   4.281
11471TIP3    H134358   6.276   1.789   4.235
11471TIP3    H234359   6.402   1.706   4.244
11472TIP3   OH234360   3.616   2.860   1.294
11472TIP3    H134361   3.597   2.918   1.368
11472TIP3    H234362   3.711   2.862   1.285
11473TIP3   OH234363   1.525   6.668   1.543
11473TIP3    H134364   1.435   6.696   1.563
11473TIP3    H234365   1.580   6.730   1.590
11474TIP3   OH234366   8.214   3.077   4.659
11474TIP3    H134367   8.164   3.004   4.623
11474TIP3    H234368   8.289   3.036   4.702
11475TIP3   OH234369   2.769   1.344   2.729
11475TIP3    H134370   2.789   1.271   2.787
11475TIP3    H234371   2.686   1.320   2.688
11476TIP3   OH234372   2.103   5.960   1.347
11476TIP3    H134373   2.055   5.917   1.276
11476TIP3    H234374   2.116   5.891   1.412
11477TIP3   OH234375   2.042   7.533   2.611
11477TIP3    H134376   1.979   7.493   2.551
11477TIP3    H234377   2.118   7.475   2.608
11478TIP3   OH234378   1.998   5.013   1.293
11478TIP3    H134379   1.910   5.045   1.276
11478TIP3    H234380   2.028   4.979   1.209
11479TIP3   OH234381   1.867   0.487   4.071
11479TIP3    H134382   1.806   0.560   4.064
11479TIP3    H234383   1.830   0.432   4.141
11480TIP3   OH234384   7.085   6.826   2.580
11480TIP3    H134385   7.117   6.912   2.551
11480TIP3    H234386   7.162   6.784   2.618
11481TIP3   OH234387   3.871   5.512   3.344
11481TIP3    H134388   3.964   5.517   3.364
11481TIP3    H234389   3.865   5.446   3.275
11482TIP3   OH234390   3.466   0.988   5.920
11482TIP3    H134391   3.536   0.930   5.890
11482TIP3    H234392   3.486   1.004   6.012
11483TIP3   OH234393   4.742   0.913   3.609
11483TIP3    H134394   4.702   0.999   3.621
11483TIP3    H234395   4.834   0.926   3.633
11484TIP3   OH234396   3.437   2.880   2.577
11484TIP3    H134397   3.438   2.792   2.539
11484TIP3    H234398   3.446   2.866   2.672
11485TIP3   OH234399   7.271   7.198   1.636
11485TIP3    H134400   7.186   7.221   1.674
11485TIP3    H234401   7.286   7.266   1.570
11486TIP3   OH234402   3.354   0.007   4.755
11486TIP3    H134403   3.271   0.018   4.708
11486TIP3    H234404   3.329  -0.003   4.847
11487TIP3   OH234405   4.065   6.606   4.653
11487TIP3    H134406   4.066   6.536   4.588
11487TIP3    H234407   3.981   6.650   4.640
11488TIP3   OH234408   4.331   0.767   5.824
11488TIP3    H134409   4.350   0.708   5.897
11488TIP3    H234410   4.261   0.723   5.775
11489TIP3   OH234411   0.632   3.359   2.462
11489TIP3    H134412   0.537   3.358   2.472
11489TIP3    H234413   0.665   3.343   2.551
11490TIP3   OH234414   7.349   6.052   3.163
11490TIP3    H134415   7.387   5.964   3.154
11490TIP3    H234416   7.280   6.055   3.097
11491TIP3   OH234417   3.931   2.379   3.409
11491TIP3    H134418   3.884   2.406   3.488
11491TIP3    H234419   3.863   2.354   3.347
11492TIP3   OH234420   5.703   2.957   3.851
11492TIP3    H134421   5.720   3.041   3.809
11492TIP3    H234422   5.780   2.940   3.904
11493TIP3   OH234423   3.280   5.482   6.397
11493TIP3    H134424   3.218   5.437   6.339
11493TIP3    H234425   3.328   5.542   6.339
11494TIP3   OH234426   2.987   6.970   0.726
11494TIP3    H134427   2.970   6.878   0.708
11494TIP3    H234428   3.017   7.006   0.643
11495TIP3   OH234429   5.058   4.207   0.143
11495TIP3    H134430   5.125   4.274   0.135
11495TIP3    H234431   4.981   4.245   0.100
11496TIP3   OH234432   2.324   3.987   0.385
11496TIP3    H134433   2.289   4.072   0.412
11496TIP3    H234434   2.294   3.927   0.452
11497TIP3   OH234435   3.864   2.405   5.795
11497TIP3    H134436   3.886   2.463   5.868
11497TIP3    H234437   3.949   2.375   5.762
11498TIP3   OH234438   2.488   5.130   6.274
11498TIP3    H134439   2.506   5.038   6.297
11498TIP3    H234440   2.477   5.173   6.359
11499TIP3   OH234441   8.188   7.393   0.019
11499TIP3    H134442   8.266   7.364  -0.028
11499TIP3    H234443   8.122   7.326   0.000
11500TIP3   OH234444   1.811   6.948   2.064
11500TIP3    H134445   1.816   6.868   2.012
11500TIP3    H234446   1.806   7.018   1.999
11501TIP3   OH234447   6.213   3.152   2.148
11501TIP3    H134448   6.196   3.130   2.239
11501TIP3    H234449   6.282   3.218   2.152
11502TIP3   OH234450   3.211   0.548   4.185
11502TIP3    H134451   3.297   0.590   4.178
11502TIP3    H234452   3.149   0.621   4.188
11503TIP3   OH234453   0.576   2.654   5.119
11503TIP3    H134454   0.630   2.577   5.137
11503TIP3    H234455   0.495   2.638   5.168
11504TIP3   OH234456   3.851   3.869   6.309
11504TIP3    H134457   3.825   3.808   6.378
11504TIP3    H234458   3.768   3.906   6.278
11505TIP3   OH234459   0.150   6.717   1.348
11505TIP3    H134460   0.134   6.810   1.338
11505TIP3    H234461   0.153   6.703   1.442
11506TIP3   OH234462   7.157   2.454   2.732
11506TIP3    H134463   7.160   2.427   2.823
11506TIP3    H234464   7.156   2.550   2.736
11507TIP3   OH234465   2.853   5.009   2.256
11507TIP3    H134466   2.811   4.941   2.204
11507TIP3    H234467   2.883   5.073   2.191
11508TIP3   OH234468   8.160   3.396   5.684
11508TIP3    H134469   8.194   3.447   5.757
11508TIP3    H234470   8.158   3.306   5.716
11509TIP3   OH234471   7.967   3.627   6.098
11509TIP3    H134472   7.892   3.578   6.065
11509TIP3    H234473   7.934   3.715   6.115
11510TIP3   OH234474   7.529   7.768   6.719
11510TIP3    H134475   7.487   7.703   6.774
11510TIP3    H234476   7.484   7.760   6.634
11511TIP3   OH234477   1.775   7.145   3.166
11511TIP3    H134478   1.731   7.205   3.227
11511TIP3    H234479   1.738   7.167   3.081
11512TIP3   OH234480   4.979   5.887   5.233
11512TIP3    H134481   4.906   5.926   5.281
11512TIP3    H234482   5.057   5.922   5.275
11513TIP3   OH234483   0.112   6.133   5.245
11513TIP3    H134484   0.090   6.062   5.305
11513TIP3    H234485   0.155   6.091   5.171
11514TIP3   OH234486   7.664   3.595   0.690
11514TIP3    H134487   7.578   3.568   0.724
11514TIP3    H234488   7.648   3.613   0.597
11515TIP3   OH234489   2.815   6.005   1.106
11515TIP3    H134490   2.902   6.019   1.144
11515TIP3    H234491   2.799   6.084   1.055
11516TIP3   OH234492   1.188   6.855   3.124
11516TIP3    H134493   1.108   6.857   3.072
11516TIP3    H234494   1.157   6.837   3.213
11517TIP3   OH234495   1.695   1.632   4.803
11517TIP3    H134496   1.680   1.723   4.829
11517TIP3    H234497   1.790   1.624   4.799
11518TIP3   OH234498   4.187   3.225   4.779
11518TIP3    H134499   4.212   3.313   4.809
11518TIP3    H234500   4.136   3.189   4.851
11519TIP3   OH234501   6.130   3.144   3.961
11519TIP3    H134502   6.193   3.073   3.974
11519TIP3    H234503   6.102   3.135   3.870
11520TIP3   OH234504   6.600   7.126   4.631
11520TIP3    H134505   6.690   7.145   4.603
11520TIP3    H234506   6.565   7.211   4.659
11521TIP3   OH234507   7.681   7.579   4.487
11521TIP3    H134508   7.617   7.643   4.518
11521TIP3    H234509   7.766   7.617   4.511
11522TIP3   OH234510   0.953   0.475   5.310
11522TIP3    H134511   1.001   0.474   5.393
11522TIP3    H234512   0.900   0.554   5.315
11523TIP3   OH234513   5.310   0.343   0.815
11523TIP3    H134514   5.326   0.272   0.752
11523TIP3    H234515   5.310   0.422   0.761
11524TIP3   OH234516   5.514   1.453   1.149
11524TIP3    H134517   5.582   1.405   1.196
11524TIP3    H234518   5.435   1.440   1.201
11525TIP3   OH234519   7.199   1.693   5.442
11525TIP3    H134520   7.240   1.616   5.481
11525TIP3    H234521   7.139   1.658   5.376
11526TIP3   OH234522   0.596   4.313   1.583
11526TIP3    H134523   0.671   4.372   1.572
11526TIP3    H234524   0.586   4.271   1.498
11527TIP3   OH234525   2.869   3.568   0.239
11527TIP3    H134526   2.942   3.559   0.178
11527TIP3    H234527   2.791   3.550   0.186
11528TIP3   OH234528   0.170   5.781   0.790
11528TIP3    H134529   0.189   5.688   0.794
11528TIP3    H234530   0.083   5.790   0.828
11529TIP3   OH234531   5.316   1.991   2.678
11529TIP3    H134532   5.286   1.952   2.760
11529TIP3    H234533   5.327   2.084   2.698
11530TIP3   OH234534   6.056   4.476   4.704
11530TIP3    H134535   6.130   4.535   4.720
11530TIP3    H234536   6.095   4.390   4.692
11531TIP3   OH234537   1.038   2.569   1.241
11531TIP3    H134538   1.023   2.661   1.263
11531TIP3    H234539   1.064   2.570   1.149
11532TIP3   OH234540   6.771   3.053   1.121
11532TIP3    H134541   6.701   3.077   1.060
11532TIP3    H234542   6.835   3.124   1.114
11533TIP3   OH234543   2.133   7.199   2.278
11533TIP3    H134544   2.097   7.110   2.287
11533TIP3    H234545   2.139   7.212   2.183
11534TIP3   OH234546   4.889   3.083   1.981
11534TIP3    H134547   4.934   3.104   2.063
11534TIP3    H234548   4.958   3.085   1.915
11535TIP3   OH234549   3.806   5.836   5.055
11535TIP3    H134550   3.734   5.869   5.110
11535TIP3    H234551   3.770   5.760   5.011
11536TIP3   OH234552   8.096   0.962   3.725
11536TIP3    H134553   8.117   0.869   3.740
11536TIP3    H234554   8.175   1.008   3.752
11537TIP3   OH234555   6.859   4.201   2.316
11537TIP3    H134556   6.836   4.216   2.408
11537TIP3    H234557   6.775   4.189   2.272
11538TIP3   OH234558   7.116   7.358   4.022
11538TIP3    H134559   7.045   7.355   4.086
11538TIP3    H234560   7.074   7.343   3.938
11539TIP3   OH234561   1.749   5.361   5.956
11539TIP3    H134562   1.688   5.329   5.889
11539TIP3    H234563   1.697   5.363   6.037
11540TIP3   OH234564   4.647   3.915   5.110
11540TIP3    H134565   4.733   3.877   5.094
11540TIP3    H234566   4.598   3.902   5.029
11541TIP3   OH234567   1.136   6.735   5.117
11541TIP3    H134568   1.183   6.678   5.056
11541TIP3    H234569   1.043   6.717   5.100
11542TIP3   OH234570   4.321   3.950   6.496
11542TIP3    H134571   4.334   4.044   6.484
11542TIP3    H234572   4.227   3.937   6.482
11543TIP3   OH234573   5.224   0.532   1.736
11543TIP3    H134574   5.295   0.538   1.672
11543TIP3    H234575   5.261   0.569   1.816
11544TIP3   OH234576   1.026   2.653   6.118
11544TIP3    H134577   1.014   2.635   6.025
11544TIP3    H234578   1.068   2.739   6.120
11545TIP3   OH234579   6.524   0.291   6.289
11545TIP3    H134580   6.450   0.352   6.281
11545TIP3    H234581   6.545   0.293   6.382
11546TIP3   OH234582   3.038   6.632   2.748
11546TIP3    H134583   3.049   6.666   2.659
11546TIP3    H234584   2.966   6.569   2.740
11547TIP3   OH234585   6.509   3.746   1.546
11547TIP3    H134586   6.515   3.822   1.489
11547TIP3    H234587   6.446   3.772   1.614
11548TIP3   OH234588   5.682   4.808   6.763
11548TIP3    H134589   5.595   4.818   6.724
11548TIP3    H234590   5.742   4.811   6.688
11549TIP3   OH234591   4.581   2.662   1.190
11549TIP3    H134592   4.527   2.598   1.143
11549TIP3    H234593   4.589   2.626   1.279
11550TIP3   OH234594   0.204   4.799   5.027
11550TIP3    H134595   0.246   4.728   4.980
11550TIP3    H234596   0.263   4.874   5.016
11551TIP3   OH234597   0.910   3.710   2.142
11551TIP3    H134598   0.841   3.755   2.093
11551TIP3    H234599   0.885   3.618   2.140
11552TIP3   OH234600   1.531   0.864   1.646
11552TIP3    H134601   1.530   0.784   1.594
11552TIP3    H234602   1.618   0.901   1.632
11553TIP3   OH234603   1.346   5.695   0.346
11553TIP3    H134604   1.362   5.603   0.368
11553TIP3    H234605   1.317   5.735   0.428
11554TIP3   OH234606   8.200   1.698   0.047
11554TIP3    H134607   8.224   1.668   0.135
11554TIP3    H234608   8.284   1.712   0.003
11555TIP3   OH234609   5.725   4.833   4.665
11555TIP3    H134610   5.748   4.926   4.666
11555TIP3    H234611   5.672   4.822   4.586
11556TIP3   OH234612   0.349   1.030   6.350
11556TIP3    H134613   0.284   1.032   6.420
11556TIP3    H234614   0.432   1.013   6.396
11557TIP3   OH234615   5.143   1.674   1.861
11557TIP3    H134616   5.153   1.579   1.854
11557TIP3    H234617   5.048   1.689   1.866
11558TIP3   OH234618   7.914   7.381   3.311
11558TIP3    H134619   7.889   7.344   3.395
11558TIP3    H234620   7.848   7.348   3.250
11559TIP3   OH234621   0.356   1.123   5.149
11559TIP3    H134622   0.305   1.078   5.082
11559TIP3    H234623   0.313   1.101   5.232
11560TIP3   OH234624   1.673   0.642   1.100
11560TIP3    H134625   1.597   0.679   1.056
11560TIP3    H234626   1.746   0.661   1.042
11561TIP3   OH234627   3.358   0.716   2.261
11561TIP3    H134628   3.376   0.790   2.203
11561TIP3    H234629   3.428   0.653   2.242
11562TIP3   OH234630   0.543   5.523   6.590
11562TIP3    H134631   0.611   5.466   6.628
11562TIP3    H234632   0.583   5.610   6.588
11563TIP3   OH234633   0.597   6.070   1.698
11563TIP3    H134634   0.563   6.055   1.610
11563TIP3    H234635   0.573   5.991   1.747
11564TIP3   OH234636   5.885   4.226   0.937
11564TIP3    H134637   5.831   4.147   0.932
11564TIP3    H234638   5.823   4.296   0.959
11565TIP3   OH234639   3.053   7.509   6.027
11565TIP3    H134640   3.068   7.537   5.937
11565TIP3    H234641   3.095   7.422   6.032
11566TIP3   OH234642   7.663   2.994   4.546
11566TIP3    H134643   7.727   2.982   4.476
11566TIP3    H234644   7.672   3.086   4.571
11567TIP3   OH234645   6.929   6.901   4.950
11567TIP3    H134646   6.857   6.942   4.998
11567TIP3    H234647   6.939   6.814   4.988
11568TIP3   OH234648   7.156   5.729   4.733
11568TIP3    H134649   7.150   5.819   4.702
11568TIP3    H234650   7.065   5.698   4.734
11569TIP3   OH234651   0.238   6.796   2.138
11569TIP3    H134652   0.286   6.827   2.215
11569TIP3    H234653   0.290   6.723   2.104
11570TIP3   OH234654   5.692   3.924   3.865
11570TIP3    H134655   5.627   3.942   3.796
11570TIP3    H234656   5.676   3.834   3.890
11571TIP3   OH234657   1.976   7.060   5.902
11571TIP3    H134658   1.956   6.972   5.870
11571TIP3    H234659   1.950   7.057   5.995
11572TIP3   OH234660   4.444   0.209   1.991
11572TIP3    H134661   4.421   0.153   1.917
11572TIP3    H234662   4.535   0.233   1.976
11573TIP3   OH234663   3.573   7.254   2.326
11573TIP3    H134664   3.616   7.257   2.411
11573TIP3    H234665   3.480   7.247   2.346
11574TIP3   OH234666   6.768   1.478   1.999
11574TIP3    H134667   6.685   1.488   1.953
11574TIP3    H234668   6.774   1.555   2.054
11575TIP3   OH234669   3.721   0.648   2.365
11575TIP3    H134670   3.664   0.642   2.288
11575TIP3    H234671   3.706   0.736   2.399
11576TIP3   OH234672   0.106   6.636   1.877
11576TIP3    H134673   0.062   6.552   1.888
11576TIP3    H234674   0.199   6.618   1.893
11577TIP3   OH234675   7.535   2.599   4.121
11577TIP3    H134676   7.458   2.575   4.070
11577TIP3    H234677   7.607   2.549   4.082
11578TIP3   OH234678   1.408   5.374   1.742
11578TIP3    H134679   1.406   5.300   1.682
11578TIP3    H234680   1.402   5.451   1.685
11579TIP3   OH234681   8.139   7.751   5.200
11579TIP3    H134682   8.208   7.739   5.265
11579TIP3    H234683   8.074   7.806   5.244
11580TIP3   OH234684   8.109   2.947   1.593
11580TIP3    H134685   8.089   3.039   1.575
11580TIP3    H234686   8.046   2.922   1.661
11581TIP3   OH234687   1.269   7.853   0.161
11581TIP3    H134688   1.274   7.758   0.154
11581TIP3    H234689   1.177   7.871   0.176
11582TIP3   OH234690   4.283   4.731   0.701
11582TIP3    H134691   4.249   4.820   0.692
11582TIP3    H234692   4.232   4.680   0.638
11583TIP3   OH234693   7.699   4.267   3.972
11583TIP3    H134694   7.752   4.258   3.893
11583TIP3    H234695   7.668   4.358   3.971
11584TIP3   OH234696   0.152   7.481   2.255
11584TIP3    H134697   0.243   7.469   2.230
11584TIP3    H234698   0.142   7.576   2.266
11585TIP3   OH234699   0.770   4.607   4.790
11585TIP3    H134700   0.733   4.599   4.703
11585TIP3    H234701   0.766   4.700   4.810
11586TIP3   OH234702   6.247   7.106   2.623
11586TIP3    H134703   6.182   7.130   2.690
11586TIP3    H234704   6.198   7.101   2.542
11587TIP3   OH234705   4.685   0.657   5.689
11587TIP3    H134706   4.764   0.639   5.638
11587TIP3    H234707   4.619   0.679   5.624
11588TIP3   OH234708   2.861   5.777   5.092
11588TIP3    H134709   2.778   5.810   5.127
11588TIP3    H234710   2.839   5.742   5.006
11589TIP3   OH234711   0.416   4.574   5.081
11589TIP3    H134712   0.423   4.522   5.161
11589TIP3    H234713   0.483   4.642   5.091
11590TIP3   OH234714   3.513   7.313   1.087
11590TIP3    H134715   3.570   7.361   1.027
11590TIP3    H234716   3.434   7.295   1.036
11591TIP3   OH234717   6.307   3.881   4.048
11591TIP3    H134718   6.348   3.905   3.965
11591TIP3    H234719   6.323   3.787   4.056
11592TIP3   OH234720   2.773   5.451   1.364
11592TIP3    H134721   2.719   5.516   1.320
11592TIP3    H234722   2.746   5.367   1.325
11593TIP3   OH234723   4.920   1.024   0.586
11593TIP3    H134724   4.872   1.090   0.636
11593TIP3    H234725   5.009   1.027   0.620
11594TIP3   OH234726   6.221   7.073   4.036
11594TIP3    H134727   6.265   7.008   4.091
11594TIP3    H234728   6.162   7.022   3.981
11595TIP3   OH234729   7.192   7.846   1.978
11595TIP3    H134730   7.173   7.924   2.030
11595TIP3    H234731   7.152   7.775   2.027
11596TIP3   OH234732   6.696   2.318   4.355
11596TIP3    H134733   6.674   2.287   4.443
11596TIP3    H234734   6.722   2.409   4.367
11597TIP3   OH234735   6.189   2.440   4.206
11597TIP3    H134736   6.130   2.500   4.252
11597TIP3    H234737   6.274   2.454   4.246
11598TIP3   OH234738   2.752   2.375   0.905
11598TIP3    H134739   2.768   2.305   0.969
11598TIP3    H234740   2.818   2.361   0.837
11599TIP3   OH234741   1.341   7.459   6.712
11599TIP3    H134742   1.423   7.506   6.726
11599TIP3    H234743   1.358   7.370   6.743
11600TIP3   OH234744   1.173   5.064   1.531
11600TIP3    H134745   1.133   5.058   1.618
11600TIP3    H234746   1.262   5.032   1.544
11601TIP3   OH234747   0.896   4.925   2.164
11601TIP3    H134748   0.913   4.871   2.241
11601TIP3    H234749   0.893   5.014   2.197
11602TIP3   OH234750   7.439   3.200   4.052
11602TIP3    H134751   7.503   3.143   4.094
11602TIP3    H234752   7.355   3.157   4.067
11603TIP3   OH234753   5.293   5.553   4.657
11603TIP3    H134754   5.252   5.535   4.572
11603TIP3    H234755   5.250   5.494   4.718
11604TIP3   OH234756   4.016   7.455   4.484
11604TIP3    H134757   4.012   7.420   4.395
11604TIP3    H234758   4.071   7.394   4.532
11605TIP3   OH234759   6.136   1.503   5.509
11605TIP3    H134760   6.208   1.545   5.462
11605TIP3    H234761   6.172   1.421   5.540
11606TIP3   OH234762   4.606   4.249   4.059
11606TIP3    H134763   4.594   4.265   3.965
11606TIP3    H234764   4.668   4.316   4.087
11607TIP3   OH234765   0.305   5.747   1.619
11607TIP3    H134766   0.276   5.733   1.708
11607TIP3    H234767   0.235   5.798   1.578
11608TIP3   OH234768   7.732   7.290   4.993
11608TIP3    H134769   7.674   7.250   4.928
11608TIP3    H234770   7.810   7.235   4.993
11609TIP3   OH234771   2.763   2.005   1.383
11609TIP3    H134772   2.850   1.970   1.398
11609TIP3    H234773   2.726   1.948   1.315
11610TIP3   OH234774   1.749   2.710   5.715
11610TIP3    H134775   1.688   2.638   5.698
11610TIP3    H234776   1.712   2.785   5.668
11611TIP3   OH234777   2.841   7.298   1.984
11611TIP3    H134778   2.898   7.232   1.945
11611TIP3    H234779   2.754   7.279   1.949
11612TIP3   OH234780   3.422   2.292   2.973
11612TIP3    H134781   3.448   2.200   2.968
11612TIP3    H234782   3.326   2.291   2.970
11613TIP3   OH234783   6.827   2.580   4.318
11613TIP3    H134784   6.775   2.658   4.300
11613TIP3    H234785   6.861   2.554   4.232
11614TIP3   OH234786   3.260   7.119   4.204
11614TIP3    H134787   3.242   7.141   4.295
11614TIP3    H234788   3.356   7.122   4.198
11615TIP3   OH234789   6.370   4.651   2.023
11615TIP3    H134790   6.384   4.697   2.106
11615TIP3    H234791   6.340   4.564   2.049
11616TIP3   OH234792   4.468   3.359   0.282
11616TIP3    H134793   4.551   3.358   0.234
11616TIP3    H234794   4.412   3.296   0.236
11617TIP3   OH234795   3.842   0.156   3.994
11617TIP3    H134796   3.911   0.159   4.061
11617TIP3    H234797   3.776   0.097   4.032
11618TIP3   OH234798   2.136   0.327   5.566
11618TIP3    H134799   2.102   0.240   5.546
11618TIP3    H234800   2.204   0.342   5.501
11619TIP3   OH234801   0.976   7.456   4.257
11619TIP3    H134802   0.897   7.436   4.207
11619TIP3    H234803   0.996   7.375   4.304
11620TIP3   OH234804   4.876   1.370   0.066
11620TIP3    H134805   4.909   1.366  -0.024
11620TIP3    H234806   4.928   1.440   0.107
11621TIP3   OH234807   6.258   2.344   0.677
11621TIP3    H134808   6.343   2.315   0.709
11621TIP3    H234809   6.240   2.288   0.602
11622TIP3   OH234810   0.724   1.204   5.511
11622TIP3    H134811   0.644   1.221   5.560
11622TIP3    H234812   0.722   1.109   5.494
11623TIP3   OH234813   5.205   5.136   5.171
11623TIP3    H134814   5.115   5.168   5.162
11623TIP3    H234815   5.231   5.162   5.260
11624TIP3   OH234816   2.196   7.633   1.045
11624TIP3    H134817   2.110   7.670   1.059
11624TIP3    H234818   2.188   7.582   0.964
11625TIP3   OH234819   0.714   6.414   4.863
11625TIP3    H134820   0.644   6.426   4.799
11625TIP3    H234821   0.703   6.486   4.925
11626TIP3   OH234822   3.070   6.858   3.128
11626TIP3    H134823   3.147   6.882   3.179
11626TIP3    H234824   3.102   6.844   3.039
11627TIP3   OH234825   2.951   5.341   2.456
11627TIP3    H134826   3.023   5.360   2.517
11627TIP3    H234827   2.972   5.255   2.421
11628TIP3   OH234828   8.224   2.309   1.236
11628TIP3    H134829   8.312   2.347   1.245
11628TIP3    H234830   8.233   2.246   1.163
11629TIP3   OH234831   8.190   2.873   5.449
11629TIP3    H134832   8.177   2.869   5.355
11629TIP3    H234833   8.281   2.900   5.460
11630TIP3   OH234834   7.359   2.774   0.261
11630TIP3    H134835   7.413   2.725   0.199
11630TIP3    H234836   7.404   2.858   0.270
11631TIP3   OH234837   5.358   4.228   3.972
11631TIP3    H134838   5.436   4.176   3.992
11631TIP3    H234839   5.356   4.294   4.042
11632TIP3   OH234840   6.066   2.092   1.762
11632TIP3    H134841   6.016   2.160   1.717
11632TIP3    H234842   6.003   2.022   1.778
11633TIP3   OH234843   4.353   2.521   0.331
11633TIP3    H134844   4.398   2.551   0.252
11633TIP3    H234845   4.421   2.524   0.399
11634TIP3   OH234846   5.441   6.685   0.950
11634TIP3    H134847   5.399   6.765   0.977
11634TIP3    H234848   5.382   6.615   0.978
11635TIP3   OH234849   8.183   4.552   6.378
11635TIP3    H134850   8.141   4.597   6.304
11635TIP3    H234851   8.111   4.532   6.438
11636TIP3   OH234852   6.883   4.641   1.826
11636TIP3    H134853   6.845   4.718   1.784
11636TIP3    H234854   6.923   4.592   1.754
11637TIP3   OH234855   7.452   3.391   4.297
11637TIP3    H134856   7.516   3.463   4.300
11637TIP3    H234857   7.370   3.432   4.272
11638TIP3   OH234858   2.752   2.137   5.655
11638TIP3    H134859   2.778   2.228   5.667
11638TIP3    H234860   2.658   2.141   5.640
11639TIP3   OH234861   3.854   1.798   2.770
11639TIP3    H134862   3.788   1.868   2.766
11639TIP3    H234863   3.803   1.718   2.761
11640TIP3   OH234864   2.149   1.703   1.485
11640TIP3    H134865   2.071   1.667   1.527
11640TIP3    H234866   2.140   1.798   1.494
11641TIP3   OH234867   5.265   7.698   0.379
11641TIP3    H134868   5.263   7.625   0.440
11641TIP3    H234869   5.334   7.677   0.317
11642TIP3   OH234870   7.465   5.682   3.925
11642TIP3    H134871   7.501   5.745   3.987
11642TIP3    H234872   7.378   5.662   3.959
11643TIP3   OH234873   0.586   3.159   5.282
11643TIP3    H134874   0.549   3.220   5.218
11643TIP3    H234875   0.576   3.204   5.366
11644TIP3   OH234876   1.460   3.484   0.383
11644TIP3    H134877   1.542   3.513   0.343
11644TIP3    H234878   1.394   3.499   0.315
11645TIP3   OH234879   2.500   1.329   2.690
11645TIP3    H134880   2.477   1.330   2.597
11645TIP3    H234881   2.470   1.413   2.724
11646TIP3   OH234882   3.575   0.494   3.145
11646TIP3    H134883   3.630   0.554   3.196
11646TIP3    H234884   3.498   0.546   3.122
11647TIP3   OH234885   3.647   1.056   0.895
11647TIP3    H134886   3.577   1.111   0.930
11647TIP3    H234887   3.629   0.969   0.931
11648TIP3   OH234888   3.688   2.182   5.511
11648TIP3    H134889   3.641   2.128   5.574
11648TIP3    H234890   3.662   2.148   5.425
11649TIP3   OH234891   0.096   4.041   3.404
11649TIP3    H134892   0.106   4.136   3.417
11649TIP3    H234893   0.179   4.004   3.435
11650TIP3   OH234894   4.379   2.997   2.727
11650TIP3    H134895   4.470   3.025   2.728
11650TIP3    H234896   4.376   2.923   2.788
11651TIP3   OH234897   1.700   5.635   0.681
11651TIP3    H134898   1.780   5.627   0.628
11651TIP3    H234899   1.732   5.642   0.771
11652TIP3   OH234900   5.764   1.593   1.369
11652TIP3    H134901   5.684   1.644   1.355
11652TIP3    H234902   5.834   1.657   1.355
11653TIP3   OH234903   0.485   5.869   1.824
11653TIP3    H134904   0.401   5.823   1.831
11653TIP3    H234905   0.542   5.823   1.886
11654TIP3   OH234906   6.212   7.361   5.364
11654TIP3    H134907   6.275   7.289   5.369
11654TIP3    H234908   6.266   7.437   5.340
11655TIP3   OH234909   7.225   6.288   6.578
11655TIP3    H134910   7.194   6.272   6.489
11655TIP3    H234911   7.320   6.295   6.569
11656TIP3   OH234912   1.655   1.220   1.031
11656TIP3    H134913   1.637   1.267   0.950
11656TIP3    H234914   1.668   1.289   1.096
11657TIP3   OH234915   2.859   0.376   0.152
11657TIP3    H134916   2.766   0.402   0.153
11657TIP3    H234917   2.907   0.459   0.144
11658TIP3   OH234918   3.249   1.037   4.763
11658TIP3    H134919   3.184   0.984   4.717
11658TIP3    H234920   3.213   1.125   4.764
11659TIP3   OH234921   3.642   0.906   2.251
11659TIP3    H134922   3.583   0.893   2.176
11659TIP3    H234923   3.730   0.889   2.215
11660TIP3   OH234924   7.836   3.942   6.462
11660TIP3    H134925   7.873   3.896   6.538
11660TIP3    H234926   7.758   3.986   6.496
11661TIP3   OH234927   0.451   7.750   2.432
11661TIP3    H134928   0.441   7.655   2.435
11661TIP3    H234929   0.535   7.766   2.475
11662TIP3   OH234930   5.697   5.329   4.234
11662TIP3    H134931   5.611   5.302   4.266
11662TIP3    H234932   5.722   5.258   4.174
11663TIP3   OH234933   3.106   5.723   1.435
11663TIP3    H134934   3.107   5.802   1.489
11663TIP3    H234935   3.030   5.734   1.378
11664TIP3   OH234936   1.130   1.299   2.989
11664TIP3    H134937   1.084   1.328   2.910
11664TIP3    H234938   1.161   1.211   2.967
11665TIP3   OH234939   1.026   0.114   3.200
11665TIP3    H134940   0.942   0.157   3.218
11665TIP3    H234941   1.077   0.127   3.280
11666TIP3   OH234942   7.423   0.053   3.154
11666TIP3    H134943   7.511   0.076   3.122
11666TIP3    H234944   7.382   0.010   3.079
11667TIP3   OH234945   5.603   5.690   2.910
11667TIP3    H134946   5.544   5.692   2.835
11667TIP3    H234947   5.612   5.782   2.936
11668TIP3   OH234948   2.002   7.252   5.406
11668TIP3    H134949   1.969   7.341   5.419
11668TIP3    H234950   2.088   7.264   5.365
11669TIP3   OH234951   3.892   6.232   3.225
11669TIP3    H134952   3.808   6.274   3.243
11669TIP3    H234953   3.870   6.159   3.167
11670TIP3   OH234954   0.111   0.362   6.478
11670TIP3    H134955   0.109   0.266   6.478
11670TIP3    H234956   0.031   0.388   6.523
11671TIP3   OH234957   3.119   4.847   4.020
11671TIP3    H134958   3.105   4.753   4.033
11671TIP3    H234959   3.209   4.853   3.986
11672TIP3   OH234960   2.835   2.160   2.553
11672TIP3    H134961   2.825   2.076   2.597
11672TIP3    H234962   2.807   2.143   2.463
11673TIP3   OH234963   6.271   4.395   6.207
11673TIP3    H134964   6.334   4.454   6.165
11673TIP3    H234965   6.325   4.337   6.261
11674TIP3   OH234966   8.348   2.399   5.637
11674TIP3    H134967   8.305   2.324   5.597
11674TIP3    H234968   8.277   2.446   5.683
11675TIP3   OH234969   6.486   3.253   3.407
11675TIP3    H134970   6.449   3.340   3.420
11675TIP3    H234971   6.528   3.257   3.321
11676TIP3   OH234972   4.941   6.022   1.282
11676TIP3    H134973   4.894   5.994   1.204
11676TIP3    H234974   4.918   5.958   1.349
11677TIP3   OH234975   0.923   0.825   1.670
11677TIP3    H134976   0.874   0.805   1.590
11677TIP3    H234977   0.859   0.867   1.727
11678TIP3   OH234978   7.531   7.744   3.985
11678TIP3    H134979   7.627   7.735   3.981
11678TIP3    H234980   7.506   7.695   4.064
11679TIP3   OH234981   1.691   4.075   2.411
11679TIP3    H134982   1.643   4.002   2.373
11679TIP3    H234983   1.743   4.036   2.481
11680TIP3   OH234984   5.960   4.762   1.001
11680TIP3    H134985   5.945   4.668   0.991
11680TIP3    H234986   6.054   4.774   0.987
11681TIP3   OH234987   7.954   6.469   0.772
11681TIP3    H134988   7.917   6.514   0.697
11681TIP3    H234989   8.042   6.504   0.781
11682TIP3   OH234990   7.227   6.967   3.484
11682TIP3    H134991   7.287   7.032   3.523
11682TIP3    H234992   7.143   6.985   3.525
11683TIP3   OH234993   5.542   6.710   6.003
11683TIP3    H134994   5.629   6.750   6.000
11683TIP3    H234995   5.531   6.683   6.094
11684TIP3   OH234996   7.076   4.493   5.394
11684TIP3    H134997   7.062   4.500   5.299
11684TIP3    H234998   7.141   4.560   5.414
11685TIP3   OH234999   8.349   2.683   6.614
11685TIP3    H135000   8.258   2.704   6.594
11685TIP3    H235001   8.376   2.752   6.675
11686TIP3   OH235002   5.773   7.234   2.136
11686TIP3    H135003   5.788   7.158   2.193
11686TIP3    H235004   5.727   7.297   2.191
11687TIP3   OH235005   6.757   3.971   3.169
11687TIP3    H135006   6.723   3.916   3.239
11687TIP3    H235007   6.681   4.018   3.135
11688TIP3   OH235008   6.795   5.878   5.964
11688TIP3    H135009   6.730   5.945   5.985
11688TIP3    H235010   6.867   5.926   5.925
11689TIP3   OH235011   8.048   6.774   3.081
11689TIP3    H135012   8.017   6.721   3.008
11689TIP3    H235013   8.143   6.765   3.079
11690TIP3   OH235014   6.726   0.845   0.348
11690TIP3    H135015   6.795   0.820   0.408
11690TIP3    H235016   6.771   0.881   0.272
11691TIP3   OH235017   6.844   7.018   4.109
11691TIP3    H135018   6.900   7.018   4.031
11691TIP3    H235019   6.790   6.940   4.099
11692TIP3   OH235020   1.627   6.552   6.698
11692TIP3    H135021   1.580   6.470   6.682
11692TIP3    H235022   1.717   6.533   6.671
11693TIP3   OH235023   3.510   0.241  -0.010
11693TIP3    H135024   3.465   0.246   0.074
11693TIP3    H235025   3.509   0.331  -0.043
11694TIP3   OH235026   1.329   4.092   2.318
11694TIP3    H135027   1.411   4.137   2.338
11694TIP3    H235028   1.312   4.038   2.396
11695TIP3   OH235029   1.523   3.314   3.643
11695TIP3    H135030   1.540   3.400   3.681
11695TIP3    H235031   1.446   3.327   3.588
11696TIP3   OH235032   4.853   2.325   1.237
11696TIP3    H135033   4.857   2.409   1.190
11696TIP3    H235034   4.854   2.350   1.329
11697TIP3   OH235035   4.499   3.601   1.834
11697TIP3    H135036   4.468   3.560   1.915
11697TIP3    H235037   4.594   3.584   1.833
11698TIP3   OH235038   7.061   0.602   5.825
11698TIP3    H135039   7.001   0.560   5.763
11698TIP3    H235040   7.005   0.660   5.877
11699TIP3   OH235041   6.067   7.447   4.639
11699TIP3    H135042   6.127   7.515   4.610
11699TIP3    H235043   5.983   7.471   4.599
11700TIP3   OH235044   2.541   3.992   6.031
11700TIP3    H135045   2.562   4.077   6.068
11700TIP3    H235046   2.612   3.934   6.060
11701TIP3   OH235047   5.879   1.054   1.793
11701TIP3    H135048   5.950   1.032   1.732
11701TIP3    H235049   5.814   0.985   1.781
11702TIP3   OH235050   2.744   4.925   4.711
11702TIP3    H135051   2.719   4.841   4.748
11702TIP3    H235052   2.798   4.903   4.635
11703TIP3   OH235053   0.636   1.813   3.207
11703TIP3    H135054   0.574   1.878   3.239
11703TIP3    H235055   0.682   1.856   3.136
11704TIP3   OH235056   0.903   6.103   0.546
11704TIP3    H135057   0.844   6.070   0.479
11704TIP3    H235058   0.848   6.164   0.597
11705TIP3   OH235059   6.409   6.865   4.192
11705TIP3    H135060   6.466   6.913   4.251
11705TIP3    H235061   6.321   6.877   4.228
11706TIP3   OH235062   2.514   7.043   3.809
11706TIP3    H135063   2.513   6.949   3.793
11706TIP3    H235064   2.607   7.065   3.814
11707TIP3   OH235065   1.612   5.460   2.220
11707TIP3    H135066   1.577   5.401   2.153
11707TIP3    H235067   1.589   5.417   2.303
11708TIP3   OH235068   5.257   1.736   0.164
11708TIP3    H135069   5.294   1.728   0.252
11708TIP3    H235070   5.332   1.761   0.109
11709TIP3   OH235071   6.226   1.232   4.453
11709TIP3    H135072   6.142   1.203   4.418
11709TIP3    H235073   6.235   1.323   4.425
11710TIP3   OH235074   4.092   7.663   5.602
11710TIP3    H135075   4.018   7.651   5.662
11710TIP3    H235076   4.051   7.677   5.516
11711TIP3   OH235077   3.062   0.484   6.692
11711TIP3    H135078   3.047   0.545   6.765
11711TIP3    H235079   2.996   0.415   6.704
11712TIP3   OH235080   1.058   7.337   2.550
11712TIP3    H135081   0.986   7.325   2.488
11712TIP3    H235082   1.119   7.395   2.505
11713TIP3   OH235083   2.144   7.434   2.931
11713TIP3    H135084   2.172   7.525   2.921
11713TIP3    H235085   2.054   7.433   2.899
11714TIP3   OH235086   3.590   2.980   3.445
11714TIP3    H135087   3.672   2.981   3.395
11714TIP3    H235088   3.546   2.899   3.419
11715TIP3   OH235089   7.277   3.316   2.520
11715TIP3    H135090   7.338   3.307   2.447
11715TIP3    H235091   7.223   3.392   2.496
11716TIP3   OH235092   6.433   0.936   5.503
11716TIP3    H135093   6.390   0.950   5.587
11716TIP3    H235094   6.396   1.004   5.446
11717TIP3   OH235095   4.802   7.007   6.451
11717TIP3    H135096   4.754   6.995   6.369
11717TIP3    H235097   4.805   7.102   6.463
11718TIP3   OH235098   7.869   6.862   3.314
11718TIP3    H135099   7.840   6.851   3.224
11718TIP3    H235100   7.897   6.775   3.342
11719TIP3   OH235101   2.151   1.433   3.795
11719TIP3    H135102   2.114   1.501   3.738
11719TIP3    H235103   2.196   1.482   3.863
11720TIP3   OH235104   7.186   5.839   2.513
11720TIP3    H135105   7.169   5.811   2.423
11720TIP3    H235106   7.189   5.758   2.563
11721TIP3   OH235107   6.407   7.850   5.248
11721TIP3    H135108   6.404   7.813   5.160
11721TIP3    H235109   6.499   7.871   5.262
11722TIP3   OH235110   3.795   3.417   4.771
11722TIP3    H135111   3.782   3.504   4.733
11722TIP3    H235112   3.854   3.431   4.845
11723TIP3   OH235113   4.485   2.688   0.724
11723TIP3    H135114   4.572   2.661   0.693
11723TIP3    H235115   4.503   2.745   0.799
11724TIP3   OH235116   0.542   6.787   6.094
11724TIP3    H135117   0.485   6.863   6.106
11724TIP3    H235118   0.611   6.819   6.035
11725TIP3   OH235119   1.751   5.469   0.316
11725TIP3    H135120   1.819   5.514   0.365
11725TIP3    H235121   1.692   5.434   0.383
11726TIP3   OH235122   3.479   6.861   4.680
11726TIP3    H135123   3.444   6.790   4.733
11726TIP3    H235124   3.545   6.902   4.735
11727TIP3   OH235125   0.262   4.152   1.580
11727TIP3    H135126   0.237   4.165   1.671
11727TIP3    H235127   0.353   4.183   1.576
11728TIP3   OH235128   1.073   1.876   2.154
11728TIP3    H135129   1.004   1.909   2.212
11728TIP3    H235130   1.027   1.818   2.093
11729TIP3   OH235131   0.902   2.588   3.227
11729TIP3    H135132   0.924   2.607   3.319
11729TIP3    H235133   0.984   2.555   3.190
11730TIP3   OH235134   2.889   0.484   4.055
11730TIP3    H135135   2.947   0.534   4.112
11730TIP3    H235136   2.853   0.416   4.112
11731TIP3   OH235137   7.299   6.278   0.159
11731TIP3    H135138   7.262   6.189   0.153
11731TIP3    H235139   7.314   6.291   0.252
11732TIP3   OH235140   1.397   4.925   1.571
11732TIP3    H135141   1.448   4.908   1.492
11732TIP3    H235142   1.390   4.840   1.614
11733TIP3   OH235143   6.578   4.543   0.678
11733TIP3    H135144   6.670   4.568   0.668
11733TIP3    H235145   6.577   4.483   0.752
11734TIP3   OH235146   2.624   6.688   4.840
11734TIP3    H135147   2.592   6.776   4.858
11734TIP3    H235148   2.551   6.630   4.860
11735TIP3   OH235149   1.186   7.358   1.758
11735TIP3    H135150   1.187   7.417   1.833
11735TIP3    H235151   1.150   7.276   1.791
11736TIP3   OH235152   3.066   4.300   3.405
11736TIP3    H135153   3.063   4.204   3.410
11736TIP3    H235154   2.982   4.329   3.440
11737TIP3   OH235155   6.001   3.349   3.674
11737TIP3    H135156   6.049   3.390   3.601
11737TIP3    H235157   6.051   3.269   3.693
11738TIP3   OH235158   4.908   5.447   2.051
11738TIP3    H135159   4.878   5.382   1.988
11738TIP3    H235160   5.003   5.447   2.042
11739TIP3   OH235161   5.987   4.006   1.696
11739TIP3    H135162   5.903   3.972   1.726
11739TIP3    H235163   5.971   4.100   1.684
11740TIP3   OH235164   4.649   7.586   5.817
11740TIP3    H135165   4.586   7.516   5.803
11740TIP3    H235166   4.696   7.594   5.735
11741TIP3   OH235167   3.985   4.624   1.371
11741TIP3    H135168   4.003   4.717   1.361
11741TIP3    H235169   4.014   4.603   1.460
11742TIP3   OH235170   3.568   2.717   3.006
11742TIP3    H135171   3.560   2.636   3.056
11742TIP3    H235172   3.556   2.690   2.915
11743TIP3   OH235173   7.939   1.155   0.746
11743TIP3    H135174   7.929   1.190   0.834
11743TIP3    H235175   7.934   1.060   0.757
11744TIP3   OH235176   1.477   1.209   6.372
11744TIP3    H135177   1.540   1.249   6.312
11744TIP3    H235178   1.393   1.215   6.326
11745TIP3   OH235179   7.909   2.307   5.454
11745TIP3    H135180   7.931   2.226   5.499
11745TIP3    H235181   7.925   2.288   5.361
11746TIP3   OH235182   5.224   7.852   1.224
11746TIP3    H135183   5.246   7.784   1.287
11746TIP3    H235184   5.296   7.850   1.161
11747TIP3   OH235185   1.059   4.525   3.464
11747TIP3    H135186   1.135   4.550   3.518
11747TIP3    H235187   1.091   4.530   3.374
11748TIP3   OH235188   1.352   0.391   2.587
11748TIP3    H135189   1.279   0.452   2.575
11748TIP3    H235190   1.365   0.387   2.682
11749TIP3   OH235191   6.294   5.725   1.474
11749TIP3    H135192   6.230   5.771   1.421
11749TIP3    H235193   6.278   5.632   1.456
11750TIP3   OH235194   8.166   1.727   4.831
11750TIP3    H135195   8.204   1.814   4.844
11750TIP3    H235196   8.130   1.729   4.743
11751TIP3   OH235197   5.812   5.461   5.960
11751TIP3    H135198   5.861   5.451   6.042
11751TIP3    H235199   5.805   5.555   5.947
11752TIP3   OH235200   3.239   6.338   6.286
11752TIP3    H135201   3.316   6.282   6.277
11752TIP3    H235202   3.165   6.277   6.294
11753TIP3   OH235203   3.226   3.720   6.361
11753TIP3    H135204   3.250   3.627   6.356
11753TIP3    H235205   3.131   3.720   6.365
11754TIP3   OH235206   6.380   4.917   3.001
11754TIP3    H135207   6.387   4.959   3.087
11754TIP3    H235208   6.454   4.856   2.999
11755TIP3   OH235209   0.145   3.263   0.824
11755TIP3    H135210   0.086   3.253   0.899
11755TIP3    H235211   0.233   3.249   0.859
11756TIP3   OH235212   0.611   0.239   0.123
11756TIP3    H135213   0.601   0.182   0.047
11756TIP3    H235214   0.564   0.194   0.193
11757TIP3   OH235215   4.884   3.328   1.182
11757TIP3    H135216   4.840   3.347   1.099
11757TIP3    H235217   4.910   3.236   1.175
11758TIP3   OH235218   2.639   6.789   5.608
11758TIP3    H135219   2.581   6.772   5.534
11758TIP3    H235220   2.609   6.729   5.676
11759TIP3   OH235221   2.971   0.925   4.970
11759TIP3    H135222   2.974   1.018   4.947
11759TIP3    H235223   2.900   0.890   4.916
11760TIP3   OH235224   2.950   5.885   3.758
11760TIP3    H135225   2.912   5.799   3.741
11760TIP3    H235226   3.043   5.868   3.772
11761TIP3   OH235227   7.927   1.437   1.802
11761TIP3    H135228   7.943   1.379   1.877
11761TIP3    H235229   7.988   1.509   1.815
11762TIP3   OH235230   4.868   3.698   6.797
11762TIP3    H135231   4.873   3.613   6.753
11762TIP3    H235232   4.940   3.697   6.860
11763TIP3   OH235233   3.399   6.531   3.142
11763TIP3    H135234   3.334   6.560   3.079
11763TIP3    H235235   3.387   6.437   3.149
11764TIP3   OH235236   6.683   5.070   3.387
11764TIP3    H135237   6.642   4.983   3.383
11764TIP3    H235238   6.777   5.053   3.377
11765TIP3   OH235239   2.816   3.858   1.106
11765TIP3    H135240   2.895   3.884   1.059
11765TIP3    H235241   2.788   3.777   1.064
11766TIP3   OH235242   7.840   0.802   5.673
11766TIP3    H135243   7.809   0.847   5.594
11766TIP3    H235244   7.889   0.868   5.721
11767TIP3   OH235245   0.768   0.188   4.758
11767TIP3    H135246   0.729   0.273   4.737
11767TIP3    H235247   0.851   0.209   4.802
11768TIP3   OH235248   4.237   4.538   2.295
11768TIP3    H135249   4.328   4.514   2.276
11768TIP3    H235250   4.193   4.455   2.312
11769TIP3   OH235251   3.482   6.938   2.852
11769TIP3    H135252   3.386   6.942   2.856
11769TIP3    H235253   3.508   6.909   2.939
11770TIP3   OH235254   5.057   6.577   3.196
11770TIP3    H135255   5.110   6.651   3.224
11770TIP3    H235256   5.020   6.604   3.112
11771TIP3   OH235257   7.935   1.559   6.326
11771TIP3    H135258   7.918   1.611   6.404
11771TIP3    H235259   7.929   1.622   6.254
11772TIP3   OH235260   5.378   0.719   0.807
11772TIP3    H135261   5.445   0.656   0.833
11772TIP3    H235262   5.360   0.699   0.715
11773TIP3   OH235263   0.371   0.225   5.916
11773TIP3    H135264   0.438   0.156   5.913
11773TIP3    H235265   0.408   0.291   5.975
11774TIP3   OH235266   5.556   6.170   3.697
11774TIP3    H135267   5.515   6.245   3.740
11774TIP3    H235268   5.528   6.094   3.749
11775TIP3   OH235269   4.373   7.612   3.814
11775TIP3    H135270   4.320   7.532   3.817
11775TIP3    H235271   4.331   7.665   3.746
11776TIP3   OH235272   0.900   6.203   6.679
11776TIP3    H135273   0.945   6.146   6.616
11776TIP3    H235274   0.842   6.256   6.625
11777TIP3   OH235275   8.154   1.121   0.375
11777TIP3    H135276   8.164   1.191   0.439
11777TIP3    H235277   8.234   1.123   0.323
11778TIP3   OH235278   6.630   1.758   0.921
11778TIP3    H135279   6.669   1.824   0.979
11778TIP3    H235280   6.550   1.731   0.966
11779TIP3   OH235281   6.202   1.237   5.543
11779TIP3    H135282   6.276   1.256   5.600
11779TIP3    H235283   6.129   1.219   5.602
11780TIP3   OH235284   4.245   0.930   1.011
11780TIP3    H135285   4.153   0.911   0.995
11780TIP3    H235286   4.279   0.959   0.926
11781TIP3   OH235287   7.472   7.266   5.736
11781TIP3    H135288   7.522   7.311   5.668
11781TIP3    H235289   7.470   7.174   5.708
11782TIP3   OH235290   1.310   6.242   0.844
11782TIP3    H135291   1.322   6.147   0.841
11782TIP3    H235292   1.292   6.262   0.936
11783TIP3   OH235293   0.682   6.448   0.420
11783TIP3    H135294   0.713   6.538   0.431
11783TIP3    H235295   0.632   6.450   0.338
11784TIP3   OH235296   7.075   7.403   3.710
11784TIP3    H135297   7.114   7.317   3.694
11784TIP3    H235298   7.147   7.465   3.698
11785TIP3   OH235299   6.082   1.967   3.430
11785TIP3    H135300   6.081   2.058   3.458
11785TIP3    H235301   5.989   1.942   3.426
11786TIP3   OH235302   2.995   3.007   5.857
11786TIP3    H135303   2.962   2.990   5.768
11786TIP3    H235304   3.089   2.995   5.850
11787TIP3   OH235305   6.900   0.484   1.333
11787TIP3    H135306   6.841   0.447   1.268
11787TIP3    H235307   6.886   0.430   1.411
11788TIP3   OH235308   8.177   6.186   1.370
11788TIP3    H135309   8.232   6.143   1.305
11788TIP3    H235310   8.088   6.182   1.334
11789TIP3   OH235311   5.209   7.521   1.737
11789TIP3    H135312   5.285   7.464   1.748
11789TIP3    H235313   5.140   7.463   1.704
11790TIP3   OH235314   7.591   3.182   3.511
11790TIP3    H135315   7.648   3.241   3.460
11790TIP3    H235316   7.590   3.221   3.599
11791TIP3   OH235317   2.800   7.818   0.230
11791TIP3    H135318   2.834   7.906   0.250
11791TIP3    H235319   2.765   7.787   0.314
11792TIP3   OH235320   4.528   5.553   0.859
11792TIP3    H135321   4.608   5.605   0.869
11792TIP3    H235322   4.481   5.594   0.788
11793TIP3   OH235323   4.725   4.190   1.589
11793TIP3    H135324   4.776   4.112   1.566
11793TIP3    H235325   4.762   4.260   1.535
11794TIP3   OH235326   3.208   4.148   0.908
11794TIP3    H135327   3.240   4.161   0.818
11794TIP3    H235328   3.220   4.234   0.950
11795TIP3   OH235329   7.863   0.265   0.832
11795TIP3    H135330   7.914   0.201   0.782
11795TIP3    H235331   7.825   0.214   0.903
11796TIP3   OH235332   7.600   2.265   4.743
11796TIP3    H135333   7.646   2.342   4.775
11796TIP3    H235334   7.542   2.240   4.815
11797TIP3   OH235335   1.896   1.089   3.450
11797TIP3    H135336   1.906   1.028   3.523
11797TIP3    H235337   1.948   1.165   3.474
11798TIP3   OH235338   4.645   6.411   3.688
11798TIP3    H135339   4.592   6.413   3.608
11798TIP3    H235340   4.732   6.382   3.658
11799TIP3   OH235341   3.048   3.617   5.603
11799TIP3    H135342   3.064   3.523   5.613
11799TIP3    H235343   3.016   3.627   5.514
11800TIP3   OH235344   5.020   7.225   3.389
11800TIP3    H135345   4.993   7.167   3.460
11800TIP3    H235346   5.098   7.183   3.352
11801TIP3   OH235347   0.263   0.777   3.025
11801TIP3    H135348   0.258   0.782   3.121
11801TIP3    H235349   0.173   0.790   2.996
11802TIP3   OH235350   4.690   4.546   1.723
11802TIP3    H135351   4.668   4.480   1.788
11802TIP3    H235352   4.718   4.496   1.646
11803TIP3   OH235353   2.913   1.420   2.381
11803TIP3    H135354   2.840   1.394   2.326
11803TIP3    H235355   2.899   1.513   2.398
11804TIP3   OH235356   7.310   5.634   4.932
11804TIP3    H135357   7.260   5.665   4.856
11804TIP3    H235358   7.380   5.699   4.942
11805TIP3   OH235359   6.596   3.800  -0.051
11805TIP3    H135360   6.509   3.783  -0.015
11805TIP3    H235361   6.637   3.714  -0.055
11806TIP3   OH235362   0.688   2.836   1.384
11806TIP3    H135363   0.699   2.926   1.353
11806TIP3    H235364   0.650   2.790   1.309
11807TIP3   OH235365   3.722   2.604   6.678
11807TIP3    H135366   3.771   2.675   6.637
11807TIP3    H235367   3.711   2.632   6.769
11808TIP3   OH235368   4.471   4.061   1.251
11808TIP3    H135369   4.475   4.063   1.156
11808TIP3    H235370   4.456   4.153   1.276
11809TIP3   OH235371   7.319   0.477   5.509
11809TIP3    H135372   7.312   0.389   5.546
11809TIP3    H235373   7.295   0.467   5.417
11810TIP3   OH235374   1.063   1.332   5.431
11810TIP3    H135375   1.144   1.287   5.455
11810TIP3    H235376   1.019   1.271   5.371
11811TIP3   OH235377   0.138   3.484   1.435
11811TIP3    H135378   0.155   3.557   1.376
11811TIP3    H235379   0.225   3.457   1.466
11812TIP3   OH235380   3.859   0.893   4.095
11812TIP3    H135381   3.908   0.870   4.016
11812TIP3    H235382   3.827   0.982   4.078
11813TIP3   OH235383   7.915   4.970   4.586
11813TIP3    H135384   7.862   4.893   4.566
11813TIP3    H235385   8.005   4.938   4.588
11814TIP3   OH235386   1.213   7.732   6.454
11814TIP3    H135387   1.125   7.698   6.468
11814TIP3    H235388   1.228   7.791   6.528
11815TIP3   OH235389  -0.034   6.866   1.939
11815TIP3    H135390  -0.040   6.872   1.844
11815TIP3    H235391   0.011   6.783   1.956
11816TIP3   OH235392   2.501   6.283   3.185
11816TIP3    H135393   2.415   6.319   3.207
11816TIP3    H235394   2.535   6.342   3.118
11817TIP3   OH235395   3.592   5.402   4.713
11817TIP3    H135396   3.671   5.449   4.687
11817TIP3    H235397   3.623   5.338   4.777
11818TIP3   OH235398   0.977   0.882   4.370
11818TIP3    H135399   1.038   0.916   4.304
11818TIP3    H235400   1.034   0.847   4.439
11819TIP3   OH235401   4.749   6.236   5.961
11819TIP3    H135402   4.789   6.217   5.877
11819TIP3    H235403   4.696   6.159   5.980
11820TIP3   OH235404   5.784   2.326   5.425
11820TIP3    H135405   5.815   2.343   5.336
11820TIP3    H235406   5.740   2.241   5.419
11821TIP3   OH235407   6.225   6.981   2.955
11821TIP3    H135408   6.169   6.922   3.005
11821TIP3    H235409   6.171   7.059   2.941
11822TIP3   OH235410   4.276   2.486   4.122
11822TIP3    H135411   4.352   2.451   4.170
11822TIP3    H235412   4.314   2.531   4.047
11823TIP3   OH235413   2.428   3.857   4.064
11823TIP3    H135414   2.408   3.948   4.084
11823TIP3    H235415   2.343   3.814   4.060
11824TIP3   OH235416   1.605   0.237   0.174
11824TIP3    H135417   1.514   0.208   0.184
11824TIP3    H235418   1.655   0.156   0.163
11825TIP3   OH235419   3.912   3.611   1.443
11825TIP3    H135420   3.990   3.558   1.451
11825TIP3    H235421   3.942   3.692   1.402
11826TIP3   OH235422   1.165   4.290   6.712
11826TIP3    H135423   1.090   4.289   6.653
11826TIP3    H235424   1.239   4.315   6.657
11827TIP3   OH235425   3.136   1.507   3.349
11827TIP3    H135426   3.216   1.456   3.337
11827TIP3    H235427   3.145   1.546   3.436
11828TIP3   OH235428   6.463   4.640   6.673
11828TIP3    H135429   6.443   4.688   6.754
11828TIP3    H235430   6.541   4.683   6.638
11829TIP3   OH235431   5.373   7.138   3.943
11829TIP3    H135432   5.433   7.098   4.006
11829TIP3    H235433   5.379   7.081   3.866
11830TIP3   OH235434   3.646   7.476   3.030
11830TIP3    H135435   3.737   7.496   3.009
11830TIP3    H235436   3.605   7.561   3.042
11831TIP3   OH235437   4.200   3.945   5.993
11831TIP3    H135438   4.198   3.979   5.903
11831TIP3    H235439   4.236   3.857   5.984
11832TIP3   OH235440   5.115   4.649   5.881
11832TIP3    H135441   5.081   4.670   5.968
11832TIP3    H235442   5.112   4.732   5.833
11833TIP3   OH235443   7.480   5.421   5.517
11833TIP3    H135444   7.536   5.365   5.464
11833TIP3    H235445   7.412   5.451   5.457
11834TIP3   OH235446   5.988   7.424   3.160
11834TIP3    H135447   5.968   7.516   3.140
11834TIP3    H235448   6.081   7.415   3.138
11835TIP3   OH235449   7.162   5.451   4.199
11835TIP3    H135450   7.243   5.502   4.193
11835TIP3    H235451   7.127   5.450   4.110
11836TIP3   OH235452   3.348   1.830   0.098
11836TIP3    H135453   3.385   1.820   0.010
11836TIP3    H235454   3.423   1.854   0.153
11837TIP3   OH235455   2.392   0.376   5.795
11837TIP3    H135456   2.389   0.471   5.784
11837TIP3    H235457   2.317   0.344   5.746
11838TIP3   OH235458   2.861   7.830   6.624
11838TIP3    H135459   2.908   7.748   6.640
11838TIP3    H235460   2.909   7.895   6.676
11839TIP3   OH235461   0.702   6.910   6.481
11839TIP3    H135462   0.784   6.902   6.430
11839TIP3    H235463   0.730   6.903   6.572
11840TIP3   OH235464   0.123   7.334   0.851
11840TIP3    H135465   0.143   7.427   0.862
11840TIP3    H235466   0.208   7.291   0.847
11841TIP3   OH235467   2.831   1.686   3.426
11841TIP3    H135468   2.917   1.645   3.436
11841TIP3    H235469   2.794   1.646   3.347
11842TIP3   OH235470   3.785   1.088   5.724
11842TIP3    H135471   3.863   1.117   5.772
11842TIP3    H235472   3.745   1.023   5.782
11843TIP3   OH235473   6.516   0.675   3.036
11843TIP3    H135474   6.469   0.743   3.085
11843TIP3    H235475   6.508   0.596   3.090
11844TIP3   OH235476   0.622   0.079   0.406
11844TIP3    H135477   0.647   0.166   0.438
11844TIP3    H235478   0.538   0.061   0.449
11845TIP3   OH235479   0.957   6.202   4.498
11845TIP3    H135480   0.915   6.285   4.478
11845TIP3    H235481   0.953   6.153   4.416
11846TIP3   OH235482   1.386   3.753   3.466
11846TIP3    H135483   1.312   3.750   3.405
11846TIP3    H235484   1.353   3.800   3.542
11847TIP3   OH235485   1.688   0.497   2.171
11847TIP3    H135486   1.639   0.517   2.091
11847TIP3    H235487   1.670   0.570   2.230
11848TIP3   OH235488   3.281   0.349   3.077
11848TIP3    H135489   3.239   0.377   2.996
11848TIP3    H235490   3.219   0.373   3.146
11849TIP3   OH235491   0.135   6.822   4.951
11849TIP3    H135492   0.185   6.841   5.030
11849TIP3    H235493   0.064   6.765   4.980
11850TIP3   OH235494   4.686   5.651   3.068
11850TIP3    H135495   4.639   5.590   3.124
11850TIP3    H235496   4.731   5.596   3.004
11851TIP3   OH235497   8.217   2.041   4.768
11851TIP3    H135498   8.268   2.114   4.732
11851TIP3    H235499   8.127   2.057   4.738
11852TIP3   OH235500   5.432   6.034   3.483
11852TIP3    H135501   5.457   6.095   3.553
11852TIP3    H235502   5.353   6.073   3.444
11853TIP3   OH235503   4.318   1.642   4.893
11853TIP3    H135504   4.299   1.671   4.983
11853TIP3    H235505   4.402   1.682   4.872
11854TIP3   OH235506   3.935   3.886   3.848
11854TIP3    H135507   3.859   3.839   3.882
11854TIP3    H235508   3.948   3.850   3.760
11855TIP3   OH235509   1.554   2.705   3.774
11855TIP3    H135510   1.633   2.708   3.720
11855TIP3    H235511   1.495   2.770   3.736
11856TIP3   OH235512   0.705   1.518   1.664
11856TIP3    H135513   0.694   1.609   1.690
11856TIP3    H235514   0.798   1.509   1.644
11857TIP3   OH235515   6.466   7.715   3.038
11857TIP3    H135516   6.508   7.687   2.957
11857TIP3    H235517   6.538   7.744   3.094
11858TIP3   OH235518   3.500   4.262   1.546
11858TIP3    H135519   3.450   4.323   1.601
11858TIP3    H235520   3.475   4.285   1.457
11859TIP3   OH235521   7.491   1.322   5.293
11859TIP3    H135522   7.542   1.273   5.229
11859TIP3    H235523   7.539   1.403   5.305
11860TIP3   OH235524   0.129   5.292   4.552
11860TIP3    H135525   0.125   5.368   4.493
11860TIP3    H235526   0.222   5.280   4.569
11861TIP3   OH235527   0.802   6.895   5.627
11861TIP3    H135528   0.823   6.818   5.575
11861TIP3    H235529   0.879   6.952   5.617
11862TIP3   OH235530   4.005   7.183   2.227
11862TIP3    H135531   3.975   7.245   2.293
11862TIP3    H235532   3.939   7.189   2.158
11863TIP3   OH235533   2.236   1.026   5.325
11863TIP3    H135534   2.160   1.064   5.370
11863TIP3    H235535   2.249   1.083   5.249
11864TIP3   OH235536   7.627   6.373   4.409
11864TIP3    H135537   7.574   6.366   4.489
11864TIP3    H235538   7.716   6.385   4.441
11865TIP3   OH235539   3.112   6.164   4.532
11865TIP3    H135540   3.045   6.099   4.510
11865TIP3    H235541   3.194   6.125   4.502
11866TIP3   OH235542   7.682   6.784   4.633
11866TIP3    H135543   7.770   6.782   4.672
11866TIP3    H235544   7.623   6.773   4.708
11867TIP3   OH235545   5.511   0.935   0.024
11867TIP3    H135546   5.603   0.917   0.040
11867TIP3    H235547   5.470   0.929   0.110
11868TIP3   OH235548   7.877   1.227   1.334
11868TIP3    H135549   7.864   1.203   1.425
11868TIP3    H235550   7.793   1.263   1.306
11869TIP3   OH235551   2.515   0.240   6.009
11869TIP3    H135552   2.489   0.277   5.924
11869TIP3    H235553   2.600   0.281   6.027
11870TIP3   OH235554   6.406   3.498   4.873
11870TIP3    H135555   6.455   3.437   4.927
11870TIP3    H235556   6.331   3.523   4.928
11871TIP3   OH235557   5.730   4.742   4.033
11871TIP3    H135558   5.707   4.649   4.032
11871TIP3    H235559   5.704   4.773   4.120
11872TIP3   OH235560   6.111   2.887   3.038
11872TIP3    H135561   6.182   2.947   3.016
11872TIP3    H235562   6.078   2.919   3.122
11873TIP3   OH235563   7.921   1.542   5.044
11873TIP3    H135564   7.857   1.474   5.065
11873TIP3    H235565   7.992   1.495   5.000
11874TIP3   OH235566   3.763   4.088   5.583
11874TIP3    H135567   3.694   4.036   5.624
11874TIP3    H235568   3.799   4.141   5.654
11875TIP3   OH235569   6.876   4.335   0.146
11875TIP3    H135570   6.821   4.408   0.176
11875TIP3    H235571   6.848   4.320   0.056
11876TIP3   OH235572   5.032   4.026   6.582
11876TIP3    H135573   5.017   4.108   6.536
11876TIP3    H235574   5.038   4.050   6.674
11877TIP3   OH235575   3.581   4.991   4.594
11877TIP3    H135576   3.551   5.007   4.684
11877TIP3    H235577   3.504   5.007   4.540
11878TIP3   OH235578   1.587   7.123   5.409
11878TIP3    H135579   1.639   7.098   5.333
11878TIP3    H235580   1.626   7.076   5.482
11879TIP3   OH235581   4.345   5.230   0.986
11879TIP3    H135582   4.269   5.287   0.976
11879TIP3    H235583   4.312   5.156   1.038
11880TIP3   OH235584   6.684   0.088   1.139
11880TIP3    H135585   6.731   0.007   1.119
11880TIP3    H235586   6.615   0.093   1.073
11881TIP3   OH235587   6.576   5.426   5.881
11881TIP3    H135588   6.497   5.437   5.829
11881TIP3    H235589   6.549   5.444   5.971
11882TIP3   OH235590   1.427   7.573   6.329
11882TIP3    H135591   1.358   7.616   6.380
11882TIP3    H235592   1.489   7.643   6.307
11883TIP3   OH235593   4.289   2.891   0.975
11883TIP3    H135594   4.275   2.890   1.070
11883TIP3    H235595   4.383   2.877   0.964
11884TIP3   OH235596   6.429   0.483   6.693
11884TIP3    H135597   6.473   0.491   6.777
11884TIP3    H235598   6.438   0.570   6.652
11885TIP3   OH235599   3.883   0.512   4.656
11885TIP3    H135600   3.916   0.580   4.713
11885TIP3    H235601   3.796   0.543   4.629
11886TIP3   OH235602   5.015   7.488   4.976
11886TIP3    H135603   5.075   7.552   4.937
11886TIP3    H235604   5.068   7.444   5.043
11887TIP3   OH235605   2.398   0.099   4.890
11887TIP3    H135606   2.491   0.118   4.883
11887TIP3    H235607   2.372   0.137   4.974
11888TIP3   OH235608   4.888   1.669   4.715
11888TIP3    H135609   4.961   1.607   4.720
11888TIP3    H235610   4.921   1.749   4.757
11889TIP3   OH235611   6.654   7.757   2.577
11889TIP3    H135612   6.646   7.679   2.523
11889TIP3    H235613   6.693   7.823   2.519
11890TIP3   OH235614   7.295   4.233   1.687
11890TIP3    H135615   7.273   4.179   1.763
11890TIP3    H235616   7.337   4.310   1.723
11891TIP3   OH235617   6.751   5.213   2.824
11891TIP3    H135618   6.739   5.262   2.905
11891TIP3    H235619   6.846   5.210   2.812
11892TIP3   OH235620   1.143   4.336   4.043
11892TIP3    H135621   1.174   4.367   4.128
11892TIP3    H235622   1.217   4.349   3.984
11893TIP3   OH235623   5.949   0.555   2.218
11893TIP3    H135624   6.032   0.572   2.262
11893TIP3    H235625   5.911   0.482   2.267
11894TIP3   OH235626   5.411   1.737   5.322
11894TIP3    H135627   5.330   1.687   5.310
11894TIP3    H235628   5.473   1.675   5.358
11895TIP3   OH235629   3.336   6.933   5.801
11895TIP3    H135630   3.280   6.857   5.783
11895TIP3    H235631   3.324   6.950   5.895
11896TIP3   OH235632   5.218   3.976   1.869
11896TIP3    H135633   5.262   4.053   1.905
11896TIP3    H235634   5.278   3.904   1.887
11897TIP3   OH235635   7.470   1.804   5.361
11897TIP3    H135636   7.462   1.857   5.282
11897TIP3    H235637   7.380   1.782   5.385
11898TIP3   OH235638   7.487   0.088   1.861
11898TIP3    H135639   7.434   0.083   1.940
11898TIP3    H235640   7.449   0.161   1.811
11899TIP3   OH235641   3.569   6.979   6.119
11899TIP3    H135642   3.504   6.993   6.050
11899TIP3    H235643   3.523   6.928   6.185
11900TIP3   OH235644   2.886   1.846   4.720
11900TIP3    H135645   2.865   1.784   4.790
11900TIP3    H235646   2.906   1.791   4.645
11901TIP3   OH235647   1.198   4.050   3.906
11901TIP3    H135648   1.161   4.131   3.939
11901TIP3    H235649   1.197   3.991   3.981
11902TIP3   OH235650   5.677   3.018   0.951
11902TIP3    H135651   5.637   2.970   0.879
11902TIP3    H235652   5.663   3.110   0.931
11903TIP3   OH235653   5.535   4.162   5.972
11903TIP3    H135654   5.488   4.129   5.896
11903TIP3    H235655   5.548   4.085   6.028
11904TIP3   OH235656   8.055   4.382   4.891
11904TIP3    H135657   8.041   4.397   4.797
11904TIP3    H235658   8.018   4.459   4.933
11905TIP3   OH235659   4.533   7.079   3.567
11905TIP3    H135660   4.514   7.046   3.655
11905TIP3    H235661   4.483   7.023   3.508
11906TIP3   OH235662   1.563   2.530   5.669
11906TIP3    H135663   1.508   2.477   5.727
11906TIP3    H235664   1.511   2.609   5.653
11907TIP3   OH235665   6.765   5.697   3.316
11907TIP3    H135666   6.694   5.635   3.304
11907TIP3    H235667   6.811   5.697   3.232
11908TIP3   OH235668   4.373   0.350   5.783
11908TIP3    H135669   4.280   0.327   5.787
11908TIP3    H235670   4.389   0.397   5.865
11909TIP3   OH235671   4.852   0.637   5.458
11909TIP3    H135672   4.919   0.581   5.419
11909TIP3    H235673   4.792   0.657   5.386
11910TIP3   OH235674   5.651   5.635   0.822
11910TIP3    H135675   5.678   5.561   0.767
11910TIP3    H235676   5.655   5.602   0.911
11911TIP3   OH235677   3.906   4.853   3.485
11911TIP3    H135678   3.883   4.911   3.557
11911TIP3    H235679   3.851   4.776   3.498
11912TIP3   OH235680   4.559   5.060   0.607
11912TIP3    H135681   4.545   5.106   0.690
11912TIP3    H235682   4.612   5.120   0.555
11913TIP3   OH235683   7.333   6.868   6.508
11913TIP3    H135684   7.264   6.885   6.444
11913TIP3    H235685   7.293   6.807   6.570
11914TIP3   OH235686   7.602   5.812   2.867
11914TIP3    H135687   7.688   5.828   2.904
11914TIP3    H235688   7.618   5.793   2.774
11915TIP3   OH235689   8.191   3.052   1.154
11915TIP3    H135690   8.112   3.059   1.207
11915TIP3    H235691   8.227   3.141   1.152
11916TIP3   OH235692   1.754   6.881   4.242
11916TIP3    H135693   1.783   6.967   4.274
11916TIP3    H235694   1.689   6.902   4.175
11917TIP3   OH235695   0.713   3.635   1.113
11917TIP3    H135696   0.619   3.617   1.102
11917TIP3    H235697   0.727   3.718   1.068
11918TIP3   OH235698   6.548   5.451   2.573
11918TIP3    H135699   6.514   5.490   2.653
11918TIP3    H235700   6.561   5.359   2.594
11919TIP3   OH235701   1.149   6.569   2.858
11919TIP3    H135702   1.194   6.640   2.812
11919TIP3    H235703   1.213   6.538   2.922
11920TIP3   OH235704   7.437   3.367   1.296
11920TIP3    H135705   7.489   3.420   1.356
11920TIP3    H235706   7.500   3.334   1.232
11921TIP3   OH235707   4.013   4.403   0.811
11921TIP3    H135708   3.955   4.382   0.884
11921TIP3    H235709   4.075   4.466   0.847
11922TIP3   OH235710   2.803   4.787   1.592
11922TIP3    H135711   2.892   4.753   1.593
11922TIP3    H235712   2.768   4.758   1.507
11923TIP3   OH235713   1.886   5.049   3.385
11923TIP3    H135714   1.869   4.996   3.463
11923TIP3    H235715   1.816   5.025   3.324
11924TIP3   OH235716   0.301   3.313   5.738
11924TIP3    H135717   0.225   3.294   5.683
11924TIP3    H235718   0.277   3.278   5.824
11925TIP3   OH235719   6.134   0.080   6.093
11925TIP3    H135720   6.202   0.033   6.046
11925TIP3    H235721   6.060   0.082   6.032
11926TIP3   OH235722   2.813   0.396   5.054
11926TIP3    H135723   2.813   0.395   5.149
11926TIP3    H235724   2.852   0.312   5.029
11927TIP3   OH235725   0.665   4.488   1.361
11927TIP3    H135726   0.667   4.452   1.272
11927TIP3    H235727   0.753   4.472   1.395
11928TIP3   OH235728   7.387   2.069   0.835
11928TIP3    H135729   7.396   2.159   0.868
11928TIP3    H235730   7.370   2.017   0.914
11929TIP3   OH235731   4.268   0.434   2.702
11929TIP3    H135732   4.228   0.394   2.625
11929TIP3    H235733   4.229   0.388   2.776
11930TIP3   OH235734   2.389   0.165   1.238
11930TIP3    H135735   2.303   0.178   1.278
11930TIP3    H235736   2.372   0.108   1.163
11931TIP3   OH235737   2.844   6.611   5.055
11931TIP3    H135738   2.832   6.618   4.960
11931TIP3    H235739   2.939   6.617   5.067
11932TIP3   OH235740   2.484   1.034   4.298
11932TIP3    H135741   2.565   1.082   4.278
11932TIP3    H235742   2.421   1.102   4.319
11933TIP3   OH235743   3.786   0.549   1.263
11933TIP3    H135744   3.872   0.546   1.305
11933TIP3    H235745   3.772   0.461   1.229
11934TIP3   OH235746   0.264   0.357   4.237
11934TIP3    H135747   0.306   0.409   4.306
11934TIP3    H235748   0.298   0.393   4.155
11935TIP3   OH235749   7.133   4.678   6.211
11935TIP3    H135750   7.064   4.611   6.218
11935TIP3    H235751   7.096   4.755   6.253
11936TIP3   OH235752   5.720   6.715   5.088
11936TIP3    H135753   5.661   6.716   5.013
11936TIP3    H235754   5.794   6.770   5.062
11937TIP3   OH235755   3.350   7.431   4.164
11937TIP3    H135756   3.314   7.519   4.160
11937TIP3    H235757   3.274   7.374   4.177
11938TIP3   OH235758   7.399   5.039   0.483
11938TIP3    H135759   7.357   4.988   0.552
11938TIP3    H235760   7.493   5.028   0.498
11939TIP3   OH235761   4.033   3.716   6.608
11939TIP3    H135762   4.074   3.669   6.535
11939TIP3    H235763   4.087   3.795   6.618
11940TIP3   OH235764   0.901   6.710   5.453
11940TIP3    H135765   0.966   6.641   5.440
11940TIP3    H235766   0.832   6.690   5.389
11941TIP3   OH235767   6.752   1.897   6.427
11941TIP3    H135768   6.772   1.804   6.439
11941TIP3    H235769   6.692   1.918   6.499
11942TIP3   OH235770   4.038   4.902   1.375
11942TIP3    H135771   4.019   4.933   1.287
11942TIP3    H235772   4.035   4.981   1.429
11943TIP3   OH235773   2.095   6.126   4.872
11943TIP3    H135774   2.167   6.127   4.808
11943TIP3    H235775   2.016   6.139   4.819
11944TIP3   OH235776   1.161   3.580   1.894
11944TIP3    H135777   1.169   3.491   1.861
11944TIP3    H235778   1.078   3.612   1.858
11945TIP3   OH235779   5.255   4.086   2.455
11945TIP3    H135780   5.279   4.033   2.379
11945TIP3    H235781   5.332   4.082   2.512
11946TIP3   OH235782   2.530   1.215   5.859
11946TIP3    H135783   2.468   1.168   5.803
11946TIP3    H235784   2.610   1.221   5.807
11947TIP3   OH235785   6.066   1.654   0.580
11947TIP3    H135786   6.077   1.646   0.675
11947TIP3    H235787   6.042   1.566   0.551
11948TIP3   OH235788   0.629   3.673   2.766
11948TIP3    H135789   0.541   3.673   2.728
11948TIP3    H235790   0.615   3.677   2.860
11949TIP3   OH235791   3.504   3.782   6.379
11949TIP3    H135792   3.526   3.871   6.352
11949TIP3    H235793   3.409   3.778   6.374
11950TIP3   OH235794   6.550   7.355   5.414
11950TIP3    H135795   6.625   7.319   5.368
11950TIP3    H235796   6.484   7.285   5.412
11951TIP3   OH235797   1.585   3.068   2.647
11951TIP3    H135798   1.565   2.974   2.648
11951TIP3    H235799   1.679   3.072   2.627
11952TIP3   OH235800   5.229   3.522   1.477
11952TIP3    H135801   5.204   3.537   1.569
11952TIP3    H235802   5.266   3.433   1.477
11953TIP3   OH235803   7.352   1.964   4.321
11953TIP3    H135804   7.443   1.969   4.348
11953TIP3    H235805   7.343   2.029   4.251
11954TIP3   OH235806   8.006   7.600   0.012
11954TIP3    H135807   8.054   7.519  -0.005
11954TIP3    H235808   8.075   7.667   0.021
11955TIP3   OH235809   2.234   5.859   3.866
11955TIP3    H135810   2.162   5.827   3.810
11955TIP3    H235811   2.209   5.832   3.954
11956TIP3   OH235812   8.208   4.522   2.965
11956TIP3    H135813   8.197   4.607   3.008
11956TIP3    H235814   8.130   4.473   2.988
11957TIP3   OH235815   4.345   0.488   3.635
11957TIP3    H135816   4.422   0.452   3.590
11957TIP3    H235817   4.380   0.555   3.693
11958TIP3   OH235818   0.241   7.801   3.625
11958TIP3    H135819   0.317   7.799   3.683
11958TIP3    H235820   0.187   7.872   3.659
11959TIP3   OH235821   6.322   2.679   2.281
11959TIP3    H135822   6.411   2.692   2.316
11959TIP3    H235823   6.330   2.599   2.229
11960TIP3   OH235824   7.926   7.063   4.530
11960TIP3    H135825   8.020   7.054   4.517
11960TIP3    H235826   7.890   7.065   4.441
11961TIP3   OH235827   3.158   6.267   1.763
11961TIP3    H135828   3.223   6.208   1.724
11961TIP3    H235829   3.208   6.317   1.828
11962TIP3   OH235830   7.163   0.264   0.450
11962TIP3    H135831   7.255   0.249   0.473
11962TIP3    H235832   7.144   0.197   0.384
11963TIP3   OH235833   2.621   5.750   3.541
11963TIP3    H135834   2.693   5.745   3.604
11963TIP3    H235835   2.547   5.782   3.593
11964TIP3   OH235836   1.472   3.253   3.923
11964TIP3    H135837   1.472   3.279   3.831
11964TIP3    H235838   1.413   3.314   3.965
11965TIP3   OH235839   1.266   3.342   1.530
11965TIP3    H135840   1.320   3.263   1.536
11965TIP3    H235841   1.324   3.409   1.495
11966TIP3   OH235842   7.664   1.443   4.210
11966TIP3    H135843   7.643   1.536   4.219
11966TIP3    H235844   7.656   1.425   4.116
11967TIP3   OH235845   7.083   1.239   5.562
11967TIP3    H135846   7.054   1.328   5.539
11967TIP3    H235847   7.178   1.242   5.554
11968TIP3   OH235848   3.771   7.194   0.655
11968TIP3    H135849   3.730   7.153   0.579
11968TIP3    H235850   3.829   7.127   0.690
11969TIP3   OH235851   1.930   1.353   0.561
11969TIP3    H135852   1.962   1.295   0.492
11969TIP3    H235853   1.867   1.300   0.610
11970TIP3   OH235854   0.207   6.294   0.265
11970TIP3    H135855   0.141   6.364   0.268
11970TIP3    H235856   0.166   6.225   0.212
11971TIP3   OH235857   5.685   0.752   1.294
11971TIP3    H135858   5.707   0.833   1.250
11971TIP3    H235859   5.614   0.715   1.242
11972TIP3   OH235860   4.567   5.366   4.221
11972TIP3    H135861   4.584   5.273   4.237
11972TIP3    H235862   4.526   5.396   4.302
11973TIP3   OH235863   0.921   0.184   5.721
11973TIP3    H135864   0.898   0.178   5.628
11973TIP3    H235865   1.009   0.224   5.721
11974TIP3   OH235866   5.556   7.296   3.198
11974TIP3    H135867   5.559   7.302   3.293
11974TIP3    H235868   5.484   7.235   3.180
11975TIP3   OH235869   3.517   6.953   0.928
11975TIP3    H135870   3.466   7.024   0.966
11975TIP3    H235871   3.536   6.895   1.002
11976TIP3   OH235872   5.263   4.450   2.312
11976TIP3    H135873   5.299   4.532   2.277
11976TIP3    H235874   5.338   4.392   2.321
11977TIP3   OH235875   1.198   6.043   2.052
11977TIP3    H135876   1.281   6.088   2.070
11977TIP3    H235877   1.153   6.100   1.989
11978TIP3   OH235878   7.272   2.710   1.776
11978TIP3    H135879   7.252   2.623   1.810
11978TIP3    H235880   7.276   2.698   1.681
11979TIP3   OH235881   2.037   5.452   2.290
11979TIP3    H135882   1.996   5.386   2.345
11979TIP3    H235883   2.119   5.412   2.261
11980TIP3   OH235884   1.475   5.783   4.243
11980TIP3    H135885   1.525   5.713   4.203
11980TIP3    H235886   1.458   5.845   4.172
11981TIP3   OH235887   5.562   1.223   3.236
11981TIP3    H135888   5.480   1.270   3.251
11981TIP3    H235889   5.590   1.251   3.149
11982TIP3   OH235890   4.032   0.929   0.694
11982TIP3    H135891   4.123   0.910   0.715
11982TIP3    H235892   4.015   0.881   0.613
11983TIP3   OH235893   1.353   3.861   5.682
11983TIP3    H135894   1.276   3.907   5.649
11983TIP3    H235895   1.361   3.889   5.773
11984TIP3   OH235896   7.724   3.031   5.474
11984TIP3    H135897   7.678   2.989   5.547
11984TIP3    H235898   7.728   3.123   5.499
11985TIP3   OH235899   2.694   1.217   6.643
11985TIP3    H135900   2.696   1.286   6.577
11985TIP3    H235901   2.725   1.260   6.723
11986TIP3   OH235902   5.974   6.267   0.346
11986TIP3    H135903   6.032   6.194   0.323
11986TIP3    H235904   5.897   6.255   0.290
11987TIP3   OH235905   8.041   6.379   6.638
11987TIP3    H135906   8.014   6.471   6.637
11987TIP3    H235907   7.964   6.331   6.607
11988TIP3   OH235908   4.361   5.834   6.671
11988TIP3    H135909   4.368   5.857   6.578
11988TIP3    H235910   4.449   5.846   6.706
11989TIP3   OH235911   5.008   5.601   0.667
11989TIP3    H135912   4.990   5.594   0.761
11989TIP3    H235913   5.046   5.515   0.644
11990TIP3   OH235914   5.836   0.936   2.220
11990TIP3    H135915   5.830   0.903   2.130
11990TIP3    H235916   5.765   1.000   2.226
11991TIP3   OH235917   7.148   6.241   4.838
11991TIP3    H135918   7.240   6.231   4.815
11991TIP3    H235919   7.115   6.307   4.778
11992TIP3   OH235920   7.851   6.587   0.545
11992TIP3    H135921   7.847   6.680   0.563
11992TIP3    H235922   7.761   6.556   0.554
11993TIP3   OH235923   6.466   6.029   5.631
11993TIP3    H135924   6.472   6.034   5.536
11993TIP3    H235925   6.525   5.958   5.656
11994TIP3   OH235926   8.232   4.063   6.774
11994TIP3    H135927   8.178   4.011   6.715
11994TIP3    H235928   8.321   4.031   6.760
11995TIP3   OH235929   3.590   4.189   2.966
11995TIP3    H135930   3.664   4.248   2.979
11995TIP3    H235931   3.615   4.137   2.889
11996TIP3   OH235932   4.184   2.629   6.740
11996TIP3    H135933   4.140   2.705   6.703
11996TIP3    H235934   4.225   2.586   6.666
11997TIP3   OH235935   8.054   5.994   5.914
11997TIP3    H135936   8.112   6.047   5.969
11997TIP3    H235937   7.970   5.993   5.960
11998TIP3   OH235938   5.432   4.614   4.436
11998TIP3    H135939   5.362   4.549   4.429
11998TIP3    H235940   5.436   4.637   4.528
11999TIP3   OH235941   8.179   7.132   3.830
11999TIP3    H135942   8.237   7.079   3.776
11999TIP3    H235943   8.172   7.082   3.912
12000TIP3   OH235944   3.197   2.820   0.729
12000TIP3    H135945   3.132   2.842   0.796
12000TIP3    H235946   3.184   2.727   0.713
12001TIP3   OH235947   2.639   4.310   4.348
12001TIP3    H135948   2.693   4.352   4.416
12001TIP3    H235949   2.690   4.234   4.321
12002TIP3   OH235950   4.078   0.360   0.304
12002TIP3    H135951   3.983   0.351   0.301
12002TIP3    H235952   4.109   0.321   0.223
12003TIP3   OH235953   8.176   0.740   2.658
12003TIP3    H135954   8.123   0.762   2.734
12003TIP3    H235955   8.164   0.813   2.598
12004TIP3   OH235956   0.919   7.042   3.731
12004TIP3    H135957   0.908   7.103   3.803
12004TIP3    H235958   0.953   6.962   3.772
12005TIP3   OH235959   5.347   1.389   4.635
12005TIP3    H135960   5.303   1.304   4.627
12005TIP3    H235961   5.412   1.376   4.704
12006TIP3   OH235962   3.069   5.007   6.819
12006TIP3    H135963   3.089   4.914   6.830
12006TIP3    H235964   3.096   5.027   6.730
12007TIP3   OH235965   6.833   4.374   1.931
12007TIP3    H135966   6.839   4.459   1.887
12007TIP3    H235967   6.924   4.347   1.943
12008TIP3   OH235968   2.653   7.328   0.664
12008TIP3    H135969   2.729   7.375   0.628
12008TIP3    H235970   2.654   7.349   0.757
12009TIP3   OH235971   4.794   6.721   4.640
12009TIP3    H135972   4.710   6.678   4.624
12009TIP3    H235973   4.779   6.813   4.618
12010TIP3   OH235974   0.678   1.111   3.697
12010TIP3    H135975   0.630   1.193   3.706
12010TIP3    H235976   0.732   1.106   3.776
12011TIP3   OH235977   8.020   2.877   4.532
12011TIP3    H135978   7.974   2.796   4.554
12011TIP3    H235979   7.996   2.894   4.440
12012TIP3   OH235980   3.650   1.299   3.175
12012TIP3    H135981   3.682   1.295   3.085
12012TIP3    H235982   3.652   1.209   3.206
12013TIP3   OH235983   0.844   3.313   1.595
12013TIP3    H135984   0.771   3.354   1.640
12013TIP3    H235985   0.919   3.327   1.653
12014TIP3   OH235986   3.052   0.142   3.301
12014TIP3    H135987   3.040   0.235   3.323
12014TIP3    H235988   2.968   0.102   3.322
12015TIP3   OH235989   1.299   2.644   2.580
12015TIP3    H135990   1.208   2.615   2.584
12015TIP3    H235991   1.343   2.595   2.649
12016TIP3   OH235992   6.590   6.668   4.880
12016TIP3    H135993   6.557   6.661   4.970
12016TIP3    H235994   6.665   6.608   4.878
12017TIP3   OH235995   1.127   4.534   1.508
12017TIP3    H135996   1.136   4.629   1.502
12017TIP3    H235997   1.149   4.502   1.421
12018TIP3   OH235998   0.655   1.895   1.355
12018TIP3    H135999   0.660   1.934   1.267
12018TIP3    H236000   0.706   1.954   1.410
12019TIP3   OH236001   3.442   2.708   3.370
12019TIP3    H136002   3.391   2.653   3.310
12019TIP3    H236003   3.422   2.674   3.457
12020TIP3   OH236004   3.662   1.320   3.787
12020TIP3    H136005   3.593   1.326   3.721
12020TIP3    H236006   3.701   1.407   3.789
12021TIP3   OH236007   2.301   7.416   4.087
12021TIP3    H136008   2.285   7.510   4.081
12021TIP3    H236009   2.255   7.378   4.012
12022TIP3   OH236010   8.162   3.487   1.397
12022TIP3    H136011   8.147   3.463   1.306
12022TIP3    H236012   8.256   3.507   1.402
12023TIP3   OH236013   5.491   2.149   0.499
12023TIP3    H136014   5.523   2.155   0.589
12023TIP3    H236015   5.477   2.239   0.472
12024TIP3   OH236016   5.152   4.782   3.942
12024TIP3    H136017   5.231   4.800   3.992
12024TIP3    H236018   5.142   4.859   3.886
12025TIP3   OH236019   4.261   5.544   4.159
12025TIP3    H136020   4.324   5.613   4.180
12025TIP3    H236021   4.273   5.529   4.065
12026TIP3   OH236022   2.106   2.202   0.852
12026TIP3    H136023   2.081   2.227   0.941
12026TIP3    H236024   2.128   2.109   0.859
12027TIP3   OH236025   0.829   0.859   4.139
12027TIP3    H136026   0.832   0.867   4.234
12027TIP3    H236027   0.827   0.950   4.107
12028TIP3   OH236028   7.780   2.078   2.495
12028TIP3    H136029   7.865   2.122   2.487
12028TIP3    H236030   7.724   2.124   2.432
12029TIP3   OH236031   1.563   7.063   4.654
12029TIP3    H136032   1.538   7.146   4.696
12029TIP3    H236033   1.566   7.000   4.726
12030TIP3   OH236034   5.520   4.273   0.492
12030TIP3    H136035   5.499   4.224   0.571
12030TIP3    H236036   5.560   4.354   0.524
12031TIP3   OH236037   4.343   4.992   5.423
12031TIP3    H136038   4.380   5.043   5.351
12031TIP3    H236039   4.357   5.046   5.501
12032TIP3   OH236040   7.982   5.114   3.150
12032TIP3    H136041   8.035   5.036   3.132
12032TIP3    H236042   7.936   5.131   3.067
12033TIP3   OH236043   3.040   0.105   4.347
12033TIP3    H136044   3.023   0.030   4.290
12033TIP3    H236045   2.979   0.093   4.421
12034TIP3   OH236046   1.653   3.207   4.191
12034TIP3    H136047   1.572   3.253   4.170
12034TIP3    H236048   1.652   3.128   4.137
12035TIP3   OH236049   0.251   2.613   2.954
12035TIP3    H136050   0.248   2.692   2.900
12035TIP3    H236051   0.345   2.595   2.965
12036TIP3   OH236052   5.572   5.490   2.285
12036TIP3    H136053   5.558   5.418   2.224
12036TIP3    H236054   5.662   5.479   2.316
12037TIP3   OH236055   4.371   6.315   4.103
12037TIP3    H136056   4.445   6.304   4.043
12037TIP3    H236057   4.354   6.227   4.136
12038TIP3   OH236058   4.549   6.055   5.094
12038TIP3    H136059   4.474   6.077   5.149
12038TIP3    H236060   4.558   6.128   5.033
12039TIP3   OH236061   6.073   2.685   3.997
12039TIP3    H136062   6.086   2.603   3.949
12039TIP3    H236063   5.997   2.668   4.054
12040TIP3   OH236064   7.219   6.675   3.100
12040TIP3    H136065   7.150   6.649   3.039
12040TIP3    H236066   7.175   6.729   3.165
12041TIP3   OH236067   0.312   2.369   4.848
12041TIP3    H136068   0.305   2.389   4.754
12041TIP3    H236069   0.315   2.274   4.852
12042TIP3   OH236070   2.128   6.220   5.899
12042TIP3    H136071   2.188   6.222   5.973
12042TIP3    H236072   2.185   6.213   5.822
12043TIP3   OH236073   6.110   0.041   3.086
12043TIP3    H136074   6.103   0.069   2.995
12043TIP3    H236075   6.020   0.037   3.117
12044TIP3   OH236076   8.291   1.325   3.296
12044TIP3    H136077   8.206   1.303   3.257
12044TIP3    H236078   8.319   1.404   3.250
12045TIP3   OH236079   1.012   5.643   2.612
12045TIP3    H136080   1.037   5.590   2.688
12045TIP3    H236081   1.080   5.626   2.548
12046TIP3   OH236082   6.554   0.867   3.923
12046TIP3    H136083   6.581   0.792   3.870
12046TIP3    H236084   6.459   0.863   3.925
12047TIP3   OH236085   7.140   2.871   3.767
12047TIP3    H136086   7.102   2.825   3.693
12047TIP3    H236087   7.072   2.869   3.834
12048TIP3   OH236088   8.158   5.503   1.206
12048TIP3    H136089   8.159   5.504   1.302
12048TIP3    H236090   8.247   5.482   1.180
12049TIP3   OH236091   6.755   7.187   5.286
12049TIP3    H136092   6.840   7.174   5.246
12049TIP3    H236093   6.741   7.108   5.338
12050TIP3   OH236094   6.043   1.551   6.328
12050TIP3    H136095   6.109   1.597   6.379
12050TIP3    H236096   5.986   1.620   6.294
12051TIP3   OH236097   3.372   6.328   2.347
12051TIP3    H136098   3.383   6.423   2.354
12051TIP3    H236099   3.283   6.312   2.377
12052TIP3   OH236100   4.701   3.922   0.378
12052TIP3    H136101   4.785   3.893   0.342
12052TIP3    H236102   4.698   4.016   0.358
12053TIP3   OH236103   1.768   4.819   6.288
12053TIP3    H136104   1.672   4.817   6.288
12053TIP3    H236105   1.791   4.909   6.265
12054TIP3   OH236106   0.539   3.062   4.440
12054TIP3    H136107   0.582   3.127   4.384
12054TIP3    H236108   0.591   2.983   4.430
12055TIP3   OH236109   5.330   5.152   4.508
12055TIP3    H136110   5.384   5.201   4.570
12055TIP3    H236111   5.250   5.133   4.557
12056TIP3   OH236112   4.031   7.518   5.987
12056TIP3    H136113   4.073   7.604   5.992
12056TIP3    H236114   4.102   7.456   6.000
12057TIP3   OH236115   7.672   2.922   5.738
12057TIP3    H136116   7.691   2.828   5.729
12057TIP3    H236117   7.596   2.926   5.796
12058TIP3   OH236118   0.624   5.667   0.178
12058TIP3    H136119   0.638   5.754   0.140
12058TIP3    H236120   0.540   5.638   0.142
12059TIP3   OH236121   1.141   0.601   5.849
12059TIP3    H136122   1.127   0.602   5.944
12059TIP3    H236123   1.197   0.525   5.834
12060TIP3   OH236124   5.868   4.904   1.845
12060TIP3    H136125   5.939   4.963   1.817
12060TIP3    H236126   5.877   4.827   1.788
12061TIP3   OH236127   1.503   0.786   5.763
12061TIP3    H136128   1.493   0.732   5.841
12061TIP3    H236129   1.596   0.807   5.759
12062TIP3   OH236130   3.479   2.019   4.508
12062TIP3    H136131   3.537   2.095   4.515
12062TIP3    H236132   3.413   2.045   4.443
12063TIP3   OH236133   6.730   0.559   5.272
12063TIP3    H136134   6.741   0.608   5.190
12063TIP3    H236135   6.683   0.480   5.246
12064TIP3   OH236136   7.571   3.040   3.271
12064TIP3    H136137   7.622   3.092   3.209
12064TIP3    H236138   7.585   3.083   3.355
12065TIP3   OH236139   5.464   6.439   4.006
12065TIP3    H136140   5.466   6.407   4.096
12065TIP3    H236141   5.555   6.462   3.987
12066TIP3   OH236142   7.759   3.374   6.620
12066TIP3    H136143   7.755   3.387   6.715
12066TIP3    H236144   7.842   3.329   6.605
12067TIP3   OH236145   3.381   3.712   5.952
12067TIP3    H136146   3.423   3.798   5.954
12067TIP3    H236147   3.449   3.653   5.920
12068TIP3   OH236148   2.246   4.650   5.295
12068TIP3    H136149   2.321   4.694   5.335
12068TIP3    H236150   2.285   4.591   5.230
12069TIP3   OH236151   2.986   6.879   6.411
12069TIP3    H136152   2.939   6.882   6.494
12069TIP3    H236153   3.061   6.823   6.428
12070TIP3   OH236154   5.884   6.097   4.032
12070TIP3    H136155   5.975   6.122   4.047
12070TIP3    H236156   5.854   6.156   3.962
12071TIP3   OH236157   0.692   7.648   4.148
12071TIP3    H136158   0.647   7.682   4.226
12071TIP3    H236159   0.684   7.553   4.156
12072TIP3   OH236160   7.970   5.761   0.119
12072TIP3    H136161   8.011   5.826   0.061
12072TIP3    H236162   7.877   5.786   0.120
12073TIP3   OH236163   3.708   4.846   1.306
12073TIP3    H136164   3.648   4.918   1.325
12073TIP3    H236165   3.652   4.777   1.271
12074TIP3   OH236166   3.961   6.168   0.853
12074TIP3    H136167   3.992   6.100   0.913
12074TIP3    H236168   4.013   6.245   0.876
12075TIP3   OH236169   3.016   3.549   5.197
12075TIP3    H136170   2.953   3.541   5.268
12075TIP3    H236171   3.020   3.643   5.178
12076TIP3   OH236172   6.158   0.280   0.911
12076TIP3    H136173   6.105   0.306   0.835
12076TIP3    H236174   6.116   0.322   0.986
12077TIP3   OH236175   5.145   2.375   1.319
12077TIP3    H136176   5.137   2.470   1.333
12077TIP3    H236177   5.178   2.341   1.401
12078TIP3   OH236178   6.107   5.654   4.777
12078TIP3    H136179   6.094   5.664   4.871
12078TIP3    H236180   6.018   5.653   4.741
12079TIP3   OH236181   7.386   3.261   4.970
12079TIP3    H136182   7.437   3.215   5.036
12079TIP3    H236183   7.449   3.279   4.899
12080TIP3   OH236184   4.923   6.979   3.021
12080TIP3    H136185   5.002   6.941   2.982
12080TIP3    H236186   4.933   6.962   3.115
12081TIP3   OH236187   1.149   6.008   0.857
12081TIP3    H136188   1.096   5.929   0.867
12081TIP3    H236189   1.146   6.050   0.943
12082TIP3   OH236190   1.707   3.786   2.927
12082TIP3    H136191   1.745   3.704   2.895
12082TIP3    H236192   1.773   3.853   2.906
12083TIP3   OH236193   6.534   2.218   1.690
12083TIP3    H136194   6.622   2.181   1.686
12083TIP3    H236195   6.519   2.233   1.784
12084TIP3   OH236196   2.276   3.995   4.331
12084TIP3    H136197   2.310   4.083   4.347
12084TIP3    H236198   2.353   3.938   4.340
12085TIP3   OH236199   3.874   2.039   6.105
12085TIP3    H136200   3.938   1.992   6.052
12085TIP3    H236201   3.790   2.025   6.060
12086TIP3   OH236202   2.184   4.370   5.561
12086TIP3    H136203   2.233   4.357   5.480
12086TIP3    H236204   2.108   4.423   5.535
12087TIP3   OH236205   4.964   1.740   5.817
12087TIP3    H136206   5.057   1.754   5.830
12087TIP3    H236207   4.939   1.678   5.886
12088TIP3   OH236208   5.962   3.592   0.867
12088TIP3    H136209   6.049   3.629   0.848
12088TIP3    H236210   5.978   3.498   0.879
12089TIP3   OH236211   7.360   4.464   3.006
12089TIP3    H136212   7.379   4.539   3.063
12089TIP3    H236213   7.351   4.501   2.919
12090TIP3   OH236214   6.727   1.483   1.583
12090TIP3    H136215   6.675   1.513   1.657
12090TIP3    H236216   6.782   1.413   1.620
12091TIP3   OH236217   2.290   3.492   6.410
12091TIP3    H136218   2.262   3.406   6.377
12091TIP3    H236219   2.367   3.513   6.358
12092TIP3   OH236220   2.541   1.290   0.819
12092TIP3    H136221   2.566   1.380   0.837
12092TIP3    H236222   2.622   1.240   0.827
12093TIP3   OH236223   0.206   1.643   4.086
12093TIP3    H136224   0.197   1.695   4.006
12093TIP3    H236225   0.276   1.581   4.067
12094TIP3   OH236226   4.548   6.869   4.426
12094TIP3    H136227   4.513   6.918   4.352
12094TIP3    H236228   4.572   6.784   4.390
12095TIP3   OH236229   1.391   2.412   3.905
12095TIP3    H136230   1.344   2.361   3.970
12095TIP3    H236231   1.327   2.476   3.874
12096TIP3   OH236232   3.359   5.486   0.068
12096TIP3    H136233   3.408   5.441   0.138
12096TIP3    H236234   3.356   5.422  -0.003
12097TIP3   OH236235   2.514   6.047   3.386
12097TIP3    H136236   2.544   6.054   3.476
12097TIP3    H236237   2.557   6.119   3.340
12098TIP3   OH236238   5.576   2.258   6.681
12098TIP3    H136239   5.549   2.275   6.771
12098TIP3    H236240   5.662   2.298   6.673
12099TIP3   OH236241   1.335   0.240   0.171
12099TIP3    H136242   1.271   0.287   0.224
12099TIP3    H236243   1.296   0.238   0.083
12100TIP3   OH236244   7.363   4.332   5.511
12100TIP3    H136245   7.275   4.353   5.542
12100TIP3    H236246   7.395   4.413   5.473
12101TIP3   OH236247   7.732   0.909   5.449
12101TIP3    H136248   7.641   0.904   5.419
12101TIP3    H236249   7.782   0.926   5.369
12102TIP3   OH236250   1.185   7.394   2.798
12102TIP3    H136251   1.155   7.375   2.709
12102TIP3    H236252   1.141   7.329   2.852
12103TIP3   OH236253   0.829   3.224   0.803
12103TIP3    H136254   0.825   3.290   0.872
12103TIP3    H236255   0.775   3.152   0.835
12104TIP3   OH236256   3.026   4.967   6.557
12104TIP3    H136257   3.097   5.000   6.502
12104TIP3    H236258   2.954   5.029   6.544
12105TIP3   OH236259   6.683   2.515   1.641
12105TIP3    H136260   6.758   2.538   1.586
12105TIP3    H236261   6.679   2.419   1.637
12106TIP3   OH236262   8.037   6.653   4.866
12106TIP3    H136263   8.008   6.729   4.815
12106TIP3    H236264   8.014   6.577   4.811
12107TIP3   OH236265   1.237   2.340   0.718
12107TIP3    H136266   1.281   2.257   0.699
12107TIP3    H236267   1.297   2.407   0.684
12108TIP3   OH236268   3.150   5.391   2.959
12108TIP3    H136269   3.205   5.469   2.957
12108TIP3    H236270   3.075   5.414   2.903
12109TIP3   OH236271   7.271   2.044   1.823
12109TIP3    H136272   7.226   2.083   1.898
12109TIP3    H236273   7.238   1.953   1.820
12110TIP3   OH236274   1.946   3.204   5.410
12110TIP3    H136275   2.016   3.199   5.345
12110TIP3    H236276   1.878   3.257   5.369
12111TIP3   OH236277   3.251   6.465   6.753
12111TIP3    H136278   3.176   6.521   6.730
12111TIP3    H236279   3.301   6.517   6.816
12112TIP3   OH236280   4.610   7.690   1.692
12112TIP3    H136281   4.635   7.731   1.775
12112TIP3    H236282   4.611   7.762   1.628
12113TIP3   OH236283   6.067   7.227   2.926
12113TIP3    H136284   6.097   7.316   2.942
12113TIP3    H236285   6.041   7.228   2.834
12114TIP3   OH236286   7.491   7.392   1.194
12114TIP3    H136287   7.409   7.351   1.167
12114TIP3    H236288   7.558   7.329   1.169
12115TIP3   OH236289   0.298   3.708   3.738
12115TIP3    H136290   0.338   3.622   3.722
12115TIP3    H236291   0.225   3.690   3.798
12116TIP3   OH236292   2.398   6.396   1.374
12116TIP3    H136293   2.327   6.454   1.346
12116TIP3    H236294   2.404   6.408   1.468
12117TIP3   OH236295   7.714   1.827   5.660
12117TIP3    H136296   7.753   1.739   5.662
12117TIP3    H236297   7.624   1.814   5.690
12118TIP3   OH236298   4.232   0.685   1.196
12118TIP3    H136299   4.204   0.749   1.131
12118TIP3    H236300   4.309   0.725   1.237
12119TIP3   OH236301   4.417   2.299   6.160
12119TIP3    H136302   4.381   2.253   6.085
12119TIP3    H236303   4.419   2.391   6.134
12120TIP3   OH236304   6.031   1.540   1.235
12120TIP3    H136305   6.102   1.526   1.172
12120TIP3    H236306   6.063   1.608   1.294
12121TIP3   OH236307   5.851   2.132   3.948
12121TIP3    H136308   5.788   2.188   3.995
12121TIP3    H236309   5.934   2.146   3.993
12122TIP3   OH236310   0.537   7.142   4.091
12122TIP3    H136311   0.618   7.093   4.104
12122TIP3    H236312   0.489   7.132   4.173
12123TIP3   OH236313   1.977   2.771   2.589
12123TIP3    H136314   2.042   2.770   2.519
12123TIP3    H236315   1.913   2.704   2.564
12124TIP3   OH236316   7.599   2.811   2.179
12124TIP3    H136317   7.537   2.825   2.250
12124TIP3    H236318   7.546   2.815   2.099
12125TIP3   OH236319   5.635   0.803   3.607
12125TIP3    H136320   5.677   0.720   3.630
12125TIP3    H236321   5.687   0.836   3.533
12126TIP3   OH236322   4.327   0.966   5.600
12126TIP3    H136323   4.380   0.913   5.659
12126TIP3    H236324   4.304   0.906   5.529
12127TIP3   OH236325   2.048   3.795   4.374
12127TIP3    H136326   2.112   3.793   4.445
12127TIP3    H236327   2.064   3.879   4.330
12128TIP3   OH236328   2.149   0.516   3.526
12128TIP3    H136329   2.111   0.603   3.530
12128TIP3    H236330   2.238   0.530   3.493
12129TIP3   OH236331   7.221   6.951   6.117
12129TIP3    H136332   7.145   6.993   6.157
12129TIP3    H236333   7.213   6.972   6.024
12130TIP3   OH236334   3.691   4.418   3.297
12130TIP3    H136335   3.617   4.421   3.237
12130TIP3    H236336   3.654   4.390   3.381
12131TIP3   OH236337   5.313   3.027   2.516
12131TIP3    H136338   5.401   2.992   2.529
12131TIP3    H236339   5.272   3.023   2.603
12132TIP3   OH236340   4.704   2.260   1.530
12132TIP3    H136341   4.615   2.258   1.495
12132TIP3    H236342   4.718   2.173   1.567
12133TIP3   OH236343   2.303   5.238   2.142
12133TIP3    H136344   2.344   5.213   2.225
12133TIP3    H236345   2.375   5.267   2.087
12134TIP3   OH236346   2.897   4.844   4.496
12134TIP3    H136347   2.890   4.750   4.479
12134TIP3    H236348   2.926   4.882   4.414
12135TIP3   OH236349   1.852   7.278   4.972
12135TIP3    H136350   1.884   7.367   4.983
12135TIP3    H236351   1.758   7.284   4.988
12136TIP3   OH236352   0.766   4.862   4.853
12136TIP3    H136353   0.818   4.939   4.879
12136TIP3    H236354   0.676   4.892   4.855
12137TIP3   OH236355   4.720   6.730   2.999
12137TIP3    H136356   4.814   6.746   2.988
12137TIP3    H236357   4.716   6.647   3.047
12138TIP3   OH236358   4.119   1.431   3.272
12138TIP3    H136359   4.157   1.362   3.218
12138TIP3    H236360   4.048   1.468   3.219
12139TIP3   OH236361   0.979   4.136   6.116
12139TIP3    H136362   0.963   4.209   6.056
12139TIP3    H236363   0.998   4.177   6.200
12140TIP3   OH236364   1.306   5.691   1.724
12140TIP3    H136365   1.393   5.697   1.762
12140TIP3    H236366   1.321   5.668   1.633
12141TIP3   OH236367   1.413   3.390   4.290
12141TIP3    H136368   1.375   3.411   4.204
12141TIP3    H236369   1.469   3.466   4.309
12142TIP3   OH236370   3.137   6.087   0.545
12142TIP3    H136371   3.137   6.037   0.626
12142TIP3    H236372   3.070   6.154   0.558
12143TIP3   OH236373   7.102   6.996   2.891
12143TIP3    H136374   7.010   7.000   2.866
12143TIP3    H236375   7.111   7.060   2.962
12144TIP3   OH236376   3.593   4.374   0.153
12144TIP3    H136377   3.542   4.312   0.101
12144TIP3    H236378   3.570   4.460   0.117
12145TIP3   OH236379   5.148   3.486   4.013
12145TIP3    H136380   5.058   3.459   3.996
12145TIP3    H236381   5.201   3.416   3.975
12146TIP3   OH236382   2.535   3.242   0.122
12146TIP3    H136383   2.569   3.153   0.119
12146TIP3    H236384   2.442   3.231   0.143
12147TIP3   OH236385   3.607   2.469   2.351
12147TIP3    H136386   3.688   2.422   2.367
12147TIP3    H236387   3.582   2.445   2.262
12148TIP3   OH236388   8.214   4.530   0.782
12148TIP3    H136389   8.156   4.455   0.794
12148TIP3    H236390   8.157   4.599   0.748
12149TIP3   OH236391   7.438   5.007   3.215
12149TIP3    H136392   7.454   4.990   3.308
12149TIP3    H236393   7.435   4.921   3.175
12150TIP3   OH236394   6.726   3.164   1.668
12150TIP3    H136395   6.765   3.195   1.586
12150TIP3    H236396   6.702   3.245   1.715
12151TIP3   OH236397   4.578   1.386   6.092
12151TIP3    H136398   4.644   1.382   6.022
12151TIP3    H236399   4.499   1.416   6.047
12152TIP3   OH236400   0.792   5.304   5.770
12152TIP3    H136401   0.857   5.370   5.794
12152TIP3    H236402   0.822   5.224   5.814
12153TIP3   OH236403   6.238   6.485   2.011
12153TIP3    H136404   6.266   6.469   1.921
12153TIP3    H236405   6.184   6.564   2.005
12154TIP3   OH236406   7.744   5.956   6.607
12154TIP3    H136407   7.754   6.027   6.544
12154TIP3    H236408   7.824   5.959   6.660
12155TIP3   OH236409   5.022   7.474   2.790
12155TIP3    H136410   5.014   7.417   2.866
12155TIP3    H236411   4.995   7.419   2.716
12156TIP3   OH236412   6.684   1.152   0.307
12156TIP3    H136413   6.613   1.111   0.257
12156TIP3    H236414   6.650   1.157   0.396
12157TIP3   OH236415   8.255   5.795   5.543
12157TIP3    H136416   8.326   5.803   5.479
12157TIP3    H236417   8.299   5.798   5.628
12158TIP3   OH236418   5.955   6.614   5.243
12158TIP3    H136419   5.951   6.620   5.338
12158TIP3    H236420   5.863   6.611   5.215
12159TIP3   OH236421   4.478   4.710   6.332
12159TIP3    H136422   4.385   4.687   6.334
12159TIP3    H236423   4.516   4.664   6.407
12160TIP3   OH236424   1.633   6.927   1.151
12160TIP3    H136425   1.653   7.009   1.105
12160TIP3    H236426   1.541   6.934   1.173
12161TIP3   OH236427   2.905   1.800   5.208
12161TIP3    H136428   2.829   1.804   5.266
12161TIP3    H236429   2.959   1.730   5.245
12162TIP3   OH236430   5.708   5.203   5.859
12162TIP3    H136431   5.770   5.131   5.860
12162TIP3    H236432   5.754   5.275   5.901
12163TIP3   OH236433   4.383   3.949   5.430
12163TIP3    H136434   4.463   3.901   5.453
12163TIP3    H236435   4.394   3.972   5.338
12164TIP3   OH236436   5.789   1.835   5.524
12164TIP3    H136437   5.815   1.759   5.472
12164TIP3    H236438   5.705   1.809   5.564
12165TIP3   OH236439   7.635   7.331   2.344
12165TIP3    H136440   7.593   7.413   2.316
12165TIP3    H236441   7.712   7.323   2.287
12166TIP3   OH236442   4.107   5.723   0.129
12166TIP3    H136443   4.091   5.747   0.220
12166TIP3    H236444   4.023   5.733   0.085
12167TIP3   OH236445   2.465   3.695   2.761
12167TIP3    H136446   2.462   3.704   2.666
12167TIP3    H236447   2.552   3.728   2.785
12168TIP3   OH236448   0.798   2.483   4.271
12168TIP3    H136449   0.823   2.540   4.198
12168TIP3    H236450   0.845   2.519   4.346
12169TIP3   OH236451   1.290   5.369   1.036
12169TIP3    H136452   1.333   5.453   1.054
12169TIP3    H236453   1.343   5.305   1.084
12170TIP3   OH236454   6.079   0.938   0.954
12170TIP3    H136455   6.027   0.939   1.035
12170TIP3    H236456   6.083   0.845   0.930
12171TIP3   OH236457   6.668   5.183   3.985
12171TIP3    H136458   6.664   5.095   4.022
12171TIP3    H236459   6.577   5.213   3.982
12172TIP3   OH236460   2.286   2.216   2.179
12172TIP3    H136461   2.212   2.253   2.130
12172TIP3    H236462   2.341   2.292   2.200
12173TIP3   OH236463   0.472   2.391   0.330
12173TIP3    H136464   0.525   2.341   0.267
12173TIP3    H236465   0.452   2.328   0.399
12174TIP3   OH236466   6.605   5.206   2.394
12174TIP3    H136467   6.533   5.244   2.344
12174TIP3    H236468   6.564   5.180   2.477
12175TIP3   OH236469   5.770   6.213   5.172
12175TIP3    H136470   5.716   6.286   5.202
12175TIP3    H236471   5.860   6.245   5.177
12176TIP3   OH236472   4.575   2.254   3.891
12176TIP3    H136473   4.480   2.236   3.888
12176TIP3    H236474   4.611   2.205   3.817
12177TIP3   OH236475   7.671   2.061   1.504
12177TIP3    H136476   7.683   1.966   1.503
12177TIP3    H236477   7.577   2.074   1.486
12178TIP3   OH236478   6.000   3.041   5.620
12178TIP3    H136479   6.078   3.021   5.672
12178TIP3    H236480   5.940   2.970   5.639
12179TIP3   OH236481   7.991   0.148   5.985
12179TIP3    H136482   8.054   0.121   5.918
12179TIP3    H236483   8.020   0.103   6.064
12180TIP3   OH236484   6.387   1.155   4.022
12180TIP3    H136485   6.319   1.173   4.086
12180TIP3    H236486   6.389   1.059   4.016
12181TIP3   OH236487   3.983   7.633   3.285
12181TIP3    H136488   3.917   7.682   3.236
12181TIP3    H236489   3.944   7.622   3.372
12182TIP3   OH236490   7.745   5.666   2.179
12182TIP3    H136491   7.760   5.706   2.093
12182TIP3    H236492   7.781   5.729   2.241
12183TIP3   OH236493   5.602   0.142   1.241
12183TIP3    H136494   5.630   0.195   1.316
12183TIP3    H236495   5.588   0.206   1.171
12184TIP3   OH236496   6.442   5.351   5.624
12184TIP3    H136497   6.524   5.369   5.578
12184TIP3    H236498   6.395   5.292   5.565
12185TIP3   OH236499   0.951   7.224   3.338
12185TIP3    H136500   0.907   7.259   3.261
12185TIP3    H236501   0.922   7.279   3.410
12186TIP3   OH236502   7.468   2.794   4.491
12186TIP3    H136503   7.394   2.850   4.468
12186TIP3    H236504   7.536   2.854   4.521
12187TIP3   OH236505   3.869   7.161   0.264
12187TIP3    H136506   3.795   7.129   0.315
12187TIP3    H236507   3.946   7.124   0.307
12188TIP3   OH236508   4.776   6.415   1.367
12188TIP3    H136509   4.772   6.389   1.459
12188TIP3    H236510   4.768   6.510   1.368
12189TIP3   OH236511   5.918   5.204   3.307
12189TIP3    H136512   5.901   5.284   3.357
12189TIP3    H236513   6.012   5.191   3.314
12190TIP3   OH236514   5.286   2.310   1.564
12190TIP3    H136515   5.226   2.363   1.618
12190TIP3    H236516   5.373   2.337   1.591
12191TIP3   OH236517   6.691   1.557   2.564
12191TIP3    H136518   6.780   1.554   2.599
12191TIP3    H236519   6.638   1.510   2.629
12192TIP3   OH236520   4.866   0.417   4.191
12192TIP3    H136521   4.863   0.443   4.099
12192TIP3    H236522   4.953   0.443   4.220
12193TIP3   OH236523   5.440   3.749   5.120
12193TIP3    H136524   5.486   3.752   5.204
12193TIP3    H236525   5.354   3.713   5.142
12194TIP3   OH236526   3.449   1.653   4.854
12194TIP3    H136527   3.428   1.742   4.883
12194TIP3    H236528   3.382   1.633   4.789
12195TIP3   OH236529   4.740   4.605   0.948
12195TIP3    H136530   4.755   4.632   0.858
12195TIP3    H236531   4.683   4.528   0.941
12196TIP3   OH236532   5.097   7.807   1.532
12196TIP3    H136533   5.053   7.738   1.583
12196TIP3    H236534   5.169   7.762   1.488
12197TIP3   OH236535   6.071   3.553   4.159
12197TIP3    H136536   6.002   3.575   4.097
12197TIP3    H236537   6.027   3.504   4.228
12198TIP3   OH236538   6.553   3.136   6.694
12198TIP3    H136539   6.562   3.229   6.674
12198TIP3    H236540   6.609   3.122   6.770
12199TIP3   OH236541   5.866   6.184   1.634
12199TIP3    H136542   5.775   6.196   1.662
12199TIP3    H236543   5.867   6.210   1.542
12200TIP3   OH236544   4.264   3.907   4.757
12200TIP3    H136545   4.215   3.981   4.793
12200TIP3    H236546   4.209   3.831   4.774
12201TIP3   OH236547   5.057   3.789   2.431
12201TIP3    H136548   5.008   3.871   2.429
12201TIP3    H236549   5.149   3.816   2.423
12202TIP3   OH236550   7.231   3.642   2.761
12202TIP3    H136551   7.321   3.625   2.789
12202TIP3    H236552   7.237   3.648   2.666
12203TIP3   OH236553   6.855   4.812   2.335
12203TIP3    H136554   6.854   4.728   2.382
12203TIP3    H236555   6.826   4.790   2.246
12204TIP3   OH236556   6.408   5.678   1.971
12204TIP3    H136557   6.359   5.600   1.946
12204TIP3    H236558   6.404   5.679   2.067
12205TIP3   OH236559   7.330   4.565   5.794
12205TIP3    H136560   7.279   4.491   5.827
12205TIP3    H236561   7.271   4.640   5.799
12206TIP3   OH236562   4.568   0.830   2.178
12206TIP3    H136563   4.650   0.862   2.140
12206TIP3    H236564   4.503   0.896   2.154
12207TIP3   OH236565   7.373   7.733   3.141
12207TIP3    H136566   7.337   7.777   3.217
12207TIP3    H236567   7.327   7.772   3.066
12208TIP3   OH236568   1.275   1.148   0.582
12208TIP3    H136569   1.303   1.166   0.672
12208TIP3    H236570   1.265   1.234   0.543
12209TIP3   OH236571   0.768   7.834   5.458
12209TIP3    H136572   0.860   7.859   5.472
12209TIP3    H236573   0.773   7.745   5.422
12210TIP3   OH236574   7.599   4.997   2.480
12210TIP3    H136575   7.558   4.972   2.397
12210TIP3    H236576   7.538   5.060   2.519
12211TIP3   OH236577   4.982   1.383   5.409
12211TIP3    H136578   4.908   1.336   5.371
12211TIP3    H236579   5.010   1.443   5.341
12212TIP3   OH236580   3.256   5.792   2.524
12212TIP3    H136581   3.269   5.860   2.457
12212TIP3    H236582   3.237   5.713   2.474
12213TIP3   OH236583   7.018  -0.016   4.067
12213TIP3    H136584   6.965  -0.054   3.997
12213TIP3    H236585   6.955   0.006   4.136
12214TIP3   OH236586   8.067   5.380   2.294
12214TIP3    H136587   8.059   5.372   2.389
12214TIP3    H236588   8.098   5.294   2.266
12215TIP3   OH236589   6.069   5.413   2.177
12215TIP3    H136590   6.037   5.490   2.131
12215TIP3    H236591   6.003   5.345   2.160
12216TIP3   OH236592   1.957   3.010   2.056
12216TIP3    H136593   1.879   3.035   2.006
12216TIP3    H236594   2.023   3.075   2.031
12217TIP3   OH236595   2.796   0.824   3.310
12217TIP3    H136596   2.715   0.778   3.286
12217TIP3    H236597   2.790   0.835   3.404
12218TIP3   OH236598   4.533   2.765   5.566
12218TIP3    H136599   4.562   2.834   5.625
12218TIP3    H236600   4.502   2.696   5.624
12219TIP3   OH236601   0.289   3.062   3.143
12219TIP3    H136602   0.297   3.083   3.050
12219TIP3    H236603   0.216   3.116   3.174
12220TIP3   OH236604   8.251   4.086   5.864
12220TIP3    H136605   8.268   4.110   5.773
12220TIP3    H236606   8.321   4.128   5.913
12221TIP3   OH236607   3.931   7.136   4.589
12221TIP3    H136608   4.022   7.166   4.597
12221TIP3    H236609   3.933   7.076   4.514
12222TIP3   OH236610   5.029   5.197   0.895
12222TIP3    H136611   4.949   5.147   0.876
12222TIP3    H236612   4.998   5.287   0.910
12223TIP3   OH236613   2.111   1.771   3.869
12223TIP3    H136614   2.140   1.863   3.876
12223TIP3    H236615   2.074   1.764   3.781
12224TIP3   OH236616   1.421   2.472   4.276
12224TIP3    H136617   1.407   2.530   4.201
12224TIP3    H236618   1.390   2.386   4.246
12225TIP3   OH236619   7.963   4.436   3.056
12225TIP3    H136620   7.934   4.375   3.123
12225TIP3    H236621   7.889   4.495   3.043
12226TIP3   OH236622   6.349   1.748   2.063
12226TIP3    H136623   6.288   1.809   2.104
12226TIP3    H236624   6.309   1.726   1.979
12227TIP3   OH236625   6.116   5.464   1.042
12227TIP3    H136626   6.066   5.498   0.968
12227TIP3    H236627   6.205   5.454   1.007
12228TIP3   OH236628   0.769   2.332   2.635
12228TIP3    H136629   0.718   2.374   2.704
12228TIP3    H236630   0.858   2.329   2.670
12229TIP3   OH236631   1.672   3.301   0.486
12229TIP3    H136632   1.589   3.344   0.465
12229TIP3    H236633   1.678   3.307   0.582
12230TIP3   OH236634   2.833   2.732   1.332
12230TIP3    H136635   2.771   2.666   1.303
12230TIP3    H236636   2.919   2.691   1.322
12231TIP3   OH236637   8.271   3.878   4.933
12231TIP3    H136638   8.214   3.935   4.881
12231TIP3    H236639   8.252   3.790   4.901
12232TIP3   OH236640   0.684   5.914   5.342
12232TIP3    H136641   0.750   5.881   5.403
12232TIP3    H236642   0.709   5.878   5.257
12233TIP3   OH236643   2.269   5.527   3.692
12233TIP3    H136644   2.223   5.471   3.629
12233TIP3    H236645   2.231   5.614   3.679
12234TIP3   OH236646   1.319   0.612   0.486
12234TIP3    H136647   1.341   0.583   0.575
12234TIP3    H236648   1.302   0.706   0.495
12235TIP3   OH236649   4.695   5.013   4.546
12235TIP3    H136650   4.771   5.057   4.508
12235TIP3    H236651   4.690   4.929   4.500
12236TIP3   OH236652   0.117   2.903   2.531
12236TIP3    H136653   0.173   2.831   2.500
12236TIP3    H236654   0.137   2.911   2.624
12237TIP3   OH236655   7.375   0.783   4.444
12237TIP3    H136656   7.413   0.821   4.365
12237TIP3    H236657   7.296   0.738   4.414
12238TIP3   OH236658   7.614   2.864   3.927
12238TIP3    H136659   7.565   2.824   4.000
12238TIP3    H236660   7.550   2.918   3.881
12239TIP3   OH236661   7.684   4.443   6.730
12239TIP3    H136662   7.712   4.486   6.811
12239TIP3    H236663   7.734   4.362   6.728
12240TIP3   OH236664   4.232   4.748   5.318
12240TIP3    H136665   4.274   4.832   5.334
12240TIP3    H236666   4.276   4.713   5.241
12241TIP3   OH236667   3.058   6.846   5.233
12241TIP3    H136668   2.978   6.805   5.265
12241TIP3    H236669   3.080   6.798   5.153
12242TIP3   OH236670   3.556   3.594   0.964
12242TIP3    H136671   3.644   3.557   0.956
12242TIP3    H236672   3.569   3.675   1.014
12243TIP3   OH236673   6.927   6.760   5.326
12243TIP3    H136674   6.855   6.803   5.372
12243TIP3    H236675   6.892   6.673   5.304
12244TIP3   OH236676   4.615   5.997   5.988
12244TIP3    H136677   4.617   5.956   6.074
12244TIP3    H236678   4.570   5.933   5.932
12245TIP3   OH236679   8.047   5.368   3.262
12245TIP3    H136680   8.028   5.416   3.181
12245TIP3    H236681   8.025   5.277   3.241
12246TIP3   OH236682   7.300   4.739   5.145
12246TIP3    H136683   7.382   4.721   5.098
12246TIP3    H236684   7.316   4.708   5.234
12247TIP3   OH236685   5.487   0.625   1.147
12247TIP3    H136686   5.513   0.599   1.059
12247TIP3    H236687   5.469   0.543   1.192
12248TIP3   OH236688   6.704   0.309   1.298
12248TIP3    H136689   6.718   0.240   1.363
12248TIP3    H236690   6.697   0.262   1.215
12249TIP3   OH236691   2.475   3.664   6.158
12249TIP3    H136692   2.534   3.655   6.232
12249TIP3    H236693   2.398   3.710   6.193
12250TIP3   OH236694   3.088   7.389   0.874
12250TIP3    H136695   3.017   7.452   0.885
12250TIP3    H236696   3.101   7.351   0.960
12251TIP3   OH236697   7.129   1.154   1.142
12251TIP3    H136698   7.072   1.154   1.064
12251TIP3    H236699   7.201   1.212   1.119
12252TIP3   OH236700   5.036   1.028   1.761
12252TIP3    H136701   4.997   1.060   1.842
12252TIP3    H236702   4.964   1.032   1.697
12253TIP3   OH236703   2.365   4.702   3.111
12253TIP3    H136704   2.356   4.686   3.205
12253TIP3    H236705   2.456   4.730   3.100
12254TIP3   OH236706   5.818   1.981   1.537
12254TIP3    H136707   5.840   2.067   1.503
12254TIP3    H236708   5.812   1.925   1.460
12255TIP3   OH236709   4.249   5.114   1.588
12255TIP3    H136710   4.342   5.089   1.584
12255TIP3    H236711   4.251   5.209   1.599
12256TIP3   OH236712   5.125   5.658   0.150
12256TIP3    H136713   5.144   5.687   0.060
12256TIP3    H236714   5.076   5.731   0.188
12257TIP3   OH236715   8.287   0.925   5.707
12257TIP3    H136716   8.226   0.952   5.777
12257TIP3    H236717   8.259   0.837   5.683
12258TIP3   OH236718   4.752   5.971   3.625
12258TIP3    H136719   4.827   6.014   3.666
12258TIP3    H236720   4.734   6.025   3.547
12259TIP3   OH236721   4.905   7.170   5.032
12259TIP3    H136722   4.838   7.221   5.077
12259TIP3    H236723   4.869   7.158   4.943
12260TIP3   OH236724   7.549   0.992   1.432
12260TIP3    H136725   7.564   0.943   1.351
12260TIP3    H236726   7.495   0.934   1.485
12261TIP3   OH236727   4.237   6.641   0.615
12261TIP3    H136728   4.192   6.681   0.541
12261TIP3    H236729   4.190   6.559   0.631
12262TIP3   OH236730   2.978   2.594   0.957
12262TIP3    H136731   2.900   2.546   0.928
12262TIP3    H236732   2.965   2.683   0.925
12263TIP3   OH236733   5.423   2.787   1.795
12263TIP3    H136734   5.516   2.766   1.804
12263TIP3    H236735   5.385   2.766   1.880
12264TIP3   OH236736   3.782   4.473   5.295
12264TIP3    H136737   3.868   4.448   5.260
12264TIP3    H236738   3.747   4.392   5.333
12265TIP3   OH236739   5.360   6.474   3.373
12265TIP3    H136740   5.299   6.457   3.444
12265TIP3    H236741   5.445   6.481   3.415
12266TIP3   OH236742   3.486   6.685   3.942
12266TIP3    H136743   3.392   6.672   3.958
12266TIP3    H236744   3.491   6.773   3.904
12267TIP3   OH236745   2.329   4.191   0.687
12267TIP3    H136746   2.260   4.127   0.669
12267TIP3    H236747   2.312   4.221   0.776
12268TIP3   OH236748   3.454   0.509   2.767
12268TIP3    H136749   3.383   0.480   2.708
12268TIP3    H236750   3.523   0.538   2.708
12269TIP3   OH236751   5.619   3.704   3.459
12269TIP3    H136752   5.532   3.666   3.465
12269TIP3    H236753   5.669   3.659   3.527
12270TIP3   OH236754   7.581   5.902   0.474
12270TIP3    H136755   7.571   5.821   0.424
12270TIP3    H236756   7.672   5.900   0.504
12271TIP3   OH236757   0.769   4.096   4.372
12271TIP3    H136758   0.693   4.047   4.341
12271TIP3    H236759   0.750   4.187   4.347
12272TIP3   OH236760   1.241   0.470   3.744
12272TIP3    H136761   1.158   0.422   3.750
12272TIP3    H236762   1.225   0.551   3.792
12273TIP3   OH236763   0.263  -0.002   0.142
12273TIP3    H136764   0.267   0.090   0.168
12273TIP3    H236765   0.213  -0.002   0.061
12274TIP3   OH236766   2.509   7.620   5.081
12274TIP3    H136767   2.431   7.616   5.137
12274TIP3    H236768   2.573   7.667   5.134
12275TIP3   OH236769   5.189   0.236   5.500
12275TIP3    H136770   5.269   0.279   5.469
12275TIP3    H236771   5.128   0.243   5.427
12276TIP3   OH236772   0.344   7.458   4.291
12276TIP3    H136773   0.331   7.550   4.268
12276TIP3    H236774   0.255   7.421   4.292
12277TIP3   OH236775   2.631   4.312   6.016
12277TIP3    H136776   2.646   4.407   6.007
12277TIP3    H236777   2.709   4.272   5.978
12278TIP3   OH236778   3.785   6.696   3.106
12278TIP3    H136779   3.720   6.765   3.095
12278TIP3    H236780   3.764   6.656   3.191
12279TIP3   OH236781   4.791   7.267   0.176
12279TIP3    H136782   4.882   7.291   0.196
12279TIP3    H236783   4.761   7.221   0.254
12280TIP3   OH236784   8.127   5.132   5.028
12280TIP3    H136785   8.053   5.086   4.989
12280TIP3    H236786   8.144   5.205   4.969
12281TIP3   OH236787   0.227   1.376   1.594
12281TIP3    H136788   0.245   1.447   1.656
12281TIP3    H236789   0.139   1.345   1.618
12282TIP3   OH236790   6.472   5.520   2.820
12282TIP3    H136791   6.410   5.477   2.879
12282TIP3    H236792   6.461   5.613   2.838
12283TIP3   OH236793   3.773   3.424   1.614
12283TIP3    H136794   3.693   3.457   1.656
12283TIP3    H236795   3.818   3.502   1.583
12284TIP3   OH236796   5.688   0.818   2.846
12284TIP3    H136797   5.779   0.826   2.873
12284TIP3    H236798   5.639   0.816   2.928
12285TIP3   OH236799   5.726   5.383   6.521
12285TIP3    H136800   5.729   5.351   6.431
12285TIP3    H236801   5.818   5.400   6.543
12286TIP3   OH236802   7.569   4.665   5.028
12286TIP3    H136803   7.634   4.609   5.071
12286TIP3    H236804   7.531   4.610   4.960
12287TIP3   OH236805   3.489   3.297   1.610
12287TIP3    H136806   3.424   3.244   1.565
12287TIP3    H236807   3.498   3.376   1.556
12288TIP3   OH236808   3.383   3.520   2.848
12288TIP3    H136809   3.359   3.429   2.828
12288TIP3    H236810   3.456   3.539   2.789
12289TIP3   OH236811   3.248   3.720   1.493
12289TIP3    H136812   3.199   3.683   1.420
12289TIP3    H236813   3.241   3.815   1.482
12290TIP3   OH236814   2.305   4.967   1.318
12290TIP3    H136815   2.323   4.902   1.250
12290TIP3    H236816   2.210   4.973   1.321
12291TIP3   OH236817   5.263   4.713   1.914
12291TIP3    H136818   5.182   4.748   1.876
12291TIP3    H236819   5.246   4.620   1.927
12292TIP3   OH236820   7.143   2.874   0.081
12292TIP3    H136821   7.156   2.791   0.036
12292TIP3    H236822   7.199   2.868   0.159
12293TIP3   OH236823   4.414   4.966   2.348
12293TIP3    H136824   4.478   4.908   2.306
12293TIP3    H236825   4.364   4.908   2.406
12294TIP3   OH236826   7.713   7.143   0.028
12294TIP3    H136827   7.631   7.112   0.065
12294TIP3    H236828   7.696   7.234   0.004
12295TIP3   OH236829   4.538   4.044   0.025
12295TIP3    H136830   4.600   4.001  -0.034
12295TIP3    H236831   4.590   4.067   0.102
12296TIP3   OH236832   5.663   1.195   3.888
12296TIP3    H136833   5.709   1.196   3.804
12296TIP3    H236834   5.621   1.110   3.892
12297TIP3   OH236835   4.641   5.583   3.870
12297TIP3    H136836   4.606   5.660   3.826
12297TIP3    H236837   4.709   5.550   3.812
12298TIP3   OH236838   4.023   4.408   4.350
12298TIP3    H136839   4.078   4.425   4.427
12298TIP3    H236840   3.978   4.491   4.333
12299TIP3   OH236841   6.928   0.112   1.385
12299TIP3    H136842   6.982   0.175   1.433
12299TIP3    H236843   6.989   0.069   1.324
12300TIP3   OH236844   4.533   5.097   4.285
12300TIP3    H136845   4.533   5.015   4.236
12300TIP3    H236846   4.465   5.086   4.351
12301TIP3   OH236847   7.597   4.445   1.515
12301TIP3    H136848   7.557   4.455   1.428
12301TIP3    H236849   7.524   4.448   1.576
12302TIP3   OH236850   2.650   4.520   1.543
12302TIP3    H136851   2.595   4.582   1.496
12302TIP3    H236852   2.734   4.521   1.497
12303TIP3   OH236853   3.420   4.925   5.286
12303TIP3    H136854   3.424   4.968   5.371
12303TIP3    H236855   3.465   4.984   5.226
12304TIP3   OH236856   8.018   5.965   1.042
12304TIP3    H136857   7.991   6.015   1.119
12304TIP3    H236858   8.010   5.874   1.068
12305TIP3   OH236859   1.739   2.548   3.239
12305TIP3    H136860   1.758   2.621   3.299
12305TIP3    H236861   1.823   2.502   3.231
12306TIP3   OH236862   5.149   3.024   1.798
12306TIP3    H136863   5.199   3.030   1.880
12306TIP3    H236864   5.214   2.998   1.732
12307TIP3   OH236865   8.070   5.973   4.328
12307TIP3    H136866   8.162   5.981   4.354
12307TIP3    H236867   8.030   5.920   4.397
12308TIP3   OH236868   0.951   2.620   4.993
12308TIP3    H136869   0.978   2.678   4.922
12308TIP3    H236870   0.863   2.590   4.968
12309TIP3   OH236871   5.558   1.459   2.720
12309TIP3    H136872   5.534   1.551   2.705
12309TIP3    H236873   5.568   1.452   2.815
12310TIP3   OH236874   1.113   0.199   4.057
12310TIP3    H136875   1.136   0.229   4.145
12310TIP3    H236876   1.059   0.269   4.021
12311TIP3   OH236877   6.938   1.197   0.216
12311TIP3    H136878   6.964   1.127   0.275
12311TIP3    H236879   6.846   1.212   0.235
12312TIP3   OH236880   0.245   0.570   5.683
12312TIP3    H136881   0.293   0.491   5.657
12312TIP3    H236882   0.296   0.642   5.646
12313TIP3   OH236883   2.758   1.233   1.354
12313TIP3    H136884   2.847   1.264   1.374
12313TIP3    H236885   2.704   1.312   1.359
12314TIP3   OH236886   1.411   6.611   4.028
12314TIP3    H136887   1.444   6.699   4.008
12314TIP3    H236888   1.316   6.618   4.019
12315TIP3   OH236889   5.762   0.141   1.569
12315TIP3    H136890   5.759   0.068   1.507
12315TIP3    H236891   5.836   0.121   1.627
12316TIP3   OH236892   8.023   7.137   2.382
12316TIP3    H136893   8.033   7.072   2.312
12316TIP3    H236894   8.113   7.161   2.406
12317TIP3   OH236895   0.156   3.690   6.129
12317TIP3    H136896   0.103   3.714   6.054
12317TIP3    H236897   0.208   3.616   6.099
12318TIP3   OH236898   0.827   2.786   6.552
12318TIP3    H136899   0.821   2.848   6.625
12318TIP3    H236900   0.737   2.754   6.541
12319TIP3   OH236901   5.497   5.815   6.053
12319TIP3    H136902   5.449   5.810   6.135
12319TIP3    H236903   5.444   5.764   5.991
12320TIP3   OH236904   6.589   4.735   5.245
12320TIP3    H136905   6.650   4.756   5.316
12320TIP3    H236906   6.573   4.818   5.202
12321TIP3   OH236907   0.227   7.642   3.074
12321TIP3    H136908   0.148   7.595   3.048
12321TIP3    H236909   0.293   7.573   3.084
12322TIP3   OH236910   4.444   6.769   2.403
12322TIP3    H136911   4.484   6.798   2.485
12322TIP3    H236912   4.508   6.708   2.365
12323TIP3   OH236913   4.917   4.186   5.967
12323TIP3    H136914   4.917   4.280   5.982
12323TIP3    H236915   4.841   4.153   6.016
12324TIP3   OH236916   3.170   1.054   5.205
12324TIP3    H136917   3.084   1.014   5.219
12324TIP3    H236918   3.164   1.094   5.118
12325TIP3   OH236919   6.953   7.137   3.224
12325TIP3    H136920   6.929   7.184   3.304
12325TIP3    H236921   6.881   7.155   3.163
12326TIP3   OH236922   7.020   2.876   3.241
12326TIP3    H136923   7.008   2.929   3.162
12326TIP3    H236924   6.960   2.914   3.305
12327TIP3   OH236925   7.448   4.156   2.945
12327TIP3    H136926   7.363   4.191   2.917
12327TIP3    H236927   7.459   4.187   3.035
12328TIP3   OH236928   1.161   4.456   6.054
12328TIP3    H136929   1.145   4.488   6.143
12328TIP3    H236930   1.105   4.511   5.999
12329TIP3   OH236931   3.240   3.532   5.367
12329TIP3    H136932   3.189   3.540   5.286
12329TIP3    H236933   3.213   3.447   5.403
12330TIP3   OH236934   3.881   0.327   2.658
12330TIP3    H136935   3.903   0.351   2.748
12330TIP3    H236936   3.916   0.239   2.647
12331TIP3   OH236937   7.203   2.155   0.646
12331TIP3    H136938   7.241   2.112   0.723
12331TIP3    H236939   7.212   2.091   0.576
12332TIP3   OH236940   4.830   4.519   4.443
12332TIP3    H136941   4.796   4.476   4.521
12332TIP3    H236942   4.910   4.563   4.472
12333TIP3   OH236943   6.328   7.241   4.918
12333TIP3    H136944   6.263   7.309   4.936
12333TIP3    H236945   6.318   7.222   4.824
12334TIP3   OH236946   7.874   0.011   6.632
12334TIP3    H136947   7.850   0.096   6.671
12334TIP3    H236948   7.959  -0.010   6.671
12335TIP3   OH236949   3.853   1.225   0.468
12335TIP3    H136950   3.844   1.194   0.558
12335TIP3    H236951   3.793   1.169   0.418
12336TIP3   OH236952   7.368   5.183   0.225
12336TIP3    H136953   7.420   5.121   0.173
12336TIP3    H236954   7.406   5.179   0.312
12337TIP3   OH236955   7.982   2.036   5.541
12337TIP3    H136956   7.916   2.021   5.473
12337TIP3    H236957   7.993   1.951   5.583
12338TIP3   OH236958   0.954   0.648   3.729
12338TIP3    H136959   0.972   0.649   3.635
12338TIP3    H236960   0.900   0.570   3.742
12339TIP3   OH236961   4.441   7.251   1.510
12339TIP3    H136962   4.481   7.299   1.439
12339TIP3    H236963   4.347   7.256   1.493
12340TIP3   OH236964   5.054   2.047   2.587
12340TIP3    H136965   5.080   2.132   2.623
12340TIP3    H236966   5.133   1.993   2.594
12341TIP3   OH236967   7.988   2.727   0.121
12341TIP3    H136968   8.047   2.659   0.153
12341TIP3    H236969   8.012   2.805   0.171
12342TIP3   OH236970   4.572   5.793   4.984
12342TIP3    H136971   4.642   5.749   5.032
12342TIP3    H236972   4.572   5.883   5.019
12343TIP3   OH236973   7.845   1.940   0.031
12343TIP3    H136974   7.842   1.847   0.009
12343TIP3    H236975   7.786   1.981  -0.032
12344TIP3   OH236976   1.357   0.204   0.488
12344TIP3    H136977   1.309   0.269   0.437
12344TIP3    H236978   1.420   0.167   0.426
12345TIP3   OH236979   0.085   1.194   4.201
12345TIP3    H136980   0.095   1.156   4.114
12345TIP3    H236981   0.029   1.271   4.188
12346TIP3   OH236982   0.155   6.888   0.069
12346TIP3    H136983   0.168   6.956   0.135
12346TIP3    H236984   0.242   6.852   0.055
12347TIP3   OH236985   3.959   2.800   4.067
12347TIP3    H136986   4.032   2.853   4.035
12347TIP3    H236987   3.896   2.864   4.101
12348TIP3   OH236988   7.484   0.108   1.030
12348TIP3    H136989   7.475   0.035   1.092
12348TIP3    H236990   7.579   0.123   1.025
12349TIP3   OH236991   7.992   4.744   3.758
12349TIP3    H136992   7.938   4.688   3.815
12349TIP3    H236993   8.080   4.709   3.768
12350TIP3   OH236994   3.160   4.993   2.047
12350TIP3    H136995   3.167   5.031   1.960
12350TIP3    H236996   3.168   4.899   2.034
12351TIP3   OH236997   2.219   7.494   2.279
12351TIP3    H136998   2.187   7.406   2.296
12351TIP3    H236999   2.142   7.550   2.287
12352TIP3   OH237000   3.008   7.419   3.534
12352TIP3    H137001   2.946   7.485   3.505
12352TIP3    H237002   3.085   7.432   3.478
12353TIP3   OH237003   8.221   0.084   6.493
12353TIP3    H137004   8.139   0.128   6.475
12353TIP3    H237005   8.198   0.013   6.553
12354TIP3   OH237006   8.172   3.474   3.025
12354TIP3    H137007   8.195   3.554   3.071
12354TIP3    H237008   8.078   3.463   3.040
12355TIP3   OH237009   7.627   2.204   2.253
12355TIP3    H137010   7.544   2.204   2.206
12355TIP3    H237011   7.647   2.297   2.267
12356TIP3   OH237012   2.719   0.240   4.617
12356TIP3    H137013   2.669   0.276   4.544
12356TIP3    H237014   2.785   0.306   4.636
12357TIP3   OH237015   0.538   5.021   4.092
12357TIP3    H137016   0.601   4.952   4.070
12357TIP3    H237017   0.501   4.993   4.176
12358TIP3   OH237018   3.290   2.715   4.720
12358TIP3    H137019   3.204   2.753   4.737
12358TIP3    H237020   3.290   2.695   4.627
12359TIP3   OH237021   0.301   7.280   4.625
12359TIP3    H137022   0.302   7.208   4.687
12359TIP3    H237023   0.312   7.358   4.678
12360TIP3   OH237024   1.945   6.617   6.021
12360TIP3    H137025   1.934   6.525   5.995
12360TIP3    H237026   1.873   6.633   6.082
12361TIP3   OH237027   8.066   2.316   2.420
12361TIP3    H137028   8.042   2.383   2.485
12361TIP3    H237029   8.148   2.279   2.452
12362TIP3   OH237030   3.415   1.024   0.178
12362TIP3    H137031   3.427   1.080   0.102
12362TIP3    H237032   3.393   1.084   0.249
12363TIP3   OH237033   4.249   4.014   3.568
12363TIP3    H137034   4.331   3.976   3.600
12363TIP3    H237035   4.183   3.946   3.586
12364TIP3   OH237036   3.606   7.141   1.513
12364TIP3    H137037   3.559   7.142   1.596
12364TIP3    H237038   3.603   7.232   1.482
12365TIP3   OH237039   1.500   2.190   3.005
12365TIP3    H137040   1.555   2.211   3.081
12365TIP3    H237041   1.448   2.114   3.034
12366TIP3   OH237042   7.691   4.170   2.267
12366TIP3    H137043   7.623   4.190   2.331
12366TIP3    H237044   7.652   4.193   2.183
12367TIP3   OH237045   4.463   6.550   2.186
12367TIP3    H137046   4.529   6.489   2.153
12367TIP3    H237047   4.385   6.532   2.134
12368TIP3   OH237048   3.010   7.129   2.884
12368TIP3    H137049   2.970   7.046   2.910
12368TIP3    H237050   2.940   7.179   2.843
12369TIP3   OH237051   3.798   4.950   5.141
12369TIP3    H137052   3.827   4.879   5.083
12369TIP3    H237053   3.862   5.019   5.128
12370TIP3   OH237054   2.082   7.567   4.928
12370TIP3    H137055   2.129   7.648   4.948
12370TIP3    H237056   2.130   7.499   4.974
12371TIP3   OH237057   6.446   2.611   5.250
12371TIP3    H137058   6.491   2.694   5.266
12371TIP3    H237059   6.429   2.576   5.338
12372TIP3   OH237060   3.800   6.511   5.897
12372TIP3    H137061   3.737   6.519   5.825
12372TIP3    H237062   3.879   6.475   5.857
12373TIP3   OH237063   5.752   4.160   2.361
12373TIP3    H137064   5.727   4.080   2.314
12373TIP3    H237065   5.826   4.134   2.416
12374TIP3   OH237066   2.821   6.311   1.364
12374TIP3    H137067   2.865   6.250   1.306
12374TIP3    H237068   2.888   6.336   1.428
12375TIP3   OH237069   3.592   7.566   4.845
12375TIP3    H137070   3.564   7.475   4.843
12375TIP3    H237071   3.663   7.568   4.909
12376TIP3   OH237072   7.979   0.242   1.969
12376TIP3    H137073   8.033   0.171   1.933
12376TIP3    H237074   8.038   0.318   1.970
12377TIP3   OH237075   3.445   0.619   5.307
12377TIP3    H137076   3.404   0.704   5.296
12377TIP3    H237077   3.503   0.610   5.232
12378TIP3   OH237078   3.510   4.815   2.215
12378TIP3    H137079   3.429   4.827   2.166
12378TIP3    H237080   3.491   4.746   2.278
12379TIP3   OH237081   6.982   0.369   3.434
12379TIP3    H137082   6.995   0.341   3.525
12379TIP3    H237083   7.023   0.300   3.382
12380TIP3   OH237084   1.764   7.614   4.628
12380TIP3    H137085   1.789   7.523   4.612
12380TIP3    H237086   1.683   7.626   4.578
12381TIP3   OH237087   1.403   3.207   2.500
12381TIP3    H137088   1.364   3.130   2.459
12381TIP3    H237089   1.488   3.177   2.532
12382TIP3   OH237090   4.541   2.503   3.211
12382TIP3    H137091   4.543   2.411   3.188
12382TIP3    H237092   4.630   2.522   3.244
12383TIP3   OH237093   1.695   0.267   3.846
12383TIP3    H137094   1.665   0.231   3.930
12383TIP3    H237095   1.759   0.202   3.814
12384TIP3   OH237096   5.331   5.211   5.445
12384TIP3    H137097   5.321   5.139   5.507
12384TIP3    H237098   5.313   5.290   5.496
12385TIP3   OH237099   4.605   2.421   5.023
12385TIP3    H137100   4.697   2.440   5.003
12385TIP3    H237101   4.607   2.333   5.061
12386TIP3   OH237102   6.542   4.747   1.074
12386TIP3    H137103   6.604   4.691   1.027
12386TIP3    H237104   6.543   4.715   1.164
12387TIP3   OH237105   8.145   1.738   3.804
12387TIP3    H137106   8.112   1.787   3.880
12387TIP3    H237107   8.228   1.780   3.783
12388TIP3   OH237108   0.513   2.479   5.743
12388TIP3    H137109   0.577   2.550   5.738
12388TIP3    H237110   0.480   2.471   5.653
12389TIP3   OH237111   6.230   5.877   4.571
12389TIP3    H137112   6.265   5.925   4.646
12389TIP3    H237113   6.262   5.788   4.582
12390TIP3   OH237114   4.678   7.453   3.010
12390TIP3    H137115   4.594   7.412   2.989
12390TIP3    H237116   4.742   7.383   3.002
12391TIP3   OH237117   7.551   0.782   3.215
12391TIP3    H137118   7.599   0.842   3.158
12391TIP3    H237119   7.523   0.711   3.158
12392TIP3   OH237120   6.151   0.182   5.264
12392TIP3    H137121   6.099   0.104   5.283
12392TIP3    H237122   6.086   0.252   5.253
12393TIP3   OH237123   6.732   5.417   4.864
12393TIP3    H137124   6.710   5.436   4.955
12393TIP3    H237125   6.776   5.333   4.866
12394TIP3   OH237126   4.584   7.791   0.330
12394TIP3    H137127   4.560   7.710   0.373
12394TIP3    H237128   4.504   7.820   0.286
12395TIP3   OH237129   2.833   2.510   0.024
12395TIP3    H137130   2.779   2.582   0.055
12395TIP3    H237131   2.872   2.473   0.104
12396TIP3   OH237132   7.759   3.280   3.767
12396TIP3    H137133   7.711   3.218   3.822
12396TIP3    H237134   7.848   3.279   3.801
12397TIP3   OH237135   1.600   1.914   1.416
12397TIP3    H137136   1.551   1.934   1.496
12397TIP3    H237137   1.535   1.918   1.346
12398TIP3   OH237138   5.113   4.568   6.362
12398TIP3    H137139   5.029   4.610   6.379
12398TIP3    H237140   5.151   4.618   6.290
12399TIP3   OH237141   0.375   7.251   2.577
12399TIP3    H137142   0.384   7.175   2.634
12399TIP3    H237143   0.335   7.318   2.632
12400TIP3   OH237144   7.797   6.672   0.985
12400TIP3    H137145   7.892   6.666   0.973
12400TIP3    H237146   7.786   6.699   1.076
12401TIP3   OH237147   0.535   0.441   3.120
12401TIP3    H137148   0.498   0.503   3.057
12401TIP3    H237149   0.460   0.389   3.150
12402TIP3   OH237150   5.826   5.725   5.705
12402TIP3    H137151   5.812   5.746   5.797
12402TIP3    H237152   5.892   5.788   5.675
12403TIP3   OH237153   0.574   2.132   5.426
12403TIP3    H137154   0.651   2.092   5.386
12403TIP3    H237155   0.608   2.177   5.504
12404TIP3   OH237156   5.930   4.445   2.620
12404TIP3    H137157   5.839   4.429   2.594
12404TIP3    H237158   5.925   4.523   2.675
12405TIP3   OH237159   4.381   2.290   6.660
12405TIP3    H137160   4.365   2.368   6.606
12405TIP3    H237161   4.440   2.321   6.729
12406TIP3   OH237162   1.126   6.585   1.499
12406TIP3    H137163   1.177   6.626   1.569
12406TIP3    H237164   1.096   6.659   1.446
12407TIP3   OH237165   2.549   6.151   4.418
12407TIP3    H137166   2.518   6.218   4.357
12407TIP3    H237167   2.633   6.184   4.448
12408TIP3   OH237168   3.140   4.997   1.594
12408TIP3    H137169   3.169   5.018   1.506
12408TIP3    H237170   3.088   5.072   1.621
12409TIP3   OH237171   0.442   0.365   6.125
12409TIP3    H137172   0.464   0.458   6.112
12409TIP3    H237173   0.517   0.329   6.173
12410TIP3   OH237174   3.480   6.498   0.760
12410TIP3    H137175   3.457   6.589   0.743
12410TIP3    H237176   3.430   6.448   0.696
12411TIP3   OH237177   5.179   4.061   1.514
12411TIP3    H137178   5.182   3.986   1.455
12411TIP3    H237179   5.132   4.029   1.591
12412TIP3   OH237180   3.058   0.132   5.404
12412TIP3    H137181   3.108   0.127   5.486
12412TIP3    H237182   3.115   0.094   5.338
12413TIP3   OH237183   8.195   6.553   5.278
12413TIP3    H137184   8.113   6.602   5.289
12413TIP3    H237185   8.186   6.477   5.335
12414TIP3   OH237186   3.049   2.763   3.898
12414TIP3    H137187   3.080   2.713   3.822
12414TIP3    H237188   2.968   2.804   3.868
12415TIP3   OH237189   4.338   1.161   3.455
12415TIP3    H137190   4.303   1.245   3.484
12415TIP3    H237191   4.397   1.135   3.526
12416TIP3   OH237192   6.774   2.680   0.663
12416TIP3    H137193   6.781   2.621   0.738
12416TIP3    H237194   6.852   2.735   0.669
12417TIP3   OH237195   5.776   3.786   0.907
12417TIP3    H137196   5.739   3.797   0.819
12417TIP3    H237197   5.854   3.733   0.893
12418TIP3   OH237198   2.589   2.053   3.462
12418TIP3    H137199   2.637   2.135   3.477
12418TIP3    H237200   2.552   2.062   3.374
12419TIP3   OH237201   4.493   2.732   5.019
12419TIP3    H137202   4.537   2.649   5.036
12419TIP3    H237203   4.494   2.740   4.923
12420TIP3   OH237204   5.685   2.343   5.774
12420TIP3    H137205   5.677   2.323   5.867
12420TIP3    H237206   5.595   2.339   5.741
12421TIP3   OH237207   1.195   6.014   2.527
12421TIP3    H137208   1.118   6.069   2.542
12421TIP3    H237209   1.162   5.924   2.533
12422TIP3   OH237210   1.168   3.872   1.360
12422TIP3    H137211   1.140   3.789   1.398
12422TIP3    H237212   1.110   3.883   1.284
12423TIP3   OH237213   0.598   4.580   2.506
12423TIP3    H137214   0.554   4.495   2.505
12423TIP3    H237215   0.538   4.638   2.553
12424TIP3   OH237216   4.491   1.978   4.356
12424TIP3    H137217   4.522   1.900   4.311
12424TIP3    H237218   4.402   1.955   4.385
12425TIP3   OH237219   0.814   1.684   2.748
12425TIP3    H137220   0.902   1.714   2.771
12425TIP3    H237221   0.816   1.677   2.653
12426TIP3   OH237222   7.946   4.589   6.063
12426TIP3    H137223   7.939   4.543   6.146
12426TIP3    H237224   8.028   4.639   6.071
12427TIP3   OH237225   0.639   1.289   0.238
12427TIP3    H137226   0.565   1.333   0.197
12427TIP3    H237227   0.650   1.209   0.187
12428TIP3   OH237228   0.355   4.516   0.652
12428TIP3    H137229   0.323   4.491   0.739
12428TIP3    H237230   0.283   4.495   0.593
12429TIP3   OH237231   5.927   1.839   6.579
12429TIP3    H137232   5.845   1.859   6.535
12429TIP3    H237233   5.993   1.888   6.530
12430TIP3   OH237234   2.793   2.085   0.717
12430TIP3    H137235   2.722   2.122   0.768
12430TIP3    H237236   2.750   2.036   0.647
12431TIP3   OH237237   6.733   1.966   4.538
12431TIP3    H137238   6.804   1.902   4.534
12431TIP3    H237239   6.727   2.000   4.449
12432TIP3   OH237240   3.955   4.225   1.321
12432TIP3    H137241   4.020   4.265   1.378
12432TIP3    H237242   3.923   4.297   1.266
12433TIP3   OH237243   3.375   2.122   0.340
12433TIP3    H137244   3.450   2.151   0.289
12433TIP3    H237245   3.301   2.127   0.280
12434TIP3   OH237246   1.934   6.187   5.288
12434TIP3    H137247   1.923   6.203   5.382
12434TIP3    H237248   1.921   6.272   5.248
12435TIP3   OH237249   7.784   4.828   0.096
12435TIP3    H137250   7.878   4.822   0.109
12435TIP3    H237251   7.756   4.739   0.077
12436TIP3   OH237252   1.134   5.274   1.895
12436TIP3    H137253   1.113   5.358   1.854
12436TIP3    H237254   1.230   5.274   1.901
12437TIP3   OH237255   1.995   2.695   3.116
12437TIP3    H137256   1.970   2.776   3.162
12437TIP3    H237257   2.001   2.721   3.024
12438TIP3   OH237258   1.095   2.813   1.925
12438TIP3    H137259   1.120   2.835   2.014
12438TIP3    H237260   1.037   2.737   1.934
12439TIP3   OH237261   5.677   2.585   1.576
12439TIP3    H137262   5.631   2.667   1.562
12439TIP3    H237263   5.719   2.566   1.492
12440TIP3   OH237264   8.196   0.369   5.882
12440TIP3    H137265   8.227   0.281   5.862
12440TIP3    H237266   8.111   0.376   5.838
12441TIP3   OH237267   2.033   3.358   5.629
12441TIP3    H137268   1.990   3.300   5.566
12441TIP3    H237269   2.060   3.434   5.577
12442TIP3   OH237270   6.911   3.816   0.680
12442TIP3    H137271   6.822   3.798   0.651
12442TIP3    H237272   6.912   3.910   0.699
12443TIP3   OH237273   1.194   1.488   5.236
12443TIP3    H137274   1.136   1.421   5.272
12443TIP3    H237275   1.171   1.568   5.284
12444TIP3   OH237276   5.165   1.553   6.113
12444TIP3    H137277   5.094   1.608   6.147
12444TIP3    H237278   5.162   1.474   6.166
12445TIP3   OH237279   5.652   3.077   2.228
12445TIP3    H137280   5.596   3.001   2.210
12445TIP3    H237281   5.740   3.041   2.231
12446TIP3   OH237282   2.317   6.985   2.425
12446TIP3    H137283   2.280   7.005   2.511
12446TIP3    H237284   2.242   6.955   2.373
12447TIP3   OH237285   0.758   6.694   3.705
12447TIP3    H137286   0.814   6.729   3.635
12447TIP3    H237287   0.776   6.750   3.780
12448TIP3   OH237288   7.266   7.265   1.100
12448TIP3    H137289   7.208   7.197   1.067
12448TIP3    H237290   7.303   7.306   1.021
12449TIP3   OH237291   6.735   3.865   4.098
12449TIP3    H137292   6.756   3.934   4.035
12449TIP3    H237293   6.803   3.799   4.085
12450TIP3   OH237294   2.955   5.917   4.432
12450TIP3    H137295   2.886   5.904   4.498
12450TIP3    H237296   3.024   5.856   4.457
12451TIP3   OH237297   4.373   3.249   1.401
12451TIP3    H137298   4.436   3.290   1.342
12451TIP3    H237299   4.357   3.315   1.469
12452TIP3   OH237300   1.470   1.138   2.462
12452TIP3    H137301   1.482   1.209   2.398
12452TIP3    H237302   1.558   1.120   2.494
12453TIP3   OH237303   4.570   1.900   3.984
12453TIP3    H137304   4.515   1.952   3.926
12453TIP3    H237305   4.639   1.960   4.012
12454TIP3   OH237306   8.078   2.788   6.840
12454TIP3    H137307   8.019   2.863   6.850
12454TIP3    H237308   8.045   2.741   6.764
12455TIP3   OH237309   1.030   3.502   4.174
12455TIP3    H137310   1.020   3.576   4.115
12455TIP3    H237311   1.071   3.538   4.252
12456TIP3   OH237312   2.770   0.095   6.499
12456TIP3    H137313   2.766   0.046   6.582
12456TIP3    H237314   2.709   0.168   6.511
12457TIP3   OH237315   1.911   5.376   6.389
12457TIP3    H137316   1.957   5.355   6.308
12457TIP3    H237317   1.979   5.387   6.454
12458TIP3   OH237318   6.460   1.352   5.215
12458TIP3    H137319   6.485   1.300   5.139
12458TIP3    H237320   6.367   1.371   5.201
12459TIP3   OH237321   1.448   6.250   5.377
12459TIP3    H137322   1.472   6.167   5.335
12459TIP3    H237323   1.400   6.224   5.456
12460TIP3   OH237324   7.073   3.029   6.010
12460TIP3    H137325   7.066   3.119   5.978
12460TIP3    H237326   6.996   3.017   6.066
12461TIP3   OH237327   6.625   6.107   1.418
12461TIP3    H137328   6.587   6.027   1.455
12461TIP3    H237329   6.564   6.176   1.441
12462TIP3   OH237330   5.953   4.032   6.242
12462TIP3    H137331   5.941   4.121   6.210
12462TIP3    H237332   5.885   4.021   6.309
12463TIP3   OH237333   2.288   5.159   4.058
12463TIP3    H137334   2.323   5.247   4.045
12463TIP3    H237335   2.194   5.167   4.042
12464TIP3   OH237336   0.585   5.782   2.082
12464TIP3    H137337   0.515   5.840   2.110
12464TIP3    H237338   0.665   5.833   2.095
12465TIP3   OH237339   7.719   4.795   3.359
12465TIP3    H137340   7.725   4.827   3.449
12465TIP3    H237341   7.626   4.803   3.337
12466TIP3   OH237342   7.844   5.166   6.398
12466TIP3    H137343   7.863   5.117   6.478
12466TIP3    H237344   7.757   5.136   6.372
12467TIP3   OH237345   7.631   3.434   0.463
12467TIP3    H137346   7.617   3.369   0.394
12467TIP3    H237347   7.557   3.421   0.522
12468TIP3   OH237348   8.100   4.062   1.667
12468TIP3    H137349   8.110   4.027   1.756
12468TIP3    H237350   8.062   4.149   1.680
12469TIP3   OH237351   7.737   5.522   5.869
12469TIP3    H137352   7.829   5.542   5.849
12469TIP3    H237353   7.689   5.547   5.790
12470TIP3   OH237354   7.399   3.364   6.636
12470TIP3    H137355   7.310   3.347   6.604
12470TIP3    H237356   7.421   3.286   6.687
12471TIP3   OH237357   7.714   4.360   5.595
12471TIP3    H137358   7.791   4.336   5.646
12471TIP3    H237359   7.728   4.317   5.510
12472TIP3   OH237360   5.639   2.372   1.940
12472TIP3    H137361   5.714   2.426   1.963
12472TIP3    H237362   5.672   2.282   1.941
12473TIP3   OH237363   5.648   3.312   5.475
12473TIP3    H137364   5.669   3.384   5.417
12473TIP3    H237365   5.584   3.259   5.427
12474TIP3   OH237366   2.222   0.184   3.948
12474TIP3    H137367   2.179   0.210   4.030
12474TIP3    H237368   2.192   0.094   3.934
12475TIP3   OH237369   1.492   0.424   1.182
12475TIP3    H137370   1.425   0.487   1.208
12475TIP3    H237371   1.569   0.479   1.163
12476TIP3   OH237372   2.632   6.761   5.181
12476TIP3    H137373   2.686   6.688   5.150
12476TIP3    H237374   2.669   6.783   5.267
12477TIP3   OH237375   3.105   4.465   3.739
12477TIP3    H137376   3.065   4.399   3.682
12477TIP3    H237377   3.128   4.537   3.679
12478TIP3   OH237378   7.656   1.375   1.257
12478TIP3    H137379   7.643   1.379   1.162
12478TIP3    H237380   7.570   1.350   1.292
12479TIP3   OH237381   4.725   6.796   1.050
12479TIP3    H137382   4.794   6.856   1.023
12479TIP3    H237383   4.707   6.818   1.141
12480TIP3   OH237384   4.830   3.992   0.969
12480TIP3    H137385   4.877   3.965   1.048
12480TIP3    H237386   4.738   3.973   0.988
12481TIP3   OH237387   4.803   0.366   2.297
12481TIP3    H137388   4.779   0.276   2.318
12481TIP3    H237389   4.898   0.366   2.296
12482TIP3   OH237390   3.609   4.410   6.668
12482TIP3    H137391   3.683   4.469   6.675
12482TIP3    H237392   3.564   4.417   6.752
12483TIP3   OH237393   2.537   0.721   3.356
12483TIP3    H137394   2.497   0.702   3.441
12483TIP3    H237395   2.513   0.647   3.301
12484TIP3   OH237396   7.122   1.071   4.541
12484TIP3    H137397   7.048   1.079   4.601
12484TIP3    H237398   7.137   0.977   4.532
12485TIP3   OH237399   2.483   2.201   5.583
12485TIP3    H137400   2.406   2.157   5.618
12485TIP3    H237401   2.478   2.188   5.489
12486TIP3   OH237402   1.136   1.810   1.110
12486TIP3    H137403   1.076   1.822   1.036
12486TIP3    H237404   1.162   1.718   1.105
12487TIP3   OH237405   7.832   6.258   0.137
12487TIP3    H137406   7.903   6.300   0.185
12487TIP3    H237407   7.761   6.250   0.201
12488TIP3   OH237408   5.401   7.729   3.956
12488TIP3    H137409   5.395   7.653   3.898
12488TIP3    H237410   5.421   7.692   4.042
12489TIP3   OH237411   1.121   0.866   0.252
12489TIP3    H137412   1.181   0.895   0.320
12489TIP3    H237413   1.178   0.844   0.178
12490TIP3   OH237414   5.887   5.131   6.604
12490TIP3    H137415   5.833   5.061   6.567
12490TIP3    H237416   5.976   5.112   6.574
12491TIP3   OH237417   7.462   2.841   5.521
12491TIP3    H137418   7.449   2.936   5.526
12491TIP3    H237419   7.450   2.810   5.610
12492TIP3   OH237420   8.296   4.859   3.683
12492TIP3    H137421   8.214   4.907   3.693
12492TIP3    H237422   8.318   4.831   3.772
12493TIP3   OH237423   5.582   2.406   2.895
12493TIP3    H137424   5.615   2.384   2.808
12493TIP3    H237425   5.544   2.325   2.928
12494TIP3   OH237426   8.213   2.022   5.747
12494TIP3    H137427   8.229   2.085   5.677
12494TIP3    H237428   8.300   1.991   5.772
12495TIP3   OH237429   2.484   1.211   3.123
12495TIP3    H137430   2.437   1.181   3.201
12495TIP3    H237431   2.427   1.187   3.050
12496TIP3   OH237432   1.803   3.264   3.575
12496TIP3    H137433   1.713   3.278   3.603
12496TIP3    H237434   1.855   3.323   3.630
12497TIP3   OH237435   0.902   1.628   3.889
12497TIP3    H137436   0.909   1.701   3.950
12497TIP3    H237437   0.844   1.660   3.820
12498TIP3   OH237438   4.621   4.852   0.943
12498TIP3    H137439   4.634   4.763   0.911
12498TIP3    H237440   4.528   4.855   0.967
12499TIP3   OH237441   5.683   0.014   5.757
12499TIP3    H137442   5.635   0.019   5.840
12499TIP3    H237443   5.618   0.037   5.690
12500TIP3   OH237444   4.043   6.722   4.390
12500TIP3    H137445   4.086   6.641   4.362
12500TIP3    H237446   3.955   6.695   4.416
12501TIP3   OH237447   0.811   5.551   4.865
12501TIP3    H137448   0.790   5.530   4.956
12501TIP3    H237449   0.748   5.619   4.842
12502TIP3   OH237450   5.436   4.904   3.867
12502TIP3    H137451   5.430   4.997   3.885
12502TIP3    H237452   5.372   4.888   3.798
12503TIP3   OH237453   7.385   7.120   6.665
12503TIP3    H137454   7.368   7.042   6.612
12503TIP3    H237455   7.384   7.089   6.755
12504TIP3   OH237456   6.817   4.170   5.246
12504TIP3    H137457   6.724   4.152   5.232
12504TIP3    H237458   6.833   4.251   5.197
12505TIP3   OH237459   4.786   0.723   1.745
12505TIP3    H137460   4.697   0.759   1.745
12505TIP3    H237461   4.798   0.688   1.833
12506TIP3   OH237462   5.753   6.871   5.959
12506TIP3    H137463   5.788   6.918   6.035
12506TIP3    H237464   5.829   6.827   5.922
12507TIP3   OH237465   2.990   3.622   3.347
12507TIP3    H137466   3.031   3.658   3.268
12507TIP3    H237467   3.031   3.536   3.358
12508TIP3   OH237468   3.573   6.912   3.135
12508TIP3    H137469   3.621   6.922   3.217
12508TIP3    H237470   3.481   6.928   3.159
12509TIP3   OH237471   2.203   4.104   1.238
12509TIP3    H137472   2.209   4.179   1.296
12509TIP3    H237473   2.284   4.055   1.254
12510TIP3   OH237474   6.749   3.460   1.597
12510TIP3    H137475   6.772   3.433   1.508
12510TIP3    H237476   6.729   3.554   1.588
12511TIP3   OH237477   7.440   5.144   4.249
12511TIP3    H137478   7.445   5.198   4.328
12511TIP3    H237479   7.519   5.167   4.200
12512TIP3   OH237480   5.889   7.516   0.684
12512TIP3    H137481   5.962   7.564   0.645
12512TIP3    H237482   5.924   7.429   0.703
12513TIP3   OH237483   7.777   7.229   6.638
12513TIP3    H137484   7.783   7.325   6.636
12513TIP3    H237485   7.858   7.199   6.598
12514TIP3   OH237486   4.835   3.821   5.334
12514TIP3    H137487   4.903   3.772   5.380
12514TIP3    H237488   4.876   3.849   5.252
12515TIP3   OH237489   5.503   6.113   6.199
12515TIP3    H137490   5.443   6.109   6.124
12515TIP3    H237491   5.448   6.093   6.274
12516TIP3   OH237492   6.187   1.349   0.785
12516TIP3    H137493   6.126   1.278   0.765
12516TIP3    H237494   6.131   1.426   0.798
12517TIP3   OH237495   7.934   4.476   3.514
12517TIP3    H137496   7.934   4.507   3.424
12517TIP3    H237497   7.916   4.553   3.567
12518TIP3   OH237498   4.162   5.213   3.944
12518TIP3    H137499   4.212   5.228   3.863
12518TIP3    H237500   4.200   5.132   3.980
12519TIP3   OH237501   6.626   2.863   0.483
12519TIP3    H137502   6.674   2.804   0.542
12519TIP3    H237503   6.570   2.805   0.432
12520TIP3   OH237504   6.159   4.302   5.482
12520TIP3    H137505   6.147   4.209   5.462
12520TIP3    H237506   6.254   4.313   5.488
12521TIP3   OH237507   3.025   6.551   3.436
12521TIP3    H137508   3.040   6.495   3.512
12521TIP3    H237509   2.972   6.624   3.470
12522TIP3   OH237510   4.010   5.836   3.110
12522TIP3    H137511   4.082   5.875   3.060
12522TIP3    H237512   4.029   5.860   3.201
12523TIP3   OH237513   4.893   0.708   2.835
12523TIP3    H137514   4.836   0.640   2.870
12523TIP3    H237515   4.976   0.663   2.816
12524TIP3   OH237516   1.099   2.086   5.448
12524TIP3    H137517   1.113   2.083   5.543
12524TIP3    H237518   1.046   2.165   5.434
12525TIP3   OH237519   5.502   4.924   3.167
12525TIP3    H137520   5.581   4.871   3.181
12525TIP3    H237521   5.532   5.014   3.171
12526TIP3   OH237522   8.084   4.240   2.725
12526TIP3    H137523   8.086   4.219   2.631
12526TIP3    H237524   8.008   4.298   2.735
12527TIP3   OH237525   6.518   6.387   4.318
12527TIP3    H137526   6.458   6.456   4.293
12527TIP3    H237527   6.582   6.383   4.246
12528TIP3   OH237528   1.056   2.442   5.630
12528TIP3    H137529   1.056   2.351   5.662
12528TIP3    H237530   1.135   2.448   5.577
12529TIP3   OH237531   2.025   4.428   3.180
12529TIP3    H137532   2.086   4.361   3.152
12529TIP3    H237533   2.048   4.505   3.128
12530TIP3   OH237534   5.311   1.470   5.384
12530TIP3    H137535   5.228   1.512   5.361
12530TIP3    H237536   5.324   1.405   5.315
12531TIP3   OH237537   4.654   6.796   2.626
12531TIP3    H137538   4.585   6.833   2.681
12531TIP3    H237539   4.624   6.707   2.606
12532TIP3   OH237540   5.863   5.737   6.009
12532TIP3    H137541   5.950   5.744   6.047
12532TIP3    H237542   5.808   5.791   6.065
12533TIP3   OH237543   1.964   4.436   0.141
12533TIP3    H137544   1.889   4.377   0.152
12533TIP3    H237545   2.040   4.378   0.142
12534TIP3   OH237546   0.439   5.194   0.607
12534TIP3    H137547   0.527   5.169   0.577
12534TIP3    H237548   0.383   5.121   0.580
12535TIP3   OH237549   6.794   6.305   2.031
12535TIP3    H137550   6.852   6.238   1.995
12535TIP3    H237551   6.816   6.384   1.982
12536TIP3   OH237552   7.073   0.245   0.860
12536TIP3    H137553   7.017   0.231   0.783
12536TIP3    H237554   7.151   0.193   0.842
12537TIP3   OH237555   1.494   3.408   1.909
12537TIP3    H137556   1.523   3.496   1.932
12537TIP3    H237557   1.545   3.386   1.830
12538TIP3   OH237558   1.921   5.714   3.176
12538TIP3    H137559   1.987   5.673   3.231
12538TIP3    H237560   1.926   5.667   3.093
12539TIP3   OH237561   2.073   2.548   1.020
12539TIP3    H137562   2.059   2.454   1.036
12539TIP3    H237563   2.054   2.559   0.926
12540TIP3   OH237564   2.455   5.529   2.414
12540TIP3    H137565   2.408   5.538   2.331
12540TIP3    H237566   2.541   5.567   2.397
12541TIP3   OH237567   7.875   4.243   3.233
12541TIP3    H137568   7.847   4.170   3.177
12541TIP3    H237569   7.916   4.202   3.308
12542TIP3   OH237570   7.838   7.600   5.179
12542TIP3    H137571   7.925   7.636   5.192
12542TIP3    H237572   7.823   7.604   5.085
12543TIP3   OH237573   0.566   5.158   5.704
12543TIP3    H137574   0.628   5.222   5.740
12543TIP3    H237575   0.605   5.073   5.725
12544TIP3   OH237576   0.130   5.475   1.212
12544TIP3    H137577   0.179   5.505   1.136
12544TIP3    H237578   0.174   5.516   1.287
12545TIP3   OH237579   2.851   3.180   4.545
12545TIP3    H137580   2.831   3.270   4.568
12545TIP3    H237581   2.909   3.186   4.469
12546TIP3   OH237582   4.280   0.643   4.143
12546TIP3    H137583   4.358   0.672   4.190
12546TIP3    H237584   4.226   0.600   4.210
12547TIP3   OH237585   5.929   1.043   1.150
12547TIP3    H137586   6.006   1.100   1.151
12547TIP3    H237587   5.893   1.049   1.239
12548TIP3   OH237588   3.514   1.133   4.306
12548TIP3    H137589   3.559   1.174   4.232
12548TIP3    H237590   3.584   1.109   4.366
12549TIP3   OH237591   2.242   4.093   6.122
12549TIP3    H137592   2.177   4.054   6.063
12549TIP3    H237593   2.274   4.170   6.075
12550TIP3   OH237594   0.718   2.091   6.540
12550TIP3    H137595   0.670   2.017   6.501
12550TIP3    H237596   0.760   2.134   6.466
12551TIP3   OH237597   4.331   0.903   0.078
12551TIP3    H137598   4.392   0.961   0.033
12551TIP3    H237599   4.353   0.815   0.047
12552TIP3   OH237600   6.078   6.294   6.753
12552TIP3    H137601   6.009   6.357   6.774
12552TIP3    H237602   6.050   6.253   6.671
12553TIP3   OH237603   2.028   2.880   6.363
12553TIP3    H137604   1.942   2.840   6.370
12553TIP3    H237605   2.018   2.949   6.297
12554TIP3   OH237606   2.208   0.116   2.207
12554TIP3    H137607   2.274   0.048   2.195
12554TIP3    H237608   2.155   0.112   2.127
12555TIP3   OH237609   5.420   1.288   5.773
12555TIP3    H137610   5.433   1.214   5.714
12555TIP3    H237611   5.436   1.252   5.860
12556TIP3   OH237612   5.564   3.167   1.503
12556TIP3    H137613   5.520   3.156   1.419
12556TIP3    H237614   5.648   3.208   1.481
12557TIP3   OH237615   8.066   5.002   3.825
12557TIP3    H137616   8.112   5.020   3.907
12557TIP3    H237617   8.057   4.907   3.823
12558TIP3   OH237618   1.009   3.963   4.274
12558TIP3    H137619   0.983   3.878   4.309
12558TIP3    H237620   0.931   4.018   4.285
12559TIP3   OH237621   6.752   4.271   4.938
12559TIP3    H137622   6.664   4.308   4.947
12559TIP3    H237623   6.807   4.326   4.993
12560TIP3   OH237624   2.143   3.616   1.120
12560TIP3    H137625   2.163   3.682   1.187
12560TIP3    H237626   2.152   3.662   1.037
12561TIP3   OH237627   0.946   3.744   0.767
12561TIP3    H137628   0.986   3.661   0.792
12561TIP3    H237629   0.969   3.804   0.838
12562TIP3   OH237630   3.737   0.574   6.092
12562TIP3    H137631   3.644   0.596   6.100
12562TIP3    H237632   3.742   0.482   6.121
12563TIP3   OH237633   1.842   1.064   2.171
12563TIP3    H137634   1.888   1.127   2.116
12563TIP3    H237635   1.844   0.983   2.120
12564TIP3   OH237636   5.425   6.775   5.218
12564TIP3    H137637   5.393   6.772   5.128
12564TIP3    H237638   5.373   6.710   5.265
12565TIP3   OH237639   0.209   0.348   1.209
12565TIP3    H137640   0.214   0.346   1.304
12565TIP3    H237641   0.130   0.399   1.190
12566TIP3   OH237642   2.728   5.149   3.419
12566TIP3    H137643   2.744   5.198   3.338
12566TIP3    H237644   2.656   5.196   3.461
12567TIP3   OH237645   2.338   2.822   5.631
12567TIP3    H137646   2.395   2.817   5.708
12567TIP3    H237647   2.295   2.908   5.639
12568TIP3   OH237648   3.033   0.007   5.936
12568TIP3    H137649   3.048   0.011   6.030
12568TIP3    H237650   3.102   0.061   5.898
12569TIP3   OH237651   3.524   2.314   3.357
12569TIP3    H137652   3.432   2.338   3.354
12569TIP3    H237653   3.526   2.221   3.334
12570TIP3   OH237654   6.650   2.539   2.218
12570TIP3    H137655   6.636   2.595   2.142
12570TIP3    H237656   6.633   2.595   2.294
12571TIP3   OH237657   5.421   5.773   3.639
12571TIP3    H137658   5.393   5.784   3.548
12571TIP3    H237659   5.496   5.832   3.648
12572TIP3   OH237660   1.167   1.371   5.931
12572TIP3    H137661   1.161   1.277   5.917
12572TIP3    H237662   1.166   1.409   5.843
12573TIP3   OH237663   0.362   2.661   1.880
12573TIP3    H137664   0.428   2.718   1.841
12573TIP3    H237665   0.376   2.668   1.975
12574TIP3   OH237666   6.593   3.635   4.148
12574TIP3    H137667   6.623   3.705   4.090
12574TIP3    H237668   6.501   3.621   4.123
12575TIP3   OH237669   6.932   0.660   1.019
12575TIP3    H137670   7.004   0.597   1.028
12575TIP3    H237671   6.973   0.738   0.982
12576TIP3   OH237672   4.789   2.406   1.818
12576TIP3    H137673   4.698   2.382   1.801
12576TIP3    H237674   4.794   2.500   1.797
12577TIP3   OH237675   3.203   6.358   1.121
12577TIP3    H137676   3.299   6.352   1.117
12577TIP3    H237677   3.173   6.328   1.035
12578TIP3   OH237678   5.050   3.359   3.574
12578TIP3    H137679   5.023   3.283   3.626
12578TIP3    H237680   5.010   3.434   3.617
12579TIP3   OH237681   6.263   4.626   4.863
12579TIP3    H137682   6.229   4.559   4.923
12579TIP3    H237683   6.352   4.643   4.895
12580TIP3   OH237684   0.515   5.983   2.425
12580TIP3    H137685   0.477   5.968   2.339
12580TIP3    H237686   0.510   5.898   2.469
12581TIP3   OH237687   5.553   3.463   0.160
12581TIP3    H137688   5.565   3.491   0.251
12581TIP3    H237689   5.523   3.372   0.167
12582TIP3   OH237690   3.917   2.235   6.299
12582TIP3    H137691   3.888   2.157   6.252
12582TIP3    H237692   3.924   2.303   6.231
12583TIP3   OH237693   1.938   3.548   1.468
12583TIP3    H137694   1.846   3.570   1.458
12583TIP3    H237695   1.942   3.454   1.455
12584TIP3   OH237696   2.320   0.545   4.302
12584TIP3    H137697   2.377   0.469   4.304
12584TIP3    H237698   2.305   0.561   4.209
12585TIP3   OH237699   8.066   5.440   1.833
12585TIP3    H137700   7.995   5.411   1.776
12585TIP3    H237701   8.065   5.535   1.827
12586TIP3   OH237702   6.564   1.728   4.145
12586TIP3    H137703   6.559   1.816   4.108
12586TIP3    H237704   6.608   1.677   4.077
12587TIP3   OH237705   4.054   5.253   4.445
12587TIP3    H137706   4.058   5.289   4.357
12587TIP3    H237707   3.964   5.223   4.456
12588TIP3   OH237708   5.353   0.383   2.422
12588TIP3    H137709   5.419   0.444   2.456
12588TIP3    H237710   5.396   0.297   2.425
12589TIP3   OH237711   0.263   0.469   5.239
12589TIP3    H137712   0.248   0.388   5.190
12589TIP3    H237713   0.307   0.441   5.319
12590TIP3   OH237714   0.203   3.217   5.992
12590TIP3    H137715   0.172   3.291   6.044
12590TIP3    H237716   0.136   3.149   6.005
12591TIP3   OH237717   0.106   4.512   1.148
12591TIP3    H137718   0.076   4.573   1.081
12591TIP3    H237719   0.039   4.517   1.216
12592TIP3   OH237720   6.175   2.862   3.810
12592TIP3    H137721   6.187   2.781   3.759
12592TIP3    H237722   6.149   2.832   3.897
12593TIP3   OH237723   1.366   0.008   5.284
12593TIP3    H137724   1.378   0.095   5.244
12593TIP3    H237725   1.450  -0.036   5.268
12594TIP3   OH237726   2.587   4.996   6.706
12594TIP3    H137727   2.542   5.057   6.647
12594TIP3    H237728   2.521   4.929   6.724
12595TIP3   OH237729   4.001   6.506   6.248
12595TIP3    H137730   3.949   6.586   6.243
12595TIP3    H237731   4.085   6.529   6.209
12596TIP3   OH237732   2.461   4.040   2.796
12596TIP3    H137733   2.504   4.099   2.734
12596TIP3    H237734   2.531   3.985   2.829
12597TIP3   OH237735   6.165   0.855   0.399
12597TIP3    H137736   6.084   0.899   0.426
12597TIP3    H237737   6.191   0.900   0.319
12598TIP3   OH237738   5.896   5.612   4.946
12598TIP3    H137739   5.882   5.520   4.967
12598TIP3    H237740   5.808   5.649   4.943
12599TIP3   OH237741   6.974   6.243   3.183
12599TIP3    H137742   6.899   6.302   3.198
12599TIP3    H237743   7.046   6.302   3.161
12600TIP3   OH237744   6.449   3.378   1.017
12600TIP3    H137745   6.459   3.284   1.007
12600TIP3    H237746   6.382   3.401   0.951
12601TIP3   OH237747   3.530   2.095   3.733
12601TIP3    H137748   3.472   2.082   3.659
12601TIP3    H237749   3.583   2.015   3.738
12602TIP3   OH237750   2.234   2.397   1.931
12602TIP3    H137751   2.229   2.443   1.847
12602TIP3    H237752   2.272   2.461   1.991
12603TIP3   OH237753   3.159   3.308   2.440
12603TIP3    H137754   3.095   3.366   2.481
12603TIP3    H237755   3.115   3.223   2.437
12604TIP3   OH237756   3.675   7.196   5.782
12604TIP3    H137757   3.753   7.250   5.777
12604TIP3    H237758   3.608   7.254   5.819
12605TIP3   OH237759   3.657   6.529   5.417
12605TIP3    H137760   3.566   6.516   5.390
12605TIP3    H237761   3.679   6.618   5.390
12606TIP3   OH237762   3.433   5.158   3.869
12606TIP3    H137763   3.389   5.108   3.938
12606TIP3    H237764   3.480   5.227   3.916
12607TIP3   OH237765   0.249   4.567   6.624
12607TIP3    H137766   0.234   4.653   6.662
12607TIP3    H237767   0.220   4.505   6.691
12608TIP3   OH237768   1.687   7.104   2.525
12608TIP3    H137769   1.745   7.037   2.562
12608TIP3    H237770   1.717   7.114   2.435
12609TIP3   OH237771   5.809   2.607   5.159
12609TIP3    H137772   5.857   2.669   5.213
12609TIP3    H237773   5.852   2.611   5.074
12610TIP3   OH237774   6.895   4.857   5.377
12610TIP3    H137775   6.939   4.885   5.297
12610TIP3    H237776   6.963   4.813   5.428
12611TIP3   OH237777   6.095   5.796   5.038
12611TIP3    H137778   6.123   5.794   5.129
12611TIP3    H237779   6.028   5.727   5.033
12612TIP3   OH237780   2.395   5.406   4.124
12612TIP3    H137781   2.421   5.473   4.060
12612TIP3    H237782   2.326   5.448   4.175
12613TIP3   OH237783   4.438   6.306   4.919
12613TIP3    H137784   4.519   6.277   4.877
12613TIP3    H237785   4.444   6.402   4.921
12614TIP3   OH237786   7.426   5.787   1.250
12614TIP3    H137787   7.353   5.850   1.244
12614TIP3    H237788   7.489   5.819   1.185
12615TIP3   OH237789   3.952   6.572   5.189
12615TIP3    H137790   3.924   6.502   5.248
12615TIP3    H237791   4.016   6.530   5.131
12616TIP3   OH237792   7.329   6.215   1.489
12616TIP3    H137793   7.394   6.164   1.441
12616TIP3    H237794   7.271   6.149   1.528
12617TIP3   OH237795   0.297   2.478   1.561
12617TIP3    H137796   0.280   2.565   1.598
12617TIP3    H237797   0.229   2.423   1.598
12618TIP3   OH237798   0.936   0.438   0.354
12618TIP3    H137799   0.899   0.383   0.424
12618TIP3    H237800   0.894   0.406   0.274
12619TIP3   OH237801   4.985   7.531   5.361
12619TIP3    H137802   4.983   7.468   5.289
12619TIP3    H237803   5.008   7.614   5.320
12620TIP3   OH237804   5.621   4.246   2.965
12620TIP3    H137805   5.578   4.166   2.997
12620TIP3    H237806   5.584   4.316   3.019
12621TIP3   OH237807   3.001   0.838   0.918
12621TIP3    H137808   3.054   0.833   0.838
12621TIP3    H237809   3.026   0.759   0.967
12622TIP3   OH237810   0.807   6.251   2.117
12622TIP3    H137811   0.889   6.282   2.156
12622TIP3    H237812   0.813   6.278   2.025
12623TIP3   OH237813   3.096   7.654   4.711
12623TIP3    H137814   3.075   7.731   4.764
12623TIP3    H237815   3.190   7.640   4.726
12624TIP3   OH237816   1.076   3.194   4.954
12624TIP3    H137817   0.982   3.194   4.975
12624TIP3    H237818   1.083   3.140   4.875
12625TIP3   OH237819   3.766   4.934   6.612
12625TIP3    H137820   3.748   5.023   6.582
12625TIP3    H237821   3.755   4.937   6.707
12626TIP3   OH237822   3.389   6.096   6.228
12626TIP3    H137823   3.391   6.045   6.308
12626TIP3    H237824   3.315   6.060   6.178
12627TIP3   OH237825   6.146   3.528   3.033
12627TIP3    H137826   6.145   3.472   2.956
12627TIP3    H237827   6.115   3.613   3.001
12628TIP3   OH237828   6.606   6.977   4.375
12628TIP3    H137829   6.670   7.047   4.365
12628TIP3    H237830   6.551   7.004   4.449
12629TIP3   OH237831   6.832   1.864   6.178
12629TIP3    H137832   6.910   1.809   6.170
12629TIP3    H237833   6.827   1.884   6.272
12630TIP3   OH237834   1.068   0.134   6.299
12630TIP3    H137835   1.090   0.227   6.292
12630TIP3    H237836   1.059   0.105   6.208
12631TIP3   OH237837   1.495   3.251   1.014
12631TIP3    H137838   1.464   3.204   1.092
12631TIP3    H237839   1.546   3.186   0.965
12632TIP3   OH237840   2.174   6.060   4.236
12632TIP3    H137841   2.084   6.053   4.269
12632TIP3    H237842   2.226   6.005   4.295
12633TIP3   OH237843   6.123   2.917   6.226
12633TIP3    H137844   6.075   2.884   6.150
12633TIP3    H237845   6.071   2.889   6.301
12634TIP3   OH237846   3.896   1.979   0.608
12634TIP3    H137847   3.829   1.935   0.659
12634TIP3    H237848   3.962   1.911   0.591
12635TIP3   OH237849   2.620   0.814   1.402
12635TIP3    H137850   2.633   0.795   1.309
12635TIP3    H237851   2.705   0.800   1.442
12636TIP3   OH237852   6.195   3.720   0.774
12636TIP3    H137853   6.262   3.652   0.786
12636TIP3    H237854   6.244   3.802   0.772
12637TIP3   OH237855   5.208   6.636   1.052
12637TIP3    H137856   5.157   6.606   1.127
12637TIP3    H237857   5.159   6.606   0.975
12638TIP3   OH237858   7.972   2.358   2.175
12638TIP3    H137859   8.022   2.335   2.254
12638TIP3    H237860   7.927   2.278   2.151
12639TIP3   OH237861   5.590   1.021   1.944
12639TIP3    H137862   5.504   1.043   1.910
12639TIP3    H237863   5.614   0.940   1.899
12640TIP3   OH237864   4.235   2.707   5.136
12640TIP3    H137865   4.327   2.733   5.138
12640TIP3    H237866   4.210   2.717   5.044
12641TIP3   OH237867   2.100   4.349   6.566
12641TIP3    H137868   2.035   4.417   6.583
12641TIP3    H237869   2.075   4.277   6.623
12642TIP3   OH237870   2.302   0.877   0.484
12642TIP3    H137871   2.242   0.941   0.522
12642TIP3    H237872   2.262   0.852   0.401
12643TIP3   OH237873   6.412   5.144   0.077
12643TIP3    H137874   6.504   5.165   0.097
12643TIP3    H237875   6.381   5.098   0.155
12644TIP3   OH237876   1.471   1.114   1.976
12644TIP3    H137877   1.431   1.100   2.062
12644TIP3    H237878   1.405   1.084   1.913
12645TIP3   OH237879   6.915   1.368   1.801
12645TIP3    H137880   6.860   1.379   1.878
12645TIP3    H237881   6.998   1.411   1.824
12646TIP3   OH237882   5.025   2.764   0.642
12646TIP3    H137883   5.042   2.690   0.700
12646TIP3    H237884   5.103   2.770   0.587
12647TIP3   OH237885   3.219   5.611   4.973
12647TIP3    H137886   3.243   5.632   5.063
12647TIP3    H237887   3.149   5.672   4.952
12648TIP3   OH237888   1.582   4.650   2.347
12648TIP3    H137889   1.642   4.625   2.277
12648TIP3    H237890   1.567   4.569   2.396
12649TIP3   OH237891   5.781   2.030   3.411
12649TIP3    H137892   5.814   2.107   3.364
12649TIP3    H237893   5.733   2.066   3.486
12650TIP3   OH237894   5.725   1.034   3.381
12650TIP3    H137895   5.656   1.098   3.368
12650TIP3    H237896   5.777   1.068   3.454
12651TIP3   OH237897   1.155   1.997   4.143
12651TIP3    H137898   1.071   1.951   4.148
12651TIP3    H237899   1.177   2.018   4.234
12652TIP3   OH237900   2.909   4.087   5.895
12652TIP3    H137901   2.880   4.021   5.958
12652TIP3    H237902   2.907   4.169   5.944
12653TIP3   OH237903   0.481   7.316   5.598
12653TIP3    H137904   0.517   7.354   5.518
12653TIP3    H237905   0.412   7.377   5.625
12654TIP3   OH237906   7.195   0.626   2.599
12654TIP3    H137907   7.288   0.604   2.611
12654TIP3    H237908   7.196   0.703   2.542
12655TIP3   OH237909   2.369   1.308   0.614
12655TIP3    H137910   2.432   1.273   0.677
12655TIP3    H237911   2.367   1.402   0.631
12656TIP3   OH237912   7.400   7.294   2.972
12656TIP3    H137913   7.310   7.270   2.991
12656TIP3    H237914   7.409   7.281   2.877
12657TIP3   OH237915   5.245   3.262   6.762
12657TIP3    H137916   5.150   3.274   6.753
12657TIP3    H237917   5.276   3.253   6.672
12658TIP3   OH237918   3.264   5.971   1.338
12658TIP3    H137919   3.328   5.917   1.291
12658TIP3    H237920   3.316   6.039   1.380
12659TIP3   OH237921   7.474   6.978   2.077
12659TIP3    H137922   7.384   6.988   2.108
12659TIP3    H237923   7.467   6.922   2.000
12660TIP3   OH237924   4.530   1.999   0.555
12660TIP3    H137925   4.626   1.994   0.561
12660TIP3    H237926   4.503   2.045   0.634
12661TIP3   OH237927   0.976   5.290   4.490
12661TIP3    H137928   0.940   5.202   4.486
12661TIP3    H237929   0.997   5.303   4.583
12662TIP3   OH237930   4.266   2.092   5.071
12662TIP3    H137931   4.202   2.115   5.004
12662TIP3    H237932   4.309   2.175   5.093
12663TIP3   OH237933   7.755   0.877   4.704
12663TIP3    H137934   7.684   0.817   4.729
12663TIP3    H237935   7.793   0.905   4.787
12664TIP3   OH237936   1.955   2.646   5.234
12664TIP3    H137937   1.999   2.580   5.181
12664TIP3    H237938   1.987   2.631   5.323
12665TIP3   OH237939   2.941   2.190   3.245
12665TIP3    H137940   2.904   2.268   3.203
12665TIP3    H237941   2.951   2.215   3.337
12666TIP3   OH237942   6.435   2.917   0.800
12666TIP3    H137943   6.426   2.891   0.708
12666TIP3    H237944   6.529   2.930   0.813
12667TIP3   OH237945   2.692   7.338   3.238
12667TIP3    H137946   2.751   7.356   3.312
12667TIP3    H237947   2.674   7.244   3.245
12668TIP3   OH237948   7.316   0.152   5.277
12668TIP3    H137949   7.233   0.105   5.288
12668TIP3    H237950   7.375   0.110   5.340
12669TIP3   OH237951   6.553   0.355   5.406
12669TIP3    H137952   6.513   0.421   5.350
12669TIP3    H237953   6.481   0.296   5.429
12670TIP3   OH237954   3.403   7.419   2.746
12670TIP3    H137955   3.308   7.411   2.743
12670TIP3    H237956   3.434   7.331   2.765
12671TIP3   OH237957   1.749   2.692   3.991
12671TIP3    H137958   1.691   2.720   3.921
12671TIP3    H237959   1.832   2.736   3.972
12672TIP3   OH237960   7.168   0.323   6.454
12672TIP3    H137961   7.258   0.294   6.444
12672TIP3    H237962   7.127   0.303   6.370
12673TIP3   OH237963   6.169   5.571   2.388
12673TIP3    H137964   6.122   5.519   2.323
12673TIP3    H237965   6.127   5.549   2.471
12674TIP3   OH237966   6.031   6.210   0.881
12674TIP3    H137967   6.001   6.211   0.790
12674TIP3    H237968   6.029   6.301   0.908
12675TIP3   OH237969   3.790   2.139   0.940
12675TIP3    H137970   3.717   2.129   0.879
12675TIP3    H237971   3.850   2.199   0.896
12676TIP3   OH237972   5.105   5.370   0.123
12676TIP3    H137973   5.097   5.457   0.163
12676TIP3    H237974   5.130   5.388   0.032
12677TIP3   OH237975   0.846   5.366   3.983
12677TIP3    H137976   0.777   5.425   4.011
12677TIP3    H237977   0.919   5.423   3.960
12678TIP3   OH237978   6.791   1.552   5.043
12678TIP3    H137979   6.826   1.617   5.104
12678TIP3    H237980   6.774   1.601   4.963
12679TIP3   OH237981   2.085   4.992   4.922
12679TIP3    H137982   2.080   4.955   5.010
12679TIP3    H237983   2.175   4.975   4.893
12680TIP3   OH237984   1.844   6.424   2.049
12680TIP3    H137985   1.926   6.473   2.054
12680TIP3    H237986   1.865   6.338   2.084
12681TIP3   OH237987   2.066   2.688   3.666
12681TIP3    H137988   2.116   2.621   3.620
12681TIP3    H237989   2.064   2.762   3.605
12682TIP3   OH237990   1.298   6.176   5.831
12682TIP3    H137991   1.295   6.086   5.865
12682TIP3    H237992   1.214   6.187   5.787
12683TIP3   OH237993   2.047   7.394   1.600
12683TIP3    H137994   2.035   7.428   1.689
12683TIP3    H237995   2.133   7.426   1.573
12684TIP3   OH237996   3.407   5.225   2.755
12684TIP3    H137997   3.406   5.296   2.820
12684TIP3    H237998   3.405   5.145   2.807
12685TIP3   OH237999   5.894   7.166   4.956
12685TIP3    H138000   5.829   7.203   4.896
12685TIP3    H238001   5.944   7.242   4.985
12686TIP3   OH238002   6.653   3.784   0.514
12686TIP3    H138003   6.653   3.874   0.481
12686TIP3    H238004   6.657   3.729   0.436
12687TIP3   OH238005   6.473   4.101   1.611
12687TIP3    H138006   6.568   4.103   1.628
12687TIP3    H238007   6.433   4.115   1.697
12688TIP3   OH238008   8.030   3.126   2.768
12688TIP3    H138009   7.944   3.098   2.800
12688TIP3    H238010   8.092   3.091   2.832
12689TIP3   OH238011   0.926   7.623   3.708
12689TIP3    H138012   0.838   7.639   3.675
12689TIP3    H238013   0.966   7.710   3.716
12690TIP3   OH238014   6.376   6.486   1.272
12690TIP3    H138015   6.418   6.570   1.254
12690TIP3    H238016   6.366   6.445   1.186
12691TIP3   OH238017   0.032   2.146   2.263
12691TIP3    H138018   0.024   2.083   2.335
12691TIP3    H238019  -0.045   2.129   2.208
12692TIP3   OH238020   5.882   1.771   6.226
12692TIP3    H138021   5.793   1.765   6.262
12692TIP3    H238022   5.901   1.864   6.224
12693TIP3   OH238023   0.354   5.034   5.062
12693TIP3    H138024   0.364   5.022   5.157
12693TIP3    H238025   0.270   5.079   5.053
12694TIP3   OH238026   2.454   4.933   1.893
12694TIP3    H138027   2.491   4.938   1.981
12694TIP3    H238028   2.501   4.861   1.851
12695TIP3   OH238029   6.090   4.727   3.170
12695TIP3    H138030   6.088   4.641   3.129
12695TIP3    H238031   6.004   4.737   3.210
12696TIP3   OH238032   3.479   4.464   0.766
12696TIP3    H138033   3.416   4.535   0.782
12696TIP3    H238034   3.435   4.406   0.704
12697TIP3   OH238035   8.168   1.844   5.966
12697TIP3    H138036   8.188   1.935   5.945
12697TIP3    H238037   8.252   1.804   5.984
12698TIP3   OH238038   5.059   5.843   2.602
12698TIP3    H138039   5.008   5.905   2.653
12698TIP3    H238040   5.087   5.776   2.665
12699TIP3   OH238041   6.532   2.725   2.069
12699TIP3    H138042   6.484   2.789   2.121
12699TIP3    H238043   6.525   2.757   1.979
12700TIP3   OH238044   0.575   6.932   5.444
12700TIP3    H138045   0.630   6.930   5.522
12700TIP3    H238046   0.497   6.882   5.469
12701TIP3   OH238047   7.723   5.968   1.778
12701TIP3    H138048   7.722   6.053   1.822
12701TIP3    H238049   7.671   5.981   1.699
12702TIP3   OH238050   1.534   5.619   4.659
12702TIP3    H138051   1.570   5.532   4.675
12702TIP3    H238052   1.439   5.608   4.669
12703TIP3   OH238053   1.368   3.267   6.557
12703TIP3    H138054   1.284   3.271   6.512
12703TIP3    H238055   1.407   3.184   6.529
12704TIP3   OH238056   6.605   1.287   3.875
12704TIP3    H138057   6.540   1.232   3.918
12704TIP3    H238058   6.597   1.264   3.782
12705TIP3   OH238059   0.652   3.195   2.969
12705TIP3    H138060   0.743   3.181   2.996
12705TIP3    H238061   0.613   3.242   3.042
12706TIP3   OH238062   5.142   1.099   2.841
12706TIP3    H138063   5.136   1.032   2.909
12706TIP3    H238064   5.227   1.141   2.855
12707TIP3   OH238065   8.190   0.423   3.488
12707TIP3    H138066   8.115   0.438   3.546
12707TIP3    H238067   8.165   0.465   3.406
12708TIP3   OH238068   4.383   2.068   6.350
12708TIP3    H138069   4.398   2.137   6.285
12708TIP3    H238070   4.396   1.987   6.301
12709TIP3   OH238071   1.544   6.383   6.092
12709TIP3    H138072   1.566   6.307   6.038
12709TIP3    H238073   1.449   6.392   6.083
12710TIP3   OH238074   1.252   0.346   5.705
12710TIP3    H138075   1.314   0.340   5.632
12710TIP3    H238076   1.284   0.283   5.769
12711TIP3   OH238077   2.817   5.152   4.888
12711TIP3    H138078   2.741   5.171   4.944
12711TIP3    H238079   2.783   5.092   4.822
12712TIP3   OH238080   0.684   1.450   6.449
12712TIP3    H138081   0.638   1.402   6.518
12712TIP3    H238082   0.631   1.436   6.370
12713TIP3   OH238083   0.882   5.989   1.779
12713TIP3    H138084   0.945   5.938   1.728
12713TIP3    H238085   0.831   6.037   1.714
12714TIP3   OH238086   6.963   4.149   1.168
12714TIP3    H138087   6.922   4.063   1.156
12714TIP3    H238088   6.924   4.183   1.249
12715TIP3   OH238089   7.008   2.443   2.015
12715TIP3    H138090   6.952   2.515   1.987
12715TIP3    H238091   7.065   2.426   1.940
12716TIP3   OH238092   2.712   4.302   0.627
12716TIP3    H138093   2.733   4.360   0.554
12716TIP3    H238094   2.693   4.361   0.700
12717TIP3   OH238095   1.951   1.931   0.592
12717TIP3    H138096   1.914   1.871   0.527
12717TIP3    H238097   1.923   1.895   0.676
12718TIP3   OH238098   4.152   3.747   3.610
12718TIP3    H138099   4.110   3.682   3.667
12718TIP3    H238100   4.081   3.782   3.557
12719TIP3   OH238101   1.282   7.184   4.903
12719TIP3    H138102   1.198   7.165   4.860
12719TIP3    H238103   1.338   7.215   4.832
12720TIP3   OH238104   7.640   2.646   1.909
12720TIP3    H138105   7.634   2.693   1.826
12720TIP3    H238106   7.573   2.686   1.965
12721TIP3   OH238107   4.745   3.858   5.758
12721TIP3    H138108   4.713   3.826   5.843
12721TIP3    H238109   4.731   3.953   5.762
12722TIP3   OH238110   2.809   6.946   2.164
12722TIP3    H138111   2.886   6.889   2.171
12722TIP3    H238112   2.735   6.885   2.169
12723TIP3   OH238113   2.701   4.759   5.654
12723TIP3    H138114   2.731   4.837   5.702
12723TIP3    H238115   2.606   4.764   5.659
12724TIP3   OH238116   0.806   4.301   3.117
12724TIP3    H138117   0.831   4.285   3.208
12724TIP3    H238118   0.805   4.396   3.108
12725TIP3   OH238119   3.219   2.481   5.929
12725TIP3    H138120   3.258   2.395   5.945
12725TIP3    H238121   3.124   2.466   5.935
12726TIP3   OH238122   4.045   5.921   5.831
12726TIP3    H138123   3.992   6.000   5.830
12726TIP3    H238124   4.070   5.906   5.740
12727TIP3   OH238125   6.144   5.585   5.227
12727TIP3    H138126   6.198   5.509   5.249
12727TIP3    H238127   6.097   5.605   5.308
12728TIP3   OH238128   7.419   5.334   1.064
12728TIP3    H138129   7.369   5.378   0.996
12728TIP3    H238130   7.411   5.392   1.140
12729TIP3   OH238131   3.723   4.327   4.041
12729TIP3    H138132   3.711   4.238   4.008
12729TIP3    H238133   3.737   4.317   4.135
12730TIP3   OH238134   5.839   3.859   4.251
12730TIP3    H138135   5.880   3.925   4.195
12730TIP3    H238136   5.897   3.851   4.326
12731TIP3   OH238137   0.558   7.757   6.121
12731TIP3    H138138   0.637   7.807   6.105
12731TIP3    H238139   0.510   7.808   6.186
12732TIP3   OH238140   3.924   5.315   0.576
12732TIP3    H138141   4.008   5.339   0.614
12732TIP3    H238142   3.872   5.396   0.580
12733TIP3   OH238143   8.173   1.732   4.384
12733TIP3    H138144   8.127   1.697   4.461
12733TIP3    H238145   8.254   1.683   4.380
12734TIP3   OH238146   7.573   1.362   0.613
12734TIP3    H138147   7.534   1.424   0.551
12734TIP3    H238148   7.632   1.415   0.667
12735TIP3   OH238149   6.166   0.988   1.889
12735TIP3    H138150   6.091   0.956   1.938
12735TIP3    H238151   6.242   0.947   1.930
12736TIP3   OH238152   1.470   3.615   0.973
12736TIP3    H138153   1.423   3.534   0.992
12736TIP3    H238154   1.403   3.675   0.942
12737TIP3   OH238155   7.602   2.124   6.281
12737TIP3    H138156   7.666   2.191   6.306
12737TIP3    H238157   7.560   2.160   6.203
12738TIP3   OH238158   3.836   3.608   0.920
12738TIP3    H138159   3.864   3.697   0.943
12738TIP3    H238160   3.870   3.596   0.831
12739TIP3   OH238161   5.456   2.005   5.313
12739TIP3    H138162   5.550   2.009   5.335
12739TIP3    H238163   5.428   1.919   5.345
12740TIP3   OH238164   7.206   0.862   5.998
12740TIP3    H138165   7.257   0.804   6.055
12740TIP3    H238166   7.259   0.941   5.991
12741TIP3   OH238167   4.972   6.795   6.518
12741TIP3    H138168   5.049   6.834   6.560
12741TIP3    H238169   4.924   6.870   6.483
12742TIP3   OH238170   6.762   1.883   3.117
12742TIP3    H138171   6.739   1.832   3.195
12742TIP3    H238172   6.724   1.834   3.044
12743TIP3   OH238173   7.518   1.942   1.938
12743TIP3    H138174   7.451   2.004   1.908
12743TIP3    H238175   7.591   1.955   1.878
12744TIP3   OH238176   7.163   3.149   5.524
12744TIP3    H138177   7.177   3.147   5.619
12744TIP3    H238178   7.198   3.234   5.496
12745TIP3   OH238179   3.312   1.311   6.003
12745TIP3    H138180   3.328   1.282   5.913
12745TIP3    H238181   3.398   1.340   6.034
12746TIP3   OH238182   2.239   2.701   6.551
12746TIP3    H138183   2.184   2.775   6.574
12746TIP3    H238184   2.182   2.624   6.563
12747TIP3   OH238185   2.284   4.579   3.994
12747TIP3    H138186   2.296   4.548   3.904
12747TIP3    H238187   2.220   4.650   3.986
12748TIP3   OH238188   4.921   2.151   0.356
12748TIP3    H138189   4.864   2.131   0.430
12748TIP3    H238190   4.952   2.066   0.324
12749TIP3   OH238191   2.121   5.894   2.885
12749TIP3    H138192   2.191   5.871   2.946
12749TIP3    H238193   2.049   5.921   2.942
12750TIP3   OH238194   6.816   3.265   2.720
12750TIP3    H138195   6.756   3.283   2.791
12750TIP3    H238196   6.897   3.309   2.745
12751TIP3   OH238197   3.087   6.742   4.946
12751TIP3    H138198   3.114   6.801   4.875
12751TIP3    H238199   3.169   6.717   4.989
12752TIP3   OH238200   0.414   6.445   5.251
12752TIP3    H138201   0.405   6.366   5.304
12752TIP3    H238202   0.348   6.505   5.286
12753TIP3   OH238203   7.860   4.016   4.636
12753TIP3    H138204   7.779   3.980   4.671
12753TIP3    H238205   7.928   3.983   4.695
12754TIP3   OH238206   6.181   2.215   1.989
12754TIP3    H138207   6.098   2.243   2.027
12754TIP3    H238208   6.164   2.207   1.896
12755TIP3   OH238209   4.726   5.601   6.330
12755TIP3    H138210   4.670   5.561   6.396
12755TIP3    H238211   4.757   5.528   6.277
12756TIP3   OH238212   6.023   1.828   2.536
12756TIP3    H138213   6.004   1.824   2.630
12756TIP3    H238214   6.107   1.784   2.526
12757TIP3   OH238215   7.807   4.341   2.781
12757TIP3    H138216   7.830   4.340   2.874
12757TIP3    H238217   7.728   4.395   2.777
12758TIP3   OH238218   8.267   2.677   0.995
12758TIP3    H138219   8.197   2.670   1.060
12758TIP3    H238220   8.317   2.596   1.004
12759TIP3   OH238221   7.809   7.324   5.258
12759TIP3    H138222   7.761   7.326   5.175
12759TIP3    H238223   7.878   7.389   5.248
12760TIP3   OH238224   2.687   3.450   1.340
12760TIP3    H138225   2.712   3.387   1.408
12760TIP3    H238226   2.758   3.515   1.340
12761TIP3   OH238227   3.580   6.084   4.435
12761TIP3    H138228   3.630   6.166   4.435
12761TIP3    H238229   3.623   6.029   4.501
12762TIP3   OH238230   4.970   4.836   3.519
12762TIP3    H138231   4.990   4.812   3.428
12762TIP3    H238232   4.882   4.874   3.515
12763TIP3   OH238233   6.000   0.910   5.741
12763TIP3    H138234   5.932   0.849   5.770
12763TIP3    H238235   5.953   0.991   5.719
12764TIP3   OH238236   1.860   7.770   0.468
12764TIP3    H138237   1.888   7.848   0.420
12764TIP3    H238238   1.820   7.804   0.548
12765TIP3   OH238239   5.602   0.134   5.344
12765TIP3    H138240   5.618   0.211   5.399
12765TIP3    H238241   5.637   0.158   5.259
12766TIP3   OH238242   2.912   2.752   6.030
12766TIP3    H138243   2.824   2.784   6.013
12766TIP3    H238244   2.967   2.797   5.966
12767TIP3   OH238245   4.782   0.527   4.799
12767TIP3    H138246   4.703   0.568   4.764
12767TIP3    H238247   4.854   0.577   4.761
12768TIP3   OH238248   0.440   4.359   2.831
12768TIP3    H138249   0.488   4.289   2.875
12768TIP3    H238250   0.461   4.348   2.738
12769TIP3   OH238251   6.737   5.770   4.108
12769TIP3    H138252   6.785   5.838   4.061
12769TIP3    H238253   6.785   5.689   4.089
12770TIP3   OH238254   0.563   5.451   1.234
12770TIP3    H138255   0.531   5.541   1.232
12770TIP3    H238256   0.645   5.456   1.283
12771TIP3   OH238257   3.677   1.342   4.302
12771TIP3    H138258   3.730   1.421   4.315
12771TIP3    H238259   3.616   1.365   4.232
12772TIP3   OH238260   6.073   0.445   3.064
12772TIP3    H138261   6.032   0.362   3.041
12772TIP3    H238262   6.020   0.478   3.137
12773TIP3   OH238263   7.982   4.044   1.931
12773TIP3    H138264   7.899   4.075   1.968
12773TIP3    H238265   8.032   4.014   2.008
12774TIP3   OH238266   4.152   7.239   6.001
12774TIP3    H138267   4.201   7.164   5.967
12774TIP3    H238268   4.143   7.222   6.094
12775TIP3   OH238269   3.717   5.416   2.968
12775TIP3    H138270   3.709   5.369   3.052
12775TIP3    H238271   3.785   5.481   2.984
12776TIP3   OH238272   5.674   3.856   3.237
12776TIP3    H138273   5.653   3.803   3.314
12776TIP3    H238274   5.620   3.820   3.167
12777TIP3   OH238275   5.548   5.534   6.247
12777TIP3    H138276   5.616   5.519   6.182
12777TIP3    H238277   5.550   5.629   6.262
12778TIP3   OH238278   2.351   3.926   2.226
12778TIP3    H138279   2.438   3.917   2.263
12778TIP3    H238280   2.340   4.021   2.213
12779TIP3   OH238281   2.486   6.386   4.678
12779TIP3    H138282   2.563   6.329   4.673
12779TIP3    H238283   2.478   6.422   4.590
12780TIP3   OH238284   0.459   7.676   1.013
12780TIP3    H138285   0.553   7.690   1.002
12780TIP3    H238286   0.451   7.631   1.097
12781TIP3   OH238287   3.678   6.163   6.374
12781TIP3    H138288   3.693   6.182   6.281
12781TIP3    H238289   3.672   6.067   6.378
12782TIP3   OH238290   1.540   3.907   4.408
12782TIP3    H138291   1.463   3.854   4.388
12782TIP3    H238292   1.526   3.938   4.497
12783TIP3   OH238293   1.718   7.318   4.472
12783TIP3    H138294   1.757   7.293   4.556
12783TIP3    H238295   1.699   7.235   4.428
12784TIP3   OH238296   6.667   2.061   2.624
12784TIP3    H138297   6.722   1.991   2.587
12784TIP3    H238298   6.723   2.139   2.622
12785TIP3   OH238299   1.975   5.623   2.900
12785TIP3    H138300   1.932   5.695   2.855
12785TIP3    H238301   2.061   5.617   2.859
12786TIP3   OH238302   0.385   4.122   0.801
12786TIP3    H138303   0.316   4.173   0.844
12786TIP3    H238304   0.429   4.184   0.743
12787TIP3   OH238305   6.402   4.081   3.623
12787TIP3    H138306   6.317   4.043   3.645
12787TIP3    H238307   6.386   4.175   3.621
12788TIP3   OH238308   7.790   5.233   5.650
12788TIP3    H138309   7.797   5.320   5.690
12788TIP3    H238310   7.780   5.250   5.556
12789TIP3   OH238311   8.209   1.817   5.295
12789TIP3    H138312   8.139   1.775   5.345
12789TIP3    H238313   8.164   1.868   5.228
12790TIP3   OH238314   0.344   1.233   5.903
12790TIP3    H138315   0.324   1.150   5.860
12790TIP3    H238316   0.372   1.208   5.991
12791TIP3   OH238317   3.634   2.226   3.951
12791TIP3    H138318   3.636   2.308   3.902
12791TIP3    H238319   3.580   2.167   3.897
12792TIP3   OH238320   2.128   6.381   4.996
12792TIP3    H138321   2.153   6.410   4.909
12792TIP3    H238322   2.102   6.290   4.985
12793TIP3   OH238323   5.712   7.358   3.943
12793TIP3    H138324   5.776   7.388   4.007
12793TIP3    H238325   5.752   7.280   3.903
12794TIP3   OH238326   1.738   6.341   0.129
12794TIP3    H138327   1.755   6.266   0.185
12794TIP3    H238328   1.758   6.311   0.040
12795TIP3   OH238329   2.575   3.589   6.442
12795TIP3    H138330   2.578   3.495   6.459
12795TIP3    H238331   2.590   3.630   6.527
12796TIP3   OH238332   7.489   0.856   1.174
12796TIP3    H138333   7.398   0.884   1.164
12796TIP3    H238334   7.496   0.778   1.120
12797TIP3   OH238335   1.680   0.740   2.625
12797TIP3    H138336   1.633   0.734   2.542
12797TIP3    H238337   1.772   0.735   2.600
12798TIP3   OH238338   7.022   6.901   4.530
12798TIP3    H138339   7.008   6.932   4.441
12798TIP3    H238340   6.977   6.964   4.585
12799TIP3   OH238341   6.295   6.273   3.382
12799TIP3    H138342   6.246   6.192   3.370
12799TIP3    H238343   6.287   6.292   3.476
12800TIP3   OH238344   2.122   3.734   3.779
12800TIP3    H138345   2.172   3.810   3.810
12800TIP3    H238346   2.041   3.771   3.745
12801TIP3   OH238347   6.569   4.131   0.686
12801TIP3    H138348   6.583   4.190   0.612
12801TIP3    H238349   6.654   4.088   0.699
12802TIP3   OH238350   2.679   7.597   2.726
12802TIP3    H138351   2.680   7.560   2.814
12802TIP3    H238352   2.587   7.593   2.700
12803TIP3   OH238353   2.555   3.314   5.458
12803TIP3    H138354   2.521   3.234   5.499
12803TIP3    H238355   2.478   3.359   5.425
12804TIP3   OH238356   7.432   4.613   5.363
12804TIP3    H138357   7.454   4.666   5.440
12804TIP3    H238358   7.517   4.582   5.331
12805TIP3   OH238359   1.237   0.625   5.362
12805TIP3    H138360   1.228   0.719   5.379
12805TIP3    H238361   1.175   0.584   5.421
12806TIP3   OH238362   3.702   4.760   5.607
12806TIP3    H138363   3.659   4.685   5.566
12806TIP3    H238364   3.690   4.832   5.544
12807TIP3   OH238365   0.575   3.826   1.598
12807TIP3    H138366   0.589   3.835   1.692
12807TIP3    H238367   0.504   3.887   1.579
12808TIP3   OH238368   1.544   4.832   1.355
12808TIP3    H138369   1.474   4.792   1.303
12808TIP3    H238370   1.602   4.873   1.291
12809TIP3   OH238371   3.876   6.358   5.385
12809TIP3    H138372   3.793   6.404   5.400
12809TIP3    H238373   3.878   6.291   5.453
12810TIP3   OH238374   7.227   1.715   1.492
12810TIP3    H138375   7.306   1.683   1.448
12810TIP3    H238376   7.169   1.639   1.495
12811TIP3   OH238377   3.601   0.306   6.666
12811TIP3    H138378   3.605   0.285   6.759
12811TIP3    H238379   3.512   0.340   6.653
12812TIP3   OH238380   0.523   2.603   4.178
12812TIP3    H138381   0.526   2.697   4.159
12812TIP3    H238382   0.614   2.578   4.192
12813TIP3   OH238383   6.293   4.428   6.644
12813TIP3    H138384   6.230   4.462   6.581
12813TIP3    H238385   6.358   4.498   6.653
12814TIP3   OH238386   1.736   7.828   3.686
12814TIP3    H138387   1.670   7.793   3.745
12814TIP3    H238388   1.805   7.762   3.686
12815TIP3   OH238389   5.405   1.573   6.698
12815TIP3    H138390   5.445   1.649   6.656
12815TIP3    H238391   5.388   1.602   6.788
12816TIP3   OH238392   4.025   4.772   6.752
12816TIP3    H138393   3.955   4.738   6.696
12816TIP3    H238394   4.045   4.859   6.716
12817TIP3   OH238395   5.910   7.510   4.379
12817TIP3    H138396   5.993   7.555   4.362
12817TIP3    H238397   5.936   7.422   4.404
12818TIP3   OH238398   1.953   0.367   4.761
12818TIP3    H138399   2.015   0.439   4.752
12818TIP3    H238400   1.888   0.399   4.824
12819TIP3   OH238401   8.036   6.582   1.544
12819TIP3    H138402   8.000   6.550   1.461
12819TIP3    H238403   8.128   6.556   1.542
12820TIP3   OH238404   4.396   6.356   5.790
12820TIP3    H138405   4.350   6.308   5.858
12820TIP3    H238406   4.480   6.381   5.830
12821TIP3   OH238407   2.530   4.867   4.463
12821TIP3    H138408   2.577   4.927   4.404
12821TIP3    H238409   2.477   4.924   4.518
12822TIP3   OH238410   3.025   3.190   4.331
12822TIP3    H138411   3.053   3.174   4.240
12822TIP3    H238412   3.106   3.209   4.378
12823TIP3   OH238413   7.028   6.263   4.409
12823TIP3    H138414   7.121   6.259   4.430
12823TIP3    H238415   6.992   6.182   4.445
12824TIP3   OH238416   5.660   1.782   6.791
12824TIP3    H138417   5.751   1.756   6.782
12824TIP3    H238418   5.630   1.797   6.701
12825TIP3   OH238419   3.250   3.667   2.075
12825TIP3    H138420   3.290   3.754   2.073
12825TIP3    H238421   3.258   3.639   2.166
12826TIP3   OH238422   8.220   2.578   6.029
12826TIP3    H138423   8.315   2.582   6.034
12826TIP3    H238424   8.202   2.497   5.981
12827TIP3   OH238425   7.790   6.896   3.783
12827TIP3    H138426   7.756   6.843   3.855
12827TIP3    H238427   7.813   6.831   3.716
12828TIP3   OH238428   5.946   6.576   4.616
12828TIP3    H138429   6.034   6.606   4.593
12828TIP3    H238430   5.889   6.617   4.551
12829TIP3   OH238431   6.629   1.937   5.874
12829TIP3    H138432   6.710   1.897   5.841
12829TIP3    H238433   6.584   1.865   5.919
12830TIP3   OH238434   7.464   3.688   2.094
12830TIP3    H138435   7.477   3.594   2.076
12830TIP3    H238436   7.525   3.732   2.035
12831TIP3   OH238437   6.805   6.913   3.086
12831TIP3    H138438   6.714   6.887   3.077
12831TIP3    H238439   6.809   6.957   3.172
12832TIP3   OH238440   6.080   0.777   3.173
12832TIP3    H138441   6.063   0.825   3.254
12832TIP3    H238442   6.166   0.738   3.186
12833TIP3   OH238443   0.424   5.033   0.835
12833TIP3    H138444   0.479   5.103   0.799
12833TIP3    H238445   0.478   4.994   0.904
12834TIP3   OH238446   6.781   2.237   5.576
12834TIP3    H138447   6.699   2.189   5.574
12834TIP3    H238448   6.761   2.321   5.535
12835TIP3   OH238449   1.000   0.917   3.324
12835TIP3    H138450   1.025   0.948   3.411
12835TIP3    H238451   1.079   0.930   3.271
12836TIP3   OH238452   3.129   5.252   1.149
12836TIP3    H138453   3.057   5.315   1.141
12836TIP3    H238454   3.165   5.268   1.236
12837TIP3   OH238455   2.653   0.065   1.134
12837TIP3    H138456   2.646   0.158   1.154
12837TIP3    H238457   2.688   0.062   1.045
12838TIP3   OH238458   3.164   5.151   0.625
12838TIP3    H138459   3.149   5.228   0.680
12838TIP3    H238460   3.083   5.140   0.575
12839TIP3   OH238461   4.065   3.990   5.229
12839TIP3    H138462   4.150   3.976   5.186
12839TIP3    H238463   4.006   4.012   5.157
12840TIP3   OH238464   0.732   4.966   5.821
12840TIP3    H138465   0.819   4.982   5.858
12840TIP3    H238466   0.718   4.873   5.834
12841TIP3   OH238467   4.354   0.735   3.791
12841TIP3    H138468   4.434   0.750   3.842
12841TIP3    H238469   4.295   0.805   3.818
12842TIP3   OH238470   1.101   2.235   1.999
12842TIP3    H138471   1.067   2.317   2.035
12842TIP3    H238472   1.056   2.225   1.915
12843TIP3   OH238473   1.440   6.407   2.309
12843TIP3    H138474   1.412   6.317   2.290
12843TIP3    H238475   1.533   6.400   2.329
12844TIP3   OH238476   7.603   5.741   1.043
12844TIP3    H138477   7.566   5.738   0.955
12844TIP3    H238478   7.692   5.706   1.033
12845TIP3   OH238479   4.588   2.585   6.230
12845TIP3    H138480   4.580   2.490   6.229
12845TIP3    H238481   4.680   2.602   6.209
12846TIP3   OH238482   5.644   4.348   5.152
12846TIP3    H138483   5.709   4.291   5.193
12846TIP3    H238484   5.691   4.429   5.134
12847TIP3   OH238485   2.104   5.532   5.768
12847TIP3    H138486   2.028   5.579   5.802
12847TIP3    H238487   2.071   5.445   5.747
12848TIP3   OH238488   4.337   3.788   3.962
12848TIP3    H138489   4.310   3.697   3.965
12848TIP3    H238490   4.348   3.814   4.054
12849TIP3   OH238491   3.575   4.207   6.472
12849TIP3    H138492   3.586   4.281   6.531
12849TIP3    H238493   3.577   4.245   6.384
12850TIP3   OH238494   2.553   2.528   0.435
12850TIP3    H138495   2.636   2.491   0.464
12850TIP3    H238496   2.510   2.556   0.515
12851TIP3   OH238497   1.403   3.119   1.700
12851TIP3    H138498   1.462   3.101   1.773
12851TIP3    H238499   1.335   3.052   1.706
12852TIP3   OH238500   5.450   5.101   6.313
12852TIP3    H138501   5.369   5.053   6.333
12852TIP3    H238502   5.427   5.193   6.327
12853TIP3   OH238503   0.014   5.993   6.274
12853TIP3    H138504   0.090   6.016   6.327
12853TIP3    H238505   0.030   6.035   6.190
12854TIP3   OH238506   3.398   0.564   6.442
12854TIP3    H138507   3.311   0.593   6.469
12854TIP3    H238508   3.408   0.597   6.353
12855TIP3   OH238509   4.976   2.377   3.913
12855TIP3    H138510   4.888   2.376   3.949
12855TIP3    H238511   4.999   2.284   3.905
12856TIP3   OH238512   5.408   5.982   1.579
12856TIP3    H138513   5.482   6.042   1.573
12856TIP3    H238514   5.331   6.038   1.572
12857TIP3   OH238515   0.875   5.916   2.395
12857TIP3    H138516   0.921   5.989   2.436
12857TIP3    H238517   0.803   5.957   2.346
12858TIP3   OH238518   7.500   2.352   0.303
12858TIP3    H138519   7.432   2.306   0.254
12858TIP3    H238520   7.494   2.318   0.392
12859TIP3   OH238521   7.085   2.284   5.572
12859TIP3    H138522   7.169   2.238   5.573
12859TIP3    H238523   7.035   2.245   5.643
12860TIP3   OH238524   3.926   2.691   1.406
12860TIP3    H138525   3.897   2.616   1.458
12860TIP3    H238526   3.966   2.751   1.470
12861TIP3   OH238527   4.836   3.241   5.583
12861TIP3    H138528   4.742   3.249   5.569
12861TIP3    H238529   4.846   3.227   5.677
12862TIP3   OH238530   2.008   0.563   1.496
12862TIP3    H138531   1.967   0.477   1.505
12862TIP3    H238532   1.939   0.625   1.521
12863TIP3   OH238533   0.013   4.640   3.483
12863TIP3    H138534  -0.034   4.578   3.538
12863TIP3    H238535   0.032   4.714   3.540
12864TIP3   OH238536   1.939   1.025   3.061
12864TIP3    H138537   1.850   1.013   3.092
12864TIP3    H238538   1.991   0.962   3.112
12865TIP3   OH238539   2.239   7.328   2.547
12865TIP3    H138540   2.228   7.245   2.594
12865TIP3    H238541   2.311   7.311   2.486
12866TIP3   OH238542   5.118   2.068   1.639
12866TIP3    H138543   5.051   2.000   1.638
12866TIP3    H238544   5.073   2.146   1.606
12867TIP3   OH238545   6.429   5.676   5.391
12867TIP3    H138546   6.457   5.590   5.361
12867TIP3    H238547   6.411   5.665   5.484
12868TIP3   OH238548   6.439   3.201   2.736
12868TIP3    H138549   6.386   3.236   2.664
12868TIP3    H238550   6.475   3.119   2.702
12869TIP3   OH238551   3.231   0.676   4.553
12869TIP3    H138552   3.257   0.587   4.529
12869TIP3    H238553   3.291   0.733   4.504
12870TIP3   OH238554   0.758   2.885   6.029
12870TIP3    H138555   0.774   2.907   6.120
12870TIP3    H238556   0.702   2.808   6.032
12871TIP3   OH238557   2.456   0.189   2.883
12871TIP3    H138558   2.452   0.122   2.814
12871TIP3    H238559   2.440   0.141   2.964
12872TIP3   OH238560   5.569   1.727   5.629
12872TIP3    H138561   5.567   1.728   5.724
12872TIP3    H238562   5.568   1.634   5.605
12873TIP3   OH238563   0.707   7.772   0.085
12873TIP3    H138564   0.681   7.703   0.024
12873TIP3    H238565   0.699   7.853   0.035
12874TIP3   OH238566   5.493   5.893   0.220
12874TIP3    H138567   5.402   5.886   0.250
12874TIP3    H238568   5.542   5.834   0.278
12875TIP3   OH238569   5.791   1.584   1.663
12875TIP3    H138570   5.791   1.581   1.567
12875TIP3    H238571   5.727   1.652   1.684
12876TIP3   OH238572   1.764   3.804   1.284
12876TIP3    H138573   1.771   3.827   1.377
12876TIP3    H238574   1.824   3.866   1.240
12877TIP3   OH238575   4.459   1.945   2.623
12877TIP3    H138576   4.436   1.870   2.677
12877TIP3    H238577   4.504   2.005   2.683
12878TIP3   OH238578   6.303   0.516   2.184
12878TIP3    H138579   6.367   0.478   2.124
12878TIP3    H238580   6.263   0.440   2.227
12879TIP3   OH238581   1.531   0.518  -0.028
12879TIP3    H138582   1.479   0.553   0.044
12879TIP3    H238583   1.545   0.426  -0.006
12880TIP3   OH238584   7.225   5.110   3.931
12880TIP3    H138585   7.262   5.193   3.961
12880TIP3    H238586   7.131   5.128   3.922
12881TIP3   OH238587   3.052   7.167   1.752
12881TIP3    H138588   3.007   7.238   1.706
12881TIP3    H238589   3.084   7.110   1.682
12882TIP3   OH238590   0.478   5.459   4.311
12882TIP3    H138591   0.501   5.520   4.381
12882TIP3    H238592   0.514   5.375   4.338
12883TIP3   OH238593   1.661   3.030   0.885
12883TIP3    H138594   1.664   2.935   0.893
12883TIP3    H238595   1.735   3.052   0.828
12884TIP3   OH238596   6.404   7.185   4.447
12884TIP3    H138597   6.484   7.165   4.495
12884TIP3    H238598   6.409   7.279   4.429
12885TIP3   OH238599   3.195   2.168   1.523
12885TIP3    H138600   3.126   2.233   1.510
12885TIP3    H238601   3.276   2.215   1.504
12886TIP3   OH238602   1.711   5.015   1.192
12886TIP3    H138603   1.711   5.083   1.124
12886TIP3    H238604   1.721   4.933   1.143
12887TIP3   OH238605   4.071   2.961   0.315
12887TIP3    H138606   4.049   2.966   0.223
12887TIP3    H238607   4.075   2.867   0.334
12888TIP3   OH238608   2.655   0.889   2.947
12888TIP3    H138609   2.685   0.979   2.930
12888TIP3    H238610   2.597   0.897   3.023
12889TIP3   OH238611   5.096   6.662   3.717
12889TIP3    H138612   5.111   6.650   3.811
12889TIP3    H238613   5.123   6.752   3.700
12890TIP3   OH238614   5.328   2.186   3.894
12890TIP3    H138615   5.304   2.168   3.803
12890TIP3    H238616   5.334   2.099   3.934
12891TIP3   OH238617   7.349   6.243   0.443
12891TIP3    H138618   7.422   6.240   0.505
12891TIP3    H238619   7.272   6.219   0.495
12892TIP3   OH238620   7.205   1.253   6.424
12892TIP3    H138621   7.197   1.185   6.491
12892TIP3    H238622   7.295   1.285   6.434
12893TIP3   OH238623   2.444   0.603   0.912
12893TIP3    H138624   2.461   0.511   0.933
12893TIP3    H238625   2.431   0.604   0.817
12894TIP3   OH238626   7.670   6.145   2.956
12894TIP3    H138627   7.765   6.141   2.961
12894TIP3    H238628   7.643   6.177   3.042
12895TIP3   OH238629   6.395   0.188   0.199
12895TIP3    H138630   6.443   0.270   0.209
12895TIP3    H238631   6.445   0.139   0.133
12896TIP3   OH238632   2.932   2.871   3.026
12896TIP3    H138633   3.012   2.916   3.056
12896TIP3    H238634   2.947   2.855   2.933
12897TIP3   OH238635   3.782   7.707   3.582
12897TIP3    H138636   3.760   7.614   3.592
12897TIP3    H238637   3.746   7.749   3.660
12898TIP3   OH238638   3.778   6.608   2.121
12898TIP3    H138639   3.837   6.680   2.143
12898TIP3    H238640   3.823   6.529   2.152
12899TIP3   OH238641   6.789   0.059   0.020
12899TIP3    H138642   6.811   0.080  -0.070
12899TIP3    H238643   6.804   0.140   0.068
12900TIP3   OH238644   3.118   3.622   2.846
12900TIP3    H138645   3.123   3.605   2.752
12900TIP3    H238646   3.206   3.603   2.879
12901TIP3   OH238647   0.550   6.787   3.439
12901TIP3    H138648   0.628   6.828   3.404
12901TIP3    H238649   0.480   6.810   3.377
12902TIP3   OH238650   7.038   4.158   6.270
12902TIP3    H138651   6.963   4.100   6.283
12902TIP3    H238652   7.110   4.115   6.317
12903TIP3   OH238653   3.053   6.446   3.173
12903TIP3    H138654   3.026   6.484   3.257
12903TIP3    H238655   3.087   6.359   3.197
12904TIP3   OH238656   2.862   6.804   0.027
12904TIP3    H138657   2.857   6.900   0.023
12904TIP3    H238658   2.792   6.779   0.087
12905TIP3   OH238659   0.712   7.095   3.068
12905TIP3    H138660   0.643   7.142   3.115
12905TIP3    H238661   0.791   7.112   3.119
12906TIP3   OH238662   7.542   4.211   2.629
12906TIP3    H138663   7.536   4.293   2.677
12906TIP3    H238664   7.621   4.169   2.663
12907TIP3   OH238665   5.737   5.766   4.360
12907TIP3    H138666   5.653   5.811   4.365
12907TIP3    H238667   5.720   5.679   4.396
12908TIP3   OH238668   4.909   3.084   3.940
12908TIP3    H138669   4.947   3.158   3.892
12908TIP3    H238670   4.839   3.123   3.993
12909TIP3   OH238671   2.773   4.429   3.756
12909TIP3    H138672   2.714   4.383   3.816
12909TIP3    H238673   2.763   4.521   3.780
12910TIP3   OH238674   0.282   7.176   3.396
12910TIP3    H138675   0.201   7.130   3.377
12910TIP3    H238676   0.277   7.198   3.489
12911TIP3   OH238677   3.969   0.673   6.024
12911TIP3    H138678   4.004   0.587   6.001
12911TIP3    H238679   3.881   0.654   6.058
12912TIP3   OH238680   5.622   6.250   0.215
12912TIP3    H138681   5.630   6.346   0.221
12912TIP3    H238682   5.550   6.228   0.273
12913TIP3   OH238683   6.477   1.399   1.415
12913TIP3    H138684   6.542   1.409   1.485
12913TIP3    H238685   6.525   1.416   1.334
12914TIP3   OH238686   0.585   1.604   4.773
12914TIP3    H138687   0.527   1.603   4.850
12914TIP3    H238688   0.672   1.619   4.809
12915TIP3   OH238689   0.519   3.798   0.274
12915TIP3    H138690   0.498   3.881   0.317
12915TIP3    H238691   0.446   3.741   0.296
12916TIP3   OH238692   6.923   2.399   5.365
12916TIP3    H138693   6.961   2.344   5.433
12916TIP3    H238694   6.989   2.401   5.296
12917TIP3   OH238695   0.239   1.143   4.460
12917TIP3    H138696   0.238   1.236   4.483
12917TIP3    H238697   0.201   1.141   4.372
12918TIP3   OH238698   2.948   3.992   5.645
12918TIP3    H138699   3.033   3.955   5.668
12918TIP3    H238700   2.916   4.031   5.727
12919TIP3   OH238701   7.467   5.635   6.342
12919TIP3    H138702   7.372   5.626   6.350
12919TIP3    H238703   7.489   5.594   6.259
12920TIP3   OH238704   7.710   5.282   2.914
12920TIP3    H138705   7.698   5.377   2.905
12920TIP3    H238706   7.657   5.258   2.990
12921TIP3   OH238707   1.268   2.973   2.130
12921TIP3    H138708   1.294   2.909   2.196
12921TIP3    H238709   1.256   3.055   2.178
12922TIP3   OH238710   1.291   5.598   5.463
12922TIP3    H138711   1.206   5.602   5.506
12922TIP3    H238712   1.343   5.667   5.504
12923TIP3   OH238713   5.764   4.976   4.391
12923TIP3    H138714   5.850   4.938   4.411
12923TIP3    H238715   5.752   5.043   4.458
12924TIP3   OH238716   7.291   3.900   3.271
12924TIP3    H138717   7.233   3.961   3.316
12924TIP3    H238718   7.242   3.872   3.194
12925TIP3   OH238719   6.335   6.422   1.760
12925TIP3    H138720   6.336   6.341   1.709
12925TIP3    H238721   6.406   6.412   1.823
12926TIP3   OH238722   8.070   7.077   5.728
12926TIP3    H138723   8.053   7.126   5.808
12926TIP3    H238724   7.983   7.058   5.693
12927TIP3   OH238725   2.368   4.209   4.927
12927TIP3    H138726   2.368   4.259   4.845
12927TIP3    H238727   2.461   4.200   4.949
12928TIP3   OH238728   1.001   0.161   5.997
12928TIP3    H138729   0.944   0.143   5.923
12928TIP3    H238730   1.088   0.133   5.967
12929TIP3   OH238731   4.799   2.489   5.339
12929TIP3    H138732   4.869   2.550   5.360
12929TIP3    H238733   4.841   2.403   5.338
12930TIP3   OH238734   5.996   3.473   6.082
12930TIP3    H138735   6.016   3.386   6.046
12930TIP3    H238736   6.067   3.529   6.051
12931TIP3   OH238737   5.078   0.025   0.803
12931TIP3    H138738   4.995  -0.006   0.767
12931TIP3    H238739   5.055   0.097   0.861
12932TIP3   OH238740   4.018   1.286   1.511
12932TIP3    H138741   4.009   1.239   1.428
12932TIP3    H238742   4.103   1.328   1.505
12933TIP3   OH238743   2.869   0.796   1.489
12933TIP3    H138744   2.929   0.723   1.505
12933TIP3    H238745   2.911   0.846   1.419
12934TIP3   OH238746   4.762   2.986   5.930
12934TIP3    H138747   4.741   2.896   5.953
12934TIP3    H238748   4.853   2.983   5.902
12935TIP3   OH238749   5.782   0.400   1.128
12935TIP3    H138750   5.852   0.346   1.165
12935TIP3    H238751   5.817   0.489   1.130
12936TIP3   OH238752   3.390   0.668   2.974
12936TIP3    H138753   3.426   0.615   2.902
12936TIP3    H238754   3.319   0.718   2.934
12937TIP3   OH238755   8.218   0.283   4.904
12937TIP3    H138756   8.268   0.359   4.933
12937TIP3    H238757   8.194   0.237   4.984
12938TIP3   OH238758   4.469   7.566   0.438
12938TIP3    H138759   4.427   7.549   0.354
12938TIP3    H238760   4.534   7.496   0.447
12939TIP3   OH238761   7.440   4.383   4.899
12939TIP3    H138762   7.383   4.319   4.942
12939TIP3    H238763   7.513   4.331   4.864
12940TIP3   OH238764   5.114   2.309   2.601
12940TIP3    H138765   5.173   2.310   2.526
12940TIP3    H238766   5.158   2.363   2.667
12941TIP3   OH238767   3.430   4.477   4.707
12941TIP3    H138768   3.360   4.428   4.665
12941TIP3    H238769   3.395   4.565   4.717
12942TIP3   OH238770   1.130   4.120   1.060
12942TIP3    H138771   1.149   4.144   1.151
12942TIP3    H238772   1.191   4.172   1.008
12943TIP3   OH238773   0.021   1.176   0.119
12943TIP3    H138774   0.100   1.129   0.094
12943TIP3    H238775  -0.045   1.149   0.055
12944TIP3   OH238776   6.272   5.042   0.321
12944TIP3    H138777   6.186   5.002   0.325
12944TIP3    H238778   6.299   5.051   0.412
12945TIP3   OH238779   3.390   5.387   5.496
12945TIP3    H138780   3.336   5.456   5.457
12945TIP3    H238781   3.392   5.409   5.589
12946TIP3   OH238782   0.123   7.347   4.431
12946TIP3    H138783   0.099   7.427   4.478
12946TIP3    H238784   0.196   7.311   4.480
12947TIP3   OH238785   6.179   0.788   5.937
12947TIP3    H138786   6.121   0.813   5.865
12947TIP3    H238787   6.152   0.699   5.960
12948TIP3   OH238788   7.366   1.180   5.491
12948TIP3    H138789   7.408   1.219   5.415
12948TIP3    H238790   7.399   1.090   5.494
12949TIP3   OH238791   4.728   6.474   3.366
12949TIP3    H138792   4.737   6.564   3.398
12949TIP3    H238793   4.818   6.441   3.364
12950TIP3   OH238794   0.330   1.331   2.364
12950TIP3    H138795   0.401   1.387   2.332
12950TIP3    H238796   0.285   1.385   2.429
12951TIP3   OH238797   2.190   6.370   2.610
12951TIP3    H138798   2.240   6.291   2.634
12951TIP3    H238799   2.203   6.429   2.685
12952TIP3   OH238800   7.360   7.415   1.453
12952TIP3    H138801   7.268   7.443   1.456
12952TIP3    H238802   7.375   7.393   1.361
12953TIP3   OH238803   5.352   3.456   4.521
12953TIP3    H138804   5.279   3.447   4.461
12953TIP3    H238805   5.393   3.539   4.497
12954TIP3   OH238806   5.630   4.538   2.238
12954TIP3    H138807   5.566   4.598   2.200
12954TIP3    H238808   5.710   4.553   2.189
12955TIP3   OH238809   3.136   3.368   3.457
12955TIP3    H138810   3.128   3.312   3.535
12955TIP3    H238811   3.180   3.313   3.393
12956TIP3   OH238812   2.082   6.267   5.561
12956TIP3    H138813   2.080   6.361   5.542
12956TIP3    H238814   2.153   6.257   5.624
12957TIP3   OH238815   2.073   4.719   0.563
12957TIP3    H138816   2.125   4.667   0.501
12957TIP3    H238817   1.990   4.672   0.569
12958TIP3   OH238818   6.794   7.536   1.014
12958TIP3    H138819   6.888   7.523   1.025
12958TIP3    H238820   6.780   7.528   0.919
12959TIP3   OH238821   6.937   7.736   6.103
12959TIP3    H138822   6.894   7.789   6.037
12959TIP3    H238823   6.868   7.677   6.135
12960TIP3   OH238824   6.532   2.924   6.528
12960TIP3    H138825   6.556   2.847   6.579
12960TIP3    H238826   6.547   2.997   6.588
12961TIP3   OH238827   2.179   6.381   3.245
12961TIP3    H138828   2.084   6.374   3.244
12961TIP3    H238829   2.198   6.447   3.312
12962TIP3   OH238830   5.197   4.371   6.062
12962TIP3    H138831   5.115   4.404   6.025
12962TIP3    H238832   5.263   4.389   5.994
12963TIP3   OH238833   5.556   7.087   4.145
12963TIP3    H138834   5.618   7.082   4.218
12963TIP3    H238835   5.566   7.002   4.100
12964TIP3   OH238836   8.000   2.994   2.533
12964TIP3    H138837   8.043   2.912   2.557
12964TIP3    H238838   8.023   3.055   2.603
12965TIP3   OH238839   1.433   0.775   1.017
12965TIP3    H138840   1.475   0.858   0.993
12965TIP3    H238841   1.372   0.756   0.946
12966TIP3   OH238842   0.244   0.823   3.895
12966TIP3    H138843   0.317   0.830   3.832
12966TIP3    H238844   0.192   0.751   3.862
12967TIP3   OH238845   8.086   3.752   4.642
12967TIP3    H138846   8.116   3.841   4.624
12967TIP3    H238847   8.152   3.716   4.702
12968TIP3   OH238848   3.647   5.016   3.114
12968TIP3    H138849   3.695   5.098   3.103
12968TIP3    H238850   3.715   4.949   3.116
12969TIP3   OH238851   1.430   3.465   5.126
12969TIP3    H138852   1.338   3.442   5.143
12969TIP3    H238853   1.460   3.505   5.207
12970TIP3   OH238854   6.257   1.131   3.753
12970TIP3    H138855   6.351   1.140   3.740
12970TIP3    H238856   6.242   1.154   3.845
12971TIP3   OH238857   4.099   4.643   0.526
12971TIP3    H138858   4.138   4.689   0.452
12971TIP3    H238859   4.085   4.553   0.495
12972TIP3   OH238860   8.167   1.784   1.168
12972TIP3    H138861   8.202   1.762   1.082
12972TIP3    H238862   8.208   1.721   1.227
12973TIP3   OH238863   0.438   2.960   0.398
12973TIP3    H138864   0.509   2.999   0.347
12973TIP3    H238865   0.467   2.871   0.415
12974TIP3   OH238866   7.186   4.067   5.629
12974TIP3    H138867   7.127   4.138   5.656
12974TIP3    H238868   7.206   4.087   5.537
12975TIP3   OH238869   6.872   6.517   6.574
12975TIP3    H138870   6.891   6.589   6.635
12975TIP3    H238871   6.907   6.439   6.618
12976TIP3   OH238872   1.737   3.331   5.263
12976TIP3    H138873   1.678   3.398   5.298
12976TIP3    H238874   1.701   3.310   5.176
12977TIP3   OH238875   1.909   7.857   5.306
12977TIP3    H138876   1.947   7.832   5.390
12977TIP3    H238877   1.855   7.782   5.281
12978TIP3   OH238878   7.297   1.676   3.884
12978TIP3    H138879   7.380   1.720   3.869
12978TIP3    H238880   7.279   1.689   3.977
12979TIP3   OH238881   8.014   4.455   4.647
12979TIP3    H138882   7.984   4.523   4.587
12979TIP3    H238883   8.023   4.377   4.592
12980TIP3   OH238884   3.041   7.601   5.768
12980TIP3    H138885   3.011   7.692   5.767
12980TIP3    H238886   3.084   7.589   5.684
12981TIP3   OH238887   1.143   1.815   0.296
12981TIP3    H138888   1.182   1.779   0.375
12981TIP3    H238889   1.071   1.870   0.326
12982TIP3   OH238890   5.356   1.494   0.931
12982TIP3    H138891   5.419   1.497   1.003
12982TIP3    H238892   5.371   1.409   0.889
12983TIP3   OH238893   7.575   2.981   6.704
12983TIP3    H138894   7.577   3.009   6.612
12983TIP3    H238895   7.570   2.886   6.700
12984TIP3   OH238896   3.749   7.265   2.124
12984TIP3    H138897   3.721   7.337   2.067
12984TIP3    H238898   3.688   7.268   2.198
12985TIP3   OH238899   3.503   2.482   1.653
12985TIP3    H138900   3.533   2.568   1.625
12985TIP3    H238901   3.579   2.443   1.697
12986TIP3   OH238902   4.942   1.504   3.147
12986TIP3    H138903   4.934   1.457   3.064
12986TIP3    H238904   4.953   1.435   3.213
12987TIP3   OH238905   3.663   7.094   0.417
12987TIP3    H138906   3.596   7.159   0.398
12987TIP3    H238907   3.626   7.011   0.387
12988TIP3   OH238908   7.669   2.204   3.623
12988TIP3    H138909   7.729   2.129   3.618
12988TIP3    H238910   7.617   2.197   3.543
12989TIP3   OH238911   3.027   6.158   6.319
12989TIP3    H138912   2.952   6.177   6.263
12989TIP3    H238913   3.048   6.066   6.301
12990TIP3   OH238914   1.601   4.241   6.234
12990TIP3    H138915   1.684   4.217   6.274
12990TIP3    H238916   1.544   4.165   6.251
12991TIP3   OH238917   7.311   0.899   1.551
12991TIP3    H138918   7.289   0.948   1.631
12991TIP3    H238919   7.240   0.918   1.490
12992TIP3   OH238920   0.775   2.218   3.064
12992TIP3    H138921   0.867   2.205   3.090
12992TIP3    H238922   0.757   2.147   3.003
12993TIP3   OH238923   2.971   2.963   5.198
12993TIP3    H138924   2.974   2.881   5.247
12993TIP3    H238925   2.877   2.985   5.194
12994TIP3   OH238926   7.348   6.925   3.221
12994TIP3    H138927   7.269   6.897   3.268
12994TIP3    H238928   7.419   6.915   3.285
12995TIP3   OH238929   2.126   4.925   1.042
12995TIP3    H138930   2.222   4.921   1.048
12995TIP3    H238931   2.108   4.907   0.950
12996TIP3   OH238932   5.242   7.164   3.210
12996TIP3    H138933   5.296   7.085   3.222
12996TIP3    H238934   5.234   7.173   3.115
12997TIP3   OH238935   4.708   5.212   3.986
12997TIP3    H138936   4.658   5.135   4.014
12997TIP3    H238937   4.644   5.266   3.939
12998TIP3   OH238938   2.055   4.070   5.865
12998TIP3    H138939   1.977   4.054   5.812
12998TIP3    H238940   2.125   4.086   5.801
12999TIP3   OH238941   8.255   2.210   2.970
12999TIP3    H138942   8.216   2.260   3.041
12999TIP3    H238943   8.319   2.270   2.931
13000TIP3   OH238944   7.003   3.293   4.853
13000TIP3    H138945   6.944   3.281   4.778
13000TIP3    H238946   7.051   3.211   4.859
13001TIP3   OH238947   6.027   1.986   6.367
13001TIP3    H138948   5.958   2.050   6.385
13001TIP3    H238949   6.096   2.006   6.430
13002TIP3   OH238950   4.902   7.512   2.033
13002TIP3    H138951   4.988   7.472   2.042
13002TIP3    H238952   4.912   7.574   1.960
13003TIP3   OH238953   7.547   3.680   2.361
13003TIP3    H138954   7.531   3.679   2.266
13003TIP3    H238955   7.636   3.648   2.371
13004TIP3   OH238956   1.526   2.742   1.068
13004TIP3    H138957   1.565   2.717   1.152
13004TIP3    H238958   1.600   2.741   1.006
13005TIP3   OH238959   7.216   0.554   1.281
13005TIP3    H138960   7.131   0.531   1.245
13005TIP3    H238961   7.206   0.644   1.312
13006TIP3   OH238962   3.709   5.494   0.564
13006TIP3    H138963   3.663   5.452   0.492
13006TIP3    H238964   3.669   5.581   0.570
13007TIP3   OH238965   1.234   1.057   2.852
13007TIP3    H138966   1.206   1.005   2.776
13007TIP3    H238967   1.305   1.111   2.819
13008TIP3   OH238968   0.422   0.895   1.554
13008TIP3    H138969   0.406   0.943   1.473
13008TIP3    H238970   0.356   0.825   1.554
13009TIP3   OH238971   4.910   6.688   1.708
13009TIP3    H138972   4.866   6.772   1.709
13009TIP3    H238973   4.896   6.652   1.795
13010TIP3   OH238974   4.109   2.536   5.567
13010TIP3    H138975   4.166   2.567   5.637
13010TIP3    H238976   4.060   2.614   5.540
13011TIP3   OH238977   5.634   7.740   3.550
13011TIP3    H138978   5.652   7.680   3.622
13011TIP3    H238979   5.541   7.727   3.530
13012TIP3   OH238980   5.596   1.076   2.212
13012TIP3    H138981   5.581   1.063   2.118
13012TIP3    H238982   5.509   1.067   2.251
13013TIP3   OH238983   3.420   6.666   4.851
13013TIP3    H138984   3.474   6.593   4.882
13013TIP3    H238985   3.380   6.701   4.931
13014TIP3   OH238986   7.747   3.557   1.057
13014TIP3    H138987   7.795   3.574   0.975
13014TIP3    H238988   7.744   3.642   1.100
13015TIP3   OH238989   0.403   4.628   5.708
13015TIP3    H138990   0.338   4.582   5.761
13015TIP3    H238991   0.356   4.703   5.673
13016TIP3   OH238992   6.795   7.381   5.920
13016TIP3    H138993   6.774   7.465   5.961
13016TIP3    H238994   6.891   7.378   5.919
13017TIP3   OH238995   6.260   3.605   6.375
13017TIP3    H138996   6.269   3.542   6.303
13017TIP3    H238997   6.278   3.690   6.334
13018TIP3   OH238998   3.215   1.158   3.399
13018TIP3    H138999   3.168   1.142   3.481
13018TIP3    H239000   3.203   1.078   3.348
13019TIP3   OH239001   2.557   5.895   4.626
13019TIP3    H139002   2.574   5.967   4.566
13019TIP3    H239003   2.627   5.832   4.608
13020TIP3   OH239004   7.913   3.603   6.508
13020TIP3    H139005   7.981   3.564   6.453
13020TIP3    H239006   7.833   3.556   6.484
13021TIP3   OH239007   3.411   5.604   0.592
13021TIP3    H139008   3.453   5.607   0.506
13021TIP3    H239009   3.436   5.518   0.628
13022TIP3   OH239010   1.343   4.959   5.407
13022TIP3    H139011   1.383   5.021   5.347
13022TIP3    H239012   1.298   4.896   5.349
13023TIP3   OH239013   3.842   1.700   6.174
13023TIP3    H139014   3.920   1.711   6.228
13023TIP3    H239015   3.852   1.764   6.104
13024TIP3   OH239016   5.497   5.495   5.384
13024TIP3    H139017   5.461   5.459   5.466
13024TIP3    H239018   5.518   5.586   5.405
13025TIP3   OH239019   4.603   1.549   0.513
13025TIP3    H139020   4.546   1.501   0.453
13025TIP3    H239021   4.684   1.563   0.463
13026TIP3   OH239022   1.056   4.296   2.960
13026TIP3    H139023   1.123   4.228   2.957
13026TIP3    H239024   1.004   4.275   3.038
13027TIP3   OH239025   5.757   2.224   0.239
13027TIP3    H139026   5.840   2.271   0.229
13027TIP3    H239027   5.780   2.132   0.224
13028TIP3   OH239028   1.997   3.641   1.735
13028TIP3    H139029   2.081   3.602   1.711
13028TIP3    H239030   1.951   3.651   1.651
13029TIP3   OH239031   6.651   3.809   2.686
13029TIP3    H139032   6.665   3.874   2.618
13029TIP3    H239033   6.690   3.729   2.651
13030TIP3   OH239034   7.924   3.307   1.725
13030TIP3    H139035   7.842   3.356   1.722
13030TIP3    H239036   7.911   3.241   1.793
13031TIP3   OH239037   5.344   7.639   3.503
13031TIP3    H139038   5.333   7.588   3.422
13031TIP3    H239039   5.267   7.696   3.506
13032TIP3   OH239040   0.184   6.287   6.322
13032TIP3    H139041   0.251   6.298   6.390
13032TIP3    H239042   0.106   6.260   6.370
13033TIP3   OH239043   2.475   1.698   2.361
13033TIP3    H139044   2.448   1.624   2.307
13033TIP3    H239045   2.404   1.709   2.425
13034TIP3   OH239046   1.552   7.582   0.604
13034TIP3    H139047   1.548   7.503   0.550
13034TIP3    H239048   1.460   7.603   0.622
13035TIP3   OH239049   2.021   5.479   4.967
13035TIP3    H139050   2.034   5.574   4.975
13035TIP3    H239051   1.929   5.470   4.942
13036TIP3   OH239052   1.814   7.037   4.572
13036TIP3    H139053   1.724   7.048   4.602
13036TIP3    H239054   1.865   7.022   4.652
13037TIP3   OH239055   0.108   4.768   4.287
13037TIP3    H139056   0.048   4.739   4.355
13037TIP3    H239057   0.151   4.688   4.256
13038TIP3   OH239058   2.090   5.884   4.589
13038TIP3    H139059   2.089   5.967   4.540
13038TIP3    H239060   2.066   5.909   4.678
13039TIP3   OH239061   0.022   0.953   1.791
13039TIP3    H139062  -0.062   0.928   1.829
13039TIP3    H239063   0.000   0.982   1.702
13040TIP3   OH239064   2.946   5.226   2.086
13040TIP3    H139065   2.959   5.314   2.052
13040TIP3    H239066   3.026   5.179   2.062
13041TIP3   OH239067   3.681   2.082   4.263
13041TIP3    H139068   3.755   2.123   4.218
13041TIP3    H239069   3.616   2.152   4.270
13042TIP3   OH239070   6.318   4.426   0.616
13042TIP3    H139071   6.251   4.484   0.580
13042TIP3    H239072   6.397   4.479   0.619
13043TIP3   OH239073   5.650   1.204   6.646
13043TIP3    H139074   5.724   1.204   6.707
13043TIP3    H239075   5.645   1.114   6.614
13044TIP3   OH239076   6.218   3.764   2.343
13044TIP3    H139077   6.214   3.859   2.333
13044TIP3    H239078   6.183   3.730   2.260
13045TIP3   OH239079   5.109   0.208   1.244
13045TIP3    H139080   5.103   0.293   1.290
13045TIP3    H239081   5.202   0.186   1.248
13046TIP3   OH239082   5.732   4.479   5.480
13046TIP3    H139083   5.761   4.557   5.432
13046TIP3    H239084   5.752   4.498   5.572
13047TIP3   OH239085   4.221   3.633   1.390
13047TIP3    H139086   4.229   3.651   1.483
13047TIP3    H239087   4.202   3.718   1.350
13048TIP3   OH239088   6.561   1.725   0.256
13048TIP3    H139089   6.558   1.772   0.173
13048TIP3    H239090   6.505   1.776   0.315
13049TIP3   OH239091   2.953   2.451   0.292
13049TIP3    H139092   3.045   2.461   0.265
13049TIP3    H239093   2.952   2.477   0.384
13050TIP3   OH239094   4.041   7.743   0.592
13050TIP3    H139095   4.012   7.817   0.538
13050TIP3    H239096   3.999   7.759   0.677
13051TIP3   OH239097   0.483   6.038   6.239
13051TIP3    H139098   0.552   6.088   6.282
13051TIP3    H239099   0.417   6.024   6.307
13052TIP3   OH239100   2.437   2.268   3.780
13052TIP3    H139101   2.451   2.186   3.826
13052TIP3    H239102   2.524   2.293   3.748
13053TIP3   OH239103   4.805   6.975   3.785
13053TIP3    H139104   4.776   7.066   3.783
13053TIP3    H239105   4.826   6.959   3.877
13054TIP3   OH239106   4.297   5.002   6.541
13054TIP3    H139107   4.322   4.909   6.538
13054TIP3    H239108   4.217   5.004   6.592
13055TIP3   OH239109   1.165   1.229   1.847
13055TIP3    H139110   1.207   1.183   1.774
13055TIP3    H239111   1.093   1.172   1.873
13056TIP3   OH239112   7.391   0.980   0.450
13056TIP3    H139113   7.465   0.942   0.495
13056TIP3    H239114   7.333   0.906   0.431
13057TIP3   OH239115   7.799   2.153   0.646
13057TIP3    H139116   7.783   2.075   0.593
13057TIP3    H239117   7.800   2.225   0.582
13058TIP3   OH239118   0.347   3.901   3.538
13058TIP3    H139119   0.363   3.846   3.615
13058TIP3    H239120   0.435   3.916   3.501
13059TIP3   OH239121   6.600   0.283   6.553
13059TIP3    H139122   6.582   0.329   6.635
13059TIP3    H239123   6.696   0.283   6.547
13060TIP3   OH239124   5.935   0.269   1.752
13060TIP3    H139125   5.924   0.317   1.670
13060TIP3    H239126   5.882   0.318   1.816
13061TIP3   OH239127   1.323   3.771   4.306
13061TIP3    H139128   1.315   3.803   4.216
13061TIP3    H239129   1.270   3.691   4.308
13062TIP3   OH239130   4.539   0.485   5.260
13062TIP3    H139131   4.629   0.461   5.237
13062TIP3    H239132   4.540   0.581   5.262
13063TIP3   OH239133   2.463   1.528   3.624
13063TIP3    H139134   2.517   1.510   3.547
13063TIP3    H239135   2.444   1.442   3.661
13064TIP3   OH239136   1.594   1.957   5.931
13064TIP3    H139137   1.640   2.005   5.862
13064TIP3    H239138   1.645   1.974   6.010
13065TIP3   OH239139   6.663   1.286   5.402
13065TIP3    H139140   6.583   1.328   5.371
13065TIP3    H239141   6.708   1.258   5.322
13066TIP3   OH239142   3.639   3.579   6.254
13066TIP3    H139143   3.598   3.658   6.289
13066TIP3    H239144   3.713   3.562   6.313
13067TIP3   OH239145   4.389   4.158   6.016
13067TIP3    H139146   4.357   4.177   5.928
13067TIP3    H239147   4.347   4.075   6.039
13068TIP3   OH239148   3.604   0.832   2.559
13068TIP3    H139149   3.565   0.818   2.645
13068TIP3    H239150   3.541   0.886   2.512
13069TIP3   OH239151   5.025   5.033   6.563
13069TIP3    H139152   4.947   5.039   6.618
13069TIP3    H239153   5.098   5.049   6.623
13070TIP3   OH239154   0.084   6.652   4.577
13070TIP3    H139155   0.137   6.727   4.604
13070TIP3    H239156   0.090   6.591   4.651
13071TIP3   OH239157   2.259   5.235   0.117
13071TIP3    H139158   2.306   5.175   0.176
13071TIP3    H239159   2.312   5.314   0.117
13072TIP3   OH239160   6.751   0.307   6.156
13072TIP3    H139161   6.767   0.402   6.158
13072TIP3    H239162   6.662   0.297   6.191
13073TIP3   OH239163   2.854   3.639   0.719
13073TIP3    H139164   2.914   3.711   0.703
13073TIP3    H239165   2.878   3.572   0.655
13074TIP3   OH239166   3.628   3.911   6.834
13074TIP3    H139167   3.687   3.851   6.789
13074TIP3    H239168   3.543   3.895   6.792
13075TIP3   OH239169   2.259   0.708   5.851
13075TIP3    H139170   2.292   0.706   5.761
13075TIP3    H239171   2.318   0.769   5.896
13076TIP3   OH239172   0.867   6.979   1.748
13076TIP3    H139173   0.861   7.053   1.808
13076TIP3    H239174   0.827   6.906   1.795
13077TIP3   OH239175   2.493   3.182   1.847
13077TIP3    H139176   2.477   3.210   1.757
13077TIP3    H239177   2.538   3.098   1.839
13078TIP3   OH239178   3.308   3.917   6.742
13078TIP3    H139179   3.358   3.865   6.679
13078TIP3    H239180   3.271   3.852   6.802
13079TIP3   OH239181   6.891   0.342   5.165
13079TIP3    H139182   6.938   0.411   5.212
13079TIP3    H239183   6.881   0.271   5.228
13080TIP3   OH239184   0.132   5.672   2.170
13080TIP3    H139185   0.217   5.680   2.212
13080TIP3    H239186   0.124   5.751   2.116
13081TIP3   OH239187   2.934   6.730   0.976
13081TIP3    H139188   3.026   6.754   0.962
13081TIP3    H239189   2.895   6.737   0.889
13082TIP3   OH239190   4.463   4.988   4.718
13082TIP3    H139191   4.489   4.994   4.626
13082TIP3    H239192   4.369   5.005   4.718
13083TIP3   OH239193   5.976   3.509   3.281
13083TIP3    H139194   6.005   3.497   3.190
13083TIP3    H239195   6.056   3.499   3.333
13084TIP3   OH239196   4.061   0.909   0.145
13084TIP3    H139197   4.054   0.829   0.197
13084TIP3    H239198   4.150   0.907   0.109
13085TIP3   OH239199   0.112   2.994   1.790
13085TIP3    H139200   0.199   2.983   1.751
13085TIP3    H239201   0.051   2.978   1.717
13086TIP3   OH239202   3.181   6.542   4.655
13086TIP3    H139203   3.122   6.608   4.617
13086TIP3    H239204   3.269   6.578   4.643
13087TIP3   OH239205   3.172   7.337   1.136
13087TIP3    H139206   3.241   7.397   1.166
13087TIP3    H239207   3.191   7.254   1.180
13088TIP3   OH239208   2.279   2.527   1.185
13088TIP3    H139209   2.316   2.611   1.158
13088TIP3    H239210   2.199   2.518   1.133
13089TIP3   OH239211   2.869   6.275   5.211
13089TIP3    H139212   2.962   6.273   5.187
13089TIP3    H239213   2.824   6.305   5.132
13090TIP3   OH239214   4.011   5.541   4.913
13090TIP3    H139215   3.921   5.510   4.916
13090TIP3    H239216   4.063   5.469   4.949
13091TIP3   OH239217   6.036   1.512   4.148
13091TIP3    H139218   6.047   1.478   4.237
13091TIP3    H239219   5.955   1.472   4.116
13092TIP3   OH239220   1.797   4.826   1.008
13092TIP3    H139221   1.717   4.841   0.958
13092TIP3    H239222   1.867   4.838   0.944
13093TIP3   OH239223   4.515   5.366   1.452
13093TIP3    H139224   4.556   5.285   1.482
13093TIP3    H239225   4.539   5.372   1.360
13094TIP3   OH239226   1.745   1.533   6.353
13094TIP3    H139227   1.707   1.465   6.409
13094TIP3    H239228   1.682   1.544   6.282
13095TIP3   OH239229   3.809   2.356   1.448
13095TIP3    H139230   3.777   2.275   1.488
13095TIP3    H239231   3.871   2.327   1.381
13096TIP3   OH239232   7.243   6.487   5.768
13096TIP3    H139233   7.188   6.494   5.689
13096TIP3    H239234   7.204   6.416   5.818
13097TIP3   OH239235   3.877   3.282   5.665
13097TIP3    H139236   3.809   3.246   5.609
13097TIP3    H239237   3.864   3.239   5.749
13098TIP3   OH239238   4.673   4.414   3.720
13098TIP3    H139239   4.681   4.481   3.652
13098TIP3    H239240   4.762   4.401   3.752
13099TIP3   OH239241   2.499   0.922   5.357
13099TIP3    H139242   2.540   0.998   5.317
13099TIP3    H239243   2.407   0.928   5.332
13100TIP3   OH239244   7.351   4.784   6.445
13100TIP3    H139245   7.393   4.838   6.512
13100TIP3    H239246   7.287   4.842   6.404
13101TIP3   OH239247   5.662   0.484   6.383
13101TIP3    H139248   5.582   0.437   6.359
13101TIP3    H239249   5.687   0.531   6.303
13102TIP3   OH239250   0.295   4.944   0.620
13102TIP3    H139251   0.336   4.957   0.705
13102TIP3    H239252   0.367   4.939   0.558
13103TIP3   OH239253   0.530   2.759   2.149
13103TIP3    H139254   0.615   2.719   2.171
13103TIP3    H239255   0.483   2.761   2.232
13104TIP3   OH239256   7.498   2.973   2.623
13104TIP3    H139257   7.557   2.991   2.550
13104TIP3    H239258   7.448   2.896   2.594
13105TIP3   OH239259   2.175   1.126   0.558
13105TIP3    H139260   2.241   1.193   0.580
13105TIP3    H239261   2.126   1.164   0.486
13106TIP3   OH239262   1.990   6.781   0.430
13106TIP3    H139263   2.049   6.842   0.387
13106TIP3    H239264   2.025   6.695   0.410
13107TIP3   OH239265   2.833   1.692   4.941
13107TIP3    H139266   2.859   1.762   5.000
13107TIP3    H239267   2.738   1.684   4.954
13108TIP3   OH239268   4.070   1.694   1.080
13108TIP3    H139269   3.975   1.706   1.088
13108TIP3    H239270   4.087   1.701   0.986
13109TIP3   OH239271   3.014   2.906   2.751
13109TIP3    H139272   3.075   2.959   2.701
13109TIP3    H239273   3.009   2.823   2.703
13110TIP3   OH239274   1.315   0.576   2.279
13110TIP3    H139275   1.333   0.518   2.205
13110TIP3    H239276   1.322   0.664   2.243
13111TIP3   OH239277   7.172   2.176   3.917
13111TIP3    H139278   7.135   2.093   3.889
13111TIP3    H239279   7.236   2.199   3.850
13112TIP3   OH239280   0.818   4.331   4.767
13112TIP3    H139281   0.876   4.341   4.691
13112TIP3    H239282   0.776   4.416   4.776
13113TIP3   OH239283   5.117   1.064   5.128
13113TIP3    H139284   5.060   1.026   5.061
13113TIP3    H239285   5.197   1.011   5.125
13114TIP3   OH239286   6.435   3.483   0.528
13114TIP3    H139287   6.382   3.445   0.457
13114TIP3    H239288   6.510   3.523   0.483
13115TIP3   OH239289   1.772   7.353   0.711
13115TIP3    H139290   1.744   7.415   0.779
13115TIP3    H239291   1.795   7.408   0.636
13116TIP3   OH239292   3.914   5.082   3.671
13116TIP3    H139293   3.827   5.122   3.669
13116TIP3    H239294   3.947   5.101   3.759
13117TIP3   OH239295   6.938   6.678   3.479
13117TIP3    H139296   6.871   6.676   3.411
13117TIP3    H239297   6.891   6.661   3.560
13118TIP3   OH239298   5.326   7.611   6.562
13118TIP3    H139299   5.403   7.558   6.579
13118TIP3    H239300   5.317   7.668   6.638
13119TIP3   OH239301   0.678   1.765   1.773
13119TIP3    H139302   0.590   1.802   1.789
13119TIP3    H239303   0.722   1.832   1.721
13120TIP3   OH239304   5.532   2.616   5.637
13120TIP3    H139305   5.485   2.657   5.564
13120TIP3    H239306   5.623   2.611   5.608
13121TIP3   OH239307   6.819   1.725   0.580
13121TIP3    H139308   6.891   1.698   0.523
13121TIP3    H239309   6.810   1.819   0.564
13122TIP3   OH239310   2.550   6.619   3.050
13122TIP3    H139311   2.578   6.532   3.021
13122TIP3    H239312   2.611   6.640   3.121
13123TIP3   OH239313   6.463   7.745   3.536
13123TIP3    H139314   6.448   7.765   3.629
13123TIP3    H239315   6.554   7.717   3.533
13124TIP3   OH239316   3.900   2.219   4.467
13124TIP3    H139317   3.928   2.155   4.402
13124TIP3    H239318   3.963   2.290   4.461
13125TIP3   OH239319   7.482   6.989   1.568
13125TIP3    H139320   7.573   7.019   1.565
13125TIP3    H239321   7.432   7.065   1.539
13126TIP3   OH239322   4.019   2.241   3.707
13126TIP3    H139323   3.963   2.166   3.687
13126TIP3    H239324   4.010   2.252   3.802
13127TIP3   OH239325   6.536   4.101   6.734
13127TIP3    H139326   6.580   4.184   6.713
13127TIP3    H239327   6.443   4.125   6.739
13128TIP3   OH239328   7.609   3.701   1.707
13128TIP3    H139329   7.554   3.777   1.689
13128TIP3    H239330   7.690   3.738   1.742
13129TIP3   OH239331   4.815   7.258   4.470
13129TIP3    H139332   4.857   7.329   4.422
13129TIP3    H239333   4.777   7.301   4.547
13130TIP3   OH239334   7.803   2.955   6.437
13130TIP3    H139335   7.791   2.875   6.385
13130TIP3    H239336   7.897   2.972   6.431
13131TIP3   OH239337   3.213   2.447   0.984
13131TIP3    H139338   3.119   2.465   0.973
13131TIP3    H239339   3.239   2.499   1.060
13132TIP3   OH239340   0.126   3.764   0.875
13132TIP3    H139341   0.046   3.774   0.928
13132TIP3    H239342   0.127   3.671   0.852
13133TIP3   OH239343   6.789   6.453   5.471
13133TIP3    H139344   6.796   6.358   5.475
13133TIP3    H239345   6.850   6.484   5.538
13134TIP3   OH239346   2.047   5.959   3.548
13134TIP3    H139347   1.969   5.944   3.495
13134TIP3    H239348   2.051   6.054   3.558
13135TIP3   OH239349   4.491   3.947   4.598
13135TIP3    H139350   4.412   3.963   4.649
13135TIP3    H239351   4.521   4.034   4.572
13136TIP3   OH239352   6.458   4.813   2.254
13136TIP3    H139353   6.394   4.883   2.251
13136TIP3    H239354   6.530   4.848   2.307
13137TIP3   OH239355   6.339   3.960   3.088
13137TIP3    H139356   6.293   3.996   3.012
13137TIP3    H239357   6.417   3.920   3.050
13138TIP3   OH239358   2.218   7.085   4.916
13138TIP3    H139359   2.226   6.996   4.881
13138TIP3    H239360   2.295   7.131   4.884
13139TIP3   OH239361   4.808   5.538   2.567
13139TIP3    H139362   4.774   5.524   2.479
13139TIP3    H239363   4.891   5.489   2.569
13140TIP3   OH239364   2.049   5.027   1.684
13140TIP3    H139365   2.108   5.083   1.734
13140TIP3    H239366   2.095   4.943   1.677
13141TIP3   OH239367   7.546   6.379   5.053
13141TIP3    H139368   7.459   6.359   5.087
13141TIP3    H239369   7.593   6.296   5.056
13142TIP3   OH239370   0.145   0.490   3.423
13142TIP3    H139371   0.189   0.523   3.501
13142TIP3    H239372   0.071   0.440   3.456
13143TIP3   OH239373   4.499   0.849   6.116
13143TIP3    H139374   4.554   0.842   6.039
13143TIP3    H239375   4.477   0.942   6.123
13144TIP3   OH239376   1.481   5.228   5.288
13144TIP3    H139377   1.406   5.282   5.264
13144TIP3    H239378   1.551   5.257   5.228
13145TIP3   OH239379   6.045   5.066   2.411
13145TIP3    H139380   5.984   5.133   2.380
13145TIP3    H239381   6.064   5.013   2.334
13146TIP3   OH239382   7.871   6.275   1.393
13146TIP3    H139383   7.799   6.278   1.456
13146TIP3    H239384   7.879   6.366   1.363
13147TIP3   OH239385   0.911   0.746   0.046
13147TIP3    H139386   0.858   0.702   0.112
13147TIP3    H239387   0.961   0.811   0.095
13148TIP3   OH239388   1.076   6.809   2.626
13148TIP3    H139389   1.022   6.750   2.573
13148TIP3    H239390   1.035   6.894   2.616
13149TIP3   OH239391   5.811   5.223   2.787
13149TIP3    H139392   5.877   5.161   2.755
13149TIP3    H239393   5.862   5.288   2.837
13150TIP3   OH239394   6.498   1.777   6.310
13150TIP3    H139395   6.520   1.693   6.350
13150TIP3    H239396   6.583   1.812   6.282
13151TIP3   OH239397   1.163   4.969   3.493
13151TIP3    H139398   1.075   4.948   3.460
13151TIP3    H239399   1.157   5.060   3.521
13152TIP3   OH239400   3.867   5.603   5.394
13152TIP3    H139401   3.788   5.648   5.425
13152TIP3    H239402   3.916   5.581   5.473
13153TIP3   OH239403   2.317   2.933   1.614
13153TIP3    H139404   2.264   2.907   1.689
13153TIP3    H239405   2.281   2.883   1.541
13154TIP3   OH239406   8.277   0.169   0.337
13154TIP3    H139407   8.190   0.131   0.334
13154TIP3    H239408   8.269   0.245   0.394
13155TIP3   OH239409   6.023   6.827   0.050
13155TIP3    H139410   5.968   6.883   0.106
13155TIP3    H239411   5.982   6.741   0.055
13156TIP3   OH239412   7.795   5.564   0.924
13156TIP3    H139413   7.721   5.535   0.870
13156TIP3    H239414   7.860   5.495   0.914
13157TIP3   OH239415   7.169   6.326   6.017
13157TIP3    H139416   7.119   6.356   6.092
13157TIP3    H239417   7.260   6.346   6.039
13158TIP3   OH239418   7.005   4.516   1.623
13158TIP3    H139419   7.082   4.504   1.566
13158TIP3    H239420   6.935   4.471   1.577
13159TIP3   OH239421   1.831   2.589   4.232
13159TIP3    H139422   1.913   2.540   4.241
13159TIP3    H239423   1.819   2.600   4.138
13160TIP3   OH239424   3.518   3.180   5.920
13160TIP3    H139425   3.449   3.129   5.877
13160TIP3    H239426   3.584   3.115   5.945
13161TIP3   OH239427   1.470   3.969   1.958
13161TIP3    H139428   1.417   4.039   1.995
13161TIP3    H239429   1.428   3.889   1.986
13162TIP3   OH239430   4.921   5.494   3.214
13162TIP3    H139431   4.995   5.460   3.163
13162TIP3    H239432   4.863   5.532   3.148
13163TIP3   OH239433   6.359   1.609   5.382
13163TIP3    H139434   6.450   1.611   5.355
13163TIP3    H239435   6.312   1.570   5.308
13164TIP3   OH239436   2.706   1.806   2.248
13164TIP3    H139437   2.628   1.763   2.282
13164TIP3    H239438   2.756   1.736   2.206
13165TIP3   OH239439   7.201   2.443   4.808
13165TIP3    H139440   7.230   2.375   4.747
13165TIP3    H239441   7.106   2.444   4.800
13166TIP3   OH239442   0.781   2.422   5.816
13166TIP3    H139443   0.689   2.412   5.792
13166TIP3    H239444   0.810   2.334   5.840
13167TIP3   OH239445   7.707   0.202   3.463
13167TIP3    H139446   7.674   0.123   3.506
13167TIP3    H239447   7.652   0.272   3.497
13168TIP3   OH239448   4.402   6.936   1.892
13168TIP3    H139449   4.409   7.027   1.864
13168TIP3    H239450   4.386   6.941   1.987
13169TIP3   OH239451   1.017   6.773   0.783
13169TIP3    H139452   1.089   6.747   0.724
13169TIP3    H239453   1.061   6.799   0.864
13170TIP3   OH239454   1.821   6.336   6.197
13170TIP3    H139455   1.869   6.348   6.115
13170TIP3    H239456   1.732   6.365   6.176
13171TIP3   OH239457   6.816   4.493   2.936
13171TIP3    H139458   6.897   4.541   2.918
13171TIP3    H239459   6.760   4.511   2.861
13172TIP3   OH239460   5.672   2.548   6.214
13172TIP3    H139461   5.690   2.637   6.184
13172TIP3    H239462   5.612   2.559   6.289
13173TIP3   OH239463   2.280   5.033   5.949
13173TIP3    H139464   2.219   4.977   5.901
13173TIP3    H239465   2.253   5.025   6.041
13174TIP3   OH239466   5.541   5.524   1.080
13174TIP3    H139467   5.542   5.432   1.053
13174TIP3    H239468   5.464   5.561   1.036
13175TIP3   OH239469   2.829   5.801   4.637
13175TIP3    H139470   2.914   5.764   4.661
13175TIP3    H239471   2.790   5.829   4.720
13176TIP3   OH239472   7.447   4.999   5.010
13176TIP3    H139473   7.413   4.911   5.024
13176TIP3    H239474   7.390   5.055   5.063
13177TIP3   OH239475   0.866   0.828   2.197
13177TIP3    H139476   0.819   0.795   2.273
13177TIP3    H239477   0.939   0.767   2.185
13178TIP3   OH239478   4.377   3.393   6.772
13178TIP3    H139479   4.369   3.298   6.773
13178TIP3    H239480   4.287   3.425   6.784
13179TIP3   OH239481   5.205   6.066   5.512
13179TIP3    H139482   5.191   6.056   5.418
13179TIP3    H239483   5.263   6.142   5.519
13180TIP3   OH239484   5.499   0.509   3.504
13180TIP3    H139485   5.434   0.439   3.504
13180TIP3    H239486   5.554   0.491   3.580
13181TIP3   OH239487   4.278   5.129   3.174
13181TIP3    H139488   4.247   5.040   3.163
13181TIP3    H239489   4.202   5.178   3.205
13182TIP3   OH239490   4.972   2.722   4.282
13182TIP3    H139491   4.932   2.712   4.195
13182TIP3    H239492   4.919   2.668   4.340
13183TIP3   OH239493   0.363   6.725   5.847
13183TIP3    H139494   0.384   6.677   5.927
13183TIP3    H239495   0.367   6.817   5.872
13184TIP3   OH239496   1.378   4.433   3.854
13184TIP3    H139497   1.438   4.359   3.841
13184TIP3    H239498   1.433   4.502   3.891
13185TIP3   OH239499   1.256   0.038   1.986
13185TIP3    H139500   1.227   0.107   2.045
13185TIP3    H239501   1.233   0.070   1.899
13186TIP3   OH239502   3.886   0.392   6.693
13186TIP3    H139503   3.792   0.382   6.677
13186TIP3    H239504   3.894   0.477   6.736
13187TIP3   OH239505   7.278   3.573   5.700
13187TIP3    H139506   7.207   3.587   5.637
13187TIP3    H239507   7.330   3.653   5.695
13188TIP3   OH239508   2.523   6.828   1.353
13188TIP3    H139509   2.477   6.908   1.325
13188TIP3    H239510   2.575   6.803   1.277
13189TIP3   OH239511   3.027   2.258   5.743
13189TIP3    H139512   3.089   2.222   5.807
13189TIP3    H239513   3.052   2.350   5.734
13190TIP3   OH239514   2.453   4.258   3.526
13190TIP3    H139515   2.365   4.279   3.494
13190TIP3    H239516   2.446   4.169   3.561
13191TIP3   OH239517   6.097   4.549   4.263
13191TIP3    H139518   6.030   4.563   4.330
13191TIP3    H239519   6.047   4.528   4.184
13192TIP3   OH239520   1.536   2.208   3.358
13192TIP3    H139521   1.555   2.193   3.450
13192TIP3    H239522   1.621   2.228   3.319
13193TIP3   OH239523   4.358   3.805   0.967
13193TIP3    H139524   4.421   3.827   1.036
13193TIP3    H239525   4.305   3.885   0.957
13194TIP3   OH239526   3.886   2.875   0.747
13194TIP3    H139527   3.917   2.919   0.667
13194TIP3    H239528   3.814   2.819   0.717
13195TIP3   OH239529   5.855   1.024   1.447
13195TIP3    H139530   5.765   1.013   1.417
13195TIP3    H239531   5.850   1.016   1.542
13196TIP3   OH239532   0.977   1.913   4.934
13196TIP3    H139533   0.994   1.856   4.858
13196TIP3    H239534   1.062   1.921   4.977
13197TIP3   OH239535   0.675   5.775   6.551
13197TIP3    H139536   0.759   5.757   6.593
13197TIP3    H239537   0.692   5.849   6.492
13198TIP3   OH239538   6.179   4.437   5.066
13198TIP3    H139539   6.168   4.476   5.153
13198TIP3    H239540   6.162   4.344   5.079
13199TIP3   OH239541   4.824   6.736   0.036
13199TIP3    H139542   4.897   6.789   0.005
13199TIP3    H239543   4.764   6.800   0.076
13200TIP3   OH239544   6.109   6.480   1.337
13200TIP3    H139545   6.076   6.564   1.305
13200TIP3    H239546   6.196   6.472   1.296
13201TIP3   OH239547   0.709   0.922   5.497
13201TIP3    H139548   0.622   0.891   5.524
13201TIP3    H239549   0.751   0.846   5.458
13202TIP3   OH239550   5.850   1.374   6.238
13202TIP3    H139551   5.924   1.397   6.294
13202TIP3    H239552   5.889   1.360   6.152
13203TIP3   OH239553   4.819   0.860   1.043
13203TIP3    H139554   4.750   0.813   1.090
13203TIP3    H239555   4.841   0.803   0.969
13204TIP3   OH239556   1.111   2.068   0.693
13204TIP3    H139557   1.136   2.138   0.753
13204TIP3    H239558   1.193   2.041   0.652
13205TIP3   OH239559   5.578   4.008   2.141
13205TIP3    H139560   5.602   3.937   2.200
13205TIP3    H239561   5.494   3.983   2.105
13206TIP3   OH239562   2.529   1.524   3.979
13206TIP3    H139563   2.514   1.601   3.923
13206TIP3    H239564   2.442   1.502   4.013
13207TIP3   OH239565   4.655   6.213   3.043
13207TIP3    H139566   4.653   6.185   2.951
13207TIP3    H239567   4.601   6.148   3.088
13208TIP3   OH239568   5.537   6.554   0.594
13208TIP3    H139569   5.482   6.560   0.516
13208TIP3    H239570   5.551   6.645   0.621
13209TIP3   OH239571   4.669   4.170   0.232
13209TIP3    H139572   4.726   4.193   0.158
13209TIP3    H239573   4.607   4.243   0.237
13210TIP3   OH239574   0.575   6.658   2.146
13210TIP3    H139575   0.544   6.719   2.213
13210TIP3    H239576   0.635   6.599   2.192
13211TIP3   OH239577   1.443   0.550   4.061
13211TIP3    H139578   1.513   0.553   3.996
13211TIP3    H239579   1.471   0.482   4.122
13212TIP3   OH239580   5.397   2.438   0.680
13212TIP3    H139581   5.394   2.376   0.753
13212TIP3    H239582   5.438   2.389   0.609
13213TIP3   OH239583   7.154   3.682   4.533
13213TIP3    H139584   7.182   3.638   4.614
13213TIP3    H239585   7.187   3.772   4.542
13214TIP3   OH239586   5.061   5.164   2.352
13214TIP3    H139587   5.133   5.202   2.301
13214TIP3    H239588   4.982   5.202   2.314
13215TIP3   OH239589   4.602   3.754   3.573
13215TIP3    H139590   4.533   3.720   3.516
13215TIP3    H239591   4.567   3.836   3.607
13216TIP3   OH239592   0.835   0.227   5.436
13216TIP3    H139593   0.861   0.306   5.389
13216TIP3    H239594   0.871   0.155   5.385
13217TIP3   OH239595   5.044   2.597   6.813
13217TIP3    H139596   5.053   2.579   6.719
13217TIP3    H239597   5.032   2.511   6.853
13218TIP3   OH239598   7.314   6.238   4.525
13218TIP3    H139599   7.378   6.168   4.540
13218TIP3    H239600   7.344   6.310   4.579
13219TIP3   OH239601   5.474   0.093   3.471
13219TIP3    H139602   5.564   0.123   3.460
13219TIP3    H239603   5.481  -0.002   3.473
13220TIP3   OH239604   7.585   4.784   2.674
13220TIP3    H139605   7.670   4.742   2.663
13220TIP3    H239606   7.593   4.867   2.628
13221TIP3   OH239607   3.157   5.379   0.826
13221TIP3    H139608   3.132   5.351   0.914
13221TIP3    H239609   3.249   5.401   0.834
13222TIP3   OH239610   0.521   2.244   4.632
13222TIP3    H139611   0.617   2.241   4.627
13222TIP3    H239612   0.493   2.155   4.608
13223TIP3   OH239613   4.816   2.221   5.944
13223TIP3    H139614   4.907   2.196   5.926
13223TIP3    H239615   4.767   2.139   5.937
13224TIP3   OH239616   6.970   1.552   5.606
13224TIP3    H139617   6.876   1.568   5.599
13224TIP3    H239618   7.002   1.561   5.516
13225TIP3   OH239619   2.223   7.229   5.953
13225TIP3    H139620   2.154   7.166   5.930
13225TIP3    H239621   2.177   7.296   6.004
13226TIP3   OH239622   4.048   7.009   4.361
13226TIP3    H139623   4.075   6.919   4.379
13226TIP3    H239624   4.070   7.022   4.268
13227TIP3   OH239625   4.137   1.357   6.259
13227TIP3    H139626   4.160   1.268   6.233
13227TIP3    H239627   4.041   1.360   6.252
13228TIP3   OH239628   2.919   0.129   0.277
13228TIP3    H139629   2.918   0.218   0.243
13228TIP3    H239630   2.864   0.079   0.217
13229TIP3   OH239631   3.205   3.118   2.105
13229TIP3    H139632   3.218   3.023   2.116
13229TIP3    H239633   3.275   3.158   2.156
13230TIP3   OH239634   3.274   6.020   3.040
13230TIP3    H139635   3.194   6.070   3.060
13230TIP3    H239636   3.265   5.995   2.949
13231TIP3   OH239637   5.136   5.365   6.675
13231TIP3    H139638   5.210   5.305   6.684
13231TIP3    H239639   5.064   5.321   6.720
13232TIP3   OH239640   6.826   4.736   0.190
13232TIP3    H139641   6.875   4.785   0.124
13232TIP3    H239642   6.783   4.804   0.243
13233TIP3   OH239643   6.178   7.615   4.255
13233TIP3    H139644   6.168   7.687   4.192
13233TIP3    H239645   6.254   7.566   4.223
13234TIP3   OH239646   1.361   7.646   3.197
13234TIP3    H139647   1.413   7.568   3.212
13234TIP3    H239648   1.359   7.656   3.101
13235TIP3   OH239649   5.790   3.677   6.731
13235TIP3    H139650   5.848   3.716   6.665
13235TIP3    H239651   5.803   3.583   6.721
13236TIP3   OH239652   6.701   5.973   0.605
13236TIP3    H139653   6.656   6.005   0.527
13236TIP3    H239654   6.708   6.049   0.662
13237TIP3   OH239655   4.485   1.106   6.109
13237TIP3    H139656   4.558   1.163   6.083
13237TIP3    H239657   4.410   1.164   6.115
13238TIP3   OH239658   1.399   4.889   3.412
13238TIP3    H139659   1.309   4.919   3.428
13238TIP3    H239660   1.390   4.825   3.341
13239TIP3   OH239661   1.864   4.438   3.834
13239TIP3    H139662   1.908   4.403   3.911
13239TIP3    H239663   1.907   4.522   3.817
13240TIP3   OH239664   7.920   3.028   4.989
13240TIP3    H139665   7.864   3.105   5.000
13240TIP3    H239666   7.885   2.985   4.910
13241TIP3   OH239667   2.693   3.873   4.071
13241TIP3    H139668   2.709   3.800   4.132
13241TIP3    H239669   2.603   3.860   4.042
13242TIP3   OH239670   7.338   4.923   5.525
13242TIP3    H139671   7.323   5.000   5.579
13242TIP3    H239672   7.385   4.957   5.448
13243TIP3   OH239673   7.267   2.234   3.643
13243TIP3    H139674   7.225   2.260   3.561
13243TIP3    H239675   7.290   2.142   3.631
13244TIP3   OH239676   5.004   1.158   6.468
13244TIP3    H139677   4.937   1.091   6.452
13244TIP3    H239678   4.987   1.187   6.558
13245TIP3   OH239679   3.332   5.973   6.475
13245TIP3    H139680   3.259   5.916   6.454
13245TIP3    H239681   3.306   6.018   6.555
13246TIP3   OH239682   3.966   3.227   2.797
13246TIP3    H139683   3.903   3.265   2.736
13246TIP3    H239684   4.005   3.154   2.750
13247TIP3   OH239685   5.880   6.279   1.359
13247TIP3    H139686   5.963   6.327   1.363
13247TIP3    H239687   5.882   6.235   1.274
13248TIP3   OH239688   2.046   1.236   1.294
13248TIP3    H139689   2.117   1.300   1.299
13248TIP3    H239690   2.037   1.217   1.201
13249TIP3   OH239691   8.013   1.234   1.641
13249TIP3    H139692   7.999   1.328   1.654
13249TIP3    H239693   7.927   1.195   1.660
13250TIP3   OH239694   6.424   7.479   5.970
13250TIP3    H139695   6.414   7.401   6.024
13250TIP3    H239696   6.376   7.459   5.890
13251TIP3   OH239697   3.027   7.241   6.078
13251TIP3    H139698   2.969   7.239   6.154
13251TIP3    H239699   2.989   7.178   6.017
13252TIP3   OH239700   1.560   5.816  -0.011
13252TIP3    H139701   1.552   5.869   0.068
13252TIP3    H239702   1.652   5.788  -0.011
13253TIP3   OH239703   2.767   0.661   3.572
13253TIP3    H139704   2.739   0.574   3.545
13253TIP3    H239705   2.794   0.650   3.663
13254TIP3   OH239706   1.172   0.196   2.455
13254TIP3    H139707   1.243   0.245   2.496
13254TIP3    H239708   1.093   0.226   2.502
13255TIP3   OH239709   4.613   6.963   6.684
13255TIP3    H139710   4.664   6.922   6.613
13255TIP3    H239711   4.597   7.052   6.653
13256TIP3   OH239712   5.196   5.594   1.518
13256TIP3    H139713   5.245   5.582   1.437
13256TIP3    H239714   5.105   5.579   1.494
13257TIP3   OH239715   1.796   5.389   4.286
13257TIP3    H139716   1.809   5.467   4.341
13257TIP3    H239717   1.788   5.424   4.197
13258TIP3   OH239718   4.136   6.026   1.005
13258TIP3    H139719   4.135   5.954   1.068
13258TIP3    H239720   4.146   6.104   1.058
13259TIP3   OH239721   3.007   0.879   5.859
13259TIP3    H139722   2.913   0.898   5.853
13259TIP3    H239723   3.026   0.880   5.953
13260TIP3   OH239724   8.188   7.325   3.367
13260TIP3    H139725   8.110   7.355   3.319
13260TIP3    H239726   8.156   7.256   3.424
13261TIP3   OH239727   7.404   5.214   5.674
13261TIP3    H139728   7.429   5.303   5.648
13261TIP3    H239729   7.331   5.226   5.735
13262TIP3   OH239730   7.720   4.939   3.097
13262TIP3    H139731   7.740   4.903   3.184
13262TIP3    H239732   7.633   4.977   3.107
13263TIP3   OH239733   6.225   4.644   3.872
13263TIP3    H139734   6.313   4.670   3.845
13263TIP3    H239735   6.171   4.722   3.854
13264TIP3   OH239736   6.327   1.110   0.944
13264TIP3    H139737   6.290   1.037   0.894
13264TIP3    H239738   6.258   1.133   1.007
13265TIP3   OH239739   4.744   0.767   6.738
13265TIP3    H139740   4.709   0.683   6.768
13265TIP3    H239741   4.816   0.743   6.680
13266TIP3   OH239742   7.737   4.798   0.380
13266TIP3    H139743   7.823   4.760   0.362
13266TIP3    H239744   7.686   4.782   0.300
13267TIP3   OH239745   7.539   3.665   6.153
13267TIP3    H139746   7.499   3.591   6.198
13267TIP3    H239747   7.487   3.741   6.181
13268TIP3   OH239748   0.199   3.878   2.736
13268TIP3    H139749   0.148   3.915   2.664
13268TIP3    H239750   0.285   3.918   2.728
13269TIP3   OH239751   5.747   3.995   6.411
13269TIP3    H139752   5.721   3.920   6.359
13269TIP3    H239753   5.665   4.042   6.429
13270TIP3   OH239754   4.016   2.743   5.268
13270TIP3    H139755   4.097   2.760   5.219
13270TIP3    H239756   3.999   2.650   5.252
13271TIP3   OH239757   2.839   6.990   5.620
13271TIP3    H139758   2.843   7.068   5.676
13271TIP3    H239759   2.760   6.944   5.649
13272TIP3   OH239760   3.448   6.691   0.213
13272TIP3    H139761   3.420   6.782   0.216
13272TIP3    H239762   3.483   6.674   0.301
13273TIP3   OH239763   3.921   4.441   6.625
13273TIP3    H139764   3.898   4.371   6.565
13273TIP3    H239765   3.926   4.519   6.570
13274TIP3   OH239766   2.511   3.109   4.593
13274TIP3    H139767   2.418   3.084   4.589
13274TIP3    H239768   2.556   3.028   4.618
13275TIP3   OH239769   1.197   4.584   6.749
13275TIP3    H139770   1.104   4.590   6.769
13275TIP3    H239771   1.227   4.509   6.801
13276TIP3   OH239772   7.755   6.060   4.381
13276TIP3    H139773   7.803   6.043   4.300
13276TIP3    H239774   7.742   5.973   4.419
13277TIP3   OH239775   7.345   1.956   3.739
13277TIP3    H139776   7.260   1.949   3.783
13277TIP3    H239777   7.410   1.943   3.809
13278TIP3   OH239778   6.933   0.761   0.543
13278TIP3    H139779   6.972   0.676   0.521
13278TIP3    H239780   6.980   0.789   0.621
13279TIP3   OH239781   7.097   6.757   1.900
13279TIP3    H139782   7.110   6.667   1.928
13279TIP3    H239783   7.162   6.771   1.831
13280TIP3   OH239784   7.359   4.657   2.068
13280TIP3    H139785   7.277   4.699   2.042
13280TIP3    H239786   7.427   4.703   2.017
13281TIP3   OH239787   7.616   0.869   0.594
13281TIP3    H139788   7.636   0.948   0.644
13281TIP3    H239789   7.701   0.828   0.579
13282TIP3   OH239790   6.852   5.165   4.865
13282TIP3    H139791   6.816   5.115   4.792
13282TIP3    H239792   6.941   5.131   4.876
13283TIP3   OH239793   2.793   1.306   5.257
13283TIP3    H139794   2.824   1.250   5.329
13283TIP3    H239795   2.718   1.259   5.220
13284TIP3   OH239796   0.739   6.060   2.693
13284TIP3    H139797   0.650   6.091   2.675
13284TIP3    H239798   0.730   6.007   2.772
13285TIP3   OH239799   3.417   7.746   5.604
13285TIP3    H139800   3.333   7.703   5.583
13285TIP3    H239801   3.479   7.674   5.611
13286TIP3   OH239802   8.100   5.833   1.509
13286TIP3    H139803   8.168   5.901   1.503
13286TIP3    H239804   8.036   5.869   1.570
13287TIP3   OH239805   3.401   0.272   0.229
13287TIP3    H139806   3.376   0.351   0.276
13287TIP3    H239807   3.325   0.215   0.233
13288TIP3   OH239808   5.338   3.986   0.375
13288TIP3    H139809   5.328   3.959   0.284
13288TIP3    H239810   5.428   4.017   0.382
13289TIP3   OH239811   7.010   1.729   5.145
13289TIP3    H139812   6.927   1.776   5.133
13289TIP3    H239813   7.071   1.796   5.177
13290TIP3   OH239814   0.355   6.044   2.944
13290TIP3    H139815   0.286   5.995   2.899
13290TIP3    H239816   0.381   5.988   3.017
13291TIP3   OH239817   1.752   5.196   0.976
13291TIP3    H139818   1.782   5.189   0.886
13291TIP3    H239819   1.660   5.222   0.969
13292TIP3   OH239820   3.508   4.392   3.879
13292TIP3    H139821   3.586   4.409   3.931
13292TIP3    H239822   3.541   4.379   3.790
13293TIP3   OH239823   8.136   7.527   4.966
13293TIP3    H139824   8.129   7.585   5.042
13293TIP3    H239825   8.222   7.486   4.975
13294TIP3   OH239826   4.061   1.886   6.726
13294TIP3    H139827   4.054   1.884   6.822
13294TIP3    H239828   3.972   1.872   6.695
13295TIP3   OH239829   4.414   4.881   3.402
13295TIP3    H139830   4.381   4.957   3.451
13295TIP3    H239831   4.404   4.808   3.463
13296TIP3   OH239832   5.365   7.410   1.453
13296TIP3    H139833   5.284   7.446   1.419
13296TIP3    H239834   5.339   7.327   1.493
13297TIP3   OH239835   0.340   3.719   4.869
13297TIP3    H139836   0.293   3.638   4.889
13297TIP3    H239837   0.315   3.779   4.939
13298TIP3   OH239838   5.886   5.523   3.155
13298TIP3    H139839   5.891   5.512   3.250
13298TIP3    H239840   5.800   5.561   3.139
13299TIP3   OH239841   0.933   3.063   2.737
13299TIP3    H139842   0.928   2.978   2.779
13299TIP3    H239843   1.024   3.091   2.749
13300TIP3   OH239844   5.737   5.812   0.015
13300TIP3    H139845   5.692   5.729   0.029
13300TIP3    H239846   5.672   5.878   0.040
13301TIP3   OH239847   1.524   7.085   4.192
13301TIP3    H139848   1.591   7.125   4.135
13301TIP3    H239849   1.470   7.158   4.221
13302TIP3   OH239850   5.442   6.936   3.767
13302TIP3    H139851   5.468   6.849   3.737
13302TIP3    H239852   5.517   6.992   3.744
13303TIP3   OH239853   7.374   0.714   0.333
13303TIP3    H139854   7.467   0.714   0.307
13303TIP3    H239855   7.372   0.667   0.416
13304TIP3   OH239856   7.124   1.131   6.676
13304TIP3    H139857   7.121   1.187   6.753
13304TIP3    H239858   7.211   1.092   6.678
13305TIP3   OH239859   0.147   7.146   0.213
13305TIP3    H139860   0.092   7.215   0.252
13305TIP3    H239861   0.236   7.168   0.241
13306TIP3   OH239862   5.778   3.126   0.264
13306TIP3    H139863   5.732   3.106   0.182
13306TIP3    H239864   5.712   3.113   0.332
13307TIP3   OH239865   0.620   5.327   0.221
13307TIP3    H139866   0.580   5.286   0.143
13307TIP3    H239867   0.545   5.348   0.277
13308TIP3   OH239868   3.031   4.942   5.739
13308TIP3    H139869   3.069   5.006   5.678
13308TIP3    H239870   3.040   4.858   5.694
13309TIP3   OH239871   0.424   7.602   1.847
13309TIP3    H139872   0.333   7.632   1.842
13309TIP3    H239873   0.448   7.585   1.756
13310TIP3   OH239874   3.675   3.075   3.078
13310TIP3    H139875   3.712   2.992   3.110
13310TIP3    H239876   3.689   3.071   2.983
13311TIP3   OH239877   7.943   7.693   4.500
13311TIP3    H139878   8.017   7.694   4.561
13311TIP3    H239879   7.981   7.671   4.415
13312TIP3   OH239880   6.247   5.901   5.417
13312TIP3    H139881   6.291   5.816   5.410
13312TIP3    H239882   6.164   5.882   5.460
13313TIP3   OH239883   2.244   5.772   4.125
13313TIP3    H139884   2.313   5.807   4.181
13313TIP3    H239885   2.180   5.734   4.186
13314TIP3   OH239886   3.195   0.733   4.961
13314TIP3    H139887   3.132   0.690   5.020
13314TIP3    H239888   3.162   0.822   4.951
13315TIP3   OH239889   5.259   4.670   0.040
13315TIP3    H139890   5.240   4.764   0.035
13315TIP3    H239891   5.323   4.662   0.111
13316TIP3   OH239892   6.144   6.769   2.105
13316TIP3    H139893   6.071   6.727   2.149
13316TIP3    H239894   6.117   6.774   2.013
13317TIP3   OH239895   1.423   3.933   2.785
13317TIP3    H139896   1.507   3.903   2.821
13317TIP3    H239897   1.430   4.028   2.782
13318TIP3   OH239898   1.446   0.619   0.257
13318TIP3    H139899   1.397   0.596   0.336
13318TIP3    H239900   1.508   0.687   0.285
13319TIP3   OH239901   3.510   0.992   3.913
13319TIP3    H139902   3.425   1.020   3.948
13319TIP3    H239903   3.563   1.072   3.913
13320TIP3   OH239904   3.610   2.411   1.021
13320TIP3    H139905   3.555   2.417   0.943
13320TIP3    H239906   3.607   2.318   1.046
13321TIP3   OH239907   5.359   6.209   1.300
13321TIP3    H139908   5.357   6.258   1.218
13321TIP3    H239909   5.387   6.121   1.276
13322TIP3   OH239910   5.864   0.272   2.980
13322TIP3    H139911   5.801   0.206   3.010
13322TIP3    H239912   5.814   0.328   2.921
13323TIP3   OH239913   0.605   2.826   1.803
13323TIP3    H139914   0.640   2.810   1.891
13323TIP3    H239915   0.658   2.898   1.769
13324TIP3   OH239916   1.752   3.770   0.486
13324TIP3    H139917   1.662   3.796   0.502
13324TIP3    H239918   1.748   3.713   0.409
13325TIP3   OH239919   0.590   5.499   2.274
13325TIP3    H139920   0.675   5.535   2.300
13325TIP3    H239921   0.610   5.446   2.196
13326TIP3   OH239922   4.161   7.464   2.761
13326TIP3    H139923   4.113   7.386   2.733
13326TIP3    H239924   4.225   7.480   2.692
13327TIP3   OH239925   6.131   7.557   0.549
13327TIP3    H139926   6.165   7.609   0.621
13327TIP3    H239927   6.205   7.547   0.489
13328TIP3   OH239928   1.175   0.734   1.661
13328TIP3    H139929   1.177   0.695   1.573
13328TIP3    H239930   1.086   0.766   1.671
13329TIP3   OH239931   2.627   0.269   5.330
13329TIP3    H139932   2.607   0.306   5.244
13329TIP3    H239933   2.705   0.317   5.359
13330TIP3   OH239934   5.189   6.695   2.695
13330TIP3    H139935   5.243   6.649   2.631
13330TIP3    H239936   5.111   6.722   2.646
13331TIP3   OH239937   8.234   7.810   4.254
13331TIP3    H139938   8.139   7.808   4.257
13331TIP3    H239939   8.257   7.744   4.189
13332TIP3   OH239940   1.140   0.022   0.444
13332TIP3    H139941   1.211   0.080   0.471
13332TIP3    H239942   1.109   0.058   0.361
13333TIP3   OH239943   2.861   1.047   4.726
13333TIP3    H139944   2.931   0.996   4.686
13333TIP3    H239945   2.792   0.983   4.743
13334TIP3   OH239946   6.049   1.359   6.719
13334TIP3    H139947   6.082   1.326   6.636
13334TIP3    H239948   5.955   1.372   6.704
13335TIP3   OH239949   2.499   1.632   2.809
13335TIP3    H139950   2.460   1.712   2.845
13335TIP3    H239951   2.470   1.562   2.869
13336TIP3   OH239952   7.636   4.506   2.422
13336TIP3    H139953   7.666   4.565   2.353
13336TIP3    H239954   7.686   4.425   2.407
13337TIP3   OH239955   2.701   4.917   0.081
13337TIP3    H139956   2.699   5.013   0.076
13337TIP3    H239957   2.792   4.894   0.064
13338TIP3   OH239958   4.556   2.946   2.232
13338TIP3    H139959   4.612   2.946   2.309
13338TIP3    H239960   4.547   3.039   2.208
13339TIP3   OH239961   3.850   1.030   4.934
13339TIP3    H139962   3.795   0.952   4.934
13339TIP3    H239963   3.854   1.058   4.843
13340TIP3   OH239964   3.809   0.291   5.731
13340TIP3    H139965   3.774   0.210   5.767
13340TIP3    H239966   3.810   0.276   5.636
13341TIP3   OH239967   3.342   7.779   2.508
13341TIP3    H139968   3.310   7.691   2.486
13341TIP3    H239969   3.437   7.774   2.496
13342TIP3   OH239970   2.169   0.519   0.939
13342TIP3    H139971   2.157   0.554   1.027
13342TIP3    H239972   2.240   0.572   0.901
13343TIP3   OH239973   2.206   6.587   2.787
13343TIP3    H139974   2.117   6.583   2.823
13343TIP3    H239975   2.248   6.656   2.838
13344TIP3   OH239976   8.305   6.466   0.160
13344TIP3    H139977   8.268   6.409   0.093
13344TIP3    H239978   8.235   6.528   0.181
13345TIP3   OH239979   1.319   2.750   3.480
13345TIP3    H139980   1.232   2.746   3.440
13345TIP3    H239981   1.366   2.676   3.441
13346TIP3   OH239982   2.904   5.423   4.856
13346TIP3    H139983   2.899   5.330   4.835
13346TIP3    H239984   2.932   5.465   4.775
13347TIP3   OH239985   6.758   4.141   6.501
13347TIP3    H139986   6.800   4.058   6.480
13347TIP3    H239987   6.776   4.198   6.427
13348TIP3   OH239988   4.104   6.598   3.368
13348TIP3    H139989   4.137   6.542   3.438
13348TIP3    H239990   4.077   6.678   3.412
13349TIP3   OH239991   0.871   4.693   2.816
13349TIP3    H139992   0.794   4.750   2.816
13349TIP3    H239993   0.853   4.629   2.885
13350TIP3   OH239994   6.911   0.328   1.055
13350TIP3    H139995   6.900   0.244   1.099
13350TIP3    H239996   6.983   0.314   0.993
13351TIP3   OH239997   2.820   6.463   2.733
13351TIP3    H139998   2.802   6.513   2.653
13351TIP3    H239999   2.873   6.389   2.703
13352TIP3   OH240000   5.002   6.839   0.920
13352TIP3    H140001   5.048   6.802   0.846
13352TIP3    H240002   4.995   6.933   0.900
13353TIP3   OH240003   5.311   0.300   3.588
13353TIP3    H140004   5.363   0.227   3.553
13353TIP3    H240005   5.351   0.319   3.673
13354TIP3   OH240006   0.493   7.115   6.396
13354TIP3    H140007   0.415   7.140   6.346
13354TIP3    H240008   0.563   7.171   6.361
13355TIP3   OH240009   3.219   0.820   0.689
13355TIP3    H140010   3.301   0.813   0.737
13355TIP3    H240011   3.204   0.914   0.680
13356TIP3   OH240012   6.903   1.736   4.794
13356TIP3    H140013   6.973   1.776   4.846
13356TIP3    H240014   6.946   1.703   4.715
13357TIP3   OH240015   1.890   2.486   2.671
13357TIP3    H140016   1.970   2.473   2.723
13357TIP3    H240017   1.829   2.421   2.705
13358TIP3   OH240018   6.923   0.909   6.330
13358TIP3    H140019   6.901   0.996   6.364
13358TIP3    H240020   7.014   0.916   6.302
13359TIP3   OH240021   2.261   1.988   4.187
13359TIP3    H140022   2.331   1.989   4.252
13359TIP3    H240023   2.299   1.944   4.111
13360TIP3   OH240024   3.765   3.623   4.610
13360TIP3    H140025   3.769   3.718   4.612
13360TIP3    H240026   3.837   3.596   4.554
13361TIP3   OH240027   3.770   1.395   1.376
13361TIP3    H140028   3.858   1.371   1.405
13361TIP3    H240029   3.738   1.454   1.443
13362TIP3   OH240030   4.832   2.424   2.276
13362TIP3    H140031   4.757   2.423   2.217
13362TIP3    H240032   4.805   2.480   2.349
13363TIP3   OH240033   6.706   2.668   1.271
13363TIP3    H140034   6.616   2.695   1.288
13363TIP3    H240035   6.698   2.600   1.204
13364TIP3   OH240036   6.918   2.214   0.923
13364TIP3    H140037   6.902   2.156   0.849
13364TIP3    H240038   6.977   2.165   0.980
13365TIP3   OH240039   2.042   2.370   4.919
13365TIP3    H140040   2.094   2.435   4.873
13365TIP3    H240041   1.965   2.356   4.864
13366TIP3   OH240042   0.746   0.664   3.004
13366TIP3    H140043   0.654   0.646   2.987
13366TIP3    H240044   0.794   0.610   2.940
13367TIP3   OH240045   1.963   4.707   3.399
13367TIP3    H140046   1.881   4.713   3.449
13367TIP3    H240047   1.935   4.706   3.308
13368TIP3   OH240048   2.909   3.808   5.185
13368TIP3    H140049   2.849   3.839   5.254
13368TIP3    H240050   2.941   3.888   5.144
13369TIP3   OH240051   1.736   4.781   4.334
13369TIP3    H140052   1.734   4.872   4.303
13369TIP3    H240053   1.823   4.770   4.371
13370TIP3   OH240054   2.363   2.814   0.903
13370TIP3    H140055   2.341   2.723   0.883
13370TIP3    H240056   2.328   2.864   0.829
13371TIP3   OH240057   5.929   1.413   5.039
13371TIP3    H140058   5.891   1.442   5.121
13371TIP3    H240059   5.925   1.489   4.982
13372TIP3   OH240060   4.181   4.363   1.474
13372TIP3    H140061   4.199   4.457   1.484
13372TIP3    H240062   4.268   4.322   1.473
13373TIP3   OH240063   2.272   5.726   1.084
13373TIP3    H140064   2.347   5.731   1.143
13373TIP3    H240065   2.222   5.651   1.115
13374TIP3   OH240066   7.446   7.363   5.996
13374TIP3    H140067   7.441   7.458   5.990
13374TIP3    H240068   7.495   7.336   5.919
13375TIP3   OH240069   0.817   6.877   6.727
13375TIP3    H140070   0.788   6.917   6.809
13375TIP3    H240071   0.884   6.814   6.753
13376TIP3   OH240072   1.526   1.656   1.120
13376TIP3    H140073   1.600   1.705   1.085
13376TIP3    H240074   1.491   1.711   1.190
13377TIP3   OH240075   1.751   3.391   1.747
13377TIP3    H140076   1.782   3.421   1.833
13377TIP3    H240077   1.798   3.309   1.732
13378TIP3   OH240078   3.465   4.282   4.343
13378TIP3    H140079   3.383   4.257   4.385
13378TIP3    H240080   3.494   4.203   4.298
13379TIP3   OH240081   8.074   6.449   2.825
13379TIP3    H140082   8.063   6.358   2.797
13379TIP3    H240083   8.165   6.455   2.853
13380TIP3   OH240084   3.274   5.338   3.420
13380TIP3    H140085   3.329   5.391   3.363
13380TIP3    H240086   3.328   5.320   3.497
13381TIP3   OH240087   5.672   4.412   0.967
13381TIP3    H140088   5.678   4.438   1.059
13381TIP3    H240089   5.625   4.484   0.924
13382TIP3   OH240090   3.375   7.183   0.453
13382TIP3    H140091   3.302   7.124   0.435
13382TIP3    H240092   3.360   7.258   0.396
13383TIP3   OH240093   1.963   0.607   5.827
13383TIP3    H140094   1.996   0.541   5.888
13383TIP3    H240095   2.039   0.662   5.808
13384TIP3   OH240096   4.939   5.319   5.388
13384TIP3    H140097   4.972   5.409   5.383
13384TIP3    H240098   4.970   5.287   5.473
13385TIP3   OH240099   2.871   3.251   1.238
13385TIP3    H140100   2.790   3.288   1.203
13385TIP3    H240101   2.850   3.228   1.329
13386TIP3   OH240102   3.202   7.240   1.970
13386TIP3    H140103   3.281   7.187   1.962
13386TIP3    H240104   3.152   7.221   1.890
13387TIP3   OH240105   6.438   4.731   0.500
13387TIP3    H140106   6.471   4.785   0.428
13387TIP3    H240107   6.517   4.691   0.537
13388TIP3   OH240108   1.936   0.064   6.208
13388TIP3    H140109   1.949   0.159   6.217
13388TIP3    H240110   1.876   0.055   6.134
13389TIP3   OH240111   1.041   2.702   3.470
13389TIP3    H140112   1.053   2.609   3.490
13389TIP3    H240113   1.035   2.744   3.556
13390TIP3   OH240114   3.362   3.827   2.832
13390TIP3    H140115   3.451   3.799   2.856
13390TIP3    H240116   3.311   3.815   2.912
13391TIP3   OH240117   0.638   7.819   2.613
13391TIP3    H140118   0.732   7.814   2.626
13391TIP3    H240119   0.606   7.875   2.683
13392TIP3   OH240120   4.118   6.250   3.732
13392TIP3    H140121   4.151   6.162   3.715
13392TIP3    H240122   4.095   6.250   3.825
13393TIP3   OH240123   1.360   5.620   5.841
13393TIP3    H140124   1.381   5.708   5.809
13393TIP3    H240125   1.415   5.561   5.789
13394TIP3   OH240126   5.163   1.619   5.634
13394TIP3    H140127   5.197   1.537   5.599
13394TIP3    H240128   5.163   1.606   5.729
13395TIP3   OH240129   1.196   0.307   1.811
13395TIP3    H140130   1.119   0.263   1.777
13395TIP3    H240131   1.224   0.365   1.741
13396TIP3   OH240132   5.088   6.118   1.817
13396TIP3    H140133   5.026   6.164   1.761
13396TIP3    H240134   5.054   6.028   1.823
13397TIP3   OH240135   7.293   1.068   1.782
13397TIP3    H140136   7.207   1.101   1.755
13397TIP3    H240137   7.348   1.146   1.790
13398TIP3   OH240138   3.485   0.825   2.007
13398TIP3    H140139   3.560   0.871   1.969
13398TIP3    H240140   3.435   0.793   1.931
13399TIP3   OH240141   5.954   0.464   3.311
13399TIP3    H140142   6.031   0.478   3.367
13399TIP3    H240143   5.935   0.371   3.319
13400TIP3   OH240144   6.426   4.133   4.501
13400TIP3    H140145   6.481   4.081   4.442
13400TIP3    H240146   6.422   4.083   4.582
13401TIP3   OH240147   7.627   1.803   2.368
13401TIP3    H140148   7.707   1.853   2.350
13401TIP3    H240149   7.604   1.762   2.285
13402TIP3   OH240150   6.984   7.604   1.785
13402TIP3    H140151   6.949   7.637   1.703
13402TIP3    H240152   6.955   7.666   1.852
13403TIP3   OH240153   4.022   6.860   1.940
13403TIP3    H140154   4.023   6.941   1.889
13403TIP3    H240155   3.963   6.878   2.013
13404TIP3   OH240156   3.716   5.377   5.560
13404TIP3    H140157   3.702   5.302   5.617
13404TIP3    H240158   3.670   5.355   5.479
13405TIP3   OH240159   5.441   3.856   0.917
13405TIP3    H140160   5.448   3.872   0.823
13405TIP3    H240161   5.418   3.763   0.923
13406TIP3   OH240162   4.745   5.169   2.215
13406TIP3    H140163   4.759   5.119   2.134
13406TIP3    H240164   4.726   5.102   2.281
13407TIP3   OH240165   7.790   5.293   6.055
13407TIP3    H140166   7.760   5.360   5.993
13407TIP3    H240167   7.871   5.330   6.092
13408TIP3   OH240168   3.207   5.503   2.422
13408TIP3    H140169   3.283   5.444   2.428
13408TIP3    H240170   3.142   5.452   2.373
13409TIP3   OH240171   4.204   6.623   2.713
13409TIP3    H140172   4.208   6.573   2.794
13409TIP3    H240173   4.259   6.574   2.652
13410TIP3   OH240174   7.486   0.123   6.374
13410TIP3    H140175   7.455   0.098   6.287
13410TIP3    H240176   7.550   0.192   6.357
13411TIP3   OH240177   3.742   7.480   0.586
13411TIP3    H140178   3.758   7.495   0.493
13411TIP3    H240179   3.768   7.389   0.601
13412TIP3   OH240180   4.532   6.113   1.008
13412TIP3    H140181   4.501   6.064   1.083
13412TIP3    H240182   4.607   6.163   1.041
13413TIP3   OH240183   3.502   3.663   0.685
13413TIP3    H140184   3.494   3.713   0.766
13413TIP3    H240185   3.596   3.646   0.677
13414TIP3   OH240186   1.159   3.386   0.448
13414TIP3    H140187   1.173   3.347   0.361
13414TIP3    H240188   1.215   3.334   0.506
13415TIP3   OH240189   5.300   1.705   1.595
13415TIP3    H140190   5.272   1.689   1.685
13415TIP3    H240191   5.344   1.790   1.599
13416TIP3   OH240192   7.202   0.323   2.378
13416TIP3    H140193   7.179   0.408   2.341
13416TIP3    H240194   7.247   0.344   2.460
13417TIP3   OH240195   4.473   4.845   2.647
13417TIP3    H140196   4.418   4.775   2.613
13417TIP3    H240197   4.416   4.921   2.653
13418TIP3   OH240198   2.807   2.612   2.784
13418TIP3    H140199   2.856   2.575   2.858
13418TIP3    H240200   2.854   2.581   2.706
13419TIP3   OH240201   2.487   1.684   1.933
13419TIP3    H140202   2.400   1.721   1.951
13419TIP3    H240203   2.527   1.747   1.873
13420TIP3   OH240204   2.322   6.997   1.246
13420TIP3    H140205   2.245   6.971   1.196
13420TIP3    H240206   2.301   7.085   1.279
13421TIP3   OH240207   3.622   7.499   2.010
13421TIP3    H140208   3.650   7.522   1.921
13421TIP3    H240209   3.556   7.564   2.032
13422TIP3   OH240210   3.737   6.047   2.440
13422TIP3    H140211   3.656   6.004   2.466
13422TIP3    H240212   3.790   5.977   2.402
13423TIP3   OH240213   6.901   5.462   6.349
13423TIP3    H140214   6.899   5.413   6.267
13423TIP3    H240215   6.881   5.552   6.324
13424TIP3   OH240216   4.840   2.864   4.920
13424TIP3    H140217   4.775   2.878   4.852
13424TIP3    H240218   4.851   2.950   4.961
13425TIP3   OH240219   3.651   5.222   2.100
13425TIP3    H140220   3.700   5.187   2.174
13425TIP3    H240221   3.662   5.156   2.031
13426TIP3   OH240222   0.664   7.570   0.277
13426TIP3    H140223   0.666   7.488   0.227
13426TIP3    H240224   0.686   7.637   0.212
13427TIP3   OH240225   1.042   2.607   2.592
13427TIP3    H140226   0.993   2.637   2.516
13427TIP3    H240227   0.974   2.581   2.655
13428TIP3   OH240228   2.244   3.858   6.566
13428TIP3    H140229   2.178   3.797   6.596
13428TIP3    H240230   2.251   3.842   6.471
13429TIP3   OH240231   4.494   5.114   3.690
13429TIP3    H140232   4.491   5.074   3.778
13429TIP3    H240233   4.572   5.169   3.692
13430TIP3   OH240234   0.483   6.010   4.166
13430TIP3    H140235   0.389   6.028   4.154
13430TIP3    H240236   0.489   5.915   4.169
13431TIP3   OH240237   4.617   0.039   0.724
13431TIP3    H140238   4.548   0.059   0.788
13431TIP3    H240239   4.698   0.070   0.765
13432TIP3   OH240240   4.308   6.468   5.199
13432TIP3    H140241   4.252   6.412   5.253
13432TIP3    H240242   4.363   6.515   5.262
13433TIP3   OH240243   0.536   7.073   1.090
13433TIP3    H140244   0.508   7.164   1.080
13433TIP3    H240245   0.604   7.061   1.024
13434TIP3   OH240246   7.089   4.295   2.007
13434TIP3    H140247   7.032   4.223   2.036
13434TIP3    H240248   7.175   4.255   1.998
13435TIP3   OH240249   2.864   0.722   4.524
13435TIP3    H140250   2.899   0.643   4.566
13435TIP3    H240251   2.845   0.695   4.434
13436TIP3   OH240252   6.643   1.722   2.091
13436TIP3    H140253   6.689   1.806   2.086
13436TIP3    H240254   6.557   1.739   2.053
13437TIP3   OH240255   8.187   1.402   4.960
13437TIP3    H140256   8.208   1.463   4.890
13437TIP3    H240257   8.254   1.417   5.026
13438TIP3   OH240258   2.632   0.339   1.583
13438TIP3    H140259   2.634   0.380   1.496
13438TIP3    H240260   2.621   0.412   1.644
13439TIP3   OH240261   7.807   7.063   2.526
13439TIP3    H140262   7.891   7.104   2.502
13439TIP3    H240263   7.772   7.031   2.444
13440TIP3   OH240264   7.723   6.981   6.691
13440TIP3    H140265   7.721   7.071   6.658
13440TIP3    H240266   7.706   6.927   6.614
13441TIP3   OH240267   3.703   7.763   5.494
13441TIP3    H140268   3.652   7.842   5.514
13441TIP3    H240269   3.659   7.725   5.418
13442TIP3   OH240270   7.161   4.281   2.921
13442TIP3    H140271   7.094   4.250   2.982
13442TIP3    H240272   7.186   4.368   2.954
13443TIP3   OH240273   1.346   7.238   5.432
13443TIP3    H140274   1.430   7.197   5.412
13443TIP3    H240275   1.283   7.190   5.378
13444TIP3   OH240276   0.490   2.535   4.635
13444TIP3    H140277   0.506   2.441   4.637
13444TIP3    H240278   0.440   2.549   4.554
13445TIP3   OH240279   6.531   1.105   6.721
13445TIP3    H140280   6.619   1.123   6.686
13445TIP3    H240281   6.517   1.012   6.701
13446TIP3   OH240282   7.012   5.753   6.521
13446TIP3    H140283   6.985   5.809   6.448
13446TIP3    H240284   7.051   5.814   6.584
13447TIP3   OH240285   6.345   6.851   6.727
13447TIP3    H140286   6.308   6.765   6.708
13447TIP3    H240287   6.383   6.842   6.814
13448TIP3   OH240288   6.352   1.468   0.350
13448TIP3    H140289   6.276   1.519   0.320
13448TIP3    H240290   6.329   1.377   0.329
13449TIP3   OH240291   7.319   2.527   2.381
13449TIP3    H140292   7.261   2.552   2.309
13449TIP3    H240293   7.272   2.456   2.426
13450TIP3   OH240294   5.422   0.632   0.325
13450TIP3    H140295   5.410   0.720   0.289
13450TIP3    H240296   5.379   0.635   0.410
13451TIP3   OH240297   1.428  -0.003   1.592
13451TIP3    H140298   1.356   0.020   1.650
13451TIP3    H240299   1.481   0.076   1.587
13452TIP3   OH240300   6.986   6.727   2.943
13452TIP3    H140301   7.048   6.776   2.889
13452TIP3    H240302   6.941   6.794   2.995
13453TIP3   OH240303   5.312   5.929   0.501
13453TIP3    H140304   5.397   5.911   0.541
13453TIP3    H240305   5.251   5.871   0.547
13454TIP3   OH240306   3.839   4.174   0.380
13454TIP3    H140307   3.747   4.155   0.359
13454TIP3    H240308   3.846   4.160   0.474
13455TIP3   OH240309   5.073   5.845   1.838
13455TIP3    H140310   5.063   5.771   1.778
13455TIP3    H240311   5.133   5.814   1.905
13456TIP3   OH240312   2.802   3.440   1.001
13456TIP3    H140313   2.848   3.416   0.921
13456TIP3    H240314   2.871   3.455   1.066
13457TIP3   OH240315   0.561   6.233   5.699
13457TIP3    H140316   0.498   6.211   5.631
13457TIP3    H240317   0.540   6.322   5.725
13458TIP3   OH240318   1.559   0.960   5.388
13458TIP3    H140319   1.536   1.034   5.444
13458TIP3    H240320   1.481   0.947   5.333
13459TIP3   OH240321   0.224   4.104   0.544
13459TIP3    H140322   0.285   4.062   0.605
13459TIP3    H240323   0.245   4.197   0.550
13460TIP3   OH240324   2.943   3.361   3.101
13460TIP3    H140325   2.911   3.310   3.027
13460TIP3    H240326   3.037   3.370   3.085
13461TIP3   OH240327   5.955   2.474   6.226
13461TIP3    H140328   5.863   2.501   6.230
13461TIP3    H240329   5.971   2.460   6.133
13462TIP3   OH240330   7.582   1.491   4.776
13462TIP3    H140331   7.576   1.395   4.776
13462TIP3    H240332   7.609   1.513   4.865
13463TIP3   OH240333   4.432   0.503   5.549
13463TIP3    H140334   4.447   0.428   5.606
13463TIP3    H240335   4.501   0.498   5.483
13464TIP3   OH240336   7.358   7.590   5.435
13464TIP3    H140337   7.440   7.636   5.454
13464TIP3    H240338   7.382   7.497   5.437
13465TIP3   OH240339   2.469   5.215   2.358
13465TIP3    H140340   2.515   5.294   2.386
13465TIP3    H240341   2.484   5.153   2.430
13466TIP3   OH240342   3.668   2.197   2.617
13466TIP3    H140343   3.581   2.225   2.592
13466TIP3    H240344   3.699   2.265   2.677
13467TIP3   OH240345   2.865   3.502   2.130
13467TIP3    H140346   2.944   3.448   2.127
13467TIP3    H240347   2.884   3.575   2.070
13468TIP3   OH240348   2.784   1.148   5.740
13468TIP3    H140349   2.844   1.181   5.807
13468TIP3    H240350   2.775   1.054   5.760
13469TIP3   OH240351   7.777   3.982   1.561
13469TIP3    H140352   7.856   3.973   1.508
13469TIP3    H240353   7.792   3.926   1.637
13470TIP3   OH240354   6.162   0.409   6.450
13470TIP3    H140355   6.112   0.341   6.404
13470TIP3    H240356   6.211   0.361   6.517
13471TIP3   OH240357   1.106   3.214   0.769
13471TIP3    H140358   1.123   3.173   0.854
13471TIP3    H240359   1.013   3.198   0.753
13472TIP3   OH240360   3.008   2.754   1.926
13472TIP3    H140361   2.969   2.840   1.945
13472TIP3    H240362   3.090   2.754   1.975
13473TIP3   OH240363   0.026   6.463   2.313
13473TIP3    H140364   0.041   6.558   2.316
13473TIP3    H240365  -0.060   6.452   2.354
13474TIP3   OH240366   3.046   1.519   4.978
13474TIP3    H140367   3.112   1.530   4.910
13474TIP3    H240368   2.986   1.593   4.965
13475TIP3   OH240369   7.488   6.884   1.094
13475TIP3    H140370   7.443   6.945   1.152
13475TIP3    H240371   7.525   6.939   1.025
13476TIP3   OH240372   1.725   0.584   5.170
13476TIP3    H140373   1.631   0.588   5.188
13476TIP3    H240374   1.752   0.676   5.163
13477TIP3   OH240375   1.077   6.994   4.228
13477TIP3    H140376   1.011   6.930   4.204
13477TIP3    H240377   1.159   6.959   4.193
13478TIP3   OH240378   8.057   7.452   5.315
13478TIP3    H140379   8.134   7.404   5.285
13478TIP3    H240380   8.092   7.517   5.377
13479TIP3   OH240381   5.831   5.850   4.107
13479TIP3    H140382   5.854   5.818   4.194
13479TIP3    H240383   5.862   5.940   4.105
13480TIP3   OH240384   0.368   5.511   5.624
13480TIP3    H140385   0.430   5.496   5.696
13480TIP3    H240386   0.329   5.596   5.643
13481TIP3   OH240387   5.431   2.057   2.149
13481TIP3    H140388   5.451   1.972   2.189
13481TIP3    H240389   5.338   2.069   2.163
13482TIP3   OH240390   5.491   1.346   0.200
13482TIP3    H140391   5.555   1.275   0.205
13482TIP3    H240392   5.415   1.313   0.248
13483TIP3   OH240393   4.914   1.081   3.772
13483TIP3    H140394   4.951   1.167   3.751
13483TIP3    H240395   4.907   1.080   3.867
13484TIP3   OH240396   6.853   5.678   5.344
13484TIP3    H140397   6.824   5.596   5.383
13484TIP3    H240398   6.806   5.683   5.261
13485TIP3   OH240399   5.889   0.410   1.514
13485TIP3    H140400   5.801   0.448   1.504
13485TIP3    H240401   5.945   0.485   1.537
13486TIP3   OH240402   3.664   7.163   3.063
13486TIP3    H140403   3.607   7.091   3.039
13486TIP3    H240404   3.619   7.241   3.031
13487TIP3   OH240405   5.437   4.147   1.541
13487TIP3    H140406   5.350   4.109   1.535
13487TIP3    H240407   5.443   4.207   1.467
13488TIP3   OH240408   7.303   4.999   1.983
13488TIP3    H140409   7.288   5.004   2.078
13488TIP3    H240410   7.231   4.947   1.950
13489TIP3   OH240411   5.973   2.616   0.869
13489TIP3    H140412   5.895   2.589   0.821
13489TIP3    H240413   5.995   2.702   0.833
13490TIP3   OH240414   1.834   0.989   5.551
13490TIP3    H140415   1.801   0.939   5.625
13490TIP3    H240416   1.894   1.053   5.590
13491TIP3   OH240417   2.252   3.138   4.513
13491TIP3    H140418   2.242   3.229   4.485
13491TIP3    H240419   2.271   3.090   4.432
13492TIP3   OH240420   0.106   4.516   1.863
13492TIP3    H140421   0.168   4.546   1.796
13492TIP3    H240422   0.029   4.571   1.852
13493TIP3   OH240423   3.719   7.704   4.214
13493TIP3    H140424   3.697   7.734   4.303
13493TIP3    H240425   3.771   7.625   4.227
13494TIP3   OH240426   5.390   5.688   1.678
13494TIP3    H140427   5.313   5.659   1.629
13494TIP3    H240428   5.421   5.766   1.631
13495TIP3   OH240429   3.333   2.253   0.855
13495TIP3    H140430   3.257   2.196   0.864
13495TIP3    H240431   3.299   2.342   0.869
13496TIP3   OH240432   1.778   3.839   4.296
13496TIP3    H140433   1.728   3.864   4.374
13496TIP3    H240434   1.869   3.835   4.327
13497TIP3   OH240435   1.441   7.461   5.668
13497TIP3    H140436   1.527   7.439   5.632
13497TIP3    H240437   1.410   7.381   5.708
13498TIP3   OH240438   5.855   0.480   4.998
13498TIP3    H140439   5.830   0.388   4.985
13498TIP3    H240440   5.849   0.493   5.092
13499TIP3   OH240441   2.818   3.578   1.819
13499TIP3    H140442   2.816   3.657   1.765
13499TIP3    H240443   2.910   3.556   1.826
13500TIP3   OH240444   6.591   0.047   3.275
13500TIP3    H140445   6.506   0.007   3.295
13500TIP3    H240446   6.590   0.059   3.180
13501TIP3   OH240447   4.590   0.598   1.579
13501TIP3    H140448   4.681   0.626   1.588
13501TIP3    H240449   4.553   0.604   1.667
13502TIP3   OH240450   5.617   3.467   2.711
13502TIP3    H140451   5.674   3.426   2.777
13502TIP3    H240452   5.551   3.401   2.692
13503TIP3   OH240453   4.019   4.751   1.665
13503TIP3    H140454   4.054   4.839   1.682
13503TIP3    H240455   4.009   4.712   1.751
13504TIP3   OH240456   2.682   1.333   4.427
13504TIP3    H140457   2.694   1.276   4.350
13504TIP3    H240458   2.610   1.390   4.403
13505TIP3   OH240459   3.468   6.439   1.039
13505TIP3    H140460   3.556   6.402   1.030
13505TIP3    H240461   3.448   6.472   0.951
13506TIP3   OH240462   2.455   6.595   3.954
13506TIP3    H140463   2.525   6.567   4.014
13506TIP3    H240464   2.427   6.514   3.911
13507TIP3   OH240465   7.145   0.698   2.909
13507TIP3    H140466   7.081   0.759   2.943
13507TIP3    H240467   7.097   0.647   2.843
13508TIP3   OH240468   1.155   0.873   5.414
13508TIP3    H140469   1.159   0.890   5.508
13508TIP3    H240470   1.210   0.941   5.375
13509TIP3   OH240471   5.028   3.165   2.226
13509TIP3    H140472   5.016   3.101   2.296
13509TIP3    H240473   5.123   3.176   2.219
13510TIP3   OH240474   2.354   1.984   2.038
13510TIP3    H140475   2.330   2.062   2.087
13510TIP3    H240476   2.415   2.015   1.971
13511TIP3   OH240477   2.571   5.475   3.140
13511TIP3    H140478   2.638   5.465   3.208
13511TIP3    H240479   2.511   5.402   3.155
13512TIP3   OH240480   0.504   3.502   3.375
13512TIP3    H140481   0.578   3.556   3.348
13512TIP3    H240482   0.531   3.413   3.355
13513TIP3   OH240483   5.820   3.411   6.605
13513TIP3    H140484   5.861   3.467   6.539
13513TIP3    H240485   5.874   3.332   6.607
13514TIP3   OH240486   5.102   0.192   5.762
13514TIP3    H140487   5.128   0.188   5.670
13514TIP3    H240488   5.178   0.231   5.806
13515TIP3   OH240489   6.778   3.484   1.967
13515TIP3    H140490   6.864   3.521   1.988
13515TIP3    H240491   6.747   3.446   2.049
13516TIP3   OH240492   7.156   3.513   6.432
13516TIP3    H140493   7.131   3.522   6.340
13516TIP3    H240494   7.252   3.512   6.431
13517TIP3   OH240495   5.523   4.467   2.720
13517TIP3    H140496   5.470   4.523   2.776
13517TIP3    H240497   5.558   4.400   2.778
13518TIP3   OH240498   1.075   1.509   6.136
13518TIP3    H140499   1.117   1.481   6.055
13518TIP3    H240500   1.007   1.443   6.151
13519TIP3   OH240501   0.847   1.021   1.008
13519TIP3    H140502   0.935   1.044   1.039
13519TIP3    H240503   0.801   1.105   1.002
13520TIP3   OH240504   2.265   0.607   1.540
13520TIP3    H140505   2.174   0.587   1.520
13520TIP3    H240506   2.289   0.676   1.479
13521TIP3   OH240507   5.925   4.560   4.471
13521TIP3    H140508   5.834   4.531   4.465
13521TIP3    H240509   5.953   4.532   4.559
13522TIP3   OH240510   2.125   6.231   3.586
13522TIP3    H140511   2.219   6.234   3.602
13522TIP3    H240512   2.100   6.323   3.571
13523TIP3   OH240513   6.253   5.709   2.717
13523TIP3    H140514   6.244   5.622   2.756
13523TIP3    H240515   6.340   5.709   2.678
13524TIP3   OH240516   0.193   5.256   3.622
13524TIP3    H140517   0.226   5.262   3.711
13524TIP3    H240518   0.254   5.197   3.578
13525TIP3   OH240519   0.207   6.094   4.124
13525TIP3    H140520   0.124   6.058   4.155
13525TIP3    H240521   0.194   6.189   4.128
13526TIP3   OH240522   0.139   5.956   0.080
13526TIP3    H140523   0.118   5.863   0.068
13526TIP3    H240524   0.224   5.967   0.039
13527TIP3   OH240525   0.960   6.153   2.953
13527TIP3    H140526   0.969   6.091   2.881
13527TIP3    H240527   0.869   6.146   2.979
13528TIP3   OH240528   6.971   4.012   4.196
13528TIP3    H140529   6.916   4.089   4.205
13528TIP3    H240530   6.911   3.938   4.213
13529TIP3   OH240531   3.388   1.583   2.835
13529TIP3    H140532   3.380   1.639   2.912
13529TIP3    H240533   3.319   1.612   2.776
13530TIP3   OH240534   6.566   4.285   2.032
13530TIP3    H140535   6.569   4.341   2.109
13530TIP3    H240536   6.647   4.304   1.984
13531TIP3   OH240537   0.926   2.173   4.866
13531TIP3    H140538   0.840   2.183   4.825
13531TIP3    H240539   0.918   2.095   4.921
13532TIP3   OH240540   7.764   3.842   2.622
13532TIP3    H140541   7.764   3.761   2.673
13532TIP3    H240542   7.755   3.911   2.687
13533TIP3   OH240543   2.013   1.179   0.326
13533TIP3    H140544   2.081   1.125   0.286
13533TIP3    H240545   1.945   1.188   0.260
13534TIP3   OH240546   0.518   2.674   0.348
13534TIP3    H140547   0.507   2.582   0.324
13534TIP3    H240548   0.568   2.672   0.429
13535TIP3   OH240549   5.110   4.376   0.885
13535TIP3    H140550   5.085   4.373   0.793
13535TIP3    H240551   5.027   4.386   0.932
13536TIP3   OH240552   2.973   1.528   5.236
13536TIP3    H140553   2.914   1.452   5.246
13536TIP3    H240554   2.997   1.527   5.144
13537TIP3   OH240555   5.044   0.498   3.643
13537TIP3    H140556   4.960   0.543   3.653
13537TIP3    H240557   5.075   0.483   3.732
13538TIP3   OH240558   4.598   4.071   1.871
13538TIP3    H140559   4.550   3.996   1.836
13538TIP3    H240560   4.657   4.034   1.937
13539TIP3   OH240561   5.949   4.758   4.837
13539TIP3    H140562   5.955   4.687   4.901
13539TIP3    H240563   5.869   4.741   4.788
13540TIP3   OH240564   8.026   5.410   0.930
13540TIP3    H140565   8.088   5.427   0.859
13540TIP3    H240566   8.077   5.425   1.010
13541TIP3   OH240567   1.185   2.809   4.064
13541TIP3    H140568   1.151   2.792   4.152
13541TIP3    H240569   1.265   2.757   4.058
13542TIP3   OH240570   4.548   2.767   1.632
13542TIP3    H140571   4.475   2.705   1.632
13542TIP3    H240572   4.521   2.836   1.692
13543TIP3   OH240573   5.083   3.341   1.905
13543TIP3    H140574   5.049   3.324   1.817
13543TIP3    H240575   5.098   3.435   1.908
13544TIP3   OH240576   8.246   5.553   4.166
13544TIP3    H140577   8.162   5.599   4.175
13544TIP3    H240578   8.225   5.461   4.182
13545TIP3   OH240579   0.970   3.720   5.452
13545TIP3    H140580   1.015   3.682   5.377
13545TIP3    H240581   0.877   3.719   5.427
13546TIP3   OH240582   7.208   4.636   1.800
13546TIP3    H140583   7.245   4.687   1.728
13546TIP3    H240584   7.139   4.584   1.759
13547TIP3   OH240585   0.317   3.347   4.624
13547TIP3    H140586   0.231   3.381   4.647
13547TIP3    H240587   0.302   3.257   4.597
13548TIP3   OH240588   6.616   3.319   4.003
13548TIP3    H140589   6.689   3.256   4.002
13548TIP3    H240590   6.623   3.361   4.089
13549TIP3   OH240591   6.376   3.057   6.314
13549TIP3    H140592   6.297   3.004   6.300
13549TIP3    H240593   6.428   3.006   6.376
13550TIP3   OH240594   5.271   5.837   4.386
13550TIP3    H140595   5.204   5.779   4.351
13550TIP3    H240596   5.247   5.848   4.478
13551TIP3   OH240597   6.601   3.335   5.317
13551TIP3    H140598   6.690   3.336   5.352
13551TIP3    H240599   6.575   3.243   5.320
13552TIP3   OH240600   4.173   2.939   5.799
13552TIP3    H140601   4.173   3.024   5.755
13552TIP3    H240602   4.259   2.934   5.841
13553TIP3   OH240603   7.661   6.155   3.230
13553TIP3    H140604   7.749   6.137   3.262
13553TIP3    H240605   7.615   6.071   3.239
13554TIP3   OH240606   1.137   2.816   4.782
13554TIP3    H140607   1.157   2.723   4.797
13554TIP3    H240608   1.218   2.853   4.748
13555TIP3   OH240609   5.476   2.839   1.227
13555TIP3    H140610   5.451   2.774   1.292
13555TIP3    H240611   5.571   2.846   1.235
13556TIP3   OH240612   1.529   1.299   4.071
13556TIP3    H140613   1.463   1.362   4.100
13556TIP3    H240614   1.542   1.320   3.978
13557TIP3   OH240615   5.814   5.553   1.412
13557TIP3    H140616   5.737   5.555   1.470
13557TIP3    H240617   5.888   5.568   1.471
13558TIP3   OH240618   2.691   0.576   2.211
13558TIP3    H140619   2.689   0.486   2.244
13558TIP3    H240620   2.743   0.624   2.275
13559TIP3   OH240621   5.670   4.467   4.438
13559TIP3    H140622   5.659   4.379   4.403
13559TIP3    H240623   5.585   4.508   4.428
13560TIP3   OH240624   0.379   6.341   2.156
13560TIP3    H140625   0.434   6.384   2.222
13560TIP3    H240626   0.425   6.259   2.135
13561TIP3   OH240627   0.853   1.160   4.298
13561TIP3    H140628   0.837   1.170   4.204
13561TIP3    H240629   0.943   1.129   4.303
13562TIP3   OH240630   3.642   4.542   6.354
13562TIP3    H140631   3.551   4.517   6.338
13562TIP3    H240632   3.637   4.622   6.406
13563TIP3   OH240633   6.725   1.007   3.754
13563TIP3    H140634   6.699   0.958   3.832
13563TIP3    H240635   6.816   0.981   3.739
13564TIP3   OH240636   1.586   7.531   3.599
13564TIP3    H140637   1.534   7.549   3.677
13564TIP3    H240638   1.671   7.504   3.633
13565TIP3   OH240639   0.588   3.316   3.839
13565TIP3    H140640   0.678   3.346   3.840
13565TIP3    H240641   0.589   3.240   3.780
13566TIP3   OH240642   2.432   0.505   6.690
13566TIP3    H140643   2.450   0.597   6.708
13566TIP3    H240644   2.492   0.456   6.746
13567TIP3   OH240645   0.257   3.134   1.494
13567TIP3    H140646   0.244   3.072   1.423
13567TIP3    H240647   0.174   3.182   1.499
13568TIP3   OH240648   6.837   3.453   6.499
13568TIP3    H140649   6.902   3.410   6.444
13568TIP3    H240650   6.847   3.546   6.478
13569TIP3   OH240651   6.277   4.192   0.408
13569TIP3    H140652   6.300   4.104   0.437
13569TIP3    H240653   6.264   4.241   0.489
13570TIP3   OH240654   3.946   4.353   5.852
13570TIP3    H140655   3.966   4.336   5.760
13570TIP3    H240656   3.909   4.441   5.852
13571TIP3   OH240657   8.004   3.844   3.535
13571TIP3    H140658   7.967   3.782   3.598
13571TIP3    H240659   8.098   3.826   3.536
13572TIP3   OH240660   7.011   3.429   5.304
13572TIP3    H140661   7.057   3.381   5.235
13572TIP3    H240662   6.939   3.473   5.258
13573TIP3   OH240663   2.356   3.389   3.555
13573TIP3    H140664   2.322   3.443   3.484
13573TIP3    H240665   2.364   3.449   3.629
13574TIP3   OH240666   8.214   4.288   6.204
13574TIP3    H140667   8.201   4.345   6.280
13574TIP3    H240668   8.126   4.269   6.173
13575TIP3   OH240669   7.581   5.699   5.383
13575TIP3    H140670   7.626   5.779   5.410
13575TIP3    H240671   7.652   5.639   5.359
13576TIP3   OH240672   5.391   7.317   5.299
13576TIP3    H140673   5.447   7.245   5.326
13576TIP3    H240674   5.381   7.371   5.378
13577TIP3   OH240675   3.181   6.026   2.368
13577TIP3    H140676   3.104   5.970   2.378
13577TIP3    H240677   3.153   6.112   2.399
13578TIP3   OH240678   3.929   1.095   3.474
13578TIP3    H140679   3.993   1.137   3.531
13578TIP3    H240680   3.852   1.153   3.478
13579TIP3   OH240681   0.423   2.020   1.834
13579TIP3    H140682   0.333   1.997   1.857
13579TIP3    H240683   0.473   2.005   1.913
13580TIP3   OH240684   1.934   2.355   3.901
13580TIP3    H140685   2.030   2.358   3.902
13580TIP3    H240686   1.912   2.349   3.808
13581TIP3   OH240687   2.331   7.763   4.673
13581TIP3    H140688   2.331   7.672   4.645
13581TIP3    H240689   2.288   7.762   4.759
13582TIP3   OH240690   3.444   1.768   6.185
13582TIP3    H140691   3.420   1.783   6.277
13582TIP3    H240692   3.539   1.777   6.184
13583TIP3   OH240693   6.089   0.867   1.345
13583TIP3    H140694   6.137   0.816   1.410
13583TIP3    H240695   6.028   0.921   1.396
13584TIP3   OH240696   6.669   5.147   0.930
13584TIP3    H140697   6.613   5.193   0.868
13584TIP3    H240698   6.700   5.070   0.883
13585TIP3   OH240699   7.142   5.061   2.729
13585TIP3    H140700   7.147   5.019   2.643
13585TIP3    H240701   7.217   5.028   2.777
13586TIP3   OH240702   2.755   7.674   1.649
13586TIP3    H140703   2.790   7.717   1.727
13586TIP3    H240704   2.788   7.728   1.576
13587TIP3   OH240705   3.964   1.040   5.494
13587TIP3    H140706   3.979   0.984   5.417
13587TIP3    H240707   3.899   0.992   5.546
13588TIP3   OH240708   2.083   3.485   2.288
13588TIP3    H140709   1.992   3.456   2.286
13588TIP3    H240710   2.127   3.422   2.345
13589TIP3   OH240711   5.984   7.310   4.142
13589TIP3    H140712   6.036   7.339   4.216
13589TIP3    H240713   6.046   7.304   4.069
13590TIP3   OH240714   5.725   7.532   3.719
13590TIP3    H140715   5.695   7.482   3.795
13590TIP3    H240716   5.818   7.511   3.712
13591TIP3   OH240717   6.976   1.160   0.917
13591TIP3    H140718   6.893   1.131   0.880
13591TIP3    H240719   6.997   1.240   0.870
13592TIP3   OH240720   2.301   2.858   3.345
13592TIP3    H140721   2.387   2.816   3.344
13592TIP3    H240722   2.298   2.908   3.263
13593TIP3   OH240723   3.519   2.572   6.439
13593TIP3    H140724   3.493   2.632   6.509
13593TIP3    H240725   3.613   2.587   6.429
13594TIP3   OH240726   3.897   4.430   6.265
13594TIP3    H140727   3.867   4.483   6.191
13594TIP3    H240728   3.836   4.449   6.335
13595TIP3   OH240729   2.405   1.892   2.901
13595TIP3    H140730   2.366   1.910   2.815
13595TIP3    H240731   2.468   1.963   2.915
13596TIP3   OH240732   7.619   4.746   1.602
13596TIP3    H140733   7.580   4.659   1.614
13596TIP3    H240734   7.699   4.742   1.654
13597TIP3   OH240735   0.159   6.642   5.684
13597TIP3    H140736   0.227   6.659   5.748
13597TIP3    H240737   0.111   6.725   5.676
13598TIP3   OH240738   0.504   2.906   3.868
13598TIP3    H140739   0.527   2.932   3.957
13598TIP3    H240740   0.527   2.814   3.863
13599TIP3   OH240741   6.661   7.420   0.557
13599TIP3    H140742   6.570   7.449   0.558
13599TIP3    H240743   6.708   7.485   0.609
13600TIP3   OH240744   4.970   2.844   5.827
13600TIP3    H140745   5.037   2.848   5.759
13600TIP3    H240746   4.895   2.803   5.784
13601TIP3   OH240747   2.604   4.705   1.772
13601TIP3    H140748   2.665   4.711   1.699
13601TIP3    H240749   2.542   4.637   1.747
13602TIP3   OH240750   3.679   6.918   1.752
13602TIP3    H140751   3.692   6.825   1.734
13602TIP3    H240752   3.763   6.947   1.787
13603TIP3   OH240753   4.784   7.453   1.427
13603TIP3    H140754   4.861   7.469   1.372
13603TIP3    H240755   4.749   7.369   1.394
13604TIP3   OH240756   6.161   6.674   1.130
13604TIP3    H140757   6.239   6.710   1.089
13604TIP3    H240758   6.139   6.597   1.076
13605TIP3   OH240759   3.883   0.852   3.602
13605TIP3    H140760   3.806   0.867   3.657
13605TIP3    H240761   3.892   0.932   3.551
13606TIP3   OH240762   2.811   6.902   1.879
13606TIP3    H140763   2.784   6.978   1.932
13606TIP3    H240764   2.816   6.935   1.790
13607TIP3   OH240765   6.879   2.535   2.893
13607TIP3    H140766   6.924   2.479   2.956
13607TIP3    H240767   6.933   2.531   2.814
13608TIP3   OH240768   3.519   5.494   5.087
13608TIP3    H140769   3.497   5.568   5.143
13608TIP3    H240770   3.435   5.455   5.064
13609TIP3   OH240771   6.504   6.995   1.049
13609TIP3    H140772   6.598   6.978   1.045
13609TIP3    H240773   6.474   6.946   1.126
13610TIP3   OH240774   7.158   0.323   1.466
13610TIP3    H140775   7.081   0.367   1.502
13610TIP3    H240776   7.185   0.378   1.393
13611TIP3   OH240777   1.878   1.628   6.625
13611TIP3    H140778   1.822   1.558   6.659
13611TIP3    H240779   1.874   1.696   6.692
13612TIP3   OH240780   5.797   6.066   5.825
13612TIP3    H140781   5.829   6.153   5.801
13612TIP3    H240782   5.854   6.038   5.896
13613TIP3   OH240783   6.347   5.606   0.712
13613TIP3    H140784   6.399   5.673   0.669
13613TIP3    H240785   6.256   5.633   0.700
13614TIP3   OH240786   8.139   6.575   3.712
13614TIP3    H140787   8.146   6.481   3.724
13614TIP3    H240788   8.069   6.602   3.772
13615TIP3   OH240789   5.837   0.088   5.472
13615TIP3    H140790   5.817   0.180   5.491
13615TIP3    H240791   5.812   0.077   5.380
13616TIP3   OH240792   3.635   3.510   5.298
13616TIP3    H140793   3.716   3.481   5.342
13616TIP3    H240794   3.628   3.603   5.320
13617TIP3   OH240795   1.893   4.380   2.597
13617TIP3    H140796   1.965   4.431   2.560
13617TIP3    H240797   1.866   4.321   2.526
13618TIP3   OH240798   3.336   2.639   3.992
13618TIP3    H140799   3.381   2.683   3.920
13618TIP3    H240800   3.263   2.594   3.950
13619TIP3   OH240801   1.680   7.192   1.413
13619TIP3    H140802   1.606   7.174   1.355
13619TIP3    H240803   1.704   7.282   1.394
13620TIP3   OH240804   6.311   6.810   5.903
13620TIP3    H140805   6.242   6.870   5.933
13620TIP3    H240806   6.365   6.795   5.980
13621TIP3   OH240807   5.290   3.305   5.847
13621TIP3    H140808   5.327   3.388   5.876
13621TIP3    H240809   5.200   3.306   5.881
13622TIP3   OH240810   5.687   3.471   1.122
13622TIP3    H140811   5.718   3.543   1.176
13622TIP3    H240812   5.761   3.451   1.064
13623TIP3   OH240813   7.025   2.609   4.508
13623TIP3    H140814   6.954   2.618   4.444
13623TIP3    H240815   7.102   2.644   4.463
13624TIP3   OH240816   7.652   7.303   4.565
13624TIP3    H140817   7.631   7.387   4.525
13624TIP3    H240818   7.729   7.321   4.618
13625TIP3   OH240819   4.462   0.119   1.489
13625TIP3    H140820   4.522   0.110   1.416
13625TIP3    H240821   4.375   0.119   1.449
13626TIP3   OH240822   1.512   1.175   2.762
13626TIP3    H140823   1.555   1.244   2.811
13626TIP3    H240824   1.536   1.192   2.670
13627TIP3   OH240825   4.703   2.180   4.291
13627TIP3    H140826   4.743   2.208   4.373
13627TIP3    H240827   4.638   2.115   4.316
13628TIP3   OH240828   3.500   0.739   6.635
13628TIP3    H140829   3.480   0.675   6.566
13628TIP3    H240830   3.456   0.705   6.713
13629TIP3   OH240831   4.063   7.167   1.215
13629TIP3    H140832   3.972   7.181   1.190
13629TIP3    H240833   4.114   7.190   1.138
13630TIP3   OH240834   7.655   7.205   6.179
13630TIP3    H140835   7.599   7.138   6.218
13630TIP3    H240836   7.594   7.262   6.131
13631TIP3   OH240837   7.901   6.586   3.850
13631TIP3    H140838   7.922   6.495   3.871
13631TIP3    H240839   7.931   6.636   3.926
13632TIP3   OH240840   4.245   2.041   1.902
13632TIP3    H140841   4.275   1.982   1.833
13632TIP3    H240842   4.298   2.017   1.978
13633TIP3   OH240843   5.124   7.342   5.203
13633TIP3    H140844   5.220   7.343   5.205
13633TIP3    H240845   5.098   7.316   5.291
13634TIP3   OH240846   1.441   0.542   6.309
13634TIP3    H140847   1.457   0.498   6.226
13634TIP3    H240848   1.451   0.635   6.290
13635TIP3   OH240849   0.868   3.441   2.344
13635TIP3    H140850   0.895   3.377   2.278
13635TIP3    H240851   0.788   3.405   2.382
13636TIP3   OH240852   8.211   5.665   2.571
13636TIP3    H140853   8.194   5.668   2.477
13636TIP3    H240854   8.219   5.572   2.591
13637TIP3   OH240855   2.859   1.061   1.640
13637TIP3    H140856   2.808   1.142   1.650
13637TIP3    H240857   2.798   1.000   1.598
13638TIP3   OH240858   2.107   5.602   3.328
13638TIP3    H140859   2.074   5.609   3.418
13638TIP3    H240860   2.196   5.636   3.332
13639TIP3   OH240861   3.686   3.227   4.923
13639TIP3    H140862   3.725   3.295   4.869
13639TIP3    H240863   3.611   3.195   4.873
13640TIP3   OH240864   0.675   0.796   0.726
13640TIP3    H140865   0.647   0.746   0.802
13640TIP3    H240866   0.747   0.745   0.689
13641TIP3   OH240867   8.186   4.437   3.627
13641TIP3    H140868   8.103   4.425   3.582
13641TIP3    H240869   8.167   4.418   3.719
13642TIP3   OH240870   3.197   4.916   5.019
13642TIP3    H140871   3.180   4.972   5.095
13642TIP3    H240872   3.130   4.941   4.955
13643TIP3   OH240873   7.167   4.915   2.506
13643TIP3    H140874   7.092   4.922   2.447
13643TIP3    H240875   7.238   4.881   2.451
13644TIP3   OH240876   6.111   3.448   1.103
13644TIP3    H140877   6.155   3.396   1.171
13644TIP3    H240878   6.087   3.529   1.146
13645TIP3   OH240879   7.433   3.846   1.283
13645TIP3    H140880   7.495   3.882   1.347
13645TIP3    H240881   7.443   3.901   1.206
13646TIP3   OH240882   5.514   2.576   5.133
13646TIP3    H140883   5.598   2.592   5.090
13646TIP3    H240884   5.460   2.534   5.066
13647TIP3   OH240885   2.631   4.504   0.192
13647TIP3    H140886   2.591   4.429   0.149
13647TIP3    H240887   2.562   4.570   0.194
13648TIP3   OH240888   4.120   7.088   3.025
13648TIP3    H140889   4.151   7.146   3.094
13648TIP3    H240890   4.170   7.007   3.036
13649TIP3   OH240891   5.720   6.789   2.174
13649TIP3    H140892   5.734   6.853   2.105
13649TIP3    H240893   5.671   6.718   2.132
13650TIP3   OH240894   0.251   3.154   2.237
13650TIP3    H140895   0.227   3.155   2.329
13650TIP3    H240896   0.179   3.108   2.194
13651TIP3   OH240897   6.604   4.857   1.387
13651TIP3    H140898   6.558   4.940   1.402
13651TIP3    H240899   6.597   4.810   1.470
13652TIP3   OH240900   7.532   0.488   3.151
13652TIP3    H140901   7.466   0.437   3.197
13652TIP3    H240902   7.493   0.507   3.066
13653TIP3   OH240903   3.076   3.995   4.825
13653TIP3    H140904   3.105   4.066   4.882
13653TIP3    H240905   3.157   3.949   4.800
13654TIP3   OH240906   7.864   4.077   3.469
13654TIP3    H140907   7.889   3.997   3.515
13654TIP3    H240908   7.769   4.083   3.480
13655TIP3   OH240909   1.531   7.726   3.842
13655TIP3    H140910   1.519   7.795   3.908
13655TIP3    H240911   1.443   7.691   3.829
13656TIP3   OH240912   7.568   6.290   3.569
13656TIP3    H140913   7.536   6.340   3.644
13656TIP3    H240914   7.519   6.207   3.573
13657TIP3   OH240915   4.482   4.654   6.004
13657TIP3    H140916   4.571   4.674   5.976
13657TIP3    H240917   4.494   4.607   6.087
13658TIP3   OH240918   4.611   1.874   1.435
13658TIP3    H140919   4.598   1.780   1.446
13658TIP3    H240920   4.600   1.888   1.341
13659TIP3   OH240921   2.318   7.756   2.207
13659TIP3    H140922   2.327   7.760   2.112
13659TIP3    H240923   2.284   7.668   2.224
13660TIP3   OH240924   6.374   5.225   6.095
13660TIP3    H140925   6.353   5.229   6.001
13660TIP3    H240926   6.418   5.140   6.106
13661TIP3   OH240927   0.451   5.246   2.331
13661TIP3    H140928   0.443   5.339   2.354
13661TIP3    H240929   0.377   5.229   2.273
13662TIP3   OH240930   6.290   4.364   0.888
13662TIP3    H140931   6.319   4.391   0.801
13662TIP3    H240932   6.246   4.441   0.925
13663TIP3   OH240933   5.656   3.088   4.765
13663TIP3    H140934   5.591   3.153   4.738
13663TIP3    H240935   5.723   3.092   4.697
13664TIP3   OH240936   5.452   5.387   0.423
13664TIP3    H140937   5.449   5.294   0.446
13664TIP3    H240938   5.390   5.428   0.483
13665TIP3   OH240939   5.862   4.930   1.184
13665TIP3    H140940   5.940   4.976   1.216
13665TIP3    H240941   5.897   4.863   1.124
13666TIP3   OH240942   6.135   5.364   6.658
13666TIP3    H140943   6.198   5.410   6.601
13666TIP3    H240944   6.105   5.290   6.605
13667TIP3   OH240945   8.168   5.514   1.517
13667TIP3    H140946   8.254   5.473   1.524
13667TIP3    H240947   8.181   5.602   1.551
13668TIP3   OH240948   1.578   5.342   4.688
13668TIP3    H140949   1.546   5.312   4.603
13668TIP3    H240950   1.532   5.288   4.752
13669TIP3   OH240951   4.190   7.119   5.564
13669TIP3    H140952   4.182   7.088   5.654
13669TIP3    H240953   4.274   7.166   5.562
13670TIP3   OH240954   6.445   4.115   1.883
13670TIP3    H140955   6.504   4.160   1.943
13670TIP3    H240956   6.437   4.026   1.918
13671TIP3   OH240957   3.352   7.043   0.686
13671TIP3    H140958   3.379   7.096   0.611
13671TIP3    H240959   3.341   6.955   0.650
13672TIP3   OH240960   0.917   0.214   0.741
13672TIP3    H140961   0.861   0.292   0.742
13672TIP3    H240962   1.006   0.249   0.736
13673TIP3   OH240963   7.466   7.803   0.154
13673TIP3    H140964   7.391   7.813   0.095
13673TIP3    H240965   7.524   7.742   0.108
13674TIP3   OH240966   7.286   5.887   5.886
13674TIP3    H140967   7.302   5.796   5.862
13674TIP3    H240968   7.291   5.888   5.981
13675TIP3   OH240969   7.595   1.727   0.052
13675TIP3    H140970   7.605   1.646   0.102
13675TIP3    H240971   7.559   1.699  -0.032
13676TIP3   OH240972   5.089   4.279   3.948
13676TIP3    H140973   5.177   4.249   3.972
13676TIP3    H240974   5.059   4.328   4.025
13677TIP3   OH240975   1.943   6.434   1.484
13677TIP3    H140976   1.955   6.344   1.456
13677TIP3    H240977   1.890   6.428   1.564
13678TIP3   OH240978   5.988   5.348   4.969
13678TIP3    H140979   6.081   5.327   4.979
13678TIP3    H240980   5.948   5.268   4.936
13679TIP3   OH240981   2.721   6.685   1.550
13679TIP3    H140982   2.768   6.659   1.471
13679TIP3    H240983   2.701   6.778   1.537
13680TIP3   OH240984   2.403   6.910   6.434
13680TIP3    H140985   2.370   6.842   6.375
13680TIP3    H240986   2.419   6.864   6.516
13681TIP3   OH240987   2.067   2.376   0.027
13681TIP3    H140988   2.031   2.380   0.115
13681TIP3    H240989   2.079   2.467   0.002
13682TIP3   OH240990   1.482   5.695   2.931
13682TIP3    H140991   1.445   5.698   2.842
13682TIP3    H240992   1.492   5.787   2.955
13683TIP3   OH240993   1.632   4.992   3.311
13683TIP3    H140994   1.547   4.986   3.356
13683TIP3    H240995   1.619   5.061   3.246
13684TIP3   OH240996   1.113   3.087   3.241
13684TIP3    H140997   1.193   3.071   3.291
13684TIP3    H240998   1.052   3.020   3.272
13685TIP3   OH240999   5.158   6.981   2.308
13685TIP3    H141000   5.164   7.042   2.234
13685TIP3    H241001   5.086   7.016   2.361
13686TIP3   OH241002   6.833   2.200   4.808
13686TIP3    H141003   6.868   2.262   4.745
13686TIP3    H241004   6.907   2.176   4.863
13687TIP3   OH241005   3.014   1.683   2.898
13687TIP3    H141006   3.051   1.628   2.966
13687TIP3    H241007   2.938   1.634   2.867
13688TIP3   OH241008   1.811   5.936   5.891
13688TIP3    H141009   1.716   5.924   5.885
13688TIP3    H241010   1.834   5.983   5.811
13689TIP3   OH241011   4.278   2.423   3.215
13689TIP3    H141012   4.362   2.464   3.235
13689TIP3    H241013   4.255   2.376   3.295
13690TIP3   OH241014   7.594   5.523   0.741
13690TIP3    H141015   7.514   5.569   0.714
13690TIP3    H241016   7.582   5.434   0.710
13691TIP3   OH241017   7.661   6.822   6.178
13691TIP3    H141018   7.610   6.903   6.167
13691TIP3    H241019   7.741   6.838   6.128
13692TIP3   OH241020   0.837   5.399   6.521
13692TIP3    H141021   0.826   5.480   6.472
13692TIP3    H241022   0.834   5.330   6.454
13693TIP3   OH241023   5.235   5.032   6.083
13693TIP3    H141024   5.288   5.111   6.075
13693TIP3    H241025   5.298   4.960   6.081
13694TIP3   OH241026   2.971   1.893   1.688
13694TIP3    H141027   2.917   1.973   1.693
13694TIP3    H241028   3.056   1.919   1.724
13695TIP3   OH241029   1.259   5.932   2.906
13695TIP3    H141030   1.175   5.950   2.864
13695TIP3    H241031   1.324   5.962   2.843
13696TIP3   OH241032   4.555   1.492   6.372
13696TIP3    H141033   4.529   1.481   6.281
13696TIP3    H241034   4.587   1.406   6.398
13697TIP3   OH241035   7.008   4.816   3.372
13697TIP3    H141036   6.980   4.876   3.303
13697TIP3    H241037   7.082   4.769   3.333
13698TIP3   OH241038   6.914   0.401   1.594
13698TIP3    H141039   6.928   0.495   1.600
13698TIP3    H241040   6.958   0.365   1.671
13699TIP3   OH241041   5.302   4.297   3.670
13699TIP3    H141042   5.293   4.286   3.765
13699TIP3    H241043   5.293   4.391   3.656
13700TIP3   OH241044   7.278   0.664   6.164
13700TIP3    H141045   7.264   0.592   6.103
13700TIP3    H241046   7.282   0.622   6.250
13701TIP3   OH241047   0.616   7.139   4.498
13701TIP3    H141048   0.685   7.074   4.516
13701TIP3    H241049   0.543   7.087   4.466
13702TIP3   OH241050   6.266   6.925   3.823
13702TIP3    H141051   6.315   7.007   3.812
13702TIP3    H241052   6.306   6.866   3.759
13703TIP3   OH241053   4.608   3.253   3.546
13703TIP3    H141054   4.611   3.274   3.453
13703TIP3    H241055   4.663   3.175   3.555
13704TIP3   OH241056   4.213   5.049   4.729
13704TIP3    H141057   4.143   4.985   4.719
13704TIP3    H241058   4.230   5.081   4.640
13705TIP3   OH241059   5.973   7.692   3.127
13705TIP3    H141060   5.974   7.786   3.144
13705TIP3    H241061   5.908   7.681   3.057
13706TIP3   OH241062   6.773   6.474   4.519
13706TIP3    H141063   6.772   6.471   4.423
13706TIP3    H241064   6.794   6.565   4.540
13707TIP3   OH241065   8.154   0.137   2.373
13707TIP3    H141066   8.220   0.205   2.362
13707TIP3    H241067   8.155   0.118   2.467
13708TIP3   OH241068   0.952   2.528   2.913
13708TIP3    H141069   0.884   2.503   2.975
13708TIP3    H241070   1.032   2.536   2.965
13709TIP3   OH241071   0.540   3.552   6.319
13709TIP3    H141072   0.575   3.463   6.326
13709TIP3    H241073   0.584   3.590   6.244
13710TIP3   OH241074   8.158   7.423   5.621
13710TIP3    H141075   8.238   7.376   5.644
13710TIP3    H241076   8.119   7.447   5.705
13711TIP3   OH241077   4.376   6.912   3.408
13711TIP3    H141078   4.351   6.925   3.317
13711TIP3    H241079   4.416   6.825   3.409
13712TIP3   OH241080   1.024   5.063   6.648
13712TIP3    H141081   1.066   5.148   6.665
13712TIP3    H241082   1.097   5.004   6.627
13713TIP3   OH241083   1.291   0.418   1.560
13713TIP3    H141084   1.307   0.337   1.512
13713TIP3    H241085   1.213   0.455   1.519
13714TIP3   OH241086   5.300   1.851   5.618
13714TIP3    H141087   5.257   1.768   5.598
13714TIP3    H241088   5.393   1.835   5.600
13715TIP3   OH241089   5.564   0.131   1.992
13715TIP3    H141090   5.554   0.121   2.087
13715TIP3    H241091   5.475   0.133   1.958
13716TIP3   OH241092   6.318   6.341   2.804
13716TIP3    H141093   6.314   6.329   2.709
13716TIP3    H241094   6.279   6.427   2.819
13717TIP3   OH241095   1.250   5.587   4.635
13717TIP3    H141096   1.172   5.545   4.670
13717TIP3    H241097   1.246   5.570   4.541
13718TIP3   OH241098   4.521   1.659   0.187
13718TIP3    H141099   4.603   1.689   0.148
13718TIP3    H241100   4.534   1.565   0.199
13719TIP3   OH241101   7.913   5.076   5.898
13719TIP3    H141102   7.859   5.149   5.930
13719TIP3    H241103   7.872   4.998   5.935
13720TIP3   OH241104   4.981   7.414   5.794
13720TIP3    H141105   4.929   7.491   5.819
13720TIP3    H241106   5.042   7.447   5.728
13721TIP3   OH241107   2.191   3.237   4.757
13721TIP3    H141108   2.235   3.193   4.684
13721TIP3    H241109   2.098   3.229   4.737
13722TIP3   OH241110   5.477   7.088   2.145
13722TIP3    H141111   5.459   7.014   2.088
13722TIP3    H241112   5.570   7.108   2.129
13723TIP3   OH241113   3.188   3.061   0.052
13723TIP3    H141114   3.142   2.983   0.021
13723TIP3    H241115   3.142   3.085   0.132
13724TIP3   OH241116   0.827   2.756   1.041
13724TIP3    H141117   0.783   2.688   1.092
13724TIP3    H241118   0.826   2.724   0.951
13725TIP3   OH241119   4.157   0.975   4.826
13725TIP3    H141120   4.187   0.884   4.830
13725TIP3    H241121   4.064   0.969   4.808
13726TIP3   OH241122   1.434   4.038   4.664
13726TIP3    H141123   1.359   3.981   4.648
13726TIP3    H241124   1.434   4.052   4.759
13727TIP3   OH241125   3.884   0.954   5.186
13727TIP3    H141126   3.794   0.967   5.217
13727TIP3    H241127   3.879   0.972   5.092
13728TIP3   OH241128   2.979   0.984   5.365
13728TIP3    H141129   2.928   0.916   5.409
13728TIP3    H241130   2.977   1.058   5.426
13729TIP3   OH241131   2.431   7.395   2.126
13729TIP3    H141132   2.473   7.357   2.204
13729TIP3    H241133   2.354   7.441   2.160
13730TIP3   OH241134   8.124   3.928   2.437
13730TIP3    H141135   8.076   3.997   2.390
13730TIP3    H241136   8.168   3.878   2.368
13731TIP3   OH241137   0.776   4.942   0.385
13731TIP3    H141138   0.700   4.884   0.379
13731TIP3    H241139   0.746   5.017   0.437
13732TIP3   OH241140   0.215   4.548   4.155
13732TIP3    H141141   0.300   4.564   4.113
13732TIP3    H241142   0.165   4.499   4.089
13733TIP3   OH241143   0.136   0.651   4.818
13733TIP3    H141144   0.229   0.633   4.830
13733TIP3    H241145   0.134   0.725   4.758
13734TIP3   OH241146   4.251   3.873   2.983
13734TIP3    H141147   4.233   3.820   2.905
13734TIP3    H241148   4.230   3.962   2.956
13735TIP3   OH241149   1.977   6.586   4.055
13735TIP3    H141150   2.034   6.571   3.980
13735TIP3    H241151   2.008   6.669   4.092
13736TIP3   OH241152   2.398   2.557   4.448
13736TIP3    H141153   2.341   2.620   4.404
13736TIP3    H241154   2.479   2.605   4.466
13737TIP3   OH241155   3.350   6.319   0.540
13737TIP3    H141156   3.298   6.241   0.521
13737TIP3    H241157   3.358   6.364   0.456
13738TIP3   OH241158   5.325   7.863   0.098
13738TIP3    H141159   5.356   7.782   0.138
13738TIP3    H241160   5.265   7.901   0.162
13739TIP3   OH241161   6.231   6.094   1.841
13739TIP3    H141162   6.302   6.051   1.889
13739TIP3    H241163   6.273   6.126   1.761
13740TIP3   OH241164   4.400   2.195   0.454
13740TIP3    H141165   4.458   2.270   0.467
13740TIP3    H241166   4.451   2.119   0.482
13741TIP3   OH241167   0.197   1.405   2.890
13741TIP3    H141168   0.219   1.497   2.871
13741TIP3    H241169   0.102   1.406   2.903
13742TIP3   OH241170   0.405   2.737   5.564
13742TIP3    H141171   0.404   2.660   5.508
13742TIP3    H241172   0.484   2.785   5.539
13743TIP3   OH241173   6.228   3.229   2.941
13743TIP3    H141174   6.314   3.217   2.901
13743TIP3    H241175   6.189   3.302   2.894
13744TIP3   OH241176   4.278   6.645   5.825
13744TIP3    H141177   4.346   6.578   5.814
13744TIP3    H241178   4.326   6.723   5.853
13745TIP3   OH241179   4.060   6.906   5.801
13745TIP3    H141180   4.017   6.838   5.749
13745TIP3    H241181   3.987   6.956   5.839
13746TIP3   OH241182   1.907   7.122   3.897
13746TIP3    H141183   1.870   7.117   3.809
13746TIP3    H241184   1.963   7.045   3.904
13747TIP3   OH241185   6.073   4.088   5.827
13747TIP3    H141186   6.078   3.996   5.798
13747TIP3    H241187   6.009   4.087   5.898
13748TIP3   OH241188   6.304   0.433   4.551
13748TIP3    H141189   6.311   0.521   4.513
13748TIP3    H241190   6.382   0.425   4.607
13749TIP3   OH241191   2.033   0.070   0.806
13749TIP3    H141192   2.015   0.057   0.713
13749TIP3    H241193   2.033   0.165   0.817
13750TIP3   OH241194   5.716   6.056   4.786
13750TIP3    H141195   5.786   5.997   4.759
13750TIP3    H241196   5.701   6.112   4.710
13751TIP3   OH241197   6.998   7.063   6.232
13751TIP3    H141198   6.952   7.110   6.301
13751TIP3    H241199   6.952   7.087   6.151
13752TIP3   OH241200   3.711   0.982   1.863
13752TIP3    H141201   3.698   1.076   1.850
13752TIP3    H241202   3.803   0.973   1.886
13753TIP3   OH241203   1.928   2.998   4.140
13753TIP3    H141204   2.001   3.019   4.198
13753TIP3    H241205   1.851   3.033   4.185
13754TIP3   OH241206   5.154   7.103   0.124
13754TIP3    H141207   5.181   7.142   0.041
13754TIP3    H241208   5.084   7.160   0.155
13755TIP3   OH241209   6.772   3.742   5.874
13755TIP3    H141210   6.723   3.787   5.943
13755TIP3    H241211   6.833   3.808   5.841
13756TIP3   OH241212   6.559   2.075   5.623
13756TIP3    H141213   6.464   2.083   5.631
13756TIP3    H241214   6.584   2.016   5.695
13757TIP3   OH241215   8.225   6.178   0.898
13757TIP3    H141216   8.132   6.155   0.892
13757TIP3    H241217   8.242   6.230   0.820
13758TIP3   OH241218   1.572   7.643   2.113
13758TIP3    H141219   1.541   7.640   2.023
13758TIP3    H241220   1.617   7.560   2.127
13759TIP3   OH241221   3.140   1.309   2.311
13759TIP3    H141222   3.054   1.337   2.342
13759TIP3    H241223   3.202   1.345   2.374
13760TIP3   OH241224   4.639   7.699   0.726
13760TIP3    H141225   4.666   7.642   0.798
13760TIP3    H241226   4.546   7.680   0.715
13761TIP3   OH241227   1.363   7.109   0.533
13761TIP3    H141228   1.270   7.096   0.554
13761TIP3    H241229   1.399   7.154   0.609
13762TIP3   OH241230   1.539   2.551   6.555
13762TIP3    H141231   1.596   2.624   6.580
13762TIP3    H241232   1.458   2.566   6.604
13763TIP3   OH241233   6.120   3.315   5.643
13763TIP3    H141234   6.181   3.324   5.570
13763TIP3    H241235   6.059   3.248   5.614
13764TIP3   OH241236   3.324   7.621   2.048
13764TIP3    H141237   3.252   7.658   1.996
13764TIP3    H241238   3.287   7.541   2.085
13765TIP3   OH241239   6.189   4.928   3.387
13765TIP3    H141240   6.169   4.894   3.300
13765TIP3    H241241   6.145   4.867   3.447
13766TIP3   OH241242   0.447   7.420   3.512
13766TIP3    H141243   0.433   7.474   3.434
13766TIP3    H241244   0.422   7.478   3.585
13767TIP3   OH241245   1.637   2.783   4.618
13767TIP3    H141246   1.712   2.759   4.672
13767TIP3    H241247   1.615   2.704   4.570
13768TIP3   OH241248   2.480   2.731   4.964
13768TIP3    H141249   2.472   2.646   5.008
13768TIP3    H241250   2.430   2.791   5.020
13769TIP3   OH241251   5.150   4.217   3.365
13769TIP3    H141252   5.220   4.155   3.386
13769TIP3    H241253   5.143   4.272   3.443
13770TIP3   OH241254   4.927   0.378   2.767
13770TIP3    H141255   4.991   0.447   2.748
13770TIP3    H241256   4.865   0.419   2.827
13771TIP3   OH241257   6.475   4.921   4.278
13771TIP3    H141258   6.425   4.888   4.203
13771TIP3    H241259   6.432   4.882   4.355
13772TIP3   OH241260   5.165   3.898   3.224
13772TIP3    H141261   5.157   3.989   3.198
13772TIP3    H241262   5.106   3.889   3.299
13773TIP3   OH241263   8.152   6.920   2.611
13773TIP3    H141264   8.075   6.896   2.559
13773TIP3    H241265   8.154   7.015   2.608
13774TIP3   OH241266   0.461   7.622   2.810
13774TIP3    H141267   0.375   7.612   2.769
13774TIP3    H241268   0.487   7.712   2.790
13775TIP3   OH241269   1.393   7.198   3.353
13775TIP3    H141270   1.439   7.187   3.436
13775TIP3    H241271   1.417   7.286   3.324
13776TIP3   OH241272   0.483   1.979   3.888
13776TIP3    H141273   0.445   1.943   3.968
13776TIP3    H241274   0.433   2.059   3.871
13777TIP3   OH241275   1.785   6.840   3.990
13777TIP3    H141276   1.872   6.840   3.950
13777TIP3    H241277   1.801   6.820   4.082
13778TIP3   OH241278   4.857   1.958   0.098
13778TIP3    H141279   4.928   1.982   0.039
13778TIP3    H241280   4.894   1.965   0.186
13779TIP3   OH241281   1.490   3.189   4.471
13779TIP3    H141282   1.486   3.271   4.423
13779TIP3    H241283   1.464   3.212   4.560
13780TIP3   OH241284   1.571   2.539   1.297
13780TIP3    H141285   1.616   2.479   1.356
13780TIP3    H241286   1.589   2.506   1.209
13781TIP3   OH241287   1.385   3.672   1.757
13781TIP3    H141288   1.312   3.639   1.810
13781TIP3    H241289   1.343   3.728   1.691
13782TIP3   OH241290   7.311   5.391   5.080
13782TIP3    H141291   7.218   5.367   5.079
13782TIP3    H241292   7.317   5.465   5.019
13783TIP3   OH241293   3.871   2.872   1.182
13783TIP3    H141294   3.911   2.819   1.113
13783TIP3    H241295   3.886   2.821   1.262
13784TIP3   OH241296   4.432   2.464   1.051
13784TIP3    H141297   4.366   2.396   1.035
13784TIP3    H241298   4.513   2.429   1.015
13785TIP3   OH241299   6.655   3.139   5.891
13785TIP3    H141300   6.623   3.184   5.813
13785TIP3    H241301   6.705   3.205   5.938
13786TIP3   OH241302   1.847   0.823   2.031
13786TIP3    H141303   1.920   0.787   1.981
13786TIP3    H241304   1.771   0.772   2.003
13787TIP3   OH241305   1.738   1.136   3.857
13787TIP3    H141306   1.748   1.108   3.949
13787TIP3    H241307   1.651   1.106   3.832
13788TIP3   OH241308   3.190   3.446   4.316
13788TIP3    H141309   3.172   3.391   4.392
13788TIP3    H241310   3.134   3.523   4.329
13789TIP3   OH241311   7.291   1.333   0.984
13789TIP3    H141312   7.235   1.410   0.975
13789TIP3    H241313   7.281   1.285   0.902
13790TIP3   OH241314   0.622   1.846   2.504
13790TIP3    H141315   0.704   1.818   2.462
13790TIP3    H241316   0.571   1.884   2.433
13791TIP3   OH241317   2.647   5.659   6.340
13791TIP3    H141318   2.712   5.598   6.375
13791TIP3    H241319   2.664   5.660   6.246
13792TIP3   OH241320   4.825   0.577   3.919
13792TIP3    H141321   4.920   0.581   3.935
13792TIP3    H241322   4.814   0.611   3.830
13793TIP3   OH241323   5.692   2.837   5.448
13793TIP3    H141324   5.624   2.795   5.395
13793TIP3    H241325   5.644   2.883   5.517
13794TIP3   OH241326   7.562   4.436   2.782
13794TIP3    H141327   7.518   4.520   2.774
13794TIP3    H241328   7.535   4.404   2.868
13795TIP3   OH241329   6.778   3.715   6.375
13795TIP3    H141330   6.727   3.727   6.295
13795TIP3    H241331   6.742   3.779   6.437
13796TIP3   OH241332   7.803   0.549   0.406
13796TIP3    H141333   7.740   0.582   0.342
13796TIP3    H241334   7.885   0.543   0.359
13797TIP3   OH241335   1.377   3.777   0.410
13797TIP3    H141336   1.294   3.745   0.373
13797TIP3    H241337   1.396   3.715   0.481
13798TIP3   OH241338   5.532   0.314   4.523
13798TIP3    H141339   5.471   0.289   4.454
13798TIP3    H241340   5.574   0.232   4.549
13799TIP3   OH241341   0.755   6.966   1.297
13799TIP3    H141342   0.670   6.979   1.340
13799TIP3    H241343   0.817   7.015   1.351
13800TIP3   OH241344   5.158   4.216   2.133
13800TIP3    H141345   5.178   4.292   2.189
13800TIP3    H241346   5.187   4.242   2.046
13801TIP3   OH241347   0.704   5.177   0.502
13801TIP3    H141348   0.710   5.206   0.593
13801TIP3    H241349   0.734   5.252   0.451
13802TIP3   OH241350   2.718   3.371   6.094
13802TIP3    H141351   2.755   3.355   6.181
13802TIP3    H241352   2.718   3.285   6.051
13803TIP3   OH241353   2.564   6.076   2.902
13803TIP3    H141354   2.641   6.021   2.890
13803TIP3    H241355   2.546   6.073   2.996
13804TIP3   OH241356   2.515   7.485   4.641
13804TIP3    H141357   2.563   7.562   4.611
13804TIP3    H241358   2.511   7.494   4.736
13805TIP3   OH241359   7.993   2.010   1.163
13805TIP3    H141360   8.009   1.916   1.169
13805TIP3    H241361   8.025   2.035   1.077
13806TIP3   OH241362   7.146   0.972   2.586
13806TIP3    H141363   7.206   0.954   2.658
13806TIP3    H241364   7.063   0.935   2.615
13807TIP3   OH241365   0.949   4.557   5.909
13807TIP3    H141366   0.858   4.571   5.936
13807TIP3    H241367   0.944   4.530   5.818
13808TIP3   OH241368   3.057   3.842   1.234
13808TIP3    H141369   3.075   3.807   1.147
13808TIP3    H241370   2.962   3.843   1.241
13809TIP3   OH241371   7.575   0.266   4.492
13809TIP3    H141372   7.634   0.330   4.531
13809TIP3    H241373   7.617   0.181   4.510
13810TIP3   OH241374   6.553   5.120   1.925
13810TIP3    H141375   6.647   5.106   1.919
13810TIP3    H241376   6.543   5.201   1.976
13811TIP3   OH241377   1.249   2.296   2.887
13811TIP3    H141378   1.339   2.271   2.869
13811TIP3    H241379   1.248   2.319   2.980
13812TIP3   OH241380   2.650   2.048   3.992
13812TIP3    H141381   2.690   2.082   4.072
13812TIP3    H241382   2.719   2.055   3.926
13813TIP3   OH241383   4.852   6.519   2.510
13813TIP3    H141384   4.771   6.555   2.546
13813TIP3    H241385   4.859   6.432   2.549
13814TIP3   OH241386   5.513   1.772   3.971
13814TIP3    H141387   5.542   1.838   3.907
13814TIP3    H241388   5.581   1.773   4.038
13815TIP3   OH241389   7.771   2.555   3.407
13815TIP3    H141390   7.747   2.554   3.500
13815TIP3    H241391   7.757   2.645   3.379
13816TIP3   OH241392   3.298   3.862   4.701
13816TIP3    H141393   3.376   3.874   4.646
13816TIP3    H241394   3.329   3.882   4.789
13817TIP3   OH241395   4.450   0.128   4.754
13817TIP3    H141396   4.541   0.158   4.754
13817TIP3    H241397   4.435   0.096   4.843
13818TIP3   OH241398   7.382   0.782   2.235
13818TIP3    H141399   7.291   0.802   2.215
13818TIP3    H241400   7.377   0.721   2.309
13819TIP3   OH241401   3.460   4.731   2.952
13819TIP3    H141402   3.371   4.697   2.946
13819TIP3    H241403   3.516   4.654   2.936
13820TIP3   OH241404   0.934   6.613   2.063
13820TIP3    H141405   0.925   6.557   2.140
13820TIP3    H241406   0.997   6.568   2.007
13821TIP3   OH241407   6.939   0.697   5.085
13821TIP3    H141408   6.924   0.603   5.095
13821TIP3    H241409   7.034   0.707   5.091
13822TIP3   OH241410   4.702   4.876   2.821
13822TIP3    H141411   4.617   4.836   2.806
13822TIP3    H241412   4.685   4.970   2.829
13823TIP3   OH241413   2.317   6.986   4.013
13823TIP3    H141414   2.350   7.024   4.094
13823TIP3    H241415   2.378   7.017   3.945
13824TIP3   OH241416   3.009   7.553   1.245
13824TIP3    H141417   3.056   7.621   1.198
13824TIP3    H241418   3.044   7.471   1.211
13825TIP3   OH241419   2.947   1.607   1.299
13825TIP3    H141420   2.933   1.558   1.380
13825TIP3    H241421   2.993   1.545   1.241
13826TIP3   OH241422   3.304   3.973   6.220
13826TIP3    H141423   3.311   4.041   6.288
13826TIP3    H241424   3.223   3.926   6.242
13827TIP3   OH241425   1.702   1.870   1.029
13827TIP3    H141426   1.724   1.953   1.071
13827TIP3    H241427   1.629   1.891   0.970
13828TIP3   OH241428   5.329   6.731   4.935
13828TIP3    H141429   5.386   6.808   4.937
13828TIP3    H241430   5.332   6.701   4.845
13829TIP3   OH241431   4.305   3.405   6.377
13829TIP3    H141432   4.272   3.345   6.445
13829TIP3    H241433   4.367   3.353   6.327
13830TIP3   OH241434   1.497   0.611   3.156
13830TIP3    H141435   1.517   0.530   3.108
13830TIP3    H241436   1.402   0.608   3.169
13831TIP3   OH241437   1.061   3.936   5.581
13831TIP3    H141438   1.018   3.931   5.666
13831TIP3    H241439   1.035   3.856   5.535
13832TIP3   OH241440   5.527   2.974   3.370
13832TIP3    H141441   5.485   2.933   3.445
13832TIP3    H241442   5.458   3.029   3.332
13833TIP3   OH241443   6.875   1.235   2.796
13833TIP3    H141444   6.943   1.191   2.746
13833TIP3    H241445   6.800   1.240   2.736
13834TIP3   OH241446   2.542   1.164   6.430
13834TIP3    H141447   2.565   1.158   6.523
13834TIP3    H241448   2.607   1.223   6.393
13835TIP3   OH241449   2.580   1.816   0.284
13835TIP3    H141450   2.650   1.789   0.225
13835TIP3    H241451   2.534   1.735   0.306
13836TIP3   OH241452   5.563   7.311   5.928
13836TIP3    H141453   5.578   7.391   5.878
13836TIP3    H241454   5.493   7.265   5.880
13837TIP3   OH241455   1.539   3.001   3.659
13837TIP3    H141456   1.443   2.997   3.665
13837TIP3    H241457   1.558   3.093   3.642
13838TIP3   OH241458   2.372   1.441   5.378
13838TIP3    H141459   2.429   1.441   5.301
13838TIP3    H241460   2.383   1.528   5.416
13839TIP3   OH241461   1.697   0.589   5.883
13839TIP3    H141462   1.650   0.512   5.850
13839TIP3    H241463   1.782   0.586   5.839
13840TIP3   OH241464   1.185   0.818   6.556
13840TIP3    H141465   1.090   0.819   6.566
13840TIP3    H241466   1.218   0.870   6.629
13841TIP3   OH241467   7.148   4.252   3.722
13841TIP3    H141468   7.192   4.212   3.646
13841TIP3    H241469   7.218   4.263   3.787
13842TIP3   OH241470   2.158   4.803   5.805
13842TIP3    H141471   2.112   4.853   5.737
13842TIP3    H241472   2.092   4.743   5.839
13843TIP3   OH241473   0.810   1.524   4.549
13843TIP3    H141474   0.858   1.446   4.577
13843TIP3    H241475   0.719   1.504   4.570
13844TIP3   OH241476   5.297   4.271   6.645
13844TIP3    H141477   5.227   4.245   6.584
13844TIP3    H241478   5.319   4.360   6.618
13845TIP3   OH241479   1.609   0.930   0.838
13845TIP3    H141480   1.684   0.896   0.887
13845TIP3    H241481   1.636   1.017   0.809
13846TIP3   OH241482   3.282   6.100   4.946
13846TIP3    H141483   3.215   6.031   4.944
13846TIP3    H241484   3.254   6.162   4.879
13847TIP3   OH241485   2.258   2.752   1.842
13847TIP3    H141486   2.222   2.684   1.785
13847TIP3    H241487   2.317   2.705   1.900
13848TIP3   OH241488   7.230   0.489   3.882
13848TIP3    H141489   7.140   0.514   3.862
13848TIP3    H241490   7.271   0.569   3.914
13849TIP3   OH241491   8.158   4.263   1.090
13849TIP3    H141492   8.104   4.329   1.046
13849TIP3    H241493   8.145   4.184   1.038
13850TIP3   OH241494   4.413   4.386   1.137
13850TIP3    H141495   4.327   4.416   1.107
13850TIP3    H241496   4.462   4.466   1.154
13851TIP3   OH241497   2.813   7.106   6.214
13851TIP3    H141498   2.858   7.078   6.294
13851TIP3    H241499   2.817   7.029   6.157
13852TIP3   OH241500   6.591   6.354   0.497
13852TIP3    H141501   6.569   6.379   0.587
13852TIP3    H241502   6.512   6.375   0.446
13853TIP3   OH241503   4.723   3.398   0.175
13853TIP3    H141504   4.763   3.350   0.247
13853TIP3    H241505   4.768   3.366   0.097
13854TIP3   OH241506   6.569   2.402   5.469
13854TIP3    H141507   6.545   2.416   5.560
13854TIP3    H241508   6.638   2.466   5.452
13855TIP3   OH241509   7.495   5.099   5.378
13855TIP3    H141510   7.547   5.107   5.298
13855TIP3    H241511   7.552   5.132   5.448
13856TIP3   OH241512   3.090   5.903   5.023
13856TIP3    H141513   3.124   5.922   5.110
13856TIP3    H241514   3.008   5.855   5.039
13857TIP3   OH241515   2.524   5.448   1.842
13857TIP3    H141516   2.616   5.470   1.828
13857TIP3    H241517   2.527   5.360   1.880
13858TIP3   OH241518   1.723   1.547   4.147
13858TIP3    H141519   1.700   1.522   4.057
13858TIP3    H241520   1.645   1.527   4.198
13859TIP3   OH241521   4.119   7.004   5.193
13859TIP3    H141522   4.206   7.043   5.183
13859TIP3    H241523   4.127   6.946   5.268
13860TIP3   OH241524   6.293   5.005   1.324
13860TIP3    H141525   6.326   5.058   1.397
13860TIP3    H241526   6.212   5.048   1.298
13861TIP3   OH241527   6.481   5.248   3.484
13861TIP3    H141528   6.524   5.170   3.449
13861TIP3    H241529   6.543   5.319   3.468
13862TIP3   OH241530   0.698   7.615   3.509
13862TIP3    H141531   0.686   7.566   3.427
13862TIP3    H241532   0.728   7.701   3.481
13863TIP3   OH241533   5.822   5.027   5.618
13863TIP3    H141534   5.871   5.105   5.592
13863TIP3    H241535   5.738   5.035   5.572
13864TIP3   OH241536   1.899   6.565   4.938
13864TIP3    H141537   1.909   6.470   4.946
13864TIP3    H241538   1.934   6.585   4.851
13865TIP3   OH241539   4.914   4.312   6.246
13865TIP3    H141540   4.866   4.247   6.194
13865TIP3    H241541   4.854   4.386   6.253
13866TIP3   OH241542   5.667   6.362   4.924
13866TIP3    H141543   5.750   6.324   4.896
13866TIP3    H241544   5.670   6.359   5.019
13867TIP3   OH241545   0.251   5.558   0.457
13867TIP3    H141546   0.307   5.633   0.438
13867TIP3    H241547   0.187   5.557   0.386
13868TIP3   OH241548   0.957   4.855   2.427
13868TIP3    H141549   0.928   4.923   2.488
13868TIP3    H241550   0.951   4.774   2.477
13869TIP3   OH241551   4.357   5.555   1.070
13869TIP3    H141552   4.335   5.648   1.081
13869TIP3    H241553   4.408   5.553   0.989
13870TIP3   OH241554   2.429   4.965   3.897
13870TIP3    H141555   2.376   5.018   3.957
13870TIP3    H241556   2.494   4.924   3.954
13871TIP3   OH241557   5.249   5.147   0.213
13871TIP3    H141558   5.223   5.169   0.303
13871TIP3    H241559   5.210   5.216   0.160
13872TIP3   OH241560   5.543   0.967   3.811
13872TIP3    H141561   5.460   0.925   3.830
13872TIP3    H241562   5.570   0.931   3.726
13873TIP3   OH241563   1.080   6.218   6.443
13873TIP3    H141564   1.012   6.222   6.376
13873TIP3    H241565   1.075   6.128   6.477
13874TIP3   OH241566   4.403   2.829   0.252
13874TIP3    H141567   4.373   2.849   0.341
13874TIP3    H241568   4.485   2.782   0.264
13875TIP3   OH241569   5.403   0.922   2.556
13875TIP3    H141570   5.427   1.004   2.599
13875TIP3    H241571   5.459   0.856   2.597
13876TIP3   OH241572   5.564   2.004   5.877
13876TIP3    H141573   5.504   2.044   5.814
13876TIP3    H241574   5.506   1.969   5.945
13877TIP3   OH241575   6.242   7.836   3.092
13877TIP3    H141576   6.318   7.781   3.073
13877TIP3    H241577   6.173   7.775   3.116
13878TIP3   OH241578   7.181   5.288   1.300
13878TIP3    H141579   7.236   5.233   1.243
13878TIP3    H241580   7.228   5.370   1.307
13879TIP3   OH241581   4.905   5.508   4.758
13879TIP3    H141582   4.811   5.513   4.740
13879TIP3    H241583   4.930   5.419   4.731
13880TIP3   OH241584   2.479   7.035   2.125
13880TIP3    H141585   2.464   6.941   2.134
13880TIP3    H241586   2.565   7.049   2.164
13881TIP3   OH241587   6.847   3.215   1.424
13881TIP3    H141588   6.913   3.148   1.444
13881TIP3    H241589   6.872   3.249   1.338
13882TIP3   OH241590   5.348   3.778   2.438
13882TIP3    H141591   5.404   3.723   2.383
13882TIP3    H241592   5.404   3.803   2.511
13883TIP3   OH241593   0.668   2.148   2.414
13883TIP3    H141594   0.587   2.144   2.465
13883TIP3    H241595   0.714   2.224   2.450
13884TIP3   OH241596   1.990   3.474   5.260
13884TIP3    H141597   1.923   3.424   5.213
13884TIP3    H241598   2.062   3.482   5.197
13885TIP3   OH241599   8.036   2.171   1.376
13885TIP3    H141600   8.083   2.242   1.332
13885TIP3    H241601   7.997   2.120   1.305
13886TIP3   OH241602   6.317   1.000   5.764
13886TIP3    H141603   6.230   0.960   5.763
13886TIP3    H241604   6.317   1.054   5.843
13887TIP3   OH241605   5.010   5.953   0.891
13887TIP3    H141606   5.018   5.999   0.808
13887TIP3    H241607   5.029   6.019   0.958
13888TIP3   OH241608   7.372   6.623   5.285
13888TIP3    H141609   7.319   6.575   5.348
13888TIP3    H241610   7.316   6.630   5.207
13889TIP3   OH241611   4.721   6.447   5.707
13889TIP3    H141612   4.751   6.492   5.629
13889TIP3    H241613   4.753   6.357   5.697
13890TIP3   OH241614   3.699   3.758   3.918
13890TIP3    H141615   3.694   3.662   3.916
13890TIP3    H241616   3.609   3.785   3.936
13891TIP3   OH241617   7.572   3.642   3.530
13891TIP3    H141618   7.584   3.721   3.581
13891TIP3    H241619   7.657   3.599   3.529
13892TIP3   OH241620   1.564   0.912   1.319
13892TIP3    H141621   1.621   0.843   1.354
13892TIP3    H241622   1.623   0.984   1.299
13893TIP3   OH241623   0.202   3.263   3.605
13893TIP3    H141624   0.229   3.231   3.691
13893TIP3    H241625   0.236   3.353   3.600
13894TIP3   OH241626   5.292   0.268   4.367
13894TIP3    H141627   5.224   0.269   4.435
13894TIP3    H241628   5.278   0.185   4.321
13895TIP3   OH241629   1.559   3.698   3.138
13895TIP3    H141630   1.589   3.736   3.055
13895TIP3    H241631   1.472   3.663   3.118
13896TIP3   OH241632   1.602   3.916   5.559
13896TIP3    H141633   1.650   3.836   5.537
13896TIP3    H241634   1.521   3.885   5.599
13897TIP3   OH241635   2.241   2.642   6.267
13897TIP3    H141636   2.229   2.548   6.257
13897TIP3    H241637   2.217   2.660   6.358
13898TIP3   OH241638   3.995   3.608   5.751
13898TIP3    H141639   3.919   3.643   5.797
13898TIP3    H241640   4.026   3.537   5.806
13899TIP3   OH241641   4.089   2.971   3.154
13899TIP3    H141642   4.169   2.992   3.106
13899TIP3    H241643   4.037   3.052   3.151
13900TIP3   OH241644   6.436   1.040   0.154
13900TIP3    H141645   6.512   1.054   0.098
13900TIP3    H241646   6.369   1.005   0.095
13901TIP3   OH241647   2.957   3.294   4.820
13901TIP3    H141648   2.896   3.233   4.860
13901TIP3    H241649   2.902   3.357   4.773
13902TIP3   OH241650   6.274   0.272   6.660
13902TIP3    H141651   6.339   0.339   6.679
13902TIP3    H241652   6.293   0.201   6.721
13903TIP3   OH241653   7.753   7.834   6.202
13903TIP3    H141654   7.726   7.743   6.213
13903TIP3    H241655   7.673   7.880   6.177
13904TIP3   OH241656   7.046   6.178   5.087
13904TIP3    H141657   7.017   6.087   5.086
13904TIP3    H241658   7.083   6.193   5.000
13905TIP3   OH241659   1.460   6.870   4.376
13905TIP3    H141660   1.527   6.939   4.370
13905TIP3    H241661   1.503   6.792   4.342
13906TIP3   OH241662   0.273   7.575   0.800
13906TIP3    H141663   0.321   7.603   0.722
13906TIP3    H241664   0.326   7.607   0.873
13907TIP3   OH241665   7.973   6.589   3.345
13907TIP3    H141666   7.930   6.526   3.405
13907TIP3    H241667   8.030   6.535   3.291
13908TIP3   OH241668   7.207   7.617   2.627
13908TIP3    H141669   7.277   7.652   2.682
13908TIP3    H241670   7.210   7.522   2.644
13909TIP3   OH241671   2.360   5.675   3.395
13909TIP3    H141672   2.361   5.766   3.425
13909TIP3    H241673   2.432   5.633   3.441
13910TIP3   OH241674   6.982   6.392   3.514
13910TIP3    H141675   6.953   6.403   3.604
13910TIP3    H241676   7.004   6.480   3.485
13911TIP3   OH241677   3.110   0.444   5.616
13911TIP3    H141678   3.121   0.522   5.670
13911TIP3    H241679   3.016   0.425   5.620
13912TIP3   OH241680   2.308   0.396   3.152
13912TIP3    H141681   2.213   0.404   3.160
13912TIP3    H241682   2.326   0.304   3.171
13913TIP3   OH241683   2.035   2.284   5.177
13913TIP3    H141684   2.029   2.321   5.089
13913TIP3    H241685   2.104   2.218   5.171
13914TIP3   OH241686   1.608   7.177   5.840
13914TIP3    H141687   1.666   7.166   5.764
13914TIP3    H241688   1.530   7.126   5.818
13915TIP3   OH241689   1.229   0.086   3.650
13915TIP3    H141690   1.181   0.074   3.732
13915TIP3    H241691   1.228   0.000   3.609
13916TIP3   OH241692   3.724   1.534   4.942
13916TIP3    H141693   3.637   1.537   4.902
13916TIP3    H241694   3.740   1.440   4.957
13917TIP3   OH241695   0.324   1.791   5.453
13917TIP3    H141696   0.392   1.732   5.487
13917TIP3    H241697   0.260   1.733   5.413
13918TIP3   OH241698   3.324   0.415   5.428
13918TIP3    H141699   3.356   0.498   5.394
13918TIP3    H241700   3.261   0.438   5.496
13919TIP3   OH241701   2.045   2.402   2.139
13919TIP3    H141702   2.067   2.444   2.055
13919TIP3    H241703   1.957   2.433   2.159
13920TIP3   OH241704   8.011   3.161   2.306
13920TIP3    H141705   7.994   3.127   2.393
13920TIP3    H241706   7.925   3.164   2.264
13921TIP3   OH241707   3.242   3.891   2.385
13921TIP3    H141708   3.253   3.909   2.291
13921TIP3    H241709   3.230   3.978   2.424
13922TIP3   OH241710   3.911   6.100   4.177
13922TIP3    H141711   3.974   6.036   4.143
13922TIP3    H241712   3.891   6.068   4.265
13923TIP3   OH241713   0.755   0.889   3.453
13923TIP3    H141714   0.765   0.979   3.424
13923TIP3    H241715   0.718   0.896   3.541
13924TIP3   OH241716   1.626   2.697   2.144
13924TIP3    H141717   1.595   2.761   2.208
13924TIP3    H241718   1.593   2.728   2.060
13925TIP3   OH241719   1.120   6.808   6.631
13925TIP3    H141720   1.163   6.743   6.687
13925TIP3    H241721   1.085   6.758   6.558
13926TIP3   OH241722   6.174   3.645   6.703
13926TIP3    H141723   6.187   3.690   6.620
13926TIP3    H241724   6.205   3.556   6.687
13927TIP3   OH241725   4.298   0.405   4.719
13927TIP3    H141726   4.214   0.394   4.674
13927TIP3    H241727   4.348   0.327   4.694
13928TIP3   OH241728   2.635   0.523   5.803
13928TIP3    H141729   2.583   0.443   5.790
13928TIP3    H241730   2.608   0.555   5.889
13929TIP3   OH241731   0.833   6.001   3.263
13929TIP3    H141732   0.801   6.091   3.267
13929TIP3    H241733   0.832   5.970   3.354
13930TIP3   OH241734   8.076   7.386   3.779
13930TIP3    H141735   8.012   7.368   3.710
13930TIP3    H241736   8.142   7.318   3.770
13931TIP3   OH241737   0.781   7.313   3.557
13931TIP3    H141738   0.789   7.336   3.650
13931TIP3    H241739   0.717   7.375   3.522
13932TIP3   OH241740   5.796   0.792   5.126
13932TIP3    H141741   5.849   0.872   5.116
13932TIP3    H241742   5.770   0.769   5.037
13933TIP3   OH241743   3.584   2.571   2.027
13933TIP3    H141744   3.673   2.598   2.052
13933TIP3    H241745   3.543   2.651   1.995
13934TIP3   OH241746   5.703   6.475   5.197
13934TIP3    H141747   5.689   6.558   5.151
13934TIP3    H241748   5.695   6.498   5.290
13935TIP3   OH241749   6.597   6.193   2.196
13935TIP3    H141750   6.588   6.240   2.279
13935TIP3    H241751   6.673   6.234   2.154
13936TIP3   OH241752   3.980   0.884   6.469
13936TIP3    H141753   4.041   0.910   6.538
13936TIP3    H241754   3.960   0.793   6.488
13937TIP3   OH241755   3.025   1.609   6.641
13937TIP3    H141756   2.995   1.621   6.731
13937TIP3    H241757   3.107   1.659   6.637
13938TIP3   OH241758   5.524   5.399   1.822
13938TIP3    H141759   5.618   5.416   1.826
13938TIP3    H241760   5.517   5.315   1.778
13939TIP3   OH241761   0.880   3.100   3.598
13939TIP3    H141762   0.920   3.014   3.586
13939TIP3    H241763   0.889   3.143   3.513
13940TIP3   OH241764   5.590   4.789   4.280
13940TIP3    H141765   5.637   4.854   4.333
13940TIP3    H241766   5.527   4.750   4.341
13941TIP3   OH241767   2.868   4.422   3.130
13941TIP3    H141768   2.885   4.380   3.046
13941TIP3    H241769   2.949   4.468   3.151
13942TIP3   OH241770   3.871   1.168   2.214
13942TIP3    H141771   3.912   1.085   2.188
13942TIP3    H241772   3.798   1.142   2.269
13943TIP3   OH241773   2.834   6.962   4.977
13943TIP3    H141774   2.921   6.938   4.944
13943TIP3    H241775   2.804   6.884   5.025
13944TIP3   OH241776   3.751   5.210   4.882
13944TIP3    H141777   3.780   5.290   4.925
13944TIP3    H241778   3.826   5.181   4.830
13945TIP3   OH241779   5.471   6.009   3.918
13945TIP3    H141780   5.385   5.972   3.938
13945TIP3    H241781   5.491   6.065   3.993
13946TIP3   OH241782   4.434   5.434   5.095
13946TIP3    H141783   4.489   5.400   5.023
13946TIP3    H241784   4.384   5.504   5.055
13947TIP3   OH241785   0.287   1.592   5.697
13947TIP3    H141786   0.310   1.554   5.612
13947TIP3    H241787   0.192   1.585   5.702
13948TIP3   OH241788   4.897   1.588   4.205
13948TIP3    H141789   4.954   1.662   4.185
13948TIP3    H241790   4.834   1.623   4.269
13949TIP3   OH241791   4.034   1.490   6.575
13949TIP3    H141792   4.118   1.443   6.574
13949TIP3    H241793   4.038   1.548   6.499
13950TIP3   OH241794   6.101   4.932   0.809
13950TIP3    H141795   6.069   5.001   0.868
13950TIP3    H241796   6.022   4.891   0.774
13951TIP3   OH241797   5.286   0.329   5.935
13951TIP3    H141798   5.195   0.334   5.965
13951TIP3    H241799   5.312   0.420   5.923
13952TIP3   OH241800   2.833   7.201   5.839
13952TIP3    H141801   2.825   7.259   5.915
13952TIP3    H241802   2.743   7.179   5.815
13953TIP3   OH241803   6.468   3.180   4.785
13953TIP3    H141804   6.531   3.162   4.715
13953TIP3    H241805   6.441   3.093   4.815
13954TIP3   OH241806   4.087   5.532   4.543
13954TIP3    H141807   4.054   5.447   4.512
13954TIP3    H241808   4.083   5.588   4.466
13955TIP3   OH241809   4.598   2.906   4.759
13955TIP3    H141810   4.619   2.978   4.700
13955TIP3    H241811   4.503   2.911   4.769
13956TIP3   OH241812   3.849   5.126   0.892
13956TIP3    H141813   3.809   5.203   0.852
13956TIP3    H241814   3.870   5.153   0.982
13957TIP3   OH241815   6.794   0.918   0.055
13957TIP3    H141816   6.772   0.833   0.016
13957TIP3    H241817   6.841   0.965  -0.013
13958TIP3   OH241818   0.678   1.716   5.438
13958TIP3    H141819   0.658   1.659   5.512
13958TIP3    H241820   0.752   1.674   5.394
13959TIP3   OH241821   5.940   2.788   5.320
13959TIP3    H141822   5.870   2.800   5.384
13959TIP3    H241823   6.010   2.745   5.368
13960TIP3   OH241824   6.709   2.855   5.506
13960TIP3    H141825   6.641   2.834   5.441
13960TIP3    H241826   6.767   2.916   5.460
13961TIP3   OH241827   0.371   7.509   3.952
13961TIP3    H141828   0.354   7.415   3.943
13961TIP3    H241829   0.412   7.534   3.869
13962TIP3   OH241830   6.331   1.082   6.360
13962TIP3    H141831   6.267   1.012   6.372
13962TIP3    H241832   6.381   1.055   6.283
13963TIP3   OH241833   4.324   5.156   1.918
13963TIP3    H141834   4.411   5.140   1.880
13963TIP3    H241835   4.327   5.114   2.003
13964TIP3   OH241836   5.466   7.685   0.852
13964TIP3    H141837   5.438   7.724   0.934
13964TIP3    H241838   5.534   7.745   0.819
13965TIP3   OH241839   7.452   3.471   6.336
13965TIP3    H141840   7.395   3.412   6.287
13965TIP3    H241841   7.540   3.436   6.323
13966TIP3   OH241842   0.266   1.557   1.764
13966TIP3    H141843   0.279   1.649   1.744
13966TIP3    H241844   0.231   1.557   1.854
13967TIP3   OH241845   0.532   1.319   2.740
13967TIP3    H141846   0.472   1.381   2.781
13967TIP3    H241847   0.612   1.324   2.794
13968TIP3   OH241848   0.749   6.828   2.901
13968TIP3    H141849   0.717   6.823   2.811
13968TIP3    H241850   0.683   6.879   2.947
13969TIP3   OH241851   4.748   0.099   1.432
13969TIP3    H141852   4.817   0.042   1.466
13969TIP3    H241853   4.765   0.184   1.473
13970TIP3   OH241854   8.001   1.539   3.946
13970TIP3    H141855   8.060   1.594   3.895
13970TIP3    H241856   7.916   1.548   3.903
13971TIP3   OH241857   5.507   4.720   5.008
13971TIP3    H141858   5.575   4.764   5.060
13971TIP3    H241859   5.426   4.763   5.033
13972TIP3   OH241860   0.229   6.898   5.199
13972TIP3    H141861   0.166   6.851   5.254
13972TIP3    H241862   0.274   6.956   5.260
13973TIP3   OH241863   4.635   3.666   6.565
13973TIP3    H141864   4.710   3.725   6.559
13973TIP3    H241865   4.573   3.699   6.500
13974TIP3   OH241866   3.913   2.569   6.014
13974TIP3    H141867   3.933   2.658   5.985
13974TIP3    H241868   3.900   2.577   6.108
13975TIP3   OH241869   6.560   4.827   3.371
13975TIP3    H141870   6.561   4.799   3.462
13975TIP3    H241871   6.493   4.772   3.329
13976TIP3   OH241872   5.020   3.740   4.378
13976TIP3    H141873   4.985   3.791   4.305
13976TIP3    H241874   4.968   3.767   4.453
13977TIP3   OH241875   6.395   0.052   5.242
13977TIP3    H141876   6.337   0.127   5.254
13977TIP3    H241877   6.339  -0.016   5.205
13978TIP3   OH241878   1.355   2.277   2.602
13978TIP3    H141879   1.343   2.182   2.611
13978TIP3    H241880   1.376   2.290   2.510
13979TIP3   OH241881   0.904   3.875   1.224
13979TIP3    H141882   0.825   3.889   1.173
13979TIP3    H241883   0.877   3.887   1.315
13980TIP3   OH241884   2.126   0.385   6.701
13980TIP3    H141885   2.077   0.320   6.651
13980TIP3    H241886   2.213   0.387   6.659
13981TIP3   OH241887   2.935   1.174   2.137
13981TIP3    H141888   2.912   1.084   2.115
13981TIP3    H241889   2.978   1.168   2.222
13982TIP3   OH241890   6.911   4.423   5.091
13982TIP3    H141891   7.005   4.420   5.073
13982TIP3    H241892   6.889   4.516   5.089
13983TIP3   OH241893   7.005   2.942   6.348
13983TIP3    H141894   6.992   2.980   6.435
13983TIP3    H241895   7.044   2.857   6.364
13984TIP3   OH241896   5.696   3.528   3.220
13984TIP3    H141897   5.621   3.530   3.280
13984TIP3    H241898   5.771   3.509   3.277
13985TIP3   OH241899   5.837   0.614   2.653
13985TIP3    H141900   5.889   0.663   2.717
13985TIP3    H241901   5.819   0.676   2.583
13986TIP3   OH241902   7.289   4.398   0.989
13986TIP3    H141903   7.379   4.366   0.991
13986TIP3    H241904   7.235   4.320   0.985
13987TIP3   OH241905   7.779   2.717   6.293
13987TIP3    H141906   7.762   2.731   6.200
13987TIP3    H241907   7.863   2.671   6.295
13988TIP3   OH241908   0.496   2.167   0.152
13988TIP3    H141909   0.491   2.185   0.058
13988TIP3    H241910   0.413   2.126   0.173
13989TIP3   OH241911   3.879   0.851   6.224
13989TIP3    H141912   3.942   0.853   6.296
13989TIP3    H241913   3.923   0.801   6.155
13990TIP3   OH241914   0.713   1.972   1.102
13990TIP3    H141915   0.716   1.890   1.054
13990TIP3    H241916   0.783   2.026   1.064
13991TIP3   OH241917   0.045   1.283   6.184
13991TIP3    H141918   0.045   1.307   6.091
13991TIP3    H241919   0.103   1.207   6.189
13992TIP3   OH241920   6.957   2.236   2.565
13992TIP3    H141921   6.925   2.321   2.536
13992TIP3    H241922   7.045   2.253   2.598
13993TIP3   OH241923   1.729   4.877   2.986
13993TIP3    H141924   1.717   4.968   2.960
13993TIP3    H241925   1.719   4.827   2.905
13994TIP3   OH241926   1.895   6.867   1.198
13994TIP3    H141927   1.877   6.831   1.285
13994TIP3    H241928   1.809   6.893   1.164
13995TIP3   OH241929   4.032   7.609   3.803
13995TIP3    H141930   3.977   7.674   3.847
13995TIP3    H241931   4.011   7.527   3.847
13996TIP3   OH241932   3.928   5.616   1.814
13996TIP3    H141933   3.954   5.529   1.845
13996TIP3    H241934   3.834   5.609   1.800
13997TIP3   OH241935   2.878   0.801   5.530
13997TIP3    H141936   2.785   0.792   5.547
13997TIP3    H241937   2.909   0.711   5.519
13998TIP3   OH241938   1.542   1.640   3.082
13998TIP3    H141939   1.618   1.583   3.067
13998TIP3    H241940   1.568   1.694   3.157
13999TIP3   OH241941   4.963   2.775   5.399
13999TIP3    H141942   4.931   2.808   5.483
13999TIP3    H241943   5.048   2.735   5.420
14000TIP3   OH241944   3.513   7.053   4.375
14000TIP3    H141945   3.518   7.073   4.469
14000TIP3    H241946   3.544   6.963   4.368
14001TIP3   OH241947   4.522   0.416   1.370
14001TIP3    H141948   4.551   0.453   1.454
14001TIP3    H241949   4.604   0.395   1.325
14002TIP3   OH241950   8.130   2.020   1.581
14002TIP3    H141951   8.135   2.072   1.502
14002TIP3    H241952   8.090   1.937   1.553
14003TIP3   OH241953   1.464   1.634   4.624
14003TIP3    H141954   1.547   1.612   4.668
14003TIP3    H241955   1.475   1.725   4.598
14004TIP3   OH241956   2.780   0.624   3.848
14004TIP3    H141957   2.727   0.701   3.870
14004TIP3    H241958   2.802   0.585   3.933
14005TIP3   OH241959   7.144   2.676   0.604
14005TIP3    H141960   7.096   2.647   0.526
14005TIP3    H241961   7.091   2.747   0.640
14006TIP3   OH241962   2.755   7.795   2.487
14006TIP3    H141963   2.683   7.773   2.547
14006TIP3    H241964   2.764   7.718   2.431
14007TIP3   OH241965   3.882   7.378   6.360
14007TIP3    H141966   3.975   7.387   6.339
14007TIP3    H241967   3.839   7.378   6.274
14008TIP3   OH241968   1.308   3.254   5.776
14008TIP3    H141969   1.303   3.312   5.700
14008TIP3    H241970   1.379   3.291   5.829
14009TIP3   OH241971   4.860   2.416   0.592
14009TIP3    H141972   4.954   2.412   0.573
14009TIP3    H241973   4.848   2.499   0.638
14010TIP3   OH241974   6.808   7.278   4.784
14010TIP3    H141975   6.890   7.295   4.830
14010TIP3    H241976   6.743   7.267   4.853
14011TIP3   OH241977   4.128   0.326   1.939
14011TIP3    H141978   4.158   0.263   2.005
14011TIP3    H241979   4.046   0.361   1.974
14012TIP3   OH241980   5.360   0.226   1.091
14012TIP3    H141981   5.403   0.265   1.015
14012TIP3    H241982   5.322   0.144   1.058
14013TIP3   OH241983   2.013   3.222   6.516
14013TIP3    H141984   2.076   3.176   6.460
14013TIP3    H241985   1.946   3.253   6.456
14014TIP3   OH241986   2.173   7.493   3.235
14014TIP3    H141987   2.095   7.489   3.291
14014TIP3    H241988   2.154   7.432   3.164
14015TIP3   OH241989   5.051   2.200   3.407
14015TIP3    H141990   4.959   2.211   3.382
14015TIP3    H241991   5.070   2.108   3.386
14016TIP3   OH241992   1.552   2.122   5.365
14016TIP3    H141993   1.584   2.212   5.358
14016TIP3    H241994   1.590   2.077   5.289
14017TIP3   OH241995   0.098   4.533   4.515
14017TIP3    H141996   0.105   4.501   4.605
14017TIP3    H241997   0.051   4.463   4.469
14018TIP3   OH241998   5.301   5.786   2.991
14018TIP3    H141999   5.315   5.848   2.919
14018TIP3    H242000   5.243   5.831   3.051
14019TIP3   OH242001   3.358   6.047   1.766
14019TIP3    H142002   3.451   6.058   1.784
14019TIP3    H242003   3.314   6.084   1.843
14020TIP3   OH242004   7.276   7.178   3.789
14020TIP3    H142005   7.305   7.092   3.757
14020TIP3    H242006   7.291   7.174   3.883
14021TIP3   OH242007   4.022   4.399   2.118
14021TIP3    H142008   3.962   4.328   2.139
14021TIP3    H242009   4.088   4.358   2.061
14022TIP3   OH242010   3.268   6.712   2.021
14022TIP3    H142011   3.337   6.741   2.081
14022TIP3    H242012   3.238   6.792   1.979
14023TIP3   OH242013   1.759   7.218   4.093
14023TIP3    H142014   1.793   7.191   4.008
14023TIP3    H242015   1.824   7.187   4.156
14024TIP3   OH242016   7.353   1.407   4.057
14024TIP3    H142017   7.369   1.315   4.078
14024TIP3    H242018   7.432   1.434   4.010
14025TIP3   OH242019   6.810   3.202   4.225
14025TIP3    H142020   6.816   3.297   4.235
14025TIP3    H242021   6.901   3.172   4.231
14026TIP3   OH242022   4.727   0.130   1.093
14026TIP3    H142023   4.657   0.144   1.156
14026TIP3    H242024   4.703   0.185   1.018
14027TIP3   OH242025   4.193   7.413   1.836
14027TIP3    H142026   4.218   7.336   1.887
14027TIP3    H242027   4.275   7.444   1.798
14028TIP3   OH242028   4.388   0.479   3.299
14028TIP3    H142029   4.360   0.563   3.337
14028TIP3    H242030   4.349   0.478   3.212
14029TIP3   OH242031   4.891   5.977   2.200
14029TIP3    H142032   4.811   5.982   2.148
14029TIP3    H242033   4.891   5.887   2.234
14030TIP3   OH242034   0.292   6.400   3.104
14030TIP3    H142035   0.315   6.382   3.012
14030TIP3    H242036   0.348   6.474   3.128
14031TIP3   OH242037   8.229   4.520   1.362
14031TIP3    H142038   8.137   4.528   1.337
14031TIP3    H242039   8.227   4.472   1.444
14032TIP3   OH242040   5.250   6.250   0.154
14032TIP3    H142041   5.224   6.160   0.176
14032TIP3    H242042   5.167   6.298   0.149
14033TIP3   OH242043   3.165   7.359   0.315
14033TIP3    H142044   3.106   7.367   0.241
14033TIP3    H242045   3.153   7.441   0.364
14034TIP3   OH242046   4.054   4.379   0.478
14034TIP3    H142047   4.002   4.317   0.530
14034TIP3    H242048   4.004   4.389   0.397
14035TIP3   OH242049   2.447   4.678   1.479
14035TIP3    H142050   2.403   4.649   1.559
14035TIP3    H242051   2.401   4.758   1.453
14036TIP3   OH242052   8.145   4.309   2.124
14036TIP3    H142053   8.060   4.340   2.092
14036TIP3    H242054   8.137   4.214   2.124
14037TIP3   OH242055   5.814   4.735   5.410
14037TIP3    H142056   5.813   4.740   5.314
14037TIP3    H242057   5.906   4.729   5.432
14038TIP3   OH242058   6.379   5.040   3.235
14038TIP3    H142059   6.456   5.005   3.280
14038TIP3    H242060   6.308   5.027   3.297
14039TIP3   OH242061   1.241   4.501   2.154
14039TIP3    H142062   1.192   4.579   2.182
14039TIP3    H242063   1.199   4.429   2.201
14040TIP3   OH242064   5.305   3.739   6.197
14040TIP3    H142065   5.244   3.777   6.135
14040TIP3    H242066   5.387   3.729   6.148
14041TIP3   OH242067   0.857   5.563   0.750
14041TIP3    H142068   0.893   5.476   0.769
14041TIP3    H242069   0.766   5.559   0.778
14042TIP3   OH242070   8.051   0.056   4.690
14042TIP3    H142071   8.112   0.090   4.624
14042TIP3    H242072   8.106   0.001   4.746
14043TIP3   OH242073   5.681   7.759   1.072
14043TIP3    H142074   5.756   7.800   1.116
14043TIP3    H242075   5.709   7.749   0.981
14044TIP3   OH242076   6.067   5.888   1.773
14044TIP3    H142077   6.119   5.965   1.794
14044TIP3    H242078   6.011   5.876   1.850
14045TIP3   OH242079   6.442   0.874   5.184
14045TIP3    H142080   6.408   0.953   5.226
14045TIP3    H242081   6.397   0.802   5.227
14046TIP3   OH242082   7.004   4.511   4.585
14046TIP3    H142083   7.068   4.460   4.536
14046TIP3    H242084   6.925   4.456   4.585
14047TIP3   OH242085   3.293   1.497   3.916
14047TIP3    H142086   3.321   1.573   3.865
14047TIP3    H242087   3.213   1.526   3.960
14048TIP3   OH242088   2.208   4.533   1.336
14048TIP3    H142089   2.302   4.545   1.347
14048TIP3    H242090   2.173   4.530   1.425
14049TIP3   OH242091   7.110   1.411   2.434
14049TIP3    H142092   7.187   1.437   2.484
14049TIP3    H242093   7.111   1.315   2.438
14050TIP3   OH242094   1.824   3.464   2.213
14050TIP3    H142095   1.775   3.397   2.166
14050TIP3    H242096   1.854   3.524   2.144
14051TIP3   OH242097   4.339   1.267   2.730
14051TIP3    H142098   4.426   1.247   2.696
14051TIP3    H242099   4.295   1.182   2.737
14052TIP3   OH242100   5.669   7.209   0.649
14052TIP3    H142101   5.619   7.220   0.730
14052TIP3    H242102   5.673   7.114   0.636
14053TIP3   OH242103   7.673   4.605   6.500
14053TIP3    H142104   7.709   4.670   6.559
14053TIP3    H242105   7.704   4.521   6.534
14054TIP3   OH242106   5.071   6.869   4.905
14054TIP3    H142107   5.125   6.817   4.965
14054TIP3    H242108   5.088   6.960   4.930
14055TIP3   OH242109   7.878   6.636   2.858
14055TIP3    H142110   7.948   6.579   2.827
14055TIP3    H242111   7.806   6.576   2.879
14056TIP3   OH242112   0.223   6.370   1.110
14056TIP3    H142113   0.293   6.434   1.123
14056TIP3    H242114   0.150   6.422   1.074
14057TIP3   OH242115   4.967   0.269   6.330
14057TIP3    H142116   5.009   0.202   6.384
14057TIP3    H242117   4.909   0.315   6.389
14058TIP3   OH242118   3.942   3.883   5.441
14058TIP3    H142119   3.997   3.905   5.366
14058TIP3    H242120   3.897   3.965   5.463
14059TIP3   OH242121   0.731   5.978   0.363
14059TIP3    H142122   0.646   6.019   0.346
14059TIP3    H242123   0.776   5.978   0.278
14060TIP3   OH242124   6.532   5.190   2.665
14060TIP3    H142125   6.590   5.189   2.741
14060TIP3    H242126   6.501   5.100   2.657
14061TIP3   OH242127   1.125   0.591   1.377
14061TIP3    H142128   1.076   0.657   1.329
14061TIP3    H242129   1.211   0.590   1.336
14062TIP3   OH242130   4.846   0.932   1.522
14062TIP3    H142131   4.906   0.872   1.565
14062TIP3    H242132   4.760   0.910   1.558
14063TIP3   OH242133   0.406   1.538   3.625
14063TIP3    H142134   0.433   1.630   3.623
14063TIP3    H242135   0.311   1.541   3.611
14064TIP3   OH242136   6.202   2.622   3.364
14064TIP3    H142137   6.122   2.612   3.311
14064TIP3    H242138   6.236   2.534   3.373
14065TIP3   OH242139   0.222   3.858   5.682
14065TIP3    H142140   0.210   3.764   5.672
14065TIP3    H242141   0.311   3.875   5.651
14066TIP3   OH242142   1.563   7.641   6.739
14066TIP3    H142143   1.530   7.730   6.726
14066TIP3    H242144   1.637   7.633   6.679
14067TIP3   OH242145   2.540   5.269   4.891
14067TIP3    H142146   2.557   5.249   4.799
14067TIP3    H242147   2.496   5.354   4.889
14068TIP3   OH242148   2.156   3.669   5.653
14068TIP3    H142149   2.218   3.600   5.678
14068TIP3    H242150   2.200   3.751   5.676
14069TIP3   OH242151   1.193   0.546   6.414
14069TIP3    H142152   1.278   0.546   6.369
14069TIP3    H242153   1.203   0.610   6.483
14070TIP3   OH242154   3.262   2.094   4.371
14070TIP3    H142155   3.167   2.098   4.379
14070TIP3    H242156   3.287   2.180   4.337
14071TIP3   OH242157   8.155   7.132   5.156
14071TIP3    H142158   8.170   7.037   5.155
14071TIP3    H242159   8.072   7.143   5.201
14072TIP3   OH242160   5.256   1.866   5.015
14072TIP3    H142161   5.214   1.781   5.029
14072TIP3    H242162   5.343   1.846   4.982
14073TIP3   OH242163   0.519   1.686   2.037
14073TIP3    H142164   0.525   1.652   2.126
14073TIP3    H242165   0.540   1.611   1.981
14074TIP3   OH242166   1.867   4.828   2.226
14074TIP3    H142167   1.932   4.772   2.269
14074TIP3    H242168   1.883   4.816   2.133
14075TIP3   OH242169   1.162   6.691   1.213
14075TIP3    H142170   1.070   6.709   1.231
14075TIP3    H242171   1.176   6.723   1.123
14076TIP3   OH242172   3.466   3.597   3.120
14076TIP3    H142173   3.410   3.561   3.051
14076TIP3    H242174   3.521   3.661   3.074
14077TIP3   OH242175   7.165   4.723   5.944
14077TIP3    H142176   7.249   4.768   5.928
14077TIP3    H242177   7.158   4.720   6.039
14078TIP3   OH242178   1.581   6.793   3.314
14078TIP3    H142179   1.551   6.704   3.296
14078TIP3    H242180   1.507   6.849   3.287
14079TIP3   OH242181   4.975   2.469   4.467
14079TIP3    H142182   4.886   2.451   4.435
14079TIP3    H242183   4.980   2.420   4.549
14080TIP3   OH242184   7.635   1.017   4.486
14080TIP3    H142185   7.581   0.967   4.425
14080TIP3    H242186   7.676   0.951   4.542
14081TIP3   OH242187   3.767   6.460   1.860
14081TIP3    H142188   3.750   6.508   1.941
14081TIP3    H242189   3.862   6.444   1.862
14082TIP3   OH242190   8.121   6.225   5.592
14082TIP3    H142191   8.052   6.289   5.612
14082TIP3    H242192   8.074   6.142   5.587
14083TIP3   OH242193   2.814   3.548   4.055
14083TIP3    H142194   2.859   3.626   4.087
14083TIP3    H242195   2.786   3.571   3.967
14084TIP3   OH242196   4.580   3.297   1.218
14084TIP3    H142197   4.649   3.363   1.222
14084TIP3    H242198   4.538   3.311   1.133
14085TIP3   OH242199   3.759   0.097   5.951
14085TIP3    H142200   3.679   0.121   5.904
14085TIP3    H242201   3.766   0.003   5.939
14086TIP3   OH242202   4.578   1.611   5.174
14086TIP3    H142203   4.533   1.681   5.222
14086TIP3    H242204   4.665   1.648   5.154
14087TIP3   OH242205   2.414   4.451   5.139
14087TIP3    H142206   2.424   4.485   5.050
14087TIP3    H242207   2.503   4.441   5.171
14088TIP3   OH242208   2.654   1.930   0.926
14088TIP3    H142209   2.608   1.994   0.982
14088TIP3    H242210   2.744   1.964   0.921
14089TIP3   OH242211   5.056   1.936   1.055
14089TIP3    H142212   5.055   2.002   1.125
14089TIP3    H242213   5.061   1.853   1.102
14090TIP3   OH242214   2.117   4.215   0.165
14090TIP3    H142215   2.182   4.212   0.235
14090TIP3    H242216   2.078   4.127   0.166
14091TIP3   OH242217   0.188   3.755   2.487
14091TIP3    H142218   0.241   3.684   2.451
14091TIP3    H242219   0.211   3.758   2.580
14092TIP3   OH242220   0.930   4.895   3.374
14092TIP3    H142221   0.857   4.873   3.433
14092TIP3    H242222   0.910   4.848   3.293
14093TIP3   OH242223   6.534   4.141   6.156
14093TIP3    H142224   6.521   4.125   6.249
14093TIP3    H242225   6.452   4.112   6.115
14094TIP3   OH242226   4.004   2.447   2.201
14094TIP3    H142227   3.945   2.521   2.212
14094TIP3    H242228   3.955   2.372   2.233
14095TIP3   OH242229   4.899   1.306   6.130
14095TIP3    H142230   4.951   1.329   6.206
14095TIP3    H242231   4.825   1.256   6.165
14096TIP3   OH242232   3.113   1.195   6.132
14096TIP3    H142233   3.180   1.242   6.082
14096TIP3    H242234   3.149   1.189   6.221
14097TIP3   OH242235   1.777   0.836   5.797
14097TIP3    H142236   1.840   0.764   5.794
14097TIP3    H242237   1.798   0.883   5.878
14098TIP3   OH242238   6.955   0.816   3.699
14098TIP3    H142239   6.937   0.750   3.632
14098TIP3    H242240   7.051   0.825   3.698
14099TIP3   OH242241   5.604   7.489   0.520
14099TIP3    H142242   5.688   7.466   0.558
14099TIP3    H242243   5.625   7.513   0.429
14100TIP3   OH242244   3.930   1.035   4.672
14100TIP3    H142245   3.911   0.964   4.611
14100TIP3    H242246   3.994   1.089   4.627
14101TIP3   OH242247   4.913   6.585   5.870
14101TIP3    H142248   4.833   6.561   5.823
14101TIP3    H242249   4.888   6.585   5.962
14102TIP3   OH242250   4.814   0.489   5.895
14102TIP3    H142251   4.870   0.483   5.818
14102TIP3    H242252   4.736   0.535   5.864
14103TIP3   OH242253   2.910   0.993   2.425
14103TIP3    H142254   2.881   0.935   2.496
14103TIP3    H242255   2.830   1.036   2.395
14104TIP3   OH242256   0.529   4.987   3.776
14104TIP3    H142257   0.581   4.922   3.825
14104TIP3    H242258   0.456   4.937   3.740
14105TIP3   OH242259   0.433   4.167   0.195
14105TIP3    H142260   0.525   4.187   0.177
14105TIP3    H242261   0.428   4.162   0.291
14106TIP3   OH242262   4.811   1.229   4.623
14106TIP3    H142263   4.815   1.294   4.694
14106TIP3    H242264   4.726   1.244   4.582
14107TIP3   OH242265   5.421   5.645   2.448
14107TIP3    H142266   5.471   5.591   2.387
14107TIP3    H242267   5.365   5.698   2.392
14108TIP3   OH242268   3.246   7.136   2.994
14108TIP3    H142269   3.167   7.128   2.941
14108TIP3    H242270   3.270   7.229   2.987
14109TIP3   OH242271   6.392   2.651   4.819
14109TIP3    H142272   6.309   2.612   4.792
14109TIP3    H242273   6.373   2.693   4.903
14110TIP3   OH242274   3.865   5.110   1.529
14110TIP3    H142275   3.851   5.023   1.566
14110TIP3    H242276   3.795   5.163   1.566
14111TIP3   OH242277   0.473   4.098   3.942
14111TIP3    H142278   0.421   4.143   4.009
14111TIP3    H242279   0.432   4.012   3.934
14112TIP3   OH242280   4.439   0.134   5.031
14112TIP3    H142281   4.409   0.128   5.122
14112TIP3    H242282   4.534   0.133   5.037
14113TIP3   OH242283   0.351   0.972   0.952
14113TIP3    H142284   0.423   0.938   1.005
14113TIP3    H242285   0.325   1.053   0.995
14114TIP3   OH242286   1.976   0.671   2.505
14114TIP3    H142287   2.062   0.661   2.545
14114TIP3    H242288   1.955   0.585   2.470
14115TIP3   OH242289   7.413   6.115   4.836
14115TIP3    H142290   7.474   6.082   4.770
14115TIP3    H242291   7.467   6.126   4.914
14116TIP3   OH242292   6.737   1.411   3.279
14116TIP3    H142293   6.645   1.405   3.254
14116TIP3    H242294   6.739   1.386   3.371
14117TIP3   OH242295   1.155   3.954   4.535
14117TIP3    H142296   1.147   3.935   4.442
14117TIP3    H242297   1.064   3.968   4.565
14118TIP3   OH242298   1.441   6.586   2.781
14118TIP3    H142299   1.411   6.668   2.821
14118TIP3    H242300   1.474   6.612   2.695
14119TIP3   OH242301   2.185   1.299   0.021
14119TIP3    H142302   2.092   1.320   0.032
14119TIP3    H242303   2.194   1.211   0.056
14120TIP3   OH242304   4.913   7.083   2.361
14120TIP3    H142305   4.841   7.066   2.423
14120TIP3    H242306   4.908   7.011   2.299
14121TIP3   OH242307   1.975   4.808   4.467
14121TIP3    H142308   2.036   4.779   4.534
14121TIP3    H242309   2.022   4.877   4.420
14122TIP3   OH242310   3.328   2.323   0.558
14122TIP3    H142311   3.361   2.299   0.645
14122TIP3    H242312   3.349   2.247   0.503
14123TIP3   OH242313   2.980   1.496   0.627
14123TIP3    H142314   2.928   1.576   0.640
14123TIP3    H242315   3.022   1.481   0.712
14124TIP3   OH242316   6.552   3.536   2.570
14124TIP3    H142317   6.505   3.609   2.532
14124TIP3    H242318   6.515   3.527   2.658
14125TIP3   OH242319   5.508   4.589   6.376
14125TIP3    H142320   5.488   4.515   6.320
14125TIP3    H242321   5.541   4.656   6.316
14126TIP3   OH242322   0.033   1.225   5.133
14126TIP3    H142323  -0.015   1.211   5.214
14126TIP3    H242324  -0.031   1.207   5.064
14127TIP3   OH242325   4.405   2.551   5.350
14127TIP3    H142326   4.338   2.607   5.310
14127TIP3    H242327   4.431   2.598   5.429
14128TIP3   OH242328   7.230   6.109   2.595
14128TIP3    H142329   7.221   6.018   2.567
14128TIP3    H242330   7.140   6.138   2.612
14129TIP3   OH242331   7.447   6.042   0.948
14129TIP3    H142332   7.525   6.096   0.963
14129TIP3    H242333   7.481   5.963   0.905
14130TIP3   OH242334   2.308   7.340   0.096
14130TIP3    H142335   2.372   7.383   0.152
14130TIP3    H242336   2.228   7.391   0.109
14131TIP3   OH242337   1.462   2.669   0.345
14131TIP3    H142338   1.480   2.609   0.273
14131TIP3    H242339   1.430   2.748   0.302
14132TIP3   OH242340   3.066   4.693   5.904
14132TIP3    H142341   3.151   4.710   5.946
14132TIP3    H242342   3.071   4.738   5.820
14133TIP3   OH242343   5.438   5.667   2.714
14133TIP3    H142344   5.449   5.660   2.619
14133TIP3    H242345   5.346   5.691   2.726
14134TIP3   OH242346   2.466   2.068   3.209
14134TIP3    H142347   2.496   2.153   3.179
14134TIP3    H242348   2.374   2.081   3.231
14135TIP3   OH242349   4.798   6.022   3.985
14135TIP3    H142350   4.803   6.106   4.032
14135TIP3    H242351   4.870   5.971   4.021
14136TIP3   OH242352   5.498   1.836   6.088
14136TIP3    H142353   5.544   1.757   6.058
14136TIP3    H242354   5.406   1.816   6.074
14137TIP3   OH242355   4.241   6.030   1.609
14137TIP3    H142356   4.264   5.937   1.598
14137TIP3    H242357   4.309   6.065   1.666
14138TIP3   OH242358   2.279   7.673   6.530
14138TIP3    H142359   2.215   7.702   6.595
14138TIP3    H242360   2.269   7.578   6.526
14139TIP3   OH242361   1.409   1.289   5.144
14139TIP3    H142362   1.361   1.370   5.164
14139TIP3    H242363   1.475   1.283   5.214
14140TIP3   OH242364   3.800   5.379   6.573
14140TIP3    H142365   3.736   5.423   6.517
14140TIP3    H242366   3.769   5.396   6.662
14141TIP3   OH242367   7.662   2.156   1.768
14141TIP3    H142368   7.689   2.112   1.688
14141TIP3    H242369   7.728   2.223   1.783
14142TIP3   OH242370   5.672   4.301   4.698
14142TIP3    H142371   5.621   4.313   4.779
14142TIP3    H242372   5.643   4.371   4.641
14143TIP3   OH242373   6.046   6.640   4.905
14143TIP3    H142374   6.052   6.733   4.928
14143TIP3    H242375   5.960   6.613   4.938
14144TIP3   OH242376   5.897   5.744   2.783
14144TIP3    H142377   5.990   5.768   2.783
14144TIP3    H242378   5.870   5.753   2.874
14145TIP3   OH242379   0.614   5.859   2.842
14145TIP3    H142380   0.586   5.844   2.932
14145TIP3    H242381   0.533   5.854   2.790
14146TIP3   OH242382   5.368   1.005   1.812
14146TIP3    H142383   5.278   1.025   1.787
14146TIP3    H242384   5.396   0.938   1.750
14147TIP3   OH242385   4.562   2.536   1.439
14147TIP3    H142386   4.605   2.595   1.500
14147TIP3    H242387   4.608   2.453   1.448
14148TIP3   OH242388   8.009   0.940   5.838
14148TIP3    H142389   8.056   0.857   5.849
14148TIP3    H242390   8.038   0.994   5.911
14149TIP3   OH242391   3.187   4.054   0.126
14149TIP3    H142392   3.207   4.097   0.210
14149TIP3    H242393   3.105   4.008   0.142
14150TIP3   OH242394   7.856   5.350   3.488
14150TIP3    H142395   7.839   5.437   3.526
14150TIP3    H242396   7.951   5.346   3.480
14151TIP3   OH242397   2.421   3.757   1.996
14151TIP3    H142398   2.372   3.679   2.025
14151TIP3    H242399   2.375   3.830   2.036
14152TIP3   OH242400   1.853   6.140   3.907
14152TIP3    H142401   1.897   6.102   3.831
14152TIP3    H242402   1.818   6.223   3.876
14153TIP3   OH242403   6.151   4.835   5.989
14153TIP3    H142404   6.150   4.743   6.013
14153TIP3    H242405   6.167   4.836   5.894
14154TIP3   OH242406   3.479   3.283   3.100
14154TIP3    H142407   3.507   3.361   3.053
14154TIP3    H242408   3.556   3.227   3.103
14155TIP3   OH242409   0.989   7.828   4.426
14155TIP3    H142410   1.033   7.909   4.452
14155TIP3    H242411   0.920   7.816   4.491
14156TIP3   OH242412   5.515   2.164   3.496
14156TIP3    H142413   5.560   2.238   3.538
14156TIP3    H242414   5.430   2.198   3.471
14157TIP3   OH242415   1.056   5.819   5.309
14157TIP3    H142416   0.983   5.757   5.302
14157TIP3    H242417   1.089   5.806   5.398
14158TIP3   OH242418   1.684   5.996   6.613
14158TIP3    H142419   1.621   5.933   6.578
14158TIP3    H242420   1.766   5.974   6.569
14159TIP3   OH242421   6.977   6.667   4.331
14159TIP3    H142422   6.902   6.719   4.358
14159TIP3    H242423   7.049   6.730   4.323
14160TIP3   OH242424   2.986   6.290   6.568
14160TIP3    H142425   2.975   6.241   6.487
14160TIP3    H242426   3.079   6.310   6.572
14161TIP3   OH242427   2.422   6.498   4.439
14161TIP3    H142428   2.328   6.491   4.425
14161TIP3    H242429   2.446   6.583   4.401
14162TIP3   OH242430   3.028   7.244   3.208
14162TIP3    H142431   2.961   7.305   3.176
14162TIP3    H242432   3.039   7.181   3.137
14163TIP3   OH242433   7.709   7.744   4.823
14163TIP3    H142434   7.780   7.808   4.811
14163TIP3    H242435   7.754   7.660   4.831
14164TIP3   OH242436   1.859   7.505   0.503
14164TIP3    H142437   1.841   7.595   0.477
14164TIP3    H242438   1.952   7.492   0.484
14165TIP3   OH242439   3.591   3.137   3.684
14165TIP3    H142440   3.565   3.080   3.611
14165TIP3    H242441   3.511   3.182   3.710
14166TIP3   OH242442   0.977   6.424   1.079
14166TIP3    H142443   0.933   6.488   1.135
14166TIP3    H242444   1.070   6.443   1.089
14167TIP3   OH242445   2.374   6.832   3.164
14167TIP3    H142446   2.427   6.758   3.135
14167TIP3    H242447   2.290   6.793   3.189
14168TIP3   OH242448   4.678   3.730   2.143
14168TIP3    H142449   4.695   3.824   2.141
14168TIP3    H242450   4.745   3.694   2.201
14169TIP3   OH242451   6.567   6.785   3.422
14169TIP3    H142452   6.633   6.731   3.379
14169TIP3    H242453   6.598   6.875   3.408
14170TIP3   OH242454   5.823   2.687   4.117
14170TIP3    H142455   5.742   2.638   4.133
14170TIP3    H242456   5.798   2.779   4.128
14171TIP3   OH242457   4.658   6.107   4.482
14171TIP3    H142458   4.589   6.041   4.469
14171TIP3    H242459   4.703   6.078   4.562
14172TIP3   OH242460   3.408   3.330   1.311
14172TIP3    H142461   3.361   3.247   1.311
14172TIP3    H242462   3.450   3.334   1.225
14173TIP3   OH242463   1.095   5.837   4.358
14173TIP3    H142464   1.159   5.837   4.429
14173TIP3    H242465   1.146   5.857   4.280
14174TIP3   OH242466   3.634   0.647   1.681
14174TIP3    H142467   3.581   0.704   1.737
14174TIP3    H242468   3.682   0.706   1.624
14175TIP3   OH242469   0.841   1.696   1.258
14175TIP3    H142470   0.834   1.707   1.163
14175TIP3    H242471   0.783   1.762   1.295
14176TIP3   OH242472   7.332   2.384   5.835
14176TIP3    H142473   7.263   2.438   5.797
14176TIP3    H242474   7.395   2.371   5.764
14177TIP3   OH242475   6.935   6.379   5.218
14177TIP3    H142476   6.875   6.350   5.286
14177TIP3    H242477   6.970   6.298   5.181
14178TIP3   OH242478   4.491   2.437   2.431
14178TIP3    H142479   4.452   2.514   2.473
14178TIP3    H242480   4.442   2.427   2.349
14179TIP3   OH242481   4.893   3.508   4.576
14179TIP3    H142482   4.985   3.519   4.553
14179TIP3    H242483   4.854   3.594   4.561
14180TIP3   OH242484   3.738   0.201   4.705
14180TIP3    H142485   3.821   0.195   4.752
14180TIP3    H242486   3.701   0.113   4.710
14181TIP3   OH242487   8.003   3.393   2.488
14181TIP3    H142488   8.027   3.348   2.407
14181TIP3    H242489   7.908   3.407   2.479
14182TIP3   OH242490   5.390   6.554   1.671
14182TIP3    H142491   5.475   6.558   1.715
14182TIP3    H242492   5.408   6.508   1.589
14183TIP3   OH242493   4.153   1.708   0.823
14183TIP3    H142494   4.058   1.722   0.819
14183TIP3    H242495   4.190   1.779   0.770
14184TIP3   OH242496   3.931   0.887   2.202
14184TIP3    H142497   3.960   0.890   2.110
14184TIP3    H242498   3.996   0.833   2.246
14185TIP3   OH242499   1.571   2.458   0.713
14185TIP3    H142500   1.634   2.449   0.641
14185TIP3    H242501   1.488   2.477   0.670
14186TIP3   OH242502   2.917   2.865   2.261
14186TIP3    H142503   2.925   2.773   2.284
14186TIP3    H242504   2.921   2.867   2.166
14187TIP3   OH242505   4.290   4.866   5.956
14187TIP3    H142506   4.365   4.806   5.957
14187TIP3    H242507   4.309   4.927   5.884
14188TIP3   OH242508   2.938   6.481   1.101
14188TIP3    H142509   3.032   6.492   1.116
14188TIP3    H242510   2.917   6.543   1.031
14189TIP3   OH242511   0.398   4.658   3.548
14189TIP3    H142512   0.356   4.634   3.631
14189TIP3    H242513   0.406   4.753   3.552
14190TIP3   OH242514   1.961   7.843   6.644
14190TIP3    H142515   1.982   7.790   6.567
14190TIP3    H242516   1.866   7.848   6.645
14191TIP3   OH242517   8.162   6.936   4.056
14191TIP3    H142518   8.073   6.966   4.039
14191TIP3    H242519   8.155   6.879   4.132
14192TIP3   OH242520   0.255   6.865   1.133
14192TIP3    H142521   0.303   6.882   1.214
14192TIP3    H242522   0.264   6.945   1.082
14193TIP3   OH242523   6.370   0.404   3.069
14193TIP3    H142524   6.395   0.437   2.983
14193TIP3    H242525   6.276   0.389   3.062
14194TIP3   OH242526   2.597   7.113   1.526
14194TIP3    H142527   2.621   7.020   1.519
14194TIP3    H242528   2.532   7.115   1.596
14195TIP3   OH242529   4.682   4.425   5.870
14195TIP3    H142530   4.775   4.424   5.846
14195TIP3    H242531   4.656   4.517   5.860
14196TIP3   OH242532   4.846   7.045   1.109
14196TIP3    H142533   4.824   6.971   1.165
14196TIP3    H242534   4.939   7.035   1.092
14197TIP3   OH242535   2.103   7.716   0.681
14197TIP3    H142536   2.010   7.709   0.661
14197TIP3    H242537   2.144   7.743   0.598
14198TIP3   OH242538   7.449   7.155   5.011
14198TIP3    H142539   7.530   7.122   4.971
14198TIP3    H242540   7.388   7.081   5.006
14199TIP3   OH242541   6.284   0.739   2.578
14199TIP3    H142542   6.267   0.706   2.666
14199TIP3    H242543   6.238   0.823   2.574
14200TIP3   OH242544   2.838   4.721   3.842
14200TIP3    H142545   2.755   4.715   3.795
14200TIP3    H242546   2.885   4.792   3.798
14201TIP3   OH242547   7.123   1.979   0.234
14201TIP3    H142548   7.144   1.910   0.171
14201TIP3    H242549   7.033   1.961   0.260
14202TIP3   OH242550   0.648   0.940   1.367
14202TIP3    H142551   0.617   0.901   1.449
14202TIP3    H242552   0.621   1.031   1.372
14203TIP3   OH242553   4.130   1.727   3.586
14203TIP3    H142554   4.103   1.780   3.661
14203TIP3    H242555   4.048   1.689   3.553
14204TIP3   OH242556   6.532   2.725   6.229
14204TIP3    H142557   6.570   2.805   6.194
14204TIP3    H242558   6.599   2.690   6.289
14205TIP3   OH242559   4.445   6.781   4.686
14205TIP3    H142560   4.455   6.785   4.590
14205TIP3    H242561   4.479   6.694   4.709
14206TIP3   OH242562   0.125   5.070   0.406
14206TIP3    H142563   0.104   4.991   0.356
14206TIP3    H242564   0.212   5.053   0.443
14207TIP3   OH242565   5.733   6.658   6.299
14207TIP3    H142566   5.714   6.752   6.303
14207TIP3    H242567   5.648   6.615   6.307
14208TIP3   OH242568   7.229   3.959   0.831
14208TIP3    H142569   7.290   4.013   0.781
14208TIP3    H242570   7.184   4.021   0.889
14209TIP3   OH242571   0.943   6.498   6.239
14209TIP3    H142572   0.858   6.541   6.241
14209TIP3    H242573   0.955   6.474   6.147
14210TIP3   OH242574   5.860   7.756   1.782
14210TIP3    H142575   5.803   7.689   1.821
14210TIP3    H242576   5.839   7.754   1.689
14211TIP3   OH242577   3.337   3.582   3.590
14211TIP3    H142578   3.338   3.575   3.686
14211TIP3    H242579   3.262   3.529   3.563
14212TIP3   OH242580   1.412   2.678   4.053
14212TIP3    H142581   1.458   2.634   3.982
14212TIP3    H242582   1.478   2.734   4.093
14213TIP3   OH242583   4.923   7.471   4.332
14213TIP3    H142584   4.932   7.462   4.238
14213TIP3    H242585   4.934   7.565   4.349
14214TIP3   OH242586   0.188   5.497   0.724
14214TIP3    H142587   0.199   5.514   0.630
14214TIP3    H242588   0.094   5.509   0.738
14215TIP3   OH242589   5.870   1.680   2.357
14215TIP3    H142590   5.925   1.742   2.406
14215TIP3    H242591   5.856   1.723   2.273
14216TIP3   OH242592   3.378   5.425   6.659
14216TIP3    H142593   3.374   5.470   6.574
14216TIP3    H242594   3.460   5.454   6.698
14217TIP3   OH242595   1.279   6.382   1.076
14217TIP3    H142596   1.263   6.373   1.170
14217TIP3    H242597   1.330   6.462   1.068
14218TIP3   OH242598   0.670   4.315   6.022
14218TIP3    H142599   0.697   4.358   6.104
14218TIP3    H242600   0.602   4.372   5.987
14219TIP3   OH242601   2.401   0.127   1.771
14219TIP3    H142602   2.390   0.193   1.703
14219TIP3    H242603   2.430   0.049   1.724
14220TIP3   OH242604   4.606   0.403   4.536
14220TIP3    H142605   4.595   0.410   4.441
14220TIP3    H242606   4.621   0.310   4.551
14221TIP3   OH242607   1.534   7.769   0.309
14221TIP3    H142608   1.531   7.674   0.302
14221TIP3    H242609   1.462   7.800   0.254
14222TIP3   OH242610   3.806   5.540   4.636
14222TIP3    H142611   3.898   5.553   4.659
14222TIP3    H242612   3.797   5.583   4.551
14223TIP3   OH242613   4.031   7.502   3.536
14223TIP3    H142614   4.034   7.547   3.621
14223TIP3    H242615   3.938   7.482   3.523
14224TIP3   OH242616   7.659   6.090   4.984
14224TIP3    H142617   7.728   6.106   4.920
14224TIP3    H242618   7.704   6.053   5.059
14225TIP3   OH242619   5.385   0.591   1.962
14225TIP3    H142620   5.410   0.534   2.034
14225TIP3    H242621   5.353   0.671   2.003
14226TIP3   OH242622   6.931   0.496   4.815
14226TIP3    H142623   6.981   0.463   4.741
14226TIP3    H242624   6.875   0.564   4.778
14227TIP3   OH242625   0.783   6.689   3.268
14227TIP3    H142626   0.755   6.623   3.331
14227TIP3    H242627   0.771   6.648   3.183
14228TIP3   OH242628   3.253   6.120   5.697
14228TIP3    H142629   3.170   6.122   5.650
14228TIP3    H242630   3.297   6.200   5.672
14229TIP3   OH242631   3.204   1.372   6.696
14229TIP3    H142632   3.158   1.450   6.727
14229TIP3    H242633   3.289   1.375   6.740
14230TIP3   OH242634   6.142   0.185   4.360
14230TIP3    H142635   6.225   0.207   4.318
14230TIP3    H242636   6.166   0.160   4.450
14231TIP3   OH242637   1.605   2.841   4.192
14231TIP3    H142638   1.669   2.770   4.195
14231TIP3    H242639   1.630   2.892   4.115
14232TIP3   OH242640   6.561   3.972   4.330
14232TIP3    H142641   6.628   3.912   4.364
14232TIP3    H242642   6.546   3.942   4.241
14233TIP3   OH242643   5.012   6.408   4.121
14233TIP3    H142644   5.062   6.333   4.087
14233TIP3    H242645   5.055   6.430   4.204
14234TIP3   OH242646   4.772   1.638   6.479
14234TIP3    H142647   4.682   1.609   6.463
14234TIP3    H242648   4.808   1.574   6.540
14235TIP3   OH242649   2.323   3.875   3.360
14235TIP3    H142650   2.268   3.886   3.283
14235TIP3    H242651   2.262   3.864   3.433
14236TIP3   OH242652   8.160   4.870   4.592
14236TIP3    H142653   8.155   4.806   4.664
14236TIP3    H242654   8.226   4.933   4.621
14237TIP3   OH242655   4.718   6.947   6.038
14237TIP3    H142656   4.784   6.885   6.006
14237TIP3    H242657   4.737   7.028   5.990
14238TIP3   OH242658   4.586   0.360   4.275
14238TIP3    H142659   4.677   0.374   4.247
14238TIP3    H242660   4.544   0.318   4.199
14239TIP3   OH242661   3.353   4.258   3.300
14239TIP3    H142662   3.286   4.193   3.321
14239TIP3    H242663   3.318   4.340   3.334
14240TIP3   OH242664   6.393   0.464   5.195
14240TIP3    H142665   6.360   0.540   5.243
14240TIP3    H242666   6.314   0.414   5.173
14241TIP3   OH242667   7.473   5.642   2.150
14241TIP3    H142668   7.569   5.648   2.150
14241TIP3    H242669   7.450   5.626   2.242
14242TIP3   OH242670   7.584   6.278   4.168
14242TIP3    H142671   7.637   6.250   4.242
14242TIP3    H242672   7.498   6.295   4.205
14243TIP3   OH242673   1.212   2.486   1.844
14243TIP3    H142674   1.129   2.532   1.848
14243TIP3    H242675   1.259   2.513   1.923
14244TIP3   OH242676   4.935   1.430   2.081
14244TIP3    H142677   4.972   1.427   1.992
14244TIP3    H242678   4.860   1.490   2.073
14245TIP3   OH242679   6.060   1.028   4.850
14245TIP3    H142680   6.054   1.067   4.937
14245TIP3    H242681   5.975   1.047   4.810
14246TIP3   OH242682   1.150   7.794   2.121
14246TIP3    H142683   1.191   7.879   2.104
14246TIP3    H242684   1.174   7.774   2.211
14247TIP3   OH242685   2.245   2.124   5.676
14247TIP3    H142686   2.224   2.093   5.588
14247TIP3    H242687   2.178   2.085   5.732
14248TIP3   OH242688   6.129   6.510   4.318
14248TIP3    H142689   6.120   6.425   4.362
14248TIP3    H242690   6.151   6.571   4.389
14249TIP3   OH242691   4.861   4.725   2.290
14249TIP3    H142692   4.831   4.695   2.376
14249TIP3    H242693   4.815   4.668   2.228
14250TIP3   OH242694   0.067   3.472   4.713
14250TIP3    H142695  -0.019   3.459   4.753
14250TIP3    H242696   0.125   3.494   4.786
14251TIP3   OH242697   0.947   1.044   0.123
14251TIP3    H142698   0.967   1.135   0.147
14251TIP3    H242699   0.989   0.992   0.191
14252TIP3   OH242700   6.172   5.122   4.288
14252TIP3    H142701   6.197   5.036   4.256
14252TIP3    H242702   6.241   5.146   4.350
14253TIP3   OH242703   5.756   2.057   5.369
14253TIP3    H142704   5.762   1.973   5.417
14253TIP3    H242705   5.832   2.057   5.312
14254TIP3   OH242706   1.768   0.062   4.809
14254TIP3    H142707   1.840   0.119   4.782
14254TIP3    H242708   1.740   0.098   4.894
14255TIP3   OH242709   3.976   0.899   0.950
14255TIP3    H142710   3.899   0.845   0.967
14255TIP3    H242711   3.973   0.918   0.857
14256TIP3   OH242712   3.286   0.065   6.580
14256TIP3    H142713   3.204   0.048   6.535
14256TIP3    H242714   3.279   0.155   6.611
14257TIP3   OH242715   0.707   7.676   1.721
14257TIP3    H142716   0.783   7.709   1.769
14257TIP3    H242717   0.710   7.581   1.734
14258TIP3   OH242718   0.812   4.572   3.131
14258TIP3    H142719   0.871   4.644   3.108
14258TIP3    H242720   0.771   4.601   3.213
14259TIP3   OH242721   6.877   3.731   5.390
14259TIP3    H142722   6.801   3.788   5.380
14259TIP3    H242723   6.876   3.676   5.312
14260TIP3   OH242724   6.269   4.503   3.555
14260TIP3    H142725   6.215   4.427   3.532
14260TIP3    H242726   6.335   4.467   3.615
14261TIP3   OH242727   6.062   1.951   1.199
14261TIP3    H142728   6.017   2.025   1.241
14261TIP3    H242729   6.148   1.949   1.242
14262TIP3   OH242730   4.679   0.311   0.904
14262TIP3    H142731   4.725   0.386   0.941
14262TIP3    H242732   4.609   0.349   0.850
14263TIP3   OH242733   2.726   2.288   1.358
14263TIP3    H142734   2.744   2.216   1.418
14263TIP3    H242735   2.632   2.281   1.340
14264TIP3   OH242736   4.341   7.480   5.942
14264TIP3    H142737   4.355   7.493   5.848
14264TIP3    H242738   4.292   7.398   5.948
14265TIP3   OH242739   3.734   5.985   4.650
14265TIP3    H142740   3.793   6.054   4.679
14265TIP3    H242741   3.678   5.968   4.726
14266TIP3   OH242742   8.289   1.281   1.665
14266TIP3    H142743   8.307   1.275   1.759
14266TIP3    H242744   8.194   1.273   1.658
14267TIP3   OH242745   0.073   6.786   2.756
14267TIP3    H142746   0.033   6.860   2.711
14267TIP3    H242747   0.048   6.798   2.848
14268TIP3   OH242748   5.285   3.576   3.715
14268TIP3    H142749   5.191   3.590   3.707
14268TIP3    H242750   5.318   3.658   3.753
14269TIP3   OH242751   8.130   3.464   1.097
14269TIP3    H142752   8.108   3.374   1.071
14269TIP3    H242753   8.117   3.516   1.018
14270TIP3   OH242754   6.704   3.303   2.481
14270TIP3    H142755   6.648   3.374   2.512
14270TIP3    H242756   6.770   3.293   2.550
14271TIP3   OH242757   2.137   3.456   5.998
14271TIP3    H142758   2.199   3.389   5.967
14271TIP3    H242759   2.189   3.536   6.004
14272TIP3   OH242760   8.024   7.250   0.384
14272TIP3    H142761   8.087   7.209   0.325
14272TIP3    H242762   7.953   7.186   0.393
14273TIP3   OH242763   5.422   3.708   4.617
14273TIP3    H142764   5.374   3.717   4.699
14273TIP3    H242765   5.354   3.711   4.549
14274TIP3   OH242766   3.601   2.716   1.552
14274TIP3    H142767   3.589   2.712   1.458
14274TIP3    H242768   3.602   2.809   1.574
14275TIP3   OH242769   7.034   6.198   0.555
14275TIP3    H142770   7.034   6.121   0.497
14275TIP3    H242771   6.967   6.255   0.518
14276TIP3   OH242772   8.001   0.428   5.650
14276TIP3    H142773   7.943   0.502   5.633
14276TIP3    H242774   8.046   0.412   5.567
14277TIP3   OH242775   4.731   4.357   0.504
14277TIP3    H142776   4.738   4.285   0.441
14277TIP3    H242777   4.750   4.435   0.452
14278TIP3   OH242778   5.395   6.944   2.712
14278TIP3    H142779   5.417   6.862   2.668
14278TIP3    H242780   5.354   6.998   2.644
14279TIP3   OH242781   6.081   3.356   0.685
14279TIP3    H142782   6.022   3.305   0.740
14279TIP3    H242783   6.101   3.299   0.611
14280TIP3   OH242784   3.487   0.640   6.139
14280TIP3    H142785   3.468   0.667   6.049
14280TIP3    H242786   3.514   0.721   6.183
14281TIP3   OH242787   7.854   3.045   0.978
14281TIP3    H142788   7.760   3.039   0.962
14281TIP3    H242789   7.887   2.958   0.956
14282TIP3   OH242790   1.643   1.536   2.663
14282TIP3    H142791   1.720   1.508   2.713
14282TIP3    H242792   1.571   1.535   2.726
14283TIP3   OH242793   6.104   7.112   2.369
14283TIP3    H142794   6.035   7.045   2.366
14283TIP3    H242795   6.145   7.107   2.283
14284TIP3   OH242796   3.789   1.502   0.551
14284TIP3    H142797   3.702   1.466   0.567
14284TIP3    H242798   3.848   1.427   0.560
14285TIP3   OH242799   0.825   7.063   0.252
14285TIP3    H142800   0.918   7.057   0.230
14285TIP3    H242801   0.822   7.061   0.347
14286TIP3   OH242802   7.735   1.255   5.710
14286TIP3    H142803   7.750   1.222   5.799
14286TIP3    H242804   7.645   1.230   5.689
14287TIP3   OH242805   8.075   7.397   4.576
14287TIP3    H142806   8.088   7.382   4.482
14287TIP3    H242807   8.054   7.490   4.583
14288TIP3   OH242808   4.489   1.938   5.056
14288TIP3    H142809   4.408   1.989   5.056
14288TIP3    H242810   4.474   1.867   5.118
14289TIP3   OH242811   2.719   5.732   5.448
14289TIP3    H142812   2.787   5.780   5.401
14289TIP3    H242813   2.641   5.738   5.392
14290TIP3   OH242814   4.317   3.149   4.022
14290TIP3    H142815   4.341   3.168   3.932
14290TIP3    H242816   4.399   3.120   4.063
14291TIP3   OH242817   4.752   1.527   3.585
14291TIP3    H142818   4.747   1.594   3.652
14291TIP3    H242819   4.662   1.514   3.557
14292TIP3   OH242820   6.805   0.291   0.167
14292TIP3    H142821   6.747   0.309   0.093
14292TIP3    H242822   6.857   0.370   0.177
14293TIP3   OH242823   7.612   4.959   4.484
14293TIP3    H142824   7.597   4.969   4.578
14293TIP3    H242825   7.527   4.931   4.450
14294TIP3   OH242826   2.202   5.924   2.631
14294TIP3    H142827   2.223   5.835   2.602
14294TIP3    H242828   2.157   5.912   2.715
14295TIP3   OH242829   1.252   5.382   4.956
14295TIP3    H142830   1.328   5.325   4.947
14295TIP3    H242831   1.285   5.469   4.932
14296TIP3   OH242832   6.487   3.746   0.738
14296TIP3    H142833   6.519   3.745   0.649
14296TIP3    H242834   6.437   3.828   0.745
14297TIP3   OH242835   1.479   4.959   5.046
14297TIP3    H142836   1.522   4.908   4.978
14297TIP3    H242837   1.533   4.946   5.124
14298TIP3   OH242838   6.436   0.725   6.534
14298TIP3    H142839   6.399   0.749   6.449
14298TIP3    H242840   6.503   0.791   6.551
14299TIP3   OH242841   6.065   6.390   3.017
14299TIP3    H142842   6.141   6.332   3.011
14299TIP3    H242843   6.000   6.340   3.066
14300TIP3   OH242844   0.720   2.838   2.795
14300TIP3    H142845   0.710   2.840   2.891
14300TIP3    H242846   0.807   2.801   2.781
14301TIP3   OH242847   1.827   4.285   3.272
14301TIP3    H142848   1.902   4.326   3.227
14301TIP3    H242849   1.842   4.304   3.365
14302TIP3   OH242850   1.412   7.478   3.885
14302TIP3    H142851   1.485   7.417   3.885
14302TIP3    H242852   1.338   7.427   3.852
14303TIP3   OH242853   4.980   1.123   2.643
14303TIP3    H142854   5.040   1.132   2.717
14303TIP3    H242855   5.008   1.042   2.600
14304TIP3   OH242856   3.693   0.360   4.931
14304TIP3    H142857   3.729   0.350   4.842
14304TIP3    H242858   3.636   0.284   4.942
14305TIP3   OH242859   6.225   1.880   6.092
14305TIP3    H142860   6.179   1.957   6.058
14305TIP3    H242861   6.198   1.874   6.183
14306TIP3   OH242862   0.972   4.327   3.803
14306TIP3    H142863   0.993   4.364   3.889
14306TIP3    H242864   1.052   4.338   3.752
14307TIP3   OH242865   4.888   2.621   4.033
14307TIP3    H142866   4.938   2.544   4.006
14307TIP3    H242867   4.803   2.585   4.060
14308TIP3   OH242868   5.897   3.519   5.473
14308TIP3    H142869   5.882   3.460   5.399
14308TIP3    H242870   5.989   3.545   5.464
14309TIP3   OH242871   7.351   5.750   3.666
14309TIP3    H142872   7.420   5.741   3.600
14309TIP3    H242873   7.377   5.689   3.736
14310TIP3   OH242874   2.822   0.382   1.205
14310TIP3    H142875   2.731   0.390   1.234
14310TIP3    H242876   2.818   0.386   1.110
14311TIP3   OH242877   3.623   1.844   0.711
14311TIP3    H142878   3.561   1.805   0.771
14311TIP3    H242879   3.574   1.857   0.630
14312TIP3   OH242880   8.256   5.306   0.428
14312TIP3    H142881   8.310   5.227   0.432
14312TIP3    H242882   8.248   5.325   0.334
14313TIP3   OH242883   5.122   0.071   1.596
14313TIP3    H142884   5.064   0.000   1.626
14313TIP3    H242885   5.064   0.147   1.588
14314TIP3   OH242886   6.409   0.067   6.479
14314TIP3    H142887   6.500   0.048   6.456
14314TIP3    H242888   6.412   0.152   6.523
14315TIP3   OH242889   0.106   7.476   5.039
14315TIP3    H142890   0.129   7.403   4.981
14315TIP3    H242891   0.095   7.435   5.125
14316TIP3   OH242892   5.708   7.769   3.990
14316TIP3    H142893   5.638   7.713   4.024
14316TIP3    H242894   5.690   7.855   4.028
14317TIP3   OH242895   3.212   4.613   2.948
14317TIP3    H142896   3.160   4.685   2.911
14317TIP3    H242897   3.155   4.536   2.939
14318TIP3   OH242898   6.504   6.741   5.706
14318TIP3    H142899   6.459   6.760   5.788
14318TIP3    H242900   6.461   6.796   5.641
14319TIP3   OH242901   5.806   0.734   0.308
14319TIP3    H142902   5.812   0.776   0.222
14319TIP3    H242903   5.854   0.652   0.298
14320TIP3   OH242904   0.479   4.567   1.711
14320TIP3    H142905   0.568   4.579   1.742
14320TIP3    H242906   0.481   4.485   1.662
14321TIP3   OH242907   1.207   2.391   2.265
14321TIP3    H142908   1.255   2.310   2.282
14321TIP3    H242909   1.115   2.366   2.268
14322TIP3   OH242910   7.722   0.482   2.249
14322TIP3    H142911   7.799   0.539   2.254
14322TIP3    H242912   7.757   0.393   2.255
14323TIP3   OH242913   4.831   5.995   4.650
14323TIP3    H142914   4.878   5.937   4.591
14323TIP3    H242915   4.899   6.043   4.697
14324TIP3   OH242916   5.214   3.828   2.715
14324TIP3    H142917   5.187   3.824   2.807
14324TIP3    H242918   5.132   3.830   2.666
14325TIP3   OH242919   2.824   1.621   6.085
14325TIP3    H142920   2.857   1.584   6.003
14325TIP3    H242921   2.876   1.578   6.153
14326TIP3   OH242922   6.155   3.793   4.297
14326TIP3    H142923   6.155   3.716   4.241
14326TIP3    H242924   6.200   3.860   4.246
14327TIP3   OH242925   5.092   5.932   4.923
14327TIP3    H142926   5.116   5.960   5.011
14327TIP3    H242927   5.088   5.836   4.928
14328TIP3   OH242928   4.207   6.734   2.288
14328TIP3    H142929   4.195   6.653   2.339
14328TIP3    H242930   4.302   6.743   2.281
14329TIP3   OH242931   3.089   4.658   1.167
14329TIP3    H142932   3.086   4.728   1.233
14329TIP3    H242933   2.998   4.643   1.144
14330TIP3   OH242934   3.814   1.289   2.637
14330TIP3    H142935   3.796   1.361   2.577
14330TIP3    H242936   3.743   1.227   2.622
14331TIP3   OH242937   7.876   3.811   0.095
14331TIP3    H142938   7.969   3.828   0.077
14331TIP3    H242939   7.837   3.898   0.101
14332TIP3   OH242940   7.591   7.546   3.400
14332TIP3    H142941   7.514   7.500   3.433
14332TIP3    H242942   7.581   7.543   3.304
14333TIP3   OH242943   0.959   1.720   6.469
14333TIP3    H142944   1.036   1.776   6.483
14333TIP3    H242945   0.954   1.666   6.548
14334TIP3   OH242946   0.064   4.780   6.385
14334TIP3    H142947   0.042   4.816   6.299
14334TIP3    H242948   0.009   4.702   6.393
14335TIP3   OH242949   6.732   1.071   0.774
14335TIP3    H142950   6.696   0.994   0.729
14335TIP3    H242951   6.688   1.146   0.733
14336TIP3   OH242952   3.298   0.886   4.212
14336TIP3    H142953   3.248   0.822   4.162
14336TIP3    H242954   3.298   0.964   4.156
14337TIP3   OH242955   4.921   7.223   0.426
14337TIP3    H142956   4.996   7.253   0.478
14337TIP3    H242957   4.923   7.128   0.435
14338TIP3   OH242958   3.650   2.260   4.543
14338TIP3    H142959   3.742   2.241   4.525
14338TIP3    H242960   3.642   2.258   4.638
14339TIP3   OH242961   7.963   2.610   4.559
14339TIP3    H142962   7.904   2.566   4.620
14339TIP3    H242963   8.049   2.571   4.576
14340TIP3   OH242964   8.006   7.127   6.584
14340TIP3    H142965   8.033   7.049   6.633
14340TIP3    H242966   7.991   7.097   6.495
14341TIP3   OH242967   4.268   1.799   4.007
14341TIP3    H142968   4.184   1.843   3.996
14341TIP3    H242969   4.250   1.728   4.069
14342TIP3   OH242970   4.940   0.764   0.474
14342TIP3    H142971   4.928   0.683   0.522
14342TIP3    H242972   4.921   0.833   0.538
14343TIP3   OH242973   4.681   5.183   5.438
14343TIP3    H142974   4.756   5.234   5.408
14343TIP3    H242975   4.712   5.092   5.437
14344TIP3   OH242976   3.436   7.330   5.923
14344TIP3    H142977   3.416   7.285   6.006
14344TIP3    H242978   3.424   7.423   5.942
14345TIP3   OH242979   4.134   5.424   3.252
14345TIP3    H142980   4.143   5.440   3.158
14345TIP3    H242981   4.176   5.499   3.293
14346TIP3   OH242982   5.463   4.770   6.591
14346TIP3    H142983   5.379   4.815   6.584
14346TIP3    H242984   5.468   4.716   6.512
14347TIP3   OH242985   7.582   5.359   1.500
14347TIP3    H142986   7.658   5.301   1.507
14347TIP3    H242987   7.517   5.322   1.560
14348TIP3   OH242988   5.159   2.471   5.204
14348TIP3    H142989   5.213   2.427   5.138
14348TIP3    H242990   5.082   2.502   5.155
14349TIP3   OH242991   2.199   4.813   1.594
14349TIP3    H142992   2.195   4.735   1.650
14349TIP3    H242993   2.138   4.794   1.522
14350TIP3   OH242994   0.356   7.511   4.786
14350TIP3    H142995   0.451   7.502   4.787
14350TIP3    H242996   0.337   7.572   4.858
14351TIP3   OH242997   0.199   1.524   2.534
14351TIP3    H142998   0.267   1.543   2.599
14351TIP3    H242999   0.136   1.596   2.544
14352TIP3   OH243000   5.902   5.331   0.473
14352TIP3    H143001   5.972   5.306   0.533
14352TIP3    H243002   5.827   5.349   0.530
14353TIP3   OH243003   5.391   6.855   6.355
14353TIP3    H143004   5.348   6.812   6.429
14353TIP3    H243005   5.479   6.876   6.388
14354TIP3   OH243006   2.595   2.213   4.398
14354TIP3    H143007   2.650   2.262   4.337
14354TIP3    H243008   2.651   2.198   4.474
14355TIP3   OH243009   3.540   4.748   4.954
14355TIP3    H143010   3.511   4.836   4.979
14355TIP3    H243011   3.465   4.710   4.909
14356TIP3   OH243012   2.323   6.151   2.695
14356TIP3    H143013   2.282   6.068   2.672
14356TIP3    H243014   2.400   6.126   2.747
14357TIP3   OH243015   0.454   3.194   6.124
14357TIP3    H143016   0.377   3.208   6.069
14357TIP3    H243017   0.446   3.104   6.154
14358TIP3   OH243018   1.169   0.052   4.561
14358TIP3    H143019   1.247   0.012   4.598
14358TIP3    H243020   1.179   0.145   4.577
14359TIP3   OH243021   3.383   1.150   1.585
14359TIP3    H143022   3.290   1.144   1.609
14359TIP3    H243023   3.425   1.186   1.663
14360TIP3   OH243024   2.161   4.317   2.140
14360TIP3    H143025   2.098   4.245   2.152
14360TIP3    H243026   2.122   4.391   2.186
14361TIP3   OH243027   6.322   1.007   4.760
14361TIP3    H143028   6.236   0.986   4.797
14361TIP3    H243029   6.337   1.098   4.784
14362TIP3   OH243030   7.086   6.869   6.416
14362TIP3    H143031   7.070   6.944   6.358
14362TIP3    H243032   7.009   6.866   6.473
14363TIP3   OH243033   3.321   6.985   3.211
14363TIP3    H143034   3.310   7.023   3.298
14363TIP3    H243035   3.276   7.047   3.153
14364TIP3   OH243036   8.000   0.609   2.441
14364TIP3    H143037   8.046   0.671   2.496
14364TIP3    H243038   7.981   0.535   2.499
14365TIP3   OH243039   1.646   4.651   5.277
14365TIP3    H143040   1.687   4.718   5.223
14365TIP3    H243041   1.677   4.568   5.240
14366TIP3   OH243042   4.510   7.650   6.105
14366TIP3    H143043   4.457   7.620   6.031
14366TIP3    H243044   4.559   7.724   6.071
14367TIP3   OH243045   4.635   7.232   2.856
14367TIP3    H143046   4.589   7.266   2.779
14367TIP3    H243047   4.709   7.184   2.819
14368TIP3   OH243048   8.107   2.989   5.200
14368TIP3    H143049   8.082   3.032   5.282
14368TIP3    H243050   8.088   3.054   5.132
14369TIP3   OH243051   2.581   5.233   2.068
14369TIP3    H143052   2.673   5.254   2.080
14369TIP3    H243053   2.549   5.213   2.156
14370TIP3   OH243054   4.374   6.978   2.165
14370TIP3    H143055   4.454   7.004   2.211
14370TIP3    H243056   4.319   6.940   2.234
14371TIP3   OH243057   7.261   7.706   0.869
14371TIP3    H143058   7.296   7.656   0.942
14371TIP3    H243059   7.289   7.796   0.885
14372TIP3   OH243060   3.500   0.256   5.873
14372TIP3    H143061   3.408   0.234   5.861
14372TIP3    H243062   3.509   0.274   5.966
14373TIP3   OH243063   2.386   6.636   0.742
14373TIP3    H143064   2.468   6.650   0.788
14373TIP3    H243065   2.413   6.617   0.652
14374TIP3   OH243066   4.017   5.490   0.324
14374TIP3    H143067   4.025   5.419   0.261
14374TIP3    H243068   3.939   5.538   0.296
14375TIP3   OH243069   5.856   1.770   3.339
14375TIP3    H143070   5.942   1.773   3.295
14375TIP3    H243071   5.837   1.861   3.359
14376TIP3   OH243072   0.571   1.111   6.015
14376TIP3    H143073   0.573   1.097   5.920
14376TIP3    H243074   0.546   1.025   6.051
14377TIP3   OH243075   4.906   2.454   3.276
14377TIP3    H143076   4.894   2.395   3.202
14377TIP3    H243077   5.000   2.474   3.276
14378TIP3   OH243078   1.647   1.026   6.498
14378TIP3    H143079   1.682   1.058   6.581
14378TIP3    H243080   1.597   1.100   6.463
14379TIP3   OH243081   2.535   0.142   3.445
14379TIP3    H143082   2.584   0.224   3.442
14379TIP3    H243083   2.461   0.155   3.386
14380TIP3   OH243084   2.330   6.215   0.937
14380TIP3    H143085   2.239   6.247   0.934
14380TIP3    H243086   2.382   6.292   0.959
14381TIP3   OH243087   0.929   3.250   4.137
14381TIP3    H143088   0.835   3.270   4.135
14381TIP3    H243089   0.971   3.334   4.155
14382TIP3   OH243090   3.097   5.304   3.700
14382TIP3    H143091   3.162   5.236   3.680
14382TIP3    H243092   3.043   5.308   3.621
14383TIP3   OH243093   2.798   7.289   0.316
14383TIP3    H143094   2.851   7.317   0.242
14383TIP3    H243095   2.803   7.362   0.378
14384TIP3   OH243096   1.739   5.063   2.292
14384TIP3    H143097   1.809   4.999   2.282
14384TIP3    H243098   1.706   5.078   2.203
14385TIP3   OH243099   0.047   7.369   5.304
14385TIP3    H143100   0.023   7.448   5.352
14385TIP3    H243101   0.049   7.300   5.371
14386TIP3   OH243102   6.239   1.702   6.450
14386TIP3    H143103   6.259   1.749   6.531
14386TIP3    H243104   6.309   1.728   6.389
14387TIP3   OH243105   4.142   3.661   4.598
14387TIP3    H143106   4.190   3.738   4.566
14387TIP3    H243107   4.081   3.640   4.527
14388TIP3   OH243108   4.568   4.779   2.193
14388TIP3    H143109   4.482   4.747   2.164
14388TIP3    H243110   4.630   4.713   2.162
14389TIP3   OH243111   5.084   3.949   0.497
14389TIP3    H143112   5.175   3.971   0.476
14389TIP3    H243113   5.034   4.022   0.462
14390TIP3   OH243114   1.917   5.907   0.462
14390TIP3    H143115   1.825   5.909   0.488
14390TIP3    H243116   1.919   5.853   0.383
14391TIP3   OH243117   7.815   0.530   6.225
14391TIP3    H143118   7.898   0.529   6.176
14391TIP3    H243119   7.833   0.584   6.302
14392TIP3   OH243120   5.582   5.954   1.841
14392TIP3    H143121   5.487   5.963   1.849
14392TIP3    H243122   5.610   6.037   1.801
14393TIP3   OH243123   7.370   2.213   2.139
14393TIP3    H143124   7.275   2.220   2.150
14393TIP3    H243125   7.396   2.298   2.103
14394TIP3   OH243126   7.815   7.734   4.001
14394TIP3    H143127   7.893   7.771   3.961
14394TIP3    H243128   7.833   7.640   4.006
14395TIP3   OH243129   2.724   5.355   3.673
14395TIP3    H143130   2.636   5.373   3.706
14395TIP3    H243131   2.751   5.276   3.720
14396TIP3   OH243132   0.094   6.348   4.625
14396TIP3    H143133   0.102   6.394   4.708
14396TIP3    H243134   0.137   6.264   4.641
14397TIP3   OH243135   5.543   3.045   5.588
14397TIP3    H143136   5.619   3.103   5.590
14397TIP3    H243137   5.493   3.068   5.667
14398TIP3   OH243138   6.178   1.676   3.749
14398TIP3    H143139   6.180   1.654   3.656
14398TIP3    H243140   6.263   1.716   3.766
14399TIP3   OH243141   1.208   0.188   3.395
14399TIP3    H143142   1.270   0.261   3.390
14399TIP3    H243143   1.181   0.186   3.487
14400TIP3   OH243144   2.616   1.181   6.139
14400TIP3    H143145   2.546   1.130   6.178
14400TIP3    H243146   2.578   1.216   6.058
14401TIP3   OH243147   5.521   0.703   2.665
14401TIP3    H143148   5.448   0.686   2.725
14401TIP3    H243149   5.588   0.743   2.719
14402TIP3   OH243150   2.051   5.315   0.389
14402TIP3    H143151   2.059   5.257   0.313
14402TIP3    H243152   1.994   5.267   0.449
14403TIP3   OH243153   4.243   0.234   6.171
14403TIP3    H143154   4.319   0.226   6.115
14403TIP3    H243155   4.179   0.172   6.135
14404TIP3   OH243156   7.076   3.515   6.694
14404TIP3    H143157   7.132   3.582   6.732
14404TIP3    H243158   7.108   3.506   6.604
14405TIP3   OH243159   2.264   0.868   3.607
14405TIP3    H143160   2.223   0.948   3.640
14405TIP3    H243161   2.239   0.864   3.515
14406TIP3   OH243162   5.294   6.768   4.491
14406TIP3    H143163   5.371   6.820   4.470
14406TIP3    H243164   5.242   6.825   4.547
14407TIP3   OH243165   2.278   7.600   1.656
14407TIP3    H143166   2.270   7.534   1.726
14407TIP3    H243167   2.331   7.557   1.589
14408TIP3   OH243168   2.257   4.701   2.868
14408TIP3    H143169   2.294   4.686   2.955
14408TIP3    H243170   2.163   4.683   2.878
14409TIP3   OH243171   7.672   2.187   4.339
14409TIP3    H143172   7.601   2.234   4.384
14409TIP3    H243173   7.748   2.197   4.397
14410TIP3   OH243174   8.245   0.885   0.855
14410TIP3    H143175   8.266   0.975   0.882
14410TIP3    H243176   8.174   0.858   0.912
14411TIP3   OH243177   5.318   4.987   5.611
14411TIP3    H143178   5.296   4.896   5.634
14411TIP3    H243179   5.405   5.001   5.648
14412TIP3   OH243180   7.217   6.693   2.766
14412TIP3    H143181   7.273   6.730   2.835
14412TIP3    H243182   7.273   6.630   2.722
14413TIP3   OH243183   7.146   6.474   5.379
14413TIP3    H143184   7.179   6.388   5.408
14413TIP3    H243185   7.085   6.453   5.309
14414TIP3   OH243186   7.833   5.585   2.859
14414TIP3    H143187   7.789   5.572   2.775
14414TIP3    H243188   7.761   5.594   2.923
14415TIP3   OH243189   7.819   0.672   3.235
14415TIP3    H143190   7.724   0.683   3.236
14415TIP3    H243191   7.837   0.603   3.298
14416TIP3   OH243192   4.135   5.565   2.568
14416TIP3    H143193   4.112   5.507   2.641
14416TIP3    H243194   4.231   5.565   2.567
14417TIP3   OH243195   2.647   0.922   6.609
14417TIP3    H143196   2.707   0.996   6.601
14417TIP3    H243197   2.594   0.943   6.686
14418TIP3   OH243198   1.413   7.615   4.124
14418TIP3    H143199   1.424   7.560   4.046
14418TIP3    H243200   1.318   7.626   4.132
14419TIP3   OH243201   6.618   2.897   1.766
14419TIP3    H143202   6.692   2.837   1.777
14419TIP3    H243203   6.658   2.981   1.744
14420TIP3   OH243204   5.809   7.241   5.967
14420TIP3    H143205   5.823   7.257   6.060
14420TIP3    H243206   5.715   7.252   5.955
14421TIP3   OH243207   5.802   1.325   3.395
14421TIP3    H143208   5.867   1.316   3.325
14421TIP3    H243209   5.719   1.333   3.349
14422TIP3   OH243210   8.100   3.315   5.272
14422TIP3    H143211   8.066   3.233   5.307
14422TIP3    H243212   8.085   3.379   5.342
14423TIP3   OH243213   4.712   2.126   5.110
14423TIP3    H143214   4.651   2.055   5.088
14423TIP3    H243215   4.770   2.088   5.176
14424TIP3   OH243216   5.567   4.469   3.155
14424TIP3    H143217   5.630   4.533   3.186
14424TIP3    H243218   5.518   4.443   3.233
14425TIP3   OH243219   6.627   3.597   3.208
14425TIP3    H143220   6.533   3.587   3.198
14425TIP3    H243221   6.637   3.676   3.262
14426TIP3   OH243222   7.241   7.697   6.589
14426TIP3    H143223   7.157   7.734   6.617
14426TIP3    H243224   7.232   7.603   6.603
14427TIP3   OH243225   3.085   0.453   2.080
14427TIP3    H143226   3.134   0.434   2.160
14427TIP3    H243227   3.039   0.372   2.060
14428TIP3   OH243228   0.989   1.468   1.834
14428TIP3    H143229   1.067   1.412   1.830
14428TIP3    H243230   0.962   1.477   1.742
14429TIP3   OH243231   3.545   7.270   4.891
14429TIP3    H143232   3.624   7.282   4.837
14429TIP3    H243233   3.576   7.275   4.981
14430TIP3   OH243234   5.415   2.697   0.987
14430TIP3    H143235   5.380   2.754   0.918
14430TIP3    H243236   5.418   2.753   1.065
14431TIP3   OH243237   1.990   7.803   2.585
14431TIP3    H143238   2.036   7.854   2.651
14431TIP3    H243239   2.032   7.717   2.588
14432TIP3   OH243240   0.593   0.126   3.642
14432TIP3    H143241   0.552   0.051   3.599
14432TIP3    H243242   0.535   0.199   3.623
14433TIP3   OH243243   4.160   3.579   5.309
14433TIP3    H143244   4.093   3.629   5.262
14433TIP3    H243245   4.191   3.638   5.377
14434TIP3   OH243246   3.789   2.098   1.810
14434TIP3    H143247   3.869   2.124   1.856
14434TIP3    H243248   3.797   2.003   1.801
14435TIP3   OH243249   8.210   0.662   0.100
14435TIP3    H143250   8.249   0.657   0.013
14435TIP3    H243251   8.258   0.731   0.144
14436TIP3   OH243252   5.318   3.252   6.463
14436TIP3    H143253   5.392   3.275   6.408
14436TIP3    H243254   5.265   3.193   6.409
14437TIP3   OH243255   5.499   1.852   0.055
14437TIP3    H143256   5.591   1.829   0.040
14437TIP3    H243257   5.496   1.877   0.147
14438TIP3   OH243258   5.342   0.523   6.517
14438TIP3    H143259   5.298   0.565   6.591
14438TIP3    H243260   5.398   0.456   6.558
14439TIP3   OH243261   4.658   5.025   2.441
14439TIP3    H143262   4.699   4.941   2.463
14439TIP3    H243263   4.575   5.001   2.400
14440TIP3   OH243264   8.240   0.860   3.244
14440TIP3    H143265   8.205   0.779   3.206
14440TIP3    H243266   8.328   0.837   3.273
14441TIP3   OH243267   0.934   6.854   4.762
14441TIP3    H143268   0.991   6.782   4.736
14441TIP3    H243269   0.937   6.854   4.858
14442TIP3   OH243270   3.661   6.798   4.328
14442TIP3    H143271   3.699   6.847   4.254
14442TIP3    H243272   3.736   6.756   4.370
14443TIP3   OH243273   6.913   1.768   1.215
14443TIP3    H143274   6.884   1.853   1.182
14443TIP3    H243275   6.935   1.785   1.307
14444TIP3   OH243276   7.975   5.668   5.605
14444TIP3    H143277   8.008   5.614   5.677
14444TIP3    H243278   8.054   5.696   5.558
14445TIP3   OH243279   0.370   2.512   5.225
14445TIP3    H143280   0.332   2.538   5.309
14445TIP3    H243281   0.350   2.419   5.217
14446TIP3   OH243282   7.344   6.410   3.404
14446TIP3    H143283   7.371   6.431   3.315
14446TIP3    H243284   7.377   6.321   3.419
14447TIP3   OH243285   6.114   0.918   5.237
14447TIP3    H143286   6.134   0.874   5.319
14447TIP3    H243287   6.077   1.002   5.262
14448TIP3   OH243288   2.317   1.474   2.956
14448TIP3    H143289   2.319   1.455   3.050
14448TIP3    H243290   2.236   1.432   2.925
14449TIP3   OH243291   4.729   6.659   6.413
14449TIP3    H143292   4.784   6.714   6.469
14449TIP3    H243293   4.791   6.614   6.356
14450TIP3   OH243294   3.497   3.937   0.930
14450TIP3    H143295   3.467   4.028   0.925
14450TIP3    H243296   3.562   3.937   1.000
14451TIP3   OH243297   5.816   7.002   6.174
14451TIP3    H143298   5.871   7.072   6.210
14451TIP3    H243299   5.760   6.975   6.247
14452TIP3   OH243300   4.396   2.010   3.797
14452TIP3    H143301   4.300   2.007   3.799
14452TIP3    H243302   4.417   2.062   3.719
14453TIP3   OH243303   3.164   5.336   4.935
14453TIP3    H143304   3.175   5.316   5.028
14453TIP3    H243305   3.176   5.431   4.929
14454TIP3   OH243306   5.352   0.056   6.649
14454TIP3    H143307   5.340   0.086   6.740
14454TIP3    H243308   5.439   0.016   6.649
14455TIP3   OH243309   3.990   1.930   5.324
14455TIP3    H143310   3.939   1.960   5.248
14455TIP3    H243311   3.934   1.865   5.366
14456TIP3   OH243312   3.727   0.790   4.947
14456TIP3    H143313   3.651   0.815   4.893
14456TIP3    H243314   3.695   0.717   5.000
14457TIP3   OH243315   3.209   0.070   0.288
14457TIP3    H143316   3.117   0.082   0.268
14457TIP3    H243317   3.230  -0.018   0.259
14458TIP3   OH243318   3.510   7.192   0.084
14458TIP3    H143319   3.513   7.287   0.071
14458TIP3    H243320   3.463   7.159   0.007
14459TIP3   OH243321   1.319   6.695   6.198
14459TIP3    H143322   1.399   6.678   6.248
14459TIP3    H243323   1.294   6.784   6.223
14460TIP3   OH243324   1.025   2.143   3.168
14460TIP3    H143325   1.051   2.160   3.258
14460TIP3    H243326   1.091   2.082   3.135
14461TIP3   OH243327   6.042   1.047   3.600
14461TIP3    H143328   6.117   1.069   3.656
14461TIP3    H243329   5.976   1.112   3.622
14462TIP3   OH243330   2.528   2.535   5.174
14462TIP3    H143331   2.516   2.551   5.268
14462TIP3    H243332   2.623   2.528   5.163
14463TIP3   OH243333   4.018   2.042   0.129
14463TIP3    H143334   4.107   2.019   0.156
14463TIP3    H243335   4.027   2.124   0.081
14464TIP3   OH243336   3.443   5.758   4.122
14464TIP3    H143337   3.432   5.711   4.204
14464TIP3    H243338   3.454   5.850   4.147
14465TIP3   OH243339   5.581   0.196   3.067
14465TIP3    H143340   5.584   0.292   3.067
14465TIP3    H243341   5.515   0.174   3.133
14466TIP3   OH243342   4.644   7.402   4.046
14466TIP3    H143343   4.639   7.373   4.137
14466TIP3    H243344   4.585   7.478   4.043
14467TIP3   OH243345   1.079   3.767   3.411
14467TIP3    H143346   1.097   3.807   3.326
14467TIP3    H243347   1.007   3.818   3.448
14468TIP3   OH243348   6.931   5.644   5.677
14468TIP3    H143349   7.017   5.683   5.662
14468TIP3    H243350   6.895   5.633   5.589
14469TIP3   OH243351   4.798   2.720   5.624
14469TIP3    H143352   4.820   2.630   5.650
14469TIP3    H243353   4.717   2.710   5.573
14470TIP3   OH243354   0.500   5.688   1.110
14470TIP3    H143355   0.488   5.767   1.162
14470TIP3    H243356   0.552   5.717   1.034
14471TIP3   OH243357   7.809   1.820   1.901
14471TIP3    H143358   7.853   1.860   1.826
14471TIP3    H243359   7.732   1.777   1.865
14472TIP3   OH243360   2.732   4.304   1.075
14472TIP3    H143361   2.824   4.287   1.097
14472TIP3    H243362   2.686   4.223   1.095
14473TIP3   OH243363   1.347   2.359   6.066
14473TIP3    H143364   1.431   2.381   6.105
14473TIP3    H243365   1.283   2.381   6.133
14474TIP3   OH243366   5.995   0.096   5.693
14474TIP3    H143367   5.948   0.108   5.611
14474TIP3    H243368   6.067   0.037   5.671
14475TIP3   OH243369   7.349   0.328   3.710
14475TIP3    H143370   7.297   0.249   3.700
14475TIP3    H243371   7.298   0.384   3.769
14476TIP3   OH243372   0.145   5.102   5.424
14476TIP3    H143373   0.101   5.049   5.490
14476TIP3    H243374   0.179   5.039   5.361
14477TIP3   OH243375   8.159   5.354   6.506
14477TIP3    H143376   8.239   5.377   6.554
14477TIP3    H243377   8.189   5.300   6.434
14478TIP3   OH243378   7.997   4.756   6.347
14478TIP3    H143379   7.999   4.790   6.436
14478TIP3    H243380   7.904   4.737   6.331
14479TIP3   OH243381   7.494   3.381   2.366
14479TIP3    H143382   7.518   3.468   2.398
14479TIP3    H243383   7.489   3.391   2.271
14480TIP3   OH243384   6.580   6.726   3.033
14480TIP3    H143385   6.493   6.689   3.020
14480TIP3    H243386   6.607   6.754   2.945
14481TIP3   OH243387   2.645   3.525   6.784
14481TIP3    H143388   2.674   3.439   6.812
14481TIP3    H243389   2.717   3.560   6.731
14482TIP3   OH243390   0.407   2.879   5.015
14482TIP3    H143391   0.490   2.843   5.048
14482TIP3    H243392   0.379   2.816   4.948
14483TIP3   OH243393   6.710   6.593   3.626
14483TIP3    H143394   6.654   6.551   3.560
14483TIP3    H243395   6.693   6.545   3.706
14484TIP3   OH243396   6.742   1.740   3.366
14484TIP3    H143397   6.677   1.670   3.357
14484TIP3    H243398   6.826   1.695   3.368
14485TIP3   OH243399   2.545   2.742   1.581
14485TIP3    H143400   2.627   2.757   1.629
14485TIP3    H243401   2.488   2.815   1.606
14486TIP3   OH243402   5.972   1.447   1.822
14486TIP3    H143403   6.037   1.396   1.774
14486TIP3    H243404   5.920   1.489   1.753
14487TIP3   OH243405   7.094   5.199   5.095
14487TIP3    H143406   7.142   5.166   5.171
14487TIP3    H243407   7.135   5.156   5.020
14488TIP3   OH243408   7.477   3.313   2.718
14488TIP3    H143409   7.399   3.298   2.665
14488TIP3    H243410   7.469   3.404   2.747
14489TIP3   OH243411   4.863   5.494   3.738
14489TIP3    H143412   4.937   5.440   3.763
14489TIP3    H243413   4.902   5.573   3.699
14490TIP3   OH243414   1.969   1.246   6.213
14490TIP3    H143415   2.052   1.228   6.170
14490TIP3    H243416   1.988   1.315   6.276
14491TIP3   OH243417   3.518   5.563   0.336
14491TIP3    H143418   3.496   5.480   0.293
14491TIP3    H243419   3.505   5.629   0.268
14492TIP3   OH243420   7.849   1.956   4.551
14492TIP3    H143421   7.838   1.969   4.457
14492TIP3    H243422   7.862   2.045   4.586
14493TIP3   OH243423   7.666   6.883   5.084
14493TIP3    H143424   7.585   6.905   5.131
14493TIP3    H243425   7.669   6.787   5.085
14494TIP3   OH243426   6.689   3.004   0.812
14494TIP3    H143427   6.764   3.019   0.755
14494TIP3    H243428   6.706   3.057   0.889
14495TIP3   OH243429   5.484   7.058   4.480
14495TIP3    H143430   5.499   7.071   4.574
14495TIP3    H243431   5.415   7.121   4.458
14496TIP3   OH243432   5.616   3.279   2.415
14496TIP3    H143433   5.614   3.231   2.332
14496TIP3    H243434   5.623   3.211   2.482
14497TIP3   OH243435   0.060   6.399   2.661
14497TIP3    H143436   0.004   6.455   2.607
14497TIP3    H243437   0.045   6.311   2.629
14498TIP3   OH243438   6.094   4.169   5.087
14498TIP3    H143439   6.111   4.117   5.164
14498TIP3    H243440   6.062   4.107   5.022
14499TIP3   OH243441   6.314   1.945   3.204
14499TIP3    H143442   6.383   1.901   3.155
14499TIP3    H243443   6.360   1.994   3.272
14500TIP3   OH243444   7.189   1.625   6.429
14500TIP3    H143445   7.253   1.558   6.453
14500TIP3    H243446   7.238   1.688   6.376
14501TIP3   OH243447   5.645   6.316   6.078
14501TIP3    H143448   5.636   6.365   6.160
14501TIP3    H243449   5.616   6.227   6.100
14502TIP3   OH243450   6.959   1.591   2.641
14502TIP3    H143451   7.019   1.648   2.690
14502TIP3    H243452   7.008   1.565   2.563
14503TIP3   OH243453   8.049   5.845   4.726
14503TIP3    H143454   7.964   5.851   4.767
14503TIP3    H243455   8.077   5.936   4.715
14504TIP3   OH243456   0.879   5.331   0.334
14504TIP3    H143457   0.895   5.425   0.343
14504TIP3    H243458   0.809   5.324   0.270
14505TIP3   OH243459   7.558   5.329   3.761
14505TIP3    H143460   7.496   5.353   3.692
14505TIP3    H243461   7.608   5.256   3.724
14506TIP3   OH243462   0.068   6.020   2.379
14506TIP3    H143463   0.019   5.997   2.457
14506TIP3    H243464   0.107   6.105   2.399
14507TIP3   OH243465   2.019   3.213   5.043
14507TIP3    H143466   2.071   3.199   4.964
14507TIP3    H243467   1.929   3.190   5.017
14508TIP3   OH243468   1.081   0.681   2.146
14508TIP3    H143469   1.065   0.666   2.053
14508TIP3    H243470   1.156   0.625   2.166
14509TIP3   OH243471   0.486   0.581   5.440
14509TIP3    H143472   0.540   0.537   5.506
14509TIP3    H243473   0.470   0.668   5.475
14510TIP3   OH243474   2.379   7.769   1.949
14510TIP3    H143475   2.422   7.708   1.889
14510TIP3    H243476   2.430   7.850   1.942
14511TIP3   OH243477   2.046   3.698   4.913
14511TIP3    H143478   2.070   3.671   4.825
14511TIP3    H243479   1.968   3.647   4.935
14512TIP3   OH243480   4.417   7.303   5.548
14512TIP3    H143481   4.460   7.324   5.465
14512TIP3    H243482   4.410   7.386   5.594
14513TIP3   OH243483   3.109   2.042   5.293
14513TIP3    H143484   3.064   1.984   5.231
14513TIP3    H243485   3.091   2.005   5.379
14514TIP3   OH243486   4.949   2.260   5.646
14514TIP3    H143487   5.031   2.216   5.665
14514TIP3    H243488   4.881   2.197   5.668
14515TIP3   OH243489   6.410   7.161   3.094
14515TIP3    H143490   6.392   7.237   3.039
14515TIP3    H243491   6.387   7.086   3.039
14516TIP3   OH243492   2.419   1.995   4.443
14516TIP3    H143493   2.498   1.959   4.485
14516TIP3    H243494   2.443   2.085   4.421
14517TIP3   OH243495   0.028   3.265   1.899
14517TIP3    H143496   0.002   3.199   1.836
14517TIP3    H243497  -0.031   3.252   1.973
14518TIP3   OH243498   1.801   7.806   5.682
14518TIP3    H143499   1.719   7.759   5.696
14518TIP3    H243500   1.866   7.737   5.667
14519TIP3   OH243501   1.842   1.443   4.590
14519TIP3    H143502   1.868   1.399   4.671
14519TIP3    H243503   1.924   1.471   4.551
14520TIP3   OH243504   1.538   5.065   2.782
14520TIP3    H143505   1.447   5.083   2.805
14520TIP3    H243506   1.590   5.110   2.848
14521TIP3   OH243507   7.653   4.974   1.048
14521TIP3    H143508   7.615   4.972   0.960
14521TIP3    H243509   7.671   5.067   1.064
14522TIP3   OH243510   3.648   2.986   3.894
14522TIP3    H143511   3.571   2.999   3.949
14522TIP3    H243512   3.638   3.050   3.824
14523TIP3   OH243513   0.330   5.701   3.405
14523TIP3    H143514   0.352   5.608   3.407
14523TIP3    H243515   0.308   5.719   3.314
14524TIP3   OH243516   5.735   5.907   6.215
14524TIP3    H143517   5.662   5.924   6.155
14524TIP3    H243518   5.782   5.990   6.220
14525TIP3   OH243519   8.087   0.865   5.477
14525TIP3    H143520   8.037   0.801   5.527
14525TIP3    H243521   8.120   0.815   5.401
14526TIP3   OH243522   7.587   7.055   5.457
14526TIP3    H143523   7.639   7.016   5.386
14526TIP3    H243524   7.524   6.987   5.481
14527TIP3   OH243525   6.638   1.602   5.306
14527TIP3    H143526   6.662   1.538   5.239
14527TIP3    H243527   6.635   1.686   5.259
14528TIP3   OH243528   7.285   0.077   4.579
14528TIP3    H143529   7.229   0.126   4.518
14528TIP3    H243530   7.350   0.035   4.523
14529TIP3   OH243531   3.859   2.537   5.171
14529TIP3    H143532   3.899   2.451   5.186
14529TIP3    H243533   3.832   2.536   5.080
14530TIP3   OH243534   7.453   3.093   3.799
14530TIP3    H143535   7.434   3.146   3.876
14530TIP3    H243536   7.375   3.101   3.745
14531TIP3   OH243537   2.473   4.216   5.361
14531TIP3    H143538   2.470   4.301   5.405
14531TIP3    H243539   2.399   4.218   5.301
14532TIP3   OH243540   1.587   4.865   4.808
14532TIP3    H143541   1.506   4.828   4.772
14532TIP3    H243542   1.657   4.816   4.765
14533TIP3   OH243543   5.236   0.655   4.464
14533TIP3    H143544   5.245   0.663   4.559
14533TIP3    H243545   5.152   0.609   4.452
14534TIP3   OH243546   8.047   6.632   0.346
14534TIP3    H143547   7.978   6.630   0.412
14534TIP3    H243548   8.002   6.659   0.266
14535TIP3   OH243549   6.739   6.637   3.279
14535TIP3    H143550   6.754   6.543   3.285
14535TIP3    H243551   6.687   6.648   3.199
14536TIP3   OH243552   0.371   0.480   2.067
14536TIP3    H143553   0.437   0.472   1.999
14536TIP3    H243554   0.348   0.573   2.067
14537TIP3   OH243555   3.391   7.429   5.310
14537TIP3    H143556   3.473   7.393   5.345
14537TIP3    H243557   3.323   7.369   5.343
14538TIP3   OH243558   1.499   4.173   3.824
14538TIP3    H143559   1.588   4.164   3.791
14538TIP3    H243560   1.478   4.088   3.863
14539TIP3   OH243561   5.941   3.450   4.956
14539TIP3    H143562   5.869   3.424   4.899
14539TIP3    H243563   5.980   3.527   4.914
14540TIP3   OH243564   3.074   7.381   4.215
14540TIP3    H143565   3.024   7.318   4.162
14540TIP3    H243566   3.090   7.335   4.297
14541TIP3   OH243567   1.080   1.015   6.089
14541TIP3    H143568   1.006   1.057   6.131
14541TIP3    H243569   1.131   0.978   6.161
14542TIP3   OH243570   3.143   3.180   1.366
14542TIP3    H143571   3.051   3.184   1.339
14542TIP3    H243572   3.152   3.251   1.430
14543TIP3   OH243573   2.918   1.224   5.498
14543TIP3    H143574   2.858   1.201   5.569
14543TIP3    H243575   2.970   1.296   5.533
14544TIP3   OH243576   3.444   4.634   1.895
14544TIP3    H143577   3.530   4.674   1.886
14544TIP3    H243578   3.416   4.616   1.806
14545TIP3   OH243579   3.845   5.403   0.875
14545TIP3    H143580   3.853   5.481   0.820
14545TIP3    H243581   3.790   5.430   0.948
14546TIP3   OH243582   0.936   0.439   5.968
14546TIP3    H143583   0.991   0.472   6.039
14546TIP3    H243584   0.937   0.344   5.979
14547TIP3   OH243585   7.946   6.980   1.110
14547TIP3    H143586   7.941   6.911   1.177
14547TIP3    H243587   7.998   7.049   1.151
14548TIP3   OH243588   7.119   3.730   2.271
14548TIP3    H143589   7.100   3.805   2.328
14548TIP3    H243590   7.110   3.765   2.183
14549TIP3   OH243591   6.734   6.416   4.918
14549TIP3    H143592   6.647   6.389   4.890
14549TIP3    H243593   6.790   6.340   4.903
14550TIP3   OH243594   1.364   0.286   3.997
14550TIP3    H143595   1.361   0.365   3.942
14550TIP3    H243596   1.272   0.266   4.015
14551TIP3   OH243597   2.357   1.591   0.630
14551TIP3    H143598   2.293   1.602   0.560
14551TIP3    H243599   2.398   1.677   0.639
14552TIP3   OH243600   5.029   2.574   3.731
14552TIP3    H143601   4.997   2.517   3.801
14552TIP3    H243602   4.968   2.559   3.658
14553TIP3   OH243603   1.087   5.631   5.848
14553TIP3    H143604   1.053   5.554   5.803
14553TIP3    H243605   1.181   5.616   5.853
14554TIP3   OH243606   5.972   1.224   5.707
14554TIP3    H143607   5.939   1.234   5.796
14554TIP3    H243608   5.901   1.255   5.651
14555TIP3   OH243609   5.260   2.170   5.354
14555TIP3    H143610   5.320   2.107   5.315
14555TIP3    H243611   5.316   2.242   5.384
14556TIP3   OH243612   1.084   2.509   6.761
14556TIP3    H143613   1.028   2.566   6.814
14556TIP3    H243614   1.170   2.552   6.763
14557TIP3   OH243615   7.181   3.866   1.411
14557TIP3    H143616   7.148   3.852   1.322
14557TIP3    H243617   7.276   3.865   1.402
14558TIP3   OH243618   7.130   4.571   1.164
14558TIP3    H143619   7.062   4.545   1.226
14558TIP3    H243620   7.122   4.509   1.092
14559TIP3   OH243621   0.340   4.644   4.804
14559TIP3    H143622   0.413   4.625   4.862
14559TIP3    H243623   0.298   4.559   4.789
14560TIP3   OH243624   2.026   5.771   4.342
14560TIP3    H143625   2.062   5.756   4.429
14560TIP3    H243626   1.970   5.848   4.352
14561TIP3   OH243627   6.486   5.415   5.345
14561TIP3    H143628   6.529   5.331   5.362
14561TIP3    H243629   6.400   5.406   5.384
14562TIP3   OH243630   2.485   5.393   1.574
14562TIP3    H143631   2.571   5.403   1.533
14562TIP3    H243632   2.498   5.421   1.664
14563TIP3   OH243633   7.427   5.412   1.969
14563TIP3    H143634   7.338   5.378   1.979
14563TIP3    H243635   7.430   5.489   2.025
14564TIP3   OH243636   6.994   1.112   5.820
14564TIP3    H143637   6.962   1.070   5.900
14564TIP3    H243638   7.040   1.190   5.851
14565TIP3   OH243639   4.596   5.462   6.545
14565TIP3    H143640   4.530   5.419   6.491
14565TIP3    H243641   4.570   5.442   6.635
14566TIP3   OH243642   6.394   1.688   1.625
14566TIP3    H143643   6.331   1.756   1.601
14566TIP3    H243644   6.417   1.646   1.542
14567TIP3   OH243645   2.704   7.272   3.849
14567TIP3    H143646   2.762   7.347   3.838
14567TIP3    H243647   2.619   7.302   3.815
14568TIP3   OH243648   5.042   0.323   5.108
14568TIP3    H143649   4.994   0.276   5.176
14568TIP3    H243650   5.108   0.261   5.077
14569TIP3   OH243651   1.731   2.311   4.474
14569TIP3    H143652   1.724   2.406   4.472
14569TIP3    H243653   1.758   2.287   4.386
14570TIP3   OH243654   7.087   6.494   0.395
14570TIP3    H143655   7.103   6.402   0.415
14570TIP3    H243656   7.132   6.509   0.312
14571TIP3   OH243657   1.026   5.442   4.731
14571TIP3    H143658   0.945   5.468   4.775
14571TIP3    H243659   1.064   5.375   4.788
14572TIP3   OH243660   1.270   3.930   2.542
14572TIP3    H143661   1.337   3.923   2.610
14572TIP3    H243662   1.206   3.992   2.577
14573TIP3   OH243663   7.580   6.549   0.586
14573TIP3    H143664   7.611   6.579   0.672
14573TIP3    H243665   7.495   6.510   0.603
14574TIP3   OH243666   1.070   2.313   2.650
14574TIP3    H143667   1.150   2.349   2.611
14574TIP3    H243668   1.088   2.313   2.744
14575TIP3   OH243669   6.471   0.627   5.760
14575TIP3    H143670   6.411   0.698   5.741
14575TIP3    H243671   6.490   0.636   5.854
14576TIP3   OH243672   6.508   2.477   3.265
14576TIP3    H143673   6.422   2.441   3.284
14576TIP3    H243674   6.515   2.472   3.170
14577TIP3   OH243675   6.207   2.002   4.849
14577TIP3    H143676   6.236   2.088   4.820
14577TIP3    H243677   6.197   2.011   4.944
14578TIP3   OH243678   0.768   2.510   0.834
14578TIP3    H143679   0.816   2.476   0.759
14578TIP3    H243680   0.812   2.471   0.910
14579TIP3   OH243681   4.267   1.554   2.303
14579TIP3    H143682   4.214   1.633   2.295
14579TIP3    H243683   4.237   1.513   2.384
14580TIP3   OH243684   4.978   4.124   5.547
14580TIP3    H143685   4.998   4.201   5.494
14580TIP3    H243686   4.884   4.128   5.561
14581TIP3   OH243687   1.073   1.055   4.105
14581TIP3    H143688   1.164   1.082   4.089
14581TIP3    H243689   1.041   1.028   4.019
14582TIP3   OH243690   0.916   2.524   6.537
14582TIP3    H143691   0.963   2.513   6.619
14582TIP3    H243692   0.899   2.618   6.531
14583TIP3   OH243693   5.589   7.439   5.519
14583TIP3    H143694   5.663   7.483   5.561
14583TIP3    H243695   5.595   7.348   5.548
14584TIP3   OH243696   7.214   6.622   6.359
14584TIP3    H143697   7.140   6.682   6.349
14584TIP3    H243698   7.241   6.632   6.450
14585TIP3   OH243699   6.683   2.770   5.013
14585TIP3    H143700   6.651   2.820   4.938
14585TIP3    H243701   6.778   2.768   5.002
14586TIP3   OH243702   4.742   4.471   6.560
14586TIP3    H143703   4.767   4.419   6.636
14586TIP3    H243704   4.808   4.541   6.556
14587TIP3   OH243705   4.788   1.691   0.083
14587TIP3    H143706   4.811   1.783   0.093
14587TIP3    H243707   4.839   1.661   0.008
14588TIP3   OH243708   8.072   0.542   0.734
14588TIP3    H143709   7.997   0.490   0.706
14588TIP3    H243710   8.131   0.478   0.774
14589TIP3   OH243711   3.226   3.039   2.609
14589TIP3    H143712   3.309   2.995   2.587
14589TIP3    H243713   3.167   3.016   2.537
14590TIP3   OH243714   6.315   4.334   1.829
14590TIP3    H143715   6.371   4.257   1.842
14590TIP3    H243716   6.298   4.366   1.918
14591TIP3   OH243717   2.635   0.311   2.259
14591TIP3    H143718   2.590   0.259   2.192
14591TIP3    H243719   2.617   0.265   2.341
14592TIP3   OH243720   3.793   6.234   0.222
14592TIP3    H143721   3.811   6.155   0.274
14592TIP3    H243722   3.839   6.219   0.140
14593TIP3   OH243723   8.037   1.744   5.483
14593TIP3    H143724   7.977   1.674   5.457
14593TIP3    H243725   8.042   1.738   5.578
14594TIP3   OH243726   2.285   6.819   0.574
14594TIP3    H143727   2.295   6.906   0.612
14594TIP3    H243728   2.275   6.761   0.649
14595TIP3   OH243729   0.609   1.038   1.729
14595TIP3    H143730   0.535   1.062   1.673
14595TIP3    H243731   0.618   0.944   1.718
14596TIP3   OH243732   7.197   4.566   6.779
14596TIP3    H143733   7.258   4.569   6.706
14596TIP3    H243734   7.122   4.516   6.746
14597TIP3   OH243735   8.237   2.712   2.312
14597TIP3    H143736   8.260   2.666   2.232
14597TIP3    H243737   8.212   2.800   2.283
14598TIP3   OH243738   3.801   6.313   6.142
14598TIP3    H143739   3.763   6.341   6.058
14598TIP3    H243740   3.865   6.381   6.163
14599TIP3   OH243741   5.969   4.448   5.298
14599TIP3    H143742   5.907   4.380   5.272
14599TIP3    H243743   6.023   4.407   5.366
14600TIP3   OH243744   0.778   5.269   5.464
14600TIP3    H143745   0.796   5.285   5.557
14600TIP3    H243746   0.865   5.264   5.424
14601TIP3   OH243747   0.446   3.132   4.868
14601TIP3    H143748   0.448   3.205   4.930
14601TIP3    H243749   0.456   3.054   4.923
14602TIP3   OH243750   4.575   7.363   5.318
14602TIP3    H143751   4.622   7.405   5.246
14602TIP3    H243752   4.613   7.275   5.322
14603TIP3   OH243753   2.729   2.404   5.801
14603TIP3    H143754   2.811   2.436   5.840
14603TIP3    H243755   2.688   2.482   5.764
14604TIP3   OH243756   7.615   0.434   5.520
14604TIP3    H143757   7.646   0.473   5.602
14604TIP3    H243758   7.529   0.473   5.505
14605TIP3   OH243759   5.517   2.053   4.853
14605TIP3    H143760   5.594   2.025   4.804
14605TIP3    H243761   5.544   2.047   4.945
14606TIP3   OH243762   0.565   5.143   6.646
14606TIP3    H143763   0.596   5.190   6.724
14606TIP3    H243764   0.517   5.068   6.680
14607TIP3   OH243765   6.000   7.395   3.688
14607TIP3    H143766   5.970   7.348   3.611
14607TIP3    H243767   6.095   7.391   3.684
14608TIP3   OH243768   0.592   4.173   5.136
14608TIP3    H143769   0.528   4.177   5.064
14608TIP3    H243770   0.568   4.246   5.193
14609TIP3   OH243771   7.861   7.042   4.033
14609TIP3    H143772   7.808   6.964   4.047
14609TIP3    H243773   7.850   7.062   3.940
14610TIP3   OH243774   2.543   7.187   6.656
14610TIP3    H143775   2.571   7.190   6.748
14610TIP3    H243776   2.612   7.138   6.612
14611TIP3   OH243777   6.391   6.917   2.379
14611TIP3    H143778   6.394   6.987   2.313
14611TIP3    H243779   6.472   6.868   2.365
14612TIP3   OH243780   4.378   0.058   5.982
14612TIP3    H143781   4.434   0.104   5.921
14612TIP3    H243782   4.337  -0.012   5.930
14613TIP3   OH243783   1.400   0.020   3.965
14613TIP3    H143784   1.392   0.115   3.963
14613TIP3    H243785   1.341  -0.010   3.896
14614TIP3   OH243786   6.762   3.146   2.188
14614TIP3    H143787   6.729   3.227   2.225
14614TIP3    H243788   6.698   3.122   2.121
14615TIP3   OH243789   2.748   5.652   4.868
14615TIP3    H143790   2.683   5.640   4.799
14615TIP3    H243791   2.806   5.576   4.860
14616TIP3   OH243792   4.854   2.245   3.076
14616TIP3    H143793   4.851   2.276   2.986
14616TIP3    H243794   4.885   2.155   3.071
14617TIP3   OH243795   4.147   3.583   3.129
14617TIP3    H143796   4.110   3.657   3.176
14617TIP3    H243797   4.135   3.508   3.187
14618TIP3   OH243798   7.780   7.377   0.565
14618TIP3    H143799   7.735   7.340   0.489
14618TIP3    H243800   7.871   7.346   0.557
14619TIP3   OH243801   6.502   7.386   3.661
14619TIP3    H143802   6.535   7.344   3.582
14619TIP3    H243803   6.581   7.413   3.708
14620TIP3   OH243804   0.346   2.681   4.833
14620TIP3    H143805   0.386   2.595   4.817
14620TIP3    H243806   0.338   2.720   4.746
14621TIP3   OH243807   5.255   3.537   0.173
14621TIP3    H143808   5.340   3.507   0.207
14621TIP3    H243809   5.278   3.594   0.099
14622TIP3   OH243810   8.247   6.006   4.922
14622TIP3    H143811   8.211   6.091   4.896
14622TIP3    H243812   8.326   5.997   4.869
14623TIP3   OH243813   2.580   2.836   6.221
14623TIP3    H143814   2.533   2.801   6.297
14623TIP3    H243815   2.655   2.882   6.258
14624TIP3   OH243816   1.748   4.339   1.389
14624TIP3    H143817   1.782   4.296   1.468
14624TIP3    H243818   1.807   4.311   1.319
14625TIP3   OH243819   2.903   4.604   0.789
14625TIP3    H143820   2.942   4.522   0.758
14625TIP3    H243821   2.916   4.665   0.717
14626TIP3   OH243822   2.435   1.722   3.801
14626TIP3    H143823   2.418   1.792   3.737
14626TIP3    H243824   2.458   1.646   3.748
14627TIP3   OH243825   0.657   6.279   0.619
14627TIP3    H143826   0.658   6.317   0.531
14627TIP3    H243827   0.698   6.345   0.674
14628TIP3   OH243828   5.084   5.687   3.331
14628TIP3    H143829   5.029   5.636   3.272
14628TIP3    H243830   5.027   5.710   3.404
14629TIP3   OH243831   5.747   2.676   2.551
14629TIP3    H143832   5.719   2.635   2.469
14629TIP3    H243833   5.677   2.739   2.571
14630TIP3   OH243834   4.096   6.254   5.949
14630TIP3    H143835   4.058   6.274   6.035
14630TIP3    H243836   4.160   6.185   5.967
14631TIP3   OH243837   1.412   7.132   1.330
14631TIP3    H143838   1.410   7.050   1.280
14631TIP3    H243839   1.408   7.104   1.422
14632TIP3   OH243840   6.870   0.859   1.722
14632TIP3    H143841   6.775   0.860   1.727
14632TIP3    H243842   6.899   0.892   1.807
14633TIP3   OH243843   4.938   1.112   3.099
14633TIP3    H143844   4.917   1.035   3.152
14633TIP3    H243845   5.019   1.146   3.137
14634TIP3   OH243846   3.158   7.639   5.515
14634TIP3    H143847   3.123   7.725   5.493
14634TIP3    H243848   3.173   7.596   5.431
14635TIP3   OH243849   3.839   3.907   0.671
14635TIP3    H143850   3.748   3.937   0.668
14635TIP3    H243851   3.864   3.900   0.579
14636TIP3   OH243852   3.775   4.681   0.346
14636TIP3    H143853   3.792   4.773   0.363
14636TIP3    H243854   3.760   4.643   0.433
14637TIP3   OH243855   1.583   3.540   4.613
14637TIP3    H143856   1.677   3.522   4.623
14637TIP3    H243857   1.578   3.599   4.538
14638TIP3   OH243858   2.039   7.633   5.760
14638TIP3    H143859   2.109   7.607   5.701
14638TIP3    H243860   2.062   7.593   5.844
14639TIP3   OH243861   7.992   0.929   4.524
14639TIP3    H143862   8.014   1.021   4.510
14639TIP3    H243863   7.919   0.930   4.586
14640TIP3   OH243864   6.735   5.264   3.107
14640TIP3    H143865   6.827   5.290   3.110
14640TIP3    H243866   6.725   5.202   3.179
14641TIP3   OH243867   6.202   2.489   6.633
14641TIP3    H143868   6.194   2.581   6.657
14641TIP3    H243869   6.203   2.489   6.537
14642TIP3   OH243870   1.898   5.022   6.460
14642TIP3    H143871   1.957   4.950   6.480
14642TIP3    H243872   1.861   5.047   6.545
14643TIP3   OH243873   5.478   6.816   1.743
14643TIP3    H143874   5.549   6.811   1.679
14643TIP3    H243875   5.405   6.771   1.702
14644TIP3   OH243876   7.667   5.146   5.147
14644TIP3    H143877   7.612   5.085   5.099
14644TIP3    H243878   7.724   5.091   5.202
14645TIP3   OH243879   4.153   6.320   4.789
14645TIP3    H143880   4.121   6.410   4.794
14645TIP3    H243881   4.246   6.328   4.770
14646TIP3   OH243882   1.520   0.814   4.539
14646TIP3    H143883   1.466   0.839   4.614
14646TIP3    H243884   1.593   0.766   4.576
14647TIP3   OH243885   2.207   6.653   1.005
14647TIP3    H143886   2.205   6.586   0.937
14647TIP3    H243887   2.284   6.706   0.984
14648TIP3   OH243888   0.555   2.746   2.550
14648TIP3    H143889   0.585   2.809   2.615
14648TIP3    H243890   0.608   2.667   2.566
14649TIP3   OH243891   4.823   7.833   3.619
14649TIP3    H143892   4.795   7.741   3.627
14649TIP3    H243893   4.751   7.876   3.573
14650TIP3   OH243894   2.094   5.235   4.788
14650TIP3    H143895   2.107   5.153   4.835
14650TIP3    H243896   2.088   5.301   4.857
14651TIP3   OH243897   3.231   2.495   0.300
14651TIP3    H143898   3.306   2.550   0.277
14651TIP3    H243899   3.263   2.439   0.370
14652TIP3   OH243900   1.004   5.131   3.221
14652TIP3    H143901   1.048   5.182   3.289
14652TIP3    H243902   1.001   5.042   3.256
14653TIP3   OH243903   1.749   2.994   5.600
14653TIP3    H143904   1.768   2.997   5.507
14653TIP3    H243905   1.806   3.061   5.639
14654TIP3   OH243906   6.297   6.017   2.790
14654TIP3    H143907   6.318   6.109   2.779
14654TIP3    H243908   6.374   5.980   2.833
14655TIP3   OH243909   3.330   3.667   1.770
14655TIP3    H143910   3.298   3.680   1.681
14655TIP3    H243911   3.301   3.745   1.817
14656TIP3   OH243912   6.512   1.717   3.172
14656TIP3    H143913   6.551   1.648   3.119
14656TIP3    H243914   6.471   1.671   3.245
14657TIP3   OH243915   3.726   3.271   4.035
14657TIP3    H143916   3.636   3.241   4.048
14657TIP3    H243917   3.773   3.193   4.007
14658TIP3   OH243918   5.657   3.746   4.717
14658TIP3    H143919   5.568   3.715   4.699
14658TIP3    H243920   5.647   3.840   4.732
14659TIP3   OH243921   1.421   1.458   2.081
14659TIP3    H143922   1.348   1.397   2.085
14659TIP3    H243923   1.382   1.544   2.090
14660TIP3   OH243924   8.124   3.905   6.460
14660TIP3    H143925   8.063   3.850   6.411
14660TIP3    H243926   8.205   3.903   6.408
14661TIP3   OH243927   7.843   5.852   0.528
14661TIP3    H143928   7.906   5.898   0.473
14661TIP3    H243929   7.871   5.760   0.525
14662TIP3   OH243930   5.736   4.179   2.727
14662TIP3    H143931   5.690   4.210   2.806
14662TIP3    H243932   5.828   4.204   2.742
14663TIP3   OH243933   0.807   4.501   0.276
14663TIP3    H143934   0.889   4.546   0.299
14663TIP3    H243935   0.739   4.553   0.319
14664TIP3   OH243936   5.378   4.964   0.368
14664TIP3    H143937   5.367   5.042   0.422
14664TIP3    H243938   5.290   4.945   0.336
14665TIP3   OH243939   3.114   6.970   4.817
14665TIP3    H143940   3.112   7.001   4.726
14665TIP3    H243941   3.161   7.039   4.865
14666TIP3   OH243942   1.993   5.822   1.120
14666TIP3    H143943   1.937   5.767   1.176
14666TIP3    H243944   2.061   5.762   1.089
14667TIP3   OH243945   1.703   0.102   3.260
14667TIP3    H143946   1.612   0.089   3.234
14667TIP3    H243947   1.710   0.196   3.277
14668TIP3   OH243948   3.042   0.289   6.213
14668TIP3    H143949   3.120   0.320   6.168
14668TIP3    H243950   3.005   0.368   6.253
14669TIP3   OH243951   7.769   6.774   2.041
14669TIP3    H143952   7.853   6.734   2.064
14669TIP3    H243953   7.726   6.710   1.985
14670TIP3   OH243954   2.106   5.447   0.777
14670TIP3    H143955   2.122   5.355   0.798
14670TIP3    H243956   2.131   5.495   0.856
14671TIP3   OH243957   2.509   0.345   5.089
14671TIP3    H143958   2.572   0.293   5.039
14671TIP3    H243959   2.487   0.418   5.031
14672TIP3   OH243960   7.685   0.171   3.002
14672TIP3    H143961   7.773   0.204   2.983
14672TIP3    H243962   7.681   0.087   2.957
14673TIP3   OH243963   4.832   5.236   0.089
14673TIP3    H143964   4.915   5.193   0.109
14673TIP3    H243965   4.828   5.238  -0.007
14674TIP3   OH243966   4.250   7.566   3.218
14674TIP3    H143967   4.304   7.575   3.296
14674TIP3    H243968   4.161   7.581   3.248
14675TIP3   OH243969   6.408   3.812   3.490
14675TIP3    H143970   6.426   3.895   3.535
14675TIP3    H243971   6.318   3.821   3.459
14676TIP3   OH243972   0.826   7.398   1.246
14676TIP3    H143973   0.732   7.404   1.262
14676TIP3    H243974   0.866   7.452   1.314
14677TIP3   OH243975   3.525   2.381   6.788
14677TIP3    H143976   3.484   2.318   6.728
14677TIP3    H243977   3.554   2.452   6.732
14678TIP3   OH243978  -0.015   7.778   5.885
14678TIP3    H143979  -0.051   7.722   5.953
14678TIP3    H243980   0.080   7.774   5.897
14679TIP3   OH243981   2.707   2.311   3.510
14679TIP3    H143982   2.700   2.332   3.603
14679TIP3    H243983   2.797   2.280   3.499
14680TIP3   OH243984   0.121   2.631   1.774
14680TIP3    H143985   0.204   2.629   1.822
14680TIP3    H243986   0.135   2.695   1.705
14681TIP3   OH243987   3.739   3.189   0.115
14681TIP3    H143988   3.647   3.212   0.098
14681TIP3    H243989   3.740   3.164   0.207
14682TIP3   OH243990  -0.049   7.394   1.453
14682TIP3    H143991  -0.065   7.378   1.360
14682TIP3    H243992  -0.042   7.307   1.492
14683TIP3   OH243993   4.160   7.592   6.626
14683TIP3    H143994   4.212   7.521   6.588
14683TIP3    H243995   4.209   7.672   6.604
14684TIP3   OH243996   7.035   6.002   5.387
14684TIP3    H143997   7.080   6.028   5.307
14684TIP3    H243998   6.967   6.069   5.399
14685TIP3   OH243999   6.563   7.323   5.735
14685TIP3    H144000   6.619   7.367   5.798
14685TIP3    H244001   6.525   7.393   5.683
14686TIP3   OH244002   3.033   5.456   3.937
14686TIP3    H144003   3.086   5.433   4.013
14686TIP3    H244004   3.056   5.390   3.871
14687TIP3   OH244005   6.078   0.523   5.990
14687TIP3    H144006   6.033   0.474   6.059
14687TIP3    H244007   6.091   0.459   5.920
14688TIP3   OH244008   0.990   3.885   0.064
14688TIP3    H144009   0.939   3.963   0.043
14688TIP3    H244010   0.943   3.844   0.136
14689TIP3   OH244011   0.629   0.743   3.927
14689TIP3    H144012   0.575   0.779   3.857
14689TIP3    H244013   0.678   0.818   3.960
14690TIP3   OH244014   2.714   0.048   2.925
14690TIP3    H144015   2.726   0.065   3.018
14690TIP3    H244016   2.711   0.135   2.885
14691TIP3   OH244017   3.420   2.363   2.546
14691TIP3    H144018   3.451   2.454   2.555
14691TIP3    H244019   3.350   2.368   2.481
14692TIP3   OH244020   2.664   5.690   2.356
14692TIP3    H144021   2.717   5.769   2.356
14692TIP3    H244022   2.712   5.628   2.301
14693TIP3   OH244023   7.891   3.392   1.256
14693TIP3    H144024   7.815   3.414   1.201
14693TIP3    H244025   7.966   3.427   1.208
14694TIP3   OH244026   5.981   6.628   6.453
14694TIP3    H144027   5.936   6.685   6.516
14694TIP3    H244028   5.913   6.601   6.392
14695TIP3   OH244029   3.580   2.113   1.104
14695TIP3    H144030   3.667   2.107   1.065
14695TIP3    H244031   3.544   2.025   1.098
14696TIP3   OH244032   5.018   1.622   3.486
14696TIP3    H144033   5.018   1.573   3.404
14696TIP3    H244034   4.926   1.630   3.510
14697TIP3   OH244035   0.402   6.759   2.934
14697TIP3    H144036   0.442   6.679   2.901
14697TIP3    H244037   0.369   6.803   2.856
14698TIP3   OH244038   8.205   1.681   0.383
14698TIP3    H144039   8.209   1.593   0.346
14698TIP3    H244040   8.213   1.668   0.478
14699TIP3   OH244041   3.172   4.997   5.352
14699TIP3    H144042   3.239   4.950   5.303
14699TIP3    H244043   3.091   4.979   5.305
14700TIP3   OH244044   7.925   5.412   4.080
14700TIP3    H144045   7.901   5.393   4.171
14700TIP3    H244046   7.841   5.431   4.037
14701TIP3   OH244047   7.561   5.497   0.033
14701TIP3    H144048   7.499   5.524   0.101
14701TIP3    H244049   7.642   5.542   0.055
14702TIP3   OH244050   6.716   7.815   1.715
14702TIP3    H144051   6.693   7.885   1.654
14702TIP3    H244052   6.665   7.740   1.685
14703TIP3   OH244053   3.897   4.953   0.298
14703TIP3    H144054   3.813   4.963   0.342
14703TIP3    H244055   3.930   5.042   0.289
14704TIP3   OH244056   6.773   0.128   0.400
14704TIP3    H144057   6.714   0.203   0.404
14704TIP3    H244058   6.837   0.150   0.332
14705TIP3   OH244059   2.043   6.776   5.326
14705TIP3    H144060   1.961   6.822   5.308
14705TIP3    H244061   2.108   6.824   5.275
14706TIP3   OH244062   2.950   6.932   6.040
14706TIP3    H144063   2.964   6.875   5.965
14706TIP3    H244064   2.975   6.879   6.116
14707TIP3   OH244065   7.458   3.770   5.668
14707TIP3    H144066   7.452   3.858   5.705
14707TIP3    H244067   7.528   3.776   5.603
14708TIP3   OH244068   7.947   1.988   5.063
14708TIP3    H144069   7.900   1.916   5.022
14708TIP3    H244070   8.039   1.966   5.051
14709TIP3   OH244071   1.744   2.230   3.175
14709TIP3    H144072   1.784   2.152   3.212
14709TIP3    H244073   1.817   2.289   3.158
14710TIP3   OH244074   6.909   2.049   1.298
14710TIP3    H144075   6.963   2.012   1.367
14710TIP3    H244076   6.836   2.090   1.344
14711TIP3   OH244077   5.784   7.264   1.014
14711TIP3    H144078   5.705   7.254   0.962
14711TIP3    H244079   5.810   7.356   1.002
14712TIP3   OH244080   8.100   0.875   1.074
14712TIP3    H144081   8.027   0.931   1.050
14712TIP3    H244082   8.077   0.842   1.161
14713TIP3   OH244083   7.860   0.882   2.451
14713TIP3    H144084   7.775   0.926   2.453
14713TIP3    H244085   7.876   0.857   2.543
14714TIP3   OH244086   7.897   5.717   2.580
14714TIP3    H144087   7.978   5.670   2.597
14714TIP3    H244088   7.903   5.743   2.488
14715TIP3   OH244089   3.290   6.615   3.399
14715TIP3    H144090   3.318   6.613   3.308
14715TIP3    H244091   3.195   6.601   3.395
14716TIP3   OH244092   6.582   6.079   4.731
14716TIP3    H144093   6.625   6.026   4.664
14716TIP3    H244094   6.574   6.166   4.691
14717TIP3   OH244095   4.709   5.439   1.695
14717TIP3    H144096   4.741   5.447   1.605
14717TIP3    H244097   4.719   5.346   1.716
14718TIP3   OH244098   5.312   3.509   2.081
14718TIP3    H144099   5.310   3.472   2.169
14718TIP3    H244100   5.328   3.433   2.024
14719TIP3   OH244101   7.422   0.765   2.532
14719TIP3    H144102   7.405   0.820   2.609
14719TIP3    H244103   7.515   0.741   2.540
14720TIP3   OH244104   2.175   6.805   6.059
14720TIP3    H144105   2.206   6.718   6.032
14720TIP3    H244106   2.099   6.788   6.114
14721TIP3   OH244107   6.182   4.551   1.670
14721TIP3    H144108   6.219   4.629   1.711
14721TIP3    H244109   6.231   4.478   1.708
14722TIP3   OH244110   0.133   0.719   4.396
14722TIP3    H144111   0.047   0.747   4.365
14722TIP3    H244112   0.194   0.751   4.330
14723TIP3   OH244113   0.496   2.134   0.489
14723TIP3    H144114   0.454   2.054   0.522
14723TIP3    H244115   0.571   2.102   0.440
14724TIP3   OH244116   6.545   4.236   4.047
14724TIP3    H144117   6.474   4.190   4.091
14724TIP3    H244118   6.531   4.328   4.069
14725TIP3   OH244119   4.583   3.349   1.674
14725TIP3    H144120   4.630   3.265   1.667
14725TIP3    H244121   4.635   3.401   1.734
14726TIP3   OH244122   3.744   0.746   5.450
14726TIP3    H144123   3.716   0.657   5.429
14726TIP3    H244124   3.809   0.735   5.519
14727TIP3   OH244125   0.401   4.207   2.260
14727TIP3    H144126   0.321   4.160   2.240
14727TIP3    H244127   0.413   4.267   2.187
14728TIP3   OH244128   2.244   0.887   3.933
14728TIP3    H144129   2.177   0.827   3.902
14728TIP3    H244130   2.239   0.880   4.029
14729TIP3   OH244131   2.957   6.677   1.822
14729TIP3    H144132   2.932   6.760   1.861
14729TIP3    H244133   2.984   6.700   1.733
14730TIP3   OH244134   4.197   2.326   0.215
14730TIP3    H144135   4.138   2.285   0.278
14730TIP3    H244136   4.257   2.379   0.268
14731TIP3   OH244137   6.545   5.211   4.975
14731TIP3    H144138   6.560   5.159   4.896
14731TIP3    H244139   6.461   5.254   4.960
14732TIP3   OH244140   6.693   0.857   5.429
14732TIP3    H144141   6.721   0.825   5.343
14732TIP3    H244142   6.603   0.887   5.415
14733TIP3   OH244143   3.370   6.049   4.263
14733TIP3    H144144   3.443   6.063   4.324
14733TIP3    H244145   3.357   6.135   4.222
14734TIP3   OH244146   3.551   3.327   6.573
14734TIP3    H144147   3.567   3.264   6.503
14734TIP3    H244148   3.540   3.274   6.651
14735TIP3   OH244149   1.738   5.662   2.449
14735TIP3    H144150   1.748   5.756   2.462
14735TIP3    H244151   1.798   5.642   2.377
14736TIP3   OH244152   1.490   1.294   1.432
14736TIP3    H144153   1.420   1.249   1.479
14736TIP3    H244154   1.477   1.387   1.451
14737TIP3   OH244155   1.922   6.228   3.139
14737TIP3    H144156   1.999   6.250   3.087
14737TIP3    H244157   1.893   6.143   3.105
14738TIP3   OH244158   4.338   0.434   1.162
14738TIP3    H144159   4.296   0.517   1.185
14738TIP3    H244160   4.410   0.425   1.224
14739TIP3   OH244161   5.689   1.336   0.656
14739TIP3    H144162   5.694   1.350   0.751
14739TIP3    H244163   5.780   1.317   0.630
14740TIP3   OH244164   0.233   6.987   3.062
14740TIP3    H144165   0.200   6.905   3.025
14740TIP3    H244166   0.301   6.960   3.123
14741TIP3   OH244167   4.813   0.517   1.049
14741TIP3    H144168   4.752   0.583   1.083
14741TIP3    H244169   4.846   0.472   1.127
14742TIP3   OH244170   8.074   1.182   4.562
14742TIP3    H144171   8.100   1.273   4.551
14742TIP3    H244172   8.147   1.141   4.607
14743TIP3   OH244173   5.242   5.921   4.082
14743TIP3    H144174   5.277   5.945   4.167
14743TIP3    H244175   5.248   5.825   4.079
14744TIP3   OH244176   3.364   5.426   5.777
14744TIP3    H144177   3.294   5.361   5.771
14744TIP3    H244178   3.424   5.390   5.843
14745TIP3   OH244179   0.900   3.619   1.783
14745TIP3    H144180   0.872   3.567   1.858
14745TIP3    H244181   0.833   3.603   1.717
14746TIP3   OH244182   0.173   2.586   5.472
14746TIP3    H144183   0.227   2.639   5.530
14746TIP3    H244184   0.124   2.529   5.531
14747TIP3   OH244185   7.959   2.446   0.404
14747TIP3    H144186   7.992   2.434   0.493
14747TIP3    H244187   7.876   2.493   0.415
14748TIP3   OH244188   4.784   0.192   3.502
14748TIP3    H144189   4.870   0.214   3.466
14748TIP3    H244190   4.800   0.116   3.558
14749TIP3   OH244191   1.482   4.645   4.412
14749TIP3    H144192   1.558   4.693   4.379
14749TIP3    H244193   1.517   4.559   4.436
14750TIP3   OH244194   7.530   2.302   6.097
14750TIP3    H144195   7.522   2.396   6.082
14750TIP3    H244196   7.604   2.275   6.043
14751TIP3   OH244197   4.755   7.112   4.817
14751TIP3    H144198   4.746   7.024   4.853
14751TIP3    H244199   4.742   7.100   4.722
14752TIP3   OH244200   6.695   6.876   3.638
14752TIP3    H144201   6.790   6.879   3.649
14752TIP3    H244202   6.678   6.786   3.609
14753TIP3   OH244203   0.956   3.615   5.021
14753TIP3    H144204   0.946   3.525   5.053
14753TIP3    H244205   1.028   3.651   5.073
14754TIP3   OH244206   4.662   0.533   6.484
14754TIP3    H144207   4.611   0.575   6.553
14754TIP3    H244208   4.693   0.606   6.430
14755TIP3   OH244209   1.340   6.280   0.415
14755TIP3    H144210   1.419   6.228   0.398
14755TIP3    H244211   1.327   6.330   0.334
14756TIP3   OH244212   3.263   4.320   6.337
14756TIP3    H144213   3.257   4.253   6.405
14756TIP3    H244214   3.306   4.394   6.381
14757TIP3   OH244215   5.969   3.549   6.416
14757TIP3    H144216   5.980   3.641   6.440
14757TIP3    H244217   6.039   3.532   6.353
14758TIP3   OH244218   3.330   3.057   1.578
14758TIP3    H144219   3.289   3.070   1.664
14758TIP3    H244220   3.256   3.049   1.518
14759TIP3   OH244221   4.281   3.242   5.104
14759TIP3    H144222   4.188   3.233   5.082
14759TIP3    H244223   4.284   3.314   5.166
14760TIP3   OH244224   4.417   4.648   1.193
14760TIP3    H144225   4.366   4.682   1.267
14760TIP3    H244226   4.395   4.706   1.120
14761TIP3   OH244227   0.873   1.473   3.243
14761TIP3    H144228   0.950   1.506   3.196
14761TIP3    H244229   0.800   1.492   3.184
14762TIP3   OH244230   8.243   7.170   4.327
14762TIP3    H144231   8.309   7.227   4.368
14762TIP3    H244232   8.166   7.226   4.318
14763TIP3   OH244233   6.343   5.056   1.767
14763TIP3    H144234   6.423   5.093   1.804
14763TIP3    H244235   6.356   5.058   1.673
14764TIP3   OH244236   3.069   5.219   3.284
14764TIP3    H144237   3.135   5.267   3.334
14764TIP3    H244238   3.116   5.183   3.209
14765TIP3   OH244239   7.900   3.310   0.659
14765TIP3    H144240   7.919   3.235   0.604
14765TIP3    H244241   7.806   3.325   0.649
14766TIP3   OH244242   8.094   5.537   3.498
14766TIP3    H144243   8.084   5.464   3.437
14766TIP3    H244244   8.171   5.516   3.549
14767TIP3   OH244245   5.203   7.105   1.439
14767TIP3    H144246   5.206   7.015   1.406
14767TIP3    H244247   5.254   7.102   1.521
14768TIP3   OH244248   5.536   0.144   2.261
14768TIP3    H144249   5.466   0.082   2.238
14768TIP3    H244250   5.568   0.113   2.345
14769TIP3   OH244251   4.555   3.275   4.324
14769TIP3    H144252   4.523   3.335   4.257
14769TIP3    H244253   4.647   3.262   4.302
14770TIP3   OH244254   1.365   4.850   2.657
14770TIP3    H144255   1.332   4.882   2.573
14770TIP3    H244256   1.289   4.810   2.699
14771TIP3   OH244257   5.783   0.091   4.049
14771TIP3    H144258   5.860   0.053   4.006
14771TIP3    H244259   5.818   0.133   4.127
14772TIP3   OH244260   1.268   0.024   1.092
14772TIP3    H144261   1.336   0.000   1.030
14772TIP3    H244262   1.293  -0.019   1.174
14773TIP3   OH244263   0.083   2.300  -0.003
14773TIP3    H144264   0.150   2.323  -0.067
14773TIP3    H244265   0.130   2.296   0.080
14774TIP3   OH244266   1.911   2.586   6.771
14774TIP3    H144267   1.940   2.677   6.771
14774TIP3    H244268   1.965   2.543   6.704
14775TIP3   OH244269   1.441   5.646   2.066
14775TIP3    H144270   1.349   5.652   2.090
14775TIP3    H244271   1.480   5.591   2.134
14776TIP3   OH244272   5.384   7.694   5.995
14776TIP3    H144273   5.411   7.670   6.084
14776TIP3    H244274   5.345   7.614   5.960
14777TIP3   OH244275   5.655   6.843   4.102
14777TIP3    H144276   5.575   6.801   4.131
14777TIP3    H244277   5.674   6.804   4.017
14778TIP3   OH244278   6.566   0.922   6.237
14778TIP3    H144279   6.588   0.892   6.326
14778TIP3    H244280   6.633   0.988   6.217
14779TIP3   OH244281   7.423   3.008   5.926
14779TIP3    H144282   7.356   3.003   5.857
14779TIP3    H244283   7.376   2.990   6.007
14780TIP3   OH244284   0.264   7.187   1.476
14780TIP3    H144285   0.258   7.251   1.406
14780TIP3    H244286   0.263   7.239   1.557
14781TIP3   OH244287   4.748   4.445   0.138
14781TIP3    H144288   4.747   4.413   0.048
14781TIP3    H244289   4.834   4.486   0.148
14782TIP3   OH244290   5.124   0.568   2.770
14782TIP3    H144291   5.117   0.600   2.680
14782TIP3    H244292   5.192   0.621   2.810
14783TIP3   OH244293   3.531   2.826   0.879
14783TIP3    H144294   3.598   2.873   0.928
14783TIP3    H244295   3.573   2.806   0.795
14784TIP3   OH244296   5.782   0.754   6.286
14784TIP3    H144297   5.770   0.793   6.373
14784TIP3    H244298   5.864   0.706   6.292
14785TIP3   OH244299   6.817   7.546   0.119
14785TIP3    H144300   6.817   7.536   0.024
14785TIP3    H244301   6.725   7.539   0.144
14786TIP3   OH244302   2.015   5.488   4.520
14786TIP3    H144303   1.979   5.547   4.586
14786TIP3    H244304   1.976   5.403   4.541
14787TIP3   OH244305   4.261   0.044   2.471
14787TIP3    H144306   4.242   0.049   2.565
14787TIP3    H244307   4.275   0.135   2.445
14788TIP3   OH244308   2.139   0.112   1.871
14788TIP3    H144309   2.218   0.127   1.819
14788TIP3    H244310   2.088   0.192   1.862
14789TIP3   OH244311   6.741   0.156   1.880
14789TIP3    H144312   6.675   0.112   1.934
14789TIP3    H244313   6.695   0.229   1.839
14790TIP3   OH244314   7.871   0.626   1.818
14790TIP3    H144315   7.822   0.706   1.838
14790TIP3    H244316   7.806   0.556   1.827
14791TIP3   OH244317   7.175   3.797   4.822
14791TIP3    H144318   7.232   3.826   4.751
14791TIP3    H244319   7.110   3.867   4.832
14792TIP3   OH244320   3.984   0.193   4.827
14792TIP3    H144321   4.017   0.159   4.743
14792TIP3    H244322   4.033   0.145   4.893
14793TIP3   OH244323   5.941   3.771   3.294
14793TIP3    H144324   5.874   3.806   3.234
14793TIP3    H244325   5.927   3.676   3.292
14794TIP3   OH244326   3.460   5.973   0.159
14794TIP3    H144327   3.536   5.985   0.102
14794TIP3    H244328   3.403   5.913   0.111
14795TIP3   OH244329   2.498   4.625   2.100
14795TIP3    H144330   2.540   4.545   2.066
14795TIP3    H244331   2.405   4.606   2.095
14796TIP3   OH244332   1.497   5.299   4.408
14796TIP3    H144333   1.558   5.340   4.347
14796TIP3    H244334   1.461   5.225   4.360
14797TIP3   OH244335   4.239   4.457   0.118
14797TIP3    H144336   4.172   4.487   0.179
14797TIP3    H244337   4.241   4.523   0.049
14798TIP3   OH244338   7.755   5.844   4.543
14798TIP3    H144339   7.816   5.778   4.576
14798TIP3    H244340   7.669   5.802   4.549
14799TIP3   OH244341   8.121   6.347   1.085
14799TIP3    H144342   8.168   6.300   1.017
14799TIP3    H244343   8.189   6.396   1.131
14800TIP3   OH244344   3.656   5.330   1.518
14800TIP3    H144345   3.582   5.389   1.505
14800TIP3    H244346   3.730   5.388   1.537
14801TIP3   OH244347   2.399   7.562   5.995
14801TIP3    H144348   2.304   7.578   5.997
14801TIP3    H244349   2.422   7.543   6.086
14802TIP3   OH244350   1.916   4.194   1.182
14802TIP3    H144351   1.958   4.123   1.231
14802TIP3    H244352   1.871   4.151   1.110
14803TIP3   OH244353   4.871   4.222   2.107
14803TIP3    H144354   4.965   4.217   2.121
14803TIP3    H244355   4.860   4.289   2.039
14804TIP3   OH244356   7.385   6.129   3.834
14804TIP3    H144357   7.326   6.160   3.765
14804TIP3    H244358   7.404   6.207   3.886
14805TIP3   OH244359   3.760   7.698   0.872
14805TIP3    H144360   3.688   7.759   0.862
14805TIP3    H244361   3.838   7.752   0.876
14806TIP3   OH244362   7.697   5.150   4.106
14806TIP3    H144363   7.737   5.222   4.058
14806TIP3    H244364   7.690   5.079   4.041
14807TIP3   OH244365   1.909   0.188   1.089
14807TIP3    H144366   1.909   0.228   1.002
14807TIP3    H244367   1.876   0.099   1.075
14808TIP3   OH244368   4.195   4.874   4.282
14808TIP3    H144369   4.112   4.866   4.329
14808TIP3    H244370   4.254   4.813   4.327
14809TIP3   OH244371   5.143   4.202   4.294
14809TIP3    H144372   5.173   4.233   4.379
14809TIP3    H244373   5.047   4.203   4.300
14810TIP3   OH244374   8.151   1.525   1.246
14810TIP3    H144375   8.057   1.536   1.261
14810TIP3    H244376   8.157   1.479   1.163
14811TIP3   OH244377   7.152   4.373   5.977
14811TIP3    H144378   7.056   4.384   5.977
14811TIP3    H244379   7.179   4.411   6.061
14812TIP3   OH244380   0.696   0.380   2.604
14812TIP3    H144381   0.609   0.386   2.645
14812TIP3    H244382   0.680   0.404   2.512
14813TIP3   OH244383   4.327   7.431   6.501
14813TIP3    H144384   4.414   7.470   6.512
14813TIP3    H244385   4.309   7.439   6.408
14814TIP3   OH244386   5.706   2.924   4.186
14814TIP3    H144387   5.615   2.906   4.161
14814TIP3    H244388   5.704   2.934   4.281
14815TIP3   OH244389   0.106   2.012   1.270
14815TIP3    H144390   0.059   1.944   1.222
14815TIP3    H244391   0.141   1.968   1.347
14816TIP3   OH244392   2.512   1.979   4.937
14816TIP3    H144393   2.605   2.000   4.933
14816TIP3    H244394   2.468   2.056   4.901
14817TIP3   OH244395   6.192   7.309   1.973
14817TIP3    H144396   6.183   7.217   1.999
14817TIP3    H244397   6.153   7.358   2.045
14818TIP3   OH244398   1.680   0.651   1.412
14818TIP3    H144399   1.671   0.598   1.491
14818TIP3    H244400   1.700   0.588   1.343
14819TIP3   OH244401   3.785   3.114   1.987
14819TIP3    H144402   3.851   3.050   1.963
14819TIP3    H244403   3.717   3.106   1.920
14820TIP3   OH244404   5.218   1.552   3.170
14820TIP3    H144405   5.250   1.524   3.084
14820TIP3    H244406   5.127   1.576   3.155
14821TIP3   OH244407   7.921   5.005   5.580
14821TIP3    H144408   7.889   5.083   5.627
14821TIP3    H244409   7.914   4.934   5.644
14822TIP3   OH244410   7.283   4.070   2.273
14822TIP3    H144411   7.333   4.144   2.308
14822TIP3    H244412   7.349   4.001   2.262
14823TIP3   OH244413   4.170   2.827   4.900
14823TIP3    H144414   4.092   2.846   4.848
14823TIP3    H244415   4.241   2.872   4.854
14824TIP3   OH244416   6.632   6.316   2.454
14824TIP3    H144417   6.695   6.338   2.523
14824TIP3    H244418   6.586   6.398   2.437
14825TIP3   OH244419   5.937   3.447   3.932
14825TIP3    H144420   5.969   3.409   3.850
14825TIP3    H244421   5.868   3.508   3.904
14826TIP3   OH244422   5.574   5.771   6.423
14826TIP3    H144423   5.637   5.805   6.359
14826TIP3    H244424   5.559   5.844   6.484
14827TIP3   OH244425   0.470   0.414   3.573
14827TIP3    H144426   0.511   0.434   3.489
14827TIP3    H244427   0.536   0.437   3.639
14828TIP3   OH244428   4.168   3.623   2.224
14828TIP3    H144429   4.245   3.679   2.235
14828TIP3    H244430   4.105   3.678   2.177
14829TIP3   OH244431   2.539   1.669   5.580
14829TIP3    H144432   2.566   1.604   5.645
14829TIP3    H244433   2.610   1.671   5.517
14830TIP3   OH244434   5.484   5.728   2.141
14830TIP3    H144435   5.528   5.810   2.164
14830TIP3    H244436   5.543   5.659   2.172
14831TIP3   OH244437   0.880   4.338   3.382
14831TIP3    H144438   0.888   4.424   3.423
14831TIP3    H244439   0.951   4.286   3.420
14832TIP3   OH244440   2.562   6.246   3.871
14832TIP3    H144441   2.602   6.221   3.955
14832TIP3    H244442   2.610   6.324   3.845
14833TIP3   OH244443   4.943   1.950   6.083
14833TIP3    H144444   5.024   2.000   6.070
14833TIP3    H244445   4.953   1.874   6.026
14834TIP3   OH244446   3.060   5.971   1.590
14834TIP3    H144447   3.132   6.001   1.534
14834TIP3    H244448   2.981   6.001   1.546
14835TIP3   OH244449   0.329   4.817   4.005
14835TIP3    H144450   0.366   4.734   4.035
14835TIP3    H244451   0.394   4.882   4.029
14836TIP3   OH244452   1.397   1.711   5.314
14836TIP3    H144453   1.334   1.690   5.245
14836TIP3    H244454   1.372   1.798   5.344
14837TIP3   OH244455   6.655   7.372   6.731
14837TIP3    H144456   6.751   7.374   6.732
14837TIP3    H244457   6.632   7.281   6.749
14838TIP3   OH244458   1.256   5.793   0.590
14838TIP3    H144459   1.225   5.880   0.564
14838TIP3    H244460   1.175   5.745   0.612
14839TIP3   OH244461   6.165   0.109   6.376
14839TIP3    H144462   6.173   0.120   6.282
14839TIP3    H244463   6.256   0.108   6.408
   8.29839   7.82380   6.77560   0.00000   0.00000  -2.76613   0.00000  -2.76613  -3.91190
