Title t= 4470.00000 step= 2235000
44434
    1GLY      N    1   4.341   3.908   5.051
    1GLY    HT1    2   4.287   3.831   5.096
    1GLY    HT2    3   4.442   3.885   5.055
    1GLY    HT3    4   4.312   3.910   4.951
    1GLY     CA    5   4.317   4.042   5.117
    1GLY    HA1    6   4.361   4.117   5.053
    1GLY    HA2    7   4.348   4.036   5.220
    1GLY      C    8   4.168   4.080   5.106
    1GLY      O    9   4.088   3.990   5.082
    2PRO      N   10   4.129   4.201   5.136
    2PRO     CD   11   4.213   4.308   5.176
    2PRO    HD1   12   4.246   4.358   5.082
    2PRO    HD2   13   4.296   4.275   5.242
    2PRO     CA   14   3.990   4.243   5.139
    2PRO     HA   15   3.937   4.174   5.203
    2PRO     CB   16   3.988   4.385   5.194
    2PRO    HB1   17   3.909   4.401   5.270
    2PRO    HB2   18   3.984   4.458   5.111
    2PRO     CG   19   4.125   4.392   5.261
    2PRO    HG1   20   4.160   4.497   5.274
    2PRO    HG2   21   4.118   4.354   5.365
    2PRO      C   22   3.933   4.237   4.999
    2PRO      O   23   3.997   4.272   4.902
    3GLY      N   24   3.813   4.171   4.987
    3GLY     HN   25   3.768   4.132   5.067
    3GLY     CA   26   3.742   4.138   4.861
    3GLY    HA1   27   3.699   4.226   4.816
    3GLY    HA2   28   3.663   4.069   4.887
    3GLY      C   29   3.824   4.063   4.753
    3GLY      O   30   3.927   3.999   4.774
    4ASP      N   31   3.780   4.074   4.622
    4ASP     HN   32   3.702   4.133   4.605
    4ASP     CA   33   3.848   4.000   4.511
    4ASP     HA   34   3.864   3.897   4.540
    4ASP     CB   35   3.754   4.017   4.392
    4ASP    HB1   36   3.801   3.988   4.296
    4ASP    HB2   37   3.726   4.124   4.378
    4ASP     CG   38   3.623   3.942   4.411
    4ASP    OD1   39   3.616   3.845   4.494
    4ASP    OD2   40   3.527   3.959   4.335
    4ASP      C   41   3.980   4.072   4.481
    4ASP      O   42   3.969   4.193   4.476
    5PRO      N   43   4.096   4.010   4.458
    5PRO     CD   44   4.111   3.866   4.496
    5PRO    HD1   45   4.050   3.804   4.427
    5PRO    HD2   46   4.088   3.846   4.603
    5PRO     CA   47   4.221   4.058   4.403
    5PRO     HA   48   4.280   4.105   4.480
    5PRO     CB   49   4.297   3.935   4.355
    5PRO    HB1   50   4.406   3.955   4.355
    5PRO    HB2   51   4.262   3.901   4.256
    5PRO     CG   52   4.258   3.829   4.459
    5PRO    HG1   53   4.261   3.726   4.417
    5PRO    HG2   54   4.320   3.836   4.552
    5PRO      C   55   4.219   4.157   4.287
    5PRO      O   56   4.127   4.157   4.207
    6GLY      N   57   4.320   4.247   4.278
    6GLY     HN   58   4.393   4.249   4.345
    6GLY     CA   59   4.331   4.334   4.162
    6GLY    HA1   60   4.403   4.409   4.193
    6GLY    HA2   61   4.234   4.372   4.134
    6GLY      C   62   4.381   4.281   4.034
    6GLY      O   63   4.418   4.165   4.029
    7SER      N   64   4.397   4.372   3.935
    7SER     HN   65   4.366   4.466   3.948
    7SER     CA   66   4.449   4.332   3.802
    7SER     HA   67   4.413   4.232   3.782
    7SER     CB   68   4.406   4.429   3.679
    7SER    HB1   69   4.462   4.380   3.596
    7SER    HB2   70   4.436   4.536   3.685
    7SER     OG   71   4.270   4.418   3.646
    7SER    HG1   72   4.254   4.451   3.557
    7SER      C   73   4.603   4.326   3.800
    7SER      O   74   4.675   4.384   3.878
    8GLY      N   75   4.663   4.246   3.709
    8GLY     HN   76   4.606   4.179   3.662
    8GLY     CA   77   4.807   4.243   3.694
    8GLY    HA1   78   4.832   4.166   3.623
    8GLY    HA2   79   4.853   4.213   3.787
    8GLY      C   80   4.869   4.372   3.651
    8GLY      O   81   4.803   4.452   3.587
    9ASN      N   82   4.991   4.399   3.687
    9ASN     HN   83   5.040   4.338   3.750
    9ASN     CA   84   5.059   4.521   3.636
    9ASN     HA   85   4.994   4.600   3.668
    9ASN     CB   86   5.192   4.541   3.709
    9ASN    HB1   87   5.258   4.454   3.687
    9ASN    HB2   88   5.166   4.528   3.816
    9ASN     CG   89   5.270   4.674   3.698
    9ASN    OD1   90   5.377   4.666   3.638
    9ASN    ND2   91   5.218   4.786   3.739
    9ASN   HD21   92   5.252   4.874   3.706
    9ASN   HD22   93   5.138   4.781   3.798
    9ASN      C   94   5.093   4.515   3.489
    9ASN      O   95   5.162   4.416   3.454
   10PRO      N   96   5.061   4.609   3.397
   10PRO     CD   97   4.957   4.712   3.421
   10PRO    HD1   98   4.998   4.778   3.500
   10PRO    HD2   99   4.858   4.667   3.445
   10PRO     CA  100   5.112   4.613   3.256
   10PRO     HA  101   5.047   4.556   3.191
   10PRO     CB  102   5.078   4.757   3.221
   10PRO    HB1  103   5.078   4.772   3.111
   10PRO    HB2  104   5.148   4.827   3.272
   10PRO     CG  105   4.948   4.783   3.285
   10PRO    HG1  106   4.924   4.891   3.288
   10PRO    HG2  107   4.867   4.735   3.226
   10PRO      C  108   5.252   4.559   3.220
   10PRO      O  109   5.352   4.605   3.276
   11GLY      N  110   5.260   4.462   3.128
   11GLY     HN  111   5.171   4.438   3.091
   11GLY     CA  112   5.375   4.388   3.066
   11GLY    HA1  113   5.328   4.300   3.025
   11GLY    HA2  114   5.443   4.343   3.136
   11GLY      C  115   5.456   4.454   2.963
   11GLY      O  116   5.440   4.573   2.934
   12SER      N  117   5.540   4.373   2.908
   12SER     HN  118   5.554   4.278   2.935
   12SER     CA  119   5.631   4.420   2.802
   12SER     HA  120   5.644   4.527   2.813
   12SER     CB  121   5.774   4.372   2.813
   12SER    HB1  122   5.839   4.391   2.725
   12SER    HB2  123   5.775   4.261   2.822
   12SER     OG  124   5.844   4.423   2.926
   12SER    HG1  125   5.842   4.519   2.918
   12SER      C  126   5.597   4.387   2.660
   12SER      O  127   5.572   4.276   2.625
   13GLY      N  128   5.590   4.496   2.576
   13GLY     HN  129   5.592   4.588   2.613
   13GLY     CA  130   5.554   4.482   2.436
   13GLY    HA1  131   5.527   4.583   2.410
   13GLY    HA2  132   5.471   4.413   2.440
   13GLY      C  133   5.652   4.420   2.344
   13GLY      O  134   5.768   4.398   2.378
   14ASP      N  135   5.607   4.382   2.227
   14ASP     HN  136   5.524   4.420   2.186
   14ASP     CA  137   5.684   4.322   2.120
   14ASP     HA  138   5.717   4.230   2.167
   14ASP     CB  139   5.619   4.285   1.984
   14ASP    HB1  140   5.682   4.226   1.915
   14ASP    HB2  141   5.589   4.372   1.921
   14ASP     CG  142   5.487   4.210   2.004
   14ASP    OD1  143   5.447   4.171   2.115
   14ASP    OD2  144   5.413   4.197   1.899
   14ASP      C  145   5.812   4.410   2.092
   14ASP      O  146   5.792   4.533   2.078
   15PRO      N  147   5.935   4.351   2.079
   15PRO     CD  148   5.964   4.213   2.100
   15PRO    HD1  149   5.909   4.153   2.023
   15PRO    HD2  150   5.913   4.180   2.193
   15PRO     CA  151   6.061   4.429   2.080
   15PRO     HA  152   6.033   4.521   2.130
   15PRO     CB  153   6.155   4.335   2.157
   15PRO    HB1  154   6.132   4.351   2.264
   15PRO    HB2  155   6.265   4.351   2.153
   15PRO     CG  156   6.118   4.200   2.106
   15PRO    HG1  157   6.153   4.178   2.003
   15PRO    HG2  158   6.158   4.131   2.183
   15PRO      C  159   6.110   4.466   1.942
   15PRO    OT1  160   6.075   4.398   1.841
   15PRO    OT2  161   6.185   4.565   1.928
   16LIT    LIT  162   3.461   3.780   4.382
   17LIT    LIT  163   6.729   3.861   1.950
   18LIT    LIT  164   5.282   1.771   1.455
   19LIT    LIT  165   4.075   4.966   3.703
   20LIT    LIT  166   6.100   7.222   4.121
   21LIT    LIT  167   2.550   1.984   3.554
   22LIT    LIT  168   5.194   1.695   6.372
   23LIT    LIT  169   7.258   6.749   6.365
   24LIT    LIT  170   0.141   7.694   3.138
   25LIT    LIT  171   3.085   7.759   4.458
   26LIT    LIT  172   2.505   3.414   3.214
   27LIT    LIT  173   8.089   1.194   4.467
   28LIT    LIT  174   5.795   2.462   2.660
   29LIT    LIT  175   6.676   0.719   3.833
   30LIT    LIT  176   3.609   2.943   0.248
   31LIT    LIT  177   6.329   7.562   1.918
   32LIT    LIT  178   0.242   1.326   4.652
   33LIT    LIT  179   1.950   6.979   1.112
   34LIT    LIT  180   5.412   5.687   5.500
   35LIT    LIT  181   3.359   0.606   6.119
   36LIT    LIT  182   6.836   0.128   2.404
   37LIT    LIT  183   1.863   3.633   0.777
   38LIT    LIT  184   4.807   5.438   4.820
   39LIT    LIT  185   3.829   2.243   4.835
   40LIT    LIT  186   8.273   6.192   2.969
   41LIT    LIT  187   6.203   4.499   1.738
   42LIT    LIT  188   4.400   4.859   0.823
   43LIT    LIT  189   2.449   0.963   2.762
   44LIT    LIT  190   0.391   1.016   1.178
   45LIT    LIT  191   3.041   2.254   1.313
   46LIT    LIT  192   4.061   4.204   0.568
   47LIT    LIT  193   4.124   1.318   1.079
   48LIT    LIT  194   0.834   5.577   4.810
   49LIT    LIT  195   5.290   4.103   2.005
   50LIT    LIT  196   4.582   0.494   2.182
   51LIT    LIT  197   3.640   3.825   5.915
   52LIT    LIT  198   7.028   1.987   6.704
   53LIT    LIT  199   0.576   5.824   1.590
   54LIT    LIT  200   1.263   7.051   4.360
   55LIT    LIT  201   7.167   7.528   5.618
   56LIT    LIT  202   6.127   7.656   4.702
   57LIT    LIT  203   0.287   1.154   3.088
   58LIT    LIT  204   7.731   3.049   1.214
   59LIT    LIT  205   3.266   5.947   1.423
   60CLA    CLA  206   6.799   6.704   2.932
   61CLA    CLA  207   0.125   5.558   5.107
   62CLA    CLA  208   7.013   5.416   1.711
   63CLA    CLA  209   1.028   1.623   0.361
   64CLA    CLA  210   1.819   2.349   3.979
   65CLA    CLA  211   4.564   2.250   0.972
   66CLA    CLA  212   3.621   2.612   4.705
   67CLA    CLA  213   8.166   0.636   6.581
   68CLA    CLA  214   7.993   0.866   3.939
   69CLA    CLA  215   6.615   6.988   5.928
   70CLA    CLA  216   2.858   5.072   1.215
   71CLA    CLA  217   4.341   2.062   2.462
   72CLA    CLA  218   1.716   1.960   1.772
   73CLA    CLA  219   4.131   5.843   3.655
   74CLA    CLA  220   3.962   5.144   0.522
   75CLA    CLA  221   4.235   3.952   3.500
   76CLA    CLA  222   3.998   6.016   4.823
   77CLA    CLA  223   4.844   5.284   5.494
   78CLA    CLA  224   7.271   2.602   1.056
   79CLA    CLA  225   5.962   7.734   1.041
   80CLA    CLA  226   1.400   7.212   1.261
   81CLA    CLA  227   0.199   1.153   2.877
   82CLA    CLA  228   2.007   5.427   0.241
   83CLA    CLA  229   6.711   4.459   3.962
   84CLA    CLA  230   5.200   2.177   6.061
   85CLA    CLA  231   7.309   0.205   0.649
   86CLA    CLA  232   7.068   2.808   2.285
   87CLA    CLA  233   0.041   1.642   3.135
   88CLA    CLA  234   3.239   0.298   0.511
   89CLA    CLA  235   0.674   2.358   6.226
   90CLA    CLA  236   3.504   1.633   3.364
   91CLA    CLA  237   5.369   1.031   2.295
   92CLA    CLA  238   1.852   3.279   6.750
   93CLA    CLA  239   3.344   3.140   3.596
   94CLA    CLA  240   4.181   5.065   5.653
   95CLA    CLA  241   7.706   2.990   1.436
   96CLA    CLA  242   6.041   0.040   4.350
   97CLA    CLA  243   3.730   3.256   2.406
   98CLA    CLA  244   0.749   4.586   5.033
   99CLA    CLA  245   6.480   7.262   6.601
  100CLA    CLA  246   8.059   5.552   2.020
  101CLA    CLA  247   4.884   2.744   1.082
  102TIP3   OH2  248   3.050   3.159   1.482
  102TIP3    H1  249   3.140   3.151   1.513
  102TIP3    H2  250   3.001   3.190   1.558
  103TIP3   OH2  251   6.568   0.017   3.978
  103TIP3    H1  252   6.533   0.003   4.066
  103TIP3    H2  253   6.523  -0.048   3.924
  104TIP3   OH2  254   6.673   1.859   6.446
  104TIP3    H1  255   6.680   1.906   6.363
  104TIP3    H2  256   6.641   1.924   6.508
  105TIP3   OH2  257   0.482   7.542   2.272
  105TIP3    H1  258   0.408   7.570   2.325
  105TIP3    H2  259   0.541   7.499   2.334
  106TIP3   OH2  260   5.443   1.007   0.488
  106TIP3    H1  261   5.500   1.082   0.506
  106TIP3    H2  262   5.465   0.982   0.399
  107TIP3   OH2  263   3.824   1.537   0.058
  107TIP3    H1  264   3.855   1.525  -0.032
  107TIP3    H2  265   3.893   1.502   0.113
  108TIP3   OH2  266   0.983   6.295   5.453
  108TIP3    H1  267   1.024   6.372   5.415
  108TIP3    H2  268   0.907   6.329   5.500
  109TIP3   OH2  269   8.217   4.767   6.427
  109TIP3    H1  270   8.242   4.778   6.519
  109TIP3    H2  271   8.275   4.826   6.379
  110TIP3   OH2  272   6.115   2.310   2.937
  110TIP3    H1  273   6.135   2.346   3.024
  110TIP3    H2  274   6.197   2.317   2.889
  111TIP3   OH2  275   6.973   3.372   5.669
  111TIP3    H1  276   6.991   3.278   5.672
  111TIP3    H2  277   7.028   3.404   5.597
  112TIP3   OH2  278   0.486   6.056   4.104
  112TIP3    H1  279   0.573   6.038   4.069
  112TIP3    H2  280   0.472   5.986   4.169
  113TIP3   OH2  281   6.579   2.361   0.462
  113TIP3    H1  282   6.598   2.394   0.550
  113TIP3    H2  283   6.545   2.273   0.476
  114TIP3   OH2  284   7.346   2.414   4.051
  114TIP3    H1  285   7.404   2.446   3.982
  114TIP3    H2  286   7.258   2.431   4.018
  115TIP3   OH2  287   1.024   6.153   0.946
  115TIP3    H1  288   0.960   6.178   1.012
  115TIP3    H2  289   0.977   6.095   0.886
  116TIP3   OH2  290   3.272   4.504   1.402
  116TIP3    H1  291   3.299   4.414   1.422
  116TIP3    H2  292   3.242   4.539   1.486
  117TIP3   OH2  293   3.563   4.907   4.958
  117TIP3    H1  294   3.562   4.852   4.880
  117TIP3    H2  295   3.616   4.858   5.021
  118TIP3   OH2  296   1.877   3.562   1.424
  118TIP3    H1  297   1.847   3.652   1.437
  118TIP3    H2  298   1.843   3.514   1.499
  119TIP3   OH2  299   2.942   5.380   0.812
  119TIP3    H1  300   2.882   5.448   0.845
  119TIP3    H2  301   3.024   5.426   0.798
  120TIP3   OH2  302   1.776   2.901   5.110
  120TIP3    H1  303   1.714   2.930   5.177
  120TIP3    H2  304   1.787   2.977   5.053
  121TIP3   OH2  305   7.074   2.878   4.628
  121TIP3    H1  306   7.038   2.794   4.655
  121TIP3    H2  307   7.000   2.923   4.586
  122TIP3   OH2  308   0.937   5.855   1.406
  122TIP3    H1  309   0.917   5.858   1.313
  122TIP3    H2  310   1.026   5.889   1.413
  123TIP3   OH2  311   7.539   6.325   1.672
  123TIP3    H1  312   7.621   6.281   1.652
  123TIP3    H2  313   7.540   6.337   1.767
  124TIP3   OH2  314   1.286   6.945   2.213
  124TIP3    H1  315   1.237   6.989   2.144
  124TIP3    H2  316   1.219   6.901   2.266
  125TIP3   OH2  317   7.268   5.999   5.342
  125TIP3    H1  318   7.246   5.955   5.260
  125TIP3    H2  319   7.184   6.011   5.386
  126TIP3   OH2  320   7.957   6.002   4.465
  126TIP3    H1  321   7.961   5.973   4.556
  126TIP3    H2  322   8.048   6.001   4.435
  127TIP3   OH2  323   7.232   1.231   4.068
  127TIP3    H1  324   7.237   1.160   4.004
  127TIP3    H2  325   7.321   1.265   4.074
  128TIP3   OH2  326   3.492   7.663   2.727
  128TIP3    H1  327   3.466   7.640   2.816
  128TIP3    H2  328   3.519   7.580   2.688
  129TIP3   OH2  329   4.273   7.796   5.398
  129TIP3    H1  330   4.206   7.850   5.440
  129TIP3    H2  331   4.324   7.857   5.346
  130TIP3   OH2  332   7.113   1.266   0.799
  130TIP3    H1  333   7.144   1.204   0.733
  130TIP3    H2  334   7.019   1.271   0.785
  131TIP3   OH2  335   0.464   2.422   0.582
  131TIP3    H1  336   0.412   2.427   0.662
  131TIP3    H2  337   0.419   2.480   0.521
  132TIP3   OH2  338   1.405   5.917   4.867
  132TIP3    H1  339   1.440   5.907   4.955
  132TIP3    H2  340   1.310   5.909   4.877
  133TIP3   OH2  341   6.131   5.641   5.702
  133TIP3    H1  342   6.105   5.557   5.737
  133TIP3    H2  343   6.064   5.663   5.637
  134TIP3   OH2  344   6.261   2.815   3.524
  134TIP3    H1  345   6.339   2.837   3.475
  134TIP3    H2  346   6.265   2.720   3.535
  135TIP3   OH2  347   8.112   0.388   5.404
  135TIP3    H1  348   8.119   0.293   5.412
  135TIP3    H2  349   8.200   0.421   5.424
  136TIP3   OH2  350   3.993   6.246   4.289
  136TIP3    H1  351   3.968   6.209   4.373
  136TIP3    H2  352   3.950   6.190   4.224
  137TIP3   OH2  353   2.192   1.478   4.662
  137TIP3    H1  354   2.229   1.396   4.631
  137TIP3    H2  355   2.148   1.516   4.586
  138TIP3   OH2  356   3.302   7.263   4.550
  138TIP3    H1  357   3.249   7.241   4.473
  138TIP3    H2  358   3.238   7.296   4.613
  139TIP3   OH2  359   5.183   4.571   5.641
  139TIP3    H1  360   5.256   4.530   5.595
  139TIP3    H2  361   5.124   4.498   5.662
  140TIP3   OH2  362   1.204   6.363   4.138
  140TIP3    H1  363   1.171   6.297   4.078
  140TIP3    H2  364   1.230   6.436   4.082
  141TIP3   OH2  365   4.322   7.253   0.549
  141TIP3    H1  366   4.395   7.273   0.490
  141TIP3    H2  367   4.256   7.319   0.530
  142TIP3   OH2  368   1.952   2.880   4.440
  142TIP3    H1  369   2.024   2.818   4.454
  142TIP3    H2  370   1.886   2.828   4.393
  143TIP3   OH2  371   5.897   1.915   2.187
  143TIP3    H1  372   5.842   1.953   2.255
  143TIP3    H2  373   5.865   1.825   2.177
  144TIP3   OH2  374   6.597   7.129   4.592
  144TIP3    H1  375   6.559   7.114   4.679
  144TIP3    H2  376   6.663   7.196   4.605
  145TIP3   OH2  377   3.706   4.576   0.407
  145TIP3    H1  378   3.783   4.552   0.459
  145TIP3    H2  379   3.680   4.662   0.441
  146TIP3   OH2  380   5.159   1.480   2.150
  146TIP3    H1  381   5.227   1.416   2.131
  146TIP3    H2  382   5.205   1.564   2.155
  147TIP3   OH2  383   3.305   0.075   3.735
  147TIP3    H1  384   3.382   0.069   3.678
  147TIP3    H2  385   3.246   0.136   3.690
  148TIP3   OH2  386   5.150   0.977   6.093
  148TIP3    H1  387   5.170   0.925   6.015
  148TIP3    H2  388   5.190   1.062   6.076
  149TIP3   OH2  389   1.695   1.693   5.152
  149TIP3    H1  390   1.686   1.660   5.242
  149TIP3    H2  391   1.768   1.643   5.116
  150TIP3   OH2  392   0.225   0.847   5.979
  150TIP3    H1  393   0.159   0.876   6.043
  150TIP3    H2  394   0.214   0.906   5.905
  151TIP3   OH2  395   5.751   6.586   2.522
  151TIP3    H1  396   5.835   6.548   2.549
  151TIP3    H2  397   5.699   6.590   2.602
  152TIP3   OH2  398   4.197   3.100   4.536
  152TIP3    H1  399   4.242   3.015   4.526
  152TIP3    H2  400   4.121   3.094   4.478
  153TIP3   OH2  401   0.167   4.357   2.631
  153TIP3    H1  402   0.074   4.366   2.652
  153TIP3    H2  403   0.205   4.442   2.651
  154TIP3   OH2  404   2.817   1.001   1.102
  154TIP3    H1  405   2.783   0.933   1.043
  154TIP3    H2  406   2.911   0.999   1.089
  155TIP3   OH2  407   2.177   7.237   1.967
  155TIP3    H1  408   2.189   7.331   1.958
  155TIP3    H2  409   2.169   7.205   1.877
  156TIP3   OH2  410   4.519   2.024   0.742
  156TIP3    H1  411   4.493   2.108   0.780
  156TIP3    H2  412   4.521   1.964   0.816
  157TIP3   OH2  413   7.816   6.392   0.804
  157TIP3    H1  414   7.857   6.477   0.821
  157TIP3    H2  415   7.808   6.389   0.708
  158TIP3   OH2  416   3.146   5.149   5.257
  158TIP3    H1  417   3.176   5.078   5.314
  158TIP3    H2  418   3.166   5.229   5.305
  159TIP3   OH2  419   7.388   4.181   4.718
  159TIP3    H1  420   7.476   4.150   4.740
  159TIP3    H2  421   7.386   4.177   4.622
  160TIP3   OH2  422   3.165   3.512   1.613
  160TIP3    H1  423   3.195   3.432   1.657
  160TIP3    H2  424   3.071   3.514   1.629
  161TIP3   OH2  425   0.752   6.925   5.580
  161TIP3    H1  426   0.750   7.021   5.590
  161TIP3    H2  427   0.663   6.897   5.602
  162TIP3   OH2  428   1.138   5.327   3.867
  162TIP3    H1  429   1.168   5.371   3.946
  162TIP3    H2  430   1.199   5.354   3.799
  163TIP3   OH2  431   3.770   1.932   1.649
  163TIP3    H1  432   3.849   1.981   1.669
  163TIP3    H2  433   3.800   1.856   1.599
  164TIP3   OH2  434   3.255   6.036   0.974
  164TIP3    H1  435   3.258   6.045   0.879
  164TIP3    H2  436   3.346   6.020   1.000
  165TIP3   OH2  437   4.551   1.660   1.995
  165TIP3    H1  438   4.529   1.616   2.078
  165TIP3    H2  439   4.624   1.717   2.017
  166TIP3   OH2  440   7.702   3.183   6.720
  166TIP3    H1  441   7.688   3.148   6.632
  166TIP3    H2  442   7.748   3.114   6.766
  167TIP3   OH2  443   0.991   0.270   1.388
  167TIP3    H1  444   1.034   0.228   1.313
  167TIP3    H2  445   1.058   0.272   1.456
  168TIP3   OH2  446   3.872   1.135   3.024
  168TIP3    H1  447   3.825   1.142   3.107
  168TIP3    H2  448   3.803   1.136   2.957
  169TIP3   OH2  449   4.001   7.474   6.032
  169TIP3    H1  450   3.948   7.541   5.987
  169TIP3    H2  451   4.019   7.409   5.964
  170TIP3   OH2  452   3.044   7.801   0.869
  170TIP3    H1  453   3.107   7.813   0.940
  170TIP3    H2  454   2.970   7.755   0.910
  171TIP3   OH2  455   8.017   5.463   0.157
  171TIP3    H1  456   7.923   5.479   0.170
  171TIP3    H2  457   8.040   5.517   0.081
  172TIP3   OH2  458   2.518   2.216   1.570
  172TIP3    H1  459   2.446   2.248   1.625
  172TIP3    H2  460   2.507   2.263   1.487
  173TIP3   OH2  461   1.797   1.376   2.389
  173TIP3    H1  462   1.807   1.454   2.334
  173TIP3    H2  463   1.706   1.380   2.419
  174TIP3   OH2  464   3.581   1.083   4.717
  174TIP3    H1  465   3.651   1.045   4.770
  174TIP3    H2  466   3.504   1.029   4.735
  175TIP3   OH2  467   4.148   1.326   5.512
  175TIP3    H1  468   4.128   1.390   5.443
  175TIP3    H2  469   4.133   1.373   5.594
  176TIP3   OH2  470   3.709   1.883   5.191
  176TIP3    H1  471   3.713   1.967   5.237
  176TIP3    H2  472   3.616   1.863   5.186
  177TIP3   OH2  473   7.028   0.152   4.130
  177TIP3    H1  474   7.016   0.096   4.053
  177TIP3    H2  475   7.122   0.169   4.134
  178TIP3   OH2  476   7.008   4.820   5.078
  178TIP3    H1  477   7.004   4.912   5.102
  178TIP3    H2  478   7.027   4.820   4.984
  179TIP3   OH2  479   2.698   5.832   3.582
  179TIP3    H1  480   2.760   5.848   3.653
  179TIP3    H2  481   2.703   5.910   3.527
  180TIP3   OH2  482   3.653   3.417   4.337
  180TIP3    H1  483   3.609   3.499   4.314
  180TIP3    H2  484   3.600   3.380   4.408
  181TIP3   OH2  485   2.482   5.128   3.867
  181TIP3    H1  486   2.482   5.202   3.927
  181TIP3    H2  487   2.548   5.151   3.801
  182TIP3   OH2  488   0.424   3.723   4.599
  182TIP3    H1  489   0.337   3.709   4.635
  182TIP3    H2  490   0.460   3.635   4.589
  183TIP3   OH2  491   5.613   3.116   4.028
  183TIP3    H1  492   5.588   3.171   4.102
  183TIP3    H2  493   5.549   3.137   3.959
  184TIP3   OH2  494   4.408   1.609   3.348
  184TIP3    H1  495   4.432   1.622   3.440
  184TIP3    H2  496   4.483   1.562   3.310
  185TIP3   OH2  497   4.684   6.099   6.068
  185TIP3    H1  498   4.673   6.101   6.163
  185TIP3    H2  499   4.633   6.023   6.039
  186TIP3   OH2  500   3.150   2.420   3.149
  186TIP3    H1  501   3.159   2.330   3.181
  186TIP3    H2  502   3.235   2.440   3.110
  187TIP3   OH2  503   7.951   5.449   1.158
  187TIP3    H1  504   7.948   5.466   1.252
  187TIP3    H2  505   8.042   5.460   1.134
  188TIP3   OH2  506   5.040   1.624   6.483
  188TIP3    H1  507   5.030   1.547   6.538
  188TIP3    H2  508   4.960   1.627   6.431
  189TIP3   OH2  509   5.099   1.443   0.599
  189TIP3    H1  510   5.119   1.533   0.627
  189TIP3    H2  511   5.098   1.447   0.504
  190TIP3   OH2  512   1.048   6.442   2.550
  190TIP3    H1  513   1.073   6.503   2.619
  190TIP3    H2  514   1.078   6.484   2.469
  191TIP3   OH2  515   1.252   2.416   4.104
  191TIP3    H1  516   1.180   2.368   4.062
  191TIP3    H2  517   1.213   2.458   4.180
  192TIP3   OH2  518   6.036   1.916   0.035
  192TIP3    H1  519   5.960   1.930   0.090
  192TIP3    H2  520   6.086   1.847   0.080
  193TIP3   OH2  521   0.425   6.453   6.601
  193TIP3    H1  522   0.519   6.439   6.592
  193TIP3    H2  523   0.386   6.370   6.573
  194TIP3   OH2  524   6.968   6.970   1.923
  194TIP3    H1  525   6.875   6.975   1.945
  194TIP3    H2  526   6.970   6.979   1.828
  195TIP3   OH2  527   2.460   0.248   4.685
  195TIP3    H1  528   2.542   0.283   4.721
  195TIP3    H2  529   2.476   0.153   4.678
  196TIP3   OH2  530   6.171   6.656   5.763
  196TIP3    H1  531   6.107   6.688   5.827
  196TIP3    H2  532   6.123   6.589   5.714
  197TIP3   OH2  533   5.696   5.015   1.732
  197TIP3    H1  534   5.704   5.106   1.762
  197TIP3    H2  535   5.610   5.012   1.689
  198TIP3   OH2  536   5.633   6.438   3.003
  198TIP3    H1  537   5.576   6.413   3.075
  198TIP3    H2  538   5.676   6.357   2.976
  199TIP3   OH2  539   0.340   7.428   2.899
  199TIP3    H1  540   0.434   7.449   2.892
  199TIP3    H2  541   0.307   7.436   2.810
  200TIP3   OH2  542   3.691   0.018   6.047
  200TIP3    H1  543   3.635   0.057   6.115
  200TIP3    H2  544   3.735   0.094   6.007
  201TIP3   OH2  545   1.344   6.754   2.836
  201TIP3    H1  546   1.252   6.779   2.826
  201TIP3    H2  547   1.391   6.808   2.773
  202TIP3   OH2  548   7.953   4.051   3.894
  202TIP3    H1  549   7.930   4.133   3.851
  202TIP3    H2  550   7.876   4.029   3.947
  203TIP3   OH2  551   8.122   0.435   4.110
  203TIP3    H1  552   8.191   0.437   4.044
  203TIP3    H2  553   8.098   0.342   4.117
  204TIP3   OH2  554   4.597   0.557   0.879
  204TIP3    H1  555   4.691   0.571   0.888
  204TIP3    H2  556   4.567   0.630   0.824
  205TIP3   OH2  557   4.127   3.802   3.222
  205TIP3    H1  558   4.041   3.818   3.184
  205TIP3    H2  559   4.127   3.854   3.303
  206TIP3   OH2  560   2.334   5.067   0.372
  206TIP3    H1  561   2.270   5.137   0.369
  206TIP3    H2  562   2.385   5.083   0.452
  207TIP3   OH2  563   5.351   1.538   5.604
  207TIP3    H1  564   5.329   1.625   5.573
  207TIP3    H2  565   5.444   1.543   5.627
  208TIP3   OH2  566   4.051   0.381   2.280
  208TIP3    H1  567   4.028   0.445   2.212
  208TIP3    H2  568   4.141   0.402   2.303
  209TIP3   OH2  569   3.142   6.024   5.044
  209TIP3    H1  570   3.055   6.018   5.003
  209TIP3    H2  571   3.128   6.073   5.124
  210TIP3   OH2  572   4.652   1.446   6.249
  210TIP3    H1  573   4.735   1.482   6.215
  210TIP3    H2  574   4.676   1.362   6.287
  211TIP3   OH2  575   2.683   2.360   4.346
  211TIP3    H1  576   2.743   2.341   4.273
  211TIP3    H2  577   2.657   2.451   4.333
  212TIP3   OH2  578   2.989   4.459   1.185
  212TIP3    H1  579   2.979   4.553   1.171
  212TIP3    H2  580   3.084   4.445   1.182
  213TIP3   OH2  581   7.497   1.281   3.057
  213TIP3    H1  582   7.449   1.199   3.050
  213TIP3    H2  583   7.446   1.334   3.119
  214TIP3   OH2  584   2.474   0.425   6.165
  214TIP3    H1  585   2.541   0.478   6.121
  214TIP3    H2  586   2.395   0.479   6.160
  215TIP3   OH2  587   6.122   6.859   6.350
  215TIP3    H1  588   6.192   6.819   6.298
  215TIP3    H2  589   6.041   6.829   6.309
  216TIP3   OH2  590   5.277   7.455   4.955
  216TIP3    H1  591   5.296   7.495   4.870
  216TIP3    H2  592   5.351   7.398   4.972
  217TIP3   OH2  593   7.133   5.285   5.204
  217TIP3    H1  594   7.229   5.284   5.209
  217TIP3    H2  595   7.113   5.321   5.117
  218TIP3   OH2  596   6.785   1.494   2.396
  218TIP3    H1  597   6.727   1.555   2.350
  218TIP3    H2  598   6.762   1.408   2.362
  219TIP3   OH2  599   1.539   6.553   4.027
  219TIP3    H1  600   1.594   6.615   4.076
  219TIP3    H2  601   1.449   6.580   4.046
  220TIP3   OH2  602   2.753   2.304   1.653
  220TIP3    H1  603   2.688   2.241   1.622
  220TIP3    H2  604   2.702   2.369   1.701
  221TIP3   OH2  605   6.313   2.289   4.020
  221TIP3    H1  606   6.349   2.220   3.965
  221TIP3    H2  607   6.229   2.254   4.052
  222TIP3   OH2  608   4.313   2.202   3.709
  222TIP3    H1  609   4.273   2.286   3.686
  222TIP3    H2  610   4.255   2.136   3.671
  223TIP3   OH2  611   7.329   7.748   1.654
  223TIP3    H1  612   7.342   7.822   1.594
  223TIP3    H2  613   7.276   7.785   1.725
  224TIP3   OH2  614   2.161   2.683   4.468
  224TIP3    H1  615   2.241   2.631   4.480
  224TIP3    H2  616   2.090   2.624   4.493
  225TIP3   OH2  617   6.637   0.928   0.608
  225TIP3    H1  618   6.702   0.915   0.540
  225TIP3    H2  619   6.605   0.840   0.628
  226TIP3   OH2  620   3.836   2.788   4.235
  226TIP3    H1  621   3.752   2.785   4.280
  226TIP3    H2  622   3.820   2.744   4.152
  227TIP3   OH2  623   0.066   6.473   1.052
  227TIP3    H1  624   0.146   6.517   1.079
  227TIP3    H2  625  -0.004   6.536   1.073
  228TIP3   OH2  626   7.961   0.903   5.142
  228TIP3    H1  627   8.033   0.920   5.203
  228TIP3    H2  628   8.005   0.878   5.061
  229TIP3   OH2  629   6.700   2.042   4.059
  229TIP3    H1  630   6.711   2.028   4.153
  229TIP3    H2  631   6.788   2.064   4.027
  230TIP3   OH2  632   3.485   5.314   5.219
  230TIP3    H1  633   3.487   5.223   5.249
  230TIP3    H2  634   3.438   5.310   5.135
  231TIP3   OH2  635   5.300   0.980   1.975
  231TIP3    H1  636   5.330   1.061   1.935
  231TIP3    H2  637   5.322   0.990   2.068
  232TIP3   OH2  638   2.484   5.125   5.580
  232TIP3    H1  639   2.463   5.159   5.493
  232TIP3    H2  640   2.572   5.156   5.598
  233TIP3   OH2  641   7.580   4.703   4.155
  233TIP3    H1  642   7.587   4.765   4.228
  233TIP3    H2  643   7.488   4.677   4.155
  234TIP3   OH2  644   5.248   2.514   6.354
  234TIP3    H1  645   5.323   2.469   6.391
  234TIP3    H2  646   5.188   2.445   6.327
  235TIP3   OH2  647   7.221   6.887   0.672
  235TIP3    H1  648   7.236   6.937   0.592
  235TIP3    H2  649   7.165   6.943   0.726
  236TIP3   OH2  650   6.497   0.028   6.186
  236TIP3    H1  651   6.491  -0.017   6.270
  236TIP3    H2  652   6.413   0.010   6.143
  237TIP3   OH2  653   1.704   3.537   4.824
  237TIP3    H1  654   1.699   3.543   4.919
  237TIP3    H2  655   1.794   3.509   4.806
  238TIP3   OH2  656   4.744   7.561   1.877
  238TIP3    H1  657   4.651   7.582   1.867
  238TIP3    H2  658   4.779   7.635   1.927
  239TIP3   OH2  659   4.069   5.103   0.815
  239TIP3    H1  660   4.036   5.095   0.725
  239TIP3    H2  661   4.124   5.181   0.813
  240TIP3   OH2  662   3.779   3.394   5.897
  240TIP3    H1  663   3.858   3.406   5.843
  240TIP3    H2  664   3.720   3.343   5.842
  241TIP3   OH2  665   0.167   3.105   1.262
  241TIP3    H1  666   0.162   3.105   1.166
  241TIP3    H2  667   0.111   3.177   1.289
  242TIP3   OH2  668   7.920   3.528   1.805
  242TIP3    H1  669   7.962   3.471   1.740
  242TIP3    H2  670   7.974   3.517   1.883
  243TIP3   OH2  671   2.711   0.777   2.536
  243TIP3    H1  672   2.681   0.750   2.449
  243TIP3    H2  673   2.800   0.742   2.543
  244TIP3   OH2  674   5.068   6.252   5.542
  244TIP3    H1  675   5.077   6.167   5.585
  244TIP3    H2  676   5.010   6.235   5.468
  245TIP3   OH2  677   7.995   6.213   3.335
  245TIP3    H1  678   8.048   6.292   3.348
  245TIP3    H2  679   7.947   6.203   3.417
  246TIP3   OH2  680   1.633   0.674   4.443
  246TIP3    H1  681   1.601   0.735   4.377
  246TIP3    H2  682   1.642   0.591   4.397
  247TIP3   OH2  683   1.277   0.500   4.676
  247TIP3    H1  684   1.318   0.485   4.590
  247TIP3    H2  685   1.183   0.488   4.659
  248TIP3   OH2  686   2.644   4.398   3.525
  248TIP3    H1  687   2.611   4.311   3.498
  248TIP3    H2  688   2.674   4.385   3.614
  249TIP3   OH2  689   0.712   3.983   6.175
  249TIP3    H1  690   0.796   3.949   6.207
  249TIP3    H2  691   0.654   3.908   6.174
  250TIP3   OH2  692   0.270   6.374   3.203
  250TIP3    H1  693   0.209   6.425   3.256
  250TIP3    H2  694   0.284   6.294   3.253
  251TIP3   OH2  695   4.476   1.664   1.154
  251TIP3    H1  696   4.445   1.754   1.158
  251TIP3    H2  697   4.477   1.635   1.245
  252TIP3   OH2  698   1.063   6.876   1.078
  252TIP3    H1  699   1.027   6.864   1.166
  252TIP3    H2  700   1.138   6.934   1.091
  253TIP3   OH2  701   6.408   2.334   2.008
  253TIP3    H1  702   6.343   2.346   2.078
  253TIP3    H2  703   6.482   2.389   2.035
  254TIP3   OH2  704   7.091   6.018   3.240
  254TIP3    H1  705   7.026   6.043   3.306
  254TIP3    H2  706   7.167   6.072   3.261
  255TIP3   OH2  707   0.072   6.188   3.842
  255TIP3    H1  708   0.028   6.115   3.799
  255TIP3    H2  709   0.145   6.148   3.889
  256TIP3   OH2  710   7.163   0.973   4.650
  256TIP3    H1  711   7.187   1.047   4.595
  256TIP3    H2  712   7.104   0.920   4.596
  257TIP3   OH2  713   4.302   2.325   5.155
  257TIP3    H1  714   4.335   2.390   5.093
  257TIP3    H2  715   4.289   2.375   5.236
  258TIP3   OH2  716   3.093   5.034   3.291
  258TIP3    H1  717   3.181   4.996   3.287
  258TIP3    H2  718   3.101   5.117   3.244
  259TIP3   OH2  719   3.923   5.057   1.046
  259TIP3    H1  720   3.970   5.097   0.973
  259TIP3    H2  721   3.873   5.130   1.084
  260TIP3   OH2  722   1.838   1.627   1.252
  260TIP3    H1  723   1.899   1.650   1.323
  260TIP3    H2  724   1.769   1.693   1.257
  261TIP3   OH2  725   7.140   1.107   0.159
  261TIP3    H1  726   7.183   1.179   0.114
  261TIP3    H2  727   7.051   1.106   0.124
  262TIP3   OH2  728   2.290   7.463   0.591
  262TIP3    H1  729   2.351   7.537   0.592
  262TIP3    H2  730   2.335   7.395   0.540
  263TIP3   OH2  731   3.989   5.690   5.242
  263TIP3    H1  732   3.988   5.786   5.243
  263TIP3    H2  733   3.927   5.665   5.310
  264TIP3   OH2  734   5.116   2.242   3.736
  264TIP3    H1  735   5.187   2.239   3.799
  264TIP3    H2  736   5.039   2.210   3.784
  265TIP3   OH2  737   2.437   1.678   4.501
  265TIP3    H1  738   2.402   1.735   4.569
  265TIP3    H2  739   2.522   1.717   4.479
  266TIP3   OH2  740   5.545   1.308   2.684
  266TIP3    H1  741   5.527   1.356   2.604
  266TIP3    H2  742   5.581   1.224   2.654
  267TIP3   OH2  743   7.571   3.024   4.807
  267TIP3    H1  744   7.525   2.941   4.818
  267TIP3    H2  745   7.536   3.080   4.876
  268TIP3   OH2  746   7.833   6.308   4.595
  268TIP3    H1  747   7.881   6.322   4.677
  268TIP3    H2  748   7.763   6.247   4.618
  269TIP3   OH2  749   5.402   3.566   1.665
  269TIP3    H1  750   5.447   3.489   1.631
  269TIP3    H2  751   5.448   3.640   1.626
  270TIP3   OH2  752   5.013   2.195   0.783
  270TIP3    H1  753   5.076   2.205   0.854
  270TIP3    H2  754   4.930   2.179   0.827
  271TIP3   OH2  755   5.195   3.402   4.673
  271TIP3    H1  756   5.167   3.398   4.582
  271TIP3    H2  757   5.226   3.492   4.684
  272TIP3   OH2  758   4.550   0.840   5.909
  272TIP3    H1  759   4.581   0.930   5.921
  272TIP3    H2  760   4.593   0.811   5.829
  273TIP3   OH2  761   3.387   0.640   2.185
  273TIP3    H1  762   3.332   0.631   2.107
  273TIP3    H2  763   3.345   0.585   2.250
  274TIP3   OH2  764   2.490   4.693   0.580
  274TIP3    H1  765   2.496   4.764   0.516
  274TIP3    H2  766   2.577   4.652   0.578
  275TIP3   OH2  767   2.321   2.896   4.601
  275TIP3    H1  768   2.274   2.850   4.532
  275TIP3    H2  769   2.411   2.902   4.570
  276TIP3   OH2  770   3.981   0.859   0.213
  276TIP3    H1  771   3.962   0.924   0.146
  276TIP3    H2  772   3.920   0.878   0.284
  277TIP3   OH2  773   6.336   7.106   5.817
  277TIP3    H1  774   6.338   7.186   5.869
  277TIP3    H2  775   6.422   7.066   5.832
  278TIP3   OH2  776   1.213   4.848   6.250
  278TIP3    H1  777   1.291   4.900   6.228
  278TIP3    H2  778   1.139   4.900   6.218
  279TIP3   OH2  779   1.781   0.493   3.174
  279TIP3    H1  780   1.846   0.537   3.120
  279TIP3    H2  781   1.743   0.562   3.228
  280TIP3   OH2  782   2.175   1.114   6.070
  280TIP3    H1  783   2.132   1.199   6.077
  280TIP3    H2  784   2.123   1.056   6.126
  281TIP3   OH2  785   3.697   5.342   0.532
  281TIP3    H1  786   3.792   5.333   0.538
  281TIP3    H2  787   3.673   5.292   0.455
  282TIP3   OH2  788   4.777   0.337   2.552
  282TIP3    H1  789   4.855   0.288   2.577
  282TIP3    H2  790   4.801   0.384   2.472
  283TIP3   OH2  791   7.459   2.015   0.394
  283TIP3    H1  792   7.514   2.086   0.427
  283TIP3    H2  793   7.453   1.953   0.466
  284TIP3   OH2  794   0.144   5.900   1.382
  284TIP3    H1  795   0.051   5.911   1.405
  284TIP3    H2  796   0.162   5.973   1.323
  285TIP3   OH2  797   3.304   2.832   0.580
  285TIP3    H1  798   3.266   2.796   0.660
  285TIP3    H2  799   3.231   2.840   0.519
  286TIP3   OH2  800   5.954   6.957   2.701
  286TIP3    H1  801   5.932   6.920   2.786
  286TIP3    H2  802   5.982   6.882   2.649
  287TIP3   OH2  803   5.421   1.780   5.414
  287TIP3    H1  804   5.510   1.758   5.386
  287TIP3    H2  805   5.411   1.872   5.390
  288TIP3   OH2  806   6.507   6.244   2.655
  288TIP3    H1  807   6.566   6.316   2.634
  288TIP3    H2  808   6.564   6.176   2.692
  289TIP3   OH2  809   3.811   5.775   2.807
  289TIP3    H1  810   3.723   5.768   2.770
  289TIP3    H2  811   3.817   5.702   2.868
  290TIP3   OH2  812   6.234   5.820   3.377
  290TIP3    H1  813   6.285   5.875   3.318
  290TIP3    H2  814   6.210   5.877   3.449
  291TIP3   OH2  815   5.841   5.129   1.141
  291TIP3    H1  816   5.803   5.042   1.155
  291TIP3    H2  817   5.873   5.127   1.051
  292TIP3   OH2  818   5.585   0.797   2.658
  292TIP3    H1  819   5.607   0.746   2.580
  292TIP3    H2  820   5.632   0.753   2.729
  293TIP3   OH2  821   0.392   5.740   2.913
  293TIP3    H1  822   0.405   5.826   2.953
  293TIP3    H2  823   0.298   5.724   2.920
  294TIP3   OH2  824   6.090   1.565   5.976
  294TIP3    H1  825   6.176   1.581   6.015
  294TIP3    H2  826   6.090   1.471   5.958
  295TIP3   OH2  827   6.750   7.713   3.956
  295TIP3    H1  828   6.832   7.741   3.998
  295TIP3    H2  829   6.706   7.661   4.024
  296TIP3   OH2  830   6.620   0.263   5.437
  296TIP3    H1  831   6.605   0.265   5.342
  296TIP3    H2  832   6.696   0.206   5.448
  297TIP3   OH2  833   4.969   4.716   6.238
  297TIP3    H1  834   5.012   4.750   6.317
  297TIP3    H2  835   4.917   4.642   6.270
  298TIP3   OH2  836   3.509   4.223   0.040
  298TIP3    H1  837   3.510   4.269  -0.044
  298TIP3    H2  838   3.438   4.265   0.089
  299TIP3   OH2  839   1.829   4.058   2.026
  299TIP3    H1  840   1.874   4.101   1.954
  299TIP3    H2  841   1.895   4.000   2.064
  300TIP3   OH2  842   5.860   0.827   3.723
  300TIP3    H1  843   5.902   0.745   3.696
  300TIP3    H2  844   5.932   0.880   3.757
  301TIP3   OH2  845   7.028   3.587   4.071
  301TIP3    H1  846   6.980   3.634   4.139
  301TIP3    H2  847   7.119   3.586   4.102
  302TIP3   OH2  848   5.622   0.155   3.880
  302TIP3    H1  849   5.659   0.180   3.795
  302TIP3    H2  850   5.596   0.238   3.920
  303TIP3   OH2  851   5.760   6.633   4.946
  303TIP3    H1  852   5.697   6.656   5.014
  303TIP3    H2  853   5.707   6.590   4.878
  304TIP3   OH2  854   4.770   3.636   1.429
  304TIP3    H1  855   4.761   3.595   1.343
  304TIP3    H2  856   4.825   3.576   1.479
  305TIP3   OH2  857   7.611   3.259   2.917
  305TIP3    H1  858   7.605   3.247   3.011
  305TIP3    H2  859   7.683   3.202   2.890
  306TIP3   OH2  860   4.293   7.141   0.034
  306TIP3    H1  861   4.284   7.236   0.042
  306TIP3    H2  862   4.385   7.127   0.016
  307TIP3   OH2  863   4.909   2.264   3.321
  307TIP3    H1  864   4.963   2.211   3.379
  307TIP3    H2  865   4.855   2.317   3.379
  308TIP3   OH2  866   6.050   3.561   6.544
  308TIP3    H1  867   6.082   3.650   6.530
  308TIP3    H2  868   6.107   3.526   6.612
  309TIP3   OH2  869   6.191   1.683   4.357
  309TIP3    H1  870   6.151   1.656   4.439
  309TIP3    H2  871   6.180   1.608   4.298
  310TIP3   OH2  872   5.955   6.896   2.063
  310TIP3    H1  873   5.921   6.967   2.010
  310TIP3    H2  874   5.996   6.837   2.000
  311TIP3   OH2  875   5.867   7.463   0.684
  311TIP3    H1  876   5.890   7.391   0.625
  311TIP3    H2  877   5.787   7.433   0.728
  312TIP3   OH2  878   7.836   0.548   0.787
  312TIP3    H1  879   7.749   0.565   0.824
  312TIP3    H2  880   7.818   0.504   0.703
  313TIP3   OH2  881   3.524   2.859   0.751
  313TIP3    H1  882   3.475   2.877   0.831
  313TIP3    H2  883   3.460   2.875   0.681
  314TIP3   OH2  884   7.799   6.800   0.250
  314TIP3    H1  885   7.859   6.874   0.245
  314TIP3    H2  886   7.855   6.723   0.255
  315TIP3   OH2  887   4.102   4.529   0.009
  315TIP3    H1  888   4.148   4.531   0.093
  315TIP3    H2  889   4.015   4.495   0.030
  316TIP3   OH2  890   5.258   0.361   1.866
  316TIP3    H1  891   5.308   0.337   1.788
  316TIP3    H2  892   5.193   0.424   1.835
  317TIP3   OH2  893   8.004   7.697   0.495
  317TIP3    H1  894   7.939   7.740   0.550
  317TIP3    H2  895   8.077   7.679   0.554
  318TIP3   OH2  896   2.149   0.878   4.227
  318TIP3    H1  897   2.200   0.937   4.172
  318TIP3    H2  898   2.213   0.835   4.282
  319TIP3   OH2  899   0.082   4.000   5.668
  319TIP3    H1  900  -0.009   4.006   5.639
  319TIP3    H2  901   0.126   3.947   5.601
  320TIP3   OH2  902   2.346   2.307   1.777
  320TIP3    H1  903   2.256   2.304   1.744
  320TIP3    H2  904   2.335   2.323   1.871
  321TIP3   OH2  905   0.315   4.570   1.766
  321TIP3    H1  906   0.276   4.547   1.851
  321TIP3    H2  907   0.328   4.485   1.723
  322TIP3   OH2  908   4.255   0.651   5.752
  322TIP3    H1  909   4.301   0.596   5.815
  322TIP3    H2  910   4.283   0.740   5.772
  323TIP3   OH2  911   5.307   5.225   1.858
  323TIP3    H1  912   5.363   5.272   1.920
  323TIP3    H2  913   5.363   5.155   1.823
  324TIP3   OH2  914   2.095   2.346   0.973
  324TIP3    H1  915   2.056   2.261   0.953
  324TIP3    H2  916   2.157   2.362   0.902
  325TIP3   OH2  917   0.880   5.891   6.017
  325TIP3    H1  918   0.972   5.903   5.995
  325TIP3    H2  919   0.864   5.952   6.089
  326TIP3   OH2  920   6.334   1.777   2.344
  326TIP3    H1  921   6.314   1.801   2.254
  326TIP3    H2  922   6.249   1.769   2.387
  327TIP3   OH2  923   7.631   0.327   2.122
  327TIP3    H1  924   7.696   0.309   2.053
  327TIP3    H2  925   7.637   0.251   2.181
  328TIP3   OH2  926   0.447   0.618   2.342
  328TIP3    H1  927   0.519   0.679   2.326
  328TIP3    H2  928   0.398   0.617   2.259
  329TIP3   OH2  929   0.093   2.870   5.637
  329TIP3    H1  930   0.064   2.881   5.546
  329TIP3    H2  931   0.019   2.901   5.689
  330TIP3   OH2  932   6.195   3.894   2.713
  330TIP3    H1  933   6.271   3.945   2.683
  330TIP3    H2  934   6.145   3.878   2.633
  331TIP3   OH2  935   0.946   5.416   4.800
  331TIP3    H1  936   1.032   5.400   4.760
  331TIP3    H2  937   0.934   5.343   4.860
  332TIP3   OH2  938   7.556   6.050   1.848
  332TIP3    H1  939   7.617   6.042   1.774
  332TIP3    H2  940   7.538   5.960   1.874
  333TIP3   OH2  941   0.549   5.722   1.740
  333TIP3    H1  942   0.475   5.732   1.800
  333TIP3    H2  943   0.601   5.651   1.778
  334TIP3   OH2  944   1.218   7.753   3.846
  334TIP3    H1  945   1.259   7.840   3.841
  334TIP3    H2  946   1.283   7.694   3.807
  335TIP3   OH2  947   7.431   4.937   3.108
  335TIP3    H1  948   7.381   4.906   3.033
  335TIP3    H2  949   7.381   5.010   3.143
  336TIP3   OH2  950   6.257   2.409   5.723
  336TIP3    H1  951   6.165   2.416   5.747
  336TIP3    H2  952   6.257   2.363   5.639
  337TIP3   OH2  953   0.759   3.370   0.435
  337TIP3    H1  954   0.678   3.388   0.484
  337TIP3    H2  955   0.780   3.454   0.394
  338TIP3   OH2  956   0.566   6.210   2.172
  338TIP3    H1  957   0.539   6.172   2.255
  338TIP3    H2  958   0.607   6.138   2.124
  339TIP3   OH2  959   4.712   7.108   0.951
  339TIP3    H1  960   4.709   7.012   0.953
  339TIP3    H2  961   4.653   7.132   0.880
  340TIP3   OH2  962   5.857   3.922   4.660
  340TIP3    H1  963   5.922   3.852   4.668
  340TIP3    H2  964   5.888   3.975   4.586
  341TIP3   OH2  965   2.075   1.413   1.911
  341TIP3    H1  966   2.078   1.501   1.950
  341TIP3    H2  967   2.145   1.365   1.955
  342TIP3   OH2  968   3.918   2.284   1.502
  342TIP3    H1  969   3.907   2.307   1.595
  342TIP3    H2  970   4.004   2.319   1.478
  343TIP3   OH2  971   1.081   3.653   0.757
  343TIP3    H1  972   1.086   3.748   0.772
  343TIP3    H2  973   1.112   3.641   0.668
  344TIP3   OH2  974   3.864   3.362   2.823
  344TIP3    H1  975   3.811   3.308   2.883
  344TIP3    H2  976   3.944   3.380   2.873
  345TIP3   OH2  977   8.065   1.162   5.353
  345TIP3    H1  978   8.128   1.151   5.423
  345TIP3    H2  979   8.118   1.174   5.274
  346TIP3   OH2  980   5.907   5.849   0.505
  346TIP3    H1  981   5.816   5.858   0.536
  346TIP3    H2  982   5.951   5.802   0.575
  347TIP3   OH2  983   4.047   3.261   2.456
  347TIP3    H1  984   3.953   3.266   2.438
  347TIP3    H2  985   4.055   3.283   2.549
  348TIP3   OH2  986   5.618   7.422   4.303
  348TIP3    H1  987   5.640   7.398   4.393
  348TIP3    H2  988   5.679   7.492   4.280
  349TIP3   OH2  989   0.806   4.034   3.419
  349TIP3    H1  990   0.767   4.106   3.470
  349TIP3    H2  991   0.859   3.986   3.482
  350TIP3   OH2  992   1.594   0.744   5.786
  350TIP3    H1  993   1.670   0.799   5.766
  350TIP3    H2  994   1.553   0.787   5.861
  351TIP3   OH2  995   0.776   6.044   3.630
  351TIP3    H1  996   0.703   6.036   3.570
  351TIP3    H2  997   0.774   5.962   3.681
  352TIP3   OH2  998   3.712   6.805   5.987
  352TIP3    H1  999   3.755   6.768   6.064
  352TIP3    H2 1000   3.727   6.899   5.995
  353TIP3   OH2 1001   5.894   6.111   2.058
  353TIP3    H1 1002   5.903   6.068   2.144
  353TIP3    H2 1003   5.984   6.131   2.032
  354TIP3   OH2 1004   7.404   0.727   4.914
  354TIP3    H1 1005   7.313   0.746   4.892
  354TIP3    H2 1006   7.451   0.735   4.831
  355TIP3   OH2 1007   2.052   0.491   0.262
  355TIP3    H1 1008   2.042   0.552   0.336
  355TIP3    H2 1009   1.963   0.475   0.232
  356TIP3   OH2 1010   4.033   1.181   1.740
  356TIP3    H1 1011   3.952   1.230   1.732
  356TIP3    H2 1012   4.100   1.247   1.759
  357TIP3   OH2 1013   4.401   3.117   4.020
  357TIP3    H1 1014   4.400   3.112   4.115
  357TIP3    H2 1015   4.386   3.209   4.000
  358TIP3   OH2 1016   0.447   7.086   4.243
  358TIP3    H1 1017   0.364   7.125   4.215
  358TIP3    H2 1018   0.496   7.159   4.281
  359TIP3   OH2 1019   1.292   2.022   6.442
  359TIP3    H1 1020   1.356   2.056   6.379
  359TIP3    H2 1021   1.252   2.101   6.480
  360TIP3   OH2 1022   3.536   3.482   2.900
  360TIP3    H1 1023   3.592   3.412   2.866
  360TIP3    H2 1024   3.459   3.437   2.935
  361TIP3   OH2 1025   2.358   3.587   0.334
  361TIP3    H1 1026   2.396   3.565   0.250
  361TIP3    H2 1027   2.274   3.627   0.313
  362TIP3   OH2 1028   3.959   1.447   4.350
  362TIP3    H1 1029   3.948   1.353   4.337
  362TIP3    H2 1030   3.875   1.476   4.387
  363TIP3   OH2 1031   4.250   6.470   4.734
  363TIP3    H1 1032   4.214   6.403   4.677
  363TIP3    H2 1033   4.189   6.543   4.727
  364TIP3   OH2 1034   2.075   0.420   0.815
  364TIP3    H1 1035   2.097   0.419   0.722
  364TIP3    H2 1036   2.034   0.334   0.831
  365TIP3   OH2 1037   3.080   6.134   1.855
  365TIP3    H1 1038   3.008   6.072   1.841
  365TIP3    H2 1039   3.153   6.079   1.884
  366TIP3   OH2 1040   1.521   2.442   6.216
  366TIP3    H1 1041   1.590   2.508   6.207
  366TIP3    H2 1042   1.441   2.493   6.232
  367TIP3   OH2 1043   1.209   5.418   4.738
  367TIP3    H1 1044   1.279   5.478   4.711
  367TIP3    H2 1045   1.249   5.331   4.731
  368TIP3   OH2 1046   0.308   4.015   4.831
  368TIP3    H1 1047   0.367   3.967   4.772
  368TIP3    H2 1048   0.229   3.961   4.835
  369TIP3   OH2 1049   2.239   4.776   2.687
  369TIP3    H1 1050   2.290   4.818   2.618
  369TIP3    H2 1051   2.296   4.777   2.764
  370TIP3   OH2 1052   3.125   7.337   6.328
  370TIP3    H1 1053   3.102   7.359   6.237
  370TIP3    H2 1054   3.062   7.386   6.381
  371TIP3   OH2 1055   5.390   2.560   3.512
  371TIP3    H1 1056   5.304   2.521   3.497
  371TIP3    H2 1057   5.376   2.654   3.496
  372TIP3   OH2 1058   2.315   1.471   0.320
  372TIP3    H1 1059   2.408   1.461   0.302
  372TIP3    H2 1060   2.275   1.484   0.233
  373TIP3   OH2 1061   8.220   6.924   3.820
  373TIP3    H1 1062   8.292   6.863   3.837
  373TIP3    H2 1063   8.184   6.944   3.907
  374TIP3   OH2 1064   4.036   0.687   3.823
  374TIP3    H1 1065   4.123   0.714   3.853
  374TIP3    H2 1066   4.053   0.617   3.761
  375TIP3   OH2 1067   1.862   1.240   1.525
  375TIP3    H1 1068   1.879   1.332   1.545
  375TIP3    H2 1069   1.948   1.198   1.529
  376TIP3   OH2 1070   7.704   7.534   1.917
  376TIP3    H1 1071   7.622   7.489   1.938
  376TIP3    H2 1072   7.707   7.607   1.979
  377TIP3   OH2 1073   6.342   1.509   5.021
  377TIP3    H1 1074   6.355   1.550   5.107
  377TIP3    H2 1075   6.358   1.416   5.037
  378TIP3   OH2 1076   3.628   1.070   5.696
  378TIP3    H1 1077   3.641   1.012   5.771
  378TIP3    H2 1078   3.710   1.064   5.647
  379TIP3   OH2 1079   2.878   0.706   2.860
  379TIP3    H1 1080   2.931   0.667   2.790
  379TIP3    H2 1081   2.912   0.795   2.868
  380TIP3   OH2 1082   4.608   4.593   3.430
  380TIP3    H1 1083   4.624   4.525   3.364
  380TIP3    H2 1084   4.666   4.570   3.503
  381TIP3   OH2 1085   4.674   2.835   4.642
  381TIP3    H1 1086   4.646   2.835   4.550
  381TIP3    H2 1087   4.714   2.921   4.655
  382TIP3   OH2 1088   1.766   5.872   3.542
  382TIP3    H1 1089   1.691   5.813   3.531
  382TIP3    H2 1090   1.798   5.888   3.454
  383TIP3   OH2 1091   1.538   7.467   5.770
  383TIP3    H1 1092   1.599   7.429   5.706
  383TIP3    H2 1093   1.452   7.444   5.737
  384TIP3   OH2 1094   4.281   1.537   6.734
  384TIP3    H1 1095   4.277   1.616   6.680
  384TIP3    H2 1096   4.253   1.466   6.676
  385TIP3   OH2 1097   6.664   6.629   5.581
  385TIP3    H1 1098   6.743   6.672   5.613
  385TIP3    H2 1099   6.605   6.629   5.656
  386TIP3   OH2 1100   2.607   5.166   1.075
  386TIP3    H1 1101   2.676   5.109   1.109
  386TIP3    H2 1102   2.527   5.133   1.114
  387TIP3   OH2 1103   4.087   1.064   1.491
  387TIP3    H1 1104   4.019   0.997   1.482
  387TIP3    H2 1105   4.107   1.066   1.584
  388TIP3   OH2 1106   1.204   3.250   3.990
  388TIP3    H1 1107   1.293   3.282   4.009
  388TIP3    H2 1108   1.180   3.294   3.909
  389TIP3   OH2 1109   7.584   2.440   3.559
  389TIP3    H1 1110   7.571   2.509   3.624
  389TIP3    H2 1111   7.596   2.487   3.477
  390TIP3   OH2 1112   2.599   3.368   3.866
  390TIP3    H1 1113   2.685   3.370   3.907
  390TIP3    H2 1114   2.584   3.276   3.845
  391TIP3   OH2 1115   1.712   0.023   4.100
  391TIP3    H1 1116   1.760  -0.042   4.152
  391TIP3    H2 1117   1.702  -0.018   4.014
  392TIP3   OH2 1118   7.268   2.232   0.760
  392TIP3    H1 1119   7.215   2.156   0.784
  392TIP3    H2 1120   7.220   2.307   0.793
  393TIP3   OH2 1121   1.927   6.565   5.670
  393TIP3    H1 1122   1.838   6.597   5.681
  393TIP3    H2 1123   1.979   6.643   5.652
  394TIP3   OH2 1124   6.764   1.888   0.524
  394TIP3    H1 1125   6.811   1.969   0.502
  394TIP3    H2 1126   6.703   1.914   0.593
  395TIP3   OH2 1127   2.240   6.036   0.368
  395TIP3    H1 1128   2.154   6.067   0.395
  395TIP3    H2 1129   2.235   5.940   0.377
  396TIP3   OH2 1130   5.578   7.608   5.294
  396TIP3    H1 1131   5.634   7.531   5.308
  396TIP3    H2 1132   5.493   7.581   5.328
  397TIP3   OH2 1133   7.602   0.038   6.418
  397TIP3    H1 1134   7.619   0.119   6.371
  397TIP3    H2 1135   7.663  -0.026   6.381
  398TIP3   OH2 1136   6.903   7.349   3.623
  398TIP3    H1 1137   6.973   7.287   3.602
  398TIP3    H2 1138   6.865   7.371   3.538
  399TIP3   OH2 1139   6.124   4.153   4.179
  399TIP3    H1 1140   6.084   4.137   4.094
  399TIP3    H2 1141   6.186   4.081   4.190
  400TIP3   OH2 1142   6.597   0.230   3.229
  400TIP3    H1 1143   6.562   0.142   3.217
  400TIP3    H2 1144   6.684   0.217   3.265
  401TIP3   OH2 1145   2.535   7.162   3.694
  401TIP3    H1 1146   2.473   7.164   3.622
  401TIP3    H2 1147   2.500   7.094   3.753
  402TIP3   OH2 1148   0.785   3.940   6.732
  402TIP3    H1 1149   0.848   3.879   6.769
  402TIP3    H2 1150   0.776   3.912   6.641
  403TIP3   OH2 1151   0.385   1.160   4.677
  403TIP3    H1 1152   0.478   1.148   4.694
  403TIP3    H2 1153   0.362   1.088   4.619
  404TIP3   OH2 1154   3.288   7.409   3.148
  404TIP3    H1 1155   3.366   7.356   3.166
  404TIP3    H2 1156   3.255   7.432   3.235
  405TIP3   OH2 1157   4.002   3.964   0.272
  405TIP3    H1 1158   3.988   3.872   0.253
  405TIP3    H2 1159   3.961   3.979   0.357
  406TIP3   OH2 1160   0.563   7.523   1.980
  406TIP3    H1 1161   0.539   7.571   2.059
  406TIP3    H2 1162   0.637   7.572   1.944
  407TIP3   OH2 1163   1.236   4.195   2.889
  407TIP3    H1 1164   1.231   4.118   2.833
  407TIP3    H2 1165   1.148   4.203   2.926
  408TIP3   OH2 1166   7.503   6.319   1.951
  408TIP3    H1 1167   7.541   6.231   1.956
  408TIP3    H2 1168   7.450   6.327   2.030
  409TIP3   OH2 1169   0.649   5.433   0.887
  409TIP3    H1 1170   0.740   5.430   0.856
  409TIP3    H2 1171   0.635   5.525   0.909
  410TIP3   OH2 1172   5.103   2.606   5.969
  410TIP3    H1 1173   5.043   2.535   5.991
  410TIP3    H2 1174   5.104   2.608   5.874
  411TIP3   OH2 1175   1.646   1.222   2.176
  411TIP3    H1 1176   1.612   1.179   2.255
  411TIP3    H2 1177   1.718   1.276   2.208
  412TIP3   OH2 1178   6.443   5.508   4.466
  412TIP3    H1 1179   6.465   5.589   4.420
  412TIP3    H2 1180   6.411   5.450   4.398
  413TIP3   OH2 1181   2.261   1.585   4.309
  413TIP3    H1 1182   2.177   1.587   4.355
  413TIP3    H2 1183   2.325   1.615   4.375
  414TIP3   OH2 1184   5.289   4.551   5.991
  414TIP3    H1 1185   5.328   4.555   5.903
  414TIP3    H2 1186   5.313   4.634   6.031
  415TIP3   OH2 1187   3.449   2.906   6.451
  415TIP3    H1 1188   3.381   2.970   6.470
  415TIP3    H2 1189   3.448   2.896   6.356
  416TIP3   OH2 1190   1.371   5.345   0.171
  416TIP3    H1 1191   1.369   5.335   0.266
  416TIP3    H2 1192   1.280   5.360   0.146
  417TIP3   OH2 1193   2.990   4.160   0.751
  417TIP3    H1 1194   2.898   4.170   0.775
  417TIP3    H2 1195   2.989   4.106   0.672
  418TIP3   OH2 1196   0.245   3.888   3.519
  418TIP3    H1 1197   0.189   3.869   3.443
  418TIP3    H2 1198   0.332   3.862   3.491
  419TIP3   OH2 1199   1.123   7.003   0.061
  419TIP3    H1 1200   1.173   6.935   0.015
  419TIP3    H2 1201   1.170   7.084   0.042
  420TIP3   OH2 1202   1.546   2.799   6.606
  420TIP3    H1 1203   1.642   2.796   6.605
  420TIP3    H2 1204   1.524   2.829   6.694
  421TIP3   OH2 1205   2.870   2.639   4.596
  421TIP3    H1 1206   2.884   2.544   4.594
  421TIP3    H2 1207   2.913   2.667   4.676
  422TIP3   OH2 1208   1.027   5.114   5.344
  422TIP3    H1 1209   0.935   5.111   5.316
  422TIP3    H2 1210   1.051   5.022   5.354
  423TIP3   OH2 1211   0.766   7.182   2.172
  423TIP3    H1 1212   0.813   7.255   2.212
  423TIP3    H2 1213   0.805   7.104   2.210
  424TIP3   OH2 1214   6.023   2.657   6.272
  424TIP3    H1 1215   6.103   2.611   6.244
  424TIP3    H2 1216   5.981   2.684   6.190
  425TIP3   OH2 1217   4.250   7.606   3.056
  425TIP3    H1 1218   4.319   7.567   3.002
  425TIP3    H2 1219   4.218   7.534   3.110
  426TIP3   OH2 1220   3.815   5.971   3.031
  426TIP3    H1 1221   3.815   6.057   2.990
  426TIP3    H2 1222   3.807   5.910   2.957
  427TIP3   OH2 1223   5.202   3.322   3.250
  427TIP3    H1 1224   5.134   3.332   3.184
  427TIP3    H2 1225   5.224   3.412   3.276
  428TIP3   OH2 1226   7.650   2.379   0.250
  428TIP3    H1 1227   7.676   2.425   0.170
  428TIP3    H2 1228   7.691   2.293   0.242
  429TIP3   OH2 1229   6.336   4.693   4.793
  429TIP3    H1 1230   6.306   4.631   4.727
  429TIP3    H2 1231   6.426   4.666   4.813
  430TIP3   OH2 1232   5.341   6.051   2.708
  430TIP3    H1 1233   5.256   6.068   2.667
  430TIP3    H2 1234   5.319   6.016   2.794
  431TIP3   OH2 1235   4.470   4.356   2.075
  431TIP3    H1 1236   4.396   4.396   2.119
  431TIP3    H2 1237   4.528   4.429   2.053
  432TIP3   OH2 1238   1.318   3.821   3.138
  432TIP3    H1 1239   1.225   3.826   3.115
  432TIP3    H2 1240   1.348   3.739   3.098
  433TIP3   OH2 1241   4.939   7.693   2.866
  433TIP3    H1 1242   4.904   7.649   2.944
  433TIP3    H2 1243   4.932   7.627   2.797
  434TIP3   OH2 1244   2.058   4.830   2.883
  434TIP3    H1 1245   2.059   4.738   2.912
  434TIP3    H2 1246   2.111   4.830   2.803
  435TIP3   OH2 1247   6.824   1.320   4.763
  435TIP3    H1 1248   6.906   1.361   4.791
  435TIP3    H2 1249   6.758   1.388   4.776
  436TIP3   OH2 1250   5.938   6.992   5.788
  436TIP3    H1 1251   6.028   6.973   5.815
  436TIP3    H2 1252   5.926   7.085   5.806
  437TIP3   OH2 1253   5.746   1.523   3.165
  437TIP3    H1 1254   5.780   1.593   3.110
  437TIP3    H2 1255   5.670   1.561   3.208
  438TIP3   OH2 1256   1.485   2.671   1.384
  438TIP3    H1 1257   1.404   2.695   1.429
  438TIP3    H2 1258   1.469   2.698   1.293
  439TIP3   OH2 1259   0.193   7.308   6.150
  439TIP3    H1 1260   0.273   7.266   6.118
  439TIP3    H2 1261   0.122   7.259   6.110
  440TIP3   OH2 1262   7.297   6.793   1.069
  440TIP3    H1 1263   7.215   6.836   1.044
  440TIP3    H2 1264   7.336   6.767   0.985
  441TIP3   OH2 1265   6.093   3.754   0.338
  441TIP3    H1 1266   6.100   3.716   0.425
  441TIP3    H2 1267   6.000   3.747   0.316
  442TIP3   OH2 1268   5.070   7.135   1.914
  442TIP3    H1 1269   5.056   7.229   1.914
  442TIP3    H2 1270   5.143   7.121   1.975
  443TIP3   OH2 1271   3.219   3.431   2.860
  443TIP3    H1 1272   3.186   3.384   2.783
  443TIP3    H2 1273   3.279   3.496   2.824
  444TIP3   OH2 1274   6.201   7.039   2.168
  444TIP3    H1 1275   6.248   7.050   2.085
  444TIP3    H2 1276   6.116   7.004   2.144
  445TIP3   OH2 1277   2.989   7.192   3.117
  445TIP3    H1 1278   2.897   7.210   3.100
  445TIP3    H2 1279   3.035   7.232   3.042
  446TIP3   OH2 1280   5.076   1.883   4.927
  446TIP3    H1 1281   5.008   1.920   4.871
  446TIP3    H2 1282   5.151   1.869   4.869
  447TIP3   OH2 1283   1.884   0.060   4.462
  447TIP3    H1 1284   1.892   0.148   4.425
  447TIP3    H2 1285   1.974   0.034   4.482
  448TIP3   OH2 1286   0.037   0.164   2.919
  448TIP3    H1 1287  -0.022   0.150   2.845
  448TIP3    H2 1288   0.121   0.187   2.879
  449TIP3   OH2 1289   5.508   6.380   5.197
  449TIP3    H1 1290   5.571   6.376   5.268
  449TIP3    H2 1291   5.423   6.372   5.240
  450TIP3   OH2 1292   7.832   1.335   1.002
  450TIP3    H1 1293   7.745   1.362   1.031
  450TIP3    H2 1294   7.858   1.401   0.937
  451TIP3   OH2 1295   4.138   5.420   0.052
  451TIP3    H1 1296   4.087   5.361   0.107
  451TIP3    H2 1297   4.183   5.477   0.115
  452TIP3   OH2 1298   6.664   3.436   3.742
  452TIP3    H1 1299   6.628   3.457   3.828
  452TIP3    H2 1300   6.600   3.472   3.680
  453TIP3   OH2 1301   2.567   4.443   4.352
  453TIP3    H1 1302   2.494   4.427   4.293
  453TIP3    H2 1303   2.558   4.535   4.377
  454TIP3   OH2 1304   2.236   6.879   6.365
  454TIP3    H1 1305   2.235   6.879   6.269
  454TIP3    H2 1306   2.274   6.794   6.388
  455TIP3   OH2 1307   3.503   5.471   5.461
  455TIP3    H1 1308   3.468   5.558   5.441
  455TIP3    H2 1309   3.500   5.424   5.378
  456TIP3   OH2 1310   6.860   6.185   5.572
  456TIP3    H1 1311   6.850   6.278   5.550
  456TIP3    H2 1312   6.803   6.172   5.648
  457TIP3   OH2 1313   7.519   7.007   4.074
  457TIP3    H1 1314   7.520   6.912   4.061
  457TIP3    H2 1315   7.470   7.020   4.155
  458TIP3   OH2 1316   6.131   2.874   5.603
  458TIP3    H1 1317   6.045   2.872   5.644
  458TIP3    H2 1318   6.185   2.818   5.659
  459TIP3   OH2 1319   7.894   5.718   1.321
  459TIP3    H1 1320   7.847   5.758   1.394
  459TIP3    H2 1321   7.933   5.639   1.358
  460TIP3   OH2 1322   5.118   6.436   0.556
  460TIP3    H1 1323   5.060   6.406   0.485
  460TIP3    H2 1324   5.059   6.453   0.629
  461TIP3   OH2 1325   6.609   3.184   3.302
  461TIP3    H1 1326   6.622   3.262   3.247
  461TIP3    H2 1327   6.644   3.112   3.250
  462TIP3   OH2 1328   4.868   2.154   4.254
  462TIP3    H1 1329   4.777   2.183   4.263
  462TIP3    H2 1330   4.920   2.226   4.289
  463TIP3   OH2 1331   2.635   2.031   4.827
  463TIP3    H1 1332   2.686   1.968   4.878
  463TIP3    H2 1333   2.651   2.115   4.871
  464TIP3   OH2 1334   5.292   1.690   6.706
  464TIP3    H1 1335   5.366   1.684   6.645
  464TIP3    H2 1336   5.242   1.766   6.675
  465TIP3   OH2 1337   3.247   2.251   2.170
  465TIP3    H1 1338   3.198   2.211   2.241
  465TIP3    H2 1339   3.219   2.206   2.091
  466TIP3   OH2 1340   5.827   1.441   0.427
  466TIP3    H1 1341   5.872   1.525   0.422
  466TIP3    H2 1342   5.897   1.376   0.428
  467TIP3   OH2 1343   3.396   6.628   6.441
  467TIP3    H1 1344   3.367   6.701   6.497
  467TIP3    H2 1345   3.453   6.670   6.376
  468TIP3   OH2 1346   2.988   3.230   5.611
  468TIP3    H1 1347   3.075   3.231   5.650
  468TIP3    H2 1348   2.928   3.244   5.685
  469TIP3   OH2 1349   0.092   3.530   6.148
  469TIP3    H1 1350   0.043   3.500   6.225
  469TIP3    H2 1351   0.028   3.580   6.097
  470TIP3   OH2 1352   4.562   5.482   3.377
  470TIP3    H1 1353   4.594   5.513   3.462
  470TIP3    H2 1354   4.571   5.559   3.319
  471TIP3   OH2 1355   0.541   7.236   0.214
  471TIP3    H1 1356   0.553   7.246   0.308
  471TIP3    H2 1357   0.446   7.242   0.201
  472TIP3   OH2 1358   5.705   6.890   6.098
  472TIP3    H1 1359   5.785   6.849   6.129
  472TIP3    H2 1360   5.634   6.842   6.141
  473TIP3   OH2 1361   3.831   2.500   2.661
  473TIP3    H1 1362   3.871   2.541   2.737
  473TIP3    H2 1363   3.903   2.489   2.599
  474TIP3   OH2 1364   3.964   6.357   3.035
  474TIP3    H1 1365   3.979   6.344   2.942
  474TIP3    H2 1366   3.873   6.329   3.049
  475TIP3   OH2 1367   1.673   3.213   1.215
  475TIP3    H1 1368   1.752   3.266   1.224
  475TIP3    H2 1369   1.703   3.123   1.218
  476TIP3   OH2 1370   6.997   4.308   6.504
  476TIP3    H1 1371   6.913   4.320   6.461
  476TIP3    H2 1372   7.051   4.380   6.472
  477TIP3   OH2 1373   0.427   3.218   1.102
  477TIP3    H1 1374   0.428   3.179   1.190
  477TIP3    H2 1375   0.361   3.168   1.054
  478TIP3   OH2 1376   6.152   6.831   1.155
  478TIP3    H1 1377   6.136   6.748   1.109
  478TIP3    H2 1378   6.195   6.804   1.237
  479TIP3   OH2 1379   0.773   0.309   2.032
  479TIP3    H1 1380   0.811   0.228   1.998
  479TIP3    H2 1381   0.686   0.284   2.062
  480TIP3   OH2 1382   2.349   0.175   2.768
  480TIP3    H1 1383   2.390   0.229   2.700
  480TIP3    H2 1384   2.322   0.096   2.722
  481TIP3   OH2 1385   5.743   3.941   3.662
  481TIP3    H1 1386   5.814   3.902   3.610
  481TIP3    H2 1387   5.686   3.983   3.597
  482TIP3   OH2 1388   5.519   5.660   5.677
  482TIP3    H1 1389   5.519   5.574   5.719
  482TIP3    H2 1390   5.535   5.722   5.748
  483TIP3   OH2 1391   5.192   5.616   0.145
  483TIP3    H1 1392   5.122   5.671   0.181
  483TIP3    H2 1393   5.149   5.532   0.127
  484TIP3   OH2 1394   3.577   1.163   1.992
  484TIP3    H1 1395   3.577   1.083   2.045
  484TIP3    H2 1396   3.513   1.220   2.036
  485TIP3   OH2 1397   6.684   5.070   3.213
  485TIP3    H1 1398   6.655   5.133   3.279
  485TIP3    H2 1399   6.670   4.984   3.253
  486TIP3   OH2 1400   2.074   7.218   5.168
  486TIP3    H1 1401   2.042   7.304   5.197
  486TIP3    H2 1402   2.156   7.206   5.215
  487TIP3   OH2 1403   3.699   4.583   2.531
  487TIP3    H1 1404   3.756   4.602   2.457
  487TIP3    H2 1405   3.698   4.664   2.582
  488TIP3   OH2 1406   3.040   0.500   3.528
  488TIP3    H1 1407   3.119   0.543   3.558
  488TIP3    H2 1408   3.046   0.501   3.432
  489TIP3   OH2 1409   0.283   4.445   3.274
  489TIP3    H1 1410   0.199   4.460   3.230
  489TIP3    H2 1411   0.289   4.349   3.282
  490TIP3   OH2 1412   8.134   4.011   2.927
  490TIP3    H1 1413   8.177   4.094   2.947
  490TIP3    H2 1414   8.100   3.980   3.011
  491TIP3   OH2 1415   5.694   1.297   0.959
  491TIP3    H1 1416   5.684   1.332   0.870
  491TIP3    H2 1417   5.788   1.304   0.977
  492TIP3   OH2 1418   0.679   3.529   6.274
  492TIP3    H1 1419   0.718   3.455   6.227
  492TIP3    H2 1420   0.661   3.495   6.361
  493TIP3   OH2 1421   2.732   5.612   5.055
  493TIP3    H1 1422   2.823   5.587   5.038
  493TIP3    H2 1423   2.680   5.540   5.020
  494TIP3   OH2 1424   4.567   2.037   3.988
  494TIP3    H1 1425   4.595   2.009   3.900
  494TIP3    H2 1426   4.505   2.107   3.972
  495TIP3   OH2 1427   1.393   0.985   1.880
  495TIP3    H1 1428   1.358   1.052   1.822
  495TIP3    H2 1429   1.401   0.907   1.825
  496TIP3   OH2 1430   4.654   2.196   5.490
  496TIP3    H1 1431   4.672   2.194   5.584
  496TIP3    H2 1432   4.559   2.191   5.483
  497TIP3   OH2 1433   2.403   5.488   3.282
  497TIP3    H1 1434   2.359   5.571   3.303
  497TIP3    H2 1435   2.458   5.470   3.358
  498TIP3   OH2 1436   4.381   3.249   5.386
  498TIP3    H1 1437   4.316   3.274   5.321
  498TIP3    H2 1438   4.370   3.313   5.457
  499TIP3   OH2 1439   2.178   4.958   1.636
  499TIP3    H1 1440   2.127   5.008   1.699
  499TIP3    H2 1441   2.117   4.938   1.565
  500TIP3   OH2 1442   6.815   7.653   1.564
  500TIP3    H1 1443   6.780   7.646   1.475
  500TIP3    H2 1444   6.905   7.622   1.557
  501TIP3   OH2 1445   0.347   7.310   3.988
  501TIP3    H1 1446   0.258   7.327   3.958
  501TIP3    H2 1447   0.337   7.291   4.082
  502TIP3   OH2 1448   7.305   2.680   3.214
  502TIP3    H1 1449   7.210   2.680   3.216
  502TIP3    H2 1450   7.330   2.592   3.244
  503TIP3   OH2 1451   8.233   0.546   0.511
  503TIP3    H1 1452   8.258   0.517   0.599
  503TIP3    H2 1453   8.224   0.641   0.518
  504TIP3   OH2 1454   3.639   1.941   3.709
  504TIP3    H1 1455   3.555   1.924   3.753
  504TIP3    H2 1456   3.684   2.001   3.768
  505TIP3   OH2 1457   2.786   4.970   5.065
  505TIP3    H1 1458   2.800   4.880   5.094
  505TIP3    H2 1459   2.765   4.963   4.972
  506TIP3   OH2 1460   2.497   6.936   5.968
  506TIP3    H1 1461   2.526   6.866   6.026
  506TIP3    H2 1462   2.414   6.965   6.005
  507TIP3   OH2 1463   3.438   3.659   5.235
  507TIP3    H1 1464   3.362   3.612   5.200
  507TIP3    H2 1465   3.505   3.650   5.168
  508TIP3   OH2 1466   2.271   5.449   1.922
  508TIP3    H1 1467   2.317   5.368   1.943
  508TIP3    H2 1468   2.338   5.507   1.886
  509TIP3   OH2 1469   3.361   0.231   4.385
  509TIP3    H1 1470   3.321   0.301   4.437
  509TIP3    H2 1471   3.451   0.261   4.371
  510TIP3   OH2 1472   5.257   3.592   0.264
  510TIP3    H1 1473   5.189   3.599   0.331
  510TIP3    H2 1474   5.245   3.670   0.209
  511TIP3   OH2 1475   5.990   6.697   0.206
  511TIP3    H1 1476   5.907   6.691   0.159
  511TIP3    H2 1477   6.033   6.774   0.168
  512TIP3   OH2 1478   7.306   4.655   2.989
  512TIP3    H1 1479   7.379   4.643   3.049
  512TIP3    H2 1480   7.228   4.655   3.044
  513TIP3   OH2 1481   7.847   4.626   2.169
  513TIP3    H1 1482   7.886   4.615   2.256
  513TIP3    H2 1483   7.757   4.597   2.180
  514TIP3   OH2 1484   5.453   4.750   1.003
  514TIP3    H1 1485   5.392   4.683   0.972
  514TIP3    H2 1486   5.442   4.823   0.942
  515TIP3   OH2 1487   7.879   5.026   4.957
  515TIP3    H1 1488   7.850   5.108   4.918
  515TIP3    H2 1489   7.913   5.050   5.043
  516TIP3   OH2 1490   5.101   0.259   5.333
  516TIP3    H1 1491   5.106   0.164   5.320
  516TIP3    H2 1492   5.032   0.271   5.398
  517TIP3   OH2 1493   0.064   3.032   2.739
  517TIP3    H1 1494   0.114   3.078   2.671
  517TIP3    H2 1495   0.124   3.029   2.814
  518TIP3   OH2 1496   0.501   7.178   1.735
  518TIP3    H1 1497   0.483   7.205   1.825
  518TIP3    H2 1498   0.529   7.259   1.691
  519TIP3   OH2 1499   0.770   1.039   5.237
  519TIP3    H1 1500   0.822   1.033   5.156
  519TIP3    H2 1501   0.819   1.100   5.292
  520TIP3   OH2 1502   3.276   6.864   6.267
  520TIP3    H1 1503   3.301   6.952   6.297
  520TIP3    H2 1504   3.319   6.855   6.182
  521TIP3   OH2 1505   4.338   2.279   1.635
  521TIP3    H1 1506   4.377   2.336   1.569
  521TIP3    H2 1507   4.412   2.232   1.673
  522TIP3   OH2 1508   2.641   2.322   2.332
  522TIP3    H1 1509   2.611   2.381   2.263
  522TIP3    H2 1510   2.640   2.375   2.412
  523TIP3   OH2 1511   2.300   1.860   1.914
  523TIP3    H1 1512   2.227   1.813   1.954
  523TIP3    H2 1513   2.299   1.946   1.956
  524TIP3   OH2 1514   2.943   4.391   0.406
  524TIP3    H1 1515   2.998   4.362   0.478
  524TIP3    H2 1516   2.913   4.310   0.364
  525TIP3   OH2 1517   0.765   1.985   3.129
  525TIP3    H1 1518   0.845   2.036   3.145
  525TIP3    H2 1519   0.699   2.051   3.108
  526TIP3   OH2 1520   2.586   5.470   3.505
  526TIP3    H1 1521   2.523   5.440   3.571
  526TIP3    H2 1522   2.595   5.564   3.522
  527TIP3   OH2 1523   3.468   5.440   6.442
  527TIP3    H1 1524   3.391   5.437   6.498
  527TIP3    H2 1525   3.488   5.348   6.424
  528TIP3   OH2 1526   0.576   0.882   5.094
  528TIP3    H1 1527   0.604   0.892   5.003
  528TIP3    H2 1528   0.637   0.935   5.145
  529TIP3   OH2 1529   6.186   0.314   4.970
  529TIP3    H1 1530   6.212   0.233   4.926
  529TIP3    H2 1531   6.149   0.368   4.900
  530TIP3   OH2 1532   5.306   6.670   5.307
  530TIP3    H1 1533   5.259   6.751   5.330
  530TIP3    H2 1534   5.265   6.642   5.225
  531TIP3   OH2 1535   4.939   5.153   6.092
  531TIP3    H1 1536   5.002   5.116   6.030
  531TIP3    H2 1537   4.860   5.170   6.041
  532TIP3   OH2 1538   2.247   4.889   5.209
  532TIP3    H1 1539   2.234   4.910   5.302
  532TIP3    H2 1540   2.191   4.813   5.194
  533TIP3   OH2 1541   7.575   6.372   4.266
  533TIP3    H1 1542   7.504   6.313   4.240
  533TIP3    H2 1543   7.583   6.433   4.192
  534TIP3   OH2 1544   7.266   7.458   4.081
  534TIP3    H1 1545   7.324   7.463   4.005
  534TIP3    H2 1546   7.298   7.526   4.140
  535TIP3   OH2 1547   5.335   2.251   3.884
  535TIP3    H1 1548   5.369   2.166   3.855
  535TIP3    H2 1549   5.362   2.258   3.975
  536TIP3   OH2 1550   3.393   1.616   4.149
  536TIP3    H1 1551   3.335   1.671   4.097
  536TIP3    H2 1552   3.434   1.676   4.212
  537TIP3   OH2 1553   5.616   2.586   1.542
  537TIP3    H1 1554   5.645   2.621   1.626
  537TIP3    H2 1555   5.525   2.562   1.556
  538TIP3   OH2 1556   2.006   0.516   1.903
  538TIP3    H1 1557   2.005   0.603   1.863
  538TIP3    H2 1558   1.985   0.531   1.995
  539TIP3   OH2 1559   2.015   0.587   3.968
  539TIP3    H1 1560   2.095   0.551   4.007
  539TIP3    H2 1561   2.043   0.622   3.883
  540TIP3   OH2 1562   4.215   5.809   3.350
  540TIP3    H1 1563   4.146   5.843   3.294
  540TIP3    H2 1564   4.176   5.805   3.437
  541TIP3   OH2 1565   2.973   1.763   5.198
  541TIP3    H1 1566   3.019   1.787   5.118
  541TIP3    H2 1567   3.030   1.793   5.269
  542TIP3   OH2 1568   2.165   6.228   5.501
  542TIP3    H1 1569   2.092   6.283   5.473
  542TIP3    H2 1570   2.206   6.199   5.420
  543TIP3   OH2 1571   0.699   1.680   6.060
  543TIP3    H1 1572   0.733   1.725   6.138
  543TIP3    H2 1573   0.777   1.658   6.009
  544TIP3   OH2 1574   4.552   1.126   5.909
  544TIP3    H1 1575   4.534   1.152   5.818
  544TIP3    H2 1576   4.511   1.194   5.962
  545TIP3   OH2 1577   3.621   6.493   3.705
  545TIP3    H1 1578   3.573   6.429   3.652
  545TIP3    H2 1579   3.627   6.571   3.650
  546TIP3   OH2 1580   0.744   2.343   3.908
  546TIP3    H1 1581   0.752   2.382   3.822
  546TIP3    H2 1582   0.687   2.267   3.895
  547TIP3   OH2 1583   7.438   5.509   5.431
  547TIP3    H1 1584   7.423   5.537   5.521
  547TIP3    H2 1585   7.524   5.544   5.409
  548TIP3   OH2 1586   1.949   6.982   6.764
  548TIP3    H1 1587   1.926   6.890   6.754
  548TIP3    H2 1588   2.027   6.994   6.710
  549TIP3   OH2 1589   2.042   2.121   4.240
  549TIP3    H1 1590   2.023   2.028   4.231
  549TIP3    H2 1591   1.958   2.161   4.262
  550TIP3   OH2 1592   8.030   4.311   3.604
  550TIP3    H1 1593   7.970   4.246   3.568
  550TIP3    H2 1594   8.116   4.268   3.601
  551TIP3   OH2 1595   8.125   2.690   5.594
  551TIP3    H1 1596   8.069   2.688   5.672
  551TIP3    H2 1597   8.100   2.612   5.544
  552TIP3   OH2 1598   1.515   2.928   4.340
  552TIP3    H1 1599   1.496   2.911   4.248
  552TIP3    H2 1600   1.597   2.976   4.340
  553TIP3   OH2 1601   3.863   1.766   1.972
  553TIP3    H1 1602   3.862   1.710   2.050
  553TIP3    H2 1603   3.772   1.768   1.943
  554TIP3   OH2 1604   7.046   5.138   5.529
  554TIP3    H1 1605   6.978   5.072   5.516
  554TIP3    H2 1606   7.034   5.168   5.619
  555TIP3   OH2 1607   2.538   0.372   2.621
  555TIP3    H1 1608   2.527   0.387   2.527
  555TIP3    H2 1609   2.490   0.444   2.663
  556TIP3   OH2 1610   6.874   1.632   0.209
  556TIP3    H1 1611   6.828   1.555   0.175
  556TIP3    H2 1612   6.967   1.610   0.201
  557TIP3   OH2 1613   7.951   7.402   0.875
  557TIP3    H1 1614   8.013   7.428   0.807
  557TIP3    H2 1615   7.999   7.339   0.929
  558TIP3   OH2 1616   7.979   6.046   6.396
  558TIP3    H1 1617   7.965   6.095   6.477
  558TIP3    H2 1618   8.070   6.061   6.374
  559TIP3   OH2 1619   7.618   3.994   2.713
  559TIP3    H1 1620   7.534   3.997   2.758
  559TIP3    H2 1621   7.606   3.928   2.643
  560TIP3   OH2 1622   7.982   1.514   1.213
  560TIP3    H1 1623   7.989   1.603   1.249
  560TIP3    H2 1624   7.921   1.522   1.140
  561TIP3   OH2 1625   6.689   1.885   1.080
  561TIP3    H1 1626   6.770   1.896   1.130
  561TIP3    H2 1627   6.619   1.908   1.142
  562TIP3   OH2 1628   3.813   0.282   2.609
  562TIP3    H1 1629   3.793   0.193   2.638
  562TIP3    H2 1630   3.867   0.318   2.679
  563TIP3   OH2 1631   6.957   0.689   2.458
  563TIP3    H1 1632   7.003   0.619   2.412
  563TIP3    H2 1633   6.993   0.770   2.420
  564TIP3   OH2 1634   4.265   6.880   3.720
  564TIP3    H1 1635   4.220   6.861   3.802
  564TIP3    H2 1636   4.289   6.794   3.685
  565TIP3   OH2 1637   4.717   7.715   1.085
  565TIP3    H1 1638   4.812   7.722   1.080
  565TIP3    H2 1639   4.688   7.715   0.994
  566TIP3   OH2 1640   6.561   4.421   3.571
  566TIP3    H1 1641   6.616   4.343   3.559
  566TIP3    H2 1642   6.523   4.437   3.484
  567TIP3   OH2 1643   2.380   3.227   0.756
  567TIP3    H1 1644   2.358   3.230   0.663
  567TIP3    H2 1645   2.390   3.318   0.782
  568TIP3   OH2 1646   7.748   2.203   2.861
  568TIP3    H1 1647   7.841   2.179   2.866
  568TIP3    H2 1648   7.705   2.125   2.825
  569TIP3   OH2 1649   3.481   4.201   3.638
  569TIP3    H1 1650   3.547   4.145   3.679
  569TIP3    H2 1651   3.444   4.147   3.568
  570TIP3   OH2 1652   2.867   1.696   6.719
  570TIP3    H1 1653   2.810   1.712   6.643
  570TIP3    H2 1654   2.820   1.736   6.792
  571TIP3   OH2 1655   0.267   1.977   5.272
  571TIP3    H1 1656   0.332   1.981   5.342
  571TIP3    H2 1657   0.207   1.907   5.299
  572TIP3   OH2 1658   4.439   7.141   1.576
  572TIP3    H1 1659   4.527   7.114   1.599
  572TIP3    H2 1660   4.451   7.209   1.510
  573TIP3   OH2 1661   3.826   1.665   3.501
  573TIP3    H1 1662   3.742   1.645   3.460
  573TIP3    H2 1663   3.803   1.713   3.581
  574TIP3   OH2 1664   4.942   2.881   3.136
  574TIP3    H1 1665   4.909   2.966   3.107
  574TIP3    H2 1666   5.037   2.895   3.145
  575TIP3   OH2 1667   1.343   1.545   1.188
  575TIP3    H1 1668   1.341   1.493   1.108
  575TIP3    H2 1669   1.417   1.605   1.177
  576TIP3   OH2 1670   2.179   7.777   2.946
  576TIP3    H1 1671   2.167   7.872   2.950
  576TIP3    H2 1672   2.093   7.743   2.921
  577TIP3   OH2 1673   5.588   2.443   2.182
  577TIP3    H1 1674   5.596   2.401   2.096
  577TIP3    H2 1675   5.542   2.525   2.164
  578TIP3   OH2 1676   7.897   0.667   3.047
  578TIP3    H1 1677   7.856   0.744   3.008
  578TIP3    H2 1678   7.920   0.611   2.973
  579TIP3   OH2 1679   4.516   4.390   1.319
  579TIP3    H1 1680   4.516   4.298   1.348
  579TIP3    H2 1681   4.566   4.390   1.238
  580TIP3   OH2 1682   5.821   0.428   0.436
  580TIP3    H1 1683   5.878   0.416   0.359
  580TIP3    H2 1684   5.882   0.434   0.510
  581TIP3   OH2 1685   2.915   7.158   1.412
  581TIP3    H1 1686   2.965   7.077   1.401
  581TIP3    H2 1687   2.824   7.129   1.421
  582TIP3   OH2 1688   7.059   4.980   1.581
  582TIP3    H1 1689   6.985   5.041   1.591
  582TIP3    H2 1690   7.066   4.966   1.487
  583TIP3   OH2 1691   1.047   7.458   5.478
  583TIP3    H1 1692   1.048   7.375   5.527
  583TIP3    H2 1693   0.960   7.494   5.495
  584TIP3   OH2 1694   1.331   7.782   6.438
  584TIP3    H1 1695   1.385   7.704   6.447
  584TIP3    H2 1696   1.247   7.749   6.406
  585TIP3   OH2 1697   1.939   7.575   0.595
  585TIP3    H1 1698   1.997   7.531   0.658
  585TIP3    H2 1699   1.979   7.558   0.510
  586TIP3   OH2 1700   1.586   1.411   0.318
  586TIP3    H1 1701   1.544   1.486   0.361
  586TIP3    H2 1702   1.612   1.444   0.232
  587TIP3   OH2 1703   1.137   6.738   0.373
  587TIP3    H1 1704   1.208   6.802   0.381
  587TIP3    H2 1705   1.148   6.703   0.285
  588TIP3   OH2 1706   2.183   7.675   4.157
  588TIP3    H1 1707   2.175   7.758   4.203
  588TIP3    H2 1708   2.192   7.700   4.065
  589TIP3   OH2 1709   6.575   1.012   2.217
  589TIP3    H1 1710   6.516   0.956   2.267
  589TIP3    H2 1711   6.600   0.959   2.142
  590TIP3   OH2 1712   1.565   7.773   6.664
  590TIP3    H1 1713   1.470   7.757   6.664
  590TIP3    H2 1714   1.604   7.686   6.665
  591TIP3   OH2 1715   6.180   5.477   3.783
  591TIP3    H1 1716   6.256   5.526   3.814
  591TIP3    H2 1717   6.105   5.534   3.801
  592TIP3   OH2 1718   5.437   3.452   5.646
  592TIP3    H1 1719   5.513   3.510   5.643
  592TIP3    H2 1720   5.407   3.454   5.737
  593TIP3   OH2 1721   5.076   3.238   2.200
  593TIP3    H1 1722   5.006   3.303   2.203
  593TIP3    H2 1723   5.088   3.212   2.292
  594TIP3   OH2 1724   5.656   0.594   1.308
  594TIP3    H1 1725   5.673   0.663   1.372
  594TIP3    H2 1726   5.596   0.633   1.245
  595TIP3   OH2 1727   7.578   4.541   2.091
  595TIP3    H1 1728   7.504   4.557   2.032
  595TIP3    H2 1729   7.558   4.457   2.132
  596TIP3   OH2 1730   2.622   6.533   6.500
  596TIP3    H1 1731   2.589   6.493   6.581
  596TIP3    H2 1732   2.583   6.480   6.430
  597TIP3   OH2 1733   7.079   0.453   0.976
  597TIP3    H1 1734   7.167   0.487   0.992
  597TIP3    H2 1735   7.087   0.405   0.893
  598TIP3   OH2 1736   3.133   1.440   5.213
  598TIP3    H1 1737   3.193   1.371   5.241
  598TIP3    H2 1738   3.110   1.486   5.294
  599TIP3   OH2 1739   0.533   3.345   3.334
  599TIP3    H1 1740   0.451   3.388   3.307
  599TIP3    H2 1741   0.567   3.402   3.404
  600TIP3   OH2 1742   3.472   6.474   5.492
  600TIP3    H1 1743   3.552   6.509   5.530
  600TIP3    H2 1744   3.449   6.535   5.422
  601TIP3   OH2 1745   0.971   2.686   3.692
  601TIP3    H1 1746   0.969   2.719   3.782
  601TIP3    H2 1747   1.063   2.690   3.666
  602TIP3   OH2 1748   1.951   4.742   1.951
  602TIP3    H1 1749   1.946   4.712   2.041
  602TIP3    H2 1750   1.871   4.710   1.910
  603TIP3   OH2 1751   2.517   7.703   3.419
  603TIP3    H1 1752   2.563   7.771   3.469
  603TIP3    H2 1753   2.564   7.697   3.336
  604TIP3   OH2 1754   6.200   2.892   0.080
  604TIP3    H1 1755   6.284   2.933   0.099
  604TIP3    H2 1756   6.205   2.805   0.121
  605TIP3   OH2 1757   6.360   2.350   4.619
  605TIP3    H1 1758   6.278   2.306   4.640
  605TIP3    H2 1759   6.404   2.291   4.558
  606TIP3   OH2 1760   0.124   6.699   5.561
  606TIP3    H1 1761   0.165   6.761   5.501
  606TIP3    H2 1762   0.115   6.747   5.643
  607TIP3   OH2 1763   4.274   0.782   1.691
  607TIP3    H1 1764   4.327   0.809   1.615
  607TIP3    H2 1765   4.337   0.777   1.763
  608TIP3   OH2 1766   8.014   3.128   2.440
  608TIP3    H1 1767   8.080   3.060   2.454
  608TIP3    H2 1768   7.961   3.095   2.367
  609TIP3   OH2 1769   5.939   1.622   6.210
  609TIP3    H1 1770   5.979   1.566   6.143
  609TIP3    H2 1771   6.009   1.683   6.236
  610TIP3   OH2 1772   4.940   3.188   2.827
  610TIP3    H1 1773   4.910   3.155   2.742
  610TIP3    H2 1774   4.983   3.271   2.806
  611TIP3   OH2 1775   3.288   2.262   5.947
  611TIP3    H1 1776   3.219   2.226   5.891
  611TIP3    H2 1777   3.252   2.260   6.035
  612TIP3   OH2 1778   2.354   2.443   2.918
  612TIP3    H1 1779   2.344   2.417   3.010
  612TIP3    H2 1780   2.299   2.381   2.870
  613TIP3   OH2 1781   1.676   1.135   1.682
  613TIP3    H1 1782   1.741   1.133   1.613
  613TIP3    H2 1783   1.707   1.204   1.742
  614TIP3   OH2 1784   3.986   7.797   6.106
  614TIP3    H1 1785   3.910   7.816   6.161
  614TIP3    H2 1786   3.950   7.750   6.031
  615TIP3   OH2 1787   0.170   0.815   4.113
  615TIP3    H1 1788   0.223   0.893   4.102
  615TIP3    H2 1789   0.081   0.847   4.128
  616TIP3   OH2 1790   7.388   6.348   5.198
  616TIP3    H1 1791   7.312   6.380   5.148
  616TIP3    H2 1792   7.421   6.275   5.145
  617TIP3   OH2 1793   5.423   1.275   1.481
  617TIP3    H1 1794   5.329   1.257   1.479
  617TIP3    H2 1795   5.463   1.196   1.517
  618TIP3   OH2 1796   4.413   6.465   0.127
  618TIP3    H1 1797   4.378   6.433   0.044
  618TIP3    H2 1798   4.424   6.559   0.115
  619TIP3   OH2 1799   7.588   0.159   0.844
  619TIP3    H1 1800   7.548   0.241   0.814
  619TIP3    H2 1801   7.524   0.091   0.821
  620TIP3   OH2 1802   7.478   0.707   4.138
  620TIP3    H1 1803   7.425   0.752   4.072
  620TIP3    H2 1804   7.568   0.733   4.119
  621TIP3   OH2 1805   7.502   4.745   4.579
  621TIP3    H1 1806   7.509   4.658   4.620
  621TIP3    H2 1807   7.451   4.731   4.500
  622TIP3   OH2 1808   8.232   7.461   0.860
  622TIP3    H1 1809   8.313   7.449   0.811
  622TIP3    H2 1810   8.253   7.432   0.948
  623TIP3   OH2 1811   3.285   3.272   5.788
  623TIP3    H1 1812   3.366   3.304   5.828
  623TIP3    H2 1813   3.313   3.221   5.712
  624TIP3   OH2 1814   2.524   4.353   0.664
  624TIP3    H1 1815   2.501   4.260   0.659
  624TIP3    H2 1816   2.593   4.357   0.730
  625TIP3   OH2 1817   5.881   0.329   1.512
  625TIP3    H1 1818   5.797   0.294   1.482
  625TIP3    H2 1819   5.943   0.303   1.445
  626TIP3   OH2 1820   1.334   7.716   6.086
  626TIP3    H1 1821   1.262   7.762   6.042
  626TIP3    H2 1822   1.373   7.782   6.143
  627TIP3   OH2 1823   1.584   2.514   2.327
  627TIP3    H1 1824   1.579   2.526   2.422
  627TIP3    H2 1825   1.496   2.533   2.296
  628TIP3   OH2 1826   0.844   7.535   0.895
  628TIP3    H1 1827   0.923   7.586   0.915
  628TIP3    H2 1828   0.818   7.565   0.807
  629TIP3   OH2 1829   5.282   1.882   2.371
  629TIP3    H1 1830   5.202   1.842   2.405
  629TIP3    H2 1831   5.289   1.965   2.417
  630TIP3   OH2 1832   4.132   1.144   3.094
  630TIP3    H1 1833   4.154   1.079   3.161
  630TIP3    H2 1834   4.040   1.126   3.074
  631TIP3   OH2 1835   3.830   3.044   5.679
  631TIP3    H1 1836   3.894   3.108   5.650
  631TIP3    H2 1837   3.865   3.012   5.762
  632TIP3   OH2 1838   7.364   7.086   5.818
  632TIP3    H1 1839   7.431   7.019   5.816
  632TIP3    H2 1840   7.411   7.168   5.804
  633TIP3   OH2 1841   2.707   3.975   0.497
  633TIP3    H1 1842   2.670   3.952   0.582
  633TIP3    H2 1843   2.792   3.930   0.495
  634TIP3   OH2 1844   3.748   5.816   4.169
  634TIP3    H1 1845   3.831   5.856   4.192
  634TIP3    H2 1846   3.693   5.889   4.139
  635TIP3   OH2 1847   3.451   5.980   5.454
  635TIP3    H1 1848   3.465   6.060   5.504
  635TIP3    H2 1849   3.371   5.943   5.489
  636TIP3   OH2 1850   2.319   1.524   3.350
  636TIP3    H1 1851   2.369   1.442   3.344
  636TIP3    H2 1852   2.241   1.508   3.297
  637TIP3   OH2 1853   8.142   1.233   5.819
  637TIP3    H1 1854   8.132   1.138   5.821
  637TIP3    H2 1855   8.226   1.250   5.862
  638TIP3   OH2 1856   3.952   6.267   2.226
  638TIP3    H1 1857   3.991   6.211   2.293
  638TIP3    H2 1858   3.959   6.355   2.262
  639TIP3   OH2 1859   7.352   6.921   2.364
  639TIP3    H1 1860   7.310   6.836   2.351
  639TIP3    H2 1861   7.378   6.920   2.456
  640TIP3   OH2 1862   5.104   4.234   3.874
  640TIP3    H1 1863   5.177   4.293   3.892
  640TIP3    H2 1864   5.115   4.163   3.937
  641TIP3   OH2 1865   4.697   7.174   1.706
  641TIP3    H1 1866   4.766   7.114   1.680
  641TIP3    H2 1867   4.729   7.216   1.786
  642TIP3   OH2 1868   3.527   4.304   1.654
  642TIP3    H1 1869   3.518   4.309   1.749
  642TIP3    H2 1870   3.567   4.387   1.629
  643TIP3   OH2 1871   4.377   1.270   4.992
  643TIP3    H1 1872   4.351   1.287   5.082
  643TIP3    H2 1873   4.472   1.266   4.994
  644TIP3   OH2 1874   5.181   6.069   5.318
  644TIP3    H1 1875   5.228   6.152   5.325
  644TIP3    H2 1876   5.158   6.062   5.226
  645TIP3   OH2 1877   4.608   0.277   5.971
  645TIP3    H1 1878   4.537   0.339   5.960
  645TIP3    H2 1879   4.582   0.200   5.920
  646TIP3   OH2 1880   8.072   1.489   0.414
  646TIP3    H1 1881   7.988   1.453   0.441
  646TIP3    H2 1882   8.123   1.496   0.494
  647TIP3   OH2 1883   7.574   2.130   6.346
  647TIP3    H1 1884   7.655   2.141   6.396
  647TIP3    H2 1885   7.595   2.164   6.259
  648TIP3   OH2 1886   2.649   6.826   5.686
  648TIP3    H1 1887   2.636   6.773   5.764
  648TIP3    H2 1888   2.609   6.775   5.615
  649TIP3   OH2 1889   7.270   2.647   1.909
  649TIP3    H1 1890   7.224   2.617   1.988
  649TIP3    H2 1891   7.204   2.640   1.840
  650TIP3   OH2 1892   1.742   2.235   1.123
  650TIP3    H1 1893   1.694   2.316   1.140
  650TIP3    H2 1894   1.791   2.253   1.042
  651TIP3   OH2 1895   6.114   3.290   4.694
  651TIP3    H1 1896   6.083   3.230   4.625
  651TIP3    H2 1897   6.200   3.319   4.663
  652TIP3   OH2 1898   2.871   3.044   0.588
  652TIP3    H1 1899   2.918   3.039   0.671
  652TIP3    H2 1900   2.852   3.137   0.576
  653TIP3   OH2 1901   7.131   2.086   4.621
  653TIP3    H1 1902   7.083   2.103   4.702
  653TIP3    H2 1903   7.151   2.173   4.586
  654TIP3   OH2 1904   3.129   1.138   2.435
  654TIP3    H1 1905   3.175   1.212   2.395
  654TIP3    H2 1906   3.179   1.118   2.514
  655TIP3   OH2 1907   0.145   4.201   1.005
  655TIP3    H1 1908   0.069   4.148   1.029
  655TIP3    H2 1909   0.209   4.138   0.971
  656TIP3   OH2 1910   0.909   3.835   2.669
  656TIP3    H1 1911   0.926   3.821   2.762
  656TIP3    H2 1912   0.890   3.929   2.663
  657TIP3   OH2 1913   4.606   4.358   3.298
  657TIP3    H1 1914   4.624   4.265   3.291
  657TIP3    H2 1915   4.511   4.363   3.308
  658TIP3   OH2 1916   3.748   4.071   0.196
  658TIP3    H1 1917   3.836   4.063   0.159
  658TIP3    H2 1918   3.711   4.148   0.152
  659TIP3   OH2 1919   7.525   5.009   1.378
  659TIP3    H1 1920   7.605   5.054   1.406
  659TIP3    H2 1921   7.483   5.071   1.318
  660TIP3   OH2 1922   7.633   3.980   2.208
  660TIP3    H1 1923   7.637   3.901   2.261
  660TIP3    H2 1924   7.564   4.033   2.250
  661TIP3   OH2 1925   6.668   1.960   1.556
  661TIP3    H1 1926   6.594   1.974   1.614
  661TIP3    H2 1927   6.709   2.046   1.546
  662TIP3   OH2 1928   1.937   5.540   5.822
  662TIP3    H1 1929   1.939   5.446   5.807
  662TIP3    H2 1930   2.001   5.576   5.761
  663TIP3   OH2 1931   0.970   6.975   0.642
  663TIP3    H1 1932   1.061   6.985   0.670
  663TIP3    H2 1933   0.963   6.883   0.616
  664TIP3   OH2 1934   6.663   2.574   4.588
  664TIP3    H1 1935   6.590   2.586   4.650
  664TIP3    H2 1936   6.670   2.658   4.543
  665TIP3   OH2 1937   2.342   6.914   1.124
  665TIP3    H1 1938   2.319   7.000   1.158
  665TIP3    H2 1939   2.390   6.872   1.195
  666TIP3   OH2 1940   0.365   5.503   0.528
  666TIP3    H1 1941   0.296   5.513   0.462
  666TIP3    H2 1942   0.322   5.527   0.611
  667TIP3   OH2 1943   5.651   6.435   0.915
  667TIP3    H1 1944   5.719   6.382   0.872
  667TIP3    H2 1945   5.651   6.518   0.868
  668TIP3   OH2 1946   0.567   4.360   0.427
  668TIP3    H1 1947   0.536   4.356   0.517
  668TIP3    H2 1948   0.642   4.420   0.430
  669TIP3   OH2 1949   7.921   6.753   1.616
  669TIP3    H1 1950   7.935   6.845   1.596
  669TIP3    H2 1951   7.882   6.717   1.536
  670TIP3   OH2 1952   1.086   2.581   1.691
  670TIP3    H1 1953   1.173   2.611   1.716
  670TIP3    H2 1954   1.065   2.631   1.612
  671TIP3   OH2 1955   0.555   0.102   5.355
  671TIP3    H1 1956   0.574   0.126   5.446
  671TIP3    H2 1957   0.460   0.108   5.348
  672TIP3   OH2 1958   3.576   0.889   2.949
  672TIP3    H1 1959   3.498   0.861   2.901
  672TIP3    H2 1960   3.639   0.817   2.935
  673TIP3   OH2 1961   5.882   3.378   4.831
  673TIP3    H1 1962   5.827   3.345   4.760
  673TIP3    H2 1963   5.972   3.360   4.801
  674TIP3   OH2 1964   2.253   0.310   4.897
  674TIP3    H1 1965   2.289   0.302   4.809
  674TIP3    H2 1966   2.165   0.271   4.890
  675TIP3   OH2 1967   4.233   4.519   0.251
  675TIP3    H1 1968   4.256   4.524   0.344
  675TIP3    H2 1969   4.237   4.426   0.230
  676TIP3   OH2 1970   6.949   3.030   5.188
  676TIP3    H1 1971   6.894   2.981   5.126
  676TIP3    H2 1972   6.949   2.977   5.267
  677TIP3   OH2 1973   6.156   5.059   5.158
  677TIP3    H1 1974   6.208   5.017   5.090
  677TIP3    H2 1975   6.074   5.011   5.159
  678TIP3   OH2 1976   2.016   6.973   0.691
  678TIP3    H1 1977   2.013   6.921   0.610
  678TIP3    H2 1978   2.098   7.022   0.684
  679TIP3   OH2 1979   3.583   2.461   0.198
  679TIP3    H1 1980   3.522   2.484   0.129
  679TIP3    H2 1981   3.530   2.419   0.266
  680TIP3   OH2 1982   8.228   4.016   1.040
  680TIP3    H1 1983   8.162   3.957   1.075
  680TIP3    H2 1984   8.198   4.036   0.952
  681TIP3   OH2 1985   3.977   2.628   5.475
  681TIP3    H1 1986   3.991   2.719   5.448
  681TIP3    H2 1987   4.061   2.585   5.459
  682TIP3   OH2 1988   7.860   2.261   0.807
  682TIP3    H1 1989   7.891   2.330   0.866
  682TIP3    H2 1990   7.900   2.281   0.723
  683TIP3   OH2 1991   4.638   0.356   4.555
  683TIP3    H1 1992   4.606   0.321   4.639
  683TIP3    H2 1993   4.726   0.321   4.546
  684TIP3   OH2 1994   6.880   0.672   5.605
  684TIP3    H1 1995   6.949   0.607   5.623
  684TIP3    H2 1996   6.806   0.620   5.573
  685TIP3   OH2 1997   4.496   3.478   5.095
  685TIP3    H1 1998   4.466   3.433   5.175
  685TIP3    H2 1999   4.416   3.512   5.055
  686TIP3   OH2 2000   3.706   1.440   6.130
  686TIP3    H1 2001   3.675   1.350   6.119
  686TIP3    H2 2002   3.653   1.476   6.201
  687TIP3   OH2 2003   5.018   6.840   6.649
  687TIP3    H1 2004   5.080   6.834   6.576
  687TIP3    H2 2005   4.951   6.774   6.629
  688TIP3   OH2 2006   3.392   5.729   4.143
  688TIP3    H1 2007   3.428   5.776   4.218
  688TIP3    H2 2008   3.323   5.674   4.181
  689TIP3   OH2 2009   5.343   3.839   0.143
  689TIP3    H1 2010   5.387   3.844   0.058
  689TIP3    H2 2011   5.411   3.812   0.204
  690TIP3   OH2 2012   6.800   1.391   0.074
  690TIP3    H1 2013   6.794   1.305   0.116
  690TIP3    H2 2014   6.878   1.385   0.018
  691TIP3   OH2 2015   1.604   5.698   5.170
  691TIP3    H1 2016   1.650   5.640   5.230
  691TIP3    H2 2017   1.513   5.671   5.176
  692TIP3   OH2 2018   7.624   3.204   3.994
  692TIP3    H1 2019   7.608   3.142   3.923
  692TIP3    H2 2020   7.593   3.158   4.073
  693TIP3   OH2 2021   2.564   7.677   2.988
  693TIP3    H1 2022   2.556   7.726   2.906
  693TIP3    H2 2023   2.529   7.591   2.968
  694TIP3   OH2 2024   5.747   4.937   1.346
  694TIP3    H1 2025   5.695   4.901   1.418
  694TIP3    H2 2026   5.721   5.029   1.341
  695TIP3   OH2 2027   6.024   4.841   5.587
  695TIP3    H1 2028   5.955   4.839   5.521
  695TIP3    H2 2029   5.985   4.888   5.661
  696TIP3   OH2 2030   6.260   4.706   5.238
  696TIP3    H1 2031   6.279   4.680   5.328
  696TIP3    H2 2032   6.293   4.795   5.231
  697TIP3   OH2 2033   2.679   3.410   0.065
  697TIP3    H1 2034   2.667   3.505   0.063
  697TIP3    H2 2035   2.603   3.375   0.018
  698TIP3   OH2 2036   1.762   2.808   2.473
  698TIP3    H1 2037   1.773   2.859   2.554
  698TIP3    H2 2038   1.696   2.743   2.495
  699TIP3   OH2 2039   7.448   2.511   6.415
  699TIP3    H1 2040   7.524   2.459   6.392
  699TIP3    H2 2041   7.450   2.585   6.354
  700TIP3   OH2 2042   6.641   6.975   6.238
  700TIP3    H1 2043   6.699   6.899   6.237
  700TIP3    H2 2044   6.628   6.996   6.145
  701TIP3   OH2 2045   2.899   3.029   3.887
  701TIP3    H1 2046   2.956   3.004   3.814
  701TIP3    H2 2047   2.904   3.124   3.889
  702TIP3   OH2 2048   1.985   5.036   2.494
  702TIP3    H1 2049   1.935   4.963   2.530
  702TIP3    H2 2050   1.954   5.113   2.541
  703TIP3   OH2 2051   5.769   2.437   0.135
  703TIP3    H1 2052   5.719   2.463   0.058
  703TIP3    H2 2053   5.708   2.447   0.208
  704TIP3   OH2 2054   0.144   0.496   2.417
  704TIP3    H1 2055   0.079   0.430   2.442
  704TIP3    H2 2056   0.212   0.446   2.373
  705TIP3   OH2 2057   1.327   0.103   3.075
  705TIP3    H1 2058   1.371   0.022   3.101
  705TIP3    H2 2059   1.336   0.106   2.980
  706TIP3   OH2 2060   5.794   3.581   1.433
  706TIP3    H1 2061   5.815   3.601   1.524
  706TIP3    H2 2062   5.869   3.612   1.384
  707TIP3   OH2 2063   4.035   1.434   3.057
  707TIP3    H1 2064   4.060   1.342   3.066
  707TIP3    H2 2065   4.075   1.478   3.132
  708TIP3   OH2 2066   1.135   7.320   0.733
  708TIP3    H1 2067   1.047   7.318   0.694
  708TIP3    H2 2068   1.130   7.389   0.798
  709TIP3   OH2 2069   2.326   1.895   2.775
  709TIP3    H1 2070   2.319   1.974   2.721
  709TIP3    H2 2071   2.380   1.836   2.723
  710TIP3   OH2 2072   6.582   7.376   6.177
  710TIP3    H1 2073   6.499   7.349   6.216
  710TIP3    H2 2074   6.649   7.337   6.233
  711TIP3   OH2 2075   6.111   3.485   3.261
  711TIP3    H1 2076   6.034   3.498   3.318
  711TIP3    H2 2077   6.076   3.440   3.184
  712TIP3   OH2 2078   7.687   1.864   1.799
  712TIP3    H1 2079   7.725   1.875   1.711
  712TIP3    H2 2080   7.632   1.941   1.810
  713TIP3   OH2 2081   0.263   0.326   2.713
  713TIP3    H1 2082   0.264   0.411   2.670
  713TIP3    H2 2083   0.269   0.347   2.806
  714TIP3   OH2 2084   4.385   5.828   0.273
  714TIP3    H1 2085   4.462   5.871   0.236
  714TIP3    H2 2086   4.344   5.895   0.328
  715TIP3   OH2 2087   6.058   6.801   3.157
  715TIP3    H1 2088   6.138   6.789   3.106
  715TIP3    H2 2089   6.073   6.750   3.237
  716TIP3   OH2 2090   3.032   2.420   2.884
  716TIP3    H1 2091   3.108   2.363   2.874
  716TIP3    H2 2092   3.026   2.438   2.977
  717TIP3   OH2 2093   0.345   2.255   2.852
  717TIP3    H1 2094   0.261   2.216   2.877
  717TIP3    H2 2095   0.351   2.239   2.757
  718TIP3   OH2 2096   7.069   6.030   1.708
  718TIP3    H1 2097   7.143   6.065   1.757
  718TIP3    H2 2098   6.995   6.086   1.733
  719TIP3   OH2 2099   1.867   0.920   1.569
  719TIP3    H1 2100   1.863   0.964   1.654
  719TIP3    H2 2101   1.825   0.835   1.585
  720TIP3   OH2 2102   1.852   0.954   4.938
  720TIP3    H1 2103   1.766   0.911   4.943
  720TIP3    H2 2104   1.864   0.970   4.845
  721TIP3   OH2 2105   0.265   3.320   4.654
  721TIP3    H1 2106   0.188   3.378   4.654
  721TIP3    H2 2107   0.230   3.234   4.630
  722TIP3   OH2 2108   0.520   3.803   5.495
  722TIP3    H1 2109   0.496   3.894   5.508
  722TIP3    H2 2110   0.557   3.799   5.407
  723TIP3   OH2 2111   0.556   5.537   2.930
  723TIP3    H1 2112   0.530   5.498   2.847
  723TIP3    H2 2113   0.507   5.619   2.935
  724TIP3   OH2 2114   4.600   3.091   0.214
  724TIP3    H1 2115   4.608   3.171   0.266
  724TIP3    H2 2116   4.516   3.053   0.242
  725TIP3   OH2 2117   8.189   4.439   5.072
  725TIP3    H1 2118   8.106   4.437   5.024
  725TIP3    H2 2119   8.193   4.527   5.109
  726TIP3   OH2 2120   1.073   0.842   3.135
  726TIP3    H1 2121   1.075   0.853   3.040
  726TIP3    H2 2122   0.981   0.825   3.155
  727TIP3   OH2 2123   1.345   5.632   5.208
  727TIP3    H1 2124   1.328   5.661   5.298
  727TIP3    H2 2125   1.259   5.609   5.173
  728TIP3   OH2 2126   7.701   2.422   6.449
  728TIP3    H1 2127   7.759   2.473   6.506
  728TIP3    H2 2128   7.713   2.332   6.476
  729TIP3   OH2 2129   1.994   2.361   3.708
  729TIP3    H1 2130   1.960   2.424   3.644
  729TIP3    H2 2131   1.924   2.353   3.773
  730TIP3   OH2 2132   5.836   7.197   1.454
  730TIP3    H1 2133   5.771   7.254   1.412
  730TIP3    H2 2134   5.877   7.150   1.381
  731TIP3   OH2 2135   0.950   6.809   5.866
  731TIP3    H1 2136   0.928   6.828   5.775
  731TIP3    H2 2137   0.987   6.891   5.899
  732TIP3   OH2 2138   4.020   5.238   1.273
  732TIP3    H1 2139   3.927   5.223   1.286
  732TIP3    H2 2140   4.032   5.331   1.292
  733TIP3   OH2 2141   0.465   3.022   3.046
  733TIP3    H1 2142   0.371   3.035   3.054
  733TIP3    H2 2143   0.475   2.928   3.027
  734TIP3   OH2 2144   7.286   5.380   1.553
  734TIP3    H1 2145   7.222   5.387   1.624
  734TIP3    H2 2146   7.236   5.403   1.474
  735TIP3   OH2 2147   6.255   0.668   5.747
  735TIP3    H1 2148   6.280   0.754   5.780
  735TIP3    H2 2149   6.324   0.645   5.684
  736TIP3   OH2 2150   8.130   6.909   3.566
  736TIP3    H1 2151   8.114   6.815   3.560
  736TIP3    H2 2152   8.151   6.924   3.658
  737TIP3   OH2 2153   2.173   1.247   4.884
  737TIP3    H1 2154   2.253   1.300   4.879
  737TIP3    H2 2155   2.151   1.228   4.793
  738TIP3   OH2 2156   3.689   3.750   6.686
  738TIP3    H1 2157   3.719   3.818   6.746
  738TIP3    H2 2158   3.764   3.691   6.676
  739TIP3   OH2 2159   4.038   4.552   6.099
  739TIP3    H1 2160   4.072   4.578   6.013
  739TIP3    H2 2161   4.051   4.629   6.154
  740TIP3   OH2 2162   4.384   0.453   5.894
  740TIP3    H1 2163   4.324   0.470   5.966
  740TIP3    H2 2164   4.341   0.387   5.841
  741TIP3   OH2 2165   5.618   1.438   0.718
  741TIP3    H1 2166   5.545   1.474   0.769
  741TIP3    H2 2167   5.688   1.501   0.728
  742TIP3   OH2 2168   2.609   0.819   6.465
  742TIP3    H1 2169   2.622   0.874   6.542
  742TIP3    H2 2170   2.602   0.881   6.392
  743TIP3   OH2 2171   3.202   1.531   4.346
  743TIP3    H1 2172   3.264   1.542   4.274
  743TIP3    H2 2173   3.143   1.606   4.339
  744TIP3   OH2 2174   2.305   5.407   2.416
  744TIP3    H1 2175   2.373   5.397   2.348
  744TIP3    H2 2176   2.345   5.369   2.494
  745TIP3   OH2 2177   7.923   0.288   3.286
  745TIP3    H1 2178   7.859   0.359   3.284
  745TIP3    H2 2179   7.937   0.269   3.379
  746TIP3   OH2 2180   4.930   2.815   6.748
  746TIP3    H1 2181   4.971   2.791   6.832
  746TIP3    H2 2182   4.900   2.732   6.711
  747TIP3   OH2 2183   5.683   2.048   0.820
  747TIP3    H1 2184   5.629   1.996   0.760
  747TIP3    H2 2185   5.766   2.001   0.824
  748TIP3   OH2 2186   2.995   2.729   3.026
  748TIP3    H1 2187   3.018   2.670   2.954
  748TIP3    H2 2188   3.077   2.741   3.073
  749TIP3   OH2 2189   4.788   5.581   3.538
  749TIP3    H1 2190   4.872   5.548   3.504
  749TIP3    H2 2191   4.742   5.503   3.569
  750TIP3   OH2 2192   7.131   4.545   6.516
  750TIP3    H1 2193   7.146   4.500   6.599
  750TIP3    H2 2194   7.059   4.605   6.534
  751TIP3   OH2 2195   6.237   4.204   3.618
  751TIP3    H1 2196   6.325   4.170   3.630
  751TIP3    H2 2197   6.182   4.127   3.606
  752TIP3   OH2 2198   3.169   6.864   2.231
  752TIP3    H1 2199   3.223   6.808   2.174
  752TIP3    H2 2200   3.112   6.803   2.277
  753TIP3   OH2 2201   5.023   4.255   3.057
  753TIP3    H1 2202   5.030   4.230   3.150
  753TIP3    H2 2203   4.932   4.235   3.035
  754TIP3   OH2 2204   5.488   7.821   2.105
  754TIP3    H1 2205   5.448   7.740   2.138
  754TIP3    H2 2206   5.562   7.837   2.165
  755TIP3   OH2 2207   2.799   0.781   1.591
  755TIP3    H1 2208   2.801   0.870   1.624
  755TIP3    H2 2209   2.834   0.787   1.503
  756TIP3   OH2 2210   6.616   4.385   0.798
  756TIP3    H1 2211   6.643   4.361   0.709
  756TIP3    H2 2212   6.522   4.368   0.800
  757TIP3   OH2 2213   4.326   7.098   1.272
  757TIP3    H1 2214   4.231   7.099   1.286
  757TIP3    H2 2215   4.337   7.084   1.178
  758TIP3   OH2 2216   7.935   0.909   5.448
  758TIP3    H1 2217   7.972   0.990   5.413
  758TIP3    H2 2218   8.007   0.846   5.443
  759TIP3   OH2 2219   2.498   3.633   6.502
  759TIP3    H1 2220   2.481   3.547   6.464
  759TIP3    H2 2221   2.428   3.645   6.566
  760TIP3   OH2 2222   6.876   2.909   1.305
  760TIP3    H1 2223   6.842   2.960   1.231
  760TIP3    H2 2224   6.949   2.961   1.337
  761TIP3   OH2 2225   6.145   0.032   1.822
  761TIP3    H1 2226   6.088  -0.010   1.886
  761TIP3    H2 2227   6.098   0.111   1.796
  762TIP3   OH2 2228   7.135   1.801   0.448
  762TIP3    H1 2229   7.119   1.894   0.433
  762TIP3    H2 2230   7.156   1.766   0.361
  763TIP3   OH2 2231   3.518   2.901   4.875
  763TIP3    H1 2232   3.570   2.828   4.840
  763TIP3    H2 2233   3.543   2.906   4.967
  764TIP3   OH2 2234   3.961   2.031   4.327
  764TIP3    H1 2235   4.015   2.058   4.252
  764TIP3    H2 2236   3.909   2.109   4.348
  765TIP3   OH2 2237   1.230   5.412   5.957
  765TIP3    H1 2238   1.142   5.449   5.960
  765TIP3    H2 2239   1.283   5.471   6.011
  766TIP3   OH2 2240   1.336   3.828   0.646
  766TIP3    H1 2241   1.273   3.780   0.593
  766TIP3    H2 2242   1.340   3.915   0.605
  767TIP3   OH2 2243   7.671   4.008   6.655
  767TIP3    H1 2244   7.740   3.961   6.701
  767TIP3    H2 2245   7.590   3.975   6.694
  768TIP3   OH2 2246   1.557   5.263   0.676
  768TIP3    H1 2247   1.638   5.244   0.723
  768TIP3    H2 2248   1.549   5.358   0.680
  769TIP3   OH2 2249   5.872   3.352   2.410
  769TIP3    H1 2250   5.929   3.287   2.369
  769TIP3    H2 2251   5.794   3.303   2.437
  770TIP3   OH2 2252   6.171   2.131   4.372
  770TIP3    H1 2253   6.101   2.183   4.412
  770TIP3    H2 2254   6.248   2.151   4.425
  771TIP3   OH2 2255   5.184   5.453   0.558
  771TIP3    H1 2256   5.226   5.438   0.473
  771TIP3    H2 2257   5.257   5.471   0.618
  772TIP3   OH2 2258   3.568   3.329   3.540
  772TIP3    H1 2259   3.499   3.269   3.566
  772TIP3    H2 2260   3.565   3.328   3.444
  773TIP3   OH2 2261   4.938   1.925   0.468
  773TIP3    H1 2262   4.853   1.961   0.496
  773TIP3    H2 2263   5.000   1.996   0.487
  774TIP3   OH2 2264   1.548   7.042   3.809
  774TIP3    H1 2265   1.641   7.045   3.789
  774TIP3    H2 2266   1.518   6.959   3.772
  775TIP3   OH2 2267   3.075   2.113   5.825
  775TIP3    H1 2268   3.094   2.051   5.895
  775TIP3    H2 2269   2.986   2.092   5.797
  776TIP3   OH2 2270   5.772   7.459   0.350
  776TIP3    H1 2271   5.698   7.433   0.295
  776TIP3    H2 2272   5.837   7.389   0.338
  777TIP3   OH2 2273   4.713   6.020   3.880
  777TIP3    H1 2274   4.806   6.039   3.894
  777TIP3    H2 2275   4.713   5.944   3.821
  778TIP3   OH2 2276   6.909   5.582   3.584
  778TIP3    H1 2277   6.977   5.603   3.649
  778TIP3    H2 2278   6.846   5.528   3.633
  779TIP3   OH2 2279   3.174   7.691   6.726
  779TIP3    H1 2280   3.107   7.637   6.768
  779TIP3    H2 2281   3.142   7.781   6.735
  780TIP3   OH2 2282   5.665   2.678   4.152
  780TIP3    H1 2283   5.623   2.711   4.231
  780TIP3    H2 2284   5.630   2.732   4.082
  781TIP3   OH2 2285   7.092   7.258   1.707
  781TIP3    H1 2286   7.133   7.172   1.697
  781TIP3    H2 2287   7.115   7.285   1.796
  782TIP3   OH2 2288   6.837   3.262   5.337
  782TIP3    H1 2289   6.765   3.215   5.296
  782TIP3    H2 2290   6.886   3.194   5.384
  783TIP3   OH2 2291   0.848   2.561   2.886
  783TIP3    H1 2292   0.846   2.575   2.980
  783TIP3    H2 2293   0.768   2.512   2.866
  784TIP3   OH2 2294   7.596   0.476   1.809
  784TIP3    H1 2295   7.579   0.516   1.724
  784TIP3    H2 2296   7.559   0.538   1.872
  785TIP3   OH2 2297   7.153   4.293   1.797
  785TIP3    H1 2298   7.210   4.224   1.764
  785TIP3    H2 2299   7.166   4.366   1.736
  786TIP3   OH2 2300   1.333   5.171   4.686
  786TIP3    H1 2301   1.289   5.099   4.638
  786TIP3    H2 2302   1.405   5.196   4.629
  787TIP3   OH2 2303   0.810   1.243   5.418
  787TIP3    H1 2304   0.869   1.318   5.424
  787TIP3    H2 2305   0.736   1.267   5.473
  788TIP3   OH2 2306   4.617   5.465   6.503
  788TIP3    H1 2307   4.533   5.425   6.478
  788TIP3    H2 2308   4.593   5.530   6.569
  789TIP3   OH2 2309   6.099   4.049   0.592
  789TIP3    H1 2310   6.168   3.984   0.582
  789TIP3    H2 2311   6.039   4.011   0.656
  790TIP3   OH2 2312   3.910   1.639   4.733
  790TIP3    H1 2313   3.881   1.680   4.652
  790TIP3    H2 2314   3.894   1.706   4.801
  791TIP3   OH2 2315   2.391   0.023   6.227
  791TIP3    H1 2316   2.359  -0.057   6.185
  791TIP3    H2 2317   2.312   0.073   6.246
  792TIP3   OH2 2318   1.548   3.224   4.529
  792TIP3    H1 2319   1.595   3.222   4.612
  792TIP3    H2 2320   1.495   3.145   4.529
  793TIP3   OH2 2321   5.092   1.022   6.528
  793TIP3    H1 2322   5.128   1.110   6.536
  793TIP3    H2 2323   5.140   0.970   6.592
  794TIP3   OH2 2324   0.012   3.919   5.941
  794TIP3    H1 2325   0.050   3.995   5.986
  794TIP3    H2 2326   0.028   3.936   5.848
  795TIP3   OH2 2327   1.577   1.258   4.262
  795TIP3    H1 2328   1.506   1.234   4.203
  795TIP3    H2 2329   1.609   1.175   4.296
  796TIP3   OH2 2330   8.285   1.265   5.169
  796TIP3    H1 2331   8.317   1.318   5.242
  796TIP3    H2 2332   8.361   1.213   5.143
  797TIP3   OH2 2333   1.585   6.578   4.509
  797TIP3    H1 2334   1.649   6.584   4.438
  797TIP3    H2 2335   1.512   6.633   4.481
  798TIP3   OH2 2336   3.971   7.075   1.873
  798TIP3    H1 2337   3.960   7.149   1.933
  798TIP3    H2 2338   3.969   7.114   1.786
  799TIP3   OH2 2339   0.685   1.244   6.059
  799TIP3    H1 2340   0.707   1.177   5.994
  799TIP3    H2 2341   0.698   1.200   6.143
  800TIP3   OH2 2342   2.547   4.025   5.324
  800TIP3    H1 2343   2.469   4.066   5.363
  800TIP3    H2 2344   2.519   4.000   5.236
  801TIP3   OH2 2345   0.673   7.482   5.850
  801TIP3    H1 2346   0.632   7.487   5.937
  801TIP3    H2 2347   0.750   7.538   5.856
  802TIP3   OH2 2348   2.338   0.171   5.699
  802TIP3    H1 2349   2.372   0.179   5.788
  802TIP3    H2 2350   2.374   0.088   5.668
  803TIP3   OH2 2351   2.208   5.915   1.424
  803TIP3    H1 2352   2.187   5.826   1.395
  803TIP3    H2 2353   2.295   5.933   1.388
  804TIP3   OH2 2354   5.910   4.963   0.047
  804TIP3    H1 2355   5.909   5.044  -0.003
  804TIP3    H2 2356   5.882   4.895  -0.015
  805TIP3   OH2 2357   2.080   6.793   5.601
  805TIP3    H1 2358   2.146   6.805   5.669
  805TIP3    H2 2359   2.109   6.850   5.529
  806TIP3   OH2 2360   0.747   5.068   6.410
  806TIP3    H1 2361   0.771   5.025   6.493
  806TIP3    H2 2362   0.736   4.996   6.348
  807TIP3   OH2 2363   6.961   7.678   3.144
  807TIP3    H1 2364   6.906   7.626   3.086
  807TIP3    H2 2365   7.020   7.615   3.185
  808TIP3   OH2 2366   4.770   3.162   2.607
  808TIP3    H1 2367   4.688   3.202   2.579
  808TIP3    H2 2368   4.751   3.068   2.611
  809TIP3   OH2 2369   7.252   5.242   1.856
  809TIP3    H1 2370   7.185   5.267   1.793
  809TIP3    H2 2371   7.274   5.323   1.902
  810TIP3   OH2 2372   2.409   0.672   4.600
  810TIP3    H1 2373   2.477   0.610   4.573
  810TIP3    H2 2374   2.413   0.672   4.696
  811TIP3   OH2 2375   7.527   3.020   3.819
  811TIP3    H1 2376   7.586   2.954   3.782
  811TIP3    H2 2377   7.456   2.968   3.859
  812TIP3   OH2 2378   4.707   1.959   1.200
  812TIP3    H1 2379   4.758   2.038   1.179
  812TIP3    H2 2380   4.616   1.986   1.187
  813TIP3   OH2 2381   3.149   2.864   5.858
  813TIP3    H1 2382   3.172   2.912   5.778
  813TIP3    H2 2383   3.158   2.772   5.835
  814TIP3   OH2 2384   7.926   6.588   5.150
  814TIP3    H1 2385   7.929   6.610   5.243
  814TIP3    H2 2386   7.856   6.522   5.143
  815TIP3   OH2 2387   4.473   6.909   3.510
  815TIP3    H1 2388   4.443   6.820   3.496
  815TIP3    H2 2389   4.421   6.941   3.583
  816TIP3   OH2 2390   6.855   2.229   1.123
  816TIP3    H1 2391   6.894   2.315   1.139
  816TIP3    H2 2392   6.865   2.183   1.206
  817TIP3   OH2 2393   3.025   3.530   4.542
  817TIP3    H1 2394   3.025   3.581   4.622
  817TIP3    H2 2395   2.949   3.561   4.493
  818TIP3   OH2 2396   6.922   3.267   1.817
  818TIP3    H1 2397   6.997   3.236   1.867
  818TIP3    H2 2398   6.875   3.188   1.792
  819TIP3   OH2 2399   4.426   6.590   4.937
  819TIP3    H1 2400   4.354   6.632   4.889
  819TIP3    H2 2401   4.484   6.557   4.868
  820TIP3   OH2 2402   8.069   5.853   2.930
  820TIP3    H1 2403   8.130   5.796   2.884
  820TIP3    H2 2404   8.038   5.800   3.004
  821TIP3   OH2 2405   6.097   5.616   5.076
  821TIP3    H1 2406   6.101   5.520   5.085
  821TIP3    H2 2407   6.007   5.639   5.099
  822TIP3   OH2 2408   1.802   4.090   6.345
  822TIP3    H1 2409   1.876   4.128   6.299
  822TIP3    H2 2410   1.731   4.153   6.334
  823TIP3   OH2 2411   5.339   1.486   3.874
  823TIP3    H1 2412   5.390   1.435   3.811
  823TIP3    H2 2413   5.386   1.476   3.957
  824TIP3   OH2 2414   1.014   6.371   4.861
  824TIP3    H1 2415   1.057   6.438   4.914
  824TIP3    H2 2416   1.046   6.386   4.772
  825TIP3   OH2 2417   4.397   0.665   0.202
  825TIP3    H1 2418   4.452   0.709   0.266
  825TIP3    H2 2419   4.366   0.586   0.247
  826TIP3   OH2 2420   5.403   5.469   4.709
  826TIP3    H1 2421   5.308   5.458   4.719
  826TIP3    H2 2422   5.441   5.413   4.776
  827TIP3   OH2 2423   7.726   0.220   5.327
  827TIP3    H1 2424   7.808   0.170   5.328
  827TIP3    H2 2425   7.703   0.228   5.419
  828TIP3   OH2 2426   3.681   0.140   2.164
  828TIP3    H1 2427   3.647   0.222   2.128
  828TIP3    H2 2428   3.603   0.088   2.183
  829TIP3   OH2 2429   1.211   2.733   0.087
  829TIP3    H1 2430   1.194   2.827   0.082
  829TIP3    H2 2431   1.283   2.718   0.027
  830TIP3   OH2 2432   7.114   0.733   4.852
  830TIP3    H1 2433   7.088   0.816   4.892
  830TIP3    H2 2434   7.072   0.667   4.906
  831TIP3   OH2 2435   4.258   1.732   6.288
  831TIP3    H1 2436   4.329   1.671   6.309
  831TIP3    H2 2437   4.289   1.779   6.211
  832TIP3   OH2 2438   7.365   4.824   2.512
  832TIP3    H1 2439   7.304   4.839   2.584
  832TIP3    H2 2440   7.340   4.888   2.445
  833TIP3   OH2 2441   6.777   2.931   2.854
  833TIP3    H1 2442   6.801   2.854   2.803
  833TIP3    H2 2443   6.725   2.985   2.794
  834TIP3   OH2 2444   1.443   3.742   5.149
  834TIP3    H1 2445   1.392   3.762   5.070
  834TIP3    H2 2446   1.526   3.788   5.136
  835TIP3   OH2 2447   6.966   5.584   0.706
  835TIP3    H1 2448   6.876   5.610   0.688
  835TIP3    H2 2449   7.018   5.638   0.646
  836TIP3   OH2 2450   1.870   1.309   3.631
  836TIP3    H1 2451   1.830   1.379   3.580
  836TIP3    H2 2452   1.902   1.246   3.567
  837TIP3   OH2 2453   0.703   5.382   3.548
  837TIP3    H1 2454   0.737   5.443   3.483
  837TIP3    H2 2455   0.743   5.409   3.630
  838TIP3   OH2 2456   3.521   3.026   6.161
  838TIP3    H1 2457   3.601   3.076   6.177
  838TIP3    H2 2458   3.493   3.055   6.074
  839TIP3   OH2 2459   4.768   6.684   0.958
  839TIP3    H1 2460   4.835   6.623   0.988
  839TIP3    H2 2461   4.694   6.628   0.935
  840TIP3   OH2 2462   2.033   7.148   5.912
  840TIP3    H1 2463   2.004   7.159   5.821
  840TIP3    H2 2464   1.956   7.168   5.965
  841TIP3   OH2 2465   2.325   0.198   3.759
  841TIP3    H1 2466   2.282   0.202   3.674
  841TIP3    H2 2467   2.304   0.111   3.793
  842TIP3   OH2 2468   1.206   6.179   5.925
  842TIP3    H1 2469   1.291   6.165   5.883
  842TIP3    H2 2470   1.220   6.252   5.985
  843TIP3   OH2 2471   7.704   4.900   4.668
  843TIP3    H1 2472   7.631   4.858   4.622
  843TIP3    H2 2473   7.708   4.854   4.752
  844TIP3   OH2 2474   6.752   5.028   0.741
  844TIP3    H1 2475   6.699   4.965   0.693
  844TIP3    H2 2476   6.748   5.108   0.689
  845TIP3   OH2 2477   3.470   5.301   3.729
  845TIP3    H1 2478   3.406   5.314   3.660
  845TIP3    H2 2479   3.440   5.223   3.776
  846TIP3   OH2 2480   6.085   0.298   2.751
  846TIP3    H1 2481   6.151   0.363   2.726
  846TIP3    H2 2482   6.124   0.251   2.824
  847TIP3   OH2 2483   5.803   1.781   2.449
  847TIP3    H1 2484   5.767   1.869   2.458
  847TIP3    H2 2485   5.755   1.743   2.376
  848TIP3   OH2 2486   0.627   3.839   0.505
  848TIP3    H1 2487   0.532   3.826   0.498
  848TIP3    H2 2488   0.647   3.813   0.595
  849TIP3   OH2 2489   6.913   6.980   2.615
  849TIP3    H1 2490   6.891   7.059   2.565
  849TIP3    H2 2491   6.831   6.957   2.660
  850TIP3   OH2 2492   5.279   2.849   2.109
  850TIP3    H1 2493   5.184   2.849   2.098
  850TIP3    H2 2494   5.297   2.771   2.162
  851TIP3   OH2 2495   5.146   1.942   3.731
  851TIP3    H1 2496   5.215   1.994   3.773
  851TIP3    H2 2497   5.179   1.852   3.735
  852TIP3   OH2 2498   2.062   0.795   4.794
  852TIP3    H1 2499   2.089   0.718   4.843
  852TIP3    H2 2500   1.983   0.768   4.747
  853TIP3   OH2 2501   2.175   4.969   3.511
  853TIP3    H1 2502   2.194   4.878   3.491
  853TIP3    H2 2503   2.081   4.972   3.528
  854TIP3   OH2 2504   5.068   1.555   1.732
  854TIP3    H1 2505   5.050   1.464   1.711
  854TIP3    H2 2506   5.157   1.555   1.767
  855TIP3   OH2 2507   1.552   3.625   1.655
  855TIP3    H1 2508   1.480   3.644   1.595
  855TIP3    H2 2509   1.576   3.534   1.636
  856TIP3   OH2 2510   2.481   6.351   5.416
  856TIP3    H1 2511   2.565   6.362   5.372
  856TIP3    H2 2512   2.499   6.365   5.508
  857TIP3   OH2 2513   5.489   0.079   4.615
  857TIP3    H1 2514   5.473   0.055   4.707
  857TIP3    H2 2515   5.514   0.171   4.619
  858TIP3   OH2 2516   0.536   1.529   5.268
  858TIP3    H1 2517   0.467   1.522   5.334
  858TIP3    H2 2518   0.564   1.620   5.273
  859TIP3   OH2 2519   6.932   7.530   2.425
  859TIP3    H1 2520   6.845   7.500   2.448
  859TIP3    H2 2521   6.920   7.579   2.343
  860TIP3   OH2 2522   5.287   0.988   3.973
  860TIP3    H1 2523   5.233   1.042   3.915
  860TIP3    H2 2524   5.368   0.974   3.925
  861TIP3   OH2 2525   2.603   0.617   6.651
  861TIP3    H1 2526   2.622   0.686   6.587
  861TIP3    H2 2527   2.565   0.546   6.599
  862TIP3   OH2 2528   0.921   5.330   0.424
  862TIP3    H1 2529   0.987   5.262   0.411
  862TIP3    H2 2530   0.845   5.283   0.458
  863TIP3   OH2 2531   4.441   7.491   2.902
  863TIP3    H1 2532   4.492   7.450   2.971
  863TIP3    H2 2533   4.499   7.490   2.826
  864TIP3   OH2 2534   3.215   4.302   2.274
  864TIP3    H1 2535   3.189   4.393   2.279
  864TIP3    H2 2536   3.193   4.264   2.359
  865TIP3   OH2 2537   6.867   0.010   3.567
  865TIP3    H1 2538   6.858   0.047   3.479
  865TIP3    H2 2539   6.932   0.065   3.610
  866TIP3   OH2 2540   0.930   2.673   4.679
  866TIP3    H1 2541   0.840   2.685   4.648
  866TIP3    H2 2542   0.981   2.739   4.632
  867TIP3   OH2 2543   1.363   3.134   2.818
  867TIP3    H1 2544   1.312   3.142   2.738
  867TIP3    H2 2545   1.397   3.222   2.834
  868TIP3   OH2 2546   3.018   7.503   2.576
  868TIP3    H1 2547   3.058   7.478   2.660
  868TIP3    H2 2548   3.054   7.440   2.513
  869TIP3   OH2 2549   4.975   0.526   2.341
  869TIP3    H1 2550   4.989   0.606   2.392
  869TIP3    H2 2551   4.985   0.553   2.250
  870TIP3   OH2 2552   6.569   2.504   1.191
  870TIP3    H1 2553   6.601   2.560   1.120
  870TIP3    H2 2554   6.527   2.431   1.146
  871TIP3   OH2 2555   1.845   7.030   5.103
  871TIP3    H1 2556   1.824   6.986   5.185
  871TIP3    H2 2557   1.911   7.095   5.126
  872TIP3   OH2 2558   1.158   7.053   3.047
  872TIP3    H1 2559   1.067   7.030   3.026
  872TIP3    H2 2560   1.179   7.002   3.124
  873TIP3   OH2 2561   5.203   5.124   3.185
  873TIP3    H1 2562   5.272   5.116   3.119
  873TIP3    H2 2563   5.231   5.068   3.257
  874TIP3   OH2 2564   2.319   4.227   0.008
  874TIP3    H1 2565   2.302   4.321   0.019
  874TIP3    H2 2566   2.271   4.204  -0.071
  875TIP3   OH2 2567   0.152   1.698   4.202
  875TIP3    H1 2568   0.152   1.777   4.148
  875TIP3    H2 2569   0.243   1.684   4.226
  876TIP3   OH2 2570   5.723   3.880   0.142
  876TIP3    H1 2571   5.726   3.975   0.139
  876TIP3    H2 2572   5.669   3.860   0.219
  877TIP3   OH2 2573   5.981   2.575   5.530
  877TIP3    H1 2574   5.904   2.560   5.477
  877TIP3    H2 2575   6.042   2.621   5.472
  878TIP3   OH2 2576   8.224   6.028   3.347
  878TIP3    H1 2577   8.185   6.050   3.432
  878TIP3    H2 2578   8.255   6.112   3.313
  879TIP3   OH2 2579   2.239   2.503   1.503
  879TIP3    H1 2580   2.185   2.443   1.554
  879TIP3    H2 2581   2.278   2.449   1.434
  880TIP3   OH2 2582   1.299   4.085   5.757
  880TIP3    H1 2583   1.392   4.093   5.733
  880TIP3    H2 2584   1.295   4.119   5.846
  881TIP3   OH2 2585   5.259   2.071   1.550
  881TIP3    H1 2586   5.228   2.078   1.640
  881TIP3    H2 2587   5.319   2.145   1.539
  882TIP3   OH2 2588   0.800   0.260   4.012
  882TIP3    H1 2589   0.781   0.279   4.103
  882TIP3    H2 2590   0.740   0.316   3.962
  883TIP3   OH2 2591   3.971   4.630   3.296
  883TIP3    H1 2592   3.905   4.627   3.226
  883TIP3    H2 2593   3.924   4.663   3.372
  884TIP3   OH2 2594   1.635   2.355   6.449
  884TIP3    H1 2595   1.718   2.318   6.420
  884TIP3    H2 2596   1.594   2.387   6.369
  885TIP3   OH2 2597   1.665   0.311   2.532
  885TIP3    H1 2598   1.600   0.256   2.575
  885TIP3    H2 2599   1.650   0.399   2.568
  886TIP3   OH2 2600   8.253   7.047   0.257
  886TIP3    H1 2601   8.295   6.963   0.239
  886TIP3    H2 2602   8.260   7.058   0.352
  887TIP3   OH2 2603   3.191   1.774   2.863
  887TIP3    H1 2604   3.138   1.836   2.812
  887TIP3    H2 2605   3.154   1.779   2.951
  888TIP3   OH2 2606   4.858   5.758   1.482
  888TIP3    H1 2607   4.878   5.716   1.565
  888TIP3    H2 2608   4.896   5.846   1.489
  889TIP3   OH2 2609   3.591   6.709   0.758
  889TIP3    H1 2610   3.591   6.712   0.854
  889TIP3    H2 2611   3.683   6.702   0.734
  890TIP3   OH2 2612   0.849   1.509   1.217
  890TIP3    H1 2613   0.814   1.492   1.305
  890TIP3    H2 2614   0.785   1.568   1.177
  891TIP3   OH2 2615   8.041   1.343   4.588
  891TIP3    H1 2616   7.984   1.366   4.662
  891TIP3    H2 2617   8.109   1.411   4.588
  892TIP3   OH2 2618   3.455   3.884   4.731
  892TIP3    H1 2619   3.421   3.973   4.717
  892TIP3    H2 2620   3.494   3.859   4.648
  893TIP3   OH2 2621   1.009   0.871   5.297
  893TIP3    H1 2622   0.990   0.799   5.238
  893TIP3    H2 2623   0.939   0.866   5.363
  894TIP3   OH2 2624   3.937   1.065   2.256
  894TIP3    H1 2625   4.023   1.031   2.232
  894TIP3    H2 2626   3.891   1.075   2.173
  895TIP3   OH2 2627   6.324   5.430   1.031
  895TIP3    H1 2628   6.380   5.356   1.053
  895TIP3    H2 2629   6.262   5.436   1.103
  896TIP3   OH2 2630   1.171   3.333   5.952
  896TIP3    H1 2631   1.139   3.314   6.040
  896TIP3    H2 2632   1.266   3.340   5.962
  897TIP3   OH2 2633   0.265   2.028   2.360
  897TIP3    H1 2634   0.183   1.979   2.349
  897TIP3    H2 2635   0.252   2.109   2.311
  898TIP3   OH2 2636   4.255   5.804   5.318
  898TIP3    H1 2637   4.313   5.756   5.377
  898TIP3    H2 2638   4.194   5.737   5.285
  899TIP3   OH2 2639   4.238   2.634   2.954
  899TIP3    H1 2640   4.282   2.709   2.994
  899TIP3    H2 2641   4.191   2.670   2.879
  900TIP3   OH2 2642   7.399   7.396   6.470
  900TIP3    H1 2643   7.469   7.358   6.417
  900TIP3    H2 2644   7.444   7.451   6.533
  901TIP3   OH2 2645   4.596   3.761   5.040
  901TIP3    H1 2646   4.623   3.751   4.949
  901TIP3    H2 2647   4.594   3.671   5.074
  902TIP3   OH2 2648   5.694   4.463   5.090
  902TIP3    H1 2649   5.715   4.522   5.017
  902TIP3    H2 2650   5.758   4.392   5.083
  903TIP3   OH2 2651   1.220   1.186   6.714
  903TIP3    H1 2652   1.192   1.112   6.661
  903TIP3    H2 2653   1.156   1.191   6.785
  904TIP3   OH2 2654   7.854   7.317   4.184
  904TIP3    H1 2655   7.771   7.366   4.185
  904TIP3    H2 2656   7.843   7.251   4.253
  905TIP3   OH2 2657   5.165   5.783   2.760
  905TIP3    H1 2658   5.232   5.727   2.720
  905TIP3    H2 2659   5.116   5.819   2.686
  906TIP3   OH2 2660   5.345   4.096   3.646
  906TIP3    H1 2661   5.423   4.081   3.592
  906TIP3    H2 2662   5.358   4.184   3.682
  907TIP3   OH2 2663   2.911   5.082   5.463
  907TIP3    H1 2664   2.916   5.002   5.411
  907TIP3    H2 2665   2.900   5.152   5.398
  908TIP3   OH2 2666   2.683   2.559   6.375
  908TIP3    H1 2667   2.655   2.581   6.464
  908TIP3    H2 2668   2.768   2.602   6.365
  909TIP3   OH2 2669   0.443   0.675   5.943
  909TIP3    H1 2670   0.384   0.749   5.959
  909TIP3    H2 2671   0.509   0.682   6.012
  910TIP3   OH2 2672   4.342   6.824   5.399
  910TIP3    H1 2673   4.259   6.790   5.433
  910TIP3    H2 2674   4.388   6.858   5.475
  911TIP3   OH2 2675   7.156   3.829   5.773
  911TIP3    H1 2676   7.162   3.738   5.746
  911TIP3    H2 2677   7.085   3.831   5.837
  912TIP3   OH2 2678   1.482   7.379   3.120
  912TIP3    H1 2679   1.386   7.388   3.116
  912TIP3    H2 2680   1.507   7.348   3.033
  913TIP3   OH2 2681   5.887   3.640   1.705
  913TIP3    H1 2682   5.844   3.723   1.722
  913TIP3    H2 2683   5.964   3.641   1.762
  914TIP3   OH2 2684   1.686   1.546   6.457
  914TIP3    H1 2685   1.599   1.507   6.465
  914TIP3    H2 2686   1.716   1.520   6.370
  915TIP3   OH2 2687   2.432   6.831   4.965
  915TIP3    H1 2688   2.435   6.742   5.001
  915TIP3    H2 2689   2.371   6.877   5.022
  916TIP3   OH2 2690   3.258   7.366   3.669
  916TIP3    H1 2691   3.254   7.289   3.611
  916TIP3    H2 2692   3.169   7.402   3.666
  917TIP3   OH2 2693   5.055   2.097   1.296
  917TIP3    H1 2694   5.116   2.107   1.369
  917TIP3    H2 2695   4.971   2.128   1.330
  918TIP3   OH2 2696   0.230   2.596   2.664
  918TIP3    H1 2697   0.273   2.524   2.618
  918TIP3    H2 2698   0.156   2.619   2.607
  919TIP3   OH2 2699   7.541   5.456   1.604
  919TIP3    H1 2700   7.538   5.445   1.699
  919TIP3    H2 2701   7.457   5.422   1.572
  920TIP3   OH2 2702   5.034   6.422   6.048
  920TIP3    H1 2703   5.036   6.401   5.955
  920TIP3    H2 2704   5.020   6.338   6.092
  921TIP3   OH2 2705   0.680   3.724   3.093
  921TIP3    H1 2706   0.607   3.664   3.108
  921TIP3    H2 2707   0.658   3.802   3.145
  922TIP3   OH2 2708   5.599   2.133   2.944
  922TIP3    H1 2709   5.680   2.116   2.896
  922TIP3    H2 2710   5.535   2.157   2.877
  923TIP3   OH2 2711   7.580   2.617   5.166
  923TIP3    H1 2712   7.598   2.527   5.139
  923TIP3    H2 2713   7.591   2.669   5.087
  924TIP3   OH2 2714   5.647   2.278   4.322
  924TIP3    H1 2715   5.705   2.203   4.311
  924TIP3    H2 2716   5.676   2.341   4.257
  925TIP3   OH2 2717   1.160   1.465   4.686
  925TIP3    H1 2718   1.154   1.377   4.648
  925TIP3    H2 2719   1.071   1.486   4.714
  926TIP3   OH2 2720   5.530   5.881   5.870
  926TIP3    H1 2721   5.611   5.925   5.897
  926TIP3    H2 2722   5.499   5.932   5.795
  927TIP3   OH2 2723   0.731   3.646   5.746
  927TIP3    H1 2724   0.699   3.685   5.827
  927TIP3    H2 2725   0.679   3.686   5.676
  928TIP3   OH2 2726   5.007   6.395   5.780
  928TIP3    H1 2727   4.920   6.357   5.785
  928TIP3    H2 2728   5.040   6.370   5.694
  929TIP3   OH2 2729   3.430   6.161   2.943
  929TIP3    H1 2730   3.386   6.246   2.950
  929TIP3    H2 2731   3.378   6.113   2.878
  930TIP3   OH2 2732   5.929   7.134   1.193
  930TIP3    H1 2733   5.891   7.208   1.144
  930TIP3    H2 2734   6.023   7.142   1.179
  931TIP3   OH2 2735   3.833   3.611   0.811
  931TIP3    H1 2736   3.834   3.592   0.905
  931TIP3    H2 2737   3.925   3.614   0.786
  932TIP3   OH2 2738   5.336   6.378   6.222
  932TIP3    H1 2739   5.269   6.309   6.222
  932TIP3    H2 2740   5.290   6.455   6.255
  933TIP3   OH2 2741   0.549   2.611   0.060
  933TIP3    H1 2742   0.492   2.599  -0.016
  933TIP3    H2 2743   0.543   2.704   0.081
  934TIP3   OH2 2744   5.591   6.584   5.719
  934TIP3    H1 2745   5.560   6.497   5.745
  934TIP3    H2 2746   5.596   6.580   5.623
  935TIP3   OH2 2747   5.829   1.109   0.410
  935TIP3    H1 2748   5.922   1.131   0.409
  935TIP3    H2 2749   5.828   1.013   0.404
  936TIP3   OH2 2750   6.492   6.197   0.817
  936TIP3    H1 2751   6.567   6.138   0.810
  936TIP3    H2 2752   6.531   6.284   0.823
  937TIP3   OH2 2753   6.790   0.486   3.172
  937TIP3    H1 2754   6.775   0.454   3.083
  937TIP3    H2 2755   6.805   0.580   3.162
  938TIP3   OH2 2756   4.175   1.511   2.790
  938TIP3    H1 2757   4.245   1.575   2.775
  938TIP3    H2 2758   4.214   1.447   2.849
  939TIP3   OH2 2759   0.229   4.585   4.209
  939TIP3    H1 2760   0.148   4.592   4.260
  939TIP3    H2 2761   0.289   4.646   4.252
  940TIP3   OH2 2762   7.793   6.152   3.529
  940TIP3    H1 2763   7.765   6.171   3.618
  940TIP3    H2 2764   7.789   6.057   3.522
  941TIP3   OH2 2765   0.576   5.217   6.695
  941TIP3    H1 2766   0.498   5.221   6.639
  941TIP3    H2 2767   0.591   5.124   6.710
  942TIP3   OH2 2768   5.067   2.471   4.039
  942TIP3    H1 2769   5.082   2.377   4.028
  942TIP3    H2 2770   5.146   2.504   4.083
  943TIP3   OH2 2771   7.543   1.902   3.763
  943TIP3    H1 2772   7.547   1.841   3.690
  943TIP3    H2 2773   7.452   1.898   3.793
  944TIP3   OH2 2774   6.088   2.426   3.398
  944TIP3    H1 2775   6.072   2.394   3.309
  944TIP3    H2 2776   6.167   2.380   3.426
  945TIP3   OH2 2777   6.922   3.597   5.343
  945TIP3    H1 2778   6.998   3.552   5.380
  945TIP3    H2 2779   6.922   3.573   5.250
  946TIP3   OH2 2780   7.502   5.277   3.146
  946TIP3    H1 2781   7.596   5.298   3.148
  946TIP3    H2 2782   7.490   5.224   3.068
  947TIP3   OH2 2783   7.193   5.881   5.080
  947TIP3    H1 2784   7.194   5.803   5.136
  947TIP3    H2 2785   7.148   5.852   5.001
  948TIP3   OH2 2786   8.162   5.758   2.605
  948TIP3    H1 2787   8.104   5.693   2.565
  948TIP3    H2 2788   8.155   5.835   2.549
  949TIP3   OH2 2789   7.483   0.638   5.387
  949TIP3    H1 2790   7.540   0.709   5.358
  949TIP3    H2 2791   7.541   0.562   5.397
  950TIP3   OH2 2792   0.238   3.253   1.847
  950TIP3    H1 2793   0.237   3.251   1.751
  950TIP3    H2 2794   0.177   3.184   1.873
  951TIP3   OH2 2795   5.920   5.714   2.944
  951TIP3    H1 2796   6.015   5.713   2.934
  951TIP3    H2 2797   5.888   5.763   2.867
  952TIP3   OH2 2798   5.113   1.962   4.449
  952TIP3    H1 2799   5.182   2.024   4.470
  952TIP3    H2 2800   5.034   2.000   4.487
  953TIP3   OH2 2801   3.276   2.077   1.065
  953TIP3    H1 2802   3.370   2.073   1.051
  953TIP3    H2 2803   3.256   1.999   1.117
  954TIP3   OH2 2804   4.264   5.092   0.553
  954TIP3    H1 2805   4.284   5.000   0.572
  954TIP3    H2 2806   4.169   5.095   0.546
  955TIP3   OH2 2807   1.730   7.307   4.530
  955TIP3    H1 2808   1.772   7.292   4.445
  955TIP3    H2 2809   1.662   7.372   4.511
  956TIP3   OH2 2810   3.126   5.776   1.831
  956TIP3    H1 2811   3.169   5.771   1.917
  956TIP3    H2 2812   3.037   5.807   1.851
  957TIP3   OH2 2813   7.170   4.486   3.853
  957TIP3    H1 2814   7.217   4.560   3.815
  957TIP3    H2 2815   7.104   4.525   3.910
  958TIP3   OH2 2816   3.578   4.092   6.671
  958TIP3    H1 2817   3.568   4.087   6.766
  958TIP3    H2 2818   3.659   4.142   6.658
  959TIP3   OH2 2819   4.870   6.801   1.946
  959TIP3    H1 2820   4.797   6.862   1.955
  959TIP3    H2 2821   4.922   6.837   1.874
  960TIP3   OH2 2822   0.384   2.062   6.620
  960TIP3    H1 2823   0.439   2.047   6.543
  960TIP3    H2 2824   0.348   1.975   6.642
  961TIP3   OH2 2825   0.699   7.304   1.538
  961TIP3    H1 2826   0.712   7.358   1.460
  961TIP3    H2 2827   0.635   7.238   1.511
  962TIP3   OH2 2828   0.323   5.597   1.157
  962TIP3    H1 2829   0.239   5.642   1.165
  962TIP3    H2 2830   0.307   5.527   1.094
  963TIP3   OH2 2831   5.112   2.205   3.015
  963TIP3    H1 2832   5.054   2.165   3.081
  963TIP3    H2 2833   5.200   2.179   3.041
  964TIP3   OH2 2834   6.937   1.820   6.643
  964TIP3    H1 2835   6.893   1.752   6.694
  964TIP3    H2 2836   6.876   1.841   6.573
  965TIP3   OH2 2837   8.209   1.169   1.295
  965TIP3    H1 2838   8.168   1.234   1.352
  965TIP3    H2 2839   8.274   1.219   1.246
  966TIP3   OH2 2840   8.077   0.202   2.116
  966TIP3    H1 2841   8.120   0.271   2.166
  966TIP3    H2 2842   8.149   0.145   2.087
  967TIP3   OH2 2843   3.207   6.109   3.332
  967TIP3    H1 2844   3.244   6.158   3.258
  967TIP3    H2 2845   3.119   6.084   3.302
  968TIP3   OH2 2846   6.249   2.489   6.193
  968TIP3    H1 2847   6.249   2.515   6.101
  968TIP3    H2 2848   6.340   2.497   6.220
  969TIP3   OH2 2849   1.653   4.873   5.373
  969TIP3    H1 2850   1.589   4.936   5.338
  969TIP3    H2 2851   1.722   4.872   5.307
  970TIP3   OH2 2852   7.635   2.626   4.566
  970TIP3    H1 2853   7.661   2.614   4.657
  970TIP3    H2 2854   7.715   2.611   4.516
  971TIP3   OH2 2855   2.302   4.519   6.185
  971TIP3    H1 2856   2.315   4.549   6.275
  971TIP3    H2 2857   2.390   4.508   6.150
  972TIP3   OH2 2858   5.842   3.972   4.094
  972TIP3    H1 2859   5.925   3.998   4.053
  972TIP3    H2 2860   5.851   3.879   4.111
  973TIP3   OH2 2861   8.133   2.772   1.324
  973TIP3    H1 2862   8.052   2.744   1.366
  973TIP3    H2 2863   8.127   2.867   1.319
  974TIP3   OH2 2864   6.668   1.526   4.017
  974TIP3    H1 2865   6.687   1.536   3.923
  974TIP3    H2 2866   6.673   1.432   4.033
  975TIP3   OH2 2867   2.749   0.205   1.345
  975TIP3    H1 2868   2.697   0.127   1.364
  975TIP3    H2 2869   2.692   0.257   1.288
  976TIP3   OH2 2870   7.852   3.779   2.362
  976TIP3    H1 2871   7.874   3.755   2.272
  976TIP3    H2 2872   7.933   3.763   2.411
  977TIP3   OH2 2873   6.433   1.419   1.165
  977TIP3    H1 2874   6.472   1.333   1.180
  977TIP3    H2 2875   6.508   1.479   1.167
  978TIP3   OH2 2876   4.231   1.199   3.413
  978TIP3    H1 2877   4.202   1.167   3.498
  978TIP3    H2 2878   4.315   1.155   3.398
  979TIP3   OH2 2879   3.486   1.475   5.438
  979TIP3    H1 2880   3.486   1.445   5.347
  979TIP3    H2 2881   3.404   1.524   5.446
  980TIP3   OH2 2882   7.877   7.238   2.042
  980TIP3    H1 2883   7.862   7.259   1.950
  980TIP3    H2 2884   7.793   7.258   2.085
  981TIP3   OH2 2885   5.448   7.388   3.843
  981TIP3    H1 2886   5.417   7.346   3.923
  981TIP3    H2 2887   5.501   7.321   3.800
  982TIP3   OH2 2888   5.547   4.685   1.235
  982TIP3    H1 2889   5.515   4.720   1.152
  982TIP3    H2 2890   5.532   4.755   1.298
  983TIP3   OH2 2891   0.893   7.241   6.667
  983TIP3    H1 2892   0.920   7.238   6.575
  983TIP3    H2 2893   0.975   7.235   6.716
  984TIP3   OH2 2894   7.507   2.985   6.130
  984TIP3    H1 2895   7.597   3.004   6.156
  984TIP3    H2 2896   7.509   2.980   6.034
  985TIP3   OH2 2897   4.339   4.082   5.883
  985TIP3    H1 2898   4.281   4.142   5.838
  985TIP3    H2 2899   4.295   4.062   5.966
  986TIP3   OH2 2900   4.911   2.215   3.910
  986TIP3    H1 2901   4.827   2.257   3.928
  986TIP3    H2 2902   4.954   2.210   3.995
  987TIP3   OH2 2903   4.321   3.371   5.858
  987TIP3    H1 2904   4.388   3.307   5.881
  987TIP3    H2 2905   4.252   3.358   5.924
  988TIP3   OH2 2906   5.982   1.999   6.759
  988TIP3    H1 2907   6.002   2.024   6.669
  988TIP3    H2 2908   5.990   1.904   6.760
  989TIP3   OH2 2909   1.604   5.374   4.154
  989TIP3    H1 2910   1.550   5.429   4.210
  989TIP3    H2 2911   1.685   5.362   4.204
  990TIP3   OH2 2912   1.019   3.187   5.756
  990TIP3    H1 2913   1.064   3.240   5.821
  990TIP3    H2 2914   1.062   3.101   5.761
  991TIP3   OH2 2915   5.977   6.258   6.270
  991TIP3    H1 2916   5.921   6.255   6.347
  991TIP3    H2 2917   5.964   6.173   6.227
  992TIP3   OH2 2918   8.218   1.781   4.473
  992TIP3    H1 2919   8.184   1.713   4.416
  992TIP3    H2 2920   8.297   1.813   4.427
  993TIP3   OH2 2921   7.339   3.879   2.743
  993TIP3    H1 2922   7.340   3.807   2.679
  993TIP3    H2 2923   7.360   3.837   2.827
  994TIP3   OH2 2924   7.302   1.693   4.343
  994TIP3    H1 2925   7.241   1.764   4.364
  994TIP3    H2 2926   7.387   1.737   4.335
  995TIP3   OH2 2927   3.307   6.916   5.306
  995TIP3    H1 2928   3.312   7.011   5.318
  995TIP3    H2 2929   3.223   6.903   5.261
  996TIP3   OH2 2930   0.580   7.655   0.224
  996TIP3    H1 2931   0.676   7.658   0.221
  996TIP3    H2 2932   0.551   7.739   0.190
  997TIP3   OH2 2933   8.060   2.338   3.921
  997TIP3    H1 2934   8.048   2.429   3.892
  997TIP3    H2 2935   8.151   2.334   3.949
  998TIP3   OH2 2936   8.157   3.880   2.096
  998TIP3    H1 2937   8.062   3.880   2.085
  998TIP3    H2 2938   8.173   3.940   2.169
  999TIP3   OH2 2939   6.276   0.676   3.658
  999TIP3    H1 2940   6.257   0.672   3.565
  999TIP3    H2 2941   6.190   0.672   3.701
 1000TIP3   OH2 2942   3.303   7.323   1.555
 1000TIP3    H1 2943   3.224   7.318   1.609
 1000TIP3    H2 2944   3.358   7.386   1.601
 1001TIP3   OH2 2945   3.695   7.218   2.474
 1001TIP3    H1 2946   3.617   7.184   2.430
 1001TIP3    H2 2947   3.752   7.141   2.483
 1002TIP3   OH2 2948   7.208   5.846   0.229
 1002TIP3    H1 2949   7.184   5.881   0.315
 1002TIP3    H2 2950   7.185   5.753   0.234
 1003TIP3   OH2 2951   4.908   4.403   0.885
 1003TIP3    H1 2952   4.964   4.464   0.932
 1003TIP3    H2 2953   4.893   4.445   0.800
 1004TIP3   OH2 2954   7.562   5.504   4.177
 1004TIP3    H1 2955   7.483   5.479   4.225
 1004TIP3    H2 2956   7.623   5.531   4.245
 1005TIP3   OH2 2957   5.528   7.435   6.193
 1005TIP3    H1 2958   5.457   7.455   6.131
 1005TIP3    H2 2959   5.607   7.469   6.151
 1006TIP3   OH2 2960   3.891   4.158   3.860
 1006TIP3    H1 2961   3.965   4.166   3.800
 1006TIP3    H2 2962   3.926   4.112   3.936
 1007TIP3   OH2 2963   0.942   5.480   2.857
 1007TIP3    H1 2964   0.979   5.567   2.875
 1007TIP3    H2 2965   0.899   5.490   2.772
 1008TIP3   OH2 2966   7.625   4.976   0.000
 1008TIP3    H1 2967   7.664   5.019   0.076
 1008TIP3    H2 2968   7.638   4.883   0.015
 1009TIP3   OH2 2969   2.633   0.789   5.526
 1009TIP3    H1 2970   2.549   0.748   5.542
 1009TIP3    H2 2971   2.689   0.718   5.493
 1010TIP3   OH2 2972   7.568   5.418   1.332
 1010TIP3    H1 2973   7.557   5.500   1.284
 1010TIP3    H2 2974   7.564   5.443   1.424
 1011TIP3   OH2 2975   7.176   2.043   5.499
 1011TIP3    H1 2976   7.118   2.041   5.576
 1011TIP3    H2 2977   7.118   2.023   5.425
 1012TIP3   OH2 2978   1.706   7.105   0.487
 1012TIP3    H1 2979   1.707   7.111   0.582
 1012TIP3    H2 2980   1.793   7.136   0.460
 1013TIP3   OH2 2981   6.562   3.123   4.708
 1013TIP3    H1 2982   6.657   3.139   4.710
 1013TIP3    H2 2983   6.552   3.032   4.735
 1014TIP3   OH2 2984   3.603   7.411   5.470
 1014TIP3    H1 2985   3.619   7.426   5.377
 1014TIP3    H2 2986   3.582   7.318   5.477
 1015TIP3   OH2 2987   1.686   0.090   0.397
 1015TIP3    H1 2988   1.665   0.171   0.352
 1015TIP3    H2 2989   1.645   0.021   0.344
 1016TIP3   OH2 2990   4.840   0.417   4.335
 1016TIP3    H1 2991   4.767   0.368   4.296
 1016TIP3    H2 2992   4.895   0.349   4.376
 1017TIP3   OH2 2993   4.462   0.932   3.928
 1017TIP3    H1 2994   4.550   0.957   3.957
 1017TIP3    H2 2995   4.422   1.015   3.901
 1018TIP3   OH2 2996   0.726   0.780   0.616
 1018TIP3    H1 2997   0.655   0.796   0.554
 1018TIP3    H2 2998   0.724   0.855   0.675
 1019TIP3   OH2 2999   0.862   1.940   2.706
 1019TIP3    H1 3000   0.817   1.992   2.640
 1019TIP3    H2 3001   0.821   1.854   2.701
 1020TIP3   OH2 3002   0.925   6.558   1.212
 1020TIP3    H1 3003   0.869   6.607   1.272
 1020TIP3    H2 3004   0.973   6.497   1.268
 1021TIP3   OH2 3005   6.170   0.164   0.911
 1021TIP3    H1 3006   6.142   0.250   0.943
 1021TIP3    H2 3007   6.138   0.102   0.977
 1022TIP3   OH2 3008   5.656   4.425   6.254
 1022TIP3    H1 3009   5.577   4.371   6.252
 1022TIP3    H2 3010   5.674   4.439   6.347
 1023TIP3   OH2 3011   2.249   6.960   6.101
 1023TIP3    H1 3012   2.175   6.919   6.055
 1023TIP3    H2 3013   2.211   7.039   6.140
 1024TIP3   OH2 3014   5.281   3.657   4.731
 1024TIP3    H1 3015   5.284   3.726   4.796
 1024TIP3    H2 3016   5.348   3.682   4.666
 1025TIP3   OH2 3017   8.040   2.833   2.006
 1025TIP3    H1 3018   8.098   2.848   2.082
 1025TIP3    H2 3019   7.979   2.906   2.007
 1026TIP3   OH2 3020   4.263   0.356   3.126
 1026TIP3    H1 3021   4.291   0.322   3.211
 1026TIP3    H2 3022   4.306   0.300   3.062
 1027TIP3   OH2 3023   2.117   5.098   5.982
 1027TIP3    H1 3024   2.126   5.004   5.997
 1027TIP3    H2 3025   2.190   5.119   5.924
 1028TIP3   OH2 3026   7.199   1.942   2.174
 1028TIP3    H1 3027   7.251   1.961   2.096
 1028TIP3    H2 3028   7.208   1.847   2.186
 1029TIP3   OH2 3029   2.957   7.442   6.709
 1029TIP3    H1 3030   3.002   7.363   6.680
 1029TIP3    H2 3031   2.929   7.484   6.628
 1030TIP3   OH2 3032   1.548   3.146   3.822
 1030TIP3    H1 3033   1.465   3.106   3.794
 1030TIP3    H2 3034   1.614   3.078   3.809
 1031TIP3   OH2 3035   0.021   7.741   5.293
 1031TIP3    H1 3036   0.114   7.759   5.311
 1031TIP3    H2 3037  -0.002   7.670   5.352
 1032TIP3   OH2 3038   0.481   1.806   3.752
 1032TIP3    H1 3039   0.575   1.794   3.764
 1032TIP3    H2 3040   0.475   1.875   3.686
 1033TIP3   OH2 3041   5.379   2.753   5.641
 1033TIP3    H1 3042   5.290   2.744   5.675
 1033TIP3    H2 3043   5.430   2.690   5.693
 1034TIP3   OH2 3044   5.975   1.243   5.409
 1034TIP3    H1 3045   5.964   1.156   5.447
 1034TIP3    H2 3046   5.893   1.258   5.360
 1035TIP3   OH2 3047   2.128   6.164   1.515
 1035TIP3    H1 3048   2.203   6.197   1.465
 1035TIP3    H2 3049   2.141   6.069   1.516
 1036TIP3   OH2 3050   1.853   5.811   3.303
 1036TIP3    H1 3051   1.949   5.812   3.308
 1036TIP3    H2 3052   1.834   5.842   3.214
 1037TIP3   OH2 3053   6.584   3.887   4.765
 1037TIP3    H1 3054   6.669   3.915   4.731
 1037TIP3    H2 3055   6.602   3.861   4.855
 1038TIP3   OH2 3056   0.719   7.252   5.678
 1038TIP3    H1 3057   0.692   7.278   5.590
 1038TIP3    H2 3058   0.735   7.335   5.724
 1039TIP3   OH2 3059   0.228   7.319   3.129
 1039TIP3    H1 3060   0.137   7.330   3.102
 1039TIP3    H2 3061   0.278   7.369   3.064
 1040TIP3   OH2 3062   0.041   2.831   4.592
 1040TIP3    H1 3063  -0.044   2.789   4.581
 1040TIP3    H2 3064   0.063   2.864   4.504
 1041TIP3   OH2 3065   6.340   1.145   1.457
 1041TIP3    H1 3066   6.361   1.082   1.526
 1041TIP3    H2 3067   6.410   1.133   1.392
 1042TIP3   OH2 3068   3.850   3.374   0.273
 1042TIP3    H1 3069   3.804   3.422   0.205
 1042TIP3    H2 3070   3.819   3.413   0.355
 1043TIP3   OH2 3071   3.151   4.571   6.680
 1043TIP3    H1 3072   3.160   4.560   6.585
 1043TIP3    H2 3073   3.072   4.522   6.702
 1044TIP3   OH2 3074   6.487   5.333   3.827
 1044TIP3    H1 3075   6.457   5.417   3.861
 1044TIP3    H2 3076   6.532   5.292   3.901
 1045TIP3   OH2 3077   6.430   6.219   0.507
 1045TIP3    H1 3078   6.368   6.279   0.464
 1045TIP3    H2 3079   6.386   6.193   0.588
 1046TIP3   OH2 3080   4.614   3.865   1.428
 1046TIP3    H1 3081   4.660   3.785   1.453
 1046TIP3    H2 3082   4.562   3.840   1.352
 1047TIP3   OH2 3083   2.376   6.294   6.551
 1047TIP3    H1 3084   2.425   6.323   6.474
 1047TIP3    H2 3085   2.434   6.231   6.594
 1048TIP3   OH2 3086   7.757   1.026   0.535
 1048TIP3    H1 3087   7.694   1.093   0.564
 1048TIP3    H2 3088   7.841   1.059   0.564
 1049TIP3   OH2 3089   3.938   1.688   2.792
 1049TIP3    H1 3090   4.005   1.753   2.774
 1049TIP3    H2 3091   3.986   1.607   2.806
 1050TIP3   OH2 3092   6.919   1.584   1.008
 1050TIP3    H1 3093   6.989   1.535   1.050
 1050TIP3    H2 3094   6.964   1.650   0.954
 1051TIP3   OH2 3095   2.250   2.772   3.013
 1051TIP3    H1 3096   2.225   2.686   2.980
 1051TIP3    H2 3097   2.217   2.833   2.947
 1052TIP3   OH2 3098   4.992   0.450   1.824
 1052TIP3    H1 3099   5.003   0.540   1.794
 1052TIP3    H2 3100   4.968   0.401   1.746
 1053TIP3   OH2 3101   7.871   2.191   1.975
 1053TIP3    H1 3102   7.872   2.286   1.983
 1053TIP3    H2 3103   7.804   2.162   2.036
 1054TIP3   OH2 3104   0.443   1.046   5.716
 1054TIP3    H1 3105   0.497   1.051   5.637
 1054TIP3    H2 3106   0.502   1.011   5.782
 1055TIP3   OH2 3107   6.272   3.846   4.975
 1055TIP3    H1 3108   6.320   3.815   5.051
 1055TIP3    H2 3109   6.230   3.767   4.940
 1056TIP3   OH2 3110   0.603   3.990   4.339
 1056TIP3    H1 3111   0.589   4.054   4.269
 1056TIP3    H2 3112   0.674   4.028   4.392
 1057TIP3   OH2 3113   1.279   4.723   0.813
 1057TIP3    H1 3114   1.267   4.779   0.737
 1057TIP3    H2 3115   1.295   4.783   0.885
 1058TIP3   OH2 3116   7.573   0.941   2.573
 1058TIP3    H1 3117   7.578   0.856   2.529
 1058TIP3    H2 3118   7.511   0.992   2.520
 1059TIP3   OH2 3119   3.936   3.969   5.420
 1059TIP3    H1 3120   3.991   3.976   5.498
 1059TIP3    H2 3121   3.896   4.056   5.411
 1060TIP3   OH2 3122   8.161   2.187   3.169
 1060TIP3    H1 3123   8.218   2.178   3.246
 1060TIP3    H2 3124   8.109   2.107   3.169
 1061TIP3   OH2 3125   6.558   6.864   3.029
 1061TIP3    H1 3126   6.625   6.812   2.985
 1061TIP3    H2 3127   6.608   6.926   3.083
 1062TIP3   OH2 3128   4.689   6.744   5.789
 1062TIP3    H1 3129   4.675   6.789   5.872
 1062TIP3    H2 3130   4.781   6.717   5.792
 1063TIP3   OH2 3131   6.012   4.543   2.421
 1063TIP3    H1 3132   5.946   4.506   2.363
 1063TIP3    H2 3133   5.963   4.575   2.496
 1064TIP3   OH2 3134   1.060   0.980   3.639
 1064TIP3    H1 3135   1.032   1.069   3.662
 1064TIP3    H2 3136   0.999   0.923   3.686
 1065TIP3   OH2 3137   2.568   1.065   1.530
 1065TIP3    H1 3138   2.613   1.032   1.452
 1065TIP3    H2 3139   2.527   0.988   1.568
 1066TIP3   OH2 3140   7.503   2.450   0.764
 1066TIP3    H1 3141   7.577   2.500   0.800
 1066TIP3    H2 3142   7.498   2.372   0.818
 1067TIP3   OH2 3143   7.607   4.504   4.656
 1067TIP3    H1 3144   7.641   4.513   4.745
 1067TIP3    H2 3145   7.666   4.557   4.602
 1068TIP3   OH2 3146   4.081   7.740   1.366
 1068TIP3    H1 3147   4.050   7.828   1.347
 1068TIP3    H2 3148   4.164   7.733   1.318
 1069TIP3   OH2 3149   1.167   6.516   5.414
 1069TIP3    H1 3150   1.193   6.449   5.350
 1069TIP3    H2 3151   1.217   6.593   5.389
 1070TIP3   OH2 3152   8.259   6.234   6.322
 1070TIP3    H1 3153   8.288   6.166   6.261
 1070TIP3    H2 3154   8.206   6.293   6.268
 1071TIP3   OH2 3155   7.925   2.298   5.258
 1071TIP3    H1 3156   7.912   2.334   5.170
 1071TIP3    H2 3157   7.855   2.336   5.310
 1072TIP3   OH2 3158   7.685   6.867   6.437
 1072TIP3    H1 3159   7.671   6.817   6.518
 1072TIP3    H2 3160   7.774   6.900   6.444
 1073TIP3   OH2 3161   6.494   2.134   4.467
 1073TIP3    H1 3162   6.529   2.072   4.403
 1073TIP3    H2 3163   6.568   2.189   4.491
 1074TIP3   OH2 3164   0.827   7.432   0.283
 1074TIP3    H1 3165   0.889   7.374   0.238
 1074TIP3    H2 3166   0.844   7.519   0.247
 1075TIP3   OH2 3167   3.533   2.169   3.276
 1075TIP3    H1 3168   3.545   2.085   3.319
 1075TIP3    H2 3169   3.597   2.227   3.318
 1076TIP3   OH2 3170   5.671   3.582   6.513
 1076TIP3    H1 3171   5.712   3.590   6.599
 1076TIP3    H2 3172   5.577   3.589   6.531
 1077TIP3   OH2 3173   0.676   4.425   4.404
 1077TIP3    H1 3174   0.680   4.368   4.326
 1077TIP3    H2 3175   0.600   4.393   4.452
 1078TIP3   OH2 3176   4.293   3.804   1.300
 1078TIP3    H1 3177   4.309   3.727   1.355
 1078TIP3    H2 3178   4.343   3.787   1.220
 1079TIP3   OH2 3179   0.957   7.209   1.650
 1079TIP3    H1 3180   1.036   7.224   1.599
 1079TIP3    H2 3181   0.885   7.229   1.590
 1080TIP3   OH2 3182   2.805   6.515   5.532
 1080TIP3    H1 3183   2.805   6.497   5.626
 1080TIP3    H2 3184   2.727   6.569   5.518
 1081TIP3   OH2 3185   7.415   2.509   4.298
 1081TIP3    H1 3186   7.432   2.426   4.344
 1081TIP3    H2 3187   7.385   2.482   4.211
 1082TIP3   OH2 3188   5.173   7.228   5.721
 1082TIP3    H1 3189   5.149   7.256   5.632
 1082TIP3    H2 3190   5.097   7.179   5.752
 1083TIP3   OH2 3191   4.862   2.975   6.173
 1083TIP3    H1 3192   4.894   3.030   6.244
 1083TIP3    H2 3193   4.865   2.886   6.208
 1084TIP3   OH2 3194   4.398   0.324   1.526
 1084TIP3    H1 3195   4.395   0.319   1.430
 1084TIP3    H2 3196   4.417   0.234   1.554
 1085TIP3   OH2 3197   5.787   4.718   3.323
 1085TIP3    H1 3198   5.841   4.672   3.259
 1085TIP3    H2 3199   5.814   4.810   3.316
 1086TIP3   OH2 3200   6.511   5.531   2.708
 1086TIP3    H1 3201   6.593   5.514   2.660
 1086TIP3    H2 3202   6.464   5.448   2.705
 1087TIP3   OH2 3203   4.198   1.748   6.621
 1087TIP3    H1 3204   4.124   1.748   6.561
 1087TIP3    H2 3205   4.160   1.766   6.707
 1088TIP3   OH2 3206   7.469   6.118   6.757
 1088TIP3    H1 3207   7.512   6.056   6.815
 1088TIP3    H2 3208   7.503   6.204   6.784
 1089TIP3   OH2 3209   3.123   6.328   3.932
 1089TIP3    H1 3210   3.067   6.302   4.006
 1089TIP3    H2 3211   3.075   6.401   3.891
 1090TIP3   OH2 3212   0.215   6.267   0.393
 1090TIP3    H1 3213   0.163   6.301   0.466
 1090TIP3    H2 3214   0.170   6.186   0.367
 1091TIP3   OH2 3215   6.140   6.668   6.124
 1091TIP3    H1 3216   6.091   6.686   6.205
 1091TIP3    H2 3217   6.082   6.698   6.054
 1092TIP3   OH2 3218   7.862   7.166   1.286
 1092TIP3    H1 3219   7.798   7.236   1.302
 1092TIP3    H2 3220   7.851   7.145   1.193
 1093TIP3   OH2 3221   2.222   0.741   2.452
 1093TIP3    H1 3222   2.238   0.828   2.488
 1093TIP3    H2 3223   2.154   0.754   2.386
 1094TIP3   OH2 3224   0.151   5.570   5.420
 1094TIP3    H1 3225   0.109   5.566   5.334
 1094TIP3    H2 3226   0.155   5.479   5.449
 1095TIP3   OH2 3227   8.074   1.441   3.111
 1095TIP3    H1 3228   8.157   1.489   3.110
 1095TIP3    H2 3229   8.022   1.485   3.178
 1096TIP3   OH2 3230   7.058   5.994   5.533
 1096TIP3    H1 3231   7.124   6.019   5.597
 1096TIP3    H2 3232   6.983   6.050   5.553
 1097TIP3   OH2 3233   6.943   5.512   1.139
 1097TIP3    H1 3234   6.935   5.543   1.229
 1097TIP3    H2 3235   6.973   5.421   1.148
 1098TIP3   OH2 3236   5.661   5.003   6.086
 1098TIP3    H1 3237   5.635   4.911   6.083
 1098TIP3    H2 3238   5.640   5.037   5.999
 1099TIP3   OH2 3239   6.491   4.900   2.614
 1099TIP3    H1 3240   6.431   4.826   2.623
 1099TIP3    H2 3241   6.436   4.972   2.585
 1100TIP3   OH2 3242   4.189   6.871   6.322
 1100TIP3    H1 3243   4.103   6.894   6.356
 1100TIP3    H2 3244   4.177   6.784   6.283
 1101TIP3   OH2 3245   3.173   4.434   6.014
 1101TIP3    H1 3246   3.190   4.492   5.940
 1101TIP3    H2 3247   3.079   4.418   6.010
 1102TIP3   OH2 3248   2.255   0.618   1.293
 1102TIP3    H1 3249   2.192   0.643   1.360
 1102TIP3    H2 3250   2.205   0.614   1.212
 1103TIP3   OH2 3251   7.862   0.137   0.887
 1103TIP3    H1 3252   7.919   0.157   0.813
 1103TIP3    H2 3253   7.773   0.138   0.850
 1104TIP3   OH2 3254   2.179   7.799   5.597
 1104TIP3    H1 3255   2.268   7.833   5.605
 1104TIP3    H2 3256   2.187   7.723   5.540
 1105TIP3   OH2 3257   2.816   1.295   0.127
 1105TIP3    H1 3258   2.750   1.265   0.064
 1105TIP3    H2 3259   2.895   1.308   0.074
 1106TIP3   OH2 3260   5.094   4.156   6.121
 1106TIP3    H1 3261   5.096   4.252   6.124
 1106TIP3    H2 3262   5.001   4.134   6.110
 1107TIP3   OH2 3263   5.248   4.137   4.400
 1107TIP3    H1 3264   5.186   4.098   4.340
 1107TIP3    H2 3265   5.313   4.069   4.416
 1108TIP3   OH2 3266   0.367   6.105   2.378
 1108TIP3    H1 3267   0.358   6.009   2.380
 1108TIP3    H2 3268   0.283   6.135   2.343
 1109TIP3   OH2 3269   7.276   2.551   3.772
 1109TIP3    H1 3270   7.346   2.486   3.779
 1109TIP3    H2 3271   7.204   2.515   3.824
 1110TIP3   OH2 3272   5.053   1.856   2.963
 1110TIP3    H1 3273   5.142   1.846   2.995
 1110TIP3    H2 3274   5.007   1.901   3.034
 1111TIP3   OH2 3275   6.636   3.916   0.424
 1111TIP3    H1 3276   6.691   3.920   0.346
 1111TIP3    H2 3277   6.547   3.913   0.391
 1112TIP3   OH2 3278   5.289   7.563   5.383
 1112TIP3    H1 3279   5.240   7.482   5.394
 1112TIP3    H2 3280   5.250   7.605   5.307
 1113TIP3   OH2 3281   1.283   7.056   3.905
 1113TIP3    H1 3282   1.254   7.147   3.901
 1113TIP3    H2 3283   1.377   7.060   3.888
 1114TIP3   OH2 3284   2.283   4.713   3.460
 1114TIP3    H1 3285   2.376   4.733   3.472
 1114TIP3    H2 3286   2.278   4.618   3.460
 1115TIP3   OH2 3287   5.918   2.620   2.244
 1115TIP3    H1 3288   5.871   2.656   2.169
 1115TIP3    H2 3289   5.999   2.672   2.250
 1116TIP3   OH2 3290   0.693   6.722   0.350
 1116TIP3    H1 3291   0.765   6.732   0.412
 1116TIP3    H2 3292   0.626   6.674   0.398
 1117TIP3   OH2 3293   5.453   2.661   0.421
 1117TIP3    H1 3294   5.463   2.602   0.346
 1117TIP3    H2 3295   5.359   2.677   0.426
 1118TIP3   OH2 3296   7.143   7.599   6.436
 1118TIP3    H1 3297   7.167   7.538   6.506
 1118TIP3    H2 3298   7.053   7.578   6.415
 1119TIP3   OH2 3299   1.580   0.517   5.662
 1119TIP3    H1 3300   1.593   0.603   5.702
 1119TIP3    H2 3301   1.619   0.524   5.575
 1120TIP3   OH2 3302   7.818   7.472   0.079
 1120TIP3    H1 3303   7.909   7.494   0.098
 1120TIP3    H2 3304   7.775   7.474   0.164
 1121TIP3   OH2 3305   5.394   5.826   3.485
 1121TIP3    H1 3306   5.347   5.748   3.516
 1121TIP3    H2 3307   5.478   5.823   3.531
 1122TIP3   OH2 3308   1.349   5.125   6.584
 1122TIP3    H1 3309   1.255   5.109   6.579
 1122TIP3    H2 3310   1.389   5.052   6.536
 1123TIP3   OH2 3311   0.135   3.817   6.738
 1123TIP3    H1 3312   0.125   3.753   6.809
 1123TIP3    H2 3313   0.192   3.885   6.775
 1124TIP3   OH2 3314   7.136   6.869   3.408
 1124TIP3    H1 3315   7.146   6.829   3.494
 1124TIP3    H2 3316   7.045   6.854   3.384
 1125TIP3   OH2 3317   6.510   0.915   3.007
 1125TIP3    H1 3318   6.588   0.914   2.952
 1125TIP3    H2 3319   6.491   0.822   3.024
 1126TIP3   OH2 3320   3.151   3.461   3.717
 1126TIP3    H1 3321   3.088   3.401   3.677
 1126TIP3    H2 3322   3.231   3.408   3.727
 1127TIP3   OH2 3323   1.448   0.596   4.908
 1127TIP3    H1 3324   1.477   0.527   4.968
 1127TIP3    H2 3325   1.406   0.550   4.836
 1128TIP3   OH2 3326   7.442   4.202   6.518
 1128TIP3    H1 3327   7.519   4.180   6.570
 1128TIP3    H2 3328   7.450   4.150   6.438
 1129TIP3   OH2 3329   6.394   0.621   5.482
 1129TIP3    H1 3330   6.440   0.668   5.412
 1129TIP3    H2 3331   6.325   0.573   5.436
 1130TIP3   OH2 3332   1.755   5.952   2.424
 1130TIP3    H1 3333   1.778   5.868   2.383
 1130TIP3    H2 3334   1.676   5.980   2.377
 1131TIP3   OH2 3335   4.995   1.711   5.183
 1131TIP3    H1 3336   4.955   1.766   5.250
 1131TIP3    H2 3337   5.029   1.772   5.117
 1132TIP3   OH2 3338   3.173   3.003   0.241
 1132TIP3    H1 3339   3.103   3.067   0.227
 1132TIP3    H2 3340   3.133   2.937   0.298
 1133TIP3   OH2 3341   0.267   3.635   3.986
 1133TIP3    H1 3342   0.306   3.640   4.073
 1133TIP3    H2 3343   0.188   3.688   3.992
 1134TIP3   OH2 3344   3.106   3.823   0.105
 1134TIP3    H1 3345   3.117   3.769   0.182
 1134TIP3    H2 3346   3.111   3.762   0.031
 1135TIP3   OH2 3347   7.659   2.229   5.728
 1135TIP3    H1 3348   7.585   2.172   5.706
 1135TIP3    H2 3349   7.714   2.176   5.786
 1136TIP3   OH2 3350   0.116   3.831   2.822
 1136TIP3    H1 3351   0.211   3.838   2.808
 1136TIP3    H2 3352   0.080   3.908   2.776
 1137TIP3   OH2 3353   4.456   2.201   1.987
 1137TIP3    H1 3354   4.472   2.290   1.958
 1137TIP3    H2 3355   4.536   2.175   2.031
 1138TIP3   OH2 3356   6.336   1.747   3.305
 1138TIP3    H1 3357   6.380   1.672   3.264
 1138TIP3    H2 3358   6.242   1.730   3.292
 1139TIP3   OH2 3359   3.168   2.929   6.660
 1139TIP3    H1 3360   3.084   2.971   6.644
 1139TIP3    H2 3361   3.215   2.990   6.718
 1140TIP3   OH2 3362   0.077   3.057   1.909
 1140TIP3    H1 3363   0.098   2.986   1.970
 1140TIP3    H2 3364   0.007   3.022   1.855
 1141TIP3   OH2 3365   1.662   3.447   5.580
 1141TIP3    H1 3366   1.647   3.353   5.592
 1141TIP3    H2 3367   1.588   3.488   5.625
 1142TIP3   OH2 3368   3.844   1.721   0.565
 1142TIP3    H1 3369   3.788   1.711   0.487
 1142TIP3    H2 3370   3.930   1.743   0.529
 1143TIP3   OH2 3371   6.644   6.447   2.423
 1143TIP3    H1 3372   6.700   6.484   2.492
 1143TIP3    H2 3373   6.673   6.356   2.415
 1144TIP3   OH2 3374   7.595   0.456   3.529
 1144TIP3    H1 3375   7.551   0.470   3.445
 1144TIP3    H2 3376   7.632   0.368   3.522
 1145TIP3   OH2 3377   8.284   2.736   1.622
 1145TIP3    H1 3378   8.206   2.684   1.636
 1145TIP3    H2 3379   8.252   2.818   1.584
 1146TIP3   OH2 3380   0.826   2.199   5.248
 1146TIP3    H1 3381   0.777   2.278   5.224
 1146TIP3    H2 3382   0.812   2.139   5.175
 1147TIP3   OH2 3383   0.183   1.640   0.203
 1147TIP3    H1 3384   0.132   1.689   0.268
 1147TIP3    H2 3385   0.218   1.565   0.251
 1148TIP3   OH2 3386   2.598   4.102   4.317
 1148TIP3    H1 3387   2.644   4.029   4.278
 1148TIP3    H2 3388   2.624   4.178   4.265
 1149TIP3   OH2 3389   1.311   7.236   4.302
 1149TIP3    H1 3390   1.391   7.283   4.282
 1149TIP3    H2 3391   1.241   7.292   4.270
 1150TIP3   OH2 3392   3.664   5.394   2.216
 1150TIP3    H1 3393   3.640   5.302   2.224
 1150TIP3    H2 3394   3.595   5.441   2.261
 1151TIP3   OH2 3395   7.682   0.350   1.016
 1151TIP3    H1 3396   7.699   0.264   0.978
 1151TIP3    H2 3397   7.604   0.382   0.969
 1152TIP3   OH2 3398   6.886   5.214   1.102
 1152TIP3    H1 3399   6.893   5.128   1.061
 1152TIP3    H2 3400   6.803   5.249   1.071
 1153TIP3   OH2 3401   5.764   1.933   6.307
 1153TIP3    H1 3402   5.678   1.965   6.278
 1153TIP3    H2 3403   5.812   1.917   6.226
 1154TIP3   OH2 3404   1.787   2.214   4.246
 1154TIP3    H1 3405   1.794   2.247   4.157
 1154TIP3    H2 3406   1.717   2.265   4.287
 1155TIP3   OH2 3407   1.533   1.577   1.535
 1155TIP3    H1 3408   1.481   1.650   1.569
 1155TIP3    H2 3409   1.535   1.591   1.440
 1156TIP3   OH2 3410   3.459   1.277   6.076
 1156TIP3    H1 3411   3.417   1.352   6.118
 1156TIP3    H2 3412   3.435   1.283   5.984
 1157TIP3   OH2 3413   1.707   5.617   5.496
 1157TIP3    H1 3414   1.713   5.554   5.425
 1157TIP3    H2 3415   1.786   5.670   5.488
 1158TIP3   OH2 3416   4.029   1.341   1.472
 1158TIP3    H1 3417   4.031   1.246   1.462
 1158TIP3    H2 3418   3.990   1.355   1.559
 1159TIP3   OH2 3419   2.396   7.728   4.991
 1159TIP3    H1 3420   2.422   7.641   5.020
 1159TIP3    H2 3421   2.343   7.713   4.913
 1160TIP3   OH2 3422   6.148   0.493   3.057
 1160TIP3    H1 3423   6.229   0.456   3.021
 1160TIP3    H2 3424   6.169   0.586   3.070
 1161TIP3   OH2 3425   0.343   1.017   4.088
 1161TIP3    H1 3426   0.436   0.994   4.080
 1161TIP3    H2 3427   0.341   1.111   4.071
 1162TIP3   OH2 3428   7.158   7.788   3.836
 1162TIP3    H1 3429   7.067   7.796   3.805
 1162TIP3    H2 3430   7.208   7.769   3.756
 1163TIP3   OH2 3431   3.382   1.310   2.121
 1163TIP3    H1 3432   3.394   1.374   2.192
 1163TIP3    H2 3433   3.297   1.271   2.139
 1164TIP3   OH2 3434   3.044   5.853   2.283
 1164TIP3    H1 3435   2.973   5.914   2.265
 1164TIP3    H2 3436   3.000   5.772   2.308
 1165TIP3   OH2 3437   2.944   2.720   5.205
 1165TIP3    H1 3438   2.973   2.712   5.114
 1165TIP3    H2 3439   2.952   2.632   5.241
 1166TIP3   OH2 3440   6.553   3.650   1.394
 1166TIP3    H1 3441   6.603   3.626   1.472
 1166TIP3    H2 3442   6.607   3.620   1.321
 1167TIP3   OH2 3443   4.652   1.119   6.623
 1167TIP3    H1 3444   4.664   1.181   6.551
 1167TIP3    H2 3445   4.739   1.111   6.662
 1168TIP3   OH2 3446   3.708   2.475   6.047
 1168TIP3    H1 3447   3.755   2.392   6.042
 1168TIP3    H2 3448   3.657   2.470   6.128
 1169TIP3   OH2 3449   6.190   1.210   4.352
 1169TIP3    H1 3450   6.199   1.262   4.272
 1169TIP3    H2 3451   6.165   1.273   4.419
 1170TIP3   OH2 3452   6.709   3.272   5.615
 1170TIP3    H1 3453   6.747   3.337   5.556
 1170TIP3    H2 3454   6.671   3.324   5.685
 1171TIP3   OH2 3455   6.958   1.981   2.055
 1171TIP3    H1 3456   7.035   1.991   2.110
 1171TIP3    H2 3457   6.892   1.943   2.113
 1172TIP3   OH2 3458   7.234   5.417   1.262
 1172TIP3    H1 3459   7.329   5.429   1.249
 1172TIP3    H2 3460   7.196   5.500   1.233
 1173TIP3   OH2 3461   7.401   5.944   0.693
 1173TIP3    H1 3462   7.428   6.020   0.642
 1173TIP3    H2 3463   7.478   5.887   0.693
 1174TIP3   OH2 3464   6.791   1.578   4.245
 1174TIP3    H1 3465   6.761   1.569   4.155
 1174TIP3    H2 3466   6.735   1.519   4.295
 1175TIP3   OH2 3467   6.217   5.156   4.659
 1175TIP3    H1 3468   6.288   5.091   4.660
 1175TIP3    H2 3469   6.260   5.240   4.675
 1176TIP3   OH2 3470   1.273   2.752   5.624
 1176TIP3    H1 3471   1.263   2.832   5.676
 1176TIP3    H2 3472   1.188   2.739   5.583
 1177TIP3   OH2 3473   1.926   7.721   6.284
 1177TIP3    H1 3474   1.892   7.640   6.320
 1177TIP3    H2 3475   1.864   7.746   6.216
 1178TIP3   OH2 3476   0.772   7.763   2.526
 1178TIP3    H1 3477   0.779   7.669   2.536
 1178TIP3    H2 3478   0.718   7.792   2.599
 1179TIP3   OH2 3479   4.659   3.042   3.897
 1179TIP3    H1 3480   4.727   3.062   3.962
 1179TIP3    H2 3481   4.578   3.041   3.948
 1180TIP3   OH2 3482   7.588   2.082   3.554
 1180TIP3    H1 3483   7.587   2.030   3.634
 1180TIP3    H2 3484   7.669   2.057   3.509
 1181TIP3   OH2 3485   0.563   6.157   1.866
 1181TIP3    H1 3486   0.573   6.099   1.941
 1181TIP3    H2 3487   0.652   6.176   1.837
 1182TIP3   OH2 3488   8.273   2.598   4.001
 1182TIP3    H1 3489   8.233   2.616   4.087
 1182TIP3    H2 3490   8.232   2.661   3.942
 1183TIP3   OH2 3491   4.927   7.697   6.180
 1183TIP3    H1 3492   4.946   7.722   6.090
 1183TIP3    H2 3493   4.971   7.613   6.192
 1184TIP3   OH2 3494   0.026   1.138   0.109
 1184TIP3    H1 3495   0.016   1.203   0.178
 1184TIP3    H2 3496  -0.034   1.166   0.040
 1185TIP3   OH2 3497   8.111   0.400   6.416
 1185TIP3    H1 3498   8.101   0.334   6.485
 1185TIP3    H2 3499   8.113   0.483   6.462
 1186TIP3   OH2 3500   7.427   7.361   0.208
 1186TIP3    H1 3501   7.379   7.401   0.135
 1186TIP3    H2 3502   7.463   7.436   0.257
 1187TIP3   OH2 3503   7.147   2.209   0.129
 1187TIP3    H1 3504   7.153   2.127   0.079
 1187TIP3    H2 3505   7.074   2.257   0.089
 1188TIP3   OH2 3506   1.729   4.775   5.030
 1188TIP3    H1 3507   1.675   4.696   5.035
 1188TIP3    H2 3508   1.817   4.743   5.014
 1189TIP3   OH2 3509   6.762   2.883   2.382
 1189TIP3    H1 3510   6.717   2.869   2.299
 1189TIP3    H2 3511   6.854   2.862   2.363
 1190TIP3   OH2 3512   1.242   2.269   0.707
 1190TIP3    H1 3513   1.213   2.352   0.670
 1190TIP3    H2 3514   1.305   2.235   0.644
 1191TIP3   OH2 3515   3.685   1.115   2.835
 1191TIP3    H1 3516   3.653   1.127   2.745
 1191TIP3    H2 3517   3.650   1.029   2.861
 1192TIP3   OH2 3518   3.267   1.599   6.407
 1192TIP3    H1 3519   3.328   1.545   6.456
 1192TIP3    H2 3520   3.228   1.657   6.472
 1193TIP3   OH2 3521   3.254   3.893   3.308
 1193TIP3    H1 3522   3.222   3.947   3.380
 1193TIP3    H2 3523   3.187   3.825   3.297
 1194TIP3   OH2 3524   7.343   2.851   4.973
 1194TIP3    H1 3525   7.311   2.925   5.025
 1194TIP3    H2 3526   7.298   2.775   5.009
 1195TIP3   OH2 3527   2.571   3.964   2.277
 1195TIP3    H1 3528   2.594   4.054   2.301
 1195TIP3    H2 3529   2.529   3.971   2.191
 1196TIP3   OH2 3530   3.470   1.439   2.569
 1196TIP3    H1 3531   3.408   1.469   2.635
 1196TIP3    H2 3532   3.511   1.519   2.535
 1197TIP3   OH2 3533   6.639   5.155   0.184
 1197TIP3    H1 3534   6.723   5.197   0.205
 1197TIP3    H2 3535   6.586   5.227   0.149
 1198TIP3   OH2 3536   3.768   0.586   0.561
 1198TIP3    H1 3537   3.751   0.663   0.616
 1198TIP3    H2 3538   3.720   0.604   0.480
 1199TIP3   OH2 3539   5.355   1.260   1.769
 1199TIP3    H1 3540   5.276   1.291   1.724
 1199TIP3    H2 3541   5.399   1.204   1.705
 1200TIP3   OH2 3542   3.169   2.083   1.936
 1200TIP3    H1 3543   3.228   2.137   1.883
 1200TIP3    H2 3544   3.106   2.049   1.873
 1201TIP3   OH2 3545   5.607   5.351   0.043
 1201TIP3    H1 3546   5.628   5.392   0.127
 1201TIP3    H2 3547   5.630   5.417  -0.023
 1202TIP3   OH2 3548   4.015   3.458   5.772
 1202TIP3    H1 3549   4.067   3.538   5.765
 1202TIP3    H2 3550   4.041   3.419   5.856
 1203TIP3   OH2 3551   3.541   1.726   0.957
 1203TIP3    H1 3552   3.583   1.759   1.036
 1203TIP3    H2 3553   3.613   1.703   0.898
 1204TIP3   OH2 3554   5.420   6.034   5.653
 1204TIP3    H1 3555   5.361   6.108   5.666
 1204TIP3    H2 3556   5.459   6.049   5.567
 1205TIP3   OH2 3557   4.718   2.349   5.295
 1205TIP3    H1 3558   4.802   2.390   5.315
 1205TIP3    H2 3559   4.701   2.292   5.370
 1206TIP3   OH2 3560   3.654   0.933   5.046
 1206TIP3    H1 3561   3.565   0.969   5.038
 1206TIP3    H2 3562   3.703   1.000   5.092
 1207TIP3   OH2 3563   7.475   4.236   6.009
 1207TIP3    H1 3564   7.381   4.217   6.015
 1207TIP3    H2 3565   7.508   4.168   5.950
 1208TIP3   OH2 3566   6.755   5.537   1.595
 1208TIP3    H1 3567   6.844   5.505   1.608
 1208TIP3    H2 3568   6.729   5.573   1.680
 1209TIP3   OH2 3569   2.353   6.373   3.164
 1209TIP3    H1 3570   2.441   6.376   3.126
 1209TIP3    H2 3571   2.312   6.454   3.136
 1210TIP3   OH2 3572   6.015   6.480   3.355
 1210TIP3    H1 3573   6.077   6.545   3.388
 1210TIP3    H2 3574   6.039   6.470   3.262
 1211TIP3   OH2 3575   3.356   3.199   6.042
 1211TIP3    H1 3576   3.337   3.206   5.948
 1211TIP3    H2 3577   3.323   3.281   6.079
 1212TIP3   OH2 3578   1.600   5.324   2.082
 1212TIP3    H1 3579   1.537   5.281   2.024
 1212TIP3    H2 3580   1.685   5.306   2.042
 1213TIP3   OH2 3581   1.941   6.739   3.418
 1213TIP3    H1 3582   1.973   6.714   3.505
 1213TIP3    H2 3583   1.895   6.661   3.386
 1214TIP3   OH2 3584   2.011   7.197   5.507
 1214TIP3    H1 3585   2.053   7.239   5.583
 1214TIP3    H2 3586   1.993   7.268   5.447
 1215TIP3   OH2 3587   3.730   3.094   0.289
 1215TIP3    H1 3588   3.772   3.166   0.242
 1215TIP3    H2 3589   3.731   3.120   0.381
 1216TIP3   OH2 3590   0.528   4.463   1.529
 1216TIP3    H1 3591   0.544   4.443   1.621
 1216TIP3    H2 3592   0.437   4.437   1.515
 1217TIP3   OH2 3593   7.776   4.579   3.997
 1217TIP3    H1 3594   7.815   4.501   4.037
 1217TIP3    H2 3595   7.702   4.600   4.054
 1218TIP3   OH2 3596   8.056   0.948   2.288
 1218TIP3    H1 3597   8.097   0.862   2.280
 1218TIP3    H2 3598   7.983   0.934   2.349
 1219TIP3   OH2 3599   2.586   4.232   6.757
 1219TIP3    H1 3600   2.509   4.201   6.806
 1219TIP3    H2 3601   2.587   4.178   6.678
 1220TIP3   OH2 3602   6.375   4.591   1.684
 1220TIP3    H1 3603   6.396   4.677   1.722
 1220TIP3    H2 3604   6.423   4.589   1.601
 1221TIP3   OH2 3605   6.772   6.126   4.919
 1221TIP3    H1 3606   6.754   6.122   4.825
 1221TIP3    H2 3607   6.770   6.035   4.948
 1222TIP3   OH2 3608   7.747   2.141   0.184
 1222TIP3    H1 3609   7.711   2.114   0.100
 1222TIP3    H2 3610   7.842   2.128   0.175
 1223TIP3   OH2 3611   0.819   3.491   3.849
 1223TIP3    H1 3612   0.900   3.448   3.823
 1223TIP3    H2 3613   0.767   3.422   3.890
 1224TIP3   OH2 3614   7.381   5.386   3.989
 1224TIP3    H1 3615   7.442   5.439   4.040
 1224TIP3    H2 3616   7.337   5.331   4.053
 1225TIP3   OH2 3617   5.741   3.457   0.840
 1225TIP3    H1 3618   5.718   3.367   0.815
 1225TIP3    H2 3619   5.677   3.480   0.906
 1226TIP3   OH2 3620   3.590   7.409   2.648
 1226TIP3    H1 3621   3.606   7.365   2.732
 1226TIP3    H2 3622   3.618   7.345   2.582
 1227TIP3   OH2 3623   7.295   7.803   2.340
 1227TIP3    H1 3624   7.281   7.821   2.433
 1227TIP3    H2 3625   7.300   7.707   2.336
 1228TIP3   OH2 3626   7.748   1.583   1.791
 1228TIP3    H1 3627   7.784   1.670   1.772
 1228TIP3    H2 3628   7.723   1.588   1.884
 1229TIP3   OH2 3629   6.170   2.886   4.693
 1229TIP3    H1 3630   6.189   2.974   4.662
 1229TIP3    H2 3631   6.193   2.888   4.786
 1230TIP3   OH2 3632   7.896   6.138   1.833
 1230TIP3    H1 3633   7.986   6.118   1.806
 1230TIP3    H2 3634   7.846   6.061   1.806
 1231TIP3   OH2 3635   7.188   4.019   0.972
 1231TIP3    H1 3636   7.129   4.093   0.956
 1231TIP3    H2 3637   7.150   3.947   0.923
 1232TIP3   OH2 3638   6.926   2.169   6.658
 1232TIP3    H1 3639   6.849   2.175   6.715
 1232TIP3    H2 3640   6.892   2.189   6.571
 1233TIP3   OH2 3641   1.151   2.443   3.342
 1233TIP3    H1 3642   1.191   2.370   3.295
 1233TIP3    H2 3643   1.197   2.521   3.310
 1234TIP3   OH2 3644   3.319   4.567   1.909
 1234TIP3    H1 3645   3.363   4.650   1.926
 1234TIP3    H2 3646   3.389   4.501   1.912
 1235TIP3   OH2 3647   5.890   5.168   0.889
 1235TIP3    H1 3648   5.977   5.132   0.875
 1235TIP3    H2 3649   5.904   5.263   0.896
 1236TIP3   OH2 3650   8.266   5.639   0.593
 1236TIP3    H1 3651   8.254   5.566   0.654
 1236TIP3    H2 3652   8.268   5.598   0.507
 1237TIP3   OH2 3653   2.010   1.489   5.670
 1237TIP3    H1 3654   2.092   1.488   5.719
 1237TIP3    H2 3655   2.030   1.539   5.591
 1238TIP3   OH2 3656   1.961   6.434   1.409
 1238TIP3    H1 3657   2.020   6.364   1.382
 1238TIP3    H2 3658   1.890   6.431   1.344
 1239TIP3   OH2 3659   8.274   2.550   5.269
 1239TIP3    H1 3660   8.349   2.533   5.212
 1239TIP3    H2 3661   8.291   2.638   5.304
 1240TIP3   OH2 3662   6.853   2.654   6.560
 1240TIP3    H1 3663   6.802   2.585   6.602
 1240TIP3    H2 3664   6.926   2.608   6.519
 1241TIP3   OH2 3665   0.259   7.023   0.760
 1241TIP3    H1 3666   0.336   6.986   0.805
 1241TIP3    H2 3667   0.188   7.017   0.824
 1242TIP3   OH2 3668   6.316   0.172   0.400
 1242TIP3    H1 3669   6.292   0.175   0.492
 1242TIP3    H2 3670   6.374   0.096   0.393
 1243TIP3   OH2 3671   4.610   1.714   0.091
 1243TIP3    H1 3672   4.596   1.802   0.126
 1243TIP3    H2 3673   4.705   1.701   0.097
 1244TIP3   OH2 3674   2.042   3.383   2.886
 1244TIP3    H1 3675   2.092   3.457   2.919
 1244TIP3    H2 3676   2.083   3.363   2.801
 1245TIP3   OH2 3677   3.927   6.074   4.064
 1245TIP3    H1 3678   3.953   6.072   3.972
 1245TIP3    H2 3679   3.974   6.001   4.104
 1246TIP3   OH2 3680   0.498   6.216   6.162
 1246TIP3    H1 3681   0.462   6.258   6.240
 1246TIP3    H2 3682   0.574   6.269   6.139
 1247TIP3   OH2 3683   3.616   7.618   4.839
 1247TIP3    H1 3684   3.576   7.679   4.901
 1247TIP3    H2 3685   3.709   7.638   4.840
 1248TIP3   OH2 3686   0.186   7.534   0.775
 1248TIP3    H1 3687   0.263   7.509   0.724
 1248TIP3    H2 3688   0.218   7.544   0.865
 1249TIP3   OH2 3689   5.225   3.035   6.295
 1249TIP3    H1 3690   5.203   3.087   6.218
 1249TIP3    H2 3691   5.236   2.946   6.263
 1250TIP3   OH2 3692   7.164   0.502   3.404
 1250TIP3    H1 3693   7.137   0.420   3.445
 1250TIP3    H2 3694   7.259   0.497   3.399
 1251TIP3   OH2 3695   7.801   5.581   1.628
 1251TIP3    H1 3696   7.715   5.540   1.618
 1251TIP3    H2 3697   7.799   5.619   1.716
 1252TIP3   OH2 3698   1.834   1.820   2.730
 1252TIP3    H1 3699   1.822   1.823   2.635
 1252TIP3    H2 3700   1.787   1.742   2.758
 1253TIP3   OH2 3701   7.281   5.967   6.497
 1253TIP3    H1 3702   7.352   5.904   6.505
 1253TIP3    H2 3703   7.325   6.049   6.474
 1254TIP3   OH2 3704   5.758   4.560   3.967
 1254TIP3    H1 3705   5.735   4.549   3.875
 1254TIP3    H2 3706   5.808   4.481   3.989
 1255TIP3   OH2 3707   4.460   4.530   4.572
 1255TIP3    H1 3708   4.479   4.613   4.615
 1255TIP3    H2 3709   4.511   4.534   4.490
 1256TIP3   OH2 3710   3.290   1.743   3.576
 1256TIP3    H1 3711   3.210   1.772   3.534
 1256TIP3    H2 3712   3.351   1.727   3.503
 1257TIP3   OH2 3713   3.388   3.741   1.934
 1257TIP3    H1 3714   3.393   3.647   1.950
 1257TIP3    H2 3715   3.297   3.757   1.912
 1258TIP3   OH2 3716   0.958   3.337   2.796
 1258TIP3    H1 3717   0.918   3.399   2.857
 1258TIP3    H2 3718   1.043   3.375   2.775
 1259TIP3   OH2 3719   2.709   5.005   5.815
 1259TIP3    H1 3720   2.708   5.062   5.738
 1259TIP3    H2 3721   2.774   4.938   5.794
 1260TIP3   OH2 3722   3.616   2.440   6.298
 1260TIP3    H1 3723   3.608   2.348   6.321
 1260TIP3    H2 3724   3.547   2.484   6.348
 1261TIP3   OH2 3725   6.533   1.172   1.248
 1261TIP3    H1 3726   6.625   1.198   1.243
 1261TIP3    H2 3727   6.536   1.076   1.251
 1262TIP3   OH2 3728   4.517   1.101   6.303
 1262TIP3    H1 3729   4.554   1.018   6.274
 1262TIP3    H2 3730   4.593   1.156   6.322
 1263TIP3   OH2 3731   6.890   0.670   0.818
 1263TIP3    H1 3732   6.929   0.587   0.844
 1263TIP3    H2 3733   6.826   0.646   0.750
 1264TIP3   OH2 3734   2.836   5.643   1.915
 1264TIP3    H1 3735   2.861   5.728   1.953
 1264TIP3    H2 3736   2.774   5.665   1.846
 1265TIP3   OH2 3737   6.009   7.633   4.013
 1265TIP3    H1 3738   5.989   7.695   4.083
 1265TIP3    H2 3739   6.101   7.649   3.992
 1266TIP3   OH2 3740   0.009   0.325   0.973
 1266TIP3    H1 3741   0.091   0.345   1.018
 1266TIP3    H2 3742  -0.006   0.232   0.988
 1267TIP3   OH2 3743   5.352   5.048   5.631
 1267TIP3    H1 3744   5.320   4.997   5.705
 1267TIP3    H2 3745   5.303   5.014   5.556
 1268TIP3   OH2 3746   4.533   7.415   1.992
 1268TIP3    H1 3747   4.495   7.476   1.929
 1268TIP3    H2 3748   4.514   7.329   1.956
 1269TIP3   OH2 3749   1.476   3.935   4.581
 1269TIP3    H1 3750   1.495   3.950   4.674
 1269TIP3    H2 3751   1.420   3.857   4.581
 1270TIP3   OH2 3752   2.861   4.196   1.122
 1270TIP3    H1 3753   2.886   4.284   1.150
 1270TIP3    H2 3754   2.765   4.197   1.123
 1271TIP3   OH2 3755   7.805   7.798   4.790
 1271TIP3    H1 3756   7.886   7.844   4.770
 1271TIP3    H2 3757   7.832   7.706   4.802
 1272TIP3   OH2 3758   3.449   7.549   0.466
 1272TIP3    H1 3759   3.377   7.557   0.528
 1272TIP3    H2 3760   3.512   7.616   0.495
 1273TIP3   OH2 3761   0.204   3.122   6.445
 1273TIP3    H1 3762   0.239   3.038   6.474
 1273TIP3    H2 3763   0.110   3.106   6.432
 1274TIP3   OH2 3764   0.015   1.965   2.271
 1274TIP3    H1 3765  -0.031   2.011   2.341
 1274TIP3    H2 3766  -0.042   1.972   2.195
 1275TIP3   OH2 3767   0.817   0.027   6.766
 1275TIP3    H1 3768   0.769   0.110   6.762
 1275TIP3    H2 3769   0.884   0.042   6.833
 1276TIP3   OH2 3770   5.728   3.419   5.107
 1276TIP3    H1 3771   5.724   3.418   5.202
 1276TIP3    H2 3772   5.758   3.507   5.084
 1277TIP3   OH2 3773   5.341   3.334   5.133
 1277TIP3    H1 3774   5.315   3.346   5.224
 1277TIP3    H2 3775   5.261   3.347   5.083
 1278TIP3   OH2 3776   0.934   1.656   6.619
 1278TIP3    H1 3777   1.028   1.654   6.636
 1278TIP3    H2 3778   0.913   1.567   6.591
 1279TIP3   OH2 3779   0.375   2.522   3.016
 1279TIP3    H1 3780   0.294   2.572   3.004
 1279TIP3    H2 3781   0.351   2.432   2.994
 1280TIP3   OH2 3782   3.867   5.764   2.484
 1280TIP3    H1 3783   3.772   5.757   2.475
 1280TIP3    H2 3784   3.891   5.691   2.542
 1281TIP3   OH2 3785   0.114   6.383   3.477
 1281TIP3    H1 3786   0.024   6.399   3.504
 1281TIP3    H2 3787   0.145   6.314   3.537
 1282TIP3   OH2 3788   0.083   3.564   1.215
 1282TIP3    H1 3789   0.043   3.640   1.256
 1282TIP3    H2 3790   0.119   3.598   1.132
 1283TIP3   OH2 3791   0.375   5.436   3.382
 1283TIP3    H1 3792   0.443   5.394   3.329
 1283TIP3    H2 3793   0.293   5.403   3.346
 1284TIP3   OH2 3794   1.568   1.750   6.197
 1284TIP3    H1 3795   1.533   1.822   6.144
 1284TIP3    H2 3796   1.609   1.793   6.272
 1285TIP3   OH2 3797   6.378   3.677   2.755
 1285TIP3    H1 3798   6.325   3.756   2.755
 1285TIP3    H2 3799   6.428   3.682   2.673
 1286TIP3   OH2 3800   5.986   2.816   1.747
 1286TIP3    H1 3801   6.079   2.817   1.770
 1286TIP3    H2 3802   5.956   2.729   1.772
 1287TIP3   OH2 3803   6.254   6.622   0.251
 1287TIP3    H1 3804   6.183   6.678   0.282
 1287TIP3    H2 3805   6.229   6.598   0.162
 1288TIP3   OH2 3806   4.916   0.343   3.379
 1288TIP3    H1 3807   4.871   0.280   3.436
 1288TIP3    H2 3808   4.868   0.339   3.297
 1289TIP3   OH2 3809   3.977   3.846   0.981
 1289TIP3    H1 3810   3.991   3.936   1.011
 1289TIP3    H2 3811   3.887   3.826   1.005
 1290TIP3   OH2 3812   0.238   2.048   5.841
 1290TIP3    H1 3813   0.235   2.140   5.869
 1290TIP3    H2 3814   0.180   2.003   5.902
 1291TIP3   OH2 3815   5.304   0.890   1.200
 1291TIP3    H1 3816   5.228   0.867   1.254
 1291TIP3    H2 3817   5.323   0.981   1.222
 1292TIP3   OH2 3818   5.990   1.367   2.183
 1292TIP3    H1 3819   5.916   1.311   2.204
 1292TIP3    H2 3820   6.006   1.417   2.264
 1293TIP3   OH2 3821   7.967   0.287   1.747
 1293TIP3    H1 3822   8.050   0.301   1.794
 1293TIP3    H2 3823   7.962   0.361   1.686
 1294TIP3   OH2 3824   7.167   2.640   4.990
 1294TIP3    H1 3825   7.090   2.684   5.026
 1294TIP3    H2 3826   7.163   2.552   5.027
 1295TIP3   OH2 3827   3.318   4.235   1.435
 1295TIP3    H1 3828   3.399   4.264   1.476
 1295TIP3    H2 3829   3.332   4.142   1.417
 1296TIP3   OH2 3830   1.836   6.617   2.879
 1296TIP3    H1 3831   1.783   6.696   2.866
 1296TIP3    H2 3832   1.848   6.611   2.973
 1297TIP3   OH2 3833   1.754   6.562   3.730
 1297TIP3    H1 3834   1.663   6.534   3.719
 1297TIP3    H2 3835   1.805   6.496   3.684
 1298TIP3   OH2 3836   2.841   3.243   5.380
 1298TIP3    H1 3837   2.890   3.215   5.456
 1298TIP3    H2 3838   2.776   3.304   5.414
 1299TIP3   OH2 3839   4.408   1.904   4.797
 1299TIP3    H1 3840   4.430   1.905   4.890
 1299TIP3    H2 3841   4.477   1.852   4.757
 1300TIP3   OH2 3842   6.568   4.387   1.327
 1300TIP3    H1 3843   6.503   4.327   1.363
 1300TIP3    H2 3844   6.558   4.467   1.379
 1301TIP3   OH2 3845   0.251   1.142   5.122
 1301TIP3    H1 3846   0.263   1.160   5.215
 1301TIP3    H2 3847   0.294   1.215   5.078
 1302TIP3   OH2 3848   7.217   1.049   5.229
 1302TIP3    H1 3849   7.263   0.967   5.241
 1302TIP3    H2 3850   7.260   1.090   5.154
 1303TIP3   OH2 3851   0.850   2.015   5.018
 1303TIP3    H1 3852   0.933   2.062   5.016
 1303TIP3    H2 3853   0.869   1.932   4.973
 1304TIP3   OH2 3854   5.495   7.258   1.585
 1304TIP3    H1 3855   5.522   7.201   1.513
 1304TIP3    H2 3856   5.402   7.237   1.599
 1305TIP3   OH2 3857   3.224   1.048   4.231
 1305TIP3    H1 3858   3.276   0.968   4.229
 1305TIP3    H2 3859   3.248   1.095   4.151
 1306TIP3   OH2 3860   4.469   4.764   4.229
 1306TIP3    H1 3861   4.387   4.761   4.279
 1306TIP3    H2 3862   4.534   4.723   4.286
 1307TIP3   OH2 3863   3.314   2.143   0.212
 1307TIP3    H1 3864   3.269   2.185   0.139
 1307TIP3    H2 3865   3.371   2.078   0.171
 1308TIP3   OH2 3866   4.957   1.396   3.995
 1308TIP3    H1 3867   5.008   1.341   3.936
 1308TIP3    H2 3868   4.946   1.478   3.946
 1309TIP3   OH2 3869   4.472   0.319   0.945
 1309TIP3    H1 3870   4.524   0.397   0.926
 1309TIP3    H2 3871   4.387   0.337   0.905
 1310TIP3   OH2 3872   0.144   1.394   3.649
 1310TIP3    H1 3873   0.190   1.475   3.668
 1310TIP3    H2 3874   0.077   1.419   3.585
 1311TIP3   OH2 3875   3.344   3.331   1.760
 1311TIP3    H1 3876   3.389   3.353   1.679
 1311TIP3    H2 3877   3.412   3.333   1.827
 1312TIP3   OH2 3878   3.426   4.191   4.197
 1312TIP3    H1 3879   3.512   4.223   4.222
 1312TIP3    H2 3880   3.426   4.098   4.223
 1313TIP3   OH2 3881   5.964   5.405   2.965
 1313TIP3    H1 3882   6.056   5.414   2.990
 1313TIP3    H2 3883   5.922   5.485   2.996
 1314TIP3   OH2 3884   5.669   3.306   6.616
 1314TIP3    H1 3885   5.651   3.383   6.562
 1314TIP3    H2 3886   5.590   3.252   6.607
 1315TIP3   OH2 3887   3.551   2.244   5.607
 1315TIP3    H1 3888   3.620   2.181   5.592
 1315TIP3    H2 3889   3.550   2.257   5.702
 1316TIP3   OH2 3890   1.277   5.712   6.679
 1316TIP3    H1 3891   1.283   5.625   6.639
 1316TIP3    H2 3892   1.368   5.735   6.699
 1317TIP3   OH2 3893   2.098   2.284   2.940
 1317TIP3    H1 3894   2.124   2.236   3.019
 1317TIP3    H2 3895   2.031   2.229   2.899
 1318TIP3   OH2 3896   7.106   5.968   3.893
 1318TIP3    H1 3897   7.135   5.889   3.847
 1318TIP3    H2 3898   7.029   5.998   3.843
 1319TIP3   OH2 3899   5.536   0.753   4.677
 1319TIP3    H1 3900   5.572   0.826   4.728
 1319TIP3    H2 3901   5.545   0.677   4.734
 1320TIP3   OH2 3902   1.476   3.586   0.033
 1320TIP3    H1 3903   1.473   3.589  -0.063
 1320TIP3    H2 3904   1.430   3.505   0.056
 1321TIP3   OH2 3905   3.323   4.111   0.649
 1321TIP3    H1 3906   3.229   4.095   0.662
 1321TIP3    H2 3907   3.351   4.156   0.729
 1322TIP3   OH2 3908   7.814   5.741   2.322
 1322TIP3    H1 3909   7.721   5.760   2.333
 1322TIP3    H2 3910   7.843   5.802   2.254
 1323TIP3   OH2 3911   8.086   6.787   2.032
 1323TIP3    H1 3912   8.061   6.847   1.962
 1323TIP3    H2 3913   8.017   6.721   2.032
 1324TIP3   OH2 3914   0.290   7.449   6.602
 1324TIP3    H1 3915   0.250   7.410   6.680
 1324TIP3    H2 3916   0.294   7.542   6.622
 1325TIP3   OH2 3917   6.578   1.899   3.311
 1325TIP3    H1 3918   6.636   1.852   3.251
 1325TIP3    H2 3919   6.490   1.864   3.292
 1326TIP3   OH2 3920   7.318   5.440   2.120
 1326TIP3    H1 3921   7.316   5.535   2.130
 1326TIP3    H2 3922   7.412   5.418   2.120
 1327TIP3   OH2 3923   3.407   4.430   3.092
 1327TIP3    H1 3924   3.443   4.513   3.061
 1327TIP3    H2 3925   3.462   4.406   3.166
 1328TIP3   OH2 3926   4.329   4.804   6.555
 1328TIP3    H1 3927   4.256   4.864   6.573
 1328TIP3    H2 3928   4.365   4.783   6.641
 1329TIP3   OH2 3929   4.505   2.507   6.694
 1329TIP3    H1 3930   4.521   2.513   6.788
 1329TIP3    H2 3931   4.410   2.497   6.687
 1330TIP3   OH2 3932   3.576   3.275   1.904
 1330TIP3    H1 3933   3.602   3.195   1.858
 1330TIP3    H2 3934   3.658   3.315   1.932
 1331TIP3   OH2 3935   2.171   4.498   2.376
 1331TIP3    H1 3936   2.150   4.425   2.434
 1331TIP3    H2 3937   2.258   4.527   2.405
 1332TIP3   OH2 3938   2.270   6.825   5.799
 1332TIP3    H1 3939   2.301   6.915   5.790
 1332TIP3    H2 3940   2.328   6.787   5.865
 1333TIP3   OH2 3941   5.272   2.615   0.775
 1333TIP3    H1 3942   5.229   2.670   0.711
 1333TIP3    H2 3943   5.346   2.576   0.727
 1334TIP3   OH2 3944   6.459   7.016   0.543
 1334TIP3    H1 3945   6.482   7.038   0.453
 1334TIP3    H2 3946   6.408   7.091   0.574
 1335TIP3   OH2 3947   2.526   1.881   3.124
 1335TIP3    H1 3948   2.446   1.856   3.170
 1335TIP3    H2 3949   2.570   1.798   3.105
 1336TIP3   OH2 3950   0.014   3.642   2.152
 1336TIP3    H1 3951  -0.057   3.702   2.128
 1336TIP3    H2 3952   0.087   3.700   2.173
 1337TIP3   OH2 3953   0.201   5.854   5.041
 1337TIP3    H1 3954   0.177   5.770   5.082
 1337TIP3    H2 3955   0.118   5.892   5.013
 1338TIP3   OH2 3956   2.624   1.417   6.024
 1338TIP3    H1 3957   2.532   1.400   6.044
 1338TIP3    H2 3958   2.631   1.406   5.929
 1339TIP3   OH2 3959   4.912   6.332   4.288
 1339TIP3    H1 3960   4.823   6.352   4.259
 1339TIP3    H2 3961   4.960   6.414   4.277
 1340TIP3   OH2 3962   6.024   6.278   4.280
 1340TIP3    H1 3963   6.022   6.361   4.233
 1340TIP3    H2 3964   6.091   6.289   4.348
 1341TIP3   OH2 3965   6.706   6.035   3.999
 1341TIP3    H1 3966   6.709   6.129   4.019
 1341TIP3    H2 3967   6.623   6.005   4.036
 1342TIP3   OH2 3968   5.581   0.310   0.340
 1342TIP3    H1 3969   5.592   0.232   0.394
 1342TIP3    H2 3970   5.663   0.358   0.350
 1343TIP3   OH2 3971   4.095   0.735   4.791
 1343TIP3    H1 3972   4.158   0.758   4.860
 1343TIP3    H2 3973   4.139   0.757   4.710
 1344TIP3   OH2 3974   7.115   1.118   3.237
 1344TIP3    H1 3975   7.037   1.106   3.290
 1344TIP3    H2 3976   7.090   1.182   3.170
 1345TIP3   OH2 3977   4.541   0.225   5.574
 1345TIP3    H1 3978   4.490   0.302   5.548
 1345TIP3    H2 3979   4.483   0.176   5.632
 1346TIP3   OH2 3980   2.681   5.382   1.944
 1346TIP3    H1 3981   2.699   5.465   1.900
 1346TIP3    H2 3982   2.655   5.406   2.032
 1347TIP3   OH2 3983   4.788   2.632   3.065
 1347TIP3    H1 3984   4.787   2.613   3.158
 1347TIP3    H2 3985   4.846   2.707   3.055
 1348TIP3   OH2 3986   1.175   6.524   2.786
 1348TIP3    H1 3987   1.226   6.451   2.753
 1348TIP3    H2 3988   1.240   6.589   2.814
 1349TIP3   OH2 3989   7.681   7.817   4.498
 1349TIP3    H1 3990   7.742   7.885   4.470
 1349TIP3    H2 3991   7.727   7.770   4.567
 1350TIP3   OH2 3992   4.053   4.045   5.944
 1350TIP3    H1 3993   4.026   3.982   6.011
 1350TIP3    H2 3994   4.007   4.126   5.968
 1351TIP3   OH2 3995   7.493   0.536   6.245
 1351TIP3    H1 3996   7.537   0.612   6.283
 1351TIP3    H2 3997   7.477   0.478   6.320
 1352TIP3   OH2 3998   3.277   5.304   5.665
 1352TIP3    H1 3999   3.351   5.346   5.621
 1352TIP3    H2 4000   3.259   5.226   5.612
 1353TIP3   OH2 4001   7.651   7.006   0.031
 1353TIP3    H1 4002   7.732   7.052   0.010
 1353TIP3    H2 4003   7.676   6.914   0.039
 1354TIP3   OH2 4004   1.287   6.204   3.803
 1354TIP3    H1 4005   1.222   6.141   3.835
 1354TIP3    H2 4006   1.370   6.175   3.841
 1355TIP3   OH2 4007   6.569   4.345   5.403
 1355TIP3    H1 4008   6.640   4.284   5.423
 1355TIP3    H2 4009   6.613   4.423   5.368
 1356TIP3   OH2 4010   7.721   7.039   0.432
 1356TIP3    H1 4011   7.794   6.991   0.394
 1356TIP3    H2 4012   7.672   7.073   0.357
 1357TIP3   OH2 4013   7.187   7.303   1.957
 1357TIP3    H1 4014   7.278   7.273   1.967
 1357TIP3    H2 4015   7.158   7.322   2.046
 1358TIP3   OH2 4016   0.662   6.157   0.695
 1358TIP3    H1 4017   0.602   6.199   0.633
 1358TIP3    H2 4018   0.749   6.187   0.669
 1359TIP3   OH2 4019   0.407   4.406   5.515
 1359TIP3    H1 4020   0.390   4.341   5.583
 1359TIP3    H2 4021   0.481   4.456   5.548
 1360TIP3   OH2 4022   2.420   3.038   2.120
 1360TIP3    H1 4023   2.453   3.025   2.031
 1360TIP3    H2 4024   2.463   2.970   2.172
 1361TIP3   OH2 4025   8.270   7.225   5.465
 1361TIP3    H1 4026   8.276   7.280   5.387
 1361TIP3    H2 4027   8.176   7.219   5.483
 1362TIP3   OH2 4028   7.709   5.487   4.970
 1362TIP3    H1 4029   7.710   5.558   4.906
 1362TIP3    H2 4030   7.631   5.503   5.023
 1363TIP3   OH2 4031   3.020   5.481   6.428
 1363TIP3    H1 4032   2.978   5.547   6.373
 1363TIP3    H2 4033   3.036   5.526   6.511
 1364TIP3   OH2 4034   0.866   5.391   5.496
 1364TIP3    H1 4035   0.818   5.314   5.464
 1364TIP3    H2 4036   0.849   5.393   5.590
 1365TIP3   OH2 4037   0.884   3.028   4.633
 1365TIP3    H1 4038   0.972   2.992   4.626
 1365TIP3    H2 4039   0.858   3.010   4.723
 1366TIP3   OH2 4040   4.170   6.269   3.781
 1366TIP3    H1 4041   4.086   6.227   3.798
 1366TIP3    H2 4042   4.207   6.220   3.707
 1367TIP3   OH2 4043   3.809   0.414   6.566
 1367TIP3    H1 4044   3.868   0.449   6.500
 1367TIP3    H2 4045   3.721   0.436   6.534
 1368TIP3   OH2 4046   6.632   0.480   1.225
 1368TIP3    H1 4047   6.715   0.523   1.244
 1368TIP3    H2 4048   6.650   0.426   1.148
 1369TIP3   OH2 4049   7.946   1.012   6.520
 1369TIP3    H1 4050   7.851   1.026   6.520
 1369TIP3    H2 4051   7.967   0.988   6.430
 1370TIP3   OH2 4052   3.906   4.079   2.900
 1370TIP3    H1 4053   3.877   4.019   2.968
 1370TIP3    H2 4054   3.850   4.059   2.825
 1371TIP3   OH2 4055   3.475   3.290   0.063
 1371TIP3    H1 4056   3.504   3.311  -0.025
 1371TIP3    H2 4057   3.403   3.351   0.080
 1372TIP3   OH2 4058   4.567   4.211   0.158
 1372TIP3    H1 4059   4.542   4.197   0.249
 1372TIP3    H2 4060   4.495   4.174   0.108
 1373TIP3   OH2 4061   2.719   5.582   0.601
 1373TIP3    H1 4062   2.634   5.539   0.612
 1373TIP3    H2 4063   2.755   5.542   0.521
 1374TIP3   OH2 4064   4.960   5.180   2.301
 1374TIP3    H1 4065   4.923   5.223   2.224
 1374TIP3    H2 4066   4.966   5.088   2.278
 1375TIP3   OH2 4067   7.813   0.615   3.635
 1375TIP3    H1 4068   7.758   0.554   3.586
 1375TIP3    H2 4069   7.757   0.691   3.652
 1376TIP3   OH2 4070   2.409   5.411   3.787
 1376TIP3    H1 4071   2.437   5.488   3.837
 1376TIP3    H2 4072   2.314   5.416   3.785
 1377TIP3   OH2 4073   4.936   5.548   4.722
 1377TIP3    H1 4074   5.005   5.524   4.661
 1377TIP3    H2 4075   4.924   5.642   4.710
 1378TIP3   OH2 4076   5.402   6.569   4.722
 1378TIP3    H1 4077   5.313   6.539   4.706
 1378TIP3    H2 4078   5.435   6.512   4.791
 1379TIP3   OH2 4079   0.753   0.988   1.411
 1379TIP3    H1 4080   0.765   0.977   1.505
 1379TIP3    H2 4081   0.827   0.942   1.372
 1380TIP3   OH2 4082   5.113   4.992   0.069
 1380TIP3    H1 4083   5.092   5.053  -0.001
 1380TIP3    H2 4084   5.128   4.908   0.025
 1381TIP3   OH2 4085   4.589   0.837   3.536
 1381TIP3    H1 4086   4.654   0.908   3.537
 1381TIP3    H2 4087   4.620   0.778   3.468
 1382TIP3   OH2 4088   6.153   0.529   6.681
 1382TIP3    H1 4089   6.147   0.605   6.623
 1382TIP3    H2 4090   6.236   0.540   6.727
 1383TIP3   OH2 4091   6.529   0.119   1.145
 1383TIP3    H1 4092   6.608   0.070   1.121
 1383TIP3    H2 4093   6.472   0.054   1.186
 1384TIP3   OH2 4094   0.983   1.026   6.278
 1384TIP3    H1 4095   0.911   0.970   6.307
 1384TIP3    H2 4096   0.952   1.115   6.295
 1385TIP3   OH2 4097   2.234   7.079   3.036
 1385TIP3    H1 4098   2.241   6.990   3.070
 1385TIP3    H2 4099   2.278   7.133   3.101
 1386TIP3   OH2 4100   0.596   0.666   1.326
 1386TIP3    H1 4101   0.514   0.618   1.340
 1386TIP3    H2 4102   0.665   0.602   1.347
 1387TIP3   OH2 4103   7.476   5.168   2.113
 1387TIP3    H1 4104   7.469   5.076   2.088
 1387TIP3    H2 4105   7.436   5.215   2.040
 1388TIP3   OH2 4106   6.732   0.949   2.872
 1388TIP3    H1 4107   6.779   1.018   2.919
 1388TIP3    H2 4108   6.719   0.984   2.784
 1389TIP3   OH2 4109   5.166   6.570   2.684
 1389TIP3    H1 4110   5.080   6.535   2.708
 1389TIP3    H2 4111   5.220   6.492   2.671
 1390TIP3   OH2 4112   1.867   4.800   5.542
 1390TIP3    H1 4113   1.838   4.712   5.566
 1390TIP3    H2 4114   1.791   4.839   5.498
 1391TIP3   OH2 4115   7.070   0.302   2.691
 1391TIP3    H1 4116   7.098   0.393   2.704
 1391TIP3    H2 4117   7.058   0.268   2.779
 1392TIP3   OH2 4118   6.831   7.680   4.710
 1392TIP3    H1 4119   6.889   7.617   4.667
 1392TIP3    H2 4120   6.880   7.709   4.787
 1393TIP3   OH2 4121   1.623   6.099   3.304
 1393TIP3    H1 4122   1.579   6.014   3.308
 1393TIP3    H2 4123   1.560   6.156   3.261
 1394TIP3   OH2 4124   6.801   4.755   6.443
 1394TIP3    H1 4125   6.707   4.758   6.426
 1394TIP3    H2 4126   6.841   4.780   6.359
 1395TIP3   OH2 4127   1.215   6.973   6.078
 1395TIP3    H1 4128   1.301   6.971   6.036
 1395TIP3    H2 4129   1.164   7.036   6.028
 1396TIP3   OH2 4130   1.150   5.887   2.126
 1396TIP3    H1 4131   1.209   5.930   2.188
 1396TIP3    H2 4132   1.064   5.922   2.145
 1397TIP3   OH2 4133   2.893   0.141   6.355
 1397TIP3    H1 4134   2.839   0.150   6.277
 1397TIP3    H2 4135   2.944   0.061   6.340
 1398TIP3   OH2 4136   2.644   4.029   1.523
 1398TIP3    H1 4137   2.576   4.031   1.590
 1398TIP3    H2 4138   2.650   3.937   1.497
 1399TIP3   OH2 4139   0.738   5.726   2.751
 1399TIP3    H1 4140   0.728   5.641   2.793
 1399TIP3    H2 4141   0.815   5.715   2.695
 1400TIP3   OH2 4142   2.458   2.961   5.021
 1400TIP3    H1 4143   2.447   3.054   5.043
 1400TIP3    H2 4144   2.530   2.960   4.957
 1401TIP3   OH2 4145   0.940   0.611   5.543
 1401TIP3    H1 4146   0.871   0.555   5.579
 1401TIP3    H2 4147   1.019   0.557   5.547
 1402TIP3   OH2 4148   4.032   2.856   3.293
 1402TIP3    H1 4149   4.112   2.822   3.252
 1402TIP3    H2 4150   3.967   2.788   3.278
 1403TIP3   OH2 4151   6.831   0.763   1.551
 1403TIP3    H1 4152   6.843   0.690   1.613
 1403TIP3    H2 4153   6.884   0.834   1.588
 1404TIP3   OH2 4154   6.264   0.565   1.770
 1404TIP3    H1 4155   6.212   0.637   1.804
 1404TIP3    H2 4156   6.285   0.590   1.680
 1405TIP3   OH2 4157   3.501   4.018   2.008
 1405TIP3    H1 4158   3.435   3.951   1.992
 1405TIP3    H2 4159   3.566   3.975   2.063
 1406TIP3   OH2 4160   5.137   6.046   5.924
 1406TIP3    H1 4161   5.168   5.956   5.928
 1406TIP3    H2 4162   5.059   6.042   5.870
 1407TIP3   OH2 4163   0.928   5.537   1.320
 1407TIP3    H1 4164   1.023   5.551   1.325
 1407TIP3    H2 4165   0.890   5.624   1.332
 1408TIP3   OH2 4166   3.820   7.721   2.692
 1408TIP3    H1 4167   3.730   7.692   2.703
 1408TIP3    H2 4168   3.871   7.662   2.747
 1409TIP3   OH2 4169   2.127   3.619   1.276
 1409TIP3    H1 4170   2.040   3.607   1.315
 1409TIP3    H2 4171   2.171   3.535   1.292
 1410TIP3   OH2 4172   7.161   2.855   5.614
 1410TIP3    H1 4173   7.195   2.768   5.632
 1410TIP3    H2 4174   7.105   2.875   5.689
 1411TIP3   OH2 4175   5.653   3.977   2.149
 1411TIP3    H1 4176   5.670   3.960   2.242
 1411TIP3    H2 4177   5.574   4.032   2.149
 1412TIP3   OH2 4178   4.610   4.781   6.307
 1412TIP3    H1 4179   4.705   4.786   6.317
 1412TIP3    H2 4180   4.596   4.750   6.218
 1413TIP3   OH2 4181   5.058   4.759   0.274
 1413TIP3    H1 4182   5.119   4.805   0.330
 1413TIP3    H2 4183   5.113   4.714   0.210
 1414TIP3   OH2 4184   0.799   1.168   5.815
 1414TIP3    H1 4185   0.869   1.233   5.828
 1414TIP3    H2 4186   0.758   1.194   5.733
 1415TIP3   OH2 4187   2.970   4.602   6.233
 1415TIP3    H1 4188   2.888   4.625   6.276
 1415TIP3    H2 4189   3.037   4.619   6.300
 1416TIP3   OH2 4190   0.905   0.881   5.573
 1416TIP3    H1 4191   0.926   0.788   5.570
 1416TIP3    H2 4192   0.956   0.915   5.646
 1417TIP3   OH2 4193   5.061   3.108   2.492
 1417TIP3    H1 4194   4.971   3.122   2.523
 1417TIP3    H2 4195   5.112   3.096   2.572
 1418TIP3   OH2 4196   3.385   4.756   1.137
 1418TIP3    H1 4197   3.341   4.799   1.210
 1418TIP3    H2 4198   3.401   4.827   1.074
 1419TIP3   OH2 4199   5.709   3.960   2.782
 1419TIP3    H1 4200   5.695   3.995   2.694
 1419TIP3    H2 4201   5.694   4.034   2.841
 1420TIP3   OH2 4202   7.297   3.606   1.867
 1420TIP3    H1 4203   7.216   3.580   1.912
 1420TIP3    H2 4204   7.367   3.577   1.925
 1421TIP3   OH2 4205   7.234   6.686   5.263
 1421TIP3    H1 4206   7.236   6.759   5.325
 1421TIP3    H2 4207   7.324   6.680   5.231
 1422TIP3   OH2 4208   5.547   6.822   0.541
 1422TIP3    H1 4209   5.484   6.754   0.562
 1422TIP3    H2 4210   5.529   6.893   0.603
 1423TIP3   OH2 4211   4.613   2.814   0.947
 1423TIP3    H1 4212   4.686   2.766   0.986
 1423TIP3    H2 4213   4.540   2.752   0.948
 1424TIP3   OH2 4214   1.307   6.596   4.394
 1424TIP3    H1 4215   1.246   6.590   4.321
 1424TIP3    H2 4216   1.291   6.517   4.446
 1425TIP3   OH2 4217   4.641   7.032   2.305
 1425TIP3    H1 4218   4.716   7.031   2.364
 1425TIP3    H2 4219   4.574   6.982   2.351
 1426TIP3   OH2 4220   7.051   7.428   1.044
 1426TIP3    H1 4221   6.959   7.403   1.053
 1426TIP3    H2 4222   7.092   7.353   1.002
 1427TIP3   OH2 4223   6.712   7.045   2.378
 1427TIP3    H1 4224   6.748   6.963   2.344
 1427TIP3    H2 4225   6.637   7.064   2.321
 1428TIP3   OH2 4226   1.070   4.350   1.107
 1428TIP3    H1 4227   1.094   4.438   1.080
 1428TIP3    H2 4228   1.031   4.361   1.194
 1429TIP3   OH2 4229   6.841   6.443   5.465
 1429TIP3    H1 4230   6.805   6.519   5.510
 1429TIP3    H2 4231   6.816   6.455   5.373
 1430TIP3   OH2 4232   3.004   4.010   0.524
 1430TIP3    H1 4233   3.062   3.939   0.554
 1430TIP3    H2 4234   2.990   3.992   0.431
 1431TIP3   OH2 4235   2.959   1.674   2.246
 1431TIP3    H1 4236   2.942   1.768   2.236
 1431TIP3    H2 4237   2.872   1.634   2.245
 1432TIP3   OH2 4238   4.942   6.284   2.169
 1432TIP3    H1 4239   4.941   6.335   2.088
 1432TIP3    H2 4240   4.995   6.337   2.230
 1433TIP3   OH2 4241   2.722   1.244   3.722
 1433TIP3    H1 4242   2.695   1.264   3.633
 1433TIP3    H2 4243   2.793   1.306   3.740
 1434TIP3   OH2 4244   3.981   6.656   2.636
 1434TIP3    H1 4245   3.931   6.716   2.691
 1434TIP3    H2 4246   4.061   6.639   2.686
 1435TIP3   OH2 4247   6.168   6.174   2.094
 1435TIP3    H1 4248   6.234   6.107   2.077
 1435TIP3    H2 4249   6.146   6.163   2.187
 1436TIP3   OH2 4250   6.117   5.949   2.662
 1436TIP3    H1 4251   6.153   5.988   2.742
 1436TIP3    H2 4252   6.185   5.963   2.596
 1437TIP3   OH2 4253   5.838   4.822   2.403
 1437TIP3    H1 4254   5.847   4.917   2.397
 1437TIP3    H2 4255   5.823   4.806   2.496
 1438TIP3   OH2 4256   5.952   1.667   4.553
 1438TIP3    H1 4257   5.871   1.703   4.518
 1438TIP3    H2 4258   5.986   1.736   4.610
 1439TIP3   OH2 4259   5.782   2.443   4.124
 1439TIP3    H1 4260   5.851   2.444   4.058
 1439TIP3    H2 4261   5.758   2.535   4.136
 1440TIP3   OH2 4262   5.360   2.354   0.481
 1440TIP3    H1 4263   5.360   2.340   0.386
 1440TIP3    H2 4264   5.286   2.412   0.497
 1441TIP3   OH2 4265   1.624   7.616   3.062
 1441TIP3    H1 4266   1.652   7.593   2.973
 1441TIP3    H2 4267   1.587   7.535   3.097
 1442TIP3   OH2 4268   5.389   4.773   4.066
 1442TIP3    H1 4269   5.442   4.713   4.118
 1442TIP3    H2 4270   5.307   4.726   4.051
 1443TIP3   OH2 4271   3.856   4.220   1.279
 1443TIP3    H1 4272   3.801   4.297   1.266
 1443TIP3    H2 4273   3.808   4.149   1.237
 1444TIP3   OH2 4274   1.395   2.799   1.151
 1444TIP3    H1 4275   1.396   2.893   1.134
 1444TIP3    H2 4276   1.349   2.761   1.075
 1445TIP3   OH2 4277   1.555   1.785   2.404
 1445TIP3    H1 4278   1.548   1.787   2.308
 1445TIP3    H2 4279   1.648   1.801   2.421
 1446TIP3   OH2 4280   6.983   0.397   4.412
 1446TIP3    H1 4281   6.962   0.434   4.326
 1446TIP3    H2 4282   6.949   0.460   4.475
 1447TIP3   OH2 4283   5.449   5.557   1.051
 1447TIP3    H1 4284   5.474   5.649   1.048
 1447TIP3    H2 4285   5.469   5.523   0.964
 1448TIP3   OH2 4286   2.911   0.619   6.081
 1448TIP3    H1 4287   2.873   0.657   6.002
 1448TIP3    H2 4288   2.843   0.630   6.148
 1449TIP3   OH2 4289   0.561   3.938   0.772
 1449TIP3    H1 4290   0.480   3.891   0.795
 1449TIP3    H2 4291   0.530   4.018   0.731
 1450TIP3   OH2 4292   7.348   4.794   1.048
 1450TIP3    H1 4293   7.397   4.718   1.016
 1450TIP3    H2 4294   7.414   4.864   1.055
 1451TIP3   OH2 4295   2.567   5.422   4.935
 1451TIP3    H1 4296   2.486   5.399   4.890
 1451TIP3    H2 4297   2.618   5.341   4.938
 1452TIP3   OH2 4298   1.983   3.520   5.758
 1452TIP3    H1 4299   1.946   3.528   5.845
 1452TIP3    H2 4300   1.982   3.425   5.740
 1453TIP3   OH2 4301   2.605   0.275   5.133
 1453TIP3    H1 4302   2.699   0.267   5.150
 1453TIP3    H2 4303   2.564   0.250   5.216
 1454TIP3   OH2 4304   7.827   3.518   5.760
 1454TIP3    H1 4305   7.786   3.556   5.683
 1454TIP3    H2 4306   7.914   3.491   5.731
 1455TIP3   OH2 4307   5.639   0.365   4.611
 1455TIP3    H1 4308   5.718   0.410   4.583
 1455TIP3    H2 4309   5.569   0.404   4.559
 1456TIP3   OH2 4310   0.830   2.907   3.589
 1456TIP3    H1 4311   0.887   2.842   3.631
 1456TIP3    H2 4312   0.882   2.940   3.516
 1457TIP3   OH2 4313   0.146   0.671   4.375
 1457TIP3    H1 4314   0.054   0.675   4.399
 1457TIP3    H2 4315   0.151   0.712   4.288
 1458TIP3   OH2 4316   2.463   6.038   0.595
 1458TIP3    H1 4317   2.537   6.097   0.580
 1458TIP3    H2 4318   2.453   5.991   0.512
 1459TIP3   OH2 4319   1.021   1.151   4.315
 1459TIP3    H1 4320   1.045   1.203   4.239
 1459TIP3    H2 4321   1.037   1.060   4.288
 1460TIP3   OH2 4322   4.736   1.500   3.802
 1460TIP3    H1 4323   4.800   1.570   3.804
 1460TIP3    H2 4324   4.703   1.494   3.892
 1461TIP3   OH2 4325   0.471   5.544   6.660
 1461TIP3    H1 4326   0.379   5.545   6.635
 1461TIP3    H2 4327   0.471   5.554   6.755
 1462TIP3   OH2 4328   0.126   0.163   1.313
 1462TIP3    H1 4329   0.083   0.150   1.397
 1462TIP3    H2 4330   0.054   0.168   1.249
 1463TIP3   OH2 4331   3.041   0.582   0.614
 1463TIP3    H1 4332   3.108   0.534   0.661
 1463TIP3    H2 4333   2.960   0.534   0.632
 1464TIP3   OH2 4334   7.771   1.229   3.027
 1464TIP3    H1 4335   7.772   1.151   3.083
 1464TIP3    H2 4336   7.692   1.219   2.974
 1465TIP3   OH2 4337   2.834   6.753   0.553
 1465TIP3    H1 4338   2.865   6.836   0.590
 1465TIP3    H2 4339   2.868   6.687   0.613
 1466TIP3   OH2 4340   0.750   4.383   3.343
 1466TIP3    H1 4341   0.678   4.378   3.405
 1466TIP3    H2 4342   0.829   4.378   3.397
 1467TIP3   OH2 4343   6.811   2.678   4.266
 1467TIP3    H1 4344   6.907   2.678   4.259
 1467TIP3    H2 4345   6.789   2.590   4.295
 1468TIP3   OH2 4346   4.140   7.112   4.554
 1468TIP3    H1 4347   4.187   7.195   4.550
 1468TIP3    H2 4348   4.092   7.108   4.471
 1469TIP3   OH2 4349   5.863   6.412   2.040
 1469TIP3    H1 4350   5.845   6.444   2.128
 1469TIP3    H2 4351   5.919   6.334   2.053
 1470TIP3   OH2 4352   4.785   5.098   1.847
 1470TIP3    H1 4353   4.737   5.069   1.925
 1470TIP3    H2 4354   4.875   5.108   1.877
 1471TIP3   OH2 4355   5.495   2.052   6.511
 1471TIP3    H1 4356   5.504   2.037   6.417
 1471TIP3    H2 4357   5.542   2.134   6.527
 1472TIP3   OH2 4358   7.462   5.967   2.542
 1472TIP3    H1 4359   7.544   5.918   2.546
 1472TIP3    H2 4360   7.490   6.058   2.530
 1473TIP3   OH2 4361   7.705   2.535   2.626
 1473TIP3    H1 4362   7.641   2.593   2.669
 1473TIP3    H2 4363   7.656   2.454   2.612
 1474TIP3   OH2 4364   4.528   2.447   1.844
 1474TIP3    H1 4365   4.434   2.467   1.846
 1474TIP3    H2 4366   4.569   2.525   1.881
 1475TIP3   OH2 4367   0.297   0.903   3.429
 1475TIP3    H1 4368   0.217   0.897   3.377
 1475TIP3    H2 4369   0.284   0.837   3.498
 1476TIP3   OH2 4370   7.610   3.660   5.117
 1476TIP3    H1 4371   7.587   3.711   5.039
 1476TIP3    H2 4372   7.527   3.621   5.145
 1477TIP3   OH2 4373   4.429   4.401   6.617
 1477TIP3    H1 4374   4.393   4.416   6.530
 1477TIP3    H2 4375   4.495   4.470   6.628
 1478TIP3   OH2 4376   2.174   5.444   6.718
 1478TIP3    H1 4377   2.083   5.417   6.706
 1478TIP3    H2 4378   2.220   5.407   6.643
 1479TIP3   OH2 4379   2.339   2.093   0.330
 1479TIP3    H1 4380   2.423   2.103   0.285
 1479TIP3    H2 4381   2.274   2.119   0.265
 1480TIP3   OH2 4382   1.541   4.542   5.164
 1480TIP3    H1 4383   1.484   4.601   5.114
 1480TIP3    H2 4384   1.530   4.457   5.123
 1481TIP3   OH2 4385   4.545   3.636   3.081
 1481TIP3    H1 4386   4.511   3.606   2.997
 1481TIP3    H2 4387   4.633   3.599   3.086
 1482TIP3   OH2 4388   5.963   7.436   4.444
 1482TIP3    H1 4389   5.891   7.460   4.503
 1482TIP3    H2 4390   5.965   7.341   4.447
 1483TIP3   OH2 4391   2.016   5.757   0.168
 1483TIP3    H1 4392   2.025   5.666   0.195
 1483TIP3    H2 4393   2.105   5.783   0.143
 1484TIP3   OH2 4394   3.164   7.159   5.673
 1484TIP3    H1 4395   3.130   7.070   5.665
 1484TIP3    H2 4396   3.086   7.214   5.677
 1485TIP3   OH2 4397   5.005   0.554   5.574
 1485TIP3    H1 4398   5.067   0.496   5.529
 1485TIP3    H2 4399   4.919   0.515   5.557
 1486TIP3   OH2 4400   0.578   4.790   0.906
 1486TIP3    H1 4401   0.585   4.819   0.996
 1486TIP3    H2 4402   0.494   4.745   0.902
 1487TIP3   OH2 4403   5.291   3.093   1.309
 1487TIP3    H1 4404   5.269   3.178   1.347
 1487TIP3    H2 4405   5.214   3.038   1.325
 1488TIP3   OH2 4406   1.466   4.278   0.049
 1488TIP3    H1 4407   1.448   4.193   0.010
 1488TIP3    H2 4408   1.479   4.260   0.142
 1489TIP3   OH2 4409   6.294   6.006   0.185
 1489TIP3    H1 4410   6.265   6.041   0.269
 1489TIP3    H2 4411   6.382   6.041   0.172
 1490TIP3   OH2 4412   4.314   4.384   5.955
 1490TIP3    H1 4413   4.267   4.328   5.894
 1490TIP3    H2 4414   4.329   4.329   6.032
 1491TIP3   OH2 4415   5.098   1.129   0.352
 1491TIP3    H1 4416   5.038   1.185   0.402
 1491TIP3    H2 4417   5.050   1.109   0.271
 1492TIP3   OH2 4418   5.188   3.538   4.115
 1492TIP3    H1 4419   5.200   3.478   4.189
 1492TIP3    H2 4420   5.211   3.486   4.038
 1493TIP3   OH2 4421   2.904   0.506   4.914
 1493TIP3    H1 4422   2.973   0.569   4.891
 1493TIP3    H2 4423   2.867   0.540   4.996
 1494TIP3   OH2 4424   6.622   3.399   2.787
 1494TIP3    H1 4425   6.532   3.370   2.775
 1494TIP3    H2 4426   6.627   3.425   2.879
 1495TIP3   OH2 4427   6.851   3.610   3.527
 1495TIP3    H1 4428   6.901   3.567   3.596
 1495TIP3    H2 4429   6.787   3.663   3.574
 1496TIP3   OH2 4430   6.668   3.574   1.153
 1496TIP3    H1 4431   6.755   3.614   1.152
 1496TIP3    H2 4432   6.679   3.490   1.110
 1497TIP3   OH2 4433   3.739   7.305   2.858
 1497TIP3    H1 4434   3.833   7.323   2.848
 1497TIP3    H2 4435   3.734   7.212   2.877
 1498TIP3   OH2 4436   5.038   4.955   1.003
 1498TIP3    H1 4437   5.022   5.044   0.970
 1498TIP3    H2 4438   5.071   4.969   1.091
 1499TIP3   OH2 4439   4.813   3.069   4.787
 1499TIP3    H1 4440   4.833   3.001   4.851
 1499TIP3    H2 4441   4.768   3.137   4.838
 1500TIP3   OH2 4442   5.839   1.517   1.190
 1500TIP3    H1 4443   5.745   1.524   1.170
 1500TIP3    H2 4444   5.883   1.564   1.120
 1501TIP3   OH2 4445   5.398   6.831   6.644
 1501TIP3    H1 4446   5.422   6.907   6.591
 1501TIP3    H2 4447   5.325   6.791   6.598
 1502TIP3   OH2 4448   4.076   5.893   4.544
 1502TIP3    H1 4449   4.159   5.940   4.541
 1502TIP3    H2 4450   4.050   5.897   4.636
 1503TIP3   OH2 4451   6.800   3.354   6.346
 1503TIP3    H1 4452   6.765   3.392   6.266
 1503TIP3    H2 4453   6.737   3.286   6.371
 1504TIP3   OH2 4454   7.095   0.429   2.017
 1504TIP3    H1 4455   7.001   0.428   2.003
 1504TIP3    H2 4456   7.133   0.417   1.930
 1505TIP3   OH2 4457   4.697   4.698   6.059
 1505TIP3    H1 4458   4.756   4.738   5.996
 1505TIP3    H2 4459   4.614   4.690   6.012
 1506TIP3   OH2 4460   2.337   4.065   4.049
 1506TIP3    H1 4461   2.298   4.021   3.973
 1506TIP3    H2 4462   2.345   3.995   4.115
 1507TIP3   OH2 4463   3.738   7.614   6.341
 1507TIP3    H1 4464   3.652   7.590   6.375
 1507TIP3    H2 4465   3.800   7.569   6.398
 1508TIP3   OH2 4466   2.066   3.450   6.554
 1508TIP3    H1 4467   2.029   3.392   6.621
 1508TIP3    H2 4468   1.993   3.469   6.495
 1509TIP3   OH2 4469   1.399   5.568   0.444
 1509TIP3    H1 4470   1.319   5.578   0.497
 1509TIP3    H2 4471   1.413   5.473   0.441
 1510TIP3   OH2 4472   0.552   1.968   4.794
 1510TIP3    H1 4473   0.576   1.944   4.883
 1510TIP3    H2 4474   0.601   2.048   4.776
 1511TIP3   OH2 4475   7.701   6.384   5.703
 1511TIP3    H1 4476   7.635   6.381   5.634
 1511TIP3    H2 4477   7.712   6.293   5.731
 1512TIP3   OH2 4478   0.121   2.872   2.100
 1512TIP3    H1 4479   0.176   2.922   2.160
 1512TIP3    H2 4480   0.123   2.783   2.134
 1513TIP3   OH2 4481   8.240   4.131   3.629
 1513TIP3    H1 4482   8.314   4.190   3.642
 1513TIP3    H2 4483   8.230   4.086   3.712
 1514TIP3   OH2 4484   0.185   7.234   1.842
 1514TIP3    H1 4485   0.226   7.170   1.783
 1514TIP3    H2 4486   0.185   7.316   1.792
 1515TIP3   OH2 4487   3.665   3.640   5.095
 1515TIP3    H1 4488   3.668   3.685   5.010
 1515TIP3    H2 4489   3.743   3.670   5.141
 1516TIP3   OH2 4490   2.129   6.864   4.788
 1516TIP3    H1 4491   2.212   6.822   4.764
 1516TIP3    H2 4492   2.062   6.804   4.758
 1517TIP3   OH2 4493   7.725   5.199   2.240
 1517TIP3    H1 4494   7.735   5.269   2.175
 1517TIP3    H2 4495   7.633   5.176   2.236
 1518TIP3   OH2 4496   3.152   0.921   4.539
 1518TIP3    H1 4497   3.167   0.834   4.501
 1518TIP3    H2 4498   3.102   0.968   4.473
 1519TIP3   OH2 4499   0.668   4.931   4.432
 1519TIP3    H1 4500   0.617   4.857   4.464
 1519TIP3    H2 4501   0.701   4.974   4.511
 1520TIP3   OH2 4502   3.356   4.191   6.014
 1520TIP3    H1 4503   3.294   4.264   6.009
 1520TIP3    H2 4504   3.316   4.122   5.960
 1521TIP3   OH2 4505   2.189   3.494   4.602
 1521TIP3    H1 4506   2.196   3.399   4.610
 1521TIP3    H2 4507   2.215   3.513   4.512
 1522TIP3   OH2 4508   5.856   4.074   0.297
 1522TIP3    H1 4509   5.808   4.018   0.358
 1522TIP3    H2 4510   5.790   4.134   0.262
 1523TIP3   OH2 4511   4.493   6.094   4.322
 1523TIP3    H1 4512   4.464   6.084   4.231
 1523TIP3    H2 4513   4.426   6.149   4.363
 1524TIP3   OH2 4514   7.124   0.913   6.748
 1524TIP3    H1 4515   7.178   0.841   6.781
 1524TIP3    H2 4516   7.124   0.977   6.818
 1525TIP3   OH2 4517   2.090   7.475   0.385
 1525TIP3    H1 4518   2.143   7.546   0.350
 1525TIP3    H2 4519   2.134   7.451   0.467
 1526TIP3   OH2 4520   1.438   1.406   6.548
 1526TIP3    H1 4521   1.431   1.457   6.628
 1526TIP3    H2 4522   1.474   1.322   6.576
 1527TIP3   OH2 4523   2.033   3.889   0.218
 1527TIP3    H1 4524   2.112   3.941   0.233
 1527TIP3    H2 4525   1.974   3.949   0.172
 1528TIP3   OH2 4526   6.523   3.086   6.171
 1528TIP3    H1 4527   6.481   3.155   6.119
 1528TIP3    H2 4528   6.599   3.059   6.119
 1529TIP3   OH2 4529   3.070   6.377   2.772
 1529TIP3    H1 4530   3.040   6.297   2.729
 1529TIP3    H2 4531   2.998   6.438   2.761
 1530TIP3   OH2 4532   7.274   2.570   0.654
 1530TIP3    H1 4533   7.321   2.503   0.704
 1530TIP3    H2 4534   7.235   2.627   0.720
 1531TIP3   OH2 4535   3.234   2.398   0.058
 1531TIP3    H1 4536   3.210   2.441   0.140
 1531TIP3    H2 4537   3.325   2.424   0.042
 1532TIP3   OH2 4538   4.182   2.662   4.613
 1532TIP3    H1 4539   4.098   2.690   4.579
 1532TIP3    H2 4540   4.176   2.678   4.707
 1533TIP3   OH2 4541   3.069   2.729   2.701
 1533TIP3    H1 4542   3.146   2.720   2.644
 1533TIP3    H2 4543   3.035   2.640   2.709
 1534TIP3   OH2 4544   1.080   7.107   5.832
 1534TIP3    H1 4545   1.043   7.152   5.757
 1534TIP3    H2 4546   1.060   7.163   5.907
 1535TIP3   OH2 4547   1.670   2.847   1.541
 1535TIP3    H1 4548   1.701   2.762   1.571
 1535TIP3    H2 4549   1.591   2.828   1.491
 1536TIP3   OH2 4550   4.862   5.820   6.093
 1536TIP3    H1 4551   4.875   5.908   6.057
 1536TIP3    H2 4552   4.949   5.794   6.123
 1537TIP3   OH2 4553   6.614   3.725   4.985
 1537TIP3    H1 4554   6.550   3.744   5.052
 1537TIP3    H2 4555   6.580   3.646   4.941
 1538TIP3   OH2 4556   3.864   4.962   6.413
 1538TIP3    H1 4557   3.853   5.057   6.410
 1538TIP3    H2 4558   3.789   4.931   6.464
 1539TIP3   OH2 4559   2.939   4.138   4.974
 1539TIP3    H1 4560   2.896   4.074   4.918
 1539TIP3    H2 4561   2.963   4.209   4.915
 1540TIP3   OH2 4562   1.547   5.238   4.845
 1540TIP3    H1 4563   1.601   5.174   4.799
 1540TIP3    H2 4564   1.458   5.222   4.813
 1541TIP3   OH2 4565   5.532   3.352   1.932
 1541TIP3    H1 4566   5.607   3.382   1.880
 1541TIP3    H2 4567   5.565   3.276   1.979
 1542TIP3   OH2 4568   1.390   3.281   3.213
 1542TIP3    H1 4569   1.448   3.357   3.210
 1542TIP3    H2 4570   1.449   3.206   3.218
 1543TIP3   OH2 4571   6.558   2.071   6.576
 1543TIP3    H1 4572   6.471   2.108   6.590
 1543TIP3    H2 4573   6.593   2.056   6.663
 1544TIP3   OH2 4574   8.066   7.193   2.590
 1544TIP3    H1 4575   7.973   7.173   2.579
 1544TIP3    H2 4576   8.092   7.147   2.670
 1545TIP3   OH2 4577   3.817   6.241   3.610
 1545TIP3    H1 4578   3.847   6.209   3.525
 1545TIP3    H2 4579   3.723   6.253   3.600
 1546TIP3   OH2 4580   0.526   0.500   3.566
 1546TIP3    H1 4581   0.463   0.507   3.494
 1546TIP3    H2 4582   0.474   0.472   3.641
 1547TIP3   OH2 4583   3.316   0.004   0.480
 1547TIP3    H1 4584   3.322   0.099   0.482
 1547TIP3    H2 4585   3.325  -0.018   0.387
 1548TIP3   OH2 4586   0.264   3.094   4.143
 1548TIP3    H1 4587   0.357   3.078   4.159
 1548TIP3    H2 4588   0.249   3.061   4.054
 1549TIP3   OH2 4589   4.421   4.247   1.054
 1549TIP3    H1 4590   4.352   4.225   1.116
 1549TIP3    H2 4591   4.485   4.177   1.062
 1550TIP3   OH2 4592   7.524   2.545   2.861
 1550TIP3    H1 4593   7.484   2.621   2.903
 1550TIP3    H2 4594   7.608   2.534   2.905
 1551TIP3   OH2 4595   3.676   1.414   3.211
 1551TIP3    H1 4596   3.633   1.492   3.247
 1551TIP3    H2 4597   3.749   1.398   3.271
 1552TIP3   OH2 4598   2.586   1.566   6.656
 1552TIP3    H1 4599   2.494   1.591   6.650
 1552TIP3    H2 4600   2.606   1.573   6.750
 1553TIP3   OH2 4601   0.381   6.971   1.583
 1553TIP3    H1 4602   0.354   6.902   1.643
 1553TIP3    H2 4603   0.442   7.025   1.633
 1554TIP3   OH2 4604   0.271   6.116   3.324
 1554TIP3    H1 4605   0.324   6.045   3.288
 1554TIP3    H2 4606   0.278   6.105   3.419
 1555TIP3   OH2 4607   6.859   3.718   6.718
 1555TIP3    H1 4608   6.856   3.623   6.726
 1555TIP3    H2 4609   6.903   3.747   6.798
 1556TIP3   OH2 4610   4.996   6.578   1.065
 1556TIP3    H1 4611   5.036   6.494   1.084
 1556TIP3    H2 4612   5.066   6.631   1.028
 1557TIP3   OH2 4613   0.102   5.205   6.042
 1557TIP3    H1 4614   0.070   5.131   6.094
 1557TIP3    H2 4615   0.146   5.262   6.105
 1558TIP3   OH2 4616   1.783   6.918   4.818
 1558TIP3    H1 4617   1.803   6.834   4.859
 1558TIP3    H2 4618   1.801   6.983   4.887
 1559TIP3   OH2 4619   2.893   4.076   5.989
 1559TIP3    H1 4620   2.810   4.048   6.026
 1559TIP3    H2 4621   2.869   4.135   5.918
 1560TIP3   OH2 4622   6.177   7.818   5.087
 1560TIP3    H1 4623   6.160   7.725   5.101
 1560TIP3    H2 4624   6.244   7.840   5.153
 1561TIP3   OH2 4625   1.147   7.258   3.326
 1561TIP3    H1 4626   1.144   7.296   3.238
 1561TIP3    H2 4627   1.172   7.166   3.311
 1562TIP3   OH2 4628   4.978   0.150   2.628
 1562TIP3    H1 4629   5.038   0.126   2.557
 1562TIP3    H2 4630   5.031   0.142   2.707
 1563TIP3   OH2 4631   3.860   6.111   4.556
 1563TIP3    H1 4632   3.773   6.134   4.588
 1563TIP3    H2 4633   3.910   6.091   4.636
 1564TIP3   OH2 4634   3.716   2.595   3.780
 1564TIP3    H1 4635   3.760   2.582   3.696
 1564TIP3    H2 4636   3.636   2.643   3.758
 1565TIP3   OH2 4637   5.472   7.250   2.223
 1565TIP3    H1 4638   5.525   7.179   2.186
 1565TIP3    H2 4639   5.386   7.211   2.237
 1566TIP3   OH2 4640   5.323   3.393   5.402
 1566TIP3    H1 4641   5.352   3.431   5.485
 1566TIP3    H2 4642   5.232   3.368   5.418
 1567TIP3   OH2 4643   1.748   2.992   6.768
 1567TIP3    H1 4644   1.832   2.956   6.739
 1567TIP3    H2 4645   1.758   3.087   6.759
 1568TIP3   OH2 4646   3.528   7.422   1.209
 1568TIP3    H1 4647   3.549   7.437   1.117
 1568TIP3    H2 4648   3.433   7.417   1.211
 1569TIP3   OH2 4649   3.046   0.916   0.157
 1569TIP3    H1 4650   3.093   0.998   0.172
 1569TIP3    H2 4651   2.962   0.944   0.118
 1570TIP3   OH2 4652   7.266   5.907   2.744
 1570TIP3    H1 4653   7.337   5.929   2.684
 1570TIP3    H2 4654   7.232   5.823   2.713
 1571TIP3   OH2 4655   4.391   6.218   2.864
 1571TIP3    H1 4656   4.392   6.288   2.929
 1571TIP3    H2 4657   4.429   6.256   2.785
 1572TIP3   OH2 4658   6.306   0.645   2.187
 1572TIP3    H1 4659   6.257   0.566   2.166
 1572TIP3    H2 4660   6.295   0.701   2.110
 1573TIP3   OH2 4661   5.655   6.704   3.059
 1573TIP3    H1 4662   5.621   6.620   3.089
 1573TIP3    H2 4663   5.594   6.733   2.992
 1574TIP3   OH2 4664   6.934   6.797   4.759
 1574TIP3    H1 4665   7.003   6.808   4.824
 1574TIP3    H2 4666   6.863   6.853   4.791
 1575TIP3   OH2 4667   2.591   4.324   6.325
 1575TIP3    H1 4668   2.640   4.242   6.316
 1575TIP3    H2 4669   2.648   4.380   6.377
 1576TIP3   OH2 4670   6.058   0.092   3.479
 1576TIP3    H1 4671   6.024   0.170   3.435
 1576TIP3    H2 4672   6.153   0.106   3.483
 1577TIP3   OH2 4673   2.758   6.241   5.959
 1577TIP3    H1 4674   2.842   6.204   5.931
 1577TIP3    H2 4675   2.694   6.174   5.935
 1578TIP3   OH2 4676   3.173   2.138   1.429
 1578TIP3    H1 4677   3.247   2.078   1.431
 1578TIP3    H2 4678   3.127   2.121   1.511
 1579TIP3   OH2 4679   5.626   3.009   5.784
 1579TIP3    H1 4680   5.655   3.100   5.790
 1579TIP3    H2 4681   5.532   3.012   5.801
 1580TIP3   OH2 4682   0.304   6.794   1.809
 1580TIP3    H1 4683   0.306   6.699   1.802
 1580TIP3    H2 4684   0.211   6.816   1.814
 1581TIP3   OH2 4685   7.011   6.584   3.860
 1581TIP3    H1 4686   7.102   6.578   3.890
 1581TIP3    H2 4687   6.976   6.661   3.905
 1582TIP3   OH2 4688   0.353   6.231   6.435
 1582TIP3    H1 4689   0.292   6.161   6.455
 1582TIP3    H2 4690   0.298   6.302   6.400
 1583TIP3   OH2 4691   7.051   3.397   0.431
 1583TIP3    H1 4692   6.977   3.405   0.492
 1583TIP3    H2 4693   7.109   3.470   0.453
 1584TIP3   OH2 4694   3.149   4.394   0.702
 1584TIP3    H1 4695   3.208   4.347   0.760
 1584TIP3    H2 4696   3.062   4.368   0.730
 1585TIP3   OH2 4697   5.506   1.351   4.754
 1585TIP3    H1 4698   5.537   1.339   4.844
 1585TIP3    H2 4699   5.411   1.359   4.762
 1586TIP3   OH2 4700   5.919   6.289   3.507
 1586TIP3    H1 4701   5.881   6.235   3.437
 1586TIP3    H2 4702   5.972   6.354   3.462
 1587TIP3   OH2 4703   3.571   0.420   2.208
 1587TIP3    H1 4704   3.549   0.489   2.145
 1587TIP3    H2 4705   3.638   0.460   2.264
 1588TIP3   OH2 4706   1.098   2.679   3.097
 1588TIP3    H1 4707   1.072   2.769   3.116
 1588TIP3    H2 4708   1.019   2.628   3.108
 1589TIP3   OH2 4709   0.243   3.548   3.530
 1589TIP3    H1 4710   0.295   3.536   3.610
 1589TIP3    H2 4711   0.163   3.591   3.560
 1590TIP3   OH2 4712   2.592   5.562   3.948
 1590TIP3    H1 4713   2.643   5.598   3.876
 1590TIP3    H2 4714   2.631   5.476   3.965
 1591TIP3   OH2 4715   0.237   3.729   1.507
 1591TIP3    H1 4716   0.293   3.724   1.584
 1591TIP3    H2 4717   0.291   3.773   1.441
 1592TIP3   OH2 4718   7.685   4.793   3.654
 1592TIP3    H1 4719   7.764   4.740   3.655
 1592TIP3    H2 4720   7.650   4.786   3.743
 1593TIP3   OH2 4721   7.930   7.177   5.269
 1593TIP3    H1 4722   8.006   7.168   5.212
 1593TIP3    H2 4723   7.948   7.119   5.342
 1594TIP3   OH2 4724   7.771   0.653   4.537
 1594TIP3    H1 4725   7.787   0.568   4.578
 1594TIP3    H2 4726   7.682   0.676   4.563
 1595TIP3   OH2 4727   6.970   5.080   5.135
 1595TIP3    H1 4728   6.924   5.139   5.076
 1595TIP3    H2 4729   7.028   5.137   5.186
 1596TIP3   OH2 4730   7.865   2.555   2.225
 1596TIP3    H1 4731   7.958   2.533   2.224
 1596TIP3    H2 4732   7.822   2.477   2.259
 1597TIP3   OH2 4733   7.788   5.416   4.019
 1597TIP3    H1 4734   7.853   5.373   4.074
 1597TIP3    H2 4735   7.727   5.456   4.081
 1598TIP3   OH2 4736   7.939   6.571   2.727
 1598TIP3    H1 4737   7.998   6.606   2.794
 1598TIP3    H2 4738   7.960   6.621   2.648
 1599TIP3   OH2 4739   4.498   0.170   1.996
 1599TIP3    H1 4740   4.448   0.204   1.922
 1599TIP3    H2 4741   4.444   0.099   2.031
 1600TIP3   OH2 4742   3.771   7.364   3.301
 1600TIP3    H1 4743   3.730   7.346   3.386
 1600TIP3    H2 4744   3.811   7.451   3.312
 1601TIP3   OH2 4745   3.725   4.517   5.894
 1601TIP3    H1 4746   3.685   4.575   5.830
 1601TIP3    H2 4747   3.742   4.573   5.970
 1602TIP3   OH2 4748   3.617   4.265   6.414
 1602TIP3    H1 4749   3.705   4.249   6.448
 1602TIP3    H2 4750   3.585   4.178   6.389
 1603TIP3   OH2 4751   4.020   0.824   0.968
 1603TIP3    H1 4752   4.024   0.750   0.908
 1603TIP3    H2 4753   4.099   0.815   1.022
 1604TIP3   OH2 4754   7.064   6.093   2.740
 1604TIP3    H1 4755   7.120   6.017   2.755
 1604TIP3    H2 4756   6.987   6.057   2.695
 1605TIP3   OH2 4757   2.174   4.218   4.291
 1605TIP3    H1 4758   2.089   4.260   4.299
 1605TIP3    H2 4759   2.154   4.129   4.261
 1606TIP3   OH2 4760   2.170   6.051   2.843
 1606TIP3    H1 4761   2.143   6.136   2.876
 1606TIP3    H2 4762   2.220   6.071   2.764
 1607TIP3   OH2 4763   5.399   7.477   0.892
 1607TIP3    H1 4764   5.315   7.445   0.858
 1607TIP3    H2 4765   5.375   7.541   0.960
 1608TIP3   OH2 4766   7.090   0.743   1.384
 1608TIP3    H1 4767   6.995   0.749   1.385
 1608TIP3    H2 4768   7.120   0.832   1.405
 1609TIP3   OH2 4769   2.717   5.817   3.241
 1609TIP3    H1 4770   2.676   5.761   3.174
 1609TIP3    H2 4771   2.649   5.827   3.308
 1610TIP3   OH2 4772   3.246   3.137   4.478
 1610TIP3    H1 4773   3.185   3.190   4.529
 1610TIP3    H2 4774   3.332   3.169   4.503
 1611TIP3   OH2 4775   8.224   3.558   3.952
 1611TIP3    H1 4776   8.248   3.489   4.014
 1611TIP3    H2 4777   8.238   3.639   4.001
 1612TIP3   OH2 4778   0.029   6.483   5.768
 1612TIP3    H1 4779  -0.028   6.455   5.696
 1612TIP3    H2 4780   0.117   6.486   5.730
 1613TIP3   OH2 4781   2.356   0.745   0.674
 1613TIP3    H1 4782   2.430   0.801   0.650
 1613TIP3    H2 4783   2.362   0.670   0.614
 1614TIP3   OH2 4784   7.860   4.405   0.425
 1614TIP3    H1 4785   7.797   4.388   0.496
 1614TIP3    H2 4786   7.902   4.321   0.408
 1615TIP3   OH2 4787   5.804   1.365   1.439
 1615TIP3    H1 4788   5.884   1.389   1.486
 1615TIP3    H2 4789   5.811   1.409   1.354
 1616TIP3   OH2 4790   4.072   0.107   4.094
 1616TIP3    H1 4791   4.015   0.170   4.051
 1616TIP3    H2 4792   4.144   0.160   4.129
 1617TIP3   OH2 4793   6.831   3.428   0.596
 1617TIP3    H1 4794   6.765   3.404   0.661
 1617TIP3    H2 4795   6.825   3.523   0.589
 1618TIP3   OH2 4796   7.463   2.281   1.933
 1618TIP3    H1 4797   7.439   2.308   1.845
 1618TIP3    H2 4798   7.379   2.275   1.980
 1619TIP3   OH2 4799   6.676   6.156   4.650
 1619TIP3    H1 4800   6.652   6.069   4.619
 1619TIP3    H2 4801   6.638   6.216   4.586
 1620TIP3   OH2 4802   1.705   4.623   1.902
 1620TIP3    H1 4803   1.638   4.566   1.863
 1620TIP3    H2 4804   1.671   4.644   1.989
 1621TIP3   OH2 4805   7.409   4.582   5.470
 1621TIP3    H1 4806   7.395   4.505   5.524
 1621TIP3    H2 4807   7.414   4.655   5.532
 1622TIP3   OH2 4808   0.181   3.037   3.011
 1622TIP3    H1 4809   0.136   2.958   3.041
 1622TIP3    H2 4810   0.123   3.109   3.034
 1623TIP3   OH2 4811   7.492   2.755   5.669
 1623TIP3    H1 4812   7.517   2.792   5.584
 1623TIP3    H2 4813   7.531   2.668   5.669
 1624TIP3   OH2 4814   7.842   2.040   3.968
 1624TIP3    H1 4815   7.930   2.077   3.980
 1624TIP3    H2 4816   7.857   1.958   3.920
 1625TIP3   OH2 4817   5.380   4.279   6.324
 1625TIP3    H1 4818   5.312   4.280   6.391
 1625TIP3    H2 4819   5.443   4.214   6.355
 1626TIP3   OH2 4820   1.129   6.202   4.620
 1626TIP3    H1 4821   1.213   6.157   4.632
 1626TIP3    H2 4822   1.153   6.295   4.614
 1627TIP3   OH2 4823   5.002   1.266   4.834
 1627TIP3    H1 4824   4.954   1.347   4.849
 1627TIP3    H2 4825   4.955   1.224   4.762
 1628TIP3   OH2 4826   1.520   2.399   4.347
 1628TIP3    H1 4827   1.451   2.442   4.398
 1628TIP3    H2 4828   1.519   2.308   4.376
 1629TIP3   OH2 4829   1.815   2.841   3.080
 1629TIP3    H1 4830   1.789   2.923   3.039
 1629TIP3    H2 4831   1.847   2.787   3.008
 1630TIP3   OH2 4832   4.864   3.419   0.230
 1630TIP3    H1 4833   4.895   3.330   0.213
 1630TIP3    H2 4834   4.829   3.449   0.146
 1631TIP3   OH2 4835   1.146   1.221   1.108
 1631TIP3    H1 4836   1.114   1.295   1.057
 1631TIP3    H2 4837   1.219   1.256   1.159
 1632TIP3   OH2 4838   3.380   5.840   5.741
 1632TIP3    H1 4839   3.461   5.835   5.791
 1632TIP3    H2 4840   3.354   5.748   5.731
 1633TIP3   OH2 4841   1.588   4.128   6.672
 1633TIP3    H1 4842   1.524   4.193   6.642
 1633TIP3    H2 4843   1.551   4.094   6.753
 1634TIP3   OH2 4844   7.853   7.558   2.769
 1634TIP3    H1 4845   7.876   7.589   2.681
 1634TIP3    H2 4846   7.761   7.578   2.779
 1635TIP3   OH2 4847   4.608   2.465   0.256
 1635TIP3    H1 4848   4.661   2.508   0.189
 1635TIP3    H2 4849   4.538   2.527   0.275
 1636TIP3   OH2 4850   2.377   2.268   4.031
 1636TIP3    H1 4851   2.373   2.187   4.082
 1636TIP3    H2 4852   2.286   2.292   4.017
 1637TIP3   OH2 4853   3.168   5.788   5.225
 1637TIP3    H1 4854   3.163   5.858   5.160
 1637TIP3    H2 4855   3.104   5.812   5.292
 1638TIP3   OH2 4856   2.422   4.055   1.673
 1638TIP3    H1 4857   2.420   4.097   1.759
 1638TIP3    H2 4858   2.335   4.014   1.665
 1639TIP3   OH2 4859   6.880   4.573   6.630
 1639TIP3    H1 4860   6.804   4.561   6.687
 1639TIP3    H2 4861   6.847   4.621   6.555
 1640TIP3   OH2 4862   7.117   3.109   4.847
 1640TIP3    H1 4863   7.206   3.144   4.848
 1640TIP3    H2 4864   7.111   3.064   4.762
 1641TIP3   OH2 4865   3.152   1.280   4.934
 1641TIP3    H1 4866   3.220   1.337   4.898
 1641TIP3    H2 4867   3.120   1.327   5.010
 1642TIP3   OH2 4868   8.198   0.065   6.215
 1642TIP3    H1 4869   8.227   0.155   6.231
 1642TIP3    H2 4870   8.195   0.025   6.302
 1643TIP3   OH2 4871   3.770   5.397   3.247
 1643TIP3    H1 4872   3.680   5.419   3.270
 1643TIP3    H2 4873   3.816   5.481   3.245
 1644TIP3   OH2 4874   5.070   5.839   4.114
 1644TIP3    H1 4875   5.156   5.846   4.073
 1644TIP3    H2 4876   5.008   5.856   4.044
 1645TIP3   OH2 4877   2.861   1.943   4.359
 1645TIP3    H1 4878   2.848   1.913   4.269
 1645TIP3    H2 4879   2.772   1.949   4.394
 1646TIP3   OH2 4880   6.485   0.962   3.512
 1646TIP3    H1 4881   6.533   0.897   3.563
 1646TIP3    H2 4882   6.483   0.926   3.424
 1647TIP3   OH2 4883   7.891   1.383   1.689
 1647TIP3    H1 4884   7.921   1.367   1.778
 1647TIP3    H2 4885   7.836   1.462   1.695
 1648TIP3   OH2 4886   8.174   7.493   3.303
 1648TIP3    H1 4887   8.198   7.431   3.235
 1648TIP3    H2 4888   8.145   7.571   3.256
 1649TIP3   OH2 4889   6.952   3.148   1.478
 1649TIP3    H1 4890   7.029   3.115   1.524
 1649TIP3    H2 4891   6.880   3.139   1.541
 1650TIP3   OH2 4892   5.357   1.743   0.638
 1650TIP3    H1 4893   5.413   1.666   0.642
 1650TIP3    H2 4894   5.416   1.816   0.657
 1651TIP3   OH2 4895   5.321   7.425   3.024
 1651TIP3    H1 4896   5.243   7.479   3.038
 1651TIP3    H2 4897   5.295   7.338   3.055
 1652TIP3   OH2 4898   0.567   4.690   5.256
 1652TIP3    H1 4899   0.482   4.650   5.238
 1652TIP3    H2 4900   0.628   4.644   5.198
 1653TIP3   OH2 4901   7.809   4.463   2.440
 1653TIP3    H1 4902   7.829   4.552   2.470
 1653TIP3    H2 4903   7.727   4.442   2.484
 1654TIP3   OH2 4904   4.701   5.552   5.525
 1654TIP3    H1 4905   4.756   5.474   5.529
 1654TIP3    H2 4906   4.663   5.558   5.613
 1655TIP3   OH2 4907   8.229   5.093   4.695
 1655TIP3    H1 4908   8.143   5.125   4.722
 1655TIP3    H2 4909   8.230   5.104   4.600
 1656TIP3   OH2 4910   6.029   4.146   1.740
 1656TIP3    H1 4911   5.936   4.125   1.748
 1656TIP3    H2 4912   6.040   4.226   1.791
 1657TIP3   OH2 4913   3.440   3.619   1.565
 1657TIP3    H1 4914   3.360   3.646   1.611
 1657TIP3    H2 4915   3.501   3.594   1.635
 1658TIP3   OH2 4916   8.080   7.354   6.369
 1658TIP3    H1 4917   8.063   7.400   6.451
 1658TIP3    H2 4918   8.144   7.408   6.323
 1659TIP3   OH2 4919   0.146   4.489   4.989
 1659TIP3    H1 4920   0.177   4.406   4.955
 1659TIP3    H2 4921   0.065   4.468   5.036
 1660TIP3   OH2 4922   8.079   4.529   2.325
 1660TIP3    H1 4923   8.171   4.550   2.341
 1660TIP3    H2 4924   8.060   4.456   2.384
 1661TIP3   OH2 4925   2.341   1.220   4.322
 1661TIP3    H1 4926   2.423   1.264   4.346
 1661TIP3    H2 4927   2.350   1.202   4.228
 1662TIP3   OH2 4928   7.136   5.658   1.562
 1662TIP3    H1 4929   7.089   5.595   1.616
 1662TIP3    H2 4930   7.087   5.740   1.571
 1663TIP3   OH2 4931   4.328   3.931   5.493
 1663TIP3    H1 4932   4.365   3.870   5.557
 1663TIP3    H2 4933   4.236   3.938   5.517
 1664TIP3   OH2 4934   1.785   3.805   6.349
 1664TIP3    H1 4935   1.773   3.900   6.341
 1664TIP3    H2 4936   1.850   3.783   6.282
 1665TIP3   OH2 4937   8.151   2.681   4.225
 1665TIP3    H1 4938   8.086   2.719   4.284
 1665TIP3    H2 4939   8.216   2.750   4.212
 1666TIP3   OH2 4940   1.836   5.249   0.945
 1666TIP3    H1 4941   1.899   5.193   0.901
 1666TIP3    H2 4942   1.887   5.326   0.971
 1667TIP3   OH2 4943   6.071   2.177   6.185
 1667TIP3    H1 4944   6.148   2.233   6.194
 1667TIP3    H2 4945   6.011   2.207   6.253
 1668TIP3   OH2 4946   6.504   0.791   3.763
 1668TIP3    H1 4947   6.450   0.837   3.827
 1668TIP3    H2 4948   6.442   0.737   3.713
 1669TIP3   OH2 4949   1.475   6.065   5.895
 1669TIP3    H1 4950   1.527   6.023   5.827
 1669TIP3    H2 4951   1.539   6.107   5.952
 1670TIP3   OH2 4952   6.681   6.865   1.918
 1670TIP3    H1 4953   6.605   6.812   1.896
 1670TIP3    H2 4954   6.661   6.951   1.881
 1671TIP3   OH2 4955   2.161   7.323   3.979
 1671TIP3    H1 4956   2.100   7.395   3.998
 1671TIP3    H2 4957   2.241   7.367   3.950
 1672TIP3   OH2 4958   6.628   2.427   5.376
 1672TIP3    H1 4959   6.609   2.428   5.470
 1672TIP3    H2 4960   6.554   2.472   5.336
 1673TIP3   OH2 4961   0.843   0.031   5.319
 1673TIP3    H1 4962   0.799  -0.001   5.398
 1673TIP3    H2 4963   0.825   0.125   5.318
 1674TIP3   OH2 4964   4.666   4.086   3.304
 1674TIP3    H1 4965   4.726   4.071   3.376
 1674TIP3    H2 4966   4.620   4.003   3.293
 1675TIP3   OH2 4967   2.218   5.823   5.220
 1675TIP3    H1 4968   2.306   5.814   5.258
 1675TIP3    H2 4969   2.183   5.734   5.221
 1676TIP3   OH2 4970   7.989   3.898   1.503
 1676TIP3    H1 4971   8.005   3.874   1.595
 1676TIP3    H2 4972   8.035   3.981   1.492
 1677TIP3   OH2 4973   6.268   3.764   0.106
 1677TIP3    H1 4974   6.274   3.672   0.082
 1677TIP3    H2 4975   6.189   3.770   0.160
 1678TIP3   OH2 4976   2.136   1.421   2.717
 1678TIP3    H1 4977   2.044   1.446   2.725
 1678TIP3    H2 4978   2.175   1.492   2.666
 1679TIP3   OH2 4979   2.848   6.096   5.078
 1679TIP3    H1 4980   2.817   6.005   5.080
 1679TIP3    H2 4981   2.854   6.118   4.986
 1680TIP3   OH2 4982   3.455   2.297   5.094
 1680TIP3    H1 4983   3.412   2.279   5.177
 1680TIP3    H2 4984   3.468   2.392   5.094
 1681TIP3   OH2 4985   5.206   4.932   6.734
 1681TIP3    H1 4986   5.177   4.874   6.664
 1681TIP3    H2 4987   5.136   4.926   6.800
 1682TIP3   OH2 4988   5.344   5.897   6.117
 1682TIP3    H1 4989   5.438   5.908   6.105
 1682TIP3    H2 4990   5.330   5.802   6.113
 1683TIP3   OH2 4991   1.474   4.616   1.327
 1683TIP3    H1 4992   1.503   4.653   1.243
 1683TIP3    H2 4993   1.505   4.526   1.326
 1684TIP3   OH2 4994   1.321   0.293   1.439
 1684TIP3    H1 4995   1.343   0.215   1.489
 1684TIP3    H2 4996   1.305   0.261   1.350
 1685TIP3   OH2 4997   7.667   6.025   0.378
 1685TIP3    H1 4998   7.680   5.956   0.313
 1685TIP3    H2 4999   7.641   6.101   0.325
 1686TIP3   OH2 5000   3.883   7.602   4.786
 1686TIP3    H1 5001   3.948   7.535   4.810
 1686TIP3    H2 5002   3.932   7.664   4.732
 1687TIP3   OH2 5003   5.188   0.067   3.127
 1687TIP3    H1 5004   5.260   0.069   3.189
 1687TIP3    H2 5005   5.206  -0.009   3.071
 1688TIP3   OH2 5006   0.515   6.281   0.449
 1688TIP3    H1 5007   0.556   6.262   0.364
 1688TIP3    H2 5008   0.439   6.223   0.452
 1689TIP3   OH2 5009   1.726   4.637   5.901
 1689TIP3    H1 5010   1.791   4.609   5.837
 1689TIP3    H2 5011   1.699   4.556   5.944
 1690TIP3   OH2 5012   6.376   2.136   0.438
 1690TIP3    H1 5013   6.455   2.113   0.389
 1690TIP3    H2 5014   6.307   2.138   0.372
 1691TIP3   OH2 5015   0.919   0.154   1.838
 1691TIP3    H1 5016   0.919   0.241   1.797
 1691TIP3    H2 5017   1.004   0.147   1.880
 1692TIP3   OH2 5018   2.507   1.825   5.713
 1692TIP3    H1 5019   2.416   1.842   5.734
 1692TIP3    H2 5020   2.526   1.885   5.640
 1693TIP3   OH2 5021   2.925   7.132   4.975
 1693TIP3    H1 5022   2.933   7.037   4.976
 1693TIP3    H2 5023   2.859   7.152   5.041
 1694TIP3   OH2 5024   3.680   3.892   2.205
 1694TIP3    H1 5025   3.736   3.912   2.280
 1694TIP3    H2 5026   3.735   3.837   2.149
 1695TIP3   OH2 5027   5.967   1.979   1.183
 1695TIP3    H1 5028   5.913   2.056   1.200
 1695TIP3    H2 5029   5.963   1.927   1.264
 1696TIP3   OH2 5030   4.410   4.270   3.067
 1696TIP3    H1 5031   4.359   4.265   3.148
 1696TIP3    H2 5032   4.409   4.181   3.032
 1697TIP3   OH2 5033   3.143   1.309   6.650
 1697TIP3    H1 5034   3.221   1.272   6.609
 1697TIP3    H2 5035   3.095   1.349   6.577
 1698TIP3   OH2 5036   7.492   0.716   1.896
 1698TIP3    H1 5037   7.512   0.770   1.972
 1698TIP3    H2 5038   7.396   0.710   1.895
 1699TIP3   OH2 5039   5.172   6.749   2.448
 1699TIP3    H1 5040   5.268   6.747   2.448
 1699TIP3    H2 5041   5.147   6.696   2.524
 1700TIP3   OH2 5042   0.609   4.138   2.554
 1700TIP3    H1 5043   0.558   4.196   2.610
 1700TIP3    H2 5044   0.627   4.191   2.476
 1701TIP3   OH2 5045   7.974   4.584   6.053
 1701TIP3    H1 5046   7.992   4.490   6.047
 1701TIP3    H2 5047   7.919   4.603   5.976
 1702TIP3   OH2 5048   7.517   1.127   3.532
 1702TIP3    H1 5049   7.463   1.049   3.519
 1702TIP3    H2 5050   7.465   1.183   3.590
 1703TIP3   OH2 5051   2.001   6.493   3.091
 1703TIP3    H1 5052   1.978   6.586   3.088
 1703TIP3    H2 5053   1.968   6.463   3.175
 1704TIP3   OH2 5054   4.137   1.116   0.004
 1704TIP3    H1 5055   4.187   1.197   0.003
 1704TIP3    H2 5056   4.045   1.144   0.004
 1705TIP3   OH2 5057   1.513   6.278   3.554
 1705TIP3    H1 5058   1.488   6.339   3.623
 1705TIP3    H2 5059   1.510   6.330   3.473
 1706TIP3   OH2 5060   8.104   7.780   0.072
 1706TIP3    H1 5061   8.160   7.766  -0.005
 1706TIP3    H2 5062   8.064   7.865   0.057
 1707TIP3   OH2 5063   1.232   5.719   0.106
 1707TIP3    H1 5064   1.236   5.700   0.200
 1707TIP3    H2 5065   1.140   5.706   0.082
 1708TIP3   OH2 5066   7.677   3.425   3.627
 1708TIP3    H1 5067   7.759   3.379   3.608
 1708TIP3    H2 5068   7.698   3.483   3.700
 1709TIP3   OH2 5069   7.067   5.718   5.597
 1709TIP3    H1 5070   7.072   5.803   5.555
 1709TIP3    H2 5071   6.994   5.673   5.553
 1710TIP3   OH2 5072   2.859   4.486   3.753
 1710TIP3    H1 5073   2.922   4.483   3.825
 1710TIP3    H2 5074   2.811   4.403   3.760
 1711TIP3   OH2 5075   4.175   7.383   3.191
 1711TIP3    H1 5076   4.168   7.415   3.281
 1711TIP3    H2 5077   4.105   7.317   3.184
 1712TIP3   OH2 5078   1.513   5.116   1.099
 1712TIP3    H1 5079   1.532   5.210   1.087
 1712TIP3    H2 5080   1.590   5.081   1.142
 1713TIP3   OH2 5081   2.469   1.290   4.971
 1713TIP3    H1 5082   2.474   1.217   4.910
 1713TIP3    H2 5083   2.434   1.252   5.051
 1714TIP3   OH2 5084   6.553   1.619   2.293
 1714TIP3    H1 5085   6.476   1.664   2.328
 1714TIP3    H2 5086   6.520   1.571   2.217
 1715TIP3   OH2 5087   4.161   2.396   0.855
 1715TIP3    H1 5088   4.122   2.384   0.768
 1715TIP3    H2 5089   4.215   2.318   0.867
 1716TIP3   OH2 5090   2.876   6.596   6.127
 1716TIP3    H1 5091   2.935   6.672   6.121
 1716TIP3    H2 5092   2.915   6.532   6.067
 1717TIP3   OH2 5093   3.008   4.615   4.497
 1717TIP3    H1 5094   2.972   4.615   4.586
 1717TIP3    H2 5095   2.938   4.579   4.443
 1718TIP3   OH2 5096   5.376   1.949   1.980
 1718TIP3    H1 5097   5.398   2.017   2.044
 1718TIP3    H2 5098   5.457   1.934   1.932
 1719TIP3   OH2 5099   4.749   5.406   1.772
 1719TIP3    H1 5100   4.670   5.430   1.722
 1719TIP3    H2 5101   4.720   5.334   1.828
 1720TIP3   OH2 5102   7.727   6.640   3.119
 1720TIP3    H1 5103   7.762   6.564   3.165
 1720TIP3    H2 5104   7.683   6.691   3.187
 1721TIP3   OH2 5105   4.914   6.697   0.260
 1721TIP3    H1 5106   4.999   6.691   0.305
 1721TIP3    H2 5107   4.937   6.703   0.167
 1722TIP3   OH2 5108   3.184   3.366   6.676
 1722TIP3    H1 5109   3.279   3.376   6.665
 1722TIP3    H2 5110   3.155   3.323   6.596
 1723TIP3   OH2 5111   5.567   6.104   3.422
 1723TIP3    H1 5112   5.577   6.021   3.376
 1723TIP3    H2 5113   5.606   6.089   3.508
 1724TIP3   OH2 5114   0.918   3.737   1.605
 1724TIP3    H1 5115   0.892   3.778   1.523
 1724TIP3    H2 5116   0.964   3.805   1.653
 1725TIP3   OH2 5117   3.417   7.596   2.975
 1725TIP3    H1 5118   3.393   7.510   3.009
 1725TIP3    H2 5119   3.385   7.658   3.040
 1726TIP3   OH2 5120   4.510   7.307   5.260
 1726TIP3    H1 5121   4.478   7.245   5.326
 1726TIP3    H2 5122   4.567   7.367   5.308
 1727TIP3   OH2 5123   2.661   4.258   1.333
 1727TIP3    H1 5124   2.648   4.189   1.398
 1727TIP3    H2 5125   2.636   4.218   1.250
 1728TIP3   OH2 5126   0.558   0.756   5.714
 1728TIP3    H1 5127   0.518   0.716   5.792
 1728TIP3    H2 5128   0.608   0.829   5.749
 1729TIP3   OH2 5129   6.561   1.570   1.808
 1729TIP3    H1 5130   6.470   1.576   1.778
 1729TIP3    H2 5131   6.578   1.476   1.811
 1730TIP3   OH2 5132   5.323   0.303   3.849
 1730TIP3    H1 5133   5.271   0.381   3.863
 1730TIP3    H2 5134   5.338   0.300   3.755
 1731TIP3   OH2 5135   2.930   2.251   4.237
 1731TIP3    H1 5136   3.005   2.310   4.224
 1731TIP3    H2 5137   2.928   2.197   4.158
 1732TIP3   OH2 5138   0.383   4.861   4.957
 1732TIP3    H1 5139   0.331   4.842   5.035
 1732TIP3    H2 5140   0.363   4.789   4.896
 1733TIP3   OH2 5141   0.404   2.777   1.015
 1733TIP3    H1 5142   0.450   2.694   1.001
 1733TIP3    H2 5143   0.463   2.829   1.068
 1734TIP3   OH2 5144   1.021   6.612   6.511
 1734TIP3    H1 5145   1.014   6.518   6.528
 1734TIP3    H2 5146   0.940   6.648   6.547
 1735TIP3   OH2 5147   6.157   7.154   3.186
 1735TIP3    H1 5148   6.188   7.195   3.105
 1735TIP3    H2 5149   6.229   7.098   3.214
 1736TIP3   OH2 5150   2.839   1.667   3.867
 1736TIP3    H1 5151   2.864   1.744   3.918
 1736TIP3    H2 5152   2.862   1.593   3.924
 1737TIP3   OH2 5153   6.516   3.909   2.321
 1737TIP3    H1 5154   6.538   3.998   2.294
 1737TIP3    H2 5155   6.582   3.854   2.280
 1738TIP3   OH2 5156   1.259   2.179   3.311
 1738TIP3    H1 5157   1.306   2.133   3.241
 1738TIP3    H2 5158   1.290   2.139   3.392
 1739TIP3   OH2 5159   3.032   7.230   1.027
 1739TIP3    H1 5160   2.991   7.146   1.047
 1739TIP3    H2 5161   2.963   7.280   0.984
 1740TIP3   OH2 5162   6.592   4.825   0.625
 1740TIP3    H1 5163   6.610   4.753   0.565
 1740TIP3    H2 5164   6.603   4.788   0.712
 1741TIP3   OH2 5165   7.597   7.694   2.470
 1741TIP3    H1 5166   7.636   7.607   2.457
 1741TIP3    H2 5167   7.560   7.691   2.558
 1742TIP3   OH2 5168   4.725   0.953   6.173
 1742TIP3    H1 5169   4.799   0.953   6.234
 1742TIP3    H2 5170   4.763   0.983   6.090
 1743TIP3   OH2 5171   2.788   7.546   0.294
 1743TIP3    H1 5172   2.846   7.540   0.370
 1743TIP3    H2 5173   2.846   7.552   0.219
 1744TIP3   OH2 5174   7.294   1.529   5.489
 1744TIP3    H1 5175   7.262   1.535   5.399
 1744TIP3    H2 5176   7.225   1.569   5.542
 1745TIP3   OH2 5177   3.648   6.581   5.114
 1745TIP3    H1 5178   3.701   6.641   5.062
 1745TIP3    H2 5179   3.599   6.637   5.174
 1746TIP3   OH2 5180   2.777   2.138   6.637
 1746TIP3    H1 5181   2.705   2.080   6.612
 1746TIP3    H2 5182   2.822   2.157   6.555
 1747TIP3   OH2 5183   2.105   1.551   1.148
 1747TIP3    H1 5184   2.052   1.538   1.227
 1747TIP3    H2 5185   2.059   1.504   1.079
 1748TIP3   OH2 5186   4.508   0.324   2.215
 1748TIP3    H1 5187   4.464   0.272   2.282
 1748TIP3    H2 5188   4.511   0.266   2.138
 1749TIP3   OH2 5189   3.603   6.287   3.261
 1749TIP3    H1 5190   3.653   6.298   3.180
 1749TIP3    H2 5191   3.636   6.204   3.297
 1750TIP3   OH2 5192   5.690   2.750   3.531
 1750TIP3    H1 5193   5.646   2.733   3.447
 1750TIP3    H2 5194   5.749   2.823   3.513
 1751TIP3   OH2 5195   4.390   1.289   4.493
 1751TIP3    H1 5196   4.336   1.278   4.571
 1751TIP3    H2 5197   4.363   1.373   4.457
 1752TIP3   OH2 5198   3.775   1.117   3.284
 1752TIP3    H1 5199   3.681   1.125   3.269
 1752TIP3    H2 5200   3.787   1.141   3.376
 1753TIP3   OH2 5201   7.946   4.885   2.324
 1753TIP3    H1 5202   8.000   4.850   2.253
 1753TIP3    H2 5203   7.991   4.965   2.352
 1754TIP3   OH2 5204   7.895   6.624   2.240
 1754TIP3    H1 5205   7.927   6.541   2.206
 1754TIP3    H2 5206   7.801   6.610   2.252
 1755TIP3   OH2 5207   0.451   1.425   4.226
 1755TIP3    H1 5208   0.410   1.383   4.151
 1755TIP3    H2 5209   0.449   1.519   4.207
 1756TIP3   OH2 5210   0.028   0.246   4.718
 1756TIP3    H1 5211  -0.007   0.331   4.691
 1756TIP3    H2 5212  -0.038   0.210   4.777
 1757TIP3   OH2 5213   0.571   3.642   1.213
 1757TIP3    H1 5214   0.563   3.736   1.228
 1757TIP3    H2 5215   0.509   3.603   1.274
 1758TIP3   OH2 5216   8.201   5.841   6.412
 1758TIP3    H1 5217   8.213   5.905   6.342
 1758TIP3    H2 5218   8.264   5.772   6.392
 1759TIP3   OH2 5219   2.479   6.378   0.688
 1759TIP3    H1 5220   2.495   6.354   0.597
 1759TIP3    H2 5221   2.553   6.341   0.736
 1760TIP3   OH2 5222   5.102   3.135   5.740
 1760TIP3    H1 5223   5.123   3.178   5.823
 1760TIP3    H2 5224   5.185   3.096   5.711
 1761TIP3   OH2 5225   5.412   0.234   5.461
 1761TIP3    H1 5226   5.411   0.318   5.415
 1761TIP3    H2 5227   5.465   0.250   5.539
 1762TIP3   OH2 5228   5.224   7.113   2.302
 1762TIP3    H1 5229   5.231   7.090   2.210
 1762TIP3    H2 5230   5.175   7.040   2.341
 1763TIP3   OH2 5231   4.742   2.422   5.835
 1763TIP3    H1 5232   4.728   2.517   5.837
 1763TIP3    H2 5233   4.690   2.389   5.908
 1764TIP3   OH2 5234   3.464   3.496   3.944
 1764TIP3    H1 5235   3.547   3.510   3.897
 1764TIP3    H2 5236   3.432   3.412   3.911
 1765TIP3   OH2 5237   7.135   4.682   1.998
 1765TIP3    H1 5238   7.172   4.758   1.953
 1765TIP3    H2 5239   7.047   4.710   2.024
 1766TIP3   OH2 5240   6.179   5.674   2.933
 1766TIP3    H1 5241   6.243   5.738   2.963
 1766TIP3    H2 5242   6.200   5.661   2.840
 1767TIP3   OH2 5243   3.412   0.792   6.139
 1767TIP3    H1 5244   3.496   0.811   6.096
 1767TIP3    H2 5245   3.399   0.866   6.198
 1768TIP3   OH2 5246   6.880   6.123   3.803
 1768TIP3    H1 5247   6.857   6.212   3.775
 1768TIP3    H2 5248   6.808   6.096   3.860
 1769TIP3   OH2 5249   8.173   4.241   5.486
 1769TIP3    H1 5250   8.207   4.321   5.526
 1769TIP3    H2 5251   8.135   4.192   5.559
 1770TIP3   OH2 5252   5.323   3.544   2.344
 1770TIP3    H1 5253   5.246   3.509   2.391
 1770TIP3    H2 5254   5.305   3.526   2.252
 1771TIP3   OH2 5255   3.631   4.618   1.187
 1771TIP3    H1 5256   3.546   4.663   1.186
 1771TIP3    H2 5257   3.680   4.660   1.117
 1772TIP3   OH2 5258   4.476   3.329   1.201
 1772TIP3    H1 5259   4.472   3.316   1.296
 1772TIP3    H2 5260   4.535   3.260   1.170
 1773TIP3   OH2 5261   8.158   4.427   2.703
 1773TIP3    H1 5262   8.128   4.517   2.693
 1773TIP3    H2 5263   8.144   4.388   2.616
 1774TIP3   OH2 5264   6.630   5.795   0.095
 1774TIP3    H1 5265   6.621   5.888   0.072
 1774TIP3    H2 5266   6.541   5.766   0.112
 1775TIP3   OH2 5267   0.093   3.752   4.589
 1775TIP3    H1 5268   0.013   3.794   4.559
 1775TIP3    H2 5269   0.107   3.679   4.529
 1776TIP3   OH2 5270   2.439   6.914   3.808
 1776TIP3    H1 5271   2.384   6.856   3.755
 1776TIP3    H2 5272   2.377   6.968   3.856
 1777TIP3   OH2 5273   2.392   0.962   6.035
 1777TIP3    H1 5274   2.316   1.020   6.036
 1777TIP3    H2 5275   2.355   0.874   6.022
 1778TIP3   OH2 5276   6.292   1.407   3.953
 1778TIP3    H1 5277   6.221   1.397   3.890
 1778TIP3    H2 5278   6.350   1.332   3.936
 1779TIP3   OH2 5279   6.072   5.404   6.349
 1779TIP3    H1 5280   6.075   5.460   6.272
 1779TIP3    H2 5281   6.160   5.411   6.387
 1780TIP3   OH2 5282   3.419   0.563   5.151
 1780TIP3    H1 5283   3.412   0.644   5.201
 1780TIP3    H2 5284   3.513   0.545   5.146
 1781TIP3   OH2 5285   6.695   1.292   4.191
 1781TIP3    H1 5286   6.665   1.315   4.279
 1781TIP3    H2 5287   6.770   1.234   4.205
 1782TIP3   OH2 5288   1.111   4.631   5.771
 1782TIP3    H1 5289   1.144   4.719   5.751
 1782TIP3    H2 5290   1.144   4.612   5.859
 1783TIP3   OH2 5291   1.478   0.029   5.797
 1783TIP3    H1 5292   1.419   0.025   5.722
 1783TIP3    H2 5293   1.423   0.060   5.869
 1784TIP3   OH2 5294   0.953   3.123   2.603
 1784TIP3    H1 5295   0.945   3.192   2.670
 1784TIP3    H2 5296   1.041   3.133   2.568
 1785TIP3   OH2 5297   4.755   1.243   6.402
 1785TIP3    H1 5298   4.805   1.307   6.452
 1785TIP3    H2 5299   4.821   1.182   6.369
 1786TIP3   OH2 5300   5.475   3.786   1.546
 1786TIP3    H1 5301   5.463   3.866   1.598
 1786TIP3    H2 5302   5.397   3.782   1.490
 1787TIP3   OH2 5303   7.455   3.425   4.755
 1787TIP3    H1 5304   7.506   3.419   4.836
 1787TIP3    H2 5305   7.378   3.477   4.778
 1788TIP3   OH2 5306   7.641   2.068   4.927
 1788TIP3    H1 5307   7.720   2.022   4.956
 1788TIP3    H2 5308   7.646   2.065   4.831
 1789TIP3   OH2 5309   7.670   3.337   0.630
 1789TIP3    H1 5310   7.684   3.431   0.632
 1789TIP3    H2 5311   7.699   3.310   0.543
 1790TIP3   OH2 5312   2.686   5.755   6.116
 1790TIP3    H1 5313   2.658   5.845   6.132
 1790TIP3    H2 5314   2.607   5.711   6.084
 1791TIP3   OH2 5315   1.111   7.301   1.058
 1791TIP3    H1 5316   1.168   7.368   1.021
 1791TIP3    H2 5317   1.155   7.218   1.039
 1792TIP3   OH2 5318   5.612   2.252   1.995
 1792TIP3    H1 5319   5.572   2.273   1.911
 1792TIP3    H2 5320   5.706   2.263   1.980
 1793TIP3   OH2 5321   3.816   6.897   4.693
 1793TIP3    H1 5322   3.898   6.917   4.739
 1793TIP3    H2 5323   3.843   6.852   4.613
 1794TIP3   OH2 5324   0.040   2.333   4.003
 1794TIP3    H1 5325   0.013   2.425   4.006
 1794TIP3    H2 5326   0.107   2.326   4.071
 1795TIP3   OH2 5327   0.099   7.028   0.970
 1795TIP3    H1 5328   0.160   7.098   0.991
 1795TIP3    H2 5329   0.107   6.966   1.043
 1796TIP3   OH2 5330   2.475   2.434   4.938
 1796TIP3    H1 5331   2.433   2.348   4.950
 1796TIP3    H2 5332   2.517   2.428   4.852
 1797TIP3   OH2 5333   7.890   6.337   2.860
 1797TIP3    H1 5334   7.897   6.423   2.818
 1797TIP3    H2 5335   7.796   6.325   2.874
 1798TIP3   OH2 5336   7.629   7.365   1.543
 1798TIP3    H1 5337   7.564   7.320   1.597
 1798TIP3    H2 5338   7.614   7.330   1.455
 1799TIP3   OH2 5339   6.433   2.828   5.969
 1799TIP3    H1 5340   6.357   2.880   5.996
 1799TIP3    H2 5341   6.508   2.885   5.985
 1800TIP3   OH2 5342   1.578   0.264   4.091
 1800TIP3    H1 5343   1.633   0.186   4.092
 1800TIP3    H2 5344   1.588   0.299   4.003
 1801TIP3   OH2 5345   2.085   6.341   6.060
 1801TIP3    H1 5346   2.129   6.329   6.144
 1801TIP3    H2 5347   2.030   6.418   6.073
 1802TIP3   OH2 5348   4.234   3.868   0.366
 1802TIP3    H1 5349   4.274   3.793   0.322
 1802TIP3    H2 5350   4.168   3.899   0.304
 1803TIP3   OH2 5351   6.396   0.420   3.550
 1803TIP3    H1 5352   6.467   0.416   3.614
 1803TIP3    H2 5353   6.316   0.422   3.603
 1804TIP3   OH2 5354   1.379   3.025   6.249
 1804TIP3    H1 5355   1.367   2.950   6.191
 1804TIP3    H2 5356   1.470   3.017   6.279
 1805TIP3   OH2 5357   7.341   1.311   5.067
 1805TIP3    H1 5358   7.347   1.221   5.034
 1805TIP3    H2 5359   7.417   1.320   5.125
 1806TIP3   OH2 5360   7.054   0.892   0.863
 1806TIP3    H1 5361   7.148   0.885   0.850
 1806TIP3    H2 5362   7.018   0.812   0.824
 1807TIP3   OH2 5363   6.499   5.509   0.840
 1807TIP3    H1 5364   6.451   5.483   0.762
 1807TIP3    H2 5365   6.432   5.525   0.906
 1808TIP3   OH2 5366   3.837   4.349   0.143
 1808TIP3    H1 5367   3.773   4.417   0.120
 1808TIP3    H2 5368   3.836   4.289   0.068
 1809TIP3   OH2 5369   0.645   4.123   4.883
 1809TIP3    H1 5370   0.610   4.118   4.972
 1809TIP3    H2 5371   0.574   4.092   4.827
 1810TIP3   OH2 5372   5.455   0.757   6.700
 1810TIP3    H1 5373   5.512   0.792   6.769
 1810TIP3    H2 5374   5.475   0.811   6.623
 1811TIP3   OH2 5375   8.235   7.147   4.224
 1811TIP3    H1 5376   8.302   7.082   4.247
 1811TIP3    H2 5377   8.170   7.097   4.175
 1812TIP3   OH2 5378   4.042   2.268   3.289
 1812TIP3    H1 5379   4.116   2.218   3.323
 1812TIP3    H2 5380   3.974   2.202   3.274
 1813TIP3   OH2 5381   1.431   5.390   3.930
 1813TIP3    H1 5382   1.449   5.309   3.883
 1813TIP3    H2 5383   1.495   5.391   4.001
 1814TIP3   OH2 5384   4.482   4.893   3.745
 1814TIP3    H1 5385   4.398   4.846   3.744
 1814TIP3    H2 5386   4.521   4.871   3.829
 1815TIP3   OH2 5387   6.763   0.688   3.654
 1815TIP3    H1 5388   6.832   0.747   3.625
 1815TIP3    H2 5389   6.753   0.625   3.583
 1816TIP3   OH2 5390   1.258   2.473   2.258
 1816TIP3    H1 5391   1.247   2.559   2.218
 1816TIP3    H2 5392   1.219   2.481   2.345
 1817TIP3   OH2 5393   3.995   4.302   5.996
 1817TIP3    H1 5394   3.907   4.326   6.023
 1817TIP3    H2 5395   4.051   4.368   6.038
 1818TIP3   OH2 5396   7.597   6.251   2.329
 1818TIP3    H1 5397   7.512   6.278   2.296
 1818TIP3    H2 5398   7.620   6.175   2.277
 1819TIP3   OH2 5399   7.161   0.059   1.126
 1819TIP3    H1 5400   7.124   0.033   1.210
 1819TIP3    H2 5401   7.240   0.107   1.149
 1820TIP3   OH2 5402   0.376   2.766   2.793
 1820TIP3    H1 5403   0.338   2.689   2.750
 1820TIP3    H2 5404   0.314   2.788   2.862
 1821TIP3   OH2 5405   8.121   3.284   0.307
 1821TIP3    H1 5406   8.183   3.349   0.275
 1821TIP3    H2 5407   8.042   3.299   0.255
 1822TIP3   OH2 5408   7.265   6.313   4.347
 1822TIP3    H1 5409   7.213   6.244   4.307
 1822TIP3    H2 5410   7.284   6.282   4.436
 1823TIP3   OH2 5411   1.899   2.608   1.065
 1823TIP3    H1 5412   1.842   2.622   1.141
 1823TIP3    H2 5413   1.948   2.529   1.087
 1824TIP3   OH2 5414   2.815   5.991   2.242
 1824TIP3    H1 5415   2.733   5.961   2.280
 1824TIP3    H2 5416   2.789   6.053   2.174
 1825TIP3   OH2 5417   3.683   2.862   4.552
 1825TIP3    H1 5418   3.626   2.922   4.599
 1825TIP3    H2 5419   3.650   2.775   4.575
 1826TIP3   OH2 5420   0.660   7.568   4.677
 1826TIP3    H1 5421   0.664   7.647   4.731
 1826TIP3    H2 5422   0.662   7.601   4.587
 1827TIP3   OH2 5423   3.205   5.431   2.659
 1827TIP3    H1 5424   3.225   5.464   2.571
 1827TIP3    H2 5425   3.153   5.501   2.700
 1828TIP3   OH2 5426   0.839   2.861   2.119
 1828TIP3    H1 5427   0.860   2.916   2.195
 1828TIP3    H2 5428   0.765   2.904   2.078
 1829TIP3   OH2 5429   3.035   1.297   3.394
 1829TIP3    H1 5430   3.123   1.321   3.363
 1829TIP3    H2 5431   3.033   1.326   3.486
 1830TIP3   OH2 5432   0.592   6.511   4.169
 1830TIP3    H1 5433   0.512   6.556   4.141
 1830TIP3    H2 5434   0.561   6.431   4.212
 1831TIP3   OH2 5435   4.659   5.729   6.227
 1831TIP3    H1 5436   4.691   5.641   6.244
 1831TIP3    H2 5437   4.738   5.781   6.210
 1832TIP3   OH2 5438   2.285   2.477   3.615
 1832TIP3    H1 5439   2.244   2.550   3.568
 1832TIP3    H2 5440   2.220   2.406   3.608
 1833TIP3   OH2 5441   2.891   2.730   6.442
 1833TIP3    H1 5442   2.969   2.767   6.401
 1833TIP3    H2 5443   2.831   2.804   6.451
 1834TIP3   OH2 5444   3.771   1.433   2.944
 1834TIP3    H1 5445   3.854   1.406   2.983
 1834TIP3    H2 5446   3.720   1.468   3.017
 1835TIP3   OH2 5447   5.967   5.537   5.428
 1835TIP3    H1 5448   5.934   5.555   5.340
 1835TIP3    H2 5449   5.929   5.452   5.451
 1836TIP3   OH2 5450   1.781   7.592   3.284
 1836TIP3    H1 5451   1.821   7.679   3.285
 1836TIP3    H2 5452   1.733   7.589   3.201
 1837TIP3   OH2 5453   3.213   7.701   4.898
 1837TIP3    H1 5454   3.190   7.673   4.987
 1837TIP3    H2 5455   3.238   7.621   4.852
 1838TIP3   OH2 5456   1.676   5.527   4.801
 1838TIP3    H1 5457   1.661   5.437   4.830
 1838TIP3    H2 5458   1.718   5.518   4.716
 1839TIP3   OH2 5459   0.928   1.967   5.860
 1839TIP3    H1 5460   0.977   2.049   5.856
 1839TIP3    H2 5461   0.841   1.990   5.827
 1840TIP3   OH2 5462   8.046   3.676   6.206
 1840TIP3    H1 5463   7.959   3.706   6.232
 1840TIP3    H2 5464   8.106   3.732   6.254
 1841TIP3   OH2 5465   4.965   0.413   3.921
 1841TIP3    H1 5466   4.954   0.392   3.828
 1841TIP3    H2 5467   5.055   0.446   3.927
 1842TIP3   OH2 5468   0.469   4.463   4.979
 1842TIP3    H1 5469   0.442   4.454   5.070
 1842TIP3    H2 5470   0.553   4.509   4.983
 1843TIP3   OH2 5471   2.511   7.698   3.864
 1843TIP3    H1 5472   2.548   7.775   3.822
 1843TIP3    H2 5473   2.585   7.638   3.874
 1844TIP3   OH2 5474   0.299   5.002   5.254
 1844TIP3    H1 5475   0.220   4.949   5.260
 1844TIP3    H2 5476   0.267   5.091   5.240
 1845TIP3   OH2 5477   1.577   4.097   5.738
 1845TIP3    H1 5478   1.660   4.060   5.707
 1845TIP3    H2 5479   1.560   4.051   5.820
 1846TIP3   OH2 5480   5.648   3.557   4.696
 1846TIP3    H1 5481   5.604   3.477   4.668
 1846TIP3    H2 5482   5.676   3.539   4.785
 1847TIP3   OH2 5483   6.132   0.358   4.326
 1847TIP3    H1 5484   6.139   0.264   4.308
 1847TIP3    H2 5485   6.175   0.369   4.411
 1848TIP3   OH2 5486   2.500   0.063   1.745
 1848TIP3    H1 5487   2.475   0.137   1.689
 1848TIP3    H2 5488   2.522   0.103   1.829
 1849TIP3   OH2 5489   3.897   0.723   5.182
 1849TIP3    H1 5490   3.865   0.790   5.122
 1849TIP3    H2 5491   3.877   0.756   5.269
 1850TIP3   OH2 5492   4.768   6.775   6.280
 1850TIP3    H1 5493   4.787   6.682   6.275
 1850TIP3    H2 5494   4.765   6.804   6.189
 1851TIP3   OH2 5495   4.723   0.974   4.813
 1851TIP3    H1 5496   4.702   0.923   4.735
 1851TIP3    H2 5497   4.816   0.960   4.827
 1852TIP3   OH2 5498   4.336   1.757   1.844
 1852TIP3    H1 5499   4.353   1.852   1.850
 1852TIP3    H2 5500   4.403   1.718   1.900
 1853TIP3   OH2 5501   7.634   2.224   4.004
 1853TIP3    H1 5502   7.695   2.151   3.994
 1853TIP3    H2 5503   7.549   2.188   3.979
 1854TIP3   OH2 5504   5.457   6.514   3.498
 1854TIP3    H1 5505   5.421   6.540   3.414
 1854TIP3    H2 5506   5.551   6.506   3.483
 1855TIP3   OH2 5507   8.142   7.018   5.147
 1855TIP3    H1 5508   8.101   6.972   5.073
 1855TIP3    H2 5509   8.187   6.948   5.196
 1856TIP3   OH2 5510   0.325   1.223   1.951
 1856TIP3    H1 5511   0.235   1.204   1.975
 1856TIP3    H2 5512   0.350   1.154   1.890
 1857TIP3   OH2 5513   0.728   4.568   3.799
 1857TIP3    H1 5514   0.645   4.575   3.847
 1857TIP3    H2 5515   0.743   4.474   3.792
 1858TIP3   OH2 5516   0.003   5.006   0.051
 1858TIP3    H1 5517   0.098   5.018   0.041
 1858TIP3    H2 5518  -0.011   5.005   0.145
 1859TIP3   OH2 5519   3.320   4.147   4.445
 1859TIP3    H1 5520   3.374   4.168   4.368
 1859TIP3    H2 5521   3.256   4.218   4.448
 1860TIP3   OH2 5522   2.523   6.082   4.380
 1860TIP3    H1 5523   2.455   6.149   4.368
 1860TIP3    H2 5524   2.527   6.069   4.475
 1861TIP3   OH2 5525   0.453   4.037   5.072
 1861TIP3    H1 5526   0.413   4.093   5.139
 1861TIP3    H2 5527   0.380   4.013   5.015
 1862TIP3   OH2 5528   7.756   2.533   1.648
 1862TIP3    H1 5529   7.679   2.559   1.698
 1862TIP3    H2 5530   7.728   2.456   1.599
 1863TIP3   OH2 5531   7.695   5.040   3.543
 1863TIP3    H1 5532   7.711   5.088   3.624
 1863TIP3    H2 5533   7.667   4.953   3.571
 1864TIP3   OH2 5534   0.790   3.033   4.114
 1864TIP3    H1 5535   0.781   2.945   4.149
 1864TIP3    H2 5536   0.857   3.074   4.169
 1865TIP3   OH2 5537   2.369   3.755   5.673
 1865TIP3    H1 5538   2.287   3.774   5.627
 1865TIP3    H2 5539   2.418   3.837   5.668
 1866TIP3   OH2 5540   7.855   2.040   3.264
 1866TIP3    H1 5541   7.866   1.968   3.326
 1866TIP3    H2 5542   7.884   2.118   3.311
 1867TIP3   OH2 5543   4.801   6.629   6.633
 1867TIP3    H1 5544   4.730   6.649   6.695
 1867TIP3    H2 5545   4.765   6.561   6.576
 1868TIP3   OH2 5546   6.960   7.010   5.653
 1868TIP3    H1 5547   6.866   7.021   5.637
 1868TIP3    H2 5548   7.002   7.052   5.578
 1869TIP3   OH2 5549   8.246   6.748   6.002
 1869TIP3    H1 5550   8.180   6.755   5.932
 1869TIP3    H2 5551   8.329   6.741   5.955
 1870TIP3   OH2 5552   3.282   5.838   1.612
 1870TIP3    H1 5553   3.233   5.825   1.694
 1870TIP3    H2 5554   3.352   5.772   1.615
 1871TIP3   OH2 5555   8.264   1.745   1.125
 1871TIP3    H1 5556   8.195   1.810   1.137
 1871TIP3    H2 5557   8.292   1.723   1.213
 1872TIP3   OH2 5558   3.066   4.358   3.578
 1872TIP3    H1 5559   3.013   4.420   3.627
 1872TIP3    H2 5560   3.033   4.364   3.488
 1873TIP3   OH2 5561   3.163   3.979   4.949
 1873TIP3    H1 5562   3.091   4.036   4.977
 1873TIP3    H2 5563   3.138   3.892   4.979
 1874TIP3   OH2 5564   1.277   1.688   6.340
 1874TIP3    H1 5565   1.369   1.675   6.366
 1874TIP3    H2 5566   1.237   1.602   6.353
 1875TIP3   OH2 5567   1.957   4.946   4.521
 1875TIP3    H1 5568   2.036   4.984   4.483
 1875TIP3    H2 5569   1.918   4.895   4.450
 1876TIP3   OH2 5570   3.920   2.771   6.539
 1876TIP3    H1 5571   3.941   2.833   6.469
 1876TIP3    H2 5572   3.968   2.692   6.517
 1877TIP3   OH2 5573   2.292   7.158   2.761
 1877TIP3    H1 5574   2.305   7.148   2.855
 1877TIP3    H2 5575   2.352   7.095   2.721
 1878TIP3   OH2 5576   2.818   5.579   3.771
 1878TIP3    H1 5577   2.851   5.494   3.742
 1878TIP3    H2 5578   2.874   5.603   3.845
 1879TIP3   OH2 5579   6.039   1.422   4.491
 1879TIP3    H1 5580   5.957   1.377   4.475
 1879TIP3    H2 5581   6.015   1.514   4.500
 1880TIP3   OH2 5582   2.771   3.158   2.348
 1880TIP3    H1 5583   2.725   3.239   2.372
 1880TIP3    H2 5584   2.842   3.188   2.291
 1881TIP3   OH2 5585   7.021   2.861   4.926
 1881TIP3    H1 5586   7.047   2.953   4.922
 1881TIP3    H2 5587   7.101   2.812   4.905
 1882TIP3   OH2 5588   5.596   0.330   0.054
 1882TIP3    H1 5589   5.558   0.343   0.142
 1882TIP3    H2 5590   5.662   0.262   0.067
 1883TIP3   OH2 5591   8.120   2.035   2.532
 1883TIP3    H1 5592   8.097   2.006   2.620
 1883TIP3    H2 5593   8.039   2.028   2.481
 1884TIP3   OH2 5594   0.219   4.339   0.675
 1884TIP3    H1 5595   0.152   4.379   0.730
 1884TIP3    H2 5596   0.295   4.330   0.732
 1885TIP3   OH2 5597   3.618   3.196   5.801
 1885TIP3    H1 5598   3.654   3.157   5.721
 1885TIP3    H2 5599   3.579   3.122   5.848
 1886TIP3   OH2 5600   1.462   2.078   3.829
 1886TIP3    H1 5601   1.544   2.068   3.878
 1886TIP3    H2 5602   1.404   2.124   3.890
 1887TIP3   OH2 5603   2.032   2.587   1.801
 1887TIP3    H1 5604   1.941   2.592   1.771
 1887TIP3    H2 5605   2.028   2.609   1.894
 1888TIP3   OH2 5606   0.497   0.478   4.744
 1888TIP3    H1 5607   0.456   0.392   4.747
 1888TIP3    H2 5608   0.433   0.534   4.701
 1889TIP3   OH2 5609   6.510   0.795   5.298
 1889TIP3    H1 5610   6.433   0.839   5.333
 1889TIP3    H2 5611   6.583   0.829   5.350
 1890TIP3   OH2 5612   3.009   5.584   5.564
 1890TIP3    H1 5613   2.991   5.503   5.611
 1890TIP3    H2 5614   3.086   5.620   5.607
 1891TIP3   OH2 5615   6.819   0.172   0.813
 1891TIP3    H1 5616   6.775   0.178   0.728
 1891TIP3    H2 5617   6.889   0.237   0.809
 1892TIP3   OH2 5618   0.005   6.981   2.670
 1892TIP3    H1 5619   0.066   6.907   2.679
 1892TIP3    H2 5620   0.002   6.998   2.576
 1893TIP3   OH2 5621   1.957   1.759   0.237
 1893TIP3    H1 5622   2.042   1.749   0.193
 1893TIP3    H2 5623   1.969   1.837   0.292
 1894TIP3   OH2 5624   0.396   4.432   4.474
 1894TIP3    H1 5625   0.322   4.384   4.511
 1894TIP3    H2 5626   0.361   4.520   4.456
 1895TIP3   OH2 5627   4.040   3.039   4.121
 1895TIP3    H1 5628   3.980   3.065   4.191
 1895TIP3    H2 5629   4.083   2.960   4.154
 1896TIP3   OH2 5630   1.082   5.000   1.034
 1896TIP3    H1 5631   1.034   5.043   0.963
 1896TIP3    H2 5632   1.018   4.994   1.106
 1897TIP3   OH2 5633   7.397   3.145   0.947
 1897TIP3    H1 5634   7.407   3.202   0.870
 1897TIP3    H2 5635   7.304   3.148   0.967
 1898TIP3   OH2 5636   4.804   4.536   6.367
 1898TIP3    H1 5637   4.801   4.442   6.351
 1898TIP3    H2 5638   4.771   4.547   6.456
 1899TIP3   OH2 5639   5.250   0.947   0.216
 1899TIP3    H1 5640   5.215   1.013   0.275
 1899TIP3    H2 5641   5.342   0.969   0.207
 1900TIP3   OH2 5642   0.817   3.980   5.183
 1900TIP3    H1 5643   0.834   3.954   5.274
 1900TIP3    H2 5644   0.770   3.905   5.146
 1901TIP3   OH2 5645   3.940   5.497   0.997
 1901TIP3    H1 5646   3.978   5.418   0.959
 1901TIP3    H2 5647   3.986   5.569   0.954
 1902TIP3   OH2 5648   6.933   1.709   4.585
 1902TIP3    H1 5649   6.860   1.647   4.580
 1902TIP3    H2 5650   6.903   1.777   4.645
 1903TIP3   OH2 5651   2.929   0.035   1.722
 1903TIP3    H1 5652   2.932   0.057   1.629
 1903TIP3    H2 5653   3.021   0.026   1.748
 1904TIP3   OH2 5654   4.233   7.694   5.024
 1904TIP3    H1 5655   4.269   7.647   5.099
 1904TIP3    H2 5656   4.281   7.777   5.021
 1905TIP3   OH2 5657   5.983   7.702   0.741
 1905TIP3    H1 5658   5.968   7.725   0.833
 1905TIP3    H2 5659   5.962   7.609   0.735
 1906TIP3   OH2 5660   0.518   1.012   2.498
 1906TIP3    H1 5661   0.469   0.976   2.424
 1906TIP3    H2 5662   0.452   1.059   2.550
 1907TIP3   OH2 5663   2.616   0.112   0.367
 1907TIP3    H1 5664   2.556   0.170   0.413
 1907TIP3    H2 5665   2.580   0.024   0.382
 1908TIP3   OH2 5666   6.804   3.472   5.844
 1908TIP3    H1 5667   6.864   3.464   5.770
 1908TIP3    H2 5668   6.724   3.509   5.806
 1909TIP3   OH2 5669   0.843   5.529   4.174
 1909TIP3    H1 5670   0.929   5.539   4.215
 1909TIP3    H2 5671   0.842   5.438   4.145
 1910TIP3   OH2 5672   7.049   1.599   3.338
 1910TIP3    H1 5673   7.037   1.656   3.263
 1910TIP3    H2 5674   7.105   1.649   3.398
 1911TIP3   OH2 5675   1.701   5.094   1.573
 1911TIP3    H1 5676   1.689   5.000   1.588
 1911TIP3    H2 5677   1.614   5.126   1.553
 1912TIP3   OH2 5678   0.198   3.371   2.403
 1912TIP3    H1 5679   0.284   3.410   2.385
 1912TIP3    H2 5680   0.146   3.390   2.325
 1913TIP3   OH2 5681   2.954   4.850   2.023
 1913TIP3    H1 5682   2.897   4.773   2.018
 1913TIP3    H2 5683   2.909   4.915   1.969
 1914TIP3   OH2 5684   5.717   7.432   1.641
 1914TIP3    H1 5685   5.669   7.352   1.620
 1914TIP3    H2 5686   5.791   7.403   1.694
 1915TIP3   OH2 5687   4.045   6.798   2.070
 1915TIP3    H1 5688   4.009   6.833   2.151
 1915TIP3    H2 5689   4.074   6.875   2.021
 1916TIP3   OH2 5690   0.927   1.300   2.543
 1916TIP3    H1 5691   0.871   1.357   2.597
 1916TIP3    H2 5692   0.866   1.243   2.497
 1917TIP3   OH2 5693   3.372   3.135   2.016
 1917TIP3    H1 5694   3.346   3.200   2.082
 1917TIP3    H2 5695   3.442   3.178   1.967
 1918TIP3   OH2 5696   7.905   7.139   0.057
 1918TIP3    H1 5697   7.877   7.223   0.094
 1918TIP3    H2 5698   7.994   7.155   0.025
 1919TIP3   OH2 5699   7.831   2.411   4.076
 1919TIP3    H1 5700   7.781   2.334   4.105
 1919TIP3    H2 5701   7.901   2.374   4.022
 1920TIP3   OH2 5702   3.504   2.736   3.722
 1920TIP3    H1 5703   3.521   2.823   3.685
 1920TIP3    H2 5704   3.421   2.710   3.682
 1921TIP3   OH2 5705   0.015   4.400   6.448
 1921TIP3    H1 5706   0.079   4.444   6.392
 1921TIP3    H2 5707   0.048   4.310   6.456
 1922TIP3   OH2 5708   7.982   5.703   0.870
 1922TIP3    H1 5709   7.921   5.767   0.907
 1922TIP3    H2 5710   8.056   5.702   0.931
 1923TIP3   OH2 5711   1.646   7.489   0.480
 1923TIP3    H1 5712   1.714   7.462   0.541
 1923TIP3    H2 5713   1.693   7.524   0.405
 1924TIP3   OH2 5714   0.615   0.433   0.004
 1924TIP3    H1 5715   0.709   0.433   0.020
 1924TIP3    H2 5716   0.596   0.520  -0.031
 1925TIP3   OH2 5717   7.377   4.172   4.221
 1925TIP3    H1 5718   7.372   4.209   4.133
 1925TIP3    H2 5719   7.450   4.110   4.217
 1926TIP3   OH2 5720   7.288   6.382   0.207
 1926TIP3    H1 5721   7.293   6.288   0.186
 1926TIP3    H2 5722   7.197   6.395   0.234
 1927TIP3   OH2 5723   3.636   0.743   5.610
 1927TIP3    H1 5724   3.545   0.731   5.636
 1927TIP3    H2 5725   3.652   0.675   5.544
 1928TIP3   OH2 5726   0.525   7.751   3.971
 1928TIP3    H1 5727   0.507   7.818   4.037
 1928TIP3    H2 5728   0.549   7.800   3.892
 1929TIP3   OH2 5729   4.540   0.140   0.145
 1929TIP3    H1 5730   4.565   0.200   0.215
 1929TIP3    H2 5731   4.490   0.194   0.084
 1930TIP3   OH2 5732   2.370   7.083   5.549
 1930TIP3    H1 5733   2.305   7.013   5.545
 1930TIP3    H2 5734   2.365   7.117   5.638
 1931TIP3   OH2 5735   7.704   6.640   3.535
 1931TIP3    H1 5736   7.659   6.671   3.456
 1931TIP3    H2 5737   7.634   6.611   3.593
 1932TIP3   OH2 5738   4.778   1.299   3.609
 1932TIP3    H1 5739   4.779   1.346   3.693
 1932TIP3    H2 5740   4.805   1.364   3.545
 1933TIP3   OH2 5741   6.512   1.456   0.088
 1933TIP3    H1 5742   6.533   1.541   0.049
 1933TIP3    H2 5743   6.557   1.392   0.033
 1934TIP3   OH2 5744   5.807   4.021   5.656
 1934TIP3    H1 5745   5.741   3.956   5.632
 1934TIP3    H2 5746   5.756   4.093   5.695
 1935TIP3   OH2 5747   2.621   5.608   3.072
 1935TIP3    H1 5748   2.680   5.536   3.049
 1935TIP3    H2 5749   2.540   5.564   3.100
 1936TIP3   OH2 5750   1.740   7.397   5.592
 1936TIP3    H1 5751   1.811   7.460   5.604
 1936TIP3    H2 5752   1.742   7.377   5.498
 1937TIP3   OH2 5753   5.924   0.115   3.047
 1937TIP3    H1 5754   5.938   0.199   3.091
 1937TIP3    H2 5755   6.010   0.073   3.048
 1938TIP3   OH2 5756   7.884   3.868   2.846
 1938TIP3    H1 5757   7.844   3.955   2.848
 1938TIP3    H2 5758   7.964   3.877   2.897
 1939TIP3   OH2 5759   1.190   6.977   1.330
 1939TIP3    H1 5760   1.249   7.051   1.317
 1939TIP3    H2 5761   1.247   6.902   1.345
 1940TIP3   OH2 5762   6.026   6.513   6.494
 1940TIP3    H1 5763   6.050   6.568   6.568
 1940TIP3    H2 5764   5.932   6.529   6.482
 1941TIP3   OH2 5765   6.214   6.413   5.459
 1941TIP3    H1 5766   6.157   6.346   5.422
 1941TIP3    H2 5767   6.208   6.487   5.399
 1942TIP3   OH2 5768   3.327   6.401   2.900
 1942TIP3    H1 5769   3.238   6.398   2.866
 1942TIP3    H2 5770   3.322   6.463   2.974
 1943TIP3   OH2 5771   2.975   5.317   0.545
 1943TIP3    H1 5772   2.983   5.412   0.546
 1943TIP3    H2 5773   2.967   5.293   0.637
 1944TIP3   OH2 5774   3.661   2.124   0.853
 1944TIP3    H1 5775   3.629   2.131   0.763
 1944TIP3    H2 5776   3.719   2.048   0.852
 1945TIP3   OH2 5777   0.310   0.282   5.086
 1945TIP3    H1 5778   0.292   0.376   5.080
 1945TIP3    H2 5779   0.404   0.274   5.075
 1946TIP3   OH2 5780   5.591   1.930   2.615
 1946TIP3    H1 5781   5.609   2.024   2.618
 1946TIP3    H2 5782   5.556   1.915   2.527
 1947TIP3   OH2 5783   2.215   5.268   6.218
 1947TIP3    H1 5784   2.248   5.336   6.159
 1947TIP3    H2 5785   2.150   5.220   6.166
 1948TIP3   OH2 5786   3.204   6.583   3.719
 1948TIP3    H1 5787   3.130   6.594   3.778
 1948TIP3    H2 5788   3.280   6.579   3.777
 1949TIP3   OH2 5789   3.736   7.801   3.217
 1949TIP3    H1 5790   3.771   7.782   3.130
 1949TIP3    H2 5791   3.761   7.725   3.270
 1950TIP3   OH2 5792   6.189   7.395   5.377
 1950TIP3    H1 5793   6.243   7.407   5.456
 1950TIP3    H2 5794   6.131   7.471   5.376
 1951TIP3   OH2 5795   5.483   4.499   5.759
 1951TIP3    H1 5796   5.577   4.486   5.774
 1951TIP3    H2 5797   5.465   4.456   5.676
 1952TIP3   OH2 5798   4.668   7.373   6.195
 1952TIP3    H1 5799   4.626   7.351   6.112
 1952TIP3    H2 5800   4.653   7.467   6.205
 1953TIP3   OH2 5801   4.908   5.767   0.617
 1953TIP3    H1 5802   4.840   5.784   0.552
 1953TIP3    H2 5803   4.953   5.851   0.628
 1954TIP3   OH2 5804   0.444   2.599   2.224
 1954TIP3    H1 5805   0.495   2.566   2.151
 1954TIP3    H2 5806   0.494   2.576   2.302
 1955TIP3   OH2 5807   0.126   4.500   6.038
 1955TIP3    H1 5808   0.065   4.428   6.021
 1955TIP3    H2 5809   0.074   4.564   6.087
 1956TIP3   OH2 5810   0.779   0.515   4.521
 1956TIP3    H1 5811   0.841   0.443   4.528
 1956TIP3    H2 5812   0.731   0.513   4.603
 1957TIP3   OH2 5813   8.127   6.114   3.586
 1957TIP3    H1 5814   8.129   6.066   3.669
 1957TIP3    H2 5815   8.066   6.186   3.601
 1958TIP3   OH2 5816   2.188   0.760   6.062
 1958TIP3    H1 5817   2.109   0.727   6.104
 1958TIP3    H2 5818   2.256   0.752   6.130
 1959TIP3   OH2 5819   5.453   4.113   3.979
 1959TIP3    H1 5820   5.475   4.021   3.962
 1959TIP3    H2 5821   5.524   4.162   3.937
 1960TIP3   OH2 5822   6.824   1.454   5.075
 1960TIP3    H1 5823   6.918   1.465   5.089
 1960TIP3    H2 5824   6.788   1.542   5.084
 1961TIP3   OH2 5825   4.394   6.996   2.852
 1961TIP3    H1 5826   4.456   7.037   2.793
 1961TIP3    H2 5827   4.443   6.983   2.934
 1962TIP3   OH2 5828   6.784   4.309   3.136
 1962TIP3    H1 5829   6.809   4.241   3.073
 1962TIP3    H2 5830   6.689   4.314   3.130
 1963TIP3   OH2 5831   7.544   3.646   6.652
 1963TIP3    H1 5832   7.522   3.729   6.695
 1963TIP3    H2 5833   7.464   3.594   6.657
 1964TIP3   OH2 5834   4.054   0.195   6.575
 1964TIP3    H1 5835   4.062   0.107   6.538
 1964TIP3    H2 5836   3.962   0.202   6.601
 1965TIP3   OH2 5837   1.038   2.079   3.137
 1965TIP3    H1 5838   1.050   2.127   3.055
 1965TIP3    H2 5839   1.097   2.122   3.199
 1966TIP3   OH2 5840   1.968   5.453   0.722
 1966TIP3    H1 5841   2.050   5.421   0.759
 1966TIP3    H2 5842   1.903   5.438   0.790
 1967TIP3   OH2 5843   3.361   4.849   5.842
 1967TIP3    H1 5844   3.274   4.887   5.855
 1967TIP3    H2 5845   3.421   4.923   5.851
 1968TIP3   OH2 5846   4.635   0.088   4.875
 1968TIP3    H1 5847   4.547   0.117   4.850
 1968TIP3    H2 5848   4.665   0.154   4.938
 1969TIP3   OH2 5849   5.663   2.013   5.360
 1969TIP3    H1 5850   5.677   1.933   5.411
 1969TIP3    H2 5851   5.571   2.035   5.375
 1970TIP3   OH2 5852   8.254   1.532   0.620
 1970TIP3    H1 5853   8.260   1.619   0.660
 1970TIP3    H2 5854   8.344   1.498   0.624
 1971TIP3   OH2 5855   0.197   6.149   0.682
 1971TIP3    H1 5856   0.134   6.096   0.633
 1971TIP3    H2 5857   0.169   6.239   0.669
 1972TIP3   OH2 5858   6.612   0.099   0.056
 1972TIP3    H1 5859   6.656   0.165   0.003
 1972TIP3    H2 5860   6.592   0.028  -0.005
 1973TIP3   OH2 5861   3.673   2.628   0.780
 1973TIP3    H1 5862   3.607   2.697   0.776
 1973TIP3    H2 5863   3.740   2.663   0.839
 1974TIP3   OH2 5864   3.111   1.405   0.340
 1974TIP3    H1 5865   3.085   1.496   0.325
 1974TIP3    H2 5866   3.094   1.390   0.433
 1975TIP3   OH2 5867   7.442   5.378   2.610
 1975TIP3    H1 5868   7.364   5.375   2.554
 1975TIP3    H2 5869   7.422   5.446   2.674
 1976TIP3   OH2 5870   3.280   0.993   1.266
 1976TIP3    H1 5871   3.370   0.962   1.276
 1976TIP3    H2 5872   3.289   1.083   1.236
 1977TIP3   OH2 5873   6.173   3.153   2.475
 1977TIP3    H1 5874   6.207   3.169   2.563
 1977TIP3    H2 5875   6.230   3.204   2.417
 1978TIP3   OH2 5876   1.265   5.771   2.572
 1978TIP3    H1 5877   1.306   5.838   2.517
 1978TIP3    H2 5878   1.309   5.690   2.547
 1979TIP3   OH2 5879   1.969   3.192   2.588
 1979TIP3    H1 5880   1.993   3.262   2.527
 1979TIP3    H2 5881   1.873   3.190   2.586
 1980TIP3   OH2 5882   2.566   2.832   2.465
 1980TIP3    H1 5883   2.516   2.820   2.546
 1980TIP3    H2 5884   2.644   2.880   2.492
 1981TIP3   OH2 5885   3.453   1.471   6.588
 1981TIP3    H1 5886   3.414   1.511   6.666
 1981TIP3    H2 5887   3.535   1.434   6.619
 1982TIP3   OH2 5888   0.642   0.319   2.333
 1982TIP3    H1 5889   0.656   0.226   2.314
 1982TIP3    H2 5890   0.607   0.354   2.251
 1983TIP3   OH2 5891   2.734   5.850   5.171
 1983TIP3    H1 5892   2.803   5.825   5.233
 1983TIP3    H2 5893   2.722   5.772   5.117
 1984TIP3   OH2 5894   7.446   1.725   1.775
 1984TIP3    H1 5895   7.442   1.766   1.689
 1984TIP3    H2 5896   7.537   1.736   1.803
 1985TIP3   OH2 5897   2.747   4.228   3.756
 1985TIP3    H1 5898   2.693   4.197   3.828
 1985TIP3    H2 5899   2.725   4.171   3.683
 1986TIP3   OH2 5900   6.835   5.446   0.422
 1986TIP3    H1 5901   6.854   5.413   0.334
 1986TIP3    H2 5902   6.830   5.541   0.412
 1987TIP3   OH2 5903   5.035   6.982   0.993
 1987TIP3    H1 5904   5.128   6.969   1.009
 1987TIP3    H2 5905   4.997   6.989   1.081
 1988TIP3   OH2 5906   5.977   0.306   1.996
 1988TIP3    H1 5907   5.948   0.217   1.977
 1988TIP3    H2 5908   6.038   0.327   1.926
 1989TIP3   OH2 5909   0.646   3.514   3.617
 1989TIP3    H1 5910   0.574   3.566   3.653
 1989TIP3    H2 5911   0.714   3.519   3.683
 1990TIP3   OH2 5912   3.910   0.837   1.399
 1990TIP3    H1 5913   3.953   0.857   1.315
 1990TIP3    H2 5914   3.878   0.747   1.389
 1991TIP3   OH2 5915   4.080   3.334   4.272
 1991TIP3    H1 5916   4.084   3.403   4.205
 1991TIP3    H2 5917   4.082   3.382   4.355
 1992TIP3   OH2 5918   0.504   2.233   4.964
 1992TIP3    H1 5919   0.497   2.195   5.052
 1992TIP3    H2 5920   0.584   2.285   4.966
 1993TIP3   OH2 5921   7.760   5.253   3.324
 1993TIP3    H1 5922   7.772   5.200   3.246
 1993TIP3    H2 5923   7.725   5.193   3.389
 1994TIP3   OH2 5924   0.254   0.174   5.645
 1994TIP3    H1 5925   0.315   0.247   5.634
 1994TIP3    H2 5926   0.213   0.165   5.559
 1995TIP3   OH2 5927   7.260   1.575   1.947
 1995TIP3    H1 5928   7.344   1.573   1.902
 1995TIP3    H2 5929   7.202   1.624   1.888
 1996TIP3   OH2 5930   6.056   0.920   4.931
 1996TIP3    H1 5931   6.102   0.987   4.881
 1996TIP3    H2 5932   6.073   0.838   4.884
 1997TIP3   OH2 5933   0.085   0.638   0.744
 1997TIP3    H1 5934   0.100   0.729   0.719
 1997TIP3    H2 5935   0.004   0.640   0.795
 1998TIP3   OH2 5936   3.415   6.695   4.723
 1998TIP3    H1 5937   3.456   6.781   4.722
 1998TIP3    H2 5938   3.389   6.680   4.633
 1999TIP3   OH2 5939   1.428   3.043   1.036
 1999TIP3    H1 5940   1.419   3.105   1.108
 1999TIP3    H2 5941   1.517   3.058   1.002
 2000TIP3   OH2 5942   7.553   6.564   2.083
 2000TIP3    H1 5943   7.570   6.482   2.037
 2000TIP3    H2 5944   7.458   6.573   2.083
 2001TIP3   OH2 5945   4.069   5.253   2.586
 2001TIP3    H1 5946   4.110   5.326   2.539
 2001TIP3    H2 5947   4.138   5.187   2.592
 2002TIP3   OH2 5948   6.016   3.168   6.674
 2002TIP3    H1 5949   5.937   3.140   6.721
 2002TIP3    H2 5950   5.984   3.227   6.606
 2003TIP3   OH2 5951   6.920   3.322   1.259
 2003TIP3    H1 5952   6.914   3.240   1.307
 2003TIP3    H2 5953   7.014   3.337   1.249
 2004TIP3   OH2 5954   0.045   5.051   4.162
 2004TIP3    H1 5955   0.139   5.059   4.180
 2004TIP3    H2 5956   0.029   4.957   4.154
 2005TIP3   OH2 5957   0.312   5.454   5.893
 2005TIP3    H1 5958   0.241   5.514   5.869
 2005TIP3    H2 5959   0.321   5.464   5.987
 2006TIP3   OH2 5960   1.499   0.353   0.009
 2006TIP3    H1 5961   1.479   0.421   0.074
 2006TIP3    H2 5962   1.564   0.393  -0.049
 2007TIP3   OH2 5963   8.293   7.338   1.412
 2007TIP3    H1 5964   8.230   7.378   1.473
 2007TIP3    H2 5965   8.256   7.252   1.392
 2008TIP3   OH2 5966   1.917   2.853   1.794
 2008TIP3    H1 5967   1.871   2.792   1.852
 2008TIP3    H2 5968   1.854   2.924   1.778
 2009TIP3   OH2 5969   6.029   5.269   1.669
 2009TIP3    H1 5970   6.088   5.261   1.744
 2009TIP3    H2 5971   6.042   5.188   1.620
 2010TIP3   OH2 5972   0.482   7.020   5.396
 2010TIP3    H1 5973   0.517   6.945   5.349
 2010TIP3    H2 5974   0.458   6.986   5.482
 2011TIP3   OH2 5975   3.261   1.874   4.622
 2011TIP3    H1 5976   3.235   1.905   4.709
 2011TIP3    H2 5977   3.338   1.818   4.638
 2012TIP3   OH2 5978   3.821   6.028   5.834
 2012TIP3    H1 5979   3.877   6.006   5.908
 2012TIP3    H2 5980   3.767   6.100   5.866
 2013TIP3   OH2 5981   2.831   0.965   5.460
 2013TIP3    H1 5982   2.803   1.019   5.386
 2013TIP3    H2 5983   2.750   0.930   5.496
 2014TIP3   OH2 5984   5.880   6.841   2.937
 2014TIP3    H1 5985   5.941   6.826   3.009
 2014TIP3    H2 5986   5.803   6.790   2.960
 2015TIP3   OH2 5987   6.557   4.233   0.129
 2015TIP3    H1 5988   6.522   4.151   0.094
 2015TIP3    H2 5989   6.499   4.301   0.092
 2016TIP3   OH2 5990   1.939   4.343   3.443
 2016TIP3    H1 5991   2.035   4.348   3.449
 2016TIP3    H2 5992   1.908   4.405   3.510
 2017TIP3   OH2 5993   2.632   2.749   4.772
 2017TIP3    H1 5994   2.601   2.670   4.728
 2017TIP3    H2 5995   2.623   2.818   4.706
 2018TIP3   OH2 5996   1.958   6.312   2.563
 2018TIP3    H1 5997   1.934   6.299   2.655
 2018TIP3    H2 5998   1.982   6.404   2.557
 2019TIP3   OH2 5999   0.006   0.866   4.610
 2019TIP3    H1 6000  -0.031   0.809   4.543
 2019TIP3    H2 6001   0.028   0.808   4.682
 2020TIP3   OH2 6002   1.287   1.023   0.589
 2020TIP3    H1 6003   1.351   1.048   0.656
 2020TIP3    H2 6004   1.270   1.104   0.541
 2021TIP3   OH2 6005   8.222   7.389   1.133
 2021TIP3    H1 6006   8.147   7.444   1.156
 2021TIP3    H2 6007   8.275   7.386   1.213
 2022TIP3   OH2 6008   2.661   4.223   2.232
 2022TIP3    H1 6009   2.608   4.292   2.194
 2022TIP3    H2 6010   2.747   4.233   2.191
 2023TIP3   OH2 6011   6.873   5.170   6.018
 2023TIP3    H1 6012   6.944   5.107   6.033
 2023TIP3    H2 6013   6.885   5.199   5.928
 2024TIP3   OH2 6014   2.725   1.779   6.484
 2024TIP3    H1 6015   2.754   1.815   6.400
 2024TIP3    H2 6016   2.637   1.747   6.468
 2025TIP3   OH2 6017   3.924   7.587   1.518
 2025TIP3    H1 6018   3.920   7.509   1.463
 2025TIP3    H2 6019   3.982   7.647   1.470
 2026TIP3   OH2 6020   0.435   5.757   4.916
 2026TIP3    H1 6021   0.456   5.711   4.997
 2026TIP3    H2 6022   0.355   5.805   4.935
 2027TIP3   OH2 6023   2.846   4.580   5.485
 2027TIP3    H1 6024   2.755   4.597   5.509
 2027TIP3    H2 6025   2.883   4.537   5.562
 2028TIP3   OH2 6026   2.873   3.577   6.499
 2028TIP3    H1 6027   2.917   3.608   6.579
 2028TIP3    H2 6028   2.839   3.657   6.459
 2029TIP3   OH2 6029   5.464   2.549   5.784
 2029TIP3    H1 6030   5.423   2.492   5.848
 2029TIP3    H2 6031   5.534   2.497   5.746
 2030TIP3   OH2 6032   5.609   1.571   1.543
 2030TIP3    H1 6033   5.656   1.508   1.487
 2030TIP3    H2 6034   5.614   1.533   1.631
 2031TIP3   OH2 6035   4.825   5.574   3.854
 2031TIP3    H1 6036   4.872   5.638   3.801
 2031TIP3    H2 6037   4.746   5.620   3.882
 2032TIP3   OH2 6038   2.223   0.263   0.302
 2032TIP3    H1 6039   2.315   0.289   0.301
 2032TIP3    H2 6040   2.178   0.333   0.255
 2033TIP3   OH2 6041   0.658   1.375   4.974
 2033TIP3    H1 6042   0.714   1.418   5.039
 2033TIP3    H2 6043   0.621   1.300   5.021
 2034TIP3   OH2 6044   4.235   5.628   0.179
 2034TIP3    H1 6045   4.281   5.702   0.219
 2034TIP3    H2 6046   4.252   5.636   0.086
 2035TIP3   OH2 6047   7.693   0.765   6.346
 2035TIP3    H1 6048   7.745   0.686   6.329
 2035TIP3    H2 6049   7.684   0.768   6.441
 2036TIP3   OH2 6050   8.255   1.259   0.612
 2036TIP3    H1 6051   8.244   1.347   0.648
 2036TIP3    H2 6052   8.347   1.238   0.628
 2037TIP3   OH2 6053   7.346   2.890   4.017
 2037TIP3    H1 6054   7.380   2.847   4.095
 2037TIP3    H2 6055   7.255   2.863   4.011
 2038TIP3   OH2 6056   1.411   6.528   5.026
 2038TIP3    H1 6057   1.498   6.492   5.009
 2038TIP3    H2 6058   1.405   6.604   4.968
 2039TIP3   OH2 6059   6.056   7.033   1.677
 2039TIP3    H1 6060   6.042   6.975   1.602
 2039TIP3    H2 6061   6.133   6.998   1.721
 2040TIP3   OH2 6062   3.216   4.618   1.645
 2040TIP3    H1 6063   3.268   4.590   1.720
 2040TIP3    H2 6064   3.167   4.694   1.676
 2041TIP3   OH2 6065   3.480   3.940   3.512
 2041TIP3    H1 6066   3.530   3.892   3.578
 2041TIP3    H2 6067   3.390   3.907   3.522
 2042TIP3   OH2 6068   6.640   2.777   1.104
 2042TIP3    H1 6069   6.609   2.770   1.014
 2042TIP3    H2 6070   6.716   2.720   1.109
 2043TIP3   OH2 6071   5.601   5.852   5.131
 2043TIP3    H1 6072   5.596   5.940   5.166
 2043TIP3    H2 6073   5.652   5.860   5.051
 2044TIP3   OH2 6074   2.168   7.779   3.230
 2044TIP3    H1 6075   2.151   7.718   3.158
 2044TIP3    H2 6076   2.244   7.830   3.201
 2045TIP3   OH2 6077   6.898   0.845   5.796
 2045TIP3    H1 6078   6.833   0.797   5.847
 2045TIP3    H2 6079   6.883   0.817   5.706
 2046TIP3   OH2 6080   5.048   2.398   2.610
 2046TIP3    H1 6081   4.961   2.361   2.626
 2046TIP3    H2 6082   5.086   2.408   2.697
 2047TIP3   OH2 6083   3.464   3.326   2.612
 2047TIP3    H1 6084   3.440   3.233   2.613
 2047TIP3    H2 6085   3.536   3.331   2.550
 2048TIP3   OH2 6086   5.003   0.982   3.037
 2048TIP3    H1 6087   5.097   0.975   3.021
 2048TIP3    H2 6088   4.987   1.075   3.050
 2049TIP3   OH2 6089   5.574   6.287   6.147
 2049TIP3    H1 6090   5.545   6.256   6.062
 2049TIP3    H2 6091   5.492   6.306   6.194
 2050TIP3   OH2 6092   6.946   2.858   5.797
 2050TIP3    H1 6093   6.865   2.887   5.839
 2050TIP3    H2 6094   6.985   2.796   5.859
 2051TIP3   OH2 6095   1.543   4.021   3.779
 2051TIP3    H1 6096   1.514   4.109   3.804
 2051TIP3    H2 6097   1.599   4.036   3.702
 2052TIP3   OH2 6098   6.933   6.149   3.420
 2052TIP3    H1 6099   6.944   6.231   3.372
 2052TIP3    H2 6100   6.998   6.153   3.490
 2053TIP3   OH2 6101   1.859   2.785   0.106
 2053TIP3    H1 6102   1.886   2.789   0.198
 2053TIP3    H2 6103   1.827   2.873   0.087
 2054TIP3   OH2 6104   5.386   5.039   2.955
 2054TIP3    H1 6105   5.456   5.095   2.923
 2054TIP3    H2 6106   5.429   4.959   2.984
 2055TIP3   OH2 6107   6.171   6.433   2.357
 2055TIP3    H1 6108   6.261   6.465   2.363
 2055TIP3    H2 6109   6.124   6.502   2.310
 2056TIP3   OH2 6110   7.303   2.086   6.367
 2056TIP3    H1 6111   7.264   2.164   6.405
 2056TIP3    H2 6112   7.396   2.107   6.357
 2057TIP3   OH2 6113   1.711   4.346   4.758
 2057TIP3    H1 6114   1.736   4.424   4.709
 2057TIP3    H2 6115   1.782   4.284   4.742
 2058TIP3   OH2 6116   5.660   5.105   3.632
 2058TIP3    H1 6117   5.643   5.022   3.587
 2058TIP3    H2 6118   5.756   5.110   3.637
 2059TIP3   OH2 6119   3.471   2.959   5.849
 2059TIP3    H1 6120   3.536   2.891   5.867
 2059TIP3    H2 6121   3.405   2.916   5.794
 2060TIP3   OH2 6122   4.772   3.607   1.798
 2060TIP3    H1 6123   4.780   3.694   1.836
 2060TIP3    H2 6124   4.679   3.586   1.805
 2061TIP3   OH2 6125   4.304   5.350   4.233
 2061TIP3    H1 6126   4.244   5.352   4.308
 2061TIP3    H2 6127   4.347   5.435   4.234
 2062TIP3   OH2 6128   2.965   2.575   5.946
 2062TIP3    H1 6129   2.914   2.517   5.890
 2062TIP3    H2 6130   3.052   2.578   5.906
 2063TIP3   OH2 6131   8.171   4.860   2.166
 2063TIP3    H1 6132   8.130   4.870   2.080
 2063TIP3    H2 6133   8.232   4.787   2.155
 2064TIP3   OH2 6134   3.810   2.612   0.143
 2064TIP3    H1 6135   3.747   2.557   0.190
 2064TIP3    H2 6136   3.868   2.646   0.211
 2065TIP3   OH2 6137   3.825   2.845   3.670
 2065TIP3    H1 6138   3.899   2.852   3.730
 2065TIP3    H2 6139   3.761   2.908   3.704
 2066TIP3   OH2 6140   7.398   4.132   3.423
 2066TIP3    H1 6141   7.477   4.149   3.373
 2066TIP3    H2 6142   7.353   4.216   3.427
 2067TIP3   OH2 6143   1.758   7.296   6.266
 2067TIP3    H1 6144   1.681   7.257   6.307
 2067TIP3    H2 6145   1.725   7.338   6.187
 2068TIP3   OH2 6146   0.933   6.206   5.946
 2068TIP3    H1 6147   0.925   6.168   6.034
 2068TIP3    H2 6148   1.026   6.199   5.925
 2069TIP3   OH2 6149   8.018   3.436   4.687
 2069TIP3    H1 6150   7.952   3.504   4.673
 2069TIP3    H2 6151   7.991   3.364   4.630
 2070TIP3   OH2 6152   8.254   3.492   6.430
 2070TIP3    H1 6153   8.309   3.570   6.431
 2070TIP3    H2 6154   8.177   3.517   6.482
 2071TIP3   OH2 6155   6.265   1.733   2.075
 2071TIP3    H1 6156   6.356   1.749   2.052
 2071TIP3    H2 6157   6.215   1.794   2.021
 2072TIP3   OH2 6158   1.326   3.855   1.802
 2072TIP3    H1 6159   1.333   3.790   1.732
 2072TIP3    H2 6160   1.413   3.895   1.806
 2073TIP3   OH2 6161   4.456   5.298   0.603
 2073TIP3    H1 6162   4.386   5.237   0.578
 2073TIP3    H2 6163   4.414   5.384   0.603
 2074TIP3   OH2 6164   2.987   2.973   2.762
 2074TIP3    H1 6165   3.042   3.011   2.831
 2074TIP3    H2 6166   3.025   2.887   2.745
 2075TIP3   OH2 6167   2.347   6.769   5.302
 2075TIP3    H1 6168   2.299   6.761   5.219
 2075TIP3    H2 6169   2.322   6.691   5.352
 2076TIP3   OH2 6170   0.933   0.636   0.516
 2076TIP3    H1 6171   1.007   0.696   0.515
 2076TIP3    H2 6172   0.865   0.682   0.564
 2077TIP3   OH2 6173   8.229   5.269   3.044
 2077TIP3    H1 6174   8.180   5.232   2.971
 2077TIP3    H2 6175   8.169   5.265   3.119
 2078TIP3   OH2 6176   7.601   6.227   0.232
 2078TIP3    H1 6177   7.617   6.313   0.271
 2078TIP3    H2 6178   7.585   6.245   0.139
 2079TIP3   OH2 6179   5.811   4.988   3.260
 2079TIP3    H1 6180   5.794   5.082   3.265
 2079TIP3    H2 6181   5.895   4.976   3.303
 2080TIP3   OH2 6182   5.244   1.179   2.812
 2080TIP3    H1 6183   5.159   1.191   2.770
 2080TIP3    H2 6184   5.302   1.241   2.768
 2081TIP3   OH2 6185   5.007   7.482   3.812
 2081TIP3    H1 6186   5.076   7.459   3.750
 2081TIP3    H2 6187   5.047   7.468   3.898
 2082TIP3   OH2 6188   8.186   6.409   0.815
 2082TIP3    H1 6189   8.104   6.456   0.825
 2082TIP3    H2 6190   8.214   6.389   0.904
 2083TIP3   OH2 6191   6.156   3.112   1.070
 2083TIP3    H1 6192   6.221   3.162   1.120
 2083TIP3    H2 6193   6.128   3.172   1.001
 2084TIP3   OH2 6194   5.915   6.455   2.996
 2084TIP3    H1 6195   5.851   6.526   3.002
 2084TIP3    H2 6196   5.863   6.378   2.971
 2085TIP3   OH2 6197   7.944   7.713   3.299
 2085TIP3    H1 6198   7.907   7.667   3.224
 2085TIP3    H2 6199   7.874   7.714   3.364
 2086TIP3   OH2 6200   4.320   6.008   0.783
 2086TIP3    H1 6201   4.265   6.044   0.713
 2086TIP3    H2 6202   4.337   6.082   0.840
 2087TIP3   OH2 6203   2.077   5.893   5.874
 2087TIP3    H1 6204   2.080   5.984   5.844
 2087TIP3    H2 6205   2.089   5.899   5.969
 2088TIP3   OH2 6206   1.319   5.551   1.935
 2088TIP3    H1 6207   1.231   5.588   1.946
 2088TIP3    H2 6208   1.305   5.456   1.935
 2089TIP3   OH2 6209   4.426   4.758   2.835
 2089TIP3    H1 6210   4.511   4.797   2.856
 2089TIP3    H2 6211   4.405   4.704   2.911
 2090TIP3   OH2 6212   1.933   2.294   6.366
 2090TIP3    H1 6213   1.912   2.283   6.273
 2090TIP3    H2 6214   2.028   2.303   6.369
 2091TIP3   OH2 6215   4.639   0.483   3.025
 2091TIP3    H1 6216   4.719   0.527   2.998
 2091TIP3    H2 6217   4.569   0.546   3.004
 2092TIP3   OH2 6218   1.659   7.797   6.192
 2092TIP3    H1 6219   1.648   7.754   6.107
 2092TIP3    H2 6220   1.577   7.845   6.204
 2093TIP3   OH2 6221   6.112   0.021   2.549
 2093TIP3    H1 6222   6.204  -0.006   2.551
 2093TIP3    H2 6223   6.073  -0.020   2.626
 2094TIP3   OH2 6224   7.580   5.382   6.500
 2094TIP3    H1 6225   7.646   5.450   6.510
 2094TIP3    H2 6226   7.618   5.305   6.543
 2095TIP3   OH2 6227   1.448   0.944   1.185
 2095TIP3    H1 6228   1.476   1.036   1.191
 2095TIP3    H2 6229   1.484   0.914   1.102
 2096TIP3   OH2 6230   4.086   2.462   6.210
 2096TIP3    H1 6231   4.099   2.530   6.144
 2096TIP3    H2 6232   4.035   2.395   6.165
 2097TIP3   OH2 6233   6.089   0.810   6.574
 2097TIP3    H1 6234   6.002   0.844   6.597
 2097TIP3    H2 6235   6.093   0.818   6.479
 2098TIP3   OH2 6236   1.624   7.447   5.118
 2098TIP3    H1 6237   1.626   7.502   5.040
 2098TIP3    H2 6238   1.681   7.492   5.181
 2099TIP3   OH2 6239   7.155   4.243   6.163
 2099TIP3    H1 6240   7.155   4.154   6.198
 2099TIP3    H2 6241   7.095   4.291   6.220
 2100TIP3   OH2 6242   0.856   6.743   1.996
 2100TIP3    H1 6243   0.871   6.778   1.908
 2100TIP3    H2 6244   0.761   6.729   1.999
 2101TIP3   OH2 6245   1.908   0.842   5.211
 2101TIP3    H1 6246   1.988   0.842   5.263
 2101TIP3    H2 6247   1.933   0.882   5.127
 2102TIP3   OH2 6248   0.143   4.546   4.490
 2102TIP3    H1 6249   0.061   4.525   4.535
 2102TIP3    H2 6250   0.146   4.642   4.491
 2103TIP3   OH2 6251   2.747   4.698   2.398
 2103TIP3    H1 6252   2.715   4.788   2.397
 2103TIP3    H2 6253   2.717   4.662   2.314
 2104TIP3   OH2 6254   2.249   7.052   3.941
 2104TIP3    H1 6255   2.240   7.014   4.029
 2104TIP3    H2 6256   2.215   7.141   3.950
 2105TIP3   OH2 6257   3.928   0.641   0.054
 2105TIP3    H1 6258   3.984   0.713   0.084
 2105TIP3    H2 6259   3.868   0.625   0.127
 2106TIP3   OH2 6260   5.407   6.058   4.052
 2106TIP3    H1 6261   5.317   6.089   4.045
 2106TIP3    H2 6262   5.409   5.977   4.001
 2107TIP3   OH2 6263   4.259   4.378   0.859
 2107TIP3    H1 6264   4.201   4.390   0.934
 2107TIP3    H2 6265   4.347   4.391   0.895
 2108TIP3   OH2 6266   4.603   4.731   1.814
 2108TIP3    H1 6267   4.609   4.700   1.904
 2108TIP3    H2 6268   4.519   4.698   1.782
 2109TIP3   OH2 6269   1.290   0.727   5.857
 2109TIP3    H1 6270   1.208   0.693   5.822
 2109TIP3    H2 6271   1.348   0.733   5.780
 2110TIP3   OH2 6272   7.163   0.632   4.601
 2110TIP3    H1 6273   7.110   0.669   4.672
 2110TIP3    H2 6274   7.247   0.677   4.606
 2111TIP3   OH2 6275   7.153   2.414   0.433
 2111TIP3    H1 6276   7.192   2.326   0.432
 2111TIP3    H2 6277   7.198   2.458   0.505
 2112TIP3   OH2 6278   2.107   3.766   5.951
 2112TIP3    H1 6279   2.034   3.707   5.968
 2112TIP3    H2 6280   2.168   3.715   5.899
 2113TIP3   OH2 6281   6.662   4.892   2.277
 2113TIP3    H1 6282   6.699   4.882   2.365
 2113TIP3    H2 6283   6.584   4.945   2.291
 2114TIP3   OH2 6284   3.773   0.870   5.814
 2114TIP3    H1 6285   3.730   0.832   5.738
 2114TIP3    H2 6286   3.856   0.822   5.821
 2115TIP3   OH2 6287   7.536   1.316   6.123
 2115TIP3    H1 6288   7.503   1.381   6.186
 2115TIP3    H2 6289   7.631   1.324   6.129
 2116TIP3   OH2 6290   0.167   2.689   0.567
 2116TIP3    H1 6291   0.255   2.715   0.595
 2116TIP3    H2 6292   0.181   2.653   0.479
 2117TIP3   OH2 6293   5.596   0.325   6.425
 2117TIP3    H1 6294   5.664   0.379   6.463
 2117TIP3    H2 6295   5.517   0.346   6.475
 2118TIP3   OH2 6296   6.063   2.192   5.003
 2118TIP3    H1 6297   6.020   2.176   5.087
 2118TIP3    H2 6298   6.114   2.272   5.017
 2119TIP3   OH2 6299   5.320   6.396   3.743
 2119TIP3    H1 6300   5.339   6.303   3.750
 2119TIP3    H2 6301   5.351   6.421   3.655
 2120TIP3   OH2 6302   4.141   7.775   0.616
 2120TIP3    H1 6303   4.132   7.819   0.700
 2120TIP3    H2 6304   4.216   7.818   0.575
 2121TIP3   OH2 6305   1.088   6.085   5.303
 2121TIP3    H1 6306   1.179   6.098   5.328
 2121TIP3    H2 6307   1.038   6.141   5.361
 2122TIP3   OH2 6308   2.646   4.653   4.740
 2122TIP3    H1 6309   2.581   4.722   4.753
 2122TIP3    H2 6310   2.649   4.607   4.823
 2123TIP3   OH2 6311   1.270   4.679   1.787
 2123TIP3    H1 6312   1.302   4.714   1.704
 2123TIP3    H2 6313   1.293   4.746   1.851
 2124TIP3   OH2 6314   5.998   6.886   4.562
 2124TIP3    H1 6315   5.929   6.862   4.500
 2124TIP3    H2 6316   5.976   6.838   4.642
 2125TIP3   OH2 6317   2.208   0.840   6.714
 2125TIP3    H1 6318   2.117   0.836   6.742
 2125TIP3    H2 6319   2.205   0.819   6.620
 2126TIP3   OH2 6320   2.973   4.300   4.749
 2126TIP3    H1 6321   2.881   4.316   4.728
 2126TIP3    H2 6322   2.997   4.225   4.694
 2127TIP3   OH2 6323   5.243   6.346   1.570
 2127TIP3    H1 6324   5.226   6.302   1.654
 2127TIP3    H2 6325   5.165   6.401   1.556
 2128TIP3   OH2 6326   5.504   7.263   4.943
 2128TIP3    H1 6327   5.465   7.201   5.004
 2128TIP3    H2 6328   5.512   7.214   4.861
 2129TIP3   OH2 6329   6.812   2.217   1.597
 2129TIP3    H1 6330   6.809   2.178   1.685
 2129TIP3    H2 6331   6.728   2.262   1.588
 2130TIP3   OH2 6332   8.285   7.034   0.527
 2130TIP3    H1 6333   8.327   7.100   0.582
 2130TIP3    H2 6334   8.218   6.995   0.583
 2131TIP3   OH2 6335   4.623   0.852   6.673
 2131TIP3    H1 6336   4.663   0.808   6.599
 2131TIP3    H2 6337   4.609   0.942   6.643
 2132TIP3   OH2 6338   6.033   2.579   3.691
 2132TIP3    H1 6339   5.989   2.497   3.712
 2132TIP3    H2 6340   6.123   2.553   3.671
 2133TIP3   OH2 6341   0.795   3.020   1.404
 2133TIP3    H1 6342   0.740   3.053   1.476
 2133TIP3    H2 6343   0.738   2.961   1.356
 2134TIP3   OH2 6344   5.310   5.634   1.956
 2134TIP3    H1 6345   5.245   5.579   1.913
 2134TIP3    H2 6346   5.394   5.607   1.917
 2135TIP3   OH2 6347   3.902   6.693   1.161
 2135TIP3    H1 6348   3.871   6.781   1.140
 2135TIP3    H2 6349   3.930   6.698   1.253
 2136TIP3   OH2 6350   0.186   2.495   5.097
 2136TIP3    H1 6351   0.223   2.482   5.009
 2136TIP3    H2 6352   0.221   2.423   5.149
 2137TIP3   OH2 6353   4.992   2.598   5.143
 2137TIP3    H1 6354   5.058   2.536   5.111
 2137TIP3    H2 6355   5.036   2.645   5.214
 2138TIP3   OH2 6356   2.331   6.026   6.361
 2138TIP3    H1 6357   2.298   5.951   6.411
 2138TIP3    H2 6358   2.379   6.079   6.425
 2139TIP3   OH2 6359   1.437   3.688   0.848
 2139TIP3    H1 6360   1.378   3.668   0.921
 2139TIP3    H2 6361   1.382   3.735   0.785
 2140TIP3   OH2 6362   6.309   3.913   1.739
 2140TIP3    H1 6363   6.269   3.834   1.702
 2140TIP3    H2 6364   6.271   3.920   1.826
 2141TIP3   OH2 6365   3.169   3.929   3.564
 2141TIP3    H1 6366   3.122   3.993   3.618
 2141TIP3    H2 6367   3.125   3.845   3.583
 2142TIP3   OH2 6368   1.412   2.980   5.072
 2142TIP3    H1 6369   1.453   2.904   5.032
 2142TIP3    H2 6370   1.474   3.009   5.138
 2143TIP3   OH2 6371   4.012   4.640   5.840
 2143TIP3    H1 6372   4.026   4.627   5.747
 2143TIP3    H2 6373   3.923   4.609   5.856
 2144TIP3   OH2 6374   6.876   0.573   5.261
 2144TIP3    H1 6375   6.780   0.582   5.260
 2144TIP3    H2 6376   6.895   0.530   5.344
 2145TIP3   OH2 6377   7.136   2.587   5.629
 2145TIP3    H1 6378   7.050   2.604   5.589
 2145TIP3    H2 6379   7.160   2.500   5.598
 2146TIP3   OH2 6380   6.419   6.944   6.642
 2146TIP3    H1 6381   6.399   6.951   6.549
 2146TIP3    H2 6382   6.428   7.035   6.671
 2147TIP3   OH2 6383   6.750   5.838   1.897
 2147TIP3    H1 6384   6.673   5.853   1.842
 2147TIP3    H2 6385   6.778   5.749   1.876
 2148TIP3   OH2 6386   4.396   3.753   6.103
 2148TIP3    H1 6387   4.441   3.784   6.024
 2148TIP3    H2 6388   4.467   3.736   6.165
 2149TIP3   OH2 6389   3.417   2.101   1.832
 2149TIP3    H1 6390   3.474   2.099   1.755
 2149TIP3    H2 6391   3.477   2.115   1.905
 2150TIP3   OH2 6392   0.912   0.594   3.340
 2150TIP3    H1 6393   0.962   0.581   3.421
 2150TIP3    H2 6394   0.911   0.688   3.327
 2151TIP3   OH2 6395   1.254   4.870   5.717
 2151TIP3    H1 6396   1.262   4.947   5.774
 2151TIP3    H2 6397   1.312   4.805   5.756
 2152TIP3   OH2 6398   7.702   0.961   0.810
 2152TIP3    H1 6399   7.756   0.994   0.882
 2152TIP3    H2 6400   7.765   0.934   0.743
 2153TIP3   OH2 6401   1.900   4.337   0.331
 2153TIP3    H1 6402   1.914   4.274   0.260
 2153TIP3    H2 6403   1.968   4.317   0.395
 2154TIP3   OH2 6404   2.232   4.851   6.280
 2154TIP3    H1 6405   2.161   4.871   6.340
 2154TIP3    H2 6406   2.237   4.756   6.279
 2155TIP3   OH2 6407   5.954   2.302   4.401
 2155TIP3    H1 6408   5.904   2.382   4.419
 2155TIP3    H2 6409   5.901   2.255   4.337
 2156TIP3   OH2 6410   7.774   7.690   3.528
 2156TIP3    H1 6411   7.804   7.725   3.612
 2156TIP3    H2 6412   7.679   7.702   3.529
 2157TIP3   OH2 6413   5.668   0.836   1.431
 2157TIP3    H1 6414   5.576   0.832   1.458
 2157TIP3    H2 6415   5.688   0.930   1.428
 2158TIP3   OH2 6416   6.314   4.320   4.623
 2158TIP3    H1 6417   6.299   4.231   4.655
 2158TIP3    H2 6418   6.228   4.350   4.594
 2159TIP3   OH2 6419   6.351   2.772   2.116
 2159TIP3    H1 6420   6.279   2.763   2.179
 2159TIP3    H2 6421   6.359   2.686   2.076
 2160TIP3   OH2 6422   7.654   1.083   2.791
 2160TIP3    H1 6423   7.637   1.044   2.705
 2160TIP3    H2 6424   7.691   1.169   2.772
 2161TIP3   OH2 6425   5.721   3.187   0.765
 2161TIP3    H1 6426   5.685   3.138   0.839
 2161TIP3    H2 6427   5.798   3.135   0.738
 2162TIP3   OH2 6428   4.058   4.085   2.410
 2162TIP3    H1 6429   4.052   4.055   2.319
 2162TIP3    H2 6430   3.998   4.160   2.415
 2163TIP3   OH2 6431   3.018   2.922   1.336
 2163TIP3    H1 6432   2.939   2.870   1.352
 2163TIP3    H2 6433   3.019   2.986   1.408
 2164TIP3   OH2 6434   7.556   1.961   3.206
 2164TIP3    H1 6435   7.510   2.001   3.280
 2164TIP3    H2 6436   7.646   1.990   3.215
 2165TIP3   OH2 6437   8.192   1.199   3.222
 2165TIP3    H1 6438   8.160   1.277   3.177
 2165TIP3    H2 6439   8.218   1.229   3.309
 2166TIP3   OH2 6440   1.768   3.420   6.489
 2166TIP3    H1 6441   1.778   3.377   6.574
 2166TIP3    H2 6442   1.732   3.506   6.510
 2167TIP3   OH2 6443   3.411   4.994   1.025
 2167TIP3    H1 6444   3.435   5.086   1.033
 2167TIP3    H2 6445   3.337   4.983   1.085
 2168TIP3   OH2 6446   4.592   7.789   6.537
 2168TIP3    H1 6447   4.683   7.802   6.508
 2168TIP3    H2 6448   4.577   7.859   6.601
 2169TIP3   OH2 6449   1.302   2.570   2.962
 2169TIP3    H1 6450   1.226   2.598   3.014
 2169TIP3    H2 6451   1.293   2.475   2.956
 2170TIP3   OH2 6452   6.377   3.150   4.270
 2170TIP3    H1 6453   6.412   3.097   4.341
 2170TIP3    H2 6454   6.439   3.223   4.261
 2171TIP3   OH2 6455   1.185   7.546   0.893
 2171TIP3    H1 6456   1.265   7.576   0.850
 2171TIP3    H2 6457   1.142   7.626   0.923
 2172TIP3   OH2 6458   4.232   2.482   5.446
 2172TIP3    H1 6459   4.234   2.522   5.533
 2172TIP3    H2 6460   4.278   2.544   5.390
 2173TIP3   OH2 6461   3.940   5.983   2.626
 2173TIP3    H1 6462   3.965   5.950   2.713
 2173TIP3    H2 6463   3.906   5.906   2.580
 2174TIP3   OH2 6464   1.196   5.866   3.782
 2174TIP3    H1 6465   1.272   5.849   3.728
 2174TIP3    H2 6466   1.133   5.798   3.758
 2175TIP3   OH2 6467   4.171   7.012   2.559
 2175TIP3    H1 6468   4.222   6.931   2.552
 2175TIP3    H2 6469   4.236   7.082   2.564
 2176TIP3   OH2 6470   4.240   5.778   1.521
 2176TIP3    H1 6471   4.199   5.851   1.475
 2176TIP3    H2 6472   4.174   5.708   1.518
 2177TIP3   OH2 6473   5.236   3.495   1.022
 2177TIP3    H1 6474   5.310   3.448   0.984
 2177TIP3    H2 6475   5.249   3.489   1.116
 2178TIP3   OH2 6476   6.628   7.474   2.411
 2178TIP3    H1 6477   6.616   7.523   2.492
 2178TIP3    H2 6478   6.553   7.415   2.408
 2179TIP3   OH2 6479   3.448   5.713   6.413
 2179TIP3    H1 6480   3.438   5.618   6.416
 2179TIP3    H2 6481   3.542   5.727   6.422
 2180TIP3   OH2 6482   5.236   1.531   1.121
 2180TIP3    H1 6483   5.210   1.441   1.097
 2180TIP3    H2 6484   5.170   1.586   1.079
 2181TIP3   OH2 6485   7.955   5.956   3.279
 2181TIP3    H1 6486   7.963   6.046   3.247
 2181TIP3    H2 6487   8.033   5.944   3.334
 2182TIP3   OH2 6488   6.197   1.140   3.430
 2182TIP3    H1 6489   6.253   1.153   3.507
 2182TIP3    H2 6490   6.236   1.065   3.385
 2183TIP3   OH2 6491   2.994   6.497   1.125
 2183TIP3    H1 6492   2.908   6.455   1.131
 2183TIP3    H2 6493   3.044   6.442   1.065
 2184TIP3   OH2 6494   0.782   2.879   5.430
 2184TIP3    H1 6495   0.795   2.850   5.340
 2184TIP3    H2 6496   0.705   2.936   5.425
 2185TIP3   OH2 6497   5.428   7.806   6.478
 2185TIP3    H1 6498   5.389   7.724   6.509
 2185TIP3    H2 6499   5.386   7.874   6.530
 2186TIP3   OH2 6500   7.326   4.592   4.120
 2186TIP3    H1 6501   7.238   4.589   4.083
 2186TIP3    H2 6502   7.356   4.501   4.115
 2187TIP3   OH2 6503   0.477   2.913   3.856
 2187TIP3    H1 6504   0.477   3.003   3.888
 2187TIP3    H2 6505   0.427   2.864   3.921
 2188TIP3   OH2 6506   6.802   5.803   4.999
 2188TIP3    H1 6507   6.849   5.826   5.079
 2188TIP3    H2 6508   6.711   5.827   5.017
 2189TIP3   OH2 6509   0.475   2.896   5.076
 2189TIP3    H1 6510   0.452   2.989   5.069
 2189TIP3    H2 6511   0.392   2.849   5.066
 2190TIP3   OH2 6512   0.730   1.879   2.208
 2190TIP3    H1 6513   0.690   1.811   2.153
 2190TIP3    H2 6514   0.808   1.905   2.160
 2191TIP3   OH2 6515   4.852   5.483   0.641
 2191TIP3    H1 6516   4.921   5.432   0.600
 2191TIP3    H2 6517   4.873   5.574   0.618
 2192TIP3   OH2 6518   2.474   7.260   6.026
 2192TIP3    H1 6519   2.515   7.213   6.098
 2192TIP3    H2 6520   2.543   7.316   5.991
 2193TIP3   OH2 6521   4.136   2.200   6.629
 2193TIP3    H1 6522   4.188   2.158   6.698
 2193TIP3    H2 6523   4.147   2.143   6.553
 2194TIP3   OH2 6524   2.512   5.981   5.158
 2194TIP3    H1 6525   2.606   5.961   5.152
 2194TIP3    H2 6526   2.489   6.013   5.071
 2195TIP3   OH2 6527   5.249   2.790   3.390
 2195TIP3    H1 6528   5.244   2.800   3.295
 2195TIP3    H2 6529   5.292   2.869   3.421
 2196TIP3   OH2 6530   5.479   0.141   1.089
 2196TIP3    H1 6531   5.573   0.160   1.096
 2196TIP3    H2 6532   5.453   0.119   1.179
 2197TIP3   OH2 6533   2.853   3.267   4.809
 2197TIP3    H1 6534   2.847   3.236   4.900
 2197TIP3    H2 6535   2.765   3.295   4.787
 2198TIP3   OH2 6536   5.389   6.078   1.286
 2198TIP3    H1 6537   5.475   6.118   1.273
 2198TIP3    H2 6538   5.389   6.054   1.379
 2199TIP3   OH2 6539   5.123   0.301   5.769
 2199TIP3    H1 6540   5.051   0.354   5.736
 2199TIP3    H2 6541   5.189   0.365   5.797
 2200TIP3   OH2 6542   2.517   0.891   1.095
 2200TIP3    H1 6543   2.548   0.977   1.067
 2200TIP3    H2 6544   2.450   0.867   1.032
 2201TIP3   OH2 6545   2.608   3.508   6.013
 2201TIP3    H1 6546   2.636   3.428   6.057
 2201TIP3    H2 6547   2.638   3.579   6.070
 2202TIP3   OH2 6548   0.084   6.486   6.732
 2202TIP3    H1 6549   0.133   6.564   6.707
 2202TIP3    H2 6550   0.047   6.454   6.649
 2203TIP3   OH2 6551   5.581   5.015   6.609
 2203TIP3    H1 6552   5.606   4.992   6.519
 2203TIP3    H2 6553   5.655   5.065   6.643
 2204TIP3   OH2 6554   4.854   6.724   1.611
 2204TIP3    H1 6555   4.846   6.815   1.643
 2204TIP3    H2 6556   4.764   6.693   1.606
 2205TIP3   OH2 6557   4.787   5.482   5.223
 2205TIP3    H1 6558   4.817   5.417   5.287
 2205TIP3    H2 6559   4.721   5.532   5.271
 2206TIP3   OH2 6560   8.081   4.316   0.140
 2206TIP3    H1 6561   8.108   4.393   0.190
 2206TIP3    H2 6562   7.985   4.317   0.145
 2207TIP3   OH2 6563   0.389   4.813   5.456
 2207TIP3    H1 6564   0.466   4.778   5.411
 2207TIP3    H2 6565   0.338   4.854   5.386
 2208TIP3   OH2 6566   5.657   4.839   3.922
 2208TIP3    H1 6567   5.677   4.766   3.980
 2208TIP3    H2 6568   5.561   4.844   3.921
 2209TIP3   OH2 6569   2.840   5.921   4.829
 2209TIP3    H1 6570   2.754   5.881   4.846
 2209TIP3    H2 6571   2.898   5.847   4.812
 2210TIP3   OH2 6572   1.501   6.044   2.656
 2210TIP3    H1 6573   1.539   6.108   2.596
 2210TIP3    H2 6574   1.528   6.072   2.743
 2211TIP3   OH2 6575   6.327   1.852   0.562
 2211TIP3    H1 6576   6.380   1.811   0.494
 2211TIP3    H2 6577   6.309   1.940   0.529
 2212TIP3   OH2 6578   7.799   3.761   1.034
 2212TIP3    H1 6579   7.785   3.694   1.101
 2212TIP3    H2 6580   7.752   3.727   0.957
 2213TIP3   OH2 6581   4.504   0.772   0.762
 2213TIP3    H1 6582   4.441   0.824   0.712
 2213TIP3    H2 6583   4.588   0.813   0.744
 2214TIP3   OH2 6584   4.310   0.655   1.294
 2214TIP3    H1 6585   4.345   0.737   1.258
 2214TIP3    H2 6586   4.380   0.623   1.351
 2215TIP3   OH2 6587   5.979   0.982   1.413
 2215TIP3    H1 6588   6.024   1.065   1.426
 2215TIP3    H2 6589   5.889   0.999   1.442
 2216TIP3   OH2 6590   7.894   2.754   4.746
 2216TIP3    H1 6591   7.849   2.717   4.821
 2216TIP3    H2 6592   7.900   2.848   4.765
 2217TIP3   OH2 6593   2.285   3.472   6.391
 2217TIP3    H1 6594   2.211   3.481   6.451
 2217TIP3    H2 6595   2.251   3.420   6.319
 2218TIP3   OH2 6596   4.878   1.882   4.199
 2218TIP3    H1 6597   4.946   1.845   4.255
 2218TIP3    H2 6598   4.884   1.976   4.213
 2219TIP3   OH2 6599   3.469   6.838   2.028
 2219TIP3    H1 6600   3.544   6.822   1.972
 2219TIP3    H2 6601   3.460   6.758   2.080
 2220TIP3   OH2 6602   7.186   2.095   0.391
 2220TIP3    H1 6603   7.281   2.083   0.394
 2220TIP3    H2 6604   7.172   2.147   0.311
 2221TIP3   OH2 6605   1.608   2.540   4.123
 2221TIP3    H1 6606   1.664   2.471   4.088
 2221TIP3    H2 6607   1.542   2.495   4.175
 2222TIP3   OH2 6608   0.463   2.089   1.866
 2222TIP3    H1 6609   0.464   2.010   1.812
 2222TIP3    H2 6610   0.451   2.056   1.956
 2223TIP3   OH2 6611   6.091   4.982   0.700
 2223TIP3    H1 6612   6.180   4.952   0.682
 2223TIP3    H2 6613   6.098   5.077   0.705
 2224TIP3   OH2 6614   4.592   3.081   5.411
 2224TIP3    H1 6615   4.522   3.144   5.392
 2224TIP3    H2 6616   4.664   3.108   5.354
 2225TIP3   OH2 6617   0.381   1.863   0.512
 2225TIP3    H1 6618   0.293   1.900   0.502
 2225TIP3    H2 6619   0.415   1.858   0.422
 2226TIP3   OH2 6620   6.796   5.291   0.645
 2226TIP3    H1 6621   6.881   5.302   0.688
 2226TIP3    H2 6622   6.797   5.355   0.574
 2227TIP3   OH2 6623   6.067   2.147   3.277
 2227TIP3    H1 6624   6.139   2.199   3.243
 2227TIP3    H2 6625   6.090   2.056   3.256
 2228TIP3   OH2 6626   5.540   5.033   5.823
 2228TIP3    H1 6627   5.564   4.940   5.825
 2228TIP3    H2 6628   5.470   5.038   5.758
 2229TIP3   OH2 6629   5.611   1.415   6.238
 2229TIP3    H1 6630   5.552   1.400   6.164
 2229TIP3    H2 6631   5.697   1.424   6.198
 2230TIP3   OH2 6632   3.370   0.631   3.099
 2230TIP3    H1 6633   3.466   0.633   3.106
 2230TIP3    H2 6634   3.339   0.657   3.186
 2231TIP3   OH2 6635   0.140   5.510   4.012
 2231TIP3    H1 6636   0.201   5.542   4.079
 2231TIP3    H2 6637   0.056   5.548   4.036
 2232TIP3   OH2 6638   3.571   2.966   5.489
 2232TIP3    H1 6639   3.633   2.980   5.561
 2232TIP3    H2 6640   3.601   2.884   5.447
 2233TIP3   OH2 6641   3.727   4.889   2.425
 2233TIP3    H1 6642   3.752   4.981   2.415
 2233TIP3    H2 6643   3.692   4.864   2.339
 2234TIP3   OH2 6644   5.178   4.681   4.629
 2234TIP3    H1 6645   5.226   4.647   4.704
 2234TIP3    H2 6646   5.235   4.661   4.554
 2235TIP3   OH2 6647   7.459   1.719   1.035
 2235TIP3    H1 6648   7.524   1.762   1.091
 2235TIP3    H2 6649   7.508   1.692   0.958
 2236TIP3   OH2 6650   0.086   3.912   1.909
 2236TIP3    H1 6651   0.112   3.984   1.967
 2236TIP3    H2 6652   0.004   3.880   1.947
 2237TIP3   OH2 6653   8.129   6.444   3.390
 2237TIP3    H1 6654   8.167   6.493   3.316
 2237TIP3    H2 6655   8.091   6.512   3.446
 2238TIP3   OH2 6656   3.307   0.201   2.052
 2238TIP3    H1 6657   3.282   0.110   2.037
 2238TIP3    H2 6658   3.309   0.210   2.148
 2239TIP3   OH2 6659   0.916   6.177   1.239
 2239TIP3    H1 6660   0.944   6.091   1.208
 2239TIP3    H2 6661   0.995   6.217   1.276
 2240TIP3   OH2 6662   5.525   1.840   4.948
 2240TIP3    H1 6663   5.442   1.887   4.943
 2240TIP3    H2 6664   5.500   1.748   4.952
 2241TIP3   OH2 6665   0.223   1.117   5.430
 2241TIP3    H1 6666   0.136   1.131   5.468
 2241TIP3    H2 6667   0.253   1.034   5.469
 2242TIP3   OH2 6668   1.602   5.381   2.903
 2242TIP3    H1 6669   1.659   5.430   2.962
 2242TIP3    H2 6670   1.660   5.348   2.835
 2243TIP3   OH2 6671   5.280   0.675   3.639
 2243TIP3    H1 6672   5.212   0.632   3.587
 2243TIP3    H2 6673   5.253   0.767   3.641
 2244TIP3   OH2 6674   2.421   4.457   1.361
 2244TIP3    H1 6675   2.425   4.364   1.382
 2244TIP3    H2 6676   2.503   4.493   1.394
 2245TIP3   OH2 6677   1.939   6.563   6.118
 2245TIP3    H1 6678   1.893   6.551   6.201
 2245TIP3    H2 6679   1.871   6.591   6.057
 2246TIP3   OH2 6680   1.826   6.160   1.518
 2246TIP3    H1 6681   1.812   6.184   1.609
 2246TIP3    H2 6682   1.919   6.179   1.503
 2247TIP3   OH2 6683   4.624   6.103   0.787
 2247TIP3    H1 6684   4.621   6.069   0.876
 2247TIP3    H2 6685   4.606   6.026   0.732
 2248TIP3   OH2 6686   0.644   5.170   6.106
 2248TIP3    H1 6687   0.648   5.079   6.137
 2248TIP3    H2 6688   0.681   5.166   6.018
 2249TIP3   OH2 6689   3.869   1.273   5.203
 2249TIP3    H1 6690   3.912   1.339   5.258
 2249TIP3    H2 6691   3.848   1.320   5.122
 2250TIP3   OH2 6692   1.334   3.763   6.273
 2250TIP3    H1 6693   1.353   3.824   6.201
 2250TIP3    H2 6694   1.267   3.704   6.237
 2251TIP3   OH2 6695   4.451   4.272   4.624
 2251TIP3    H1 6696   4.458   4.357   4.581
 2251TIP3    H2 6697   4.490   4.211   4.562
 2252TIP3   OH2 6698   3.210   3.746   6.308
 2252TIP3    H1 6699   3.255   3.676   6.356
 2252TIP3    H2 6700   3.245   3.826   6.346
 2253TIP3   OH2 6701   2.550   3.076   4.771
 2253TIP3    H1 6702   2.598   3.048   4.693
 2253TIP3    H2 6703   2.459   3.084   4.742
 2254TIP3   OH2 6704   5.023   7.222   1.287
 2254TIP3    H1 6705   5.080   7.289   1.248
 2254TIP3    H2 6706   4.969   7.191   1.214
 2255TIP3   OH2 6707   5.684   4.132   5.384
 2255TIP3    H1 6708   5.752   4.121   5.317
 2255TIP3    H2 6709   5.694   4.223   5.413
 2256TIP3   OH2 6710   5.154   6.893   0.123
 2256TIP3    H1 6711   5.171   6.821   0.184
 2256TIP3    H2 6712   5.221   6.958   0.143
 2257TIP3   OH2 6713   6.414   1.705   2.903
 2257TIP3    H1 6714   6.479   1.649   2.862
 2257TIP3    H2 6715   6.432   1.698   2.997
 2258TIP3   OH2 6716   5.413   7.547   1.504
 2258TIP3    H1 6717   5.465   7.468   1.496
 2258TIP3    H2 6718   5.322   7.516   1.505
 2259TIP3   OH2 6719   7.897   1.900   5.665
 2259TIP3    H1 6720   7.889   1.972   5.603
 2259TIP3    H2 6721   7.870   1.937   5.749
 2260TIP3   OH2 6722   0.966   3.686   5.965
 2260TIP3    H1 6723   0.975   3.767   5.914
 2260TIP3    H2 6724   0.873   3.683   5.989
 2261TIP3   OH2 6725   4.084   3.341   6.011
 2261TIP3    H1 6726   4.016   3.371   6.071
 2261TIP3    H2 6727   4.079   3.246   6.015
 2262TIP3   OH2 6728   0.947   1.844   0.534
 2262TIP3    H1 6729   0.870   1.797   0.566
 2262TIP3    H2 6730   0.997   1.779   0.485
 2263TIP3   OH2 6731   2.408   5.089   0.117
 2263TIP3    H1 6732   2.491   5.135   0.124
 2263TIP3    H2 6733   2.380   5.074   0.207
 2264TIP3   OH2 6734   5.512   1.020   3.065
 2264TIP3    H1 6735   5.546   1.109   3.067
 2264TIP3    H2 6736   5.456   1.014   3.143
 2265TIP3   OH2 6737   4.400   5.085   1.653
 2265TIP3    H1 6738   4.324   5.044   1.613
 2265TIP3    H2 6739   4.377   5.092   1.746
 2266TIP3   OH2 6740   0.096   7.780   2.692
 2266TIP3    H1 6741   0.034   7.846   2.661
 2266TIP3    H2 6742   0.070   7.699   2.649
 2267TIP3   OH2 6743   3.248   1.333   5.660
 2267TIP3    H1 6744   3.183   1.289   5.606
 2267TIP3    H2 6745   3.268   1.414   5.612
 2268TIP3   OH2 6746   0.440   0.850   0.757
 2268TIP3    H1 6747   0.524   0.858   0.803
 2268TIP3    H2 6748   0.450   0.774   0.700
 2269TIP3   OH2 6749   6.369   1.731   1.531
 2269TIP3    H1 6750   6.364   1.783   1.451
 2269TIP3    H2 6751   6.392   1.643   1.503
 2270TIP3   OH2 6752   4.542   3.424   2.863
 2270TIP3    H1 6753   4.539   3.329   2.878
 2270TIP3    H2 6754   4.540   3.434   2.768
 2271TIP3   OH2 6755   6.642   4.027   5.594
 2271TIP3    H1 6756   6.700   4.089   5.550
 2271TIP3    H2 6757   6.587   4.082   5.651
 2272TIP3   OH2 6758   1.931   1.061   1.107
 2272TIP3    H1 6759   1.891   1.049   1.193
 2272TIP3    H2 6760   1.975   0.978   1.089
 2273TIP3   OH2 6761   6.453   1.298   2.687
 2273TIP3    H1 6762   6.431   1.291   2.594
 2273TIP3    H2 6763   6.417   1.219   2.726
 2274TIP3   OH2 6764   2.713   0.744   4.505
 2274TIP3    H1 6765   2.772   0.668   4.505
 2274TIP3    H2 6766   2.705   0.766   4.598
 2275TIP3   OH2 6767   2.818   5.383   4.028
 2275TIP3    H1 6768   2.856   5.470   4.022
 2275TIP3    H2 6769   2.893   5.323   4.027
 2276TIP3   OH2 6770   3.068   0.171   2.425
 2276TIP3    H1 6771   3.044   0.256   2.387
 2276TIP3    H2 6772   3.007   0.109   2.385
 2277TIP3   OH2 6773   0.825   3.887   0.748
 2277TIP3    H1 6774   0.733   3.901   0.767
 2277TIP3    H2 6775   0.848   3.807   0.796
 2278TIP3   OH2 6776   4.266   4.569   1.314
 2278TIP3    H1 6777   4.326   4.496   1.326
 2278TIP3    H2 6778   4.217   4.574   1.396
 2279TIP3   OH2 6779   6.991   2.926   1.875
 2279TIP3    H1 6780   7.009   2.852   1.817
 2279TIP3    H2 6781   7.078   2.953   1.907
 2280TIP3   OH2 6782   2.099   0.335   1.215
 2280TIP3    H1 6783   2.136   0.336   1.303
 2280TIP3    H2 6784   2.143   0.262   1.172
 2281TIP3   OH2 6785   7.271   7.425   3.527
 2281TIP3    H1 6786   7.241   7.342   3.566
 2281TIP3    H2 6787   7.192   7.478   3.521
 2282TIP3   OH2 6788   4.405   3.315   3.191
 2282TIP3    H1 6789   4.499   3.330   3.194
 2282TIP3    H2 6790   4.366   3.395   3.226
 2283TIP3   OH2 6791   4.157   1.600   0.928
 2283TIP3    H1 6792   4.103   1.612   1.006
 2283TIP3    H2 6793   4.237   1.558   0.961
 2284TIP3   OH2 6794   3.097   1.014   5.284
 2284TIP3    H1 6795   3.175   1.063   5.310
 2284TIP3    H2 6796   3.048   1.074   5.228
 2285TIP3   OH2 6797   2.606   0.899   0.209
 2285TIP3    H1 6798   2.621   0.930   0.120
 2285TIP3    H2 6799   2.579   0.977   0.257
 2286TIP3   OH2 6800   8.064   4.593   4.035
 2286TIP3    H1 6801   7.968   4.592   4.035
 2286TIP3    H2 6802   8.089   4.541   3.959
 2287TIP3   OH2 6803   4.073   7.409   2.327
 2287TIP3    H1 6804   3.985   7.393   2.293
 2287TIP3    H2 6805   4.059   7.443   2.415
 2288TIP3   OH2 6806   5.957   7.285   0.480
 2288TIP3    H1 6807   6.040   7.254   0.445
 2288TIP3    H2 6808   5.902   7.206   0.485
 2289TIP3   OH2 6809   3.423   3.437   6.609
 2289TIP3    H1 6810   3.470   3.474   6.684
 2289TIP3    H2 6811   3.490   3.390   6.560
 2290TIP3   OH2 6812   1.370   2.834   4.687
 2290TIP3    H1 6813   1.337   2.746   4.707
 2290TIP3    H2 6814   1.448   2.818   4.634
 2291TIP3   OH2 6815   6.592   4.022   0.659
 2291TIP3    H1 6816   6.602   4.113   0.632
 2291TIP3    H2 6817   6.614   3.971   0.582
 2292TIP3   OH2 6818   2.062   4.834   3.203
 2292TIP3    H1 6819   2.018   4.842   3.118
 2292TIP3    H2 6820   2.000   4.784   3.256
 2293TIP3   OH2 6821   2.844   0.216   3.830
 2293TIP3    H1 6822   2.757   0.207   3.869
 2293TIP3    H2 6823   2.859   0.132   3.786
 2294TIP3   OH2 6824   2.326   1.594   2.971
 2294TIP3    H1 6825   2.273   1.670   2.949
 2294TIP3    H2 6826   2.416   1.626   2.972
 2295TIP3   OH2 6827   0.495   4.063   3.968
 2295TIP3    H1 6828   0.553   3.994   3.936
 2295TIP3    H2 6829   0.408   4.037   3.938
 2296TIP3   OH2 6830   5.813   6.092   0.912
 2296TIP3    H1 6831   5.856   6.009   0.892
 2296TIP3    H2 6832   5.883   6.156   0.913
 2297TIP3   OH2 6833   1.399   0.318   6.241
 2297TIP3    H1 6834   1.378   0.237   6.193
 2297TIP3    H2 6835   1.386   0.388   6.177
 2298TIP3   OH2 6836   7.626   2.712   0.197
 2298TIP3    H1 6837   7.533   2.713   0.178
 2298TIP3    H2 6838   7.640   2.791   0.251
 2299TIP3   OH2 6839   4.377   5.429   1.177
 2299TIP3    H1 6840   4.445   5.370   1.207
 2299TIP3    H2 6841   4.406   5.516   1.204
 2300TIP3   OH2 6842   5.389   2.405   2.461
 2300TIP3    H1 6843   5.346   2.469   2.517
 2300TIP3    H2 6844   5.323   2.337   2.447
 2301TIP3   OH2 6845   6.185   1.170   6.475
 2301TIP3    H1 6846   6.114   1.135   6.422
 2301TIP3    H2 6847   6.146   1.243   6.523
 2302TIP3   OH2 6848   3.250   1.411   0.084
 2302TIP3    H1 6849   3.210   1.436   0.167
 2302TIP3    H2 6850   3.344   1.422   0.099
 2303TIP3   OH2 6851   3.112   2.416   3.841
 2303TIP3    H1 6852   3.197   2.446   3.809
 2303TIP3    H2 6853   3.122   2.411   3.936
 2304TIP3   OH2 6854   3.455   1.141   1.096
 2304TIP3    H1 6855   3.398   1.212   1.067
 2304TIP3    H2 6856   3.454   1.078   1.024
 2305TIP3   OH2 6857   6.614   3.035   1.200
 2305TIP3    H1 6858   6.608   2.964   1.136
 2305TIP3    H2 6859   6.694   3.082   1.176
 2306TIP3   OH2 6860   0.595   3.137   0.686
 2306TIP3    H1 6861   0.607   3.049   0.722
 2306TIP3    H2 6862   0.673   3.185   0.711
 2307TIP3   OH2 6863   6.128   6.397   4.990
 2307TIP3    H1 6864   6.146   6.358   4.905
 2307TIP3    H2 6865   6.162   6.486   4.984
 2308TIP3   OH2 6866   0.599   5.751   4.453
 2308TIP3    H1 6867   0.664   5.797   4.400
 2308TIP3    H2 6868   0.579   5.672   4.403
 2309TIP3   OH2 6869   7.526   3.560   2.005
 2309TIP3    H1 6870   7.584   3.610   1.948
 2309TIP3    H2 6871   7.552   3.587   2.094
 2310TIP3   OH2 6872   7.551   7.612   2.206
 2310TIP3    H1 6873   7.595   7.640   2.287
 2310TIP3    H2 6874   7.463   7.586   2.234
 2311TIP3   OH2 6875   3.964   0.921   0.622
 2311TIP3    H1 6876   3.869   0.931   0.627
 2311TIP3    H2 6877   3.989   0.965   0.540
 2312TIP3   OH2 6878   4.896   2.947   5.749
 2312TIP3    H1 6879   4.862   2.875   5.696
 2312TIP3    H2 6880   4.972   2.979   5.700
 2313TIP3   OH2 6881   2.183   3.519   0.747
 2313TIP3    H1 6882   2.223   3.530   0.833
 2313TIP3    H2 6883   2.214   3.594   0.696
 2314TIP3   OH2 6884   4.088   6.317   5.943
 2314TIP3    H1 6885   4.171   6.363   5.934
 2314TIP3    H2 6886   4.075   6.271   5.860
 2315TIP3   OH2 6887   7.975   0.793   5.852
 2315TIP3    H1 6888   7.945   0.721   5.907
 2315TIP3    H2 6889   8.026   0.752   5.783
 2316TIP3   OH2 6890   3.582   3.839   1.432
 2316TIP3    H1 6891   3.570   3.847   1.527
 2316TIP3    H2 6892   3.584   3.745   1.416
 2317TIP3   OH2 6893   5.397   3.976   4.700
 2317TIP3    H1 6894   5.430   3.968   4.610
 2317TIP3    H2 6895   5.470   3.946   4.754
 2318TIP3   OH2 6896   4.106   1.782   3.780
 2318TIP3    H1 6897   4.124   1.702   3.731
 2318TIP3    H2 6898   4.015   1.772   3.808
 2319TIP3   OH2 6899   5.604   5.569   4.565
 2319TIP3    H1 6900   5.582   5.661   4.579
 2319TIP3    H2 6901   5.524   5.522   4.589
 2320TIP3   OH2 6902   2.928   7.266   1.672
 2320TIP3    H1 6903   2.949   7.214   1.594
 2320TIP3    H2 6904   2.999   7.329   1.678
 2321TIP3   OH2 6905   6.201   3.509   6.022
 2321TIP3    H1 6906   6.240   3.465   5.946
 2321TIP3    H2 6907   6.109   3.482   6.019
 2322TIP3   OH2 6908   0.475   3.185   3.945
 2322TIP3    H1 6909   0.402   3.246   3.946
 2322TIP3    H2 6910   0.519   3.202   3.861
 2323TIP3   OH2 6911   3.946   6.087   3.796
 2323TIP3    H1 6912   4.007   6.026   3.753
 2323TIP3    H2 6913   3.899   6.127   3.723
 2324TIP3   OH2 6914   7.372   4.494   0.655
 2324TIP3    H1 6915   7.409   4.553   0.721
 2324TIP3    H2 6916   7.278   4.498   0.669
 2325TIP3   OH2 6917   1.207   1.642   6.662
 2325TIP3    H1 6918   1.271   1.710   6.641
 2325TIP3    H2 6919   1.254   1.583   6.721
 2326TIP3   OH2 6920   1.909   6.315   4.605
 2326TIP3    H1 6921   1.916   6.404   4.572
 2326TIP3    H2 6922   1.970   6.311   4.678
 2327TIP3   OH2 6923   7.384   4.543   1.905
 2327TIP3    H1 6924   7.417   4.535   1.815
 2327TIP3    H2 6925   7.302   4.592   1.895
 2328TIP3   OH2 6926   4.887   2.002   0.198
 2328TIP3    H1 6927   4.792   2.006   0.193
 2328TIP3    H2 6928   4.905   1.963   0.284
 2329TIP3   OH2 6929   3.820   6.382   6.581
 2329TIP3    H1 6930   3.749   6.436   6.615
 2329TIP3    H2 6931   3.798   6.293   6.610
 2330TIP3   OH2 6932   7.544   5.812   4.411
 2330TIP3    H1 6933   7.476   5.745   4.417
 2330TIP3    H2 6934   7.532   5.865   4.490
 2331TIP3   OH2 6935   0.663   0.835   0.925
 2331TIP3    H1 6936   0.671   0.931   0.927
 2331TIP3    H2 6937   0.696   0.806   1.010
 2332TIP3   OH2 6938   3.254   2.523   5.474
 2332TIP3    H1 6939   3.241   2.576   5.395
 2332TIP3    H2 6940   3.166   2.508   5.507
 2333TIP3   OH2 6941   3.303   4.762   0.207
 2333TIP3    H1 6942   3.290   4.671   0.234
 2333TIP3    H2 6943   3.217   4.789   0.175
 2334TIP3   OH2 6944   8.264   1.001   6.134
 2334TIP3    H1 6945   8.170   1.012   6.145
 2334TIP3    H2 6946   8.302   1.036   6.214
 2335TIP3   OH2 6947   3.028   5.543   2.115
 2335TIP3    H1 6948   2.964   5.528   2.185
 2335TIP3    H2 6949   2.980   5.524   2.035
 2336TIP3   OH2 6950   8.187   2.239   2.155
 2336TIP3    H1 6951   8.168   2.302   2.086
 2336TIP3    H2 6952   8.170   2.154   2.114
 2337TIP3   OH2 6953   5.882   7.106   3.231
 2337TIP3    H1 6954   5.820   7.100   3.158
 2337TIP3    H2 6955   5.967   7.120   3.188
 2338TIP3   OH2 6956   4.064   1.110   6.297
 2338TIP3    H1 6957   4.102   1.027   6.327
 2338TIP3    H2 6958   3.975   1.087   6.270
 2339TIP3   OH2 6959   2.600   6.672   2.551
 2339TIP3    H1 6960   2.527   6.613   2.538
 2339TIP3    H2 6961   2.561   6.760   2.550
 2340TIP3   OH2 6962   1.423   2.285   5.751
 2340TIP3    H1 6963   1.378   2.367   5.732
 2340TIP3    H2 6964   1.411   2.233   5.672
 2341TIP3   OH2 6965   7.106   7.686   4.900
 2341TIP3    H1 6966   7.130   7.775   4.873
 2341TIP3    H2 6967   7.190   7.644   4.917
 2342TIP3   OH2 6968   0.149   6.965   5.457
 2342TIP3    H1 6969   0.078   6.907   5.430
 2342TIP3    H2 6970   0.105   7.047   5.480
 2343TIP3   OH2 6971   0.271   1.451   4.798
 2343TIP3    H1 6972   0.273   1.437   4.893
 2343TIP3    H2 6973   0.296   1.543   4.788
 2344TIP3   OH2 6974   6.336   2.421   6.509
 2344TIP3    H1 6975   6.371   2.459   6.589
 2344TIP3    H2 6976   6.393   2.453   6.439
 2345TIP3   OH2 6977   1.941   0.848   2.619
 2345TIP3    H1 6978   1.848   0.859   2.640
 2345TIP3    H2 6979   1.943   0.843   2.523
 2346TIP3   OH2 6980   7.999   3.895   3.166
 2346TIP3    H1 6981   7.906   3.906   3.149
 2346TIP3    H2 6982   8.003   3.862   3.256
 2347TIP3   OH2 6983   5.394   3.844   6.300
 2347TIP3    H1 6984   5.415   3.758   6.265
 2347TIP3    H2 6985   5.332   3.827   6.371
 2348TIP3   OH2 6986   4.467   5.688   2.927
 2348TIP3    H1 6987   4.396   5.664   2.986
 2348TIP3    H2 6988   4.438   5.768   2.884
 2349TIP3   OH2 6989   8.050   3.844   1.791
 2349TIP3    H1 6990   8.020   3.791   1.866
 2349TIP3    H2 6991   8.098   3.917   1.831
 2350TIP3   OH2 6992   6.025   1.648   5.725
 2350TIP3    H1 6993   6.029   1.566   5.677
 2350TIP3    H2 6994   6.067   1.628   5.809
 2351TIP3   OH2 6995   1.950   5.326   4.058
 2351TIP3    H1 6996   1.971   5.238   4.091
 2351TIP3    H2 6997   2.030   5.355   4.016
 2352TIP3   OH2 6998   8.193   4.250   0.745
 2352TIP3    H1 6999   8.217   4.274   0.655
 2352TIP3    H2 7000   8.192   4.155   0.745
 2353TIP3   OH2 7001   6.240   3.212   3.331
 2353TIP3    H1 7002   6.258   3.259   3.249
 2353TIP3    H2 7003   6.325   3.208   3.376
 2354TIP3   OH2 7004   2.485   0.522   5.235
 2354TIP3    H1 7005   2.394   0.518   5.204
 2354TIP3    H2 7006   2.526   0.444   5.197
 2355TIP3   OH2 7007   3.224   5.799   1.288
 2355TIP3    H1 7008   3.146   5.811   1.233
 2355TIP3    H2 7009   3.211   5.713   1.329
 2356TIP3   OH2 7010   1.239   1.433   6.360
 2356TIP3    H1 7011   1.297   1.399   6.292
 2356TIP3    H2 7012   1.270   1.393   6.441
 2357TIP3   OH2 7013   2.211   5.406   5.468
 2357TIP3    H1 7014   2.273   5.456   5.521
 2357TIP3    H2 7015   2.266   5.349   5.414
 2358TIP3   OH2 7016   1.751   6.128   1.938
 2358TIP3    H1 7017   1.718   6.190   2.003
 2358TIP3    H2 7018   1.813   6.073   1.987
 2359TIP3   OH2 7019   5.502   6.116   5.144
 2359TIP3    H1 7020   5.473   6.207   5.148
 2359TIP3    H2 7021   5.436   6.072   5.091
 2360TIP3   OH2 7022   2.173   7.584   6.725
 2360TIP3    H1 7023   2.267   7.600   6.736
 2360TIP3    H2 7024   2.132   7.668   6.742
 2361TIP3   OH2 7025   1.881   4.168   2.345
 2361TIP3    H1 7026   1.796   4.153   2.388
 2361TIP3    H2 7027   1.905   4.083   2.311
 2362TIP3   OH2 7028   5.714   0.677   6.353
 2362TIP3    H1 7029   5.708   0.598   6.406
 2362TIP3    H2 7030   5.796   0.667   6.304
 2363TIP3   OH2 7031   4.610   4.974   1.176
 2363TIP3    H1 7032   4.642   4.937   1.258
 2363TIP3    H2 7033   4.662   4.930   1.108
 2364TIP3   OH2 7034   2.917   1.953   2.228
 2364TIP3    H1 7035   2.992   1.982   2.279
 2364TIP3    H2 7036   2.905   2.022   2.162
 2365TIP3   OH2 7037   5.478   0.159   2.098
 2365TIP3    H1 7038   5.499   0.097   2.167
 2365TIP3    H2 7039   5.394   0.197   2.123
 2366TIP3   OH2 7040   8.029   0.589   0.111
 2366TIP3    H1 7041   8.072   0.534   0.177
 2366TIP3    H2 7042   8.068   0.675   0.122
 2367TIP3   OH2 7043   4.087   5.180   6.445
 2367TIP3    H1 7044   4.092   5.084   6.448
 2367TIP3    H2 7045   3.995   5.199   6.457
 2368TIP3   OH2 7046   1.202   0.136   1.230
 2368TIP3    H1 7047   1.175   0.184   1.153
 2368TIP3    H2 7048   1.271   0.077   1.199
 2369TIP3   OH2 7049   0.189   4.209   3.562
 2369TIP3    H1 7050   0.259   4.155   3.600
 2369TIP3    H2 7051   0.178   4.176   3.473
 2370TIP3   OH2 7052   4.502   7.343   5.983
 2370TIP3    H1 7053   4.441   7.294   6.038
 2370TIP3    H2 7054   4.506   7.294   5.901
 2371TIP3   OH2 7055   5.344   3.419   3.931
 2371TIP3    H1 7056   5.396   3.496   3.906
 2371TIP3    H2 7057   5.339   3.368   3.850
 2372TIP3   OH2 7058   3.893   7.440   6.753
 2372TIP3    H1 7059   3.944   7.373   6.797
 2372TIP3    H2 7060   3.814   7.449   6.806
 2373TIP3   OH2 7061   5.761   2.569   5.383
 2373TIP3    H1 7062   5.755   2.495   5.324
 2373TIP3    H2 7063   5.712   2.639   5.340
 2374TIP3   OH2 7064   1.589   0.335   4.453
 2374TIP3    H1 7065   1.527   0.406   4.468
 2374TIP3    H2 7066   1.567   0.304   4.365
 2375TIP3   OH2 7067   4.875   3.011   0.665
 2375TIP3    H1 7068   4.815   2.939   0.645
 2375TIP3    H2 7069   4.907   3.040   0.580
 2376TIP3   OH2 7070   7.805   6.041   0.812
 2376TIP3    H1 7071   7.795   6.010   0.723
 2376TIP3    H2 7072   7.716   6.054   0.844
 2377TIP3   OH2 7073   0.395   4.708   6.070
 2377TIP3    H1 7074   0.385   4.624   6.026
 2377TIP3    H2 7075   0.459   4.756   6.017
 2378TIP3   OH2 7076   6.101   3.185   6.031
 2378TIP3    H1 7077   6.047   3.262   6.053
 2378TIP3    H2 7078   6.070   3.117   6.090
 2379TIP3   OH2 7079   1.204   1.854   1.178
 2379TIP3    H1 7080   1.130   1.834   1.120
 2379TIP3    H2 7081   1.280   1.818   1.132
 2380TIP3   OH2 7082   7.816   1.285   5.963
 2380TIP3    H1 7083   7.739   1.333   5.932
 2380TIP3    H2 7084   7.817   1.205   5.910
 2381TIP3   OH2 7085   5.146   6.221   1.903
 2381TIP3    H1 7086   5.095   6.299   1.880
 2381TIP3    H2 7087   5.226   6.255   1.941
 2382TIP3   OH2 7088   5.759   5.096   2.991
 2382TIP3    H1 7089   5.755   5.027   3.057
 2382TIP3    H2 7090   5.699   5.066   2.922
 2383TIP3   OH2 7091   5.745   7.366   5.048
 2383TIP3    H1 7092   5.790   7.282   5.041
 2383TIP3    H2 7093   5.661   7.353   5.004
 2384TIP3   OH2 7094   8.182   3.984   0.753
 2384TIP3    H1 7095   8.099   3.935   0.755
 2384TIP3    H2 7096   8.240   3.931   0.698
 2385TIP3   OH2 7097   5.821   6.483   2.288
 2385TIP3    H1 7098   5.783   6.564   2.323
 2385TIP3    H2 7099   5.806   6.418   2.357
 2386TIP3   OH2 7100   5.425   4.299   6.060
 2386TIP3    H1 7101   5.402   4.284   6.152
 2386TIP3    H2 7102   5.388   4.385   6.039
 2387TIP3   OH2 7103   6.822   0.601   2.678
 2387TIP3    H1 7104   6.861   0.614   2.591
 2387TIP3    H2 7105   6.765   0.677   2.689
 2388TIP3   OH2 7106   0.622   1.261   3.860
 2388TIP3    H1 7107   0.636   1.181   3.810
 2388TIP3    H2 7108   0.630   1.331   3.796
 2389TIP3   OH2 7109   4.881   4.021   2.547
 2389TIP3    H1 7110   4.872   3.940   2.495
 2389TIP3    H2 7111   4.894   4.089   2.481
 2390TIP3   OH2 7112   7.177   1.878   3.420
 2390TIP3    H1 7113   7.170   1.875   3.325
 2390TIP3    H2 7114   7.089   1.902   3.449
 2391TIP3   OH2 7115   1.607   3.728   0.484
 2391TIP3    H1 7116   1.538   3.757   0.544
 2391TIP3    H2 7117   1.678   3.791   0.495
 2392TIP3   OH2 7118   3.587   5.548   3.496
 2392TIP3    H1 7119   3.548   5.465   3.469
 2392TIP3    H2 7120   3.513   5.600   3.526
 2393TIP3   OH2 7121   5.983   7.443   6.541
 2393TIP3    H1 7122   5.962   7.535   6.528
 2393TIP3    H2 7123   6.079   7.439   6.539
 2394TIP3   OH2 7124   2.078   7.816   4.631
 2394TIP3    H1 7125   2.100   7.732   4.670
 2394TIP3    H2 7126   1.982   7.813   4.621
 2395TIP3   OH2 7127   2.650   4.680   3.473
 2395TIP3    H1 7128   2.740   4.667   3.443
 2395TIP3    H2 7129   2.615   4.591   3.482
 2396TIP3   OH2 7130   0.739   4.112   4.535
 2396TIP3    H1 7131   0.706   4.194   4.570
 2396TIP3    H2 7132   0.792   4.074   4.605
 2397TIP3   OH2 7133   5.417   3.195   0.153
 2397TIP3    H1 7134   5.489   3.137   0.126
 2397TIP3    H2 7135   5.459   3.278   0.174
 2398TIP3   OH2 7136   2.514   5.396   0.649
 2398TIP3    H1 7137   2.531   5.328   0.584
 2398TIP3    H2 7138   2.506   5.349   0.731
 2399TIP3   OH2 7139   5.355   6.933   1.016
 2399TIP3    H1 7140   5.369   6.987   1.094
 2399TIP3    H2 7141   5.357   6.843   1.048
 2400TIP3   OH2 7142   5.766   0.072   5.589
 2400TIP3    H1 7143   5.841   0.025   5.626
 2400TIP3    H2 7144   5.701   0.004   5.573
 2401TIP3   OH2 7145   5.032   6.730   3.258
 2401TIP3    H1 7146   5.028   6.818   3.222
 2401TIP3    H2 7147   5.122   6.702   3.242
 2402TIP3   OH2 7148   7.899   0.007   2.742
 2402TIP3    H1 7149   7.943  -0.073   2.712
 2402TIP3    H2 7150   7.815  -0.023   2.776
 2403TIP3   OH2 7151   3.335   6.811   3.658
 2403TIP3    H1 7152   3.344   6.779   3.568
 2403TIP3    H2 7153   3.268   6.755   3.697
 2404TIP3   OH2 7154   4.956   5.080   2.633
 2404TIP3    H1 7155   5.029   5.139   2.651
 2404TIP3    H2 7156   4.963   5.059   2.540
 2405TIP3   OH2 7157   5.103   2.599   4.546
 2405TIP3    H1 7158   5.041   2.648   4.601
 2405TIP3    H2 7159   5.180   2.589   4.602
 2406TIP3   OH2 7160   7.638   0.944   1.328
 2406TIP3    H1 7161   7.673   1.026   1.363
 2406TIP3    H2 7162   7.563   0.924   1.384
 2407TIP3   OH2 7163   7.886   4.349   5.369
 2407TIP3    H1 7164   7.932   4.433   5.371
 2407TIP3    H2 7165   7.840   4.350   5.284
 2408TIP3   OH2 7166   8.069   2.690   3.063
 2408TIP3    H1 7167   8.062   2.718   2.972
 2408TIP3    H2 7168   8.100   2.599   3.058
 2409TIP3   OH2 7169   7.431   2.066   5.645
 2409TIP3    H1 7170   7.355   2.097   5.596
 2409TIP3    H2 7171   7.412   1.974   5.664
 2410TIP3   OH2 7172   7.766   6.821   5.179
 2410TIP3    H1 7173   7.699   6.759   5.150
 2410TIP3    H2 7174   7.790   6.869   5.099
 2411TIP3   OH2 7175   0.726   3.728   4.409
 2411TIP3    H1 7176   0.668   3.794   4.372
 2411TIP3    H2 7177   0.811   3.771   4.414
 2412TIP3   OH2 7178   4.834   7.431   0.828
 2412TIP3    H1 7179   4.869   7.347   0.860
 2412TIP3    H2 7180   4.895   7.496   0.861
 2413TIP3   OH2 7181   1.835   3.476   2.766
 2413TIP3    H1 7182   1.900   3.447   2.831
 2413TIP3    H2 7183   1.790   3.395   2.740
 2414TIP3   OH2 7184   4.791   3.817   6.002
 2414TIP3    H1 7185   4.857   3.807   5.933
 2414TIP3    H2 7186   4.712   3.847   5.956
 2415TIP3   OH2 7187   8.004   3.803   0.414
 2415TIP3    H1 7188   7.984   3.831   0.503
 2415TIP3    H2 7189   7.954   3.863   0.358
 2416TIP3   OH2 7190   0.428   1.541   5.645
 2416TIP3    H1 7191   0.384   1.497   5.717
 2416TIP3    H2 7192   0.361   1.551   5.577
 2417TIP3   OH2 7193   4.777   0.867   0.675
 2417TIP3    H1 7194   4.863   0.828   0.689
 2417TIP3    H2 7195   4.791   0.931   0.604
 2418TIP3   OH2 7196   5.418   3.319   0.959
 2418TIP3    H1 7197   5.460   3.289   1.040
 2418TIP3    H2 7198   5.366   3.244   0.930
 2419TIP3   OH2 7199   0.334   5.677   1.906
 2419TIP3    H1 7200   0.282   5.604   1.939
 2419TIP3    H2 7201   0.342   5.737   1.981
 2420TIP3   OH2 7202   7.845   0.570   0.323
 2420TIP3    H1 7203   7.917   0.577   0.260
 2420TIP3    H2 7204   7.823   0.660   0.344
 2421TIP3   OH2 7205   2.142   7.633   1.675
 2421TIP3    H1 7206   2.138   7.612   1.582
 2421TIP3    H2 7207   2.054   7.663   1.697
 2422TIP3   OH2 7208   4.841   6.101   2.604
 2422TIP3    H1 7209   4.774   6.054   2.654
 2422TIP3    H2 7210   4.903   6.132   2.670
 2423TIP3   OH2 7211   2.330   2.785   1.339
 2423TIP3    H1 7212   2.337   2.880   1.346
 2423TIP3    H2 7213   2.247   2.771   1.293
 2424TIP3   OH2 7214   2.017   6.169   1.191
 2424TIP3    H1 7215   2.045   6.258   1.168
 2424TIP3    H2 7216   2.097   6.126   1.222
 2425TIP3   OH2 7217   6.602   7.228   4.296
 2425TIP3    H1 7218   6.654   7.201   4.372
 2425TIP3    H2 7219   6.657   7.291   4.250
 2426TIP3   OH2 7220   1.090   7.516   1.255
 2426TIP3    H1 7221   1.077   7.594   1.202
 2426TIP3    H2 7222   1.039   7.448   1.211
 2427TIP3   OH2 7223   2.335   7.198   3.491
 2427TIP3    H1 7224   2.391   7.261   3.444
 2427TIP3    H2 7225   2.326   7.125   3.430
 2428TIP3   OH2 7226   8.110   7.193   4.520
 2428TIP3    H1 7227   8.063   7.159   4.443
 2428TIP3    H2 7228   8.183   7.132   4.531
 2429TIP3   OH2 7229   3.638   6.849   6.382
 2429TIP3    H1 7230   3.666   6.764   6.415
 2429TIP3    H2 7231   3.667   6.852   6.291
 2430TIP3   OH2 7232   5.630   0.649   2.437
 2430TIP3    H1 7233   5.675   0.602   2.367
 2430TIP3    H2 7234   5.538   0.651   2.409
 2431TIP3   OH2 7235   1.709   3.050   2.940
 2431TIP3    H1 7236   1.707   3.144   2.958
 2431TIP3    H2 7237   1.707   3.044   2.845
 2432TIP3   OH2 7238   7.838   7.801   2.584
 2432TIP3    H1 7239   7.908   7.773   2.525
 2432TIP3    H2 7240   7.758   7.789   2.532
 2433TIP3   OH2 7241   4.831   7.123   5.974
 2433TIP3    H1 7242   4.915   7.135   5.930
 2433TIP3    H2 7243   4.837   7.178   6.052
 2434TIP3   OH2 7244   4.016   0.516   5.416
 2434TIP3    H1 7245   3.971   0.543   5.336
 2434TIP3    H2 7246   4.032   0.422   5.403
 2435TIP3   OH2 7247   1.108   4.208   1.429
 2435TIP3    H1 7248   1.068   4.267   1.493
 2435TIP3    H2 7249   1.042   4.140   1.415
 2436TIP3   OH2 7250   5.110   6.252   2.551
 2436TIP3    H1 7251   5.191   6.289   2.516
 2436TIP3    H2 7252   5.077   6.194   2.482
 2437TIP3   OH2 7253   7.932   4.501   4.846
 2437TIP3    H1 7254   7.923   4.595   4.829
 2437TIP3    H2 7255   7.955   4.463   4.762
 2438TIP3   OH2 7256   5.303   7.006   5.514
 2438TIP3    H1 7257   5.391   6.968   5.513
 2438TIP3    H2 7258   5.300   7.061   5.436
 2439TIP3   OH2 7259   2.420   0.173   0.011
 2439TIP3    H1 7260   2.437   0.235   0.083
 2439TIP3    H2 7261   2.331   0.142   0.027
 2440TIP3   OH2 7262   5.031   1.642   5.949
 2440TIP3    H1 7263   5.043   1.705   5.877
 2440TIP3    H2 7264   5.051   1.557   5.909
 2441TIP3   OH2 7265   3.708   2.899   3.080
 2441TIP3    H1 7266   3.655   2.937   3.150
 2441TIP3    H2 7267   3.730   2.812   3.112
 2442TIP3   OH2 7268   5.418   3.184   2.938
 2442TIP3    H1 7269   5.502   3.183   2.892
 2442TIP3    H2 7270   5.355   3.153   2.872
 2443TIP3   OH2 7271   3.266   7.511   1.966
 2443TIP3    H1 7272   3.310   7.502   2.051
 2443TIP3    H2 7273   3.330   7.556   1.910
 2444TIP3   OH2 7274   2.454   7.487   6.734
 2444TIP3    H1 7275   2.549   7.491   6.725
 2444TIP3    H2 7276   2.421   7.534   6.657
 2445TIP3   OH2 7277   6.802   0.848   3.263
 2445TIP3    H1 7278   6.870   0.818   3.324
 2445TIP3    H2 7279   6.838   0.830   3.176
 2446TIP3   OH2 7280   1.625   4.855   1.717
 2446TIP3    H1 7281   1.614   4.767   1.754
 2446TIP3    H2 7282   1.663   4.840   1.630
 2447TIP3   OH2 7283   6.627   2.469   6.601
 2447TIP3    H1 7284   6.675   2.420   6.666
 2447TIP3    H2 7285   6.574   2.531   6.651
 2448TIP3   OH2 7286   6.253   6.958   0.922
 2448TIP3    H1 7287   6.343   6.964   0.953
 2448TIP3    H2 7288   6.203   6.927   0.998
 2449TIP3   OH2 7289   1.156   6.278   1.320
 2449TIP3    H1 7290   1.246   6.257   1.342
 2449TIP3    H2 7291   1.159   6.299   1.226
 2450TIP3   OH2 7292   3.275   5.582   5.737
 2450TIP3    H1 7293   3.291   5.491   5.712
 2450TIP3    H2 7294   3.276   5.581   5.833
 2451TIP3   OH2 7295   1.979   2.235   3.206
 2451TIP3    H1 7296   2.001   2.202   3.293
 2451TIP3    H2 7297   2.002   2.328   3.209
 2452TIP3   OH2 7298   8.180   5.893   1.037
 2452TIP3    H1 7299   8.086   5.898   1.055
 2452TIP3    H2 7300   8.203   5.980   1.003
 2453TIP3   OH2 7301   2.922   3.474   2.412
 2453TIP3    H1 7302   2.935   3.502   2.502
 2453TIP3    H2 7303   3.010   3.469   2.375
 2454TIP3   OH2 7304   7.799   1.510   5.218
 2454TIP3    H1 7305   7.883   1.512   5.172
 2454TIP3    H2 7306   7.781   1.601   5.240
 2455TIP3   OH2 7307   7.326   3.553   5.228
 2455TIP3    H1 7308   7.289   3.532   5.314
 2455TIP3    H2 7309   7.270   3.508   5.166
 2456TIP3   OH2 7310   7.879   6.413   6.343
 2456TIP3    H1 7311   7.872   6.493   6.394
 2456TIP3    H2 7312   7.885   6.443   6.252
 2457TIP3   OH2 7313   4.161   6.963   5.680
 2457TIP3    H1 7314   4.087   6.964   5.742
 2457TIP3    H2 7315   4.140   7.031   5.617
 2458TIP3   OH2 7316   3.688   0.696   1.972
 2458TIP3    H1 7317   3.747   0.745   1.915
 2458TIP3    H2 7318   3.649   0.629   1.916
 2459TIP3   OH2 7319   5.287   0.338   6.244
 2459TIP3    H1 7320   5.268   0.408   6.181
 2459TIP3    H2 7321   5.209   0.283   6.243
 2460TIP3   OH2 7322   1.527   6.066   3.859
 2460TIP3    H1 7323   1.600   6.101   3.808
 2460TIP3    H2 7324   1.553   5.977   3.880
 2461TIP3   OH2 7325   4.022   0.470   4.688
 2461TIP3    H1 7326   3.937   0.461   4.645
 2461TIP3    H2 7327   4.025   0.562   4.715
 2462TIP3   OH2 7328   1.902   4.191   4.664
 2462TIP3    H1 7329   1.944   4.110   4.636
 2462TIP3    H2 7330   1.931   4.256   4.600
 2463TIP3   OH2 7331   7.457   4.087   0.772
 2463TIP3    H1 7332   7.377   4.118   0.729
 2463TIP3    H2 7333   7.495   4.166   0.811
 2464TIP3   OH2 7334   1.379   4.592   2.330
 2464TIP3    H1 7335   1.299   4.541   2.340
 2464TIP3    H2 7336   1.430   4.573   2.409
 2465TIP3   OH2 7337   1.235   4.835   0.315
 2465TIP3    H1 7338   1.207   4.885   0.239
 2465TIP3    H2 7339   1.204   4.746   0.299
 2466TIP3   OH2 7340   1.220   2.280   5.984
 2466TIP3    H1 7341   1.183   2.285   5.896
 2466TIP3    H2 7342   1.168   2.211   6.027
 2467TIP3   OH2 7343   3.082   7.558   4.426
 2467TIP3    H1 7344   3.095   7.516   4.511
 2467TIP3    H2 7345   3.004   7.514   4.391
 2468TIP3   OH2 7346   7.091   6.188   3.624
 2468TIP3    H1 7347   7.026   6.170   3.692
 2468TIP3    H2 7348   7.175   6.168   3.665
 2469TIP3   OH2 7349   1.641   3.539   4.108
 2469TIP3    H1 7350   1.617   3.515   4.197
 2469TIP3    H2 7351   1.699   3.468   4.078
 2470TIP3   OH2 7352   3.692   1.525   6.769
 2470TIP3    H1 7353   3.779   1.557   6.746
 2470TIP3    H2 7354   3.650   1.599   6.814
 2471TIP3   OH2 7355   1.860   7.769   6.547
 2471TIP3    H1 7356   1.851   7.787   6.453
 2471TIP3    H2 7357   1.828   7.680   6.558
 2472TIP3   OH2 7358   1.534   2.108   1.595
 2472TIP3    H1 7359   1.536   2.197   1.631
 2472TIP3    H2 7360   1.593   2.059   1.652
 2473TIP3   OH2 7361   4.997   3.945   4.365
 2473TIP3    H1 7362   4.910   3.913   4.344
 2473TIP3    H2 7363   5.054   3.869   4.351
 2474TIP3   OH2 7364   0.624   0.703   6.158
 2474TIP3    H1 7365   0.712   0.672   6.139
 2474TIP3    H2 7366   0.624   0.720   6.252
 2475TIP3   OH2 7367   7.078   2.993   3.024
 2475TIP3    H1 7368   7.168   3.022   3.006
 2475TIP3    H2 7369   7.030   3.014   2.944
 2476TIP3   OH2 7370   5.967   0.198   6.047
 2476TIP3    H1 7371   6.006   0.111   6.044
 2476TIP3    H2 7372   6.011   0.242   6.120
 2477TIP3   OH2 7373   5.022   0.812   2.420
 2477TIP3    H1 7374   5.103   0.826   2.468
 2477TIP3    H2 7375   5.009   0.892   2.370
 2478TIP3   OH2 7376   7.328   0.163   5.397
 2478TIP3    H1 7377   7.258   0.194   5.339
 2478TIP3    H2 7378   7.357   0.241   5.443
 2479TIP3   OH2 7379   2.456   3.715   4.752
 2479TIP3    H1 7380   2.437   3.674   4.836
 2479TIP3    H2 7381   2.370   3.728   4.712
 2480TIP3   OH2 7382   0.683   2.156   0.325
 2480TIP3    H1 7383   0.629   2.235   0.315
 2480TIP3    H2 7384   0.620   2.084   0.317
 2481TIP3   OH2 7385   6.677   2.928   5.006
 2481TIP3    H1 7386   6.721   3.003   4.969
 2481TIP3    H2 7387   6.632   2.887   4.932
 2482TIP3   OH2 7388   4.951   3.728   5.120
 2482TIP3    H1 7389   4.927   3.756   5.208
 2482TIP3    H2 7390   4.910   3.793   5.063
 2483TIP3   OH2 7391   3.817  -0.005   1.960
 2483TIP3    H1 7392   3.804   0.047   1.881
 2483TIP3    H2 7393   3.784   0.050   2.031
 2484TIP3   OH2 7394   6.601   4.176   6.727
 2484TIP3    H1 7395   6.678   4.226   6.755
 2484TIP3    H2 7396   6.627   4.085   6.740
 2485TIP3   OH2 7397   4.047   6.023   6.464
 2485TIP3    H1 7398   4.027   5.946   6.410
 2485TIP3    H2 7399   4.050   5.990   6.553
 2486TIP3   OH2 7400   3.679   4.703   4.171
 2486TIP3    H1 7401   3.585   4.686   4.171
 2486TIP3    H2 7402   3.686   4.795   4.197
 2487TIP3   OH2 7403   5.680   2.393   0.989
 2487TIP3    H1 7404   5.743   2.410   1.058
 2487TIP3    H2 7405   5.701   2.305   0.958
 2488TIP3   OH2 7406   0.535   3.043   5.423
 2488TIP3    H1 7407   0.451   3.001   5.407
 2488TIP3    H2 7408   0.513   3.131   5.453
 2489TIP3   OH2 7409   4.630   1.421   6.615
 2489TIP3    H1 7410   4.584   1.475   6.679
 2489TIP3    H2 7411   4.723   1.432   6.637
 2490TIP3   OH2 7412   1.716   2.022   0.511
 2490TIP3    H1 7413   1.678   1.935   0.500
 2490TIP3    H2 7414   1.799   2.006   0.556
 2491TIP3   OH2 7415   2.671   2.740   1.903
 2491TIP3    H1 7416   2.764   2.724   1.886
 2491TIP3    H2 7417   2.668   2.825   1.947
 2492TIP3   OH2 7418   6.979   1.818   2.652
 2492TIP3    H1 7419   6.930   1.737   2.640
 2492TIP3    H2 7420   6.991   1.852   2.563
 2493TIP3   OH2 7421   3.200   7.054   4.718
 2493TIP3    H1 7422   3.132   7.022   4.659
 2493TIP3    H2 7423   3.276   7.069   4.661
 2494TIP3   OH2 7424   0.041   6.469   3.878
 2494TIP3    H1 7425   0.075   6.381   3.862
 2494TIP3    H2 7426  -0.042   6.454   3.924
 2495TIP3   OH2 7427   6.991   5.142   3.142
 2495TIP3    H1 7428   6.922   5.126   3.206
 2495TIP3    H2 7429   7.072   5.123   3.189
 2496TIP3   OH2 7430   4.724   6.069   3.240
 2496TIP3    H1 7431   4.797   6.115   3.281
 2496TIP3    H2 7432   4.676   6.031   3.313
 2497TIP3   OH2 7433   6.362   3.206   5.976
 2497TIP3    H1 7434   6.267   3.207   5.984
 2497TIP3    H2 7435   6.378   3.169   5.889
 2498TIP3   OH2 7436   0.682   1.094   0.997
 2498TIP3    H1 7437   0.626   1.168   0.973
 2498TIP3    H2 7438   0.741   1.130   1.064
 2499TIP3   OH2 7439   0.668   0.528   0.883
 2499TIP3    H1 7440   0.574   0.534   0.867
 2499TIP3    H2 7441   0.691   0.611   0.924
 2500TIP3   OH2 7442   6.233   7.197   0.771
 2500TIP3    H1 7443   6.223   7.115   0.821
 2500TIP3    H2 7444   6.145   7.236   0.773
 2501TIP3   OH2 7445   5.146   0.571   0.454
 2501TIP3    H1 7446   5.178   0.558   0.543
 2501TIP3    H2 7447   5.213   0.531   0.398
 2502TIP3   OH2 7448   5.861   4.863   4.534
 2502TIP3    H1 7449   5.883   4.896   4.621
 2502TIP3    H2 7450   5.861   4.941   4.478
 2503TIP3   OH2 7451   7.355   7.632   0.274
 2503TIP3    H1 7452   7.271   7.660   0.309
 2503TIP3    H2 7453   7.351   7.653   0.181
 2504TIP3   OH2 7454   3.051   0.486   0.313
 2504TIP3    H1 7455   3.031   0.402   0.271
 2504TIP3    H2 7456   3.111   0.462   0.385
 2505TIP3   OH2 7457   3.636   4.322   4.039
 2505TIP3    H1 7458   3.704   4.275   3.991
 2505TIP3    H2 7459   3.560   4.321   3.982
 2506TIP3   OH2 7460   3.513   3.956   3.868
 2506TIP3    H1 7461   3.505   3.879   3.812
 2506TIP3    H2 7462   3.423   3.988   3.878
 2507TIP3   OH2 7463   7.471   3.003   5.842
 2507TIP3    H1 7464   7.472   2.921   5.794
 2507TIP3    H2 7465   7.558   3.041   5.828
 2508TIP3   OH2 7466   4.641   3.480   6.665
 2508TIP3    H1 7467   4.709   3.543   6.643
 2508TIP3    H2 7468   4.622   3.435   6.583
 2509TIP3   OH2 7469   7.930   2.404   5.009
 2509TIP3    H1 7470   7.963   2.370   4.926
 2509TIP3    H2 7471   7.837   2.422   4.993
 2510TIP3   OH2 7472   0.495   1.176   0.615
 2510TIP3    H1 7473   0.447   1.199   0.535
 2510TIP3    H2 7474   0.517   1.084   0.604
 2511TIP3   OH2 7475   5.278   1.855   2.768
 2511TIP3    H1 7476   5.269   1.852   2.864
 2511TIP3    H2 7477   5.253   1.944   2.745
 2512TIP3   OH2 7478   6.617   5.625   3.185
 2512TIP3    H1 7479   6.677   5.593   3.253
 2512TIP3    H2 7480   6.672   5.680   3.129
 2513TIP3   OH2 7481   8.050   4.240   1.125
 2513TIP3    H1 7482   8.022   4.271   1.040
 2513TIP3    H2 7483   8.131   4.191   1.108
 2514TIP3   OH2 7484   4.596   3.603   3.376
 2514TIP3    H1 7485   4.670   3.622   3.433
 2514TIP3    H2 7486   4.576   3.687   3.334
 2515TIP3   OH2 7487   1.139   1.801   4.001
 2515TIP3    H1 7488   1.181   1.846   3.928
 2515TIP3    H2 7489   1.064   1.856   4.023
 2516TIP3   OH2 7490   5.241   5.013   6.332
 2516TIP3    H1 7491   5.190   5.093   6.319
 2516TIP3    H2 7492   5.203   4.974   6.411
 2517TIP3   OH2 7493   1.776   6.571   6.373
 2517TIP3    H1 7494   1.738   6.578   6.460
 2517TIP3    H2 7495   1.760   6.656   6.332
 2518TIP3   OH2 7496   4.591   3.177   6.720
 2518TIP3    H1 7497   4.591   3.267   6.752
 2518TIP3    H2 7498   4.680   3.145   6.739
 2519TIP3   OH2 7499   6.593   3.412   2.124
 2519TIP3    H1 7500   6.634   3.463   2.055
 2519TIP3    H2 7501   6.613   3.321   2.101
 2520TIP3   OH2 7502   7.286   3.374   2.040
 2520TIP3    H1 7503   7.328   3.383   1.954
 2520TIP3    H2 7504   7.319   3.290   2.073
 2521TIP3   OH2 7505   4.484   5.817   6.435
 2521TIP3    H1 7506   4.552   5.790   6.373
 2521TIP3    H2 7507   4.532   5.851   6.510
 2522TIP3   OH2 7508   3.157   5.533   4.174
 2522TIP3    H1 7509   3.156   5.506   4.082
 2522TIP3    H2 7510   3.220   5.474   4.215
 2523TIP3   OH2 7511   2.371   5.667   5.608
 2523TIP3    H1 7512   2.380   5.699   5.519
 2523TIP3    H2 7513   2.424   5.588   5.611
 2524TIP3   OH2 7514   3.247   7.517   0.657
 2524TIP3    H1 7515   3.267   7.506   0.749
 2524TIP3    H2 7516   3.212   7.431   0.630
 2525TIP3   OH2 7517   2.124   4.097   5.604
 2525TIP3    H1 7518   2.076   4.177   5.625
 2525TIP3    H2 7519   2.155   4.065   5.689
 2526TIP3   OH2 7520   2.625   2.074   2.429
 2526TIP3    H1 7521   2.601   2.095   2.520
 2526TIP3    H2 7522   2.639   2.159   2.388
 2527TIP3   OH2 7523   0.153   6.946   4.290
 2527TIP3    H1 7524   0.244   6.932   4.316
 2527TIP3    H2 7525   0.156   6.957   4.195
 2528TIP3   OH2 7526   8.223   3.656   5.995
 2528TIP3    H1 7527   8.145   3.651   6.050
 2528TIP3    H2 7528   8.240   3.750   5.987
 2529TIP3   OH2 7529   7.162   2.983   1.538
 2529TIP3    H1 7530   7.195   2.894   1.524
 2529TIP3    H2 7531   7.237   3.040   1.523
 2530TIP3   OH2 7532   4.078   0.144   3.444
 2530TIP3    H1 7533   4.041   0.168   3.360
 2530TIP3    H2 7534   4.026   0.069   3.473
 2531TIP3   OH2 7535   7.184   7.131   2.368
 2531TIP3    H1 7536   7.250   7.071   2.402
 2531TIP3    H2 7537   7.141   7.167   2.446
 2532TIP3   OH2 7538   0.769   2.518   3.652
 2532TIP3    H1 7539   0.847   2.563   3.684
 2532TIP3    H2 7540   0.772   2.530   3.557
 2533TIP3   OH2 7541   6.678   5.153   6.699
 2533TIP3    H1 7542   6.700   5.227   6.643
 2533TIP3    H2 7543   6.617   5.100   6.647
 2534TIP3   OH2 7544   5.763   3.798   2.999
 2534TIP3    H1 7545   5.730   3.837   2.918
 2534TIP3    H2 7546   5.778   3.706   2.977
 2535TIP3   OH2 7547   1.498   4.888   6.503
 2535TIP3    H1 7548   1.438   4.817   6.524
 2535TIP3    H2 7549   1.585   4.852   6.522
 2536TIP3   OH2 7550   3.720   1.585   4.413
 2536TIP3    H1 7551   3.768   1.667   4.422
 2536TIP3    H2 7552   3.634   1.603   4.452
 2537TIP3   OH2 7553   7.075   7.695   0.312
 2537TIP3    H1 7554   7.039   7.685   0.224
 2537TIP3    H2 7555   7.008   7.658   0.369
 2538TIP3   OH2 7556   7.843   0.840   0.351
 2538TIP3    H1 7557   7.801   0.878   0.428
 2538TIP3    H2 7558   7.905   0.907   0.322
 2539TIP3   OH2 7559   6.929   6.048   3.031
 2539TIP3    H1 7560   6.982   6.025   2.955
 2539TIP3    H2 7561   6.986   6.031   3.106
 2540TIP3   OH2 7562   7.259   7.043   0.456
 2540TIP3    H1 7563   7.176   7.089   0.440
 2540TIP3    H2 7564   7.314   7.107   0.501
 2541TIP3   OH2 7565   6.150   2.497   1.046
 2541TIP3    H1 7566   6.084   2.481   0.979
 2541TIP3    H2 7567   6.207   2.564   1.007
 2542TIP3   OH2 7568   6.548   7.597   2.632
 2542TIP3    H1 7569   6.596   7.676   2.658
 2542TIP3    H2 7570   6.499   7.572   2.710
 2543TIP3   OH2 7571   6.572   1.174   0.906
 2543TIP3    H1 7572   6.639   1.109   0.887
 2543TIP3    H2 7573   6.614   1.233   0.969
 2544TIP3   OH2 7574   6.300   2.802   0.974
 2544TIP3    H1 7575   6.345   2.814   1.058
 2544TIP3    H2 7576   6.211   2.833   0.991
 2545TIP3   OH2 7577   5.243   7.614   5.641
 2545TIP3    H1 7578   5.170   7.557   5.667
 2545TIP3    H2 7579   5.239   7.616   5.545
 2546TIP3   OH2 7580   4.462   5.590   4.525
 2546TIP3    H1 7581   4.498   5.662   4.472
 2546TIP3    H2 7582   4.373   5.617   4.546
 2547TIP3   OH2 7583   7.539   3.441   2.419
 2547TIP3    H1 7584   7.493   3.437   2.502
 2547TIP3    H2 7585   7.630   3.420   2.441
 2548TIP3   OH2 7586   8.207   5.518   3.342
 2548TIP3    H1 7587   8.242   5.491   3.427
 2548TIP3    H2 7588   8.161   5.440   3.310
 2549TIP3   OH2 7589   5.852   6.960   5.522
 2549TIP3    H1 7590   5.875   6.995   5.609
 2549TIP3    H2 7591   5.936   6.942   5.481
 2550TIP3   OH2 7592   8.144   4.069   2.652
 2550TIP3    H1 7593   8.120   4.067   2.744
 2550TIP3    H2 7594   8.076   4.017   2.608
 2551TIP3   OH2 7595   8.080   3.052   1.274
 2551TIP3    H1 7596   8.117   3.061   1.186
 2551TIP3    H2 7597   8.001   3.106   1.272
 2552TIP3   OH2 7598   6.571   3.159   1.886
 2552TIP3    H1 7599   6.479   3.159   1.914
 2552TIP3    H2 7600   6.621   3.172   1.967
 2553TIP3   OH2 7601   5.114   7.464   6.542
 2553TIP3    H1 7602   5.177   7.400   6.508
 2553TIP3    H2 7603   5.029   7.425   6.526
 2554TIP3   OH2 7604   2.498   2.870   3.141
 2554TIP3    H1 7605   2.543   2.786   3.129
 2554TIP3    H2 7606   2.420   2.863   3.086
 2555TIP3   OH2 7607   4.675   5.593   2.339
 2555TIP3    H1 7608   4.755   5.645   2.335
 2555TIP3    H2 7609   4.698   5.516   2.389
 2556TIP3   OH2 7610   1.545   5.897   4.220
 2556TIP3    H1 7611   1.535   5.863   4.309
 2556TIP3    H2 7612   1.506   5.984   4.223
 2557TIP3   OH2 7613   6.859   7.135   6.056
 2557TIP3    H1 7614   6.911   7.055   6.061
 2557TIP3    H2 7615   6.787   7.113   5.997
 2558TIP3   OH2 7616   1.368   1.336   2.261
 2558TIP3    H1 7617   1.362   1.244   2.232
 2558TIP3    H2 7618   1.284   1.352   2.305
 2559TIP3   OH2 7619   5.062   3.485   3.479
 2559TIP3    H1 7620   5.097   3.431   3.551
 2559TIP3    H2 7621   5.132   3.547   3.460
 2560TIP3   OH2 7622   3.565   1.411   4.705
 2560TIP3    H1 7623   3.590   1.345   4.640
 2560TIP3    H2 7624   3.569   1.365   4.789
 2561TIP3   OH2 7625   6.737   2.587   2.499
 2561TIP3    H1 7626   6.669   2.633   2.450
 2561TIP3    H2 7627   6.708   2.496   2.500
 2562TIP3   OH2 7628   7.488   2.770   2.599
 2562TIP3    H1 7629   7.396   2.793   2.586
 2562TIP3    H2 7630   7.512   2.720   2.521
 2563TIP3   OH2 7631   4.902   4.368   4.646
 2563TIP3    H1 7632   4.853   4.312   4.585
 2563TIP3    H2 7633   4.994   4.352   4.624
 2564TIP3   OH2 7634   6.580   6.046   3.151
 2564TIP3    H1 7635   6.491   6.020   3.175
 2564TIP3    H2 7636   6.630   5.964   3.149
 2565TIP3   OH2 7637   7.896   1.470   2.904
 2565TIP3    H1 7638   7.846   1.389   2.899
 2565TIP3    H2 7639   7.949   1.460   2.984
 2566TIP3   OH2 7640   8.100   3.761   1.052
 2566TIP3    H1 7641   8.011   3.724   1.058
 2566TIP3    H2 7642   8.146   3.701   0.993
 2567TIP3   OH2 7643   4.058   2.260   5.419
 2567TIP3    H1 7644   4.094   2.310   5.492
 2567TIP3    H2 7645   3.979   2.308   5.394
 2568TIP3   OH2 7646   1.155   5.069   3.599
 2568TIP3    H1 7647   1.202   4.986   3.611
 2568TIP3    H2 7648   1.124   5.092   3.687
 2569TIP3   OH2 7649   6.945   5.243   3.687
 2569TIP3    H1 7650   6.911   5.176   3.746
 2569TIP3    H2 7651   7.040   5.232   3.691
 2570TIP3   OH2 7652   4.002   5.264   0.210
 2570TIP3    H1 7653   3.973   5.230   0.295
 2570TIP3    H2 7654   4.084   5.218   0.193
 2571TIP3   OH2 7655   7.270   5.551   6.282
 2571TIP3    H1 7656   7.299   5.499   6.207
 2571TIP3    H2 7657   7.222   5.624   6.243
 2572TIP3   OH2 7658   2.094   2.216   3.960
 2572TIP3    H1 7659   2.102   2.186   4.051
 2572TIP3    H2 7660   2.017   2.272   3.960
 2573TIP3   OH2 7661   6.390   0.117   1.953
 2573TIP3    H1 7662   6.346   0.092   1.872
 2573TIP3    H2 7663   6.369   0.209   1.964
 2574TIP3   OH2 7664   6.309   2.583   1.914
 2574TIP3    H1 7665   6.291   2.563   1.822
 2574TIP3    H2 7666   6.233   2.549   1.961
 2575TIP3   OH2 7667   0.101   6.755   0.602
 2575TIP3    H1 7668   0.126   6.819   0.668
 2575TIP3    H2 7669   0.180   6.742   0.550
 2576TIP3   OH2 7670   1.086   6.153   1.573
 2576TIP3    H1 7671   1.093   6.233   1.521
 2576TIP3    H2 7672   1.118   6.084   1.514
 2577TIP3   OH2 7673   5.548   3.207   6.025
 2577TIP3    H1 7674   5.607   3.152   6.077
 2577TIP3    H2 7675   5.543   3.289   6.073
 2578TIP3   OH2 7676   5.296   0.925   2.925
 2578TIP3    H1 7677   5.277   0.994   2.862
 2578TIP3    H2 7678   5.377   0.953   2.968
 2579TIP3   OH2 7679   5.499   2.455   5.476
 2579TIP3    H1 7680   5.484   2.459   5.571
 2579TIP3    H2 7681   5.593   2.467   5.466
 2580TIP3   OH2 7682   7.588   1.700   0.319
 2580TIP3    H1 7683   7.660   1.660   0.271
 2580TIP3    H2 7684   7.621   1.786   0.345
 2581TIP3   OH2 7685   6.248   6.200   6.251
 2581TIP3    H1 7686   6.157   6.229   6.261
 2581TIP3    H2 7687   6.248   6.145   6.173
 2582TIP3   OH2 7688   7.674   4.210   3.630
 2582TIP3    H1 7689   7.715   4.130   3.598
 2582TIP3    H2 7690   7.609   4.179   3.693
 2583TIP3   OH2 7691   7.840   7.692   2.145
 2583TIP3    H1 7692   7.787   7.765   2.112
 2583TIP3    H2 7693   7.928   7.709   2.110
 2584TIP3   OH2 7694   2.150   5.946   6.134
 2584TIP3    H1 7695   2.215   5.978   6.196
 2584TIP3    H2 7696   2.128   5.858   6.164
 2585TIP3   OH2 7697   0.652   4.606   6.328
 2585TIP3    H1 7698   0.736   4.589   6.285
 2585TIP3    H2 7699   0.606   4.523   6.324
 2586TIP3   OH2 7700   2.658   6.665   4.565
 2586TIP3    H1 7701   2.606   6.584   4.567
 2586TIP3    H2 7702   2.737   6.641   4.517
 2587TIP3   OH2 7703   3.963   7.252   1.150
 2587TIP3    H1 7704   3.911   7.232   1.071
 2587TIP3    H2 7705   3.911   7.318   1.196
 2588TIP3   OH2 7706   5.056   6.225   5.037
 2588TIP3    H1 7707   4.984   6.285   5.056
 2588TIP3    H2 7708   5.013   6.143   5.013
 2589TIP3   OH2 7709   1.868   7.438   0.185
 2589TIP3    H1 7710   1.870   7.344   0.202
 2589TIP3    H2 7711   1.950   7.470   0.223
 2590TIP3   OH2 7712   4.355   0.835   1.962
 2590TIP3    H1 7713   4.347   0.904   2.028
 2590TIP3    H2 7714   4.447   0.838   1.936
 2591TIP3   OH2 7715   6.671   3.033   2.608
 2591TIP3    H1 7716   6.650   3.115   2.564
 2591TIP3    H2 7717   6.700   2.975   2.537
 2592TIP3   OH2 7718   7.641   0.080   6.711
 2592TIP3    H1 7719   7.734   0.063   6.693
 2592TIP3    H2 7720   7.604   0.102   6.626
 2593TIP3   OH2 7721   8.285   5.352   5.623
 2593TIP3    H1 7722   8.372   5.360   5.584
 2593TIP3    H2 7723   8.293   5.280   5.685
 2594TIP3   OH2 7724   1.172   7.276   0.069
 2594TIP3    H1 7725   1.179   7.318   0.155
 2594TIP3    H2 7726   1.261   7.276   0.035
 2595TIP3   OH2 7727   3.736   7.026   2.843
 2595TIP3    H1 7728   3.784   7.002   2.763
 2595TIP3    H2 7729   3.778   6.974   2.912
 2596TIP3   OH2 7730   2.978   0.971   4.341
 2596TIP3    H1 7731   3.049   1.002   4.285
 2596TIP3    H2 7732   2.920   0.922   4.282
 2597TIP3   OH2 7733   7.755   1.443   3.230
 2597TIP3    H1 7734   7.669   1.467   3.264
 2597TIP3    H2 7735   7.736   1.387   3.155
 2598TIP3   OH2 7736   6.753   6.831   1.293
 2598TIP3    H1 7737   6.809   6.891   1.244
 2598TIP3    H2 7738   6.784   6.743   1.269
 2599TIP3   OH2 7739   6.396   5.982   6.653
 2599TIP3    H1 7740   6.394   6.049   6.721
 2599TIP3    H2 7741   6.378   5.900   6.699
 2600TIP3   OH2 7742   3.210   0.396   2.672
 2600TIP3    H1 7743   3.130   0.375   2.719
 2600TIP3    H2 7744   3.256   0.313   2.663
 2601TIP3   OH2 7745   6.224   4.764   3.515
 2601TIP3    H1 7746   6.205   4.671   3.529
 2601TIP3    H2 7747   6.278   4.789   3.590
 2602TIP3   OH2 7748   0.924   5.770   6.684
 2602TIP3    H1 7749   0.849   5.757   6.627
 2602TIP3    H2 7750   0.967   5.685   6.688
 2603TIP3   OH2 7751   1.521   3.658   2.992
 2603TIP3    H1 7752   1.540   3.742   2.950
 2603TIP3    H2 7753   1.604   3.610   2.990
 2604TIP3   OH2 7754   6.739   4.192   3.601
 2604TIP3    H1 7755   6.818   4.159   3.558
 2604TIP3    H2 7756   6.769   4.221   3.688
 2605TIP3   OH2 7757   6.606   2.762   6.461
 2605TIP3    H1 7758   6.539   2.707   6.502
 2605TIP3    H2 7759   6.689   2.731   6.498
 2606TIP3   OH2 7760   5.370   2.193   0.752
 2606TIP3    H1 7761   5.397   2.269   0.700
 2606TIP3    H2 7762   5.348   2.230   0.837
 2607TIP3   OH2 7763   0.070   3.691   0.890
 2607TIP3    H1 7764  -0.007   3.693   0.833
 2607TIP3    H2 7765   0.112   3.608   0.869
 2608TIP3   OH2 7766   5.845   5.183   5.742
 2608TIP3    H1 7767   5.758   5.169   5.779
 2608TIP3    H2 7768   5.902   5.126   5.795
 2609TIP3   OH2 7769   0.569   6.732   5.314
 2609TIP3    H1 7770   0.569   6.636   5.315
 2609TIP3    H2 7771   0.503   6.755   5.249
 2610TIP3   OH2 7772   0.926   4.179   4.290
 2610TIP3    H1 7773   0.917   4.115   4.220
 2610TIP3    H2 7774   0.871   4.146   4.361
 2611TIP3   OH2 7775   4.061   4.743   1.763
 2611TIP3    H1 7776   3.990   4.806   1.778
 2611TIP3    H2 7777   4.031   4.692   1.688
 2612TIP3   OH2 7778   6.599   5.451   5.469
 2612TIP3    H1 7779   6.647   5.394   5.529
 2612TIP3    H2 7780   6.552   5.512   5.525
 2613TIP3   OH2 7781   2.232   4.732   3.777
 2613TIP3    H1 7782   2.282   4.664   3.732
 2613TIP3    H2 7783   2.287   4.756   3.852
 2614TIP3   OH2 7784   2.536   6.971   5.288
 2614TIP3    H1 7785   2.493   7.021   5.357
 2614TIP3    H2 7786   2.478   6.895   5.274
 2615TIP3   OH2 7787   4.782   6.919   2.908
 2615TIP3    H1 7788   4.696   6.950   2.935
 2615TIP3    H2 7789   4.817   6.987   2.852
 2616TIP3   OH2 7790   8.132   5.972   3.825
 2616TIP3    H1 7791   8.184   5.917   3.767
 2616TIP3    H2 7792   8.168   5.955   3.913
 2617TIP3   OH2 7793   6.514   5.891   5.056
 2617TIP3    H1 7794   6.472   5.896   5.142
 2617TIP3    H2 7795   6.517   5.798   5.035
 2618TIP3   OH2 7796   3.776   2.878   2.533
 2618TIP3    H1 7797   3.772   2.968   2.567
 2618TIP3    H2 7798   3.857   2.875   2.483
 2619TIP3   OH2 7799   7.622   1.968   2.824
 2619TIP3    H1 7800   7.678   1.920   2.886
 2619TIP3    H2 7801   7.611   1.908   2.751
 2620TIP3   OH2 7802   6.005   6.250   5.307
 2620TIP3    H1 7803   6.065   6.197   5.255
 2620TIP3    H2 7804   5.934   6.190   5.332
 2621TIP3   OH2 7805   0.619   3.578   2.559
 2621TIP3    H1 7806   0.658   3.491   2.573
 2621TIP3    H2 7807   0.614   3.616   2.647
 2622TIP3   OH2 7808   2.872   2.675   0.582
 2622TIP3    H1 7809   2.834   2.713   0.661
 2622TIP3    H2 7810   2.796   2.640   0.534
 2623TIP3   OH2 7811   6.902   1.641   5.459
 2623TIP3    H1 7812   6.859   1.558   5.478
 2623TIP3    H2 7813   6.956   1.624   5.382
 2624TIP3   OH2 7814   5.725   0.682   3.406
 2624TIP3    H1 7815   5.673   0.660   3.329
 2624TIP3    H2 7816   5.811   0.706   3.372
 2625TIP3   OH2 7817   0.360   4.484   0.039
 2625TIP3    H1 7818   0.442   4.484  -0.010
 2625TIP3    H2 7819   0.386   4.472   0.130
 2626TIP3   OH2 7820   1.608   5.366   1.070
 2626TIP3    H1 7821   1.606   5.449   1.022
 2626TIP3    H2 7822   1.686   5.321   1.038
 2627TIP3   OH2 7823   7.657   1.671   4.552
 2627TIP3    H1 7824   7.746   1.681   4.585
 2627TIP3    H2 7825   7.604   1.726   4.610
 2628TIP3   OH2 7826   1.193   7.234   1.516
 2628TIP3    H1 7827   1.278   7.232   1.560
 2628TIP3    H2 7828   1.215   7.234   1.422
 2629TIP3   OH2 7829   4.157   5.548   5.543
 2629TIP3    H1 7830   4.151   5.458   5.574
 2629TIP3    H2 7831   4.239   5.581   5.578
 2630TIP3   OH2 7832   6.264   4.796   1.416
 2630TIP3    H1 7833   6.178   4.836   1.410
 2630TIP3    H2 7834   6.276   4.749   1.334
 2631TIP3   OH2 7835   2.051   2.982   5.200
 2631TIP3    H1 7836   2.000   2.947   5.126
 2631TIP3    H2 7837   1.988   3.030   5.252
 2632TIP3   OH2 7838   4.617   7.106   3.279
 2632TIP3    H1 7839   4.641   7.179   3.336
 2632TIP3    H2 7840   4.681   7.038   3.299
 2633TIP3   OH2 7841   2.714   4.714   6.264
 2633TIP3    H1 7842   2.664   4.762   6.198
 2633TIP3    H2 7843   2.732   4.779   6.332
 2634TIP3   OH2 7844   2.645   5.894   3.956
 2634TIP3    H1 7845   2.654   5.950   4.033
 2634TIP3    H2 7846   2.717   5.919   3.898
 2635TIP3   OH2 7847   0.559   2.353   5.699
 2635TIP3    H1 7848   0.492   2.308   5.649
 2635TIP3    H2 7849   0.630   2.368   5.637
 2636TIP3   OH2 7850   5.815   6.632   1.464
 2636TIP3    H1 7851   5.831   6.537   1.458
 2636TIP3    H2 7852   5.720   6.641   1.459
 2637TIP3   OH2 7853   3.608   6.008   3.677
 2637TIP3    H1 7854   3.539   6.040   3.619
 2637TIP3    H2 7855   3.604   6.066   3.753
 2638TIP3   OH2 7856   5.775   2.800   3.866
 2638TIP3    H1 7857   5.736   2.721   3.828
 2638TIP3    H2 7858   5.855   2.770   3.908
 2639TIP3   OH2 7859   7.968   0.824   6.724
 2639TIP3    H1 7860   8.046   0.789   6.681
 2639TIP3    H2 7861   7.951   0.907   6.680
 2640TIP3   OH2 7862   4.919   4.642   2.343
 2640TIP3    H1 7863   4.951   4.562   2.385
 2640TIP3    H2 7864   4.976   4.711   2.378
 2641TIP3   OH2 7865   2.686   3.855   4.212
 2641TIP3    H1 7866   2.724   3.802   4.282
 2641TIP3    H2 7867   2.759   3.873   4.154
 2642TIP3   OH2 7868   5.467   5.906   1.964
 2642TIP3    H1 7869   5.419   5.823   1.960
 2642TIP3    H2 7870   5.434   5.956   1.890
 2643TIP3   OH2 7871   1.770   5.206   2.744
 2643TIP3    H1 7872   1.775   5.114   2.768
 2643TIP3    H2 7873   1.854   5.224   2.702
 2644TIP3   OH2 7874   1.338   2.663   1.764
 2644TIP3    H1 7875   1.370   2.727   1.828
 2644TIP3    H2 7876   1.362   2.701   1.679
 2645TIP3   OH2 7877   4.579   4.505   6.229
 2645TIP3    H1 7878   4.588   4.537   6.139
 2645TIP3    H2 7879   4.645   4.553   6.278
 2646TIP3   OH2 7880   1.837   4.940   2.718
 2646TIP3    H1 7881   1.774   4.872   2.743
 2646TIP3    H2 7882   1.904   4.938   2.786
 2647TIP3   OH2 7883   6.365   2.720   5.731
 2647TIP3    H1 7884   6.321   2.644   5.767
 2647TIP3    H2 7885   6.398   2.768   5.808
 2648TIP3   OH2 7886   5.553   5.442   3.851
 2648TIP3    H1 7887   5.553   5.376   3.920
 2648TIP3    H2 7888   5.464   5.439   3.815
 2649TIP3   OH2 7889   3.499   0.194   4.110
 2649TIP3    H1 7890   3.405   0.176   4.104
 2649TIP3    H2 7891   3.505   0.290   4.111
 2650TIP3   OH2 7892   1.403   5.433   2.292
 2650TIP3    H1 7893   1.453   5.490   2.350
 2650TIP3    H2 7894   1.448   5.438   2.208
 2651TIP3   OH2 7895   4.717   5.345   0.439
 2651TIP3    H1 7896   4.634   5.332   0.484
 2651TIP3    H2 7897   4.773   5.388   0.504
 2652TIP3   OH2 7898   1.074   3.644   3.591
 2652TIP3    H1 7899   0.995   3.637   3.538
 2652TIP3    H2 7900   1.145   3.647   3.527
 2653TIP3   OH2 7901   2.860   3.856   1.785
 2653TIP3    H1 7902   2.814   3.803   1.850
 2653TIP3    H2 7903   2.821   3.942   1.793
 2654TIP3   OH2 7904   4.778   1.593   3.470
 2654TIP3    H1 7905   4.715   1.573   3.540
 2654TIP3    H2 7906   4.735   1.561   3.390
 2655TIP3   OH2 7907   1.057   2.860   3.878
 2655TIP3    H1 7908   1.067   2.932   3.940
 2655TIP3    H2 7909   1.142   2.815   3.881
 2656TIP3   OH2 7910   3.354   2.180   3.670
 2656TIP3    H1 7911   3.436   2.178   3.718
 2656TIP3    H2 7912   3.295   2.122   3.720
 2657TIP3   OH2 7913   2.969   1.360   1.595
 2657TIP3    H1 7914   3.059   1.389   1.583
 2657TIP3    H2 7915   2.916   1.423   1.546
 2658TIP3   OH2 7916   0.134   5.514   0.383
 2658TIP3    H1 7917   0.113   5.424   0.361
 2658TIP3    H2 7918   0.142   5.559   0.299
 2659TIP3   OH2 7919   0.300   6.117   6.763
 2659TIP3    H1 7920   0.280   6.194   6.816
 2659TIP3    H2 7921   0.230   6.114   6.697
 2660TIP3   OH2 7922   5.922   4.926   5.190
 2660TIP3    H1 7923   5.932   4.852   5.130
 2660TIP3    H2 7924   5.894   4.886   5.273
 2661TIP3   OH2 7925   0.381   4.491   2.486
 2661TIP3    H1 7926   0.424   4.431   2.547
 2661TIP3    H2 7927   0.367   4.571   2.537
 2662TIP3   OH2 7928   4.072   6.410   6.684
 2662TIP3    H1 7929   4.025   6.394   6.766
 2662TIP3    H2 7930   4.007   6.451   6.626
 2663TIP3   OH2 7931   5.584   5.487   6.632
 2663TIP3    H1 7932   5.489   5.494   6.619
 2663TIP3    H2 7933   5.611   5.417   6.573
 2664TIP3   OH2 7934   6.658   0.882   6.425
 2664TIP3    H1 7935   6.569   0.918   6.424
 2664TIP3    H2 7936   6.682   0.882   6.517
 2665TIP3   OH2 7937   1.412   1.643   5.394
 2665TIP3    H1 7938   1.378   1.564   5.353
 2665TIP3    H2 7939   1.369   1.648   5.479
 2666TIP3   OH2 7940   2.431   6.268   0.282
 2666TIP3    H1 7941   2.375   6.196   0.312
 2666TIP3    H2 7942   2.468   6.236   0.199
 2667TIP3   OH2 7943   0.845   2.367   4.503
 2667TIP3    H1 7944   0.786   2.436   4.531
 2667TIP3    H2 7945   0.848   2.376   4.407
 2668TIP3   OH2 7946   1.636   7.250   1.055
 2668TIP3    H1 7947   1.576   7.245   1.130
 2668TIP3    H2 7948   1.585   7.217   0.981
 2669TIP3   OH2 7949   6.575   1.642   5.353
 2669TIP3    H1 7950   6.532   1.719   5.389
 2669TIP3    H2 7951   6.504   1.578   5.343
 2670TIP3   OH2 7952   1.099   3.619   6.196
 2670TIP3    H1 7953   1.064   3.543   6.242
 2670TIP3    H2 7954   1.051   3.620   6.113
 2671TIP3   OH2 7955   1.557   6.999   6.131
 2671TIP3    H1 7956   1.585   6.964   6.046
 2671TIP3    H2 7957   1.523   6.923   6.178
 2672TIP3   OH2 7958   0.225   6.734   3.563
 2672TIP3    H1 7959   0.195   6.818   3.530
 2672TIP3    H2 7960   0.167   6.670   3.522
 2673TIP3   OH2 7961   3.197   4.076   0.140
 2673TIP3    H1 7962   3.229   4.067   0.230
 2673TIP3    H2 7963   3.164   3.989   0.118
 2674TIP3   OH2 7964   4.912   0.810   4.193
 2674TIP3    H1 7965   4.970   0.884   4.172
 2674TIP3    H2 7966   4.872   0.834   4.276
 2675TIP3   OH2 7967   7.434   1.330   0.274
 2675TIP3    H1 7968   7.376   1.377   0.333
 2675TIP3    H2 7969   7.522   1.344   0.310
 2676TIP3   OH2 7970   6.104   0.317   5.611
 2676TIP3    H1 7971   6.032   0.317   5.548
 2676TIP3    H2 7972   6.098   0.231   5.654
 2677TIP3   OH2 7973   3.196   6.309   2.312
 2677TIP3    H1 7974   3.201   6.368   2.236
 2677TIP3    H2 7975   3.109   6.326   2.349
 2678TIP3   OH2 7976   1.400   4.543   0.059
 2678TIP3    H1 7977   1.336   4.564   0.128
 2678TIP3    H2 7978   1.412   4.449   0.066
 2679TIP3   OH2 7979   1.962   7.282   2.314
 2679TIP3    H1 7980   1.968   7.210   2.252
 2679TIP3    H2 7981   1.875   7.319   2.300
 2680TIP3   OH2 7982   7.546   7.599   2.736
 2680TIP3    H1 7983   7.519   7.656   2.808
 2680TIP3    H2 7984   7.477   7.532   2.732
 2681TIP3   OH2 7985   6.948   5.858   5.830
 2681TIP3    H1 7986   6.998   5.830   5.753
 2681TIP3    H2 7987   6.941   5.778   5.883
 2682TIP3   OH2 7988   5.414   3.167   5.621
 2682TIP3    H1 7989   5.422   3.258   5.650
 2682TIP3    H2 7990   5.495   3.149   5.573
 2683TIP3   OH2 7991   1.611   0.378   0.360
 2683TIP3    H1 7992   1.654   0.411   0.440
 2683TIP3    H2 7993   1.520   0.408   0.368
 2684TIP3   OH2 7994   5.200   7.205   0.240
 2684TIP3    H1 7995   5.120   7.158   0.262
 2684TIP3    H2 7996   5.171   7.294   0.221
 2685TIP3   OH2 7997   3.862   1.348   5.610
 2685TIP3    H1 7998   3.827   1.430   5.576
 2685TIP3    H2 7999   3.832   1.345   5.701
 2686TIP3   OH2 8000   2.910   4.208   4.436
 2686TIP3    H1 8001   2.848   4.138   4.417
 2686TIP3    H2 8002   2.986   4.163   4.474
 2687TIP3   OH2 8003   6.331   1.072   3.694
 2687TIP3    H1 8004   6.391   1.030   3.633
 2687TIP3    H2 8005   6.325   1.011   3.768
 2688TIP3   OH2 8006   0.334   0.324   2.334
 2688TIP3    H1 8007   0.358   0.232   2.336
 2688TIP3    H2 8008   0.401   0.366   2.280
 2689TIP3   OH2 8009   2.426   4.825   5.007
 2689TIP3    H1 8010   2.397   4.857   5.093
 2689TIP3    H2 8011   2.420   4.902   4.950
 2690TIP3   OH2 8012   2.189   3.669   2.597
 2690TIP3    H1 8013   2.226   3.703   2.515
 2690TIP3    H2 8014   2.263   3.626   2.640
 2691TIP3   OH2 8015   3.480   3.278   5.272
 2691TIP3    H1 8016   3.544   3.308   5.208
 2691TIP3    H2 8017   3.395   3.305   5.236
 2692TIP3   OH2 8018   1.211   1.832   4.458
 2692TIP3    H1 8019   1.251   1.771   4.521
 2692TIP3    H2 8020   1.138   1.871   4.506
 2693TIP3   OH2 8021   0.811   5.168   2.530
 2693TIP3    H1 8022   0.757   5.215   2.466
 2693TIP3    H2 8023   0.755   5.159   2.607
 2694TIP3   OH2 8024   1.736   4.555   0.323
 2694TIP3    H1 8025   1.812   4.497   0.321
 2694TIP3    H2 8026   1.721   4.572   0.416
 2695TIP3   OH2 8027   3.867   1.474   3.852
 2695TIP3    H1 8028   3.884   1.413   3.781
 2695TIP3    H2 8029   3.854   1.558   3.809
 2696TIP3   OH2 8030   3.529   6.491   1.600
 2696TIP3    H1 8031   3.463   6.434   1.561
 2696TIP3    H2 8032   3.609   6.438   1.602
 2697TIP3   OH2 8033   0.380   6.937   6.057
 2697TIP3    H1 8034   0.369   6.964   6.149
 2697TIP3    H2 8035   0.411   7.016   6.013
 2698TIP3   OH2 8036   7.403   0.285   3.156
 2698TIP3    H1 8037   7.455   0.233   3.217
 2698TIP3    H2 8038   7.363   0.221   3.097
 2699TIP3   OH2 8039   5.718   3.641   4.347
 2699TIP3    H1 8040   5.714   3.607   4.437
 2699TIP3    H2 8041   5.723   3.563   4.292
 2700TIP3   OH2 8042   0.369   0.785   1.508
 2700TIP3    H1 8043   0.298   0.721   1.508
 2700TIP3    H2 8044   0.432   0.752   1.444
 2701TIP3   OH2 8045   7.297   1.411   4.417
 2701TIP3    H1 8046   7.309   1.484   4.477
 2701TIP3    H2 8047   7.339   1.439   4.336
 2702TIP3   OH2 8048   6.041   6.599   0.985
 2702TIP3    H1 8049   5.969   6.624   0.928
 2702TIP3    H2 8050   6.107   6.561   0.927
 2703TIP3   OH2 8051   8.008   4.178   4.230
 2703TIP3    H1 8052   8.100   4.204   4.235
 2703TIP3    H2 8053   7.974   4.190   4.318
 2704TIP3   OH2 8054   2.899   4.822   5.770
 2704TIP3    H1 8055   2.955   4.793   5.697
 2704TIP3    H2 8056   2.823   4.765   5.765
 2705TIP3   OH2 8057   6.458   2.832   1.650
 2705TIP3    H1 8058   6.477   2.751   1.601
 2705TIP3    H2 8059   6.503   2.900   1.601
 2706TIP3   OH2 8060   2.626   1.036   5.231
 2706TIP3    H1 8061   2.603   1.076   5.316
 2706TIP3    H2 8062   2.542   1.025   5.187
 2707TIP3   OH2 8063   6.812   3.619   4.390
 2707TIP3    H1 8064   6.850   3.701   4.420
 2707TIP3    H2 8065   6.723   3.620   4.425
 2708TIP3   OH2 8066   1.413   0.283   2.190
 2708TIP3    H1 8067   1.485   0.238   2.146
 2708TIP3    H2 8068   1.349   0.299   2.120
 2709TIP3   OH2 8069   4.878   3.727   0.755
 2709TIP3    H1 8070   4.961   3.700   0.795
 2709TIP3    H2 8071   4.850   3.651   0.704
 2710TIP3   OH2 8072   3.336   5.191   4.010
 2710TIP3    H1 8073   3.420   5.212   4.050
 2710TIP3    H2 8074   3.348   5.104   3.972
 2711TIP3   OH2 8075   5.253   7.286   1.710
 2711TIP3    H1 8076   5.237   7.314   1.800
 2711TIP3    H2 8077   5.203   7.348   1.657
 2712TIP3   OH2 8078   4.797   1.591   2.957
 2712TIP3    H1 8079   4.819   1.643   3.035
 2712TIP3    H2 8080   4.721   1.636   2.919
 2713TIP3   OH2 8081   7.035   7.161   0.420
 2713TIP3    H1 8082   7.014   7.254   0.404
 2713TIP3    H2 8083   6.974   7.114   0.363
 2714TIP3   OH2 8084   2.293   5.562   4.361
 2714TIP3    H1 8085   2.276   5.638   4.306
 2714TIP3    H2 8086   2.207   5.524   4.378
 2715TIP3   OH2 8087   5.674   1.483   4.587
 2715TIP3    H1 8088   5.719   1.459   4.668
 2715TIP3    H2 8089   5.581   1.473   4.608
 2716TIP3   OH2 8090   2.602   7.182   6.265
 2716TIP3    H1 8091   2.634   7.092   6.257
 2716TIP3    H2 8092   2.542   7.180   6.340
 2717TIP3   OH2 8093   2.398   7.261   3.153
 2717TIP3    H1 8094   2.407   7.331   3.088
 2717TIP3    H2 8095   2.394   7.307   3.237
 2718TIP3   OH2 8096   6.429   2.798   5.464
 2718TIP3    H1 8097   6.356   2.858   5.457
 2718TIP3    H2 8098   6.444   2.789   5.559
 2719TIP3   OH2 8099   8.071   7.818   4.708
 2719TIP3    H1 8100   8.075   7.752   4.777
 2719TIP3    H2 8101   8.160   7.825   4.675
 2720TIP3   OH2 8102   6.237   6.465   6.332
 2720TIP3    H1 8103   6.265   6.375   6.318
 2720TIP3    H2 8104   6.157   6.458   6.384
 2721TIP3   OH2 8105   2.224   5.057   4.522
 2721TIP3    H1 8106   2.272   5.014   4.451
 2721TIP3    H2 8107   2.288   5.065   4.592
 2722TIP3   OH2 8108   5.717   5.742   0.848
 2722TIP3    H1 8109   5.635   5.748   0.800
 2722TIP3    H2 8110   5.785   5.737   0.781
 2723TIP3   OH2 8111   0.599   1.209   2.109
 2723TIP3    H1 8112   0.651   1.285   2.135
 2723TIP3    H2 8113   0.510   1.244   2.097
 2724TIP3   OH2 8114   8.086   6.147   1.221
 2724TIP3    H1 8115   8.022   6.163   1.291
 2724TIP3    H2 8116   8.040   6.169   1.141
 2725TIP3   OH2 8117   5.935   2.168   3.522
 2725TIP3    H1 8118   5.848   2.207   3.510
 2725TIP3    H2 8119   5.968   2.157   3.432
 2726TIP3   OH2 8120   7.469   1.340   2.353
 2726TIP3    H1 8121   7.526   1.360   2.426
 2726TIP3    H2 8122   7.395   1.401   2.362
 2727TIP3   OH2 8123   6.963   0.865   4.468
 2727TIP3    H1 8124   6.980   0.772   4.483
 2727TIP3    H2 8125   6.901   0.890   4.536
 2728TIP3   OH2 8126   7.285   3.359   3.829
 2728TIP3    H1 8127   7.353   3.417   3.866
 2728TIP3    H2 8128   7.296   3.366   3.735
 2729TIP3   OH2 8129   1.742   0.390   6.239
 2729TIP3    H1 8130   1.690   0.362   6.164
 2729TIP3    H2 8131   1.710   0.478   6.260
 2730TIP3   OH2 8132   1.429   2.495   5.417
 2730TIP3    H1 8133   1.334   2.496   5.412
 2730TIP3    H2 8134   1.458   2.491   5.326
 2731TIP3   OH2 8135   4.066   0.032   1.564
 2731TIP3    H1 8136   4.161   0.029   1.562
 2731TIP3    H2 8137   4.040  -0.049   1.608
 2732TIP3   OH2 8138   0.604   6.707   2.132
 2732TIP3    H1 8139   0.530   6.767   2.120
 2732TIP3    H2 8140   0.583   6.631   2.077
 2733TIP3   OH2 8141   7.052   6.366   2.681
 2733TIP3    H1 8142   7.074   6.412   2.763
 2733TIP3    H2 8143   7.067   6.274   2.701
 2734TIP3   OH2 8144   0.121   5.246   0.285
 2734TIP3    H1 8145   0.140   5.254   0.192
 2734TIP3    H2 8146   0.202   5.212   0.324
 2735TIP3   OH2 8147   0.383   0.428   5.550
 2735TIP3    H1 8148   0.376   0.455   5.642
 2735TIP3    H2 8149   0.477   0.413   5.537
 2736TIP3   OH2 8150   2.044   0.661   1.522
 2736TIP3    H1 8151   2.120   0.640   1.576
 2736TIP3    H2 8152   2.054   0.753   1.500
 2737TIP3   OH2 8153   2.949   1.315   0.980
 2737TIP3    H1 8154   2.877   1.257   0.954
 2737TIP3    H2 8155   2.906   1.393   1.014
 2738TIP3   OH2 8156   6.302   2.003   4.618
 2738TIP3    H1 8157   6.376   2.036   4.567
 2738TIP3    H2 8158   6.314   2.040   4.706
 2739TIP3   OH2 8159   7.485   6.102   6.216
 2739TIP3    H1 8160   7.470   6.149   6.298
 2739TIP3    H2 8161   7.402   6.107   6.170
 2740TIP3   OH2 8162   7.348   0.204   1.429
 2740TIP3    H1 8163   7.333   0.298   1.414
 2740TIP3    H2 8164   7.378   0.171   1.344
 2741TIP3   OH2 8165   6.330   7.097   0.005
 2741TIP3    H1 8166   6.394   7.048  -0.047
 2741TIP3    H2 8167   6.382   7.156   0.058
 2742TIP3   OH2 8168   6.139   7.527   5.086
 2742TIP3    H1 8169   6.211   7.464   5.096
 2742TIP3    H2 8170   6.096   7.528   5.171
 2743TIP3   OH2 8171   1.100   5.131   5.876
 2743TIP3    H1 8172   1.093   5.133   5.781
 2743TIP3    H2 8173   1.194   5.134   5.894
 2744TIP3   OH2 8174   5.540   7.808   3.111
 2744TIP3    H1 8175   5.448   7.788   3.095
 2744TIP3    H2 8176   5.560   7.882   3.053
 2745TIP3   OH2 8177   7.814   1.437   0.487
 2745TIP3    H1 8178   7.803   1.359   0.433
 2745TIP3    H2 8179   7.726   1.455   0.520
 2746TIP3   OH2 8180   0.790   0.478   1.309
 2746TIP3    H1 8181   0.823   0.389   1.298
 2746TIP3    H2 8182   0.863   0.526   1.350
 2747TIP3   OH2 8183   7.028   4.956   0.159
 2747TIP3    H1 8184   6.977   4.886   0.201
 2747TIP3    H2 8185   7.096   4.910   0.110
 2748TIP3   OH2 8186   1.051   7.533   2.576
 2748TIP3    H1 8187   1.062   7.613   2.525
 2748TIP3    H2 8188   0.958   7.513   2.570
 2749TIP3   OH2 8189   0.600   3.158   1.570
 2749TIP3    H1 8190   0.595   3.253   1.572
 2749TIP3    H2 8191   0.556   3.130   1.651
 2750TIP3   OH2 8192   5.707   0.024   4.374
 2750TIP3    H1 8193   5.675   0.050   4.287
 2750TIP3    H2 8194   5.636   0.047   4.433
 2751TIP3   OH2 8195   6.210   1.429   0.131
 2751TIP3    H1 8196   6.305   1.423   0.129
 2751TIP3    H2 8197   6.181   1.390   0.049
 2752TIP3   OH2 8198   7.182   4.995   2.960
 2752TIP3    H1 8199   7.176   4.987   3.055
 2752TIP3    H2 8200   7.092   5.014   2.932
 2753TIP3   OH2 8201   2.637   3.173   0.865
 2753TIP3    H1 8202   2.554   3.131   0.888
 2753TIP3    H2 8203   2.622   3.266   0.884
 2754TIP3   OH2 8204   7.258   7.409   2.592
 2754TIP3    H1 8205   7.320   7.376   2.657
 2754TIP3    H2 8206   7.226   7.492   2.627
 2755TIP3   OH2 8207   3.769   0.131   4.167
 2755TIP3    H1 8208   3.815   0.141   4.084
 2755TIP3    H2 8209   3.680   0.163   4.149
 2756TIP3   OH2 8210   6.011   3.242   1.445
 2756TIP3    H1 8211   5.964   3.198   1.516
 2756TIP3    H2 8212   6.056   3.315   1.488
 2757TIP3   OH2 8213   3.170   4.363   4.418
 2757TIP3    H1 8214   3.081   4.349   4.387
 2757TIP3    H2 8215   3.183   4.458   4.412
 2758TIP3   OH2 8216   7.221   4.888   6.472
 2758TIP3    H1 8217   7.176   4.805   6.485
 2758TIP3    H2 8218   7.307   4.864   6.438
 2759TIP3   OH2 8219   6.138   0.332   6.250
 2759TIP3    H1 8220   6.096   0.404   6.296
 2759TIP3    H2 8221   6.183   0.372   6.176
 2760TIP3   OH2 8222   7.420   0.691   4.639
 2760TIP3    H1 8223   7.439   0.735   4.556
 2760TIP3    H2 8224   7.461   0.605   4.631
 2761TIP3   OH2 8225   5.932   7.567   2.866
 2761TIP3    H1 8226   5.870   7.494   2.871
 2761TIP3    H2 8227   6.004   7.542   2.924
 2762TIP3   OH2 8228   4.497   2.327   2.886
 2762TIP3    H1 8229   4.431   2.320   2.955
 2762TIP3    H2 8230   4.543   2.409   2.904
 2763TIP3   OH2 8231   2.649   7.066   5.044
 2763TIP3    H1 8232   2.600   7.020   5.112
 2763TIP3    H2 8233   2.633   7.016   4.964
 2764TIP3   OH2 8234   0.731   0.677   1.684
 2764TIP3    H1 8235   0.724   0.756   1.632
 2764TIP3    H2 8236   0.685   0.697   1.765
 2765TIP3   OH2 8237   1.376   3.910   2.610
 2765TIP3    H1 8238   1.443   3.896   2.677
 2765TIP3    H2 8239   1.400   3.849   2.539
 2766TIP3   OH2 8240   0.292   5.314   6.228
 2766TIP3    H1 8241   0.308   5.408   6.216
 2766TIP3    H2 8242   0.367   5.271   6.188
 2767TIP3   OH2 8243   0.178   7.452   0.300
 2767TIP3    H1 8244   0.202   7.377   0.245
 2767TIP3    H2 8245   0.260   7.476   0.344
 2768TIP3   OH2 8246   7.425   4.027   2.358
 2768TIP3    H1 8247   7.353   3.980   2.315
 2768TIP3    H2 8248   7.389   4.054   2.442
 2769TIP3   OH2 8249   4.363   4.919   1.060
 2769TIP3    H1 8250   4.305   4.995   1.066
 2769TIP3    H2 8251   4.451   4.955   1.071
 2770TIP3   OH2 8252   0.030   6.168   4.316
 2770TIP3    H1 8253   0.109   6.189   4.367
 2770TIP3    H2 8254  -0.030   6.241   4.334
 2771TIP3   OH2 8255   2.979   6.242   4.151
 2771TIP3    H1 8256   2.977   6.326   4.198
 2771TIP3    H2 8257   3.048   6.192   4.194
 2772TIP3   OH2 8258   6.744   4.530   2.919
 2772TIP3    H1 8259   6.810   4.461   2.923
 2772TIP3    H2 8260   6.664   4.485   2.891
 2773TIP3   OH2 8261   6.537   5.627   3.602
 2773TIP3    H1 8262   6.597   5.672   3.543
 2773TIP3    H2 8263   6.591   5.600   3.676
 2774TIP3   OH2 8264   0.267   4.211   5.666
 2774TIP3    H1 8265   0.217   4.131   5.680
 2774TIP3    H2 8266   0.201   4.279   5.654
 2775TIP3   OH2 8267   1.111   1.010   4.821
 2775TIP3    H1 8268   1.057   0.983   4.747
 2775TIP3    H2 8269   1.049   1.013   4.895
 2776TIP3   OH2 8270   3.952   1.850   6.048
 2776TIP3    H1 8271   3.859   1.863   6.031
 2776TIP3    H2 8272   3.966   1.757   6.033
 2777TIP3   OH2 8273   7.381   2.007   3.965
 2777TIP3    H1 8274   7.366   2.063   4.041
 2777TIP3    H2 8275   7.366   2.064   3.890
 2778TIP3   OH2 8276   2.570   1.880   3.720
 2778TIP3    H1 8277   2.551   1.895   3.813
 2778TIP3    H2 8278   2.602   1.791   3.715
 2779TIP3   OH2 8279   2.753   6.745   6.690
 2779TIP3    H1 8280   2.838   6.755   6.733
 2779TIP3    H2 8281   2.764   6.666   6.636
 2780TIP3   OH2 8282   7.987   1.621   3.333
 2780TIP3    H1 8283   7.965   1.653   3.420
 2780TIP3    H2 8284   7.910   1.570   3.306
 2781TIP3   OH2 8285   5.821   5.188   5.188
 2781TIP3    H1 8286   5.809   5.194   5.283
 2781TIP3    H2 8287   5.838   5.095   5.172
 2782TIP3   OH2 8288   4.905   0.586   0.083
 2782TIP3    H1 8289   4.930   0.494   0.086
 2782TIP3    H2 8290   4.973   0.630   0.134
 2783TIP3   OH2 8291   2.348   5.195   5.861
 2783TIP3    H1 8292   2.427   5.189   5.915
 2783TIP3    H2 8293   2.377   5.171   5.773
 2784TIP3   OH2 8294   3.441   6.524   1.865
 2784TIP3    H1 8295   3.456   6.499   1.774
 2784TIP3    H2 8296   3.406   6.446   1.906
 2785TIP3   OH2 8297   4.211   6.595   2.194
 2785TIP3    H1 8298   4.159   6.650   2.135
 2785TIP3    H2 8299   4.147   6.555   2.252
 2786TIP3   OH2 8300   4.373   2.326   3.134
 2786TIP3    H1 8301   4.395   2.400   3.190
 2786TIP3    H2 8302   4.363   2.252   3.194
 2787TIP3   OH2 8303   3.958   5.101   4.878
 2787TIP3    H1 8304   4.013   5.041   4.828
 2787TIP3    H2 8305   4.010   5.123   4.955
 2788TIP3   OH2 8306   5.337   6.615   2.973
 2788TIP3    H1 8307   5.386   6.694   2.953
 2788TIP3    H2 8308   5.306   6.584   2.888
 2789TIP3   OH2 8309   4.703   0.925   1.030
 2789TIP3    H1 8310   4.773   0.888   0.976
 2789TIP3    H2 8311   4.660   0.988   0.973
 2790TIP3   OH2 8312   2.472   6.485   2.295
 2790TIP3    H1 8313   2.515   6.475   2.380
 2790TIP3    H2 8314   2.399   6.546   2.312
 2791TIP3   OH2 8315   3.212   2.000   1.651
 2791TIP3    H1 8316   3.189   1.908   1.640
 2791TIP3    H2 8317   3.289   2.000   1.708
 2792TIP3   OH2 8318   5.742   7.436   2.609
 2792TIP3    H1 8319   5.685   7.438   2.533
 2792TIP3    H2 8320   5.715   7.357   2.657
 2793TIP3   OH2 8321   2.155   1.546   5.219
 2793TIP3    H1 8322   2.092   1.562   5.289
 2793TIP3    H2 8323   2.196   1.462   5.241
 2794TIP3   OH2 8324   6.485   3.753   4.344
 2794TIP3    H1 8325   6.534   3.748   4.427
 2794TIP3    H2 8326   6.547   3.790   4.282
 2795TIP3   OH2 8327   1.356   5.629   0.984
 2795TIP3    H1 8328   1.309   5.549   1.005
 2795TIP3    H2 8329   1.438   5.599   0.945
 2796TIP3   OH2 8330   6.344   3.559   4.991
 2796TIP3    H1 8331   6.268   3.501   4.991
 2796TIP3    H2 8332   6.405   3.519   5.053
 2797TIP3   OH2 8333   0.667   6.436   0.172
 2797TIP3    H1 8334   0.652   6.474   0.085
 2797TIP3    H2 8335   0.660   6.510   0.232
 2798TIP3   OH2 8336   1.942   6.806   2.455
 2798TIP3    H1 8337   1.905   6.835   2.371
 2798TIP3    H2 8338   2.012   6.870   2.473
 2799TIP3   OH2 8339   0.657   2.873   2.810
 2799TIP3    H1 8340   0.581   2.815   2.807
 2799TIP3    H2 8341   0.728   2.821   2.771
 2800TIP3   OH2 8342   3.115   2.834   6.358
 2800TIP3    H1 8343   3.170   2.874   6.424
 2800TIP3    H2 8344   3.147   2.869   6.275
 2801TIP3   OH2 8345   1.252   6.646   4.055
 2801TIP3    H1 8346   1.165   6.659   4.017
 2801TIP3    H2 8347   1.285   6.735   4.069
 2802TIP3   OH2 8348   1.760   4.683   3.130
 2802TIP3    H1 8349   1.751   4.629   3.208
 2802TIP3    H2 8350   1.783   4.770   3.164
 2803TIP3   OH2 8351   1.633   4.382   5.750
 2803TIP3    H1 8352   1.657   4.398   5.841
 2803TIP3    H2 8353   1.605   4.291   5.748
 2804TIP3   OH2 8354   4.770   3.236   1.478
 2804TIP3    H1 8355   4.696   3.293   1.457
 2804TIP3    H2 8356   4.838   3.296   1.512
 2805TIP3   OH2 8357   4.100   6.875   6.035
 2805TIP3    H1 8358   4.042   6.802   6.058
 2805TIP3    H2 8359   4.175   6.833   5.994
 2806TIP3   OH2 8360   0.690   1.034   5.561
 2806TIP3    H1 8361   0.769   0.984   5.579
 2806TIP3    H2 8362   0.709   1.080   5.480
 2807TIP3   OH2 8363   3.744   2.158   2.624
 2807TIP3    H1 8364   3.727   2.072   2.663
 2807TIP3    H2 8365   3.658   2.189   2.596
 2808TIP3   OH2 8366   6.176   2.416   5.337
 2808TIP3    H1 8367   6.119   2.428   5.261
 2808TIP3    H2 8368   6.253   2.470   5.317
 2809TIP3   OH2 8369   7.387   4.023   5.096
 2809TIP3    H1 8370   7.446   3.969   5.044
 2809TIP3    H2 8371   7.302   4.013   5.054
 2810TIP3   OH2 8372   4.468   6.356   3.367
 2810TIP3    H1 8373   4.444   6.264   3.373
 2810TIP3    H2 8374   4.511   6.375   3.450
 2811TIP3   OH2 8375   6.008   6.172   2.645
 2811TIP3    H1 8376   6.067   6.190   2.718
 2811TIP3    H2 8377   6.028   6.083   2.619
 2812TIP3   OH2 8378   2.647   3.225   6.023
 2812TIP3    H1 8379   2.617   3.153   6.079
 2812TIP3    H2 8380   2.586   3.225   5.950
 2813TIP3   OH2 8381   6.155   7.756   6.308
 2813TIP3    H1 8382   6.173   7.818   6.378
 2813TIP3    H2 8383   6.071   7.717   6.331
 2814TIP3   OH2 8384   4.058   6.079   1.439
 2814TIP3    H1 8385   4.092   6.160   1.475
 2814TIP3    H2 8386   4.001   6.044   1.508
 2815TIP3   OH2 8387   4.661   2.254   1.703
 2815TIP3    H1 8388   4.693   2.237   1.792
 2815TIP3    H2 8389   4.626   2.342   1.707
 2816TIP3   OH2 8390   3.901   2.684   0.392
 2816TIP3    H1 8391   3.814   2.678   0.432
 2816TIP3    H2 8392   3.957   2.718   0.462
 2817TIP3   OH2 8393   0.074   5.138   5.782
 2817TIP3    H1 8394   0.167   5.131   5.761
 2817TIP3    H2 8395   0.070   5.120   5.876
 2818TIP3   OH2 8396   0.483   1.890   0.990
 2818TIP3    H1 8397   0.410   1.853   0.940
 2818TIP3    H2 8398   0.534   1.938   0.925
 2819TIP3   OH2 8399   3.473   1.281   5.814
 2819TIP3    H1 8400   3.499   1.213   5.752
 2819TIP3    H2 8401   3.399   1.325   5.773
 2820TIP3   OH2 8402   7.572   0.878   5.893
 2820TIP3    H1 8403   7.620   0.819   5.835
 2820TIP3    H2 8404   7.575   0.963   5.849
 2821TIP3   OH2 8405   6.405   4.087   4.911
 2821TIP3    H1 8406   6.396   4.105   4.817
 2821TIP3    H2 8407   6.395   3.992   4.919
 2822TIP3   OH2 8408   8.161   7.309   4.767
 2822TIP3    H1 8409   8.164   7.283   4.675
 2822TIP3    H2 8410   8.231   7.259   4.809
 2823TIP3   OH2 8411   5.977   5.672   0.725
 2823TIP3    H1 8412   6.003   5.580   0.722
 2823TIP3    H2 8413   6.040   5.713   0.784
 2824TIP3   OH2 8414   6.887   3.068   1.090
 2824TIP3    H1 8415   6.976   3.098   1.109
 2824TIP3    H2 8416   6.892   3.030   1.002
 2825TIP3   OH2 8417   4.642   0.290   4.191
 2825TIP3    H1 8418   4.567   0.233   4.173
 2825TIP3    H2 8419   4.647   0.348   4.115
 2826TIP3   OH2 8420   1.841   7.746   2.196
 2826TIP3    H1 8421   1.858   7.708   2.110
 2826TIP3    H2 8422   1.893   7.826   2.198
 2827TIP3   OH2 8423   2.698   1.855   5.900
 2827TIP3    H1 8424   2.742   1.774   5.926
 2827TIP3    H2 8425   2.612   1.826   5.870
 2828TIP3   OH2 8426   5.715   6.591   1.140
 2828TIP3    H1 8427   5.680   6.529   1.076
 2828TIP3    H2 8428   5.793   6.547   1.175
 2829TIP3   OH2 8429   5.820   0.348   5.507
 2829TIP3    H1 8430   5.753   0.397   5.459
 2829TIP3    H2 8431   5.783   0.260   5.516
 2830TIP3   OH2 8432   2.989   4.917   4.507
 2830TIP3    H1 8433   2.990   4.822   4.499
 2830TIP3    H2 8434   3.039   4.949   4.432
 2831TIP3   OH2 8435   0.207   2.885   3.688
 2831TIP3    H1 8436   0.277   2.819   3.690
 2831TIP3    H2 8437   0.202   2.918   3.778
 2832TIP3   OH2 8438   5.184   1.164   1.415
 2832TIP3    H1 8439   5.139   1.079   1.412
 2832TIP3    H2 8440   5.125   1.223   1.368
 2833TIP3   OH2 8441   6.274   0.885   3.314
 2833TIP3    H1 8442   6.247   0.805   3.358
 2833TIP3    H2 8443   6.370   0.878   3.307
 2834TIP3   OH2 8444   6.463   0.256   5.873
 2834TIP3    H1 8445   6.371   0.280   5.885
 2834TIP3    H2 8446   6.462   0.187   5.806
 2835TIP3   OH2 8447   6.769   3.739   1.814
 2835TIP3    H1 8448   6.857   3.757   1.779
 2835TIP3    H2 8449   6.747   3.653   1.780
 2836TIP3   OH2 8450   1.111   0.302   4.822
 2836TIP3    H1 8451   1.098   0.209   4.843
 2836TIP3    H2 8452   1.194   0.304   4.775
 2837TIP3   OH2 8453   6.282   2.164   4.838
 2837TIP3    H1 8454   6.221   2.209   4.780
 2837TIP3    H2 8455   6.229   2.140   4.914
 2838TIP3   OH2 8456   5.561   3.897   1.207
 2838TIP3    H1 8457   5.629   3.945   1.159
 2838TIP3    H2 8458   5.560   3.939   1.294
 2839TIP3   OH2 8459   7.915   5.927   5.451
 2839TIP3    H1 8460   7.957   5.930   5.537
 2839TIP3    H2 8461   7.976   5.877   5.397
 2840TIP3   OH2 8462   1.938   0.179   0.836
 2840TIP3    H1 8463   1.947   0.097   0.885
 2840TIP3    H2 8464   1.921   0.151   0.746
 2841TIP3   OH2 8465   7.645   6.202   2.674
 2841TIP3    H1 8466   7.666   6.293   2.653
 2841TIP3    H2 8467   7.680   6.151   2.601
 2842TIP3   OH2 8468   3.450   1.932   0.471
 2842TIP3    H1 8469   3.535   1.973   0.453
 2842TIP3    H2 8470   3.434   1.877   0.395
 2843TIP3   OH2 8471   1.987   6.807   1.947
 2843TIP3    H1 8472   1.908   6.844   1.985
 2843TIP3    H2 8473   1.972   6.811   1.852
 2844TIP3   OH2 8474   2.001   0.860   2.897
 2844TIP3    H1 8475   1.958   0.876   2.814
 2844TIP3    H2 8476   1.965   0.926   2.956
 2845TIP3   OH2 8477   3.441   0.750   1.109
 2845TIP3    H1 8478   3.354   0.723   1.080
 2845TIP3    H2 8479   3.440   0.734   1.204
 2846TIP3   OH2 8480   2.879   7.315   4.774
 2846TIP3    H1 8481   2.868   7.248   4.843
 2846TIP3    H2 8482   2.834   7.278   4.698
 2847TIP3   OH2 8483   1.519   5.519   4.371
 2847TIP3    H1 8484   1.516   5.575   4.449
 2847TIP3    H2 8485   1.483   5.573   4.301
 2848TIP3   OH2 8486   2.590   5.818   4.861
 2848TIP3    H1 8487   2.575   5.750   4.927
 2848TIP3    H2 8488   2.506   5.830   4.818
 2849TIP3   OH2 8489   1.528   1.564   0.045
 2849TIP3    H1 8490   1.525   1.658   0.061
 2849TIP3    H2 8491   1.503   1.554  -0.047
 2850TIP3   OH2 8492   5.456   0.022   6.289
 2850TIP3    H1 8493   5.468   0.025   6.194
 2850TIP3    H2 8494   5.537   0.058   6.325
 2851TIP3   OH2 8495   0.835   5.027   4.748
 2851TIP3    H1 8496   0.764   4.973   4.784
 2851TIP3    H2 8497   0.791   5.108   4.721
 2852TIP3   OH2 8498   5.595   6.944   1.227
 2852TIP3    H1 8499   5.535   6.888   1.276
 2852TIP3    H2 8500   5.682   6.925   1.263
 2853TIP3   OH2 8501   4.318   3.077   3.286
 2853TIP3    H1 8502   4.399   3.094   3.238
 2853TIP3    H2 8503   4.291   3.162   3.318
 2854TIP3   OH2 8504   5.334   3.471   0.667
 2854TIP3    H1 8505   5.277   3.451   0.593
 2854TIP3    H2 8506   5.386   3.391   0.680
 2855TIP3   OH2 8507   7.923   5.370   3.551
 2855TIP3    H1 8508   7.883   5.374   3.464
 2855TIP3    H2 8509   7.848   5.368   3.611
 2856TIP3   OH2 8510   6.711   2.857   0.277
 2856TIP3    H1 8511   6.795   2.897   0.300
 2856TIP3    H2 8512   6.732   2.798   0.204
 2857TIP3   OH2 8513   5.267   2.504   5.040
 2857TIP3    H1 8514   5.345   2.540   4.998
 2857TIP3    H2 8515   5.286   2.511   5.134
 2858TIP3   OH2 8516   2.937   2.381   2.270
 2858TIP3    H1 8517   2.857   2.333   2.292
 2858TIP3    H2 8518   2.978   2.329   2.200
 2859TIP3   OH2 8519   2.443   3.513   2.752
 2859TIP3    H1 8520   2.390   3.434   2.743
 2859TIP3    H2 8521   2.502   3.511   2.676
 2860TIP3   OH2 8522   3.391   6.494   2.640
 2860TIP3    H1 8523   3.383   6.449   2.724
 2860TIP3    H2 8524   3.398   6.424   2.575
 2861TIP3   OH2 8525   0.620   0.898   2.768
 2861TIP3    H1 8526   0.528   0.883   2.744
 2861TIP3    H2 8527   0.669   0.866   2.692
 2862TIP3   OH2 8528   5.901   7.147   5.018
 2862TIP3    H1 8529   5.904   7.051   5.019
 2862TIP3    H2 8530   5.959   7.173   5.089
 2863TIP3   OH2 8531   4.357   4.711   3.442
 2863TIP3    H1 8532   4.441   4.683   3.407
 2863TIP3    H2 8533   4.301   4.633   3.439
 2864TIP3   OH2 8534   7.580   1.308   5.227
 2864TIP3    H1 8535   7.632   1.388   5.233
 2864TIP3    H2 8536   7.642   1.242   5.194
 2865TIP3   OH2 8537   1.055   2.289   4.642
 2865TIP3    H1 8538   0.972   2.318   4.605
 2865TIP3    H2 8539   1.047   2.308   4.736
 2866TIP3   OH2 8540   0.667   3.019   6.592
 2866TIP3    H1 8541   0.693   2.961   6.663
 2866TIP3    H2 8542   0.744   3.073   6.575
 2867TIP3   OH2 8543   0.183   4.613   5.576
 2867TIP3    H1 8544   0.127   4.684   5.545
 2867TIP3    H2 8545   0.241   4.594   5.503
 2868TIP3   OH2 8546   6.994   1.065   6.559
 2868TIP3    H1 8547   7.008   0.971   6.547
 2868TIP3    H2 8548   7.058   1.091   6.626
 2869TIP3   OH2 8549   0.306   3.273   2.839
 2869TIP3    H1 8550   0.258   3.219   2.902
 2869TIP3    H2 8551   0.264   3.255   2.755
 2870TIP3   OH2 8552   7.179   7.333   6.291
 2870TIP3    H1 8553   7.264   7.353   6.329
 2870TIP3    H2 8554   7.170   7.395   6.218
 2871TIP3   OH2 8555   8.190   3.659   0.298
 2871TIP3    H1 8556   8.222   3.717   0.228
 2871TIP3    H2 8557   8.114   3.705   0.333
 2872TIP3   OH2 8558   6.487   7.707   0.617
 2872TIP3    H1 8559   6.411   7.736   0.667
 2872TIP3    H2 8560   6.533   7.647   0.675
 2873TIP3   OH2 8561   6.846   0.405   6.176
 2873TIP3    H1 8562   6.769   0.399   6.120
 2873TIP3    H2 8563   6.843   0.325   6.230
 2874TIP3   OH2 8564   5.131   0.910   1.461
 2874TIP3    H1 8565   5.065   0.898   1.529
 2874TIP3    H2 8566   5.099   0.861   1.386
 2875TIP3   OH2 8567   1.377   4.123   1.960
 2875TIP3    H1 8568   1.387   4.038   2.003
 2875TIP3    H2 8569   1.344   4.102   1.872
 2876TIP3   OH2 8570   7.168   4.551   0.921
 2876TIP3    H1 8571   7.113   4.627   0.940
 2876TIP3    H2 8572   7.188   4.513   1.006
 2877TIP3   OH2 8573   4.367   7.058   1.005
 2877TIP3    H1 8574   4.322   7.096   0.930
 2877TIP3    H2 8575   4.449   7.024   0.970
 2878TIP3   OH2 8576   7.965   5.052   2.854
 2878TIP3    H1 8577   7.910   4.973   2.856
 2878TIP3    H2 8578   8.055   5.018   2.860
 2879TIP3   OH2 8579   4.633   4.517   4.116
 2879TIP3    H1 8580   4.653   4.597   4.066
 2879TIP3    H2 8581   4.646   4.446   4.053
 2880TIP3   OH2 8582   5.340   0.271   6.528
 2880TIP3    H1 8583   5.323   0.354   6.573
 2880TIP3    H2 8584   5.347   0.295   6.436
 2881TIP3   OH2 8585   2.427   4.823   2.464
 2881TIP3    H1 8586   2.365   4.891   2.436
 2881TIP3    H2 8587   2.486   4.868   2.525
 2882TIP3   OH2 8588   2.865   0.873   3.575
 2882TIP3    H1 8589   2.859   0.903   3.666
 2882TIP3    H2 8590   2.800   0.802   3.570
 2883TIP3   OH2 8591   1.507   3.358   4.793
 2883TIP3    H1 8592   1.460   3.408   4.727
 2883TIP3    H2 8593   1.581   3.414   4.818
 2884TIP3   OH2 8594   3.967   6.045   0.400
 2884TIP3    H1 8595   4.019   6.084   0.329
 2884TIP3    H2 8596   3.889   6.011   0.356
 2885TIP3   OH2 8597   2.110   6.022   6.708
 2885TIP3    H1 8598   2.153   5.948   6.665
 2885TIP3    H2 8599   2.086   6.081   6.636
 2886TIP3   OH2 8600   3.005   6.994   0.457
 2886TIP3    H1 8601   3.010   7.070   0.399
 2886TIP3    H2 8602   3.094   6.983   0.490
 2887TIP3   OH2 8603   2.687   0.940   6.684
 2887TIP3    H1 8604   2.712   0.869   6.743
 2887TIP3    H2 8605   2.685   1.018   6.741
 2888TIP3   OH2 8606   7.204   4.358   4.352
 2888TIP3    H1 8607   7.156   4.350   4.269
 2888TIP3    H2 8608   7.277   4.296   4.343
 2889TIP3   OH2 8609   5.704   0.606   0.791
 2889TIP3    H1 8610   5.684   0.672   0.857
 2889TIP3    H2 8611   5.785   0.565   0.822
 2890TIP3   OH2 8612   3.027   2.146   3.988
 2890TIP3    H1 8613   3.101   2.112   3.940
 2890TIP3    H2 8614   2.983   2.205   3.927
 2891TIP3   OH2 8615   5.453   2.952   3.528
 2891TIP3    H1 8616   5.420   2.927   3.614
 2891TIP3    H2 8617   5.548   2.942   3.534
 2892TIP3   OH2 8618   6.022   2.544   1.470
 2892TIP3    H1 8619   5.944   2.599   1.472
 2892TIP3    H2 8620   6.081   2.587   1.408
 2893TIP3   OH2 8621   6.110   0.293   1.212
 2893TIP3    H1 8622   6.191   0.336   1.183
 2893TIP3    H2 8623   6.056   0.365   1.245
 2894TIP3   OH2 8624   3.501   7.629   3.453
 2894TIP3    H1 8625   3.488   7.681   3.532
 2894TIP3    H2 8626   3.573   7.569   3.476
 2895TIP3   OH2 8627   1.219   7.782   5.751
 2895TIP3    H1 8628   1.288   7.747   5.694
 2895TIP3    H2 8629   1.215   7.875   5.730
 2896TIP3   OH2 8630   1.657   2.596   0.687
 2896TIP3    H1 8631   1.655   2.557   0.599
 2896TIP3    H2 8632   1.742   2.570   0.723
 2897TIP3   OH2 8633   4.007   6.501   3.854
 2897TIP3    H1 8634   3.990   6.514   3.760
 2897TIP3    H2 8635   4.046   6.414   3.859
 2898TIP3   OH2 8636   6.601   3.664   4.570
 2898TIP3    H1 8637   6.549   3.628   4.641
 2898TIP3    H2 8638   6.635   3.747   4.605
 2899TIP3   OH2 8639   2.516   6.046   6.618
 2899TIP3    H1 8640   2.468   6.020   6.696
 2899TIP3    H2 8641   2.569   5.969   6.596
 2900TIP3   OH2 8642   6.144   0.748   4.747
 2900TIP3    H1 8643   6.208   0.752   4.676
 2900TIP3    H2 8644   6.062   0.776   4.706
 2901TIP3   OH2 8645   4.181   6.054   6.086
 2901TIP3    H1 8646   4.110   6.098   6.039
 2901TIP3    H2 8647   4.234   6.126   6.121
 2902TIP3   OH2 8648   4.759   2.265   1.950
 2902TIP3    H1 8649   4.815   2.342   1.948
 2902TIP3    H2 8650   4.732   2.258   2.042
 2903TIP3   OH2 8651   7.271   0.136   6.748
 2903TIP3    H1 8652   7.213   0.070   6.785
 2903TIP3    H2 8653   7.214   0.193   6.697
 2904TIP3   OH2 8654   1.732   7.734   0.718
 2904TIP3    H1 8655   1.804   7.681   0.685
 2904TIP3    H2 8656   1.697   7.779   0.641
 2905TIP3   OH2 8657   1.589   1.835   4.056
 2905TIP3    H1 8658   1.633   1.913   4.022
 2905TIP3    H2 8659   1.521   1.869   4.113
 2906TIP3   OH2 8660   8.253   2.324   1.674
 2906TIP3    H1 8661   8.296   2.306   1.758
 2906TIP3    H2 8662   8.161   2.335   1.697
 2907TIP3   OH2 8663   2.828   6.366   5.002
 2907TIP3    H1 8664   2.850   6.452   5.038
 2907TIP3    H2 8665   2.829   6.308   5.077
 2908TIP3   OH2 8666   5.196   0.673   2.897
 2908TIP3    H1 8667   5.144   0.657   2.975
 2908TIP3    H2 8668   5.232   0.761   2.909
 2909TIP3   OH2 8669   0.229   2.509   1.156
 2909TIP3    H1 8670   0.235   2.593   1.202
 2909TIP3    H2 8671   0.266   2.446   1.218
 2910TIP3   OH2 8672   1.118   3.585   1.012
 2910TIP3    H1 8673   1.130   3.601   0.918
 2910TIP3    H2 8674   1.097   3.492   1.017
 2911TIP3   OH2 8675   7.219   2.251   2.065
 2911TIP3    H1 8676   7.221   2.342   2.095
 2911TIP3    H2 8677   7.157   2.208   2.123
 2912TIP3   OH2 8678   1.367   4.411   4.361
 2912TIP3    H1 8679   1.367   4.423   4.456
 2912TIP3    H2 8680   1.298   4.347   4.344
 2913TIP3   OH2 8681   3.878   5.485   6.512
 2913TIP3    H1 8682   3.906   5.447   6.595
 2913TIP3    H2 8683   3.954   5.534   6.481
 2914TIP3   OH2 8684   1.373   3.658   4.325
 2914TIP3    H1 8685   1.456   3.704   4.340
 2914TIP3    H2 8686   1.399   3.568   4.307
 2915TIP3   OH2 8687   7.147   1.476   2.907
 2915TIP3    H1 8688   7.082   1.543   2.885
 2915TIP3    H2 8689   7.201   1.516   2.975
 2916TIP3   OH2 8690   0.302   3.177   5.569
 2916TIP3    H1 8691   0.300   3.251   5.631
 2916TIP3    H2 8692   0.299   3.100   5.625
 2917TIP3   OH2 8693   2.973   0.708   2.517
 2917TIP3    H1 8694   3.038   0.732   2.584
 2917TIP3    H2 8695   2.962   0.613   2.527
 2918TIP3   OH2 8696   1.735   1.490   6.172
 2918TIP3    H1 8697   1.687   1.565   6.137
 2918TIP3    H2 8698   1.766   1.444   6.094
 2919TIP3   OH2 8699   3.560   0.979   3.680
 2919TIP3    H1 8700   3.471   0.963   3.651
 2919TIP3    H2 8701   3.595   0.893   3.701
 2920TIP3   OH2 8702   6.860   0.140   4.852
 2920TIP3    H1 8703   6.939   0.192   4.837
 2920TIP3    H2 8704   6.791   0.186   4.805
 2921TIP3   OH2 8705   0.257   3.227   1.566
 2921TIP3    H1 8706   0.188   3.251   1.503
 2921TIP3    H2 8707   0.329   3.288   1.548
 2922TIP3   OH2 8708   0.083   3.951   4.286
 2922TIP3    H1 8709   0.174   3.928   4.307
 2922TIP3    H2 8710   0.083   4.046   4.283
 2923TIP3   OH2 8711   2.567   6.411   4.881
 2923TIP3    H1 8712   2.583   6.416   4.787
 2923TIP3    H2 8713   2.651   6.384   4.918
 2924TIP3   OH2 8714   6.332   5.595   6.187
 2924TIP3    H1 8715   6.378   5.652   6.125
 2924TIP3    H2 8716   6.268   5.653   6.229
 2925TIP3   OH2 8717   5.508   0.649   3.222
 2925TIP3    H1 8718   5.421   0.627   3.256
 2925TIP3    H2 8719   5.503   0.629   3.128
 2926TIP3   OH2 8720   5.858   3.529   6.316
 2926TIP3    H1 8721   5.943   3.538   6.359
 2926TIP3    H2 8722   5.794   3.541   6.387
 2927TIP3   OH2 8723   3.032   1.870   6.345
 2927TIP3    H1 8724   2.983   1.951   6.330
 2927TIP3    H2 8725   3.109   1.878   6.287
 2928TIP3   OH2 8726   0.324   7.725   3.620
 2928TIP3    H1 8727   0.390   7.768   3.676
 2928TIP3    H2 8728   0.250   7.710   3.679
 2929TIP3   OH2 8729   5.274   4.976   4.210
 2929TIP3    H1 8730   5.285   5.044   4.144
 2929TIP3    H2 8731   5.325   4.902   4.178
 2930TIP3   OH2 8732   4.299   5.056   5.361
 2930TIP3    H1 8733   4.370   5.118   5.344
 2930TIP3    H2 8734   4.284   5.062   5.455
 2931TIP3   OH2 8735   1.139   2.533   5.368
 2931TIP3    H1 8736   1.128   2.492   5.454
 2931TIP3    H2 8737   1.050   2.560   5.343
 2932TIP3   OH2 8738   0.160   7.596   5.095
 2932TIP3    H1 8739   0.108   7.654   5.151
 2932TIP3    H2 8740   0.249   7.630   5.102
 2933TIP3   OH2 8741   2.292   3.431   5.677
 2933TIP3    H1 8742   2.382   3.456   5.697
 2933TIP3    H2 8743   2.242   3.458   5.754
 2934TIP3   OH2 8744   5.778   7.387   3.557
 2934TIP3    H1 8745   5.811   7.346   3.637
 2934TIP3    H2 8746   5.721   7.458   3.589
 2935TIP3   OH2 8747   1.798   1.995   6.661
 2935TIP3    H1 8748   1.788   1.901   6.674
 2935TIP3    H2 8749   1.886   2.014   6.692
 2936TIP3   OH2 8750   2.687   0.080   5.792
 2936TIP3    H1 8751   2.654   0.044   5.875
 2936TIP3    H2 8752   2.725   0.164   5.816
 2937TIP3   OH2 8753   0.475   7.065   5.042
 2937TIP3    H1 8754   0.475   6.971   5.062
 2937TIP3    H2 8755   0.396   7.098   5.087
 2938TIP3   OH2 8756   6.341   3.860   0.608
 2938TIP3    H1 8757   6.414   3.918   0.629
 2938TIP3    H2 8758   6.375   3.802   0.540
 2939TIP3   OH2 8759   6.929   6.389   2.225
 2939TIP3    H1 8760   6.977   6.323   2.275
 2939TIP3    H2 8761   6.932   6.467   2.280
 2940TIP3   OH2 8762   1.861   2.854   5.912
 2940TIP3    H1 8763   1.772   2.818   5.908
 2940TIP3    H2 8764   1.850   2.947   5.893
 2941TIP3   OH2 8765   6.894   2.369   3.027
 2941TIP3    H1 8766   6.941   2.441   2.984
 2941TIP3    H2 8767   6.951   2.293   3.017
 2942TIP3   OH2 8768   7.909   1.715   4.906
 2942TIP3    H1 8769   7.965   1.749   4.976
 2942TIP3    H2 8770   7.822   1.711   4.945
 2943TIP3   OH2 8771   3.956   3.703   0.182
 2943TIP3    H1 8772   4.017   3.697   0.110
 2943TIP3    H2 8773   3.878   3.656   0.152
 2944TIP3   OH2 8774   0.565   5.295   4.795
 2944TIP3    H1 8775   0.524   5.210   4.781
 2944TIP3    H2 8776   0.542   5.318   4.886
 2945TIP3   OH2 8777   7.234   7.004   4.154
 2945TIP3    H1 8778   7.261   7.058   4.079
 2945TIP3    H2 8779   7.166   7.056   4.197
 2946TIP3   OH2 8780   0.061   6.748   4.515
 2946TIP3    H1 8781  -0.027   6.778   4.536
 2946TIP3    H2 8782   0.050   6.688   4.441
 2947TIP3   OH2 8783   2.866   2.354   1.170
 2947TIP3    H1 8784   2.905   2.421   1.114
 2947TIP3    H2 8785   2.799   2.402   1.219
 2948TIP3   OH2 8786   5.087   6.668   2.057
 2948TIP3    H1 8787   5.135   6.646   1.977
 2948TIP3    H2 8788   5.000   6.692   2.026
 2949TIP3   OH2 8789   7.335   4.270   1.473
 2949TIP3    H1 8790   7.347   4.178   1.496
 2949TIP3    H2 8791   7.241   4.278   1.457
 2950TIP3   OH2 8792   0.270   5.694   6.441
 2950TIP3    H1 8793   0.346   5.637   6.432
 2950TIP3    H2 8794   0.271   5.723   6.533
 2951TIP3   OH2 8795   4.987   0.313   1.155
 2951TIP3    H1 8796   4.942   0.388   1.194
 2951TIP3    H2 8797   5.017   0.344   1.070
 2952TIP3   OH2 8798   0.733   6.039   5.820
 2952TIP3    H1 8799   0.799   6.099   5.853
 2952TIP3    H2 8800   0.743   5.960   5.873
 2953TIP3   OH2 8801   3.076   5.116   6.141
 2953TIP3    H1 8802   3.148   5.107   6.204
 2953TIP3    H2 8803   3.041   5.027   6.132
 2954TIP3   OH2 8804   4.578   4.116   4.460
 2954TIP3    H1 8805   4.591   4.025   4.435
 2954TIP3    H2 8806   4.666   4.154   4.464
 2955TIP3   OH2 8807   0.104   3.793   3.279
 2955TIP3    H1 8808   0.097   3.700   3.258
 2955TIP3    H2 8809   0.172   3.826   3.221
 2956TIP3   OH2 8810   3.828   0.721   3.974
 2956TIP3    H1 8811   3.907   0.698   3.925
 2956TIP3    H2 8812   3.756   0.685   3.922
 2957TIP3   OH2 8813   7.880   4.061   2.441
 2957TIP3    H1 8814   7.825   4.096   2.371
 2957TIP3    H2 8815   7.897   3.971   2.416
 2958TIP3   OH2 8816   1.256   5.658   0.709
 2958TIP3    H1 8817   1.232   5.567   0.695
 2958TIP3    H2 8818   1.303   5.658   0.793
 2959TIP3   OH2 8819   1.922   0.138   3.843
 2959TIP3    H1 8820   1.919   0.231   3.820
 2959TIP3    H2 8821   1.910   0.092   3.759
 2960TIP3   OH2 8822   4.457   0.785   6.191
 2960TIP3    H1 8823   4.476   0.810   6.101
 2960TIP3    H2 8824   4.523   0.719   6.213
 2961TIP3   OH2 8825   2.744   7.156   2.592
 2961TIP3    H1 8826   2.742   7.116   2.679
 2961TIP3    H2 8827   2.836   7.177   2.577
 2962TIP3   OH2 8828   3.097   2.555   6.225
 2962TIP3    H1 8829   3.045   2.632   6.247
 2962TIP3    H2 8830   3.116   2.565   6.132
 2963TIP3   OH2 8831   1.950   5.322   5.431
 2963TIP3    H1 8832   2.022   5.368   5.473
 2963TIP3    H2 8833   1.875   5.333   5.491
 2964TIP3   OH2 8834   1.130   1.310   4.116
 2964TIP3    H1 8835   1.142   1.405   4.115
 2964TIP3    H2 8836   1.166   1.281   4.032
 2965TIP3   OH2 8837   1.332   0.542   5.312
 2965TIP3    H1 8838   1.246   0.519   5.276
 2965TIP3    H2 8839   1.318   0.545   5.407
 2966TIP3   OH2 8840   1.637   5.293   5.102
 2966TIP3    H1 8841   1.697   5.219   5.095
 2966TIP3    H2 8842   1.589   5.293   5.020
 2967TIP3   OH2 8843   0.887   3.675   0.067
 2967TIP3    H1 8844   0.872   3.762   0.103
 2967TIP3    H2 8845   0.807   3.655   0.018
 2968TIP3   OH2 8846   5.087   5.421   5.668
 2968TIP3    H1 8847   5.047   5.505   5.648
 2968TIP3    H2 8848   5.033   5.357   5.621
 2969TIP3   OH2 8849   1.318   4.519   3.810
 2969TIP3    H1 8850   1.298   4.559   3.726
 2969TIP3    H2 8851   1.233   4.516   3.855
 2970TIP3   OH2 8852   6.326   0.183   3.408
 2970TIP3    H1 8853   6.396   0.128   3.373
 2970TIP3    H2 8854   6.370   0.264   3.434
 2971TIP3   OH2 8855   5.785   1.779   3.820
 2971TIP3    H1 8856   5.831   1.696   3.825
 2971TIP3    H2 8857   5.830   1.836   3.882
 2972TIP3   OH2 8858   6.760   1.969   4.656
 2972TIP3    H1 8859   6.685   1.932   4.609
 2972TIP3    H2 8860   6.724   1.995   4.741
 2973TIP3   OH2 8861   1.987   4.592   1.689
 2973TIP3    H1 8862   1.998   4.501   1.717
 2973TIP3    H2 8863   1.999   4.643   1.769
 2974TIP3   OH2 8864   7.446   5.781   1.668
 2974TIP3    H1 8865   7.370   5.723   1.664
 2974TIP3    H2 8866   7.487   5.772   1.581
 2975TIP3   OH2 8867   1.632   6.275   0.172
 2975TIP3    H1 8868   1.705   6.245   0.227
 2975TIP3    H2 8869   1.555   6.233   0.210
 2976TIP3   OH2 8870   2.606   4.862   6.052
 2976TIP3    H1 8871   2.529   4.904   6.090
 2976TIP3    H2 8872   2.622   4.911   5.971
 2977TIP3   OH2 8873   0.844   4.525   6.587
 2977TIP3    H1 8874   0.816   4.462   6.653
 2977TIP3    H2 8875   0.765   4.576   6.567
 2978TIP3   OH2 8876   5.006   5.784   1.250
 2978TIP3    H1 8877   4.946   5.751   1.318
 2978TIP3    H2 8878   5.048   5.705   1.217
 2979TIP3   OH2 8879   3.478   7.555   2.143
 2979TIP3    H1 8880   3.558   7.607   2.146
 2979TIP3    H2 8881   3.507   7.468   2.117
 2980TIP3   OH2 8882   2.600   7.253   2.360
 2980TIP3    H1 8883   2.506   7.250   2.380
 2980TIP3    H2 8884   2.643   7.222   2.440
 2981TIP3   OH2 8885   4.555   7.808   0.082
 2981TIP3    H1 8886   4.593   7.855   0.008
 2981TIP3    H2 8887   4.515   7.731   0.043
 2982TIP3   OH2 8888   4.070   5.752   0.861
 2982TIP3    H1 8889   4.108   5.836   0.835
 2982TIP3    H2 8890   3.996   5.740   0.802
 2983TIP3   OH2 8891   1.719   2.633   6.209
 2983TIP3    H1 8892   1.777   2.681   6.268
 2983TIP3    H2 8893   1.698   2.696   6.140
 2984TIP3   OH2 8894   2.562   0.539   0.981
 2984TIP3    H1 8895   2.514   0.520   0.901
 2984TIP3    H2 8896   2.572   0.634   0.981
 2985TIP3   OH2 8897   0.031   4.398   5.662
 2985TIP3    H1 8898   0.094   4.467   5.643
 2985TIP3    H2 8899  -0.053   4.443   5.669
 2986TIP3   OH2 8900   3.671   1.104   5.318
 2986TIP3    H1 8901   3.719   1.091   5.400
 2986TIP3    H2 8902   3.719   1.175   5.274
 2987TIP3   OH2 8903   7.922   4.327   2.894
 2987TIP3    H1 8904   8.012   4.323   2.863
 2987TIP3    H2 8905   7.875   4.264   2.840
 2988TIP3   OH2 8906   7.198   0.777   1.127
 2988TIP3    H1 8907   7.146   0.775   1.208
 2988TIP3    H2 8908   7.211   0.870   1.109
 2989TIP3   OH2 8909   6.620   1.254   6.175
 2989TIP3    H1 8910   6.591   1.303   6.252
 2989TIP3    H2 8911   6.694   1.203   6.205
 2990TIP3   OH2 8912   1.946   3.239   1.966
 2990TIP3    H1 8913   1.938   3.313   2.027
 2990TIP3    H2 8914   1.865   3.243   1.914
 2991TIP3   OH2 8915   4.497   0.853   1.205
 2991TIP3    H1 8916   4.535   0.865   1.118
 2991TIP3    H2 8917   4.570   0.870   1.265
 2992TIP3   OH2 8918   0.006   4.837   5.589
 2992TIP3    H1 8919  -0.015   4.926   5.563
 2992TIP3    H2 8920  -0.016   4.832   5.681
 2993TIP3   OH2 8921   0.127   0.248   3.572
 2993TIP3    H1 8922   0.192   0.194   3.617
 2993TIP3    H2 8923   0.125   0.214   3.483
 2994TIP3   OH2 8924   0.773   2.897   0.459
 2994TIP3    H1 8925   0.836   2.915   0.389
 2994TIP3    H2 8926   0.811   2.938   0.537
 2995TIP3   OH2 8927   0.989   5.503   4.489
 2995TIP3    H1 8928   1.050   5.574   4.505
 2995TIP3    H2 8929   0.981   5.458   4.574
 2996TIP3   OH2 8930   0.915   6.931   3.076
 2996TIP3    H1 8931   0.831   6.957   3.113
 2996TIP3    H2 8932   0.928   6.841   3.106
 2997TIP3   OH2 8933   3.861   7.699   1.944
 2997TIP3    H1 8934   3.809   7.745   1.879
 2997TIP3    H2 8935   3.875   7.612   1.906
 2998TIP3   OH2 8936   4.060   5.096   4.352
 2998TIP3    H1 8937   4.068   5.081   4.258
 2998TIP3    H2 8938   4.054   5.008   4.390
 2999TIP3   OH2 8939   3.039   3.264   1.936
 2999TIP3    H1 8940   3.093   3.195   1.897
 2999TIP3    H2 8941   3.090   3.344   1.924
 3000TIP3   OH2 8942   4.041   0.663   4.433
 3000TIP3    H1 8943   4.118   0.705   4.471
 3000TIP3    H2 8944   4.040   0.691   4.342
 3001TIP3   OH2 8945   0.408   2.239   4.037
 3001TIP3    H1 8946   0.474   2.210   3.974
 3001TIP3    H2 8947   0.410   2.172   4.106
 3002TIP3   OH2 8948   1.992   2.568   3.479
 3002TIP3    H1 8949   1.918   2.629   3.475
 3002TIP3    H2 8950   1.992   2.523   3.395
 3003TIP3   OH2 8951   7.972   6.460   5.759
 3003TIP3    H1 8952   8.015   6.420   5.683
 3003TIP3    H2 8953   7.879   6.452   5.740
 3004TIP3   OH2 8954   7.200   6.947   5.348
 3004TIP3    H1 8955   7.187   7.022   5.406
 3004TIP3    H2 8956   7.274   6.972   5.292
 3005TIP3   OH2 8957   2.235   3.191   6.460
 3005TIP3    H1 8958   2.207   3.220   6.373
 3005TIP3    H2 8959   2.310   3.246   6.480
 3006TIP3   OH2 8960   3.790   0.719   6.699
 3006TIP3    H1 8961   3.765   0.627   6.695
 3006TIP3    H2 8962   3.712   0.764   6.731
 3007TIP3   OH2 8963   1.053   0.495   3.536
 3007TIP3    H1 8964   0.990   0.429   3.562
 3007TIP3    H2 8965   1.134   0.447   3.519
 3008TIP3   OH2 8966   4.578   5.997   1.019
 3008TIP3    H1 8967   4.653   5.956   1.063
 3008TIP3    H2 8968   4.547   6.063   1.081
 3009TIP3   OH2 8969   7.830   4.121   2.042
 3009TIP3    H1 8970   7.863   4.193   2.095
 3009TIP3    H2 8971   7.747   4.098   2.083
 3010TIP3   OH2 8972   8.074   7.657   5.897
 3010TIP3    H1 8973   7.982   7.663   5.922
 3010TIP3    H2 8974   8.093   7.563   5.897
 3011TIP3   OH2 8975   3.243   7.402   1.165
 3011TIP3    H1 8976   3.191   7.327   1.138
 3011TIP3    H2 8977   3.262   7.449   1.083
 3012TIP3   OH2 8978   0.891   0.705   5.072
 3012TIP3    H1 8979   0.852   0.655   5.000
 3012TIP3    H2 8980   0.866   0.657   5.151
 3013TIP3   OH2 8981   5.290   1.201   6.003
 3013TIP3    H1 8982   5.269   1.198   5.910
 3013TIP3    H2 8983   5.378   1.239   6.008
 3014TIP3   OH2 8984   0.454   5.915   6.454
 3014TIP3    H1 8985   0.380   5.857   6.436
 3014TIP3    H2 8986   0.413   6.000   6.471
 3015TIP3   OH2 8987   6.489   3.356   6.171
 3015TIP3    H1 8988   6.566   3.388   6.125
 3015TIP3    H2 8989   6.420   3.353   6.104
 3016TIP3   OH2 8990   0.514   5.414   3.931
 3016TIP3    H1 8991   0.465   5.448   3.855
 3016TIP3    H2 8992   0.603   5.448   3.919
 3017TIP3   OH2 8993   7.496   1.820   6.626
 3017TIP3    H1 8994   7.432   1.766   6.672
 3017TIP3    H2 8995   7.485   1.907   6.664
 3018TIP3   OH2 8996   7.966   5.698   3.145
 3018TIP3    H1 8997   7.964   5.787   3.182
 3018TIP3    H2 8998   7.905   5.648   3.198
 3019TIP3   OH2 8999   6.481   2.577   3.199
 3019TIP3    H1 9000   6.495   2.584   3.293
 3019TIP3    H2 9001   6.568   2.587   3.161
 3020TIP3   OH2 9002   7.772   0.973   6.086
 3020TIP3    H1 9003   7.686   1.002   6.117
 3020TIP3    H2 9004   7.777   1.004   5.995
 3021TIP3   OH2 9005   7.046   5.607   0.319
 3021TIP3    H1 9006   7.084   5.527   0.355
 3021TIP3    H2 9007   7.038   5.665   0.395
 3022TIP3   OH2 9008   2.192   5.817   4.296
 3022TIP3    H1 9009   2.262   5.871   4.261
 3022TIP3    H2 9010   2.156   5.869   4.368
 3023TIP3   OH2 9011   4.613   5.205   3.024
 3023TIP3    H1 9012   4.668   5.150   2.969
 3023TIP3    H2 9013   4.615   5.291   2.982
 3024TIP3   OH2 9014   3.873   3.314   6.705
 3024TIP3    H1 9015   3.881   3.232   6.753
 3024TIP3    H2 9016   3.793   3.354   6.740
 3025TIP3   OH2 9017   3.277   7.190   5.352
 3025TIP3    H1 9018   3.255   7.277   5.319
 3025TIP3    H2 9019   3.339   7.207   5.423
 3026TIP3   OH2 9020   1.735   2.635   3.804
 3026TIP3    H1 9021   1.715   2.590   3.722
 3026TIP3    H2 9022   1.691   2.584   3.871
 3027TIP3   OH2 9023   6.144   3.999   3.265
 3027TIP3    H1 9024   6.049   4.008   3.270
 3027TIP3    H2 9025   6.161   3.906   3.278
 3028TIP3   OH2 9026   0.477   7.516   5.369
 3028TIP3    H1 9027   0.430   7.434   5.357
 3028TIP3    H2 9028   0.478   7.530   5.464
 3029TIP3   OH2 9029   3.368   4.054   2.528
 3029TIP3    H1 9030   3.391   3.980   2.471
 3029TIP3    H2 9031   3.420   4.040   2.607
 3030TIP3   OH2 9032   6.479   0.103   2.225
 3030TIP3    H1 9033   6.496   0.017   2.261
 3030TIP3    H2 9034   6.453   0.087   2.134
 3031TIP3   OH2 9035   3.918   5.082   5.474
 3031TIP3    H1 9036   3.956   5.023   5.408
 3031TIP3    H2 9037   3.979   5.077   5.548
 3032TIP3   OH2 9038   2.710   3.668   6.206
 3032TIP3    H1 9039   2.804   3.678   6.222
 3032TIP3    H2 9040   2.677   3.626   6.285
 3033TIP3   OH2 9041   6.384   4.900   3.054
 3033TIP3    H1 9042   6.457   4.900   2.991
 3033TIP3    H2 9043   6.375   4.992   3.079
 3034TIP3   OH2 9044   3.922   2.331   0.382
 3034TIP3    H1 9045   3.969   2.361   0.304
 3034TIP3    H2 9046   3.932   2.235   0.380
 3035TIP3   OH2 9047   1.195   6.093   1.810
 3035TIP3    H1 9048   1.186   6.183   1.843
 3035TIP3    H2 9049   1.137   6.090   1.734
 3036TIP3   OH2 9050   7.224   0.143   4.966
 3036TIP3    H1 9051   7.288   0.202   4.926
 3036TIP3    H2 9052   7.189   0.092   4.893
 3037TIP3   OH2 9053   7.948   2.301   0.537
 3037TIP3    H1 9054   7.966   2.385   0.494
 3037TIP3    H2 9055   7.980   2.235   0.476
 3038TIP3   OH2 9056   1.782   1.366   5.927
 3038TIP3    H1 9057   1.785   1.273   5.904
 3038TIP3    H2 9058   1.759   1.410   5.845
 3039TIP3   OH2 9059   4.677   5.768   1.770
 3039TIP3    H1 9060   4.609   5.751   1.705
 3039TIP3    H2 9061   4.756   5.785   1.718
 3040TIP3   OH2 9062   7.983   6.703   2.483
 3040TIP3    H1 9063   7.944   6.675   2.400
 3040TIP3    H2 9064   8.052   6.764   2.457
 3041TIP3   OH2 9065   6.461   7.446   1.830
 3041TIP3    H1 9066   6.404   7.387   1.780
 3041TIP3    H2 9067   6.539   7.455   1.775
 3042TIP3   OH2 9068   6.566   6.412   1.152
 3042TIP3    H1 9069   6.591   6.384   1.064
 3042TIP3    H2 9070   6.560   6.508   1.145
 3043TIP3   OH2 9071   4.225   7.450   2.749
 3043TIP3    H1 9072   4.236   7.355   2.744
 3043TIP3    H2 9073   4.299   7.479   2.803
 3044TIP3   OH2 9074   7.884   5.204   6.407
 3044TIP3    H1 9075   7.814   5.164   6.458
 3044TIP3    H2 9076   7.952   5.226   6.471
 3045TIP3   OH2 9077   0.928   6.740   2.663
 3045TIP3    H1 9078   0.846   6.705   2.698
 3045TIP3    H2 9079   0.923   6.723   2.569
 3046TIP3   OH2 9080   6.849   7.341   3.145
 3046TIP3    H1 9081   6.880   7.263   3.191
 3046TIP3    H2 9082   6.929   7.392   3.129
 3047TIP3   OH2 9083   6.313   7.570   1.516
 3047TIP3    H1 9084   6.295   7.585   1.609
 3047TIP3    H2 9085   6.257   7.633   1.470
 3048TIP3   OH2 9086   5.238   4.937   1.967
 3048TIP3    H1 9087   5.293   4.877   1.916
 3048TIP3    H2 9088   5.300   4.992   2.014
 3049TIP3   OH2 9089   4.337   6.002   5.715
 3049TIP3    H1 9090   4.277   5.987   5.642
 3049TIP3    H2 9091   4.336   5.920   5.764
 3050TIP3   OH2 9092   0.613   6.142   3.045
 3050TIP3    H1 9093   0.649   6.060   3.012
 3050TIP3    H2 9094   0.676   6.172   3.110
 3051TIP3   OH2 9095   0.510   5.348   5.509
 3051TIP3    H1 9096   0.514   5.314   5.599
 3051TIP3    H2 9097   0.421   5.382   5.500
 3052TIP3   OH2 9098   3.948   3.008   4.442
 3052TIP3    H1 9099   3.904   3.070   4.382
 3052TIP3    H2 9100   3.929   2.922   4.405
 3053TIP3   OH2 9101   3.180   5.376   3.608
 3053TIP3    H1 9102   3.200   5.436   3.536
 3053TIP3    H2 9103   3.087   5.355   3.597
 3054TIP3   OH2 9104   1.146   4.106   3.902
 3054TIP3    H1 9105   1.130   4.104   3.996
 3054TIP3    H2 9106   1.224   4.052   3.890
 3055TIP3   OH2 9107   1.061   3.936   0.873
 3055TIP3    H1 9108   0.980   3.968   0.833
 3055TIP3    H2 9109   1.122   4.009   0.866
 3056TIP3   OH2 9110   3.476   2.192   6.425
 3056TIP3    H1 9111   3.416   2.230   6.361
 3056TIP3    H2 9112   3.432   2.204   6.509
 3057TIP3   OH2 9113   1.605   0.392   3.849
 3057TIP3    H1 9114   1.642   0.343   3.775
 3057TIP3    H2 9115   1.611   0.484   3.822
 3058TIP3   OH2 9116   1.308   0.470   5.581
 3058TIP3    H1 9117   1.398   0.453   5.609
 3058TIP3    H2 9118   1.255   0.412   5.636
 3059TIP3   OH2 9119   6.214   3.427   5.731
 3059TIP3    H1 9120   6.249   3.463   5.650
 3059TIP3    H2 9121   6.183   3.340   5.708
 3060TIP3   OH2 9122   5.911   5.449   0.157
 3060TIP3    H1 9123   5.888   5.437   0.250
 3060TIP3    H2 9124   5.954   5.367   0.132
 3061TIP3   OH2 9125   0.273   4.793   6.502
 3061TIP3    H1 9126   0.239   4.878   6.530
 3061TIP3    H2 9127   0.313   4.756   6.580
 3062TIP3   OH2 9128   4.704   3.153   1.143
 3062TIP3    H1 9129   4.784   3.167   1.193
 3062TIP3    H2 9130   4.705   3.060   1.121
 3063TIP3   OH2 9131   2.713   0.579   0.008
 3063TIP3    H1 9132   2.746   0.668   0.025
 3063TIP3    H2 9133   2.741   0.528   0.084
 3064TIP3   OH2 9134   7.784   7.775   5.444
 3064TIP3    H1 9135   7.811   7.706   5.383
 3064TIP3    H2 9136   7.865   7.799   5.489
 3065TIP3   OH2 9137   5.919   5.363   3.722
 3065TIP3    H1 9138   5.843   5.330   3.769
 3065TIP3    H2 9139   5.952   5.288   3.673
 3066TIP3   OH2 9140   1.668   4.914   5.883
 3066TIP3    H1 9141   1.707   4.838   5.928
 3066TIP3    H2 9142   1.743   4.957   5.841
 3067TIP3   OH2 9143   2.593   4.802   1.651
 3067TIP3    H1 9144   2.571   4.775   1.562
 3067TIP3    H2 9145   2.618   4.722   1.696
 3068TIP3   OH2 9146   5.448   3.832   5.583
 3068TIP3    H1 9147   5.368   3.787   5.558
 3068TIP3    H2 9148   5.426   3.925   5.578
 3069TIP3   OH2 9149   7.939   4.181   4.497
 3069TIP3    H1 9150   7.949   4.087   4.510
 3069TIP3    H2 9151   7.859   4.204   4.544
 3070TIP3   OH2 9152   6.309   5.338   1.814
 3070TIP3    H1 9153   6.297   5.420   1.766
 3070TIP3    H2 9154   6.336   5.365   1.902
 3071TIP3   OH2 9155   7.211   3.132   6.400
 3071TIP3    H1 9156   7.269   3.192   6.352
 3071TIP3    H2 9157   7.124   3.147   6.362
 3072TIP3   OH2 9158   5.318   0.511   6.649
 3072TIP3    H1 9159   5.371   0.591   6.651
 3072TIP3    H2 9160   5.310   0.485   6.740
 3073TIP3   OH2 9161   7.991   2.459   0.937
 3073TIP3    H1 9162   8.005   2.518   0.863
 3073TIP3    H2 9163   8.039   2.499   1.009
 3074TIP3   OH2 9164   5.473   4.882   2.448
 3074TIP3    H1 9165   5.529   4.837   2.511
 3074TIP3    H2 9166   5.449   4.964   2.492
 3075TIP3   OH2 9167   1.891   0.384   5.258
 3075TIP3    H1 9168   1.874   0.363   5.166
 3075TIP3    H2 9169   1.928   0.303   5.294
 3076TIP3   OH2 9170   6.084   0.494   4.801
 3076TIP3    H1 9171   6.143   0.568   4.790
 3076TIP3    H2 9172   6.007   0.517   4.749
 3077TIP3   OH2 9173   1.549   5.934   6.464
 3077TIP3    H1 9174   1.508   5.935   6.378
 3077TIP3    H2 9175   1.643   5.935   6.446
 3078TIP3   OH2 9176   4.489   7.734   0.502
 3078TIP3    H1 9177   4.557   7.682   0.545
 3078TIP3    H2 9178   4.498   7.822   0.540
 3079TIP3   OH2 9179   5.392   5.881   0.694
 3079TIP3    H1 9180   5.312   5.848   0.735
 3079TIP3    H2 9181   5.364   5.920   0.612
 3080TIP3   OH2 9182   6.274   5.125   3.169
 3080TIP3    H1 9183   6.350   5.177   3.145
 3080TIP3    H2 9184   6.202   5.188   3.171
 3081TIP3   OH2 9185   3.854   5.956   5.183
 3081TIP3    H1 9186   3.774   5.960   5.130
 3081TIP3    H2 9187   3.921   5.995   5.127
 3082TIP3   OH2 9188   2.015   6.061   2.059
 3082TIP3    H1 9189   1.997   6.153   2.080
 3082TIP3    H2 9190   2.082   6.065   1.990
 3083TIP3   OH2 9191   7.130   5.999   1.245
 3083TIP3    H1 9192   7.075   5.969   1.173
 3083TIP3    H2 9193   7.129   6.094   1.240
 3084TIP3   OH2 9194   8.110   0.751   6.288
 3084TIP3    H1 9195   8.196   0.788   6.270
 3084TIP3    H2 9196   8.117   0.716   6.376
 3085TIP3   OH2 9197   6.690   2.937   5.973
 3085TIP3    H1 9198   6.721   2.905   6.058
 3085TIP3    H2 9199   6.724   3.027   5.968
 3086TIP3   OH2 9200   7.277   1.302   0.039
 3086TIP3    H1 9201   7.339   1.311   0.111
 3086TIP3    H2 9202   7.309   1.364  -0.027
 3087TIP3   OH2 9203   7.950   0.799   4.677
 3087TIP3    H1 9204   7.882   0.844   4.727
 3087TIP3    H2 9205   7.905   0.726   4.635
 3088TIP3   OH2 9206   4.021   3.344   0.618
 3088TIP3    H1 9207   3.925   3.348   0.613
 3088TIP3    H2 9208   4.051   3.423   0.574
 3089TIP3   OH2 9209   8.047   6.050   0.176
 3089TIP3    H1 9210   7.953   6.065   0.167
 3089TIP3    H2 9211   8.054   5.977   0.237
 3090TIP3   OH2 9212   5.904   1.879   3.253
 3090TIP3    H1 9213   5.912   1.824   3.174
 3090TIP3    H2 9214   5.834   1.941   3.232
 3091TIP3   OH2 9215   7.994   0.997   6.220
 3091TIP3    H1 9216   7.911   0.996   6.173
 3091TIP3    H2 9217   8.018   0.904   6.229
 3092TIP3   OH2 9218   1.336   6.172   5.565
 3092TIP3    H1 9219   1.427   6.179   5.536
 3092TIP3    H2 9220   1.320   6.253   5.614
 3093TIP3   OH2 9221   7.607   6.796   1.901
 3093TIP3    H1 9222   7.657   6.867   1.941
 3093TIP3    H2 9223   7.603   6.728   1.968
 3094TIP3   OH2 9224   0.678   0.772   3.013
 3094TIP3    H1 9225   0.667   0.822   2.932
 3094TIP3    H2 9226   0.736   0.700   2.989
 3095TIP3   OH2 9227   2.655   0.695   3.484
 3095TIP3    H1 9228   2.677   0.616   3.435
 3095TIP3    H2 9229   2.610   0.663   3.563
 3096TIP3   OH2 9230   4.096   7.135   5.454
 3096TIP3    H1 9231   4.036   7.209   5.457
 3096TIP3    H2 9232   4.095   7.107   5.362
 3097TIP3   OH2 9233   7.481   4.487   6.168
 3097TIP3    H1 9234   7.444   4.458   6.251
 3097TIP3    H2 9235   7.493   4.406   6.118
 3098TIP3   OH2 9236   3.160   5.687   2.798
 3098TIP3    H1 9237   3.156   5.765   2.742
 3098TIP3    H2 9238   3.242   5.696   2.845
 3099TIP3   OH2 9239   0.197   2.301   2.191
 3099TIP3    H1 9240   0.227   2.344   2.111
 3099TIP3    H2 9241   0.111   2.264   2.168
 3100TIP3   OH2 9242   6.051   5.642   4.504
 3100TIP3    H1 9243   6.001   5.588   4.564
 3100TIP3    H2 9244   5.986   5.694   4.457
 3101TIP3   OH2 9245   8.249   1.524   4.631
 3101TIP3    H1 9246   8.224   1.573   4.709
 3101TIP3    H2 9247   8.223   1.580   4.558
 3102TIP3   OH2 9248   4.978   2.193   6.740
 3102TIP3    H1 9249   4.916   2.145   6.794
 3102TIP3    H2 9250   4.995   2.135   6.665
 3103TIP3   OH2 9251   6.970   5.307   2.703
 3103TIP3    H1 9252   7.015   5.330   2.784
 3103TIP3    H2 9253   6.913   5.234   2.728
 3104TIP3   OH2 9254   3.259   4.247   4.001
 3104TIP3    H1 9255   3.295   4.248   4.089
 3104TIP3    H2 9256   3.329   4.282   3.945
 3105TIP3   OH2 9257   7.956   3.570   3.931
 3105TIP3    H1 9258   7.943   3.642   3.870
 3105TIP3    H2 9259   8.050   3.570   3.949
 3106TIP3   OH2 9260   5.672   4.084   0.738
 3106TIP3    H1 9261   5.716   4.037   0.809
 3106TIP3    H2 9262   5.743   4.127   0.690
 3107TIP3   OH2 9263   5.976   5.415   6.607
 3107TIP3    H1 9264   6.060   5.379   6.578
 3107TIP3    H2 9265   5.965   5.381   6.696
 3108TIP3   OH2 9266   2.554   6.823   3.452
 3108TIP3    H1 9267   2.573   6.731   3.466
 3108TIP3    H2 9268   2.458   6.828   3.449
 3109TIP3   OH2 9269   2.896   3.199   4.383
 3109TIP3    H1 9270   2.801   3.203   4.394
 3109TIP3    H2 9271   2.927   3.152   4.460
 3110TIP3   OH2 9272   1.128   0.823   0.549
 3110TIP3    H1 9273   1.073   0.899   0.565
 3110TIP3    H2 9274   1.217   0.853   0.570
 3111TIP3   OH2 9275   2.933   5.815   5.393
 3111TIP3    H1 9276   2.936   5.724   5.423
 3111TIP3    H2 9277   2.929   5.866   5.474
 3112TIP3   OH2 9278   6.702   4.380   2.131
 3112TIP3    H1 9279   6.702   4.455   2.190
 3112TIP3    H2 9280   6.777   4.394   2.073
 3113TIP3   OH2 9281   0.004   2.363   5.682
 3113TIP3    H1 9282  -0.069   2.305   5.703
 3113TIP3    H2 9283   0.025   2.406   5.764
 3114TIP3   OH2 9284   2.993   3.585   6.745
 3114TIP3    H1 9285   3.055   3.512   6.743
 3114TIP3    H2 9286   3.037   3.653   6.797
 3115TIP3   OH2 9287   0.519   5.710   3.721
 3115TIP3    H1 9288   0.484   5.621   3.714
 3115TIP3    H2 9289   0.496   5.751   3.638
 3116TIP3   OH2 9290   5.380   2.013   0.189
 3116TIP3    H1 9291   5.392   1.929   0.234
 3116TIP3    H2 9292   5.374   1.989   0.096
 3117TIP3   OH2 9293   7.205   4.754   0.087
 3117TIP3    H1 9294   7.281   4.758   0.029
 3117TIP3    H2 9295   7.193   4.660   0.104
 3118TIP3   OH2 9296   2.265   3.184   6.008
 3118TIP3    H1 9297   2.202   3.127   5.964
 3118TIP3    H2 9298   2.343   3.182   5.952
 3119TIP3   OH2 9299   4.588   3.117   4.502
 3119TIP3    H1 9300   4.506   3.074   4.479
 3119TIP3    H2 9301   4.562   3.196   4.550
 3120TIP3   OH2 9302   3.055   6.023   3.946
 3120TIP3    H1 9303   3.048   6.118   3.944
 3120TIP3    H2 9304   3.018   5.997   4.030
 3121TIP3   OH2 9305   6.616   1.040   3.216
 3121TIP3    H1 9306   6.671   0.973   3.255
 3121TIP3    H2 9307   6.563   0.993   3.151
 3122TIP3   OH2 9308   0.776   0.694   4.768
 3122TIP3    H1 9309   0.712   0.642   4.816
 3122TIP3    H2 9310   0.855   0.640   4.767
 3123TIP3   OH2 9311   8.002   7.438   5.061
 3123TIP3    H1 9312   8.088   7.422   5.100
 3123TIP3    H2 9313   7.973   7.520   5.101
 3124TIP3   OH2 9314   5.114   5.270   6.262
 3124TIP3    H1 9315   5.048   5.235   6.202
 3124TIP3    H2 9316   5.066   5.335   6.315
 3125TIP3   OH2 9317   5.749   6.466   6.515
 3125TIP3    H1 9318   5.760   6.542   6.572
 3125TIP3    H2 9319   5.656   6.465   6.494
 3126TIP3   OH2 9320   3.948   0.440   3.049
 3126TIP3    H1 9321   3.974   0.494   3.124
 3126TIP3    H2 9322   3.856   0.420   3.065
 3127TIP3   OH2 9323   1.316   6.829   4.978
 3127TIP3    H1 9324   1.399   6.833   5.026
 3127TIP3    H2 9325   1.287   6.919   4.972
 3128TIP3   OH2 9326   3.714   3.599   3.197
 3128TIP3    H1 9327   3.801   3.569   3.170
 3128TIP3    H2 9328   3.723   3.621   3.289
 3129TIP3   OH2 9329   5.724   1.171   5.552
 3129TIP3    H1 9330   5.674   1.100   5.511
 3129TIP3    H2 9331   5.710   1.246   5.495
 3130TIP3   OH2 9332   7.460   0.106   4.725
 3130TIP3    H1 9333   7.542   0.124   4.770
 3130TIP3    H2 9334   7.484   0.045   4.655
 3131TIP3   OH2 9335   7.476   4.561   3.213
 3131TIP3    H1 9336   7.451   4.530   3.300
 3131TIP3    H2 9337   7.473   4.483   3.158
 3132TIP3   OH2 9338   1.653   2.598   3.534
 3132TIP3    H1 9339   1.694   2.644   3.461
 3132TIP3    H2 9340   1.648   2.507   3.505
 3133TIP3   OH2 9341   7.125   1.503   3.625
 3133TIP3    H1 9342   7.069   1.432   3.657
 3133TIP3    H2 9343   7.168   1.466   3.548
 3134TIP3   OH2 9344   8.250   7.777   4.960
 3134TIP3    H1 9345   8.341   7.782   4.930
 3134TIP3    H2 9346   8.213   7.862   4.937
 3135TIP3   OH2 9347   1.643   1.789   0.674
 3135TIP3    H1 9348   1.561   1.749   0.703
 3135TIP3    H2 9349   1.648   1.872   0.722
 3136TIP3   OH2 9350   3.140   5.563   1.406
 3136TIP3    H1 9351   3.082   5.487   1.401
 3136TIP3    H2 9352   3.159   5.573   1.499
 3137TIP3   OH2 9353   2.802   1.730   0.567
 3137TIP3    H1 9354   2.728   1.775   0.526
 3137TIP3    H2 9355   2.874   1.793   0.563
 3138TIP3   OH2 9356   3.011   1.146   1.870
 3138TIP3    H1 9357   3.077   1.119   1.934
 3138TIP3    H2 9358   2.997   1.239   1.888
 3139TIP3   OH2 9359   1.635   4.398   3.003
 3139TIP3    H1 9360   1.564   4.462   3.012
 3139TIP3    H2 9361   1.704   4.429   3.062
 3140TIP3   OH2 9362   0.067   5.777   3.343
 3140TIP3    H1 9363   0.022   5.695   3.362
 3140TIP3    H2 9364  -0.002   5.842   3.340
 3141TIP3   OH2 9365   7.261   1.122   1.686
 3141TIP3    H1 9366   7.218   1.122   1.772
 3141TIP3    H2 9367   7.354   1.115   1.707
 3142TIP3   OH2 9368   2.600   5.485   0.115
 3142TIP3    H1 9369   2.673   5.543   0.097
 3142TIP3    H2 9370   2.524   5.543   0.121
 3143TIP3   OH2 9371   2.782   7.130   6.514
 3143TIP3    H1 9372   2.832   7.051   6.533
 3143TIP3    H2 9373   2.754   7.119   6.423
 3144TIP3   OH2 9374   1.060   0.030   3.740
 3144TIP3    H1 9375   1.091  -0.059   3.754
 3144TIP3    H2 9376   1.032   0.033   3.649
 3145TIP3   OH2 9377   5.423   6.350   4.047
 3145TIP3    H1 9378   5.377   6.351   3.963
 3145TIP3    H2 9379   5.443   6.258   4.062
 3146TIP3   OH2 9380   3.733   4.436   5.543
 3146TIP3    H1 9381   3.737   4.376   5.468
 3146TIP3    H2 9382   3.768   4.385   5.616
 3147TIP3   OH2 9383   4.456   2.478   3.538
 3147TIP3    H1 9384   4.479   2.388   3.516
 3147TIP3    H2 9385   4.366   2.473   3.570
 3148TIP3   OH2 9386   4.357   5.314   4.541
 3148TIP3    H1 9387   4.263   5.326   4.523
 3148TIP3    H2 9388   4.394   5.402   4.535
 3149TIP3   OH2 9389   6.003   7.587   3.475
 3149TIP3    H1 9390   6.076   7.527   3.485
 3149TIP3    H2 9391   5.928   7.532   3.453
 3150TIP3   OH2 9392   0.979   2.992   3.386
 3150TIP3    H1 9393   0.956   2.984   3.293
 3150TIP3    H2 9394   1.071   3.016   3.385
 3151TIP3   OH2 9395   0.580   1.503   0.618
 3151TIP3    H1 9396   0.636   1.434   0.582
 3151TIP3    H2 9397   0.555   1.556   0.543
 3152TIP3   OH2 9398   0.288   0.731   0.244
 3152TIP3    H1 9399   0.226   0.671   0.285
 3152TIP3    H2 9400   0.365   0.677   0.224
 3153TIP3   OH2 9401   7.753   5.004   4.095
 3153TIP3    H1 9402   7.673   4.990   4.146
 3153TIP3    H2 9403   7.726   4.996   4.004
 3154TIP3   OH2 9404   5.066   3.210   6.131
 3154TIP3    H1 9405   5.145   3.215   6.077
 3154TIP3    H2 9406   4.995   3.193   6.069
 3155TIP3   OH2 9407   5.757   1.041   6.331
 3155TIP3    H1 9408   5.846   1.060   6.299
 3155TIP3    H2 9409   5.770   0.989   6.410
 3156TIP3   OH2 9410   6.792   7.599   3.673
 3156TIP3    H1 9411   6.866   7.540   3.688
 3156TIP3    H2 9412   6.823   7.684   3.703
 3157TIP3   OH2 9413   4.533   7.478   0.910
 3157TIP3    H1 9414   4.627   7.479   0.890
 3157TIP3    H2 9415   4.491   7.513   0.831
 3158TIP3   OH2 9416   1.651   2.058   0.088
 3158TIP3    H1 9417   1.723   2.101   0.042
 3158TIP3    H2 9418   1.647   2.102   0.172
 3159TIP3   OH2 9419   2.682   7.486   5.905
 3159TIP3    H1 9420   2.639   7.562   5.945
 3159TIP3    H2 9421   2.774   7.495   5.929
 3160TIP3   OH2 9422   8.072   7.785   6.486
 3160TIP3    H1 9423   8.075   7.756   6.395
 3160TIP3    H2 9424   8.037   7.710   6.535
 3161TIP3   OH2 9425   0.661   1.487   2.542
 3161TIP3    H1 9426   0.620   1.400   2.549
 3161TIP3    H2 9427   0.601   1.537   2.488
 3162TIP3   OH2 9428   6.960   6.845   5.376
 3162TIP3    H1 9429   6.987   6.764   5.333
 3162TIP3    H2 9430   7.036   6.903   5.366
 3163TIP3   OH2 9431   6.697   5.073   1.996
 3163TIP3    H1 9432   6.609   5.088   2.029
 3163TIP3    H2 9433   6.684   5.030   1.911
 3164TIP3   OH2 9434   1.975   0.913   0.137
 3164TIP3    H1 9435   1.906   0.972   0.109
 3164TIP3    H2 9436   1.970   0.914   0.233
 3165TIP3   OH2 9437   5.410   1.779   1.599
 3165TIP3    H1 9438   5.431   1.817   1.684
 3165TIP3    H2 9439   5.485   1.723   1.579
 3166TIP3   OH2 9440   5.891   2.823   5.297
 3166TIP3    H1 9441   5.828   2.852   5.231
 3166TIP3    H2 9442   5.840   2.821   5.378
 3167TIP3   OH2 9443   3.437   3.595   6.341
 3167TIP3    H1 9444   3.532   3.608   6.334
 3167TIP3    H2 9445   3.427   3.536   6.416
 3168TIP3   OH2 9446   6.075   0.178   4.655
 3168TIP3    H1 9447   6.067   0.125   4.576
 3168TIP3    H2 9448   6.167   0.204   4.657
 3169TIP3   OH2 9449   6.847   3.025   3.662
 3169TIP3    H1 9450   6.818   3.010   3.572
 3169TIP3    H2 9451   6.855   3.120   3.670
 3170TIP3   OH2 9452   7.132   4.201   5.839
 3170TIP3    H1 9453   7.054   4.175   5.888
 3170TIP3    H2 9454   7.137   4.138   5.766
 3171TIP3   OH2 9455   3.019   0.247   1.095
 3171TIP3    H1 9456   3.030   0.324   1.150
 3171TIP3    H2 9457   3.107   0.230   1.060
 3172TIP3   OH2 9458   0.517   1.957   6.151
 3172TIP3    H1 9459   0.553   1.880   6.194
 3172TIP3    H2 9460   0.429   1.966   6.188
 3173TIP3   OH2 9461   0.165   6.424   2.063
 3173TIP3    H1 9462   0.240   6.481   2.079
 3173TIP3    H2 9463   0.110   6.474   2.003
 3174TIP3   OH2 9464   0.344   0.883   4.786
 3174TIP3    H1 9465   0.402   0.860   4.713
 3174TIP3    H2 9466   0.379   0.966   4.819
 3175TIP3   OH2 9467   8.007   2.443   2.559
 3175TIP3    H1 9468   7.994   2.441   2.465
 3175TIP3    H2 9469   7.933   2.494   2.593
 3176TIP3   OH2 9470   7.754   0.575   2.253
 3176TIP3    H1 9471   7.837   0.557   2.297
 3176TIP3    H2 9472   7.734   0.494   2.205
 3177TIP3   OH2 9473   5.518   1.533   4.078
 3177TIP3    H1 9474   5.524   1.558   4.171
 3177TIP3    H2 9475   5.609   1.530   4.048
 3178TIP3   OH2 9476   1.706   7.383   5.995
 3178TIP3    H1 9477   1.741   7.295   5.986
 3178TIP3    H2 9478   1.632   7.387   5.933
 3179TIP3   OH2 9479   0.638   7.316   2.416
 3179TIP3    H1 9480   0.634   7.235   2.367
 3179TIP3    H2 9481   0.584   7.301   2.494
 3180TIP3   OH2 9482   6.452   0.791   4.952
 3180TIP3    H1 9483   6.540   0.803   4.988
 3180TIP3    H2 9484   6.394   0.798   5.028
 3181TIP3   OH2 9485   5.268   1.390   4.960
 3181TIP3    H1 9486   5.234   1.305   4.987
 3181TIP3    H2 9487   5.197   1.429   4.909
 3182TIP3   OH2 9488   5.923   2.001   5.210
 3182TIP3    H1 9489   5.847   2.017   5.266
 3182TIP3    H2 9490   5.893   1.936   5.147
 3183TIP3   OH2 9491   2.572   7.579   1.017
 3183TIP3    H1 9492   2.577   7.485   1.003
 3183TIP3    H2 9493   2.530   7.613   0.938
 3184TIP3   OH2 9494   1.542   6.119   1.712
 3184TIP3    H1 9495   1.461   6.085   1.749
 3184TIP3    H2 9496   1.603   6.120   1.785
 3185TIP3   OH2 9497   6.941   3.203   3.231
 3185TIP3    H1 9498   6.894   3.274   3.187
 3185TIP3    H2 9499   7.032   3.234   3.236
 3186TIP3   OH2 9500   4.481   4.263   6.173
 3186TIP3    H1 9501   4.503   4.342   6.222
 3186TIP3    H2 9502   4.549   4.256   6.106
 3187TIP3   OH2 9503   5.609   7.446   2.341
 3187TIP3    H1 9504   5.682   7.423   2.285
 3187TIP3    H2 9505   5.539   7.386   2.316
 3188TIP3   OH2 9506   5.093   1.256   3.791
 3188TIP3    H1 9507   5.011   1.218   3.759
 3188TIP3    H2 9508   5.119   1.319   3.724
 3189TIP3   OH2 9509   2.806   7.487   0.642
 3189TIP3    H1 9510   2.864   7.563   0.632
 3189TIP3    H2 9511   2.840   7.423   0.580
 3190TIP3   OH2 9512   6.744   6.850   4.494
 3190TIP3    H1 9513   6.809   6.899   4.444
 3190TIP3    H2 9514   6.682   6.916   4.523
 3191TIP3   OH2 9515   7.743   1.936   0.364
 3191TIP3    H1 9516   7.745   1.979   0.450
 3191TIP3    H2 9517   7.738   2.008   0.301
 3192TIP3   OH2 9518   1.004   4.167   2.082
 3192TIP3    H1 9519   1.040   4.178   1.994
 3192TIP3    H2 9520   0.985   4.256   2.111
 3193TIP3   OH2 9521   2.544   1.351   3.284
 3193TIP3    H1 9522   2.615   1.313   3.232
 3193TIP3    H2 9523   2.489   1.277   3.308
 3194TIP3   OH2 9524   4.708   3.697   4.774
 3194TIP3    H1 9525   4.731   3.607   4.753
 3194TIP3    H2 9526   4.758   3.750   4.712
 3195TIP3   OH2 9527   6.661   7.562   0.867
 3195TIP3    H1 9528   6.621   7.478   0.892
 3195TIP3    H2 9529   6.608   7.628   0.912
 3196TIP3   OH2 9530   7.240   4.507   1.653
 3196TIP3    H1 9531   7.317   4.463   1.617
 3196TIP3    H2 9532   7.264   4.599   1.657
 3197TIP3   OH2 9533   6.815   4.134   2.453
 3197TIP3    H1 9534   6.737   4.160   2.404
 3197TIP3    H2 9535   6.873   4.210   2.448
 3198TIP3   OH2 9536   2.400   6.537   3.974
 3198TIP3    H1 9537   2.466   6.606   3.970
 3198TIP3    H2 9538   2.383   6.525   4.067
 3199TIP3   OH2 9539   6.298   2.551   3.653
 3199TIP3    H1 9540   6.391   2.574   3.650
 3199TIP3    H2 9541   6.294   2.464   3.614
 3200TIP3   OH2 9542   1.260   3.875   1.334
 3200TIP3    H1 9543   1.168   3.869   1.307
 3200TIP3    H2 9544   1.306   3.906   1.256
 3201TIP3   OH2 9545   6.885   7.372   0.306
 3201TIP3    H1 9546   6.812   7.328   0.349
 3201TIP3    H2 9547   6.871   7.465   0.323
 3202TIP3   OH2 9548   4.162   1.688   5.204
 3202TIP3    H1 9549   4.247   1.683   5.248
 3202TIP3    H2 9550   4.183   1.688   5.111
 3203TIP3   OH2 9551   4.422   1.325   0.688
 3203TIP3    H1 9552   4.398   1.408   0.729
 3203TIP3    H2 9553   4.491   1.348   0.626
 3204TIP3   OH2 9554   6.730   4.941   1.033
 3204TIP3    H1 9555   6.730   4.845   1.035
 3204TIP3    H2 9556   6.728   4.963   0.940
 3205TIP3   OH2 9557   7.438   2.350   4.834
 3205TIP3    H1 9558   7.407   2.422   4.779
 3205TIP3    H2 9559   7.423   2.272   4.781
 3206TIP3   OH2 9560   0.163   0.349   1.600
 3206TIP3    H1 9561   0.157   0.428   1.547
 3206TIP3    H2 9562   0.075   0.336   1.634
 3207TIP3   OH2 9563   0.442   7.468   0.370
 3207TIP3    H1 9564   0.508   7.413   0.412
 3207TIP3    H2 9565   0.492   7.525   0.311
 3208TIP3   OH2 9566   4.182   2.694   0.678
 3208TIP3    H1 9567   4.121   2.765   0.659
 3208TIP3    H2 9568   4.192   2.696   0.774
 3209TIP3   OH2 9569   0.609   2.864   1.234
 3209TIP3    H1 9570   0.600   2.770   1.252
 3209TIP3    H2 9571   0.533   2.904   1.276
 3210TIP3   OH2 9572   6.907   7.156   2.183
 3210TIP3    H1 9573   6.938   7.141   2.093
 3210TIP3    H2 9574   6.967   7.104   2.237
 3211TIP3   OH2 9575   5.734   6.437   0.370
 3211TIP3    H1 9576   5.771   6.525   0.370
 3211TIP3    H2 9577   5.658   6.442   0.313
 3212TIP3   OH2 9578   0.270   3.527   0.330
 3212TIP3    H1 9579   0.291   3.618   0.309
 3212TIP3    H2 9580   0.177   3.528   0.353
 3213TIP3   OH2 9581   8.042   3.720   5.753
 3213TIP3    H1 9582   7.981   3.662   5.799
 3213TIP3    H2 9583   8.068   3.784   5.820
 3214TIP3   OH2 9584   4.608   0.052   1.455
 3214TIP3    H1 9585   4.577   0.039   1.366
 3214TIP3    H2 9586   4.529   0.047   1.509
 3215TIP3   OH2 9587   6.889   6.829   6.058
 3215TIP3    H1 9588   6.798   6.861   6.063
 3215TIP3    H2 9589   6.890   6.773   5.980
 3216TIP3   OH2 9590   1.246   4.681   6.575
 3216TIP3    H1 9591   1.330   4.685   6.621
 3216TIP3    H2 9592   1.190   4.744   6.621
 3217TIP3   OH2 9593   5.565   2.112   0.419
 3217TIP3    H1 9594   5.523   2.197   0.411
 3217TIP3    H2 9595   5.550   2.070   0.334
 3218TIP3   OH2 9596   7.557   3.838   0.557
 3218TIP3    H1 9597   7.467   3.853   0.527
 3218TIP3    H2 9598   7.611   3.858   0.481
 3219TIP3   OH2 9599   1.930   5.235   0.519
 3219TIP3    H1 9600   1.946   5.284   0.438
 3219TIP3    H2 9601   1.887   5.297   0.577
 3220TIP3   OH2 9602   7.454   7.030   6.592
 3220TIP3    H1 9603   7.521   6.988   6.537
 3220TIP3    H2 9604   7.487   7.118   6.606
 3221TIP3   OH2 9605   1.722   4.421   3.971
 3221TIP3    H1 9606   1.695   4.386   4.055
 3221TIP3    H2 9607   1.737   4.514   3.987
 3222TIP3   OH2 9608   2.864   0.685   2.240
 3222TIP3    H1 9609   2.771   0.706   2.229
 3222TIP3    H2 9610   2.904   0.770   2.261
 3223TIP3   OH2 9611   8.138   1.113   6.645
 3223TIP3    H1 9612   8.090   1.186   6.685
 3223TIP3    H2 9613   8.073   1.067   6.592
 3224TIP3   OH2 9614   2.090   3.138   0.408
 3224TIP3    H1 9615   2.133   3.096   0.334
 3224TIP3    H2 9616   2.151   3.207   0.435
 3225TIP3   OH2 9617   7.907   2.758   2.637
 3225TIP3    H1 9618   7.842   2.708   2.587
 3225TIP3    H2 9619   7.956   2.807   2.571
 3226TIP3   OH2 9620   5.777   1.088   1.787
 3226TIP3    H1 9621   5.815   1.154   1.844
 3226TIP3    H2 9622   5.748   1.019   1.846
 3227TIP3   OH2 9623   3.428   0.369   1.489
 3227TIP3    H1 9624   3.430   0.324   1.405
 3227TIP3    H2 9625   3.484   0.317   1.546
 3228TIP3   OH2 9626   0.262   1.577   2.919
 3228TIP3    H1 9627   0.306   1.658   2.896
 3228TIP3    H2 9628   0.190   1.604   2.977
 3229TIP3   OH2 9629   2.739   6.423   1.151
 3229TIP3    H1 9630   2.696   6.467   1.078
 3229TIP3    H2 9631   2.709   6.470   1.228
 3230TIP3   OH2 9632   7.082   6.254   1.276
 3230TIP3    H1 9633   7.105   6.346   1.258
 3230TIP3    H2 9634   7.029   6.257   1.356
 3231TIP3   OH2 9635   6.496   0.713   2.389
 3231TIP3    H1 9636   6.537   0.627   2.394
 3231TIP3    H2 9637   6.410   0.697   2.349
 3232TIP3   OH2 9638   2.881   4.930   3.992
 3232TIP3    H1 9639   2.837   4.866   4.047
 3232TIP3    H2 9640   2.963   4.888   3.966
 3233TIP3   OH2 9641   6.430   3.796   5.192
 3233TIP3    H1 9642   6.459   3.757   5.275
 3233TIP3    H2 9643   6.417   3.889   5.212
 3234TIP3   OH2 9644   7.140   7.120   0.993
 3234TIP3    H1 9645   7.093   7.078   1.065
 3234TIP3    H2 9646   7.216   7.162   1.035
 3235TIP3   OH2 9647   2.784   2.154   3.814
 3235TIP3    H1 9648   2.806   2.065   3.841
 3235TIP3    H2 9649   2.698   2.171   3.852
 3236TIP3   OH2 9650   3.927   5.058   3.613
 3236TIP3    H1 9651   3.951   5.091   3.527
 3236TIP3    H2 9652   3.837   5.086   3.625
 3237TIP3   OH2 9653   6.826   6.822   2.254
 3237TIP3    H1 9654   6.806   6.799   2.164
 3237TIP3    H2 9655   6.898   6.884   2.247
 3238TIP3   OH2 9656   1.400   7.560   2.205
 3238TIP3    H1 9657   1.309   7.553   2.177
 3238TIP3    H2 9658   1.395   7.561   2.301
 3239TIP3   OH2 9659   2.527   0.976   2.930
 3239TIP3    H1 9660   2.554   0.890   2.965
 3239TIP3    H2 9661   2.524   1.033   3.007
 3240TIP3   OH2 9662   4.877   5.066   5.152
 3240TIP3    H1 9663   4.934   5.048   5.227
 3240TIP3    H2 9664   4.789   5.070   5.190
 3241TIP3   OH2 9665   1.164   6.197   2.490
 3241TIP3    H1 9666   1.092   6.220   2.548
 3241TIP3    H2 9667   1.199   6.281   2.460
 3242TIP3   OH2 9668   3.910   3.883   3.483
 3242TIP3    H1 9669   3.867   3.913   3.563
 3242TIP3    H2 9670   3.999   3.918   3.489
 3243TIP3   OH2 9671   2.213   2.127   5.651
 3243TIP3    H1 9672   2.233   2.035   5.667
 3243TIP3    H2 9673   2.148   2.125   5.580
 3244TIP3   OH2 9674   6.577   2.529   1.824
 3244TIP3    H1 9675   6.621   2.520   1.909
 3244TIP3    H2 9676   6.492   2.567   1.846
 3245TIP3   OH2 9677   4.311   5.133   2.690
 3245TIP3    H1 9678   4.395   5.136   2.645
 3245TIP3    H2 9679   4.333   5.116   2.781
 3246TIP3   OH2 9680   2.533   6.720   6.158
 3246TIP3    H1 9681   2.469   6.671   6.209
 3246TIP3    H2 9682   2.589   6.763   6.224
 3247TIP3   OH2 9683   3.256   7.717   5.249
 3247TIP3    H1 9684   3.274   7.752   5.337
 3247TIP3    H2 9685   3.181   7.768   5.219
 3248TIP3   OH2 9686   5.878   1.729   0.368
 3248TIP3    H1 9687   5.868   1.803   0.308
 3248TIP3    H2 9688   5.941   1.759   0.434
 3249TIP3   OH2 9689   4.078   6.277   4.660
 3249TIP3    H1 9690   3.987   6.300   4.640
 3249TIP3    H2 9691   4.071   6.206   4.724
 3250TIP3   OH2 9692   2.701   7.493   3.900
 3250TIP3    H1 9693   2.707   7.398   3.889
 3250TIP3    H2 9694   2.791   7.520   3.914
 3251TIP3   OH2 9695   5.355   6.285   0.698
 3251TIP3    H1 9696   5.434   6.320   0.655
 3251TIP3    H2 9697   5.310   6.363   0.732
 3252TIP3   OH2 9698   2.198   1.625   6.068
 3252TIP3    H1 9699   2.203   1.686   5.994
 3252TIP3    H2 9700   2.271   1.651   6.125
 3253TIP3   OH2 9701   3.805   5.433   1.938
 3253TIP3    H1 9702   3.772   5.406   2.024
 3253TIP3    H2 9703   3.894   5.463   1.956
 3254TIP3   OH2 9704   2.408   5.120   3.523
 3254TIP3    H1 9705   2.454   5.157   3.598
 3254TIP3    H2 9706   2.328   5.082   3.560
 3255TIP3   OH2 9707   1.276   0.255   0.373
 3255TIP3    H1 9708   1.302   0.188   0.437
 3255TIP3    H2 9709   1.204   0.302   0.416
 3256TIP3   OH2 9710   5.025   4.513   4.379
 3256TIP3    H1 9711   5.052   4.590   4.430
 3256TIP3    H2 9712   5.088   4.508   4.307
 3257TIP3   OH2 9713   0.029   4.648   2.107
 3257TIP3    H1 9714   0.035   4.554   2.088
 3257TIP3    H2 9715   0.089   4.662   2.180
 3258TIP3   OH2 9716   1.891   5.740   2.283
 3258TIP3    H1 9717   1.840   5.664   2.310
 3258TIP3    H2 9718   1.945   5.709   2.211
 3259TIP3   OH2 9719   1.551   3.495   3.231
 3259TIP3    H1 9720   1.642   3.523   3.243
 3259TIP3    H2 9721   1.521   3.547   3.156
 3260TIP3   OH2 9722   5.095   5.984   3.859
 3260TIP3    H1 9723   5.081   6.078   3.873
 3260TIP3    H2 9724   5.188   5.975   3.840
 3261TIP3   OH2 9725   3.905   3.679   5.507
 3261TIP3    H1 9726   3.822   3.642   5.477
 3261TIP3    H2 9727   3.896   3.773   5.493
 3262TIP3   OH2 9728   8.007   3.416   6.148
 3262TIP3    H1 9729   8.032   3.506   6.170
 3262TIP3    H2 9730   8.045   3.400   6.062
 3263TIP3   OH2 9731   5.757   5.123   2.548
 3263TIP3    H1 9732   5.806   5.195   2.588
 3263TIP3    H2 9733   5.729   5.068   2.621
 3264TIP3   OH2 9734   0.223   0.128   4.399
 3264TIP3    H1 9735   0.288   0.192   4.428
 3264TIP3    H2 9736   0.147   0.143   4.454
 3265TIP3   OH2 9737   4.443   6.839   6.073
 3265TIP3    H1 9738   4.412   6.920   6.115
 3265TIP3    H2 9739   4.375   6.817   6.010
 3266TIP3   OH2 9740   3.646   3.357   5.073
 3266TIP3    H1 9741   3.646   3.453   5.068
 3266TIP3    H2 9742   3.669   3.328   4.985
 3267TIP3   OH2 9743   7.553   1.918   5.941
 3267TIP3    H1 9744   7.541   1.847   6.004
 3267TIP3    H2 9745   7.509   1.887   5.862
 3268TIP3   OH2 9746   4.340   5.935   3.878
 3268TIP3    H1 9747   4.398   5.882   3.823
 3268TIP3    H2 9748   4.252   5.919   3.843
 3269TIP3   OH2 9749   7.639   0.051   5.123
 3269TIP3    H1 9750   7.590  -0.015   5.173
 3269TIP3    H2 9751   7.678   0.107   5.190
 3270TIP3   OH2 9752   0.915   1.416   4.835
 3270TIP3    H1 9753   0.829   1.395   4.870
 3270TIP3    H2 9754   0.954   1.474   4.901
 3271TIP3   OH2 9755   6.643   5.280   0.999
 3271TIP3    H1 9756   6.613   5.300   0.910
 3271TIP3    H2 9757   6.578   5.218   1.033
 3272TIP3   OH2 9758   6.970   7.766   4.136
 3272TIP3    H1 9759   7.045   7.824   4.120
 3272TIP3    H2 9760   6.961   7.763   4.231
 3273TIP3   OH2 9761   5.782   4.675   6.697
 3273TIP3    H1 9762   5.804   4.582   6.691
 3273TIP3    H2 9763   5.838   4.709   6.767
 3274TIP3   OH2 9764   0.329   7.058   2.712
 3274TIP3    H1 9765   0.398   7.017   2.658
 3274TIP3    H2 9766   0.276   6.984   2.741
 3275TIP3   OH2 9767   0.115   0.532   5.766
 3275TIP3    H1 9768   0.069   0.489   5.838
 3275TIP3    H2 9769   0.208   0.513   5.783
 3276TIP3   OH2 9770   5.606   7.569   3.671
 3276TIP3    H1 9771   5.550   7.527   3.737
 3276TIP3    H2 9772   5.546   7.616   3.615
 3277TIP3   OH2 9773   2.676   2.302   1.968
 3277TIP3    H1 9774   2.647   2.354   1.893
 3277TIP3    H2 9775   2.636   2.345   2.044
 3278TIP3   OH2 9776   3.384   0.291   2.344
 3278TIP3    H1 9777   3.459   0.331   2.301
 3278TIP3    H2 9778   3.323   0.363   2.360
 3279TIP3   OH2 9779   7.470   0.578   3.729
 3279TIP3    H1 9780   7.525   0.648   3.764
 3279TIP3    H2 9781   7.525   0.537   3.662
 3280TIP3   OH2 9782   6.614   3.297   2.497
 3280TIP3    H1 9783   6.573   3.356   2.560
 3280TIP3    H2 9784   6.676   3.353   2.449
 3281TIP3   OH2 9785   2.226   1.983   0.579
 3281TIP3    H1 9786   2.282   2.004   0.504
 3281TIP3    H2 9787   2.277   2.008   0.656
 3282TIP3   OH2 9788   2.680   3.908   3.745
 3282TIP3    H1 9789   2.672   3.814   3.763
 3282TIP3    H2 9790   2.642   3.951   3.822
 3283TIP3   OH2 9791   5.150   0.914   3.698
 3283TIP3    H1 9792   5.079   0.918   3.762
 3283TIP3    H2 9793   5.119   0.967   3.625
 3284TIP3   OH2 9794   1.528   2.968   5.908
 3284TIP3    H1 9795   1.581   2.889   5.920
 3284TIP3    H2 9796   1.575   3.036   5.956
 3285TIP3   OH2 9797   1.707   6.349   5.903
 3285TIP3    H1 9798   1.683   6.287   5.972
 3285TIP3    H2 9799   1.680   6.434   5.936
 3286TIP3   OH2 9800   3.891   7.687   5.887
 3286TIP3    H1 9801   3.837   7.635   5.826
 3286TIP3    H2 9802   3.924   7.759   5.833
 3287TIP3   OH2 9803   1.697   2.931   4.658
 3287TIP3    H1 9804   1.698   2.836   4.672
 3287TIP3    H2 9805   1.676   2.968   4.743
 3288TIP3   OH2 9806   0.708   4.584   1.359
 3288TIP3    H1 9807   0.624   4.572   1.402
 3288TIP3    H2 9808   0.716   4.509   1.300
 3289TIP3   OH2 9809   5.424   0.049   4.906
 3289TIP3    H1 9810   5.436   0.066   5.000
 3289TIP3    H2 9811   5.338   0.008   4.900
 3290TIP3   OH2 9812   3.274   1.998   3.888
 3290TIP3    H1 9813   3.300   1.911   3.857
 3290TIP3    H2 9814   3.348   2.026   3.943
 3291TIP3   OH2 9815   0.293   3.365   3.875
 3291TIP3    H1 9816   0.361   3.400   3.818
 3291TIP3    H2 9817   0.268   3.439   3.931
 3292TIP3   OH2 9818   4.670   1.638   4.363
 3292TIP3    H1 9819   4.764   1.628   4.350
 3292TIP3    H2 9820   4.644   1.702   4.296
 3293TIP3   OH2 9821   4.878   4.901   2.248
 3293TIP3    H1 9822   4.945   4.889   2.316
 3293TIP3    H2 9823   4.840   4.814   2.236
 3294TIP3   OH2 9824   6.156   4.403   4.334
 3294TIP3    H1 9825   6.084   4.379   4.392
 3294TIP3    H2 9826   6.168   4.327   4.277
 3295TIP3   OH2 9827   2.386   4.519   3.695
 3295TIP3    H1 9828   2.383   4.469   3.777
 3295TIP3    H2 9829   2.476   4.552   3.691
 3296TIP3   OH2 9830   5.302   3.565   3.327
 3296TIP3    H1 9831   5.363   3.608   3.267
 3296TIP3    H2 9832   5.353   3.551   3.407
 3297TIP3   OH2 9833   5.476   4.114   4.971
 3297TIP3    H1 9834   5.385   4.122   4.999
 3297TIP3    H2 9835   5.516   4.060   5.039
 3298TIP3   OH2 9836   2.435   5.215   5.308
 3298TIP3    H1 9837   2.519   5.213   5.263
 3298TIP3    H2 9838   2.372   5.243   5.242
 3299TIP3   OH2 9839   7.487   0.511   3.280
 3299TIP3    H1 9840   7.518   0.567   3.209
 3299TIP3    H2 9841   7.461   0.430   3.236
 3300TIP3   OH2 9842   5.582   4.166   5.722
 3300TIP3    H1 9843   5.555   4.128   5.806
 3300TIP3    H2 9844   5.515   4.137   5.660
 3301TIP3   OH2 9845   6.203   0.342   3.715
 3301TIP3    H1 9846   6.246   0.272   3.763
 3301TIP3    H2 9847   6.109   0.323   3.723
 3302TIP3   OH2 9848   7.595   5.513   2.092
 3302TIP3    H1 9849   7.605   5.436   2.035
 3302TIP3    H2 9850   7.677   5.519   2.140
 3303TIP3   OH2 9851   1.201   5.036   0.020
 3303TIP3    H1 9852   1.168   5.112   0.068
 3303TIP3    H2 9853   1.268   5.072  -0.038
 3304TIP3   OH2 9854   2.753   0.144   1.899
 3304TIP3    H1 9855   2.768   0.238   1.889
 3304TIP3    H2 9856   2.810   0.104   1.833
 3305TIP3   OH2 9857   4.287   5.977   2.453
 3305TIP3    H1 9858   4.285   6.012   2.542
 3305TIP3    H2 9859   4.241   5.893   2.459
 3306TIP3   OH2 9860   0.268   1.627   3.746
 3306TIP3    H1 9861   0.348   1.677   3.733
 3306TIP3    H2 9862   0.198   1.691   3.734
 3307TIP3   OH2 9863   5.129   0.431   0.942
 3307TIP3    H1 9864   5.209   0.385   0.967
 3307TIP3    H2 9865   5.140   0.447   0.848
 3308TIP3   OH2 9866   5.946   7.726   6.499
 3308TIP3    H1 9867   5.978   7.814   6.518
 3308TIP3    H2 9868   5.856   7.739   6.468
 3309TIP3   OH2 9869   7.862   3.202   1.208
 3309TIP3    H1 9870   7.843   3.244   1.292
 3309TIP3    H2 9871   7.904   3.271   1.156
 3310TIP3   OH2 9872   6.447   4.351   4.334
 3310TIP3    H1 9873   6.453   4.336   4.429
 3310TIP3    H2 9874   6.430   4.445   4.326
 3311TIP3   OH2 9875   4.192   2.092   4.194
 3311TIP3    H1 9876   4.201   2.022   4.130
 3311TIP3    H2 9877   4.274   2.089   4.244
 3312TIP3   OH2 9878   4.890   4.028   5.697
 3312TIP3    H1 9879   4.796   4.015   5.709
 3312TIP3    H2 9880   4.930   3.986   5.774
 3313TIP3   OH2 9881   5.024   2.904   0.867
 3313TIP3    H1 9882   4.961   2.947   0.809
 3313TIP3    H2 9883   4.970   2.867   0.937
 3314TIP3   OH2 9884   3.835   4.882   2.870
 3314TIP3    H1 9885   3.923   4.917   2.857
 3314TIP3    H2 9886   3.790   4.949   2.921
 3315TIP3   OH2 9887   1.797   1.100   2.853
 3315TIP3    H1 9888   1.763   1.032   2.795
 3315TIP3    H2 9889   1.722   1.126   2.906
 3316TIP3   OH2 9890   5.936   7.575   2.407
 3316TIP3    H1 9891   5.889   7.533   2.480
 3316TIP3    H2 9892   6.024   7.537   2.410
 3317TIP3   OH2 9893   1.857   0.524   2.161
 3317TIP3    H1 9894   1.769   0.486   2.150
 3317TIP3    H2 9895   1.848   0.613   2.127
 3318TIP3   OH2 9896   3.675   3.561   1.700
 3318TIP3    H1 9897   3.756   3.610   1.684
 3318TIP3    H2 9898   3.704   3.477   1.734
 3319TIP3   OH2 9899   7.396   6.617   0.537
 3319TIP3    H1 9900   7.445   6.570   0.605
 3319TIP3    H2 9901   7.445   6.698   0.524
 3320TIP3   OH2 9902   4.678   7.754   2.542
 3320TIP3    H1 9903   4.617   7.714   2.480
 3320TIP3    H2 9904   4.764   7.719   2.518
 3321TIP3   OH2 9905   4.550   6.286   1.496
 3321TIP3    H1 9906   4.624   6.240   1.457
 3321TIP3    H2 9907   4.547   6.370   1.450
 3322TIP3   OH2 9908   4.820   2.303   0.383
 3322TIP3    H1 9909   4.741   2.351   0.359
 3322TIP3    H2 9910   4.787   2.222   0.423
 3323TIP3   OH2 9911   2.512   3.270   4.160
 3323TIP3    H1 9912   2.502   3.203   4.092
 3323TIP3    H2 9913   2.492   3.353   4.115
 3324TIP3   OH2 9914   0.103   6.664   1.413
 3324TIP3    H1 9915   0.008   6.673   1.405
 3324TIP3    H2 9916   0.138   6.750   1.390
 3325TIP3   OH2 9917   3.041   6.452   5.951
 3325TIP3    H1 9918   2.995   6.474   5.870
 3325TIP3    H2 9919   3.126   6.419   5.921
 3326TIP3   OH2 9920   0.736   6.141   4.468
 3326TIP3    H1 9921   0.705   6.232   4.458
 3326TIP3    H2 9922   0.778   6.139   4.554
 3327TIP3   OH2 9923   2.046   7.769   5.106
 3327TIP3    H1 9924   1.998   7.747   5.026
 3327TIP3    H2 9925   2.107   7.839   5.079
 3328TIP3   OH2 9926   1.396   1.704   3.566
 3328TIP3    H1 9927   1.463   1.662   3.619
 3328TIP3    H2 9928   1.385   1.646   3.491
 3329TIP3   OH2 9929   2.691   1.618   2.189
 3329TIP3    H1 9930   2.684   1.542   2.131
 3329TIP3    H2 9931   2.616   1.673   2.166
 3330TIP3   OH2 9932   5.661   4.931   0.298
 3330TIP3    H1 9933   5.726   4.874   0.257
 3330TIP3    H2 9934   5.699   5.019   0.291
 3331TIP3   OH2 9935   6.889   0.602   1.152
 3331TIP3    H1 9936   6.942   0.545   1.097
 3331TIP3    H2 9937   6.866   0.676   1.096
 3332TIP3   OH2 9938   5.696   5.229   3.302
 3332TIP3    H1 9939   5.622   5.291   3.302
 3332TIP3    H2 9940   5.739   5.243   3.386
 3333TIP3   OH2 9941   1.561   3.895   1.216
 3333TIP3    H1 9942   1.572   3.932   1.303
 3333TIP3    H2 9943   1.580   3.801   1.227
 3334TIP3   OH2 9944   7.659   3.711   3.812
 3334TIP3    H1 9945   7.691   3.753   3.732
 3334TIP3    H2 9946   7.569   3.686   3.792
 3335TIP3   OH2 9947   6.462   7.810   4.289
 3335TIP3    H1 9948   6.368   7.802   4.305
 3335TIP3    H2 9949   6.468   7.824   4.194
 3336TIP3   OH2 9950   8.157   6.834   2.327
 3336TIP3    H1 9951   8.155   6.923   2.293
 3336TIP3    H2 9952   8.091   6.787   2.277
 3337TIP3   OH2 9953   5.303   3.906   2.047
 3337TIP3    H1 9954   5.237   3.842   2.019
 3337TIP3    H2 9955   5.337   3.871   2.129
 3338TIP3   OH2 9956   1.197   5.286   3.155
 3338TIP3    H1 9957   1.132   5.351   3.184
 3338TIP3    H2 9958   1.173   5.206   3.201
 3339TIP3   OH2 9959   3.127   0.659   5.753
 3339TIP3    H1 9960   3.138   0.724   5.822
 3339TIP3    H2 9961   3.174   0.582   5.784
 3340TIP3   OH2 9962   7.219   6.498   4.878
 3340TIP3    H1 9963   7.155   6.428   4.890
 3340TIP3    H2 9964   7.298   6.453   4.847
 3341TIP3   OH2 9965   3.689   5.155   4.899
 3341TIP3    H1 9966   3.776   5.116   4.892
 3341TIP3    H2 9967   3.629   5.088   4.866
 3342TIP3   OH2 9968   7.385   2.349   6.630
 3342TIP3    H1 9969   7.296   2.364   6.596
 3342TIP3    H2 9970   7.442   2.390   6.565
 3343TIP3   OH2 9971   3.351   4.971   2.343
 3343TIP3    H1 9972   3.356   4.877   2.360
 3343TIP3    H2 9973   3.310   4.977   2.257
 3344TIP3   OH2 9974   2.056   2.547   5.711
 3344TIP3    H1 9975   2.086   2.511   5.794
 3344TIP3    H2 9976   2.046   2.471   5.654
 3345TIP3   OH2 9977   2.683   7.331   2.116
 3345TIP3    H1 9978   2.771   7.367   2.126
 3345TIP3    H2 9979   2.660   7.297   2.203
 3346TIP3   OH2 9980   3.746   6.163   0.640
 3346TIP3    H1 9981   3.805   6.088   0.640
 3346TIP3    H2 9982   3.683   6.145   0.709
 3347TIP3   OH2 9983   2.173   4.768   0.910
 3347TIP3    H1 9984   2.164   4.810   0.825
 3347TIP3    H2 9985   2.261   4.732   0.911
 3348TIP3   OH2 9986   0.436   4.074   6.601
 3348TIP3    H1 9987   0.495   4.090   6.528
 3348TIP3    H2 9988   0.431   3.979   6.608
 3349TIP3   OH2 9989   5.988   4.057   5.453
 3349TIP3    H1 9990   5.945   4.060   5.539
 3349TIP3    H2 9991   5.951   3.980   5.411
 3350TIP3   OH2 9992   3.123   6.527   6.616
 3350TIP3    H1 9993   3.041   6.484   6.640
 3350TIP3    H2 9994   3.097   6.598   6.557
 3351TIP3   OH2 9995   7.449   2.467   1.429
 3351TIP3    H1 9996   7.515   2.406   1.465
 3351TIP3    H2 9997   7.393   2.412   1.374
 3352TIP3   OH2 9998   5.309   0.268   2.806
 3352TIP3    H1 9999   5.339   0.340   2.750
 3352TIP3    H210000   5.331   0.189   2.757
 3353TIP3   OH210001   1.321   0.148   5.439
 3353TIP3    H110002   1.312   0.231   5.485
 3353TIP3    H210003   1.269   0.157   5.360
 3354TIP3   OH210004   0.454   2.010   2.139
 3354TIP3    H110005   0.526   1.955   2.169
 3354TIP3    H210006   0.375   1.970   2.176
 3355TIP3   OH210007   1.401   4.713   4.996
 3355TIP3    H110008   1.358   4.628   4.986
 3355TIP3    H210009   1.337   4.766   5.044
 3356TIP3   OH210010   5.738   7.713   0.407
 3356TIP3    H110011   5.745   7.621   0.382
 3356TIP3    H210012   5.708   7.711   0.498
 3357TIP3   OH210013   2.611   7.240   6.722
 3357TIP3    H110014   2.678   7.222   6.656
 3357TIP3    H210015   2.660   7.272   6.798
 3358TIP3   OH210016   6.322   2.078   2.808
 3358TIP3    H110017   6.382   2.025   2.860
 3358TIP3    H210018   6.355   2.168   2.818
 3359TIP3   OH210019   0.958   3.216   0.362
 3359TIP3    H110020   0.896   3.264   0.417
 3359TIP3    H210021   0.950   3.255   0.276
 3360TIP3   OH210022   3.829   0.895   4.350
 3360TIP3    H110023   3.756   0.887   4.412
 3360TIP3    H210024   3.844   0.805   4.320
 3361TIP3   OH210025   1.979   7.417   5.354
 3361TIP3    H110026   1.926   7.494   5.332
 3361TIP3    H210027   2.058   7.455   5.395
 3362TIP3   OH210028   5.081   5.693   6.183
 3362TIP3    H110029   5.160   5.661   6.138
 3362TIP3    H210030   5.080   5.645   6.265
 3363TIP3   OH210031   3.480   6.085   5.194
 3363TIP3    H110032   3.407   6.066   5.253
 3363TIP3    H210033   3.554   6.038   5.232
 3364TIP3   OH210034   3.650   0.445   1.006
 3364TIP3    H110035   3.731   0.426   0.959
 3364TIP3    H210036   3.678   0.498   1.081
 3365TIP3   OH210037   5.497   4.817   3.041
 3365TIP3    H110038   5.483   4.722   3.040
 3365TIP3    H210039   5.492   4.841   3.134
 3366TIP3   OH210040   5.984   4.736   4.812
 3366TIP3    H110041   6.016   4.705   4.896
 3366TIP3    H210042   5.979   4.831   4.821
 3367TIP3   OH210043   8.254   0.177   5.580
 3367TIP3    H110044   8.294   0.157   5.665
 3367TIP3    H210045   8.290   0.111   5.520
 3368TIP3   OH210046   5.631   5.676   2.543
 3368TIP3    H110047   5.710   5.659   2.492
 3368TIP3    H210048   5.578   5.734   2.487
 3369TIP3   OH210049   4.608   3.974   1.671
 3369TIP3    H110050   4.522   4.012   1.656
 3369TIP3    H210051   4.637   3.945   1.584
 3370TIP3   OH210052   3.586   4.718   3.799
 3370TIP3    H110053   3.662   4.735   3.855
 3370TIP3    H210054   3.611   4.640   3.749
 3371TIP3   OH210055   5.361   4.586   2.016
 3371TIP3    H110056   5.409   4.644   2.074
 3371TIP3    H210057   5.335   4.642   1.943
 3372TIP3   OH210058   8.025   1.560   1.967
 3372TIP3    H110059   8.075   1.534   2.045
 3372TIP3    H210060   7.979   1.480   1.942
 3373TIP3   OH210061   0.259   0.545   5.020
 3373TIP3    H110062   0.183   0.581   5.065
 3373TIP3    H210063   0.331   0.603   5.047
 3374TIP3   OH210064   2.710   2.014   4.052
 3374TIP3    H110065   2.620   1.983   4.061
 3374TIP3    H210066   2.701   2.110   4.051
 3375TIP3   OH210067   0.260   0.730   2.037
 3375TIP3    H110068   0.223   0.651   2.000
 3375TIP3    H210069   0.203   0.751   2.111
 3376TIP3   OH210070   6.679   6.335   0.470
 3376TIP3    H110071   6.688   6.312   0.562
 3376TIP3    H210072   6.615   6.273   0.436
 3377TIP3   OH210073   3.675   2.345   6.651
 3377TIP3    H110074   3.580   2.334   6.658
 3377TIP3    H210075   3.687   2.433   6.615
 3378TIP3   OH210076   0.349   1.211   0.377
 3378TIP3    H110077   0.286   1.149   0.341
 3378TIP3    H210078   0.366   1.272   0.304
 3379TIP3   OH210079   5.511   2.990   1.726
 3379TIP3    H110080   5.425   2.991   1.684
 3379TIP3    H210081   5.562   3.055   1.678
 3380TIP3   OH210082   6.200   3.101   1.677
 3380TIP3    H110083   6.240   3.062   1.600
 3380TIP3    H210084   6.188   3.028   1.738
 3381TIP3   OH210085   6.112   2.822   2.227
 3381TIP3    H110086   6.119   2.905   2.180
 3381TIP3    H210087   6.137   2.842   2.317
 3382TIP3   OH210088   2.485   3.760   1.434
 3382TIP3    H110089   2.423   3.766   1.361
 3382TIP3    H210090   2.571   3.766   1.393
 3383TIP3   OH210091   6.080   0.987   5.529
 3383TIP3    H110092   6.017   0.949   5.468
 3383TIP3    H210093   6.165   0.955   5.498
 3384TIP3   OH210094   4.528   5.880   5.999
 3384TIP3    H110095   4.444   5.837   5.987
 3384TIP3    H210096   4.568   5.833   6.073
 3385TIP3   OH210097   4.242   1.308   5.226
 3385TIP3    H110098   4.178   1.377   5.240
 3385TIP3    H210099   4.219   1.240   5.289
 3386TIP3   OH210100   3.818   1.485   1.331
 3386TIP3    H110101   3.860   1.407   1.366
 3386TIP3    H210102   3.730   1.455   1.306
 3387TIP3   OH210103   5.789   5.229   4.480
 3387TIP3    H110104   5.758   5.207   4.568
 3387TIP3    H210105   5.788   5.145   4.434
 3388TIP3   OH210106   1.568   0.820   0.528
 3388TIP3    H110107   1.494   0.863   0.571
 3388TIP3    H210108   1.531   0.741   0.489
 3389TIP3   OH210109   1.714   7.406   2.331
 3389TIP3    H110110   1.728   7.489   2.377
 3389TIP3    H210111   1.627   7.378   2.357
 3390TIP3   OH210112   1.113   1.519   2.983
 3390TIP3    H110113   1.158   1.604   2.981
 3390TIP3    H210114   1.053   1.525   3.057
 3391TIP3   OH210115   5.431   0.509   5.382
 3391TIP3    H110116   5.359   0.511   5.319
 3391TIP3    H210117   5.399   0.560   5.457
 3392TIP3   OH210118   6.301   7.456   0.436
 3392TIP3    H110119   6.212   7.488   0.450
 3392TIP3    H210120   6.354   7.535   0.425
 3393TIP3   OH210121   3.791   1.587   5.901
 3393TIP3    H110122   3.775   1.499   5.865
 3393TIP3    H210123   3.780   1.577   5.995
 3394TIP3   OH210124   7.121   0.564   2.753
 3394TIP3    H110125   7.176   0.623   2.701
 3394TIP3    H210126   7.031   0.584   2.726
 3395TIP3   OH210127   5.413   5.086   2.641
 3395TIP3    H110128   5.412   5.169   2.688
 3395TIP3    H210129   5.340   5.092   2.579
 3396TIP3   OH210130   5.197   7.770   1.883
 3396TIP3    H110131   5.270   7.708   1.887
 3396TIP3    H210132   5.230   7.843   1.831
 3397TIP3   OH210133   6.532   4.273   3.097
 3397TIP3    H110134   6.453   4.258   3.149
 3397TIP3    H210135   6.500   4.316   3.018
 3398TIP3   OH210136   4.710   5.849   4.987
 3398TIP3    H110137   4.771   5.837   4.914
 3398TIP3    H210138   4.652   5.920   4.959
 3399TIP3   OH210139   4.604   0.258   5.180
 3399TIP3    H110140   4.563   0.343   5.196
 3399TIP3    H210141   4.552   0.196   5.232
 3400TIP3   OH210142   7.600   3.540   5.390
 3400TIP3    H110143   7.588   3.635   5.399
 3400TIP3    H210144   7.671   3.531   5.326
 3401TIP3   OH210145   5.471   3.315   4.694
 3401TIP3    H110146   5.481   3.296   4.788
 3401TIP3    H210147   5.380   3.341   4.684
 3402TIP3   OH210148   4.870   2.637   2.645
 3402TIP3    H110149   4.855   2.633   2.550
 3402TIP3    H210150   4.944   2.579   2.660
 3403TIP3   OH210151   0.864   1.770   4.894
 3403TIP3    H110152   0.853   1.730   4.808
 3403TIP3    H210153   0.910   1.703   4.946
 3404TIP3   OH210154   7.507   5.780   1.927
 3404TIP3    H110155   7.550   5.695   1.938
 3404TIP3    H210156   7.508   5.795   1.833
 3405TIP3   OH210157   3.623   7.246   6.330
 3405TIP3    H110158   3.564   7.306   6.378
 3405TIP3    H210159   3.710   7.266   6.364
 3406TIP3   OH210160   6.116   4.357   5.970
 3406TIP3    H110161   6.204   4.319   5.963
 3406TIP3    H210162   6.132   4.448   5.996
 3407TIP3   OH210163   2.833   4.468   4.348
 3407TIP3    H110164   2.842   4.380   4.385
 3407TIP3    H210165   2.739   4.484   4.347
 3408TIP3   OH210166   0.800   3.427   2.100
 3408TIP3    H110167   0.861   3.358   2.127
 3408TIP3    H210168   0.799   3.489   2.173
 3409TIP3   OH210169   3.949   0.035   0.244
 3409TIP3    H110170   3.905   0.052   0.161
 3409TIP3    H210171   3.988  -0.052   0.234
 3410TIP3   OH210172   6.724   0.417   6.481
 3410TIP3    H110173   6.778   0.495   6.492
 3410TIP3    H210174   6.772   0.363   6.418
 3411TIP3   OH210175   6.058   1.473   5.036
 3411TIP3    H110176   6.095   1.395   5.078
 3411TIP3    H210177   6.133   1.531   5.024
 3412TIP3   OH210178   7.197   4.434   5.952
 3412TIP3    H110179   7.189   4.366   5.886
 3412TIP3    H210180   7.173   4.391   6.034
 3413TIP3   OH210181   4.580   1.475   1.813
 3413TIP3    H110182   4.550   1.532   1.885
 3413TIP3    H210183   4.647   1.527   1.768
 3414TIP3   OH210184   2.608   5.996   5.559
 3414TIP3    H110185   2.549   6.026   5.628
 3414TIP3    H210186   2.696   6.015   5.592
 3415TIP3   OH210187   5.099   7.444   1.130
 3415TIP3    H110188   5.026   7.481   1.180
 3415TIP3    H210189   5.091   7.481   1.043
 3416TIP3   OH210190   5.176   5.989   1.104
 3416TIP3    H110191   5.197   5.939   1.183
 3416TIP3    H210192   5.223   6.071   1.114
 3417TIP3   OH210193   4.827   2.881   2.266
 3417TIP3    H110194   4.800   2.806   2.319
 3417TIP3    H210195   4.762   2.884   2.196
 3418TIP3   OH210196   0.227   4.285   4.194
 3418TIP3    H110197   0.195   4.373   4.212
 3418TIP3    H210198   0.322   4.292   4.201
 3419TIP3   OH210199   5.378   1.354   5.255
 3419TIP3    H110200   5.341   1.442   5.263
 3419TIP3    H210201   5.341   1.319   5.174
 3420TIP3   OH210202   5.308   6.803   1.315
 3420TIP3    H110203   5.373   6.733   1.321
 3420TIP3    H210204   5.227   6.764   1.348
 3421TIP3   OH210205   2.511   3.322   2.289
 3421TIP3    H110206   2.464   3.354   2.212
 3421TIP3    H210207   2.456   3.251   2.323
 3422TIP3   OH210208   0.770   7.032   0.994
 3422TIP3    H110209   0.793   7.115   0.953
 3422TIP3    H210210   0.852   6.983   0.997
 3423TIP3   OH210211   1.513   0.278   4.929
 3423TIP3    H110212   1.499   0.255   4.838
 3423TIP3    H210213   1.604   0.254   4.946
 3424TIP3   OH210214   2.370   5.809   2.989
 3424TIP3    H110215   2.349   5.878   2.927
 3424TIP3    H210216   2.454   5.836   3.028
 3425TIP3   OH210217   3.010   2.946   2.039
 3425TIP3    H110218   3.029   2.852   2.042
 3425TIP3    H210219   3.059   2.978   1.963
 3426TIP3   OH210220   6.148   5.147   5.456
 3426TIP3    H110221   6.161   5.106   5.371
 3426TIP3    H210222   6.215   5.215   5.460
 3427TIP3   OH210223   3.395   7.065   3.747
 3427TIP3    H110224   3.360   7.001   3.684
 3427TIP3    H210225   3.319   7.090   3.799
 3428TIP3   OH210226   0.669   0.371   2.614
 3428TIP3    H110227   0.616   0.310   2.666
 3428TIP3    H210228   0.636   0.362   2.525
 3429TIP3   OH210229   0.947   4.421   4.590
 3429TIP3    H110230   0.874   4.430   4.529
 3429TIP3    H210231   0.925   4.479   4.663
 3430TIP3   OH210232   4.225   1.506   4.404
 3430TIP3    H110233   4.145   1.469   4.442
 3430TIP3    H210234   4.209   1.506   4.309
 3431TIP3   OH210235   7.540   6.510   0.756
 3431TIP3    H110236   7.509   6.467   0.836
 3431TIP3    H210237   7.632   6.486   0.750
 3432TIP3   OH210238   1.903   3.202   0.918
 3432TIP3    H110239   1.950   3.145   0.858
 3432TIP3    H210240   1.811   3.178   0.908
 3433TIP3   OH210241   0.425   4.046   5.482
 3433TIP3    H110242   0.403   4.084   5.397
 3433TIP3    H210243   0.386   4.105   5.546
 3434TIP3   OH210244   1.899   4.721   0.740
 3434TIP3    H110245   1.879   4.753   0.653
 3434TIP3    H210246   1.938   4.796   0.785
 3435TIP3   OH210247   1.456   1.856   2.095
 3435TIP3    H110248   1.474   1.784   2.035
 3435TIP3    H210249   1.470   1.935   2.044
 3436TIP3   OH210250   3.718   7.366   2.000
 3436TIP3    H110251   3.804   7.363   1.958
 3436TIP3    H210252   3.656   7.353   1.928
 3437TIP3   OH210253   0.121   0.633   1.446
 3437TIP3    H110254   0.076   0.715   1.466
 3437TIP3    H210255   0.065   0.588   1.384
 3438TIP3   OH210256   0.890   3.002   2.343
 3438TIP3    H110257   0.931   2.923   2.379
 3438TIP3    H210258   0.901   3.068   2.412
 3439TIP3   OH210259   7.775   6.863   4.161
 3439TIP3    H110260   7.697   6.864   4.216
 3439TIP3    H210261   7.810   6.774   4.171
 3440TIP3   OH210262   6.669   6.892   2.701
 3440TIP3    H110263   6.632   6.962   2.755
 3440TIP3    H210264   6.678   6.818   2.762
 3441TIP3   OH210265   6.759   5.461   2.578
 3441TIP3    H110266   6.806   5.515   2.515
 3441TIP3    H210267   6.828   5.410   2.622
 3442TIP3   OH210268   3.637   3.958   0.419
 3442TIP3    H110269   3.707   3.927   0.476
 3442TIP3    H210270   3.681   4.008   0.351
 3443TIP3   OH210271   1.269   5.471   2.571
 3443TIP3    H110272   1.195   5.423   2.534
 3443TIP3    H210273   1.303   5.523   2.499
 3444TIP3   OH210274   1.280   3.688   1.540
 3444TIP3    H110275   1.268   3.740   1.461
 3444TIP3    H210276   1.209   3.624   1.539
 3445TIP3   OH210277   3.183   3.898   1.629
 3445TIP3    H110278   3.161   3.819   1.678
 3445TIP3    H210279   3.223   3.956   1.694
 3446TIP3   OH210280   1.378   1.258   6.097
 3446TIP3    H110281   1.377   1.347   6.062
 3446TIP3    H210282   1.309   1.213   6.048
 3447TIP3   OH210283   2.263   6.050   0.762
 3447TIP3    H110284   2.342   6.036   0.710
 3447TIP3    H210285   2.200   5.987   0.728
 3448TIP3   OH210286   6.952   2.647   1.366
 3448TIP3    H110287   7.046   2.662   1.368
 3448TIP3    H210288   6.913   2.734   1.381
 3449TIP3   OH210289   4.559   7.485   6.518
 3449TIP3    H110290   4.518   7.407   6.555
 3449TIP3    H210291   4.526   7.557   6.571
 3450TIP3   OH210292   4.867   0.683   1.553
 3450TIP3    H110293   4.869   0.637   1.469
 3450TIP3    H210294   4.778   0.717   1.559
 3451TIP3   OH210295   2.293   7.542   1.440
 3451TIP3    H110296   2.352   7.600   1.391
 3451TIP3    H210297   2.206   7.577   1.424
 3452TIP3   OH210298   4.288   3.232   2.316
 3452TIP3    H110299   4.207   3.239   2.368
 3452TIP3    H210300   4.270   3.161   2.254
 3453TIP3   OH210301   1.607   4.838   1.421
 3453TIP3    H110302   1.623   4.751   1.385
 3453TIP3    H210303   1.534   4.872   1.370
 3454TIP3   OH210304   2.669   6.067   3.447
 3454TIP3    H110305   2.723   6.103   3.376
 3454TIP3    H210306   2.587   6.042   3.404
 3455TIP3   OH210307   3.334   2.723   6.620
 3455TIP3    H110308   3.260   2.783   6.630
 3455TIP3    H210309   3.395   2.769   6.562
 3456TIP3   OH210310   3.456   2.667   5.755
 3456TIP3    H110311   3.388   2.709   5.702
 3456TIP3    H210312   3.479   2.588   5.706
 3457TIP3   OH210313   3.912   7.303   3.594
 3457TIP3    H110314   3.949   7.228   3.548
 3457TIP3    H210315   3.868   7.265   3.670
 3458TIP3   OH210316   2.743   0.439   6.365
 3458TIP3    H110317   2.808   0.407   6.428
 3458TIP3    H210318   2.667   0.383   6.379
 3459TIP3   OH210319   4.743   0.733   3.778
 3459TIP3    H110320   4.696   0.786   3.714
 3459TIP3    H210321   4.775   0.658   3.728
 3460TIP3   OH210322   4.959   0.793   5.924
 3460TIP3    H110323   4.941   0.887   5.918
 3460TIP3    H210324   5.002   0.771   5.841
 3461TIP3   OH210325   5.271   2.644   2.560
 3461TIP3    H110326   5.231   2.705   2.498
 3461TIP3    H210327   5.293   2.698   2.636
 3462TIP3   OH210328   1.162   4.658   3.619
 3462TIP3    H110329   1.174   4.620   3.533
 3462TIP3    H210330   1.068   4.675   3.625
 3463TIP3   OH210331   3.387   2.659   2.895
 3463TIP3    H110332   3.476   2.632   2.875
 3463TIP3    H210333   3.390   2.686   2.987
 3464TIP3   OH210334   5.463   7.151   0.385
 3464TIP3    H110335   5.504   7.214   0.445
 3464TIP3    H210336   5.374   7.185   0.372
 3465TIP3   OH210337   2.711   3.101   4.192
 3465TIP3    H110338   2.779   3.147   4.141
 3465TIP3    H210339   2.635   3.160   4.188
 3466TIP3   OH210340   4.220   0.073   1.851
 3466TIP3    H110341   4.167   0.142   1.892
 3466TIP3    H210342   4.255   0.023   1.925
 3467TIP3   OH210343   7.684   3.791   3.558
 3467TIP3    H110344   7.748   3.783   3.487
 3467TIP3    H210345   7.600   3.801   3.514
 3468TIP3   OH210346   7.355   4.233   1.095
 3468TIP3    H110347   7.323   4.185   1.019
 3468TIP3    H210348   7.440   4.195   1.114
 3469TIP3   OH210349   7.040   3.228   4.382
 3469TIP3    H110350   7.047   3.281   4.461
 3469TIP3    H210351   6.975   3.273   4.328
 3470TIP3   OH210352   7.659   0.468   5.283
 3470TIP3    H110353   7.652   0.475   5.188
 3470TIP3    H210354   7.670   0.374   5.299
 3471TIP3   OH210355   3.981   5.923   3.229
 3471TIP3    H110356   3.957   5.980   3.303
 3471TIP3    H210357   3.912   5.937   3.165
 3472TIP3   OH210358   1.273   0.795   6.318
 3472TIP3    H110359   1.179   0.807   6.324
 3472TIP3    H210360   1.297   0.838   6.236
 3473TIP3   OH210361   8.051   1.037   1.893
 3473TIP3    H110362   8.035   0.943   1.903
 3473TIP3    H210363   8.077   1.047   1.802
 3474TIP3   OH210364   2.300   1.795   3.284
 3474TIP3    H110365   2.310   1.707   3.319
 3474TIP3    H210366   2.206   1.809   3.278
 3475TIP3   OH210367   4.931   7.437   3.344
 3475TIP3    H110368   4.986   7.358   3.346
 3475TIP3    H210369   4.846   7.408   3.378
 3476TIP3   OH210370   8.232   2.283   2.530
 3476TIP3    H110371   8.205   2.191   2.532
 3476TIP3    H210372   8.153   2.332   2.551
 3477TIP3   OH210373   5.709   0.066   6.478
 3477TIP3    H110374   5.644   0.136   6.471
 3477TIP3    H210375   5.751   0.080   6.563
 3478TIP3   OH210376   2.562   3.936   5.689
 3478TIP3    H110377   2.634   3.905   5.634
 3478TIP3    H210378   2.570   3.886   5.770
 3479TIP3   OH210379   6.259   5.042   5.691
 3479TIP3    H110380   6.313   4.972   5.653
 3479TIP3    H210381   6.205   5.072   5.618
 3480TIP3   OH210382   1.866   4.834   3.702
 3480TIP3    H110383   1.874   4.836   3.797
 3480TIP3    H210384   1.850   4.925   3.676
 3481TIP3   OH210385   1.180   1.159   2.494
 3481TIP3    H110386   1.193   1.069   2.466
 3481TIP3    H210387   1.086   1.168   2.507
 3482TIP3   OH210388   3.123   5.566   4.517
 3482TIP3    H110389   3.207   5.580   4.473
 3482TIP3    H210390   3.146   5.550   4.608
 3483TIP3   OH210391   6.585   5.646   2.090
 3483TIP3    H110392   6.600   5.703   2.014
 3483TIP3    H210393   6.672   5.612   2.112
 3484TIP3   OH210394   7.800   0.537   3.286
 3484TIP3    H110395   7.820   0.578   3.202
 3484TIP3    H210396   7.705   0.546   3.295
 3485TIP3   OH210397   6.685   4.282   0.545
 3485TIP3    H110398   6.664   4.352   0.482
 3485TIP3    H210399   6.770   4.249   0.516
 3486TIP3   OH210400   5.752   2.902   0.208
 3486TIP3    H110401   5.739   2.986   0.252
 3486TIP3    H210402   5.698   2.907   0.129
 3487TIP3   OH210403   8.202   0.311   2.338
 3487TIP3    H110404   8.243   0.258   2.406
 3487TIP3    H210405   8.141   0.367   2.385
 3488TIP3   OH210406   6.238   5.732   4.328
 3488TIP3    H110407   6.215   5.825   4.315
 3488TIP3    H210408   6.188   5.706   4.404
 3489TIP3   OH210409   5.379   0.838   6.205
 3489TIP3    H110410   5.293   0.877   6.189
 3489TIP3    H210411   5.416   0.825   6.118
 3490TIP3   OH210412   5.392   7.230   0.704
 3490TIP3    H110413   5.314   7.284   0.704
 3490TIP3    H210414   5.460   7.285   0.664
 3491TIP3   OH210415   2.141   5.702   1.066
 3491TIP3    H110416   2.200   5.762   1.020
 3491TIP3    H210417   2.170   5.704   1.157
 3492TIP3   OH210418   3.834   1.445   4.997
 3492TIP3    H110419   3.835   1.538   4.975
 3492TIP3    H210420   3.901   1.407   4.940
 3493TIP3   OH210421   4.647   5.428   2.880
 3493TIP3    H110422   4.697   5.430   2.798
 3493TIP3    H210423   4.606   5.515   2.884
 3494TIP3   OH210424   0.534   6.470   5.287
 3494TIP3    H110425   0.533   6.444   5.195
 3494TIP3    H210426   0.617   6.436   5.320
 3495TIP3   OH210427   5.825   6.846   2.449
 3495TIP3    H110428   5.742   6.852   2.401
 3495TIP3    H210429   5.834   6.931   2.492
 3496TIP3   OH210430   1.876   5.917   4.734
 3496TIP3    H110431   1.786   5.887   4.743
 3496TIP3    H210432   1.890   5.974   4.810
 3497TIP3   OH210433   0.233   7.569   2.386
 3497TIP3    H110434   0.188   7.496   2.343
 3497TIP3    H210435   0.163   7.631   2.406
 3498TIP3   OH210436   3.993   2.906   5.411
 3498TIP3    H110437   4.008   2.987   5.364
 3498TIP3    H210438   3.938   2.931   5.485
 3499TIP3   OH210439   0.185   7.616   3.300
 3499TIP3    H110440   0.258   7.575   3.346
 3499TIP3    H210441   0.129   7.650   3.369
 3500TIP3   OH210442   8.062   3.582   6.662
 3500TIP3    H110443   8.052   3.593   6.756
 3500TIP3    H210444   7.976   3.602   6.626
 3501TIP3   OH210445   4.001   6.315   6.379
 3501TIP3    H110446   4.040   6.238   6.420
 3501TIP3    H210447   3.951   6.357   6.450
 3502TIP3   OH210448   4.454   7.173   1.866
 3502TIP3    H110449   4.506   7.184   1.786
 3502TIP3    H210450   4.448   7.079   1.878
 3503TIP3   OH210451   0.964   3.030   6.069
 3503TIP3    H110452   1.043   3.031   6.122
 3503TIP3    H210453   0.894   3.005   6.129
 3504TIP3   OH210454   5.464   1.781   6.255
 3504TIP3    H110455   5.457   1.868   6.216
 3504TIP3    H210456   5.551   1.750   6.231
 3505TIP3   OH210457   1.644   4.881   2.337
 3505TIP3    H110458   1.680   4.968   2.353
 3505TIP3    H210459   1.550   4.896   2.326
 3506TIP3   OH210460   2.794   2.784   5.921
 3506TIP3    H110461   2.814   2.839   5.845
 3506TIP3    H210462   2.870   2.725   5.928
 3507TIP3   OH210463   6.964   0.693   3.429
 3507TIP3    H110464   6.885   0.643   3.449
 3507TIP3    H210465   7.032   0.627   3.416
 3508TIP3   OH210466   5.248   2.604   4.771
 3508TIP3    H110467   5.335   2.628   4.805
 3508TIP3    H210468   5.187   2.646   4.831
 3509TIP3   OH210469   3.136   5.498   5.205
 3509TIP3    H110470   3.137   5.593   5.193
 3509TIP3    H210471   3.113   5.463   5.118
 3510TIP3   OH210472   0.798   0.631   5.315
 3510TIP3    H110473   0.845   0.646   5.397
 3510TIP3    H210474   0.706   0.645   5.337
 3511TIP3   OH210475   3.031   0.487   1.230
 3511TIP3    H110476   3.078   0.568   1.248
 3511TIP3    H210477   3.043   0.434   1.308
 3512TIP3   OH210478   4.753   6.139   5.583
 3512TIP3    H110479   4.807   6.099   5.651
 3512TIP3    H210480   4.813   6.149   5.509
 3513TIP3   OH210481   6.413   2.921   3.273
 3513TIP3    H110482   6.347   2.990   3.266
 3513TIP3    H210483   6.435   2.899   3.183
 3514TIP3   OH210484   7.772   7.752   3.834
 3514TIP3    H110485   7.755   7.658   3.832
 3514TIP3    H210486   7.733   7.781   3.917
 3515TIP3   OH210487   0.784   6.116   6.532
 3515TIP3    H110488   0.707   6.109   6.589
 3515TIP3    H210489   0.835   6.038   6.551
 3516TIP3   OH210490   6.845   5.622   5.470
 3516TIP3    H110491   6.773   5.609   5.533
 3516TIP3    H210492   6.875   5.534   5.451
 3517TIP3   OH210493   8.184   7.733   0.946
 3517TIP3    H110494   8.212   7.789   0.874
 3517TIP3    H210495   8.173   7.647   0.908
 3518TIP3   OH210496   6.643   6.206   5.144
 3518TIP3    H110497   6.665   6.156   5.222
 3518TIP3    H210498   6.665   6.148   5.071
 3519TIP3   OH210499   1.944   2.156   0.321
 3519TIP3    H110500   1.976   2.085   0.377
 3519TIP3    H210501   1.849   2.156   0.334
 3520TIP3   OH210502   7.122   0.459   6.113
 3520TIP3    H110503   7.157   0.541   6.147
 3520TIP3    H210504   7.029   0.475   6.101
 3521TIP3   OH210505   8.238   0.277   1.856
 3521TIP3    H110506   8.285   0.281   1.940
 3521TIP3    H210507   8.257   0.190   1.822
 3522TIP3   OH210508   6.838   4.013   1.927
 3522TIP3    H110509   6.887   4.061   1.994
 3522TIP3    H210510   6.838   4.072   1.851
 3523TIP3   OH210511   3.711   3.218   2.974
 3523TIP3    H110512   3.677   3.135   3.007
 3523TIP3    H210513   3.763   3.253   3.047
 3524TIP3   OH210514   4.468   2.580   5.154
 3524TIP3    H110515   4.467   2.531   5.072
 3524TIP3    H210516   4.557   2.616   5.159
 3525TIP3   OH210517   4.375   7.726   5.789
 3525TIP3    H110518   4.448   7.738   5.729
 3525TIP3    H210519   4.416   7.692   5.869
 3526TIP3   OH210520   3.375   4.711   2.309
 3526TIP3    H110521   3.304   4.665   2.266
 3526TIP3    H210522   3.373   4.680   2.400
 3527TIP3   OH210523   1.391   6.549   0.623
 3527TIP3    H110524   1.373   6.503   0.541
 3527TIP3    H210525   1.384   6.480   0.690
 3528TIP3   OH210526   0.584   4.739   6.600
 3528TIP3    H110527   0.553   4.715   6.513
 3528TIP3    H210528   0.504   4.740   6.654
 3529TIP3   OH210529   7.486   2.091   6.690
 3529TIP3    H110530   7.565   2.114   6.739
 3529TIP3    H210531   7.469   2.167   6.634
 3530TIP3   OH210532   4.383   1.960   1.190
 3530TIP3    H110533   4.428   1.979   1.273
 3530TIP3    H210534   4.290   1.956   1.214
 3531TIP3   OH210535   5.851   0.536   4.612
 3531TIP3    H110536   5.913   0.566   4.546
 3531TIP3    H210537   5.825   0.616   4.658
 3532TIP3   OH210538   5.219   5.081   3.751
 3532TIP3    H110539   5.310   5.067   3.776
 3532TIP3    H210540   5.224   5.112   3.660
 3533TIP3   OH210541   2.711   4.973   2.329
 3533TIP3    H110542   2.760   5.043   2.372
 3533TIP3    H210543   2.637   5.018   2.288
 3534TIP3   OH210544   4.098   5.493   1.863
 3534TIP3    H110545   4.110   5.482   1.769
 3534TIP3    H210546   4.179   5.533   1.893
 3535TIP3   OH210547   0.114   6.379   1.338
 3535TIP3    H110548   0.136   6.465   1.374
 3535TIP3    H210549   0.060   6.398   1.262
 3536TIP3   OH210550   4.493   1.227   3.170
 3536TIP3    H110551   4.576   1.210   3.127
 3536TIP3    H210552   4.481   1.153   3.230
 3537TIP3   OH210553   6.903   5.540   6.355
 3537TIP3    H110554   6.842   5.518   6.284
 3537TIP3    H210555   6.959   5.463   6.362
 3538TIP3   OH210556   3.712   0.064   4.741
 3538TIP3    H110557   3.723   0.134   4.805
 3538TIP3    H210558   3.769   0.089   4.668
 3539TIP3   OH210559   6.141   7.530   1.782
 3539TIP3    H110560   6.064   7.573   1.744
 3539TIP3    H210561   6.150   7.449   1.733
 3540TIP3   OH210562   6.609   5.780   3.891
 3540TIP3    H110563   6.689   5.831   3.904
 3540TIP3    H210564   6.544   5.844   3.862
 3541TIP3   OH210565   0.492   4.767   4.621
 3541TIP3    H110566   0.552   4.784   4.694
 3541TIP3    H210567   0.420   4.717   4.660
 3542TIP3   OH210568   0.558   2.537   0.927
 3542TIP3    H110569   0.522   2.512   0.842
 3542TIP3    H210570   0.647   2.563   0.909
 3543TIP3   OH210571   6.431   7.639   4.986
 3543TIP3    H110572   6.523   7.619   5.000
 3543TIP3    H210573   6.384   7.576   5.041
 3544TIP3   OH210574   1.141   7.029   5.230
 3544TIP3    H110575   1.135   7.079   5.148
 3544TIP3    H210576   1.233   7.037   5.256
 3545TIP3   OH210577   4.481   1.442   6.040
 3545TIP3    H110578   4.423   1.383   6.088
 3545TIP3    H210579   4.518   1.498   6.108
 3546TIP3   OH210580   3.303   2.632   3.557
 3546TIP3    H110581   3.240   2.601   3.492
 3546TIP3    H210582   3.315   2.559   3.617
 3547TIP3   OH210583   4.162   4.598   4.274
 3547TIP3    H110584   4.195   4.594   4.365
 3547TIP3    H210585   4.105   4.521   4.266
 3548TIP3   OH210586   0.943   5.320   1.106
 3548TIP3    H110587   0.915   5.385   1.171
 3548TIP3    H210588   0.903   5.238   1.135
 3549TIP3   OH210589   3.168   3.818   0.907
 3549TIP3    H110590   3.215   3.810   0.990
 3549TIP3    H210591   3.099   3.882   0.924
 3550TIP3   OH210592   7.192   7.631   6.057
 3550TIP3    H110593   7.283   7.639   6.084
 3550TIP3    H210594   7.146   7.701   6.103
 3551TIP3   OH210595   1.372   4.981   5.305
 3551TIP3    H110596   1.338   5.005   5.218
 3551TIP3    H210597   1.304   4.926   5.343
 3552TIP3   OH210598   0.536   3.782   6.278
 3552TIP3    H110599   0.529   3.695   6.317
 3552TIP3    H210600   0.446   3.810   6.264
 3553TIP3   OH210601   6.592   7.479   4.069
 3553TIP3    H110602   6.524   7.414   4.087
 3553TIP3    H210603   6.613   7.467   3.977
 3554TIP3   OH210604   6.439   7.719   0.942
 3554TIP3    H110605   6.396   7.634   0.953
 3554TIP3    H210606   6.403   7.773   1.012
 3555TIP3   OH210607   6.285   3.904   6.107
 3555TIP3    H110608   6.255   3.830   6.159
 3555TIP3    H210609   6.354   3.868   6.051
 3556TIP3   OH210610   0.737   4.390   5.587
 3556TIP3    H110611   0.701   4.396   5.675
 3556TIP3    H210612   0.718   4.475   5.547
 3557TIP3   OH210613   0.945   1.657   5.866
 3557TIP3    H110614   0.933   1.751   5.855
 3557TIP3    H210615   1.028   1.648   5.913
 3558TIP3   OH210616   2.774   6.755   4.975
 3558TIP3    H110617   2.702   6.803   4.934
 3558TIP3    H210618   2.853   6.797   4.943
 3559TIP3   OH210619   0.595   5.440   3.196
 3559TIP3    H110620   0.650   5.490   3.256
 3559TIP3    H210621   0.581   5.499   3.122
 3560TIP3   OH210622   7.523   6.124   1.468
 3560TIP3    H110623   7.480   6.144   1.551
 3560TIP3    H210624   7.453   6.094   1.410
 3561TIP3   OH210625   0.976   7.207   6.106
 3561TIP3    H110626   0.899   7.264   6.113
 3561TIP3    H210627   1.039   7.244   6.168
 3562TIP3   OH210628   6.759   3.029   3.111
 3562TIP3    H110629   6.770   2.994   3.023
 3562TIP3    H210630   6.840   3.077   3.128
 3563TIP3   OH210631   3.596   4.179   0.599
 3563TIP3    H110632   3.506   4.174   0.632
 3563TIP3    H210633   3.605   4.101   0.545
 3564TIP3   OH210634   3.205   6.126   4.325
 3564TIP3    H110635   3.192   6.064   4.254
 3564TIP3    H210636   3.274   6.088   4.379
 3565TIP3   OH210637   0.642   2.236   2.000
 3565TIP3    H110638   0.564   2.202   1.956
 3565TIP3    H210639   0.715   2.210   1.944
 3566TIP3   OH210640   7.716   1.227   6.484
 3566TIP3    H110641   7.648   1.175   6.442
 3566TIP3    H210642   7.716   1.310   6.437
 3567TIP3   OH210643   7.825   1.861   6.266
 3567TIP3    H110644   7.839   1.938   6.321
 3567TIP3    H210645   7.740   1.828   6.293
 3568TIP3   OH210646   3.637   4.535   5.002
 3568TIP3    H110647   3.566   4.596   4.981
 3568TIP3    H210648   3.684   4.576   5.075
 3569TIP3   OH210649   0.367   5.664   4.658
 3569TIP3    H110650   0.289   5.624   4.697
 3569TIP3    H210651   0.422   5.688   4.732
 3570TIP3   OH210652   8.093   6.209   0.632
 3570TIP3    H110653   8.127   6.267   0.701
 3570TIP3    H210654   8.036   6.148   0.679
 3571TIP3   OH210655   2.099   7.328   4.916
 3571TIP3    H110656   2.017   7.316   4.868
 3571TIP3    H210657   2.079   7.301   5.005
 3572TIP3   OH210658   3.940   5.661   1.588
 3572TIP3    H110659   3.875   5.614   1.641
 3572TIP3    H210660   4.011   5.598   1.577
 3573TIP3   OH210661   5.044   0.094   6.595
 3573TIP3    H110662   5.128   0.120   6.633
 3573TIP3    H210663   5.067   0.051   6.513
 3574TIP3   OH210664   4.990   5.582   2.393
 3574TIP3    H110665   4.963   5.618   2.309
 3574TIP3    H210666   5.085   5.595   2.394
 3575TIP3   OH210667   6.808   4.185   4.948
 3575TIP3    H110668   6.732   4.227   4.989
 3575TIP3    H210669   6.842   4.126   5.016
 3576TIP3   OH210670   0.505   3.570   0.200
 3576TIP3    H110671   0.501   3.530   0.287
 3576TIP3    H210672   0.437   3.525   0.150
 3577TIP3   OH210673   5.248   2.294   3.277
 3577TIP3    H110674   5.316   2.238   3.240
 3577TIP3    H210675   5.188   2.232   3.319
 3578TIP3   OH210676   0.353   7.484   3.535
 3578TIP3    H110677   0.421   7.445   3.589
 3578TIP3    H210678   0.344   7.573   3.568
 3579TIP3   OH210679   0.153   0.084   0.145
 3579TIP3    H110680   0.084   0.148   0.160
 3579TIP3    H210681   0.220   0.106   0.210
 3580TIP3   OH210682   4.069   0.805   5.908
 3580TIP3    H110683   4.042   0.737   5.969
 3580TIP3    H210684   4.090   0.759   5.827
 3581TIP3   OH210685   7.048   1.344   1.093
 3581TIP3    H110686   7.086   1.341   1.180
 3581TIP3    H210687   7.124   1.340   1.034
 3582TIP3   OH210688   5.292   0.765   2.642
 3582TIP3    H110689   5.246   0.719   2.713
 3582TIP3    H210690   5.385   0.760   2.668
 3583TIP3   OH210691   0.161   3.855   1.054
 3583TIP3    H110692   0.123   3.793   0.991
 3583TIP3    H210693   0.095   3.924   1.061
 3584TIP3   OH210694   0.191   6.922   3.344
 3584TIP3    H110695   0.153   6.996   3.392
 3584TIP3    H210696   0.219   6.959   3.260
 3585TIP3   OH210697   2.879   0.218   5.143
 3585TIP3    H110698   2.963   0.230   5.186
 3585TIP3    H210699   2.896   0.153   5.075
 3586TIP3   OH210700   4.710   3.389   3.830
 3586TIP3    H110701   4.798   3.360   3.806
 3586TIP3    H210702   4.660   3.307   3.840
 3587TIP3   OH210703   0.975   3.900   4.440
 3587TIP3    H110704   1.054   3.931   4.485
 3587TIP3    H210705   1.001   3.893   4.349
 3588TIP3   OH210706   4.005   5.549   3.492
 3588TIP3    H110707   4.034   5.610   3.560
 3588TIP3    H210708   3.939   5.495   3.535
 3589TIP3   OH210709   6.609   0.562   5.173
 3589TIP3    H110710   6.545   0.494   5.195
 3589TIP3    H210711   6.562   0.644   5.186
 3590TIP3   OH210712   5.648   6.088   1.161
 3590TIP3    H110713   5.681   6.008   1.203
 3590TIP3    H210714   5.693   6.089   1.076
 3591TIP3   OH210715   1.967   5.084   0.757
 3591TIP3    H110716   1.940   5.113   0.671
 3591TIP3    H210717   2.053   5.043   0.743
 3592TIP3   OH210718   4.592   7.162   6.360
 3592TIP3    H110719   4.634   7.243   6.330
 3592TIP3    H210720   4.662   7.115   6.405
 3593TIP3   OH210721   8.278   5.039   2.340
 3593TIP3    H110722   8.214   5.047   2.411
 3593TIP3    H210723   8.239   4.976   2.280
 3594TIP3   OH210724   5.358   7.639   6.079
 3594TIP3    H110725   5.349   7.675   5.991
 3594TIP3    H210726   5.388   7.713   6.132
 3595TIP3   OH210727   3.117   0.280   4.879
 3595TIP3    H110728   3.048   0.344   4.896
 3595TIP3    H210729   3.088   0.236   4.799
 3596TIP3   OH210730   5.848   6.900   1.291
 3596TIP3    H110731   5.922   6.840   1.302
 3596TIP3    H210732   5.885   6.978   1.252
 3597TIP3   OH210733   7.281   1.539   6.590
 3597TIP3    H110734   7.285   1.447   6.619
 3597TIP3    H210735   7.300   1.589   6.670
 3598TIP3   OH210736   1.376   6.059   4.650
 3598TIP3    H110737   1.462   6.066   4.610
 3598TIP3    H210738   1.392   6.015   4.733
 3599TIP3   OH210739   5.833   3.055   4.236
 3599TIP3    H110740   5.812   3.079   4.146
 3599TIP3    H210741   5.925   3.081   4.247
 3600TIP3   OH210742   1.162   3.945   3.438
 3600TIP3    H110743   1.100   3.950   3.511
 3600TIP3    H210744   1.131   3.870   3.387
 3601TIP3   OH210745   0.862   1.330   0.943
 3601TIP3    H110746   0.924   1.287   0.884
 3601TIP3    H210747   0.780   1.283   0.931
 3602TIP3   OH210748   6.857   4.213   3.848
 3602TIP3    H110749   6.818   4.285   3.898
 3602TIP3    H210750   6.894   4.155   3.915
 3603TIP3   OH210751   0.358   2.852   3.406
 3603TIP3    H110752   0.445   2.843   3.443
 3603TIP3    H210753   0.335   2.943   3.420
 3604TIP3   OH210754   2.213   4.000   0.753
 3604TIP3    H110755   2.183   3.976   0.841
 3604TIP3    H210756   2.296   4.045   0.767
 3605TIP3   OH210757   5.826   0.889   6.595
 3605TIP3    H110758   5.804   0.970   6.641
 3605TIP3    H210759   5.743   0.856   6.562
 3606TIP3   OH210760   4.014   6.201   5.686
 3606TIP3    H110761   4.025   6.189   5.591
 3606TIP3    H210762   3.925   6.169   5.704
 3607TIP3   OH210763   0.769   2.101   6.092
 3607TIP3    H110764   0.736   2.167   6.153
 3607TIP3    H210765   0.708   2.104   6.018
 3608TIP3   OH210766   6.364   7.193   4.473
 3608TIP3    H110767   6.437   7.144   4.511
 3608TIP3    H210768   6.405   7.269   4.432
 3609TIP3   OH210769   4.598   1.905   5.339
 3609TIP3    H110770   4.588   1.999   5.350
 3609TIP3    H210771   4.691   1.892   5.322
 3610TIP3   OH210772   3.725   4.758   5.170
 3610TIP3    H110773   3.726   4.741   5.265
 3610TIP3    H210774   3.757   4.848   5.162
 3611TIP3   OH210775   0.172   4.757   0.398
 3611TIP3    H110776   0.083   4.776   0.369
 3611TIP3    H210777   0.190   4.822   0.465
 3612TIP3   OH210778   3.463   6.596   0.256
 3612TIP3    H110779   3.550   6.560   0.274
 3612TIP3    H210780   3.437   6.637   0.339
 3613TIP3   OH210781   1.574   1.648   3.797
 3613TIP3    H110782   1.586   1.577   3.861
 3613TIP3    H210783   1.536   1.719   3.849
 3614TIP3   OH210784   6.638   4.637   5.571
 3614TIP3    H110785   6.726   4.600   5.566
 3614TIP3    H210786   6.591   4.581   5.633
 3615TIP3   OH210787   6.447   2.095   3.881
 3615TIP3    H110788   6.526   2.142   3.909
 3615TIP3    H210789   6.458   2.085   3.787
 3616TIP3   OH210790   3.452   7.187   5.577
 3616TIP3    H110791   3.472   7.237   5.657
 3616TIP3    H210792   3.373   7.138   5.598
 3617TIP3   OH210793   1.197   7.074   4.539
 3617TIP3    H110794   1.145   7.155   4.534
 3617TIP3    H210795   1.138   7.011   4.581
 3618TIP3   OH210796   0.738   4.140   0.288
 3618TIP3    H110797   0.669   4.205   0.276
 3618TIP3    H210798   0.739   4.122   0.382
 3619TIP3   OH210799   6.615   2.184   0.679
 3619TIP3    H110800   6.599   2.093   0.701
 3619TIP3    H210801   6.684   2.212   0.739
 3620TIP3   OH210802   0.893   6.092   2.669
 3620TIP3    H110803   0.871   6.143   2.748
 3620TIP3    H210804   0.808   6.068   2.632
 3621TIP3   OH210805   3.401   1.979   5.721
 3621TIP3    H110806   3.371   1.899   5.678
 3621TIP3    H210807   3.340   2.047   5.693
 3622TIP3   OH210808   7.514   2.621   1.787
 3622TIP3    H110809   7.560   2.704   1.798
 3622TIP3    H210810   7.455   2.615   1.862
 3623TIP3   OH210811   0.038   4.226   1.807
 3623TIP3    H110812  -0.054   4.209   1.824
 3623TIP3    H210813   0.085   4.182   1.878
 3624TIP3   OH210814   4.731   7.164   5.088
 3624TIP3    H110815   4.780   7.244   5.071
 3624TIP3    H210816   4.759   7.138   5.176
 3625TIP3   OH210817   6.158   5.676   1.981
 3625TIP3    H110818   6.154   5.743   2.048
 3625TIP3    H210819   6.160   5.724   1.898
 3626TIP3   OH210820   7.907   5.878   1.098
 3626TIP3    H110821   7.822   5.923   1.091
 3626TIP3    H210822   7.906   5.837   1.184
 3627TIP3   OH210823   7.404   0.477   2.098
 3627TIP3    H110824   7.412   0.555   2.153
 3627TIP3    H210825   7.494   0.446   2.087
 3628TIP3   OH210826   2.700   2.058   2.963
 3628TIP3    H110827   2.639   2.013   3.020
 3628TIP3    H210828   2.763   1.991   2.936
 3629TIP3   OH210829   6.547   2.352   1.611
 3629TIP3    H110830   6.515   2.280   1.665
 3629TIP3    H210831   6.531   2.430   1.664
 3630TIP3   OH210832   1.017   6.300   3.924
 3630TIP3    H110833   0.993   6.222   3.874
 3630TIP3    H210834   0.933   6.342   3.943
 3631TIP3   OH210835   2.452   4.925   4.676
 3631TIP3    H110836   2.412   4.996   4.726
 3631TIP3    H210837   2.537   4.961   4.648
 3632TIP3   OH210838   0.971   4.202   2.434
 3632TIP3    H110839   0.933   4.182   2.519
 3632TIP3    H210840   0.980   4.118   2.391
 3633TIP3   OH210841   6.442   3.076   2.163
 3633TIP3    H110842   6.412   2.986   2.152
 3633TIP3    H210843   6.537   3.072   2.152
 3634TIP3   OH210844   7.686   1.347   2.726
 3634TIP3    H110845   7.606   1.398   2.732
 3634TIP3    H210846   7.733   1.384   2.652
 3635TIP3   OH210847   1.149   5.424   0.633
 3635TIP3    H110848   1.058   5.400   0.616
 3635TIP3    H210849   1.197   5.342   0.626
 3636TIP3   OH210850   6.413   3.551   0.772
 3636TIP3    H110851   6.411   3.473   0.717
 3636TIP3    H210852   6.405   3.624   0.710
 3637TIP3   OH210853   6.983   1.702   1.514
 3637TIP3    H110854   7.035   1.781   1.526
 3637TIP3    H210855   6.898   1.723   1.552
 3638TIP3   OH210856   6.538   4.302   5.051
 3638TIP3    H110857   6.479   4.371   5.083
 3638TIP3    H210858   6.480   4.240   5.007
 3639TIP3   OH210859   5.799   3.420   1.841
 3639TIP3    H110860   5.815   3.504   1.799
 3639TIP3    H210861   5.864   3.416   1.912
 3640TIP3   OH210862   7.665   2.313   1.539
 3640TIP3    H110863   7.736   2.267   1.494
 3640TIP3    H210864   7.637   2.252   1.607
 3641TIP3   OH210865   7.090   3.813   3.040
 3641TIP3    H110866   7.086   3.900   3.079
 3641TIP3    H210867   7.001   3.779   3.049
 3642TIP3   OH210868   6.836   0.102   5.542
 3642TIP3    H110869   6.893   0.176   5.521
 3642TIP3    H210870   6.850   0.088   5.636
 3643TIP3   OH210871   2.717   6.964   3.627
 3643TIP3    H110872   2.664   7.039   3.652
 3643TIP3    H210873   2.656   6.903   3.586
 3644TIP3   OH210874   6.992   4.844   2.203
 3644TIP3    H110875   6.948   4.930   2.200
 3644TIP3    H210876   7.082   4.864   2.229
 3645TIP3   OH210877   1.557   6.353   5.669
 3645TIP3    H110878   1.619   6.321   5.604
 3645TIP3    H210879   1.606   6.354   5.751
 3646TIP3   OH210880   6.741   3.746   3.993
 3646TIP3    H110881   6.827   3.706   3.977
 3646TIP3    H210882   6.683   3.673   4.010
 3647TIP3   OH210883   6.344   3.124   5.466
 3647TIP3    H110884   6.425   3.112   5.416
 3647TIP3    H210885   6.282   3.161   5.403
 3648TIP3   OH210886   0.940   1.775   5.349
 3648TIP3    H110887   0.976   1.811   5.431
 3648TIP3    H210888   1.014   1.775   5.289
 3649TIP3   OH210889   6.901   3.276   2.708
 3649TIP3    H110890   6.943   3.295   2.792
 3649TIP3    H210891   6.824   3.334   2.707
 3650TIP3   OH210892   3.548   7.790   4.509
 3650TIP3    H110893   3.479   7.823   4.451
 3650TIP3    H210894   3.562   7.861   4.572
 3651TIP3   OH210895   7.693   1.460   6.328
 3651TIP3    H110896   7.712   1.527   6.394
 3651TIP3    H210897   7.750   1.482   6.255
 3652TIP3   OH210898   5.151   1.204   0.001
 3652TIP3    H110899   5.086   1.170   0.063
 3652TIP3    H210900   5.162   1.134  -0.063
 3653TIP3   OH210901   5.394   6.103   0.956
 3653TIP3    H110902   5.418   6.117   0.864
 3653TIP3    H210903   5.477   6.090   1.001
 3654TIP3   OH210904   6.906   0.508   4.649
 3654TIP3    H110905   6.972   0.447   4.681
 3654TIP3    H210906   6.886   0.564   4.724
 3655TIP3   OH210907   8.285   2.684   1.904
 3655TIP3    H110908   8.250   2.769   1.931
 3655TIP3    H210909   8.287   2.689   1.808
 3656TIP3   OH210910   5.069   2.927   1.328
 3656TIP3    H110911   5.006   2.901   1.261
 3656TIP3    H210912   5.128   2.852   1.337
 3657TIP3   OH210913   4.054   4.090   0.758
 3657TIP3    H110914   4.129   4.044   0.797
 3657TIP3    H210915   3.994   4.104   0.830
 3658TIP3   OH210916   6.615   2.863   2.159
 3658TIP3    H110917   6.670   2.856   2.081
 3658TIP3    H210918   6.526   2.848   2.127
 3659TIP3   OH210919   7.736   5.780   4.677
 3659TIP3    H110920   7.805   5.715   4.686
 3659TIP3    H210921   7.657   5.738   4.711
 3660TIP3   OH210922   1.656   2.382   3.364
 3660TIP3    H110923   1.624   2.300   3.401
 3660TIP3    H210924   1.711   2.356   3.291
 3661TIP3   OH210925   2.772   0.781   0.917
 3661TIP3    H110926   2.777   0.757   0.824
 3661TIP3    H210927   2.801   0.702   0.963
 3662TIP3   OH210928   7.785   6.920   2.092
 3662TIP3    H110929   7.854   6.858   2.118
 3662TIP3    H210930   7.825   6.973   2.023
 3663TIP3   OH210931   5.417   4.319   3.441
 3663TIP3    H110932   5.480   4.389   3.430
 3663TIP3    H210933   5.333   4.363   3.453
 3664TIP3   OH210934   0.715   5.742   0.564
 3664TIP3    H110935   0.642   5.803   0.576
 3664TIP3    H210936   0.783   5.796   0.523
 3665TIP3   OH210937   0.484   4.883   4.122
 3665TIP3    H110938   0.405   4.913   4.167
 3665TIP3    H210939   0.524   4.820   4.181
 3666TIP3   OH210940   5.245   1.254   1.066
 3666TIP3    H110941   5.298   1.217   1.137
 3666TIP3    H210942   5.277   1.209   0.987
 3667TIP3   OH210943   7.458   1.859   0.630
 3667TIP3    H110944   7.415   1.774   0.635
 3667TIP3    H210945   7.552   1.839   0.627
 3668TIP3   OH210946   5.753   4.245   1.680
 3668TIP3    H110947   5.769   4.328   1.724
 3668TIP3    H210948   5.658   4.233   1.685
 3669TIP3   OH210949   0.006   4.217   5.223
 3669TIP3    H110950  -0.019   4.302   5.186
 3669TIP3    H210951  -0.032   4.217   5.311
 3670TIP3   OH210952   0.438   5.266   0.772
 3670TIP3    H110953   0.466   5.175   0.760
 3670TIP3    H210954   0.520   5.315   0.779
 3671TIP3   OH210955   2.048   6.968   0.297
 3671TIP3    H110956   2.034   7.040   0.357
 3671TIP3    H210957   2.016   7.000   0.212
 3672TIP3   OH210958   3.012   1.475   2.633
 3672TIP3    H110959   3.094   1.467   2.682
 3672TIP3    H210960   2.970   1.390   2.642
 3673TIP3   OH210961   2.768   3.704   2.919
 3673TIP3    H110962   2.838   3.640   2.927
 3673TIP3    H210963   2.749   3.708   2.825
 3674TIP3   OH210964   7.450   5.139   5.610
 3674TIP3    H110965   7.419   5.192   5.684
 3674TIP3    H210966   7.371   5.111   5.565
 3675TIP3   OH210967   5.204   4.045   4.080
 3675TIP3    H110968   5.292   4.068   4.049
 3675TIP3    H210969   5.208   3.951   4.093
 3676TIP3   OH210970   5.778   1.673   3.484
 3676TIP3    H110971   5.819   1.706   3.564
 3676TIP3    H210972   5.784   1.578   3.491
 3677TIP3   OH210973   7.253   3.864   1.759
 3677TIP3    H110974   7.174   3.828   1.718
 3677TIP3    H210975   7.290   3.791   1.808
 3678TIP3   OH210976   4.162   0.539   1.092
 3678TIP3    H110977   4.203   0.597   1.027
 3678TIP3    H210978   4.199   0.568   1.175
 3679TIP3   OH210979   4.020   2.885   0.607
 3679TIP3    H110980   4.067   2.945   0.550
 3679TIP3    H210981   3.928   2.907   0.594
 3680TIP3   OH210982   0.396   5.124   2.518
 3680TIP3    H110983   0.453   5.138   2.594
 3680TIP3    H210984   0.307   5.135   2.551
 3681TIP3   OH210985   6.586   0.456   1.611
 3681TIP3    H110986   6.634   0.534   1.582
 3681TIP3    H210987   6.515   0.447   1.548
 3682TIP3   OH210988   6.260   7.473   6.587
 3682TIP3    H110989   6.325   7.403   6.580
 3682TIP3    H210990   6.271   7.507   6.676
 3683TIP3   OH210991   7.110   1.859   4.443
 3683TIP3    H110992   7.056   1.790   4.482
 3683TIP3    H210993   7.092   1.937   4.497
 3684TIP3   OH210994   0.659   6.171   5.589
 3684TIP3    H110995   0.699   6.116   5.656
 3684TIP3    H210996   0.640   6.253   5.634
 3685TIP3   OH210997   7.853   7.196   6.309
 3685TIP3    H110998   7.931   7.248   6.329
 3685TIP3    H210999   7.882   7.105   6.319
 3686TIP3   OH211000   5.326   3.239   2.348
 3686TIP3    H111001   5.324   3.144   2.354
 3686TIP3    H211002   5.271   3.259   2.271
 3687TIP3   OH211003   2.323   5.655   0.447
 3687TIP3    H111004   2.363   5.675   0.532
 3687TIP3    H211005   2.231   5.640   0.468
 3688TIP3   OH211006   5.195   2.783   6.164
 3688TIP3    H111007   5.146   2.742   6.093
 3688TIP3    H211008   5.229   2.709   6.214
 3689TIP3   OH211009   5.460   6.338   2.770
 3689TIP3    H111010   5.501   6.261   2.731
 3689TIP3    H211011   5.385   6.303   2.819
 3690TIP3   OH211012   7.279   6.324   1.582
 3690TIP3    H111013   7.256   6.235   1.555
 3690TIP3    H211014   7.371   6.318   1.610
 3691TIP3   OH211015   3.541   2.117   1.080
 3691TIP3    H111016   3.576   2.121   0.991
 3691TIP3    H211017   3.612   2.149   1.135
 3692TIP3   OH211018   2.568   0.414   2.968
 3692TIP3    H111019   2.524   0.448   2.890
 3692TIP3    H211020   2.497   0.399   3.030
 3693TIP3   OH211021   2.846   3.765   3.272
 3693TIP3    H111022   2.913   3.771   3.204
 3693TIP3    H211023   2.893   3.789   3.353
 3694TIP3   OH211024   2.820   4.790   0.600
 3694TIP3    H111025   2.812   4.716   0.539
 3694TIP3    H211026   2.800   4.753   0.686
 3695TIP3   OH211027   0.903   4.627   2.849
 3695TIP3    H111028   0.889   4.709   2.802
 3695TIP3    H211029   0.879   4.647   2.940
 3696TIP3   OH211030   7.465   4.501   1.314
 3696TIP3    H111031   7.459   4.426   1.374
 3696TIP3    H211032   7.494   4.573   1.368
 3697TIP3   OH211033   6.460   3.209   6.565
 3697TIP3    H111034   6.480   3.301   6.581
 3697TIP3    H211035   6.545   3.167   6.550
 3698TIP3   OH211036   4.878   4.565   0.415
 3698TIP3    H111037   4.799   4.557   0.361
 3698TIP3    H211038   4.939   4.615   0.361
 3699TIP3   OH211039   3.503   3.648   0.079
 3699TIP3    H111040   3.463   3.633   0.165
 3699TIP3    H211041   3.488   3.741   0.061
 3700TIP3   OH211042   1.252   1.226   3.464
 3700TIP3    H111043   1.217   1.142   3.496
 3700TIP3    H211044   1.275   1.208   3.373
 3701TIP3   OH211045   7.048   3.652   1.419
 3701TIP3    H111046   7.044   3.731   1.366
 3701TIP3    H211047   7.139   3.622   1.412
 3702TIP3   OH211048   6.290   3.521   2.415
 3702TIP3    H111049   6.312   3.444   2.363
 3702TIP3    H211050   6.220   3.491   2.474
 3703TIP3   OH211051   6.211   2.797   2.497
 3703TIP3    H111052   6.130   2.842   2.520
 3703TIP3    H211053   6.205   2.713   2.542
 3704TIP3   OH211054   0.913   7.554   6.016
 3704TIP3    H111055   0.914   7.643   6.049
 3704TIP3    H211056   0.860   7.506   6.080
 3705TIP3   OH211057   5.879   5.583   3.588
 3705TIP3    H111058   5.904   5.578   3.496
 3705TIP3    H211059   5.889   5.493   3.620
 3706TIP3   OH211060   7.973   3.094   5.960
 3706TIP3    H111061   8.054   3.139   5.986
 3706TIP3    H211062   8.001   3.004   5.942
 3707TIP3   OH211063   0.719   4.226   5.215
 3707TIP3    H111064   0.749   4.270   5.135
 3707TIP3    H211065   0.752   4.137   5.207
 3708TIP3   OH211066   4.619   3.354   0.387
 3708TIP3    H111067   4.694   3.378   0.332
 3708TIP3    H211068   4.643   3.384   0.475
 3709TIP3   OH211069   6.703   2.843   4.080
 3709TIP3    H111070   6.614   2.809   4.082
 3709TIP3    H211071   6.753   2.784   4.136
 3710TIP3   OH211072   7.951   5.267   4.180
 3710TIP3    H111073   8.009   5.236   4.110
 3710TIP3    H211074   7.951   5.196   4.244
 3711TIP3   OH211075   2.006   2.812   5.677
 3711TIP3    H111076   1.951   2.805   5.755
 3711TIP3    H211077   2.031   2.722   5.657
 3712TIP3   OH211078   5.095   1.475   3.632
 3712TIP3    H111079   5.172   1.532   3.633
 3712TIP3    H211080   5.024   1.530   3.668
 3713TIP3   OH211081   5.781   1.656   1.874
 3713TIP3    H111082   5.733   1.587   1.919
 3713TIP3    H211083   5.870   1.650   1.909
 3714TIP3   OH211084   8.240   5.828   5.682
 3714TIP3    H111085   8.199   5.911   5.658
 3714TIP3    H211086   8.171   5.779   5.726
 3715TIP3   OH211087   5.086   4.286   5.636
 3715TIP3    H111088   5.118   4.262   5.549
 3715TIP3    H211089   5.126   4.222   5.695
 3716TIP3   OH211090   3.982   6.632   3.072
 3716TIP3    H111091   3.900   6.623   3.024
 3716TIP3    H211092   4.007   6.542   3.094
 3717TIP3   OH211093   0.967   3.477   5.532
 3717TIP3    H111094   0.984   3.468   5.626
 3717TIP3    H211095   0.937   3.568   5.522
 3718TIP3   OH211096   4.863   5.578   0.319
 3718TIP3    H111097   4.820   5.663   0.332
 3718TIP3    H211098   4.792   5.520   0.292
 3719TIP3   OH211099   6.196   0.870   5.173
 3719TIP3    H111100   6.199   0.776   5.157
 3719TIP3    H211101   6.153   0.906   5.096
 3720TIP3   OH211102   1.201   2.808   0.466
 3720TIP3    H111103   1.264   2.774   0.402
 3720TIP3    H211104   1.125   2.833   0.413
 3721TIP3   OH211105   2.283   0.219   0.833
 3721TIP3    H111106   2.278   0.303   0.879
 3721TIP3    H211107   2.194   0.202   0.804
 3722TIP3   OH211108   7.093   2.092   3.206
 3722TIP3    H111109   7.140   2.161   3.159
 3722TIP3    H211110   7.064   2.134   3.287
 3723TIP3   OH211111   1.414   0.774   5.174
 3723TIP3    H111112   1.386   0.701   5.230
 3723TIP3    H211113   1.446   0.732   5.094
 3724TIP3   OH211114   6.303   6.096   2.860
 3724TIP3    H111115   6.366   6.038   2.817
 3724TIP3    H211116   6.352   6.176   2.877
 3725TIP3   OH211117   2.066   2.868   0.960
 3725TIP3    H111118   2.110   2.814   1.026
 3725TIP3    H211119   2.136   2.894   0.899
 3726TIP3   OH211120   2.282   1.245   1.962
 3726TIP3    H111121   2.367   1.205   1.945
 3726TIP3    H211122   2.250   1.200   2.040
 3727TIP3   OH211123   6.419   5.772   3.025
 3727TIP3    H111124   6.512   5.789   3.008
 3727TIP3    H211125   6.417   5.687   3.069
 3728TIP3   OH211126   2.845   0.103   4.334
 3728TIP3    H111127   2.883   0.016   4.321
 3728TIP3    H211128   2.750   0.088   4.333
 3729TIP3   OH211129   0.384   1.041   3.658
 3729TIP3    H111130   0.350   1.033   3.569
 3729TIP3    H211131   0.317   1.089   3.705
 3730TIP3   OH211132   3.233   2.038   4.170
 3730TIP3    H111133   3.209   2.105   4.106
 3730TIP3    H211134   3.225   2.082   4.255
 3731TIP3   OH211135   7.717   3.868   4.401
 3731TIP3    H111136   7.774   3.890   4.475
 3731TIP3    H211137   7.778   3.847   4.329
 3732TIP3   OH211138   2.812   5.507   0.344
 3732TIP3    H111139   2.897   5.487   0.304
 3732TIP3    H211140   2.768   5.422   0.349
 3733TIP3   OH211141   3.458   4.288   4.993
 3733TIP3    H111142   3.394   4.331   5.050
 3733TIP3    H211143   3.526   4.354   4.979
 3734TIP3   OH211144   2.334   1.329   1.523
 3734TIP3    H111145   2.359   1.358   1.435
 3734TIP3    H211146   2.416   1.308   1.566
 3735TIP3   OH211147   6.144   5.855   0.862
 3735TIP3    H111148   6.214   5.859   0.798
 3735TIP3    H211149   6.149   5.938   0.910
 3736TIP3   OH211150   3.438   3.861   2.345
 3736TIP3    H111151   3.494   3.860   2.268
 3736TIP3    H211152   3.486   3.810   2.410
 3737TIP3   OH211153   4.686   5.789   3.737
 3737TIP3    H111154   4.628   5.829   3.672
 3737TIP3    H211155   4.724   5.714   3.692
 3738TIP3   OH211156   7.687   4.617   6.056
 3738TIP3    H111157   7.769   4.601   6.104
 3738TIP3    H211158   7.619   4.613   6.123
 3739TIP3   OH211159   2.989   1.771   4.882
 3739TIP3    H111160   3.030   1.684   4.876
 3739TIP3    H211161   3.061   1.832   4.869
 3740TIP3   OH211162   0.041   6.588   2.875
 3740TIP3    H111163  -0.055   6.594   2.880
 3740TIP3    H211164   0.067   6.669   2.830
 3741TIP3   OH211165   5.871   2.332   2.782
 3741TIP3    H111166   5.843   2.244   2.806
 3741TIP3    H211167   5.941   2.352   2.844
 3742TIP3   OH211168   3.009   5.654   3.087
 3742TIP3    H111169   2.945   5.592   3.123
 3742TIP3    H211170   2.992   5.654   2.993
 3743TIP3   OH211171   5.066   2.477   2.944
 3743TIP3    H111172   4.977   2.508   2.965
 3743TIP3    H211173   5.066   2.384   2.968
 3744TIP3   OH211174   7.845   2.919   1.104
 3744TIP3    H111175   7.805   2.843   1.063
 3744TIP3    H211176   7.932   2.925   1.065
 3745TIP3   OH211177   2.509   7.268   1.013
 3745TIP3    H111178   2.431   7.279   0.959
 3745TIP3    H211179   2.476   7.237   1.097
 3746TIP3   OH211180   5.349   0.002   6.527
 3746TIP3    H111181   5.374  -0.012   6.436
 3746TIP3    H211182   5.351   0.097   6.538
 3747TIP3   OH211183   7.167   3.502   5.491
 3747TIP3    H111184   7.193   3.538   5.576
 3747TIP3    H211185   7.196   3.411   5.493
 3748TIP3   OH211186   6.883   7.526   6.288
 3748TIP3    H111187   6.863   7.435   6.312
 3748TIP3    H211188   6.911   7.521   6.197
 3749TIP3   OH211189   8.033   2.178   1.183
 3749TIP3    H111190   8.028   2.246   1.116
 3749TIP3    H211191   8.052   2.226   1.264
 3750TIP3   OH211192   4.788   5.510   6.303
 3750TIP3    H111193   4.724   5.482   6.368
 3750TIP3    H211194   4.873   5.499   6.347
 3751TIP3   OH211195   6.756   4.671   3.159
 3751TIP3    H111196   6.686   4.631   3.210
 3751TIP3    H211197   6.763   4.616   3.081
 3752TIP3   OH211198   0.301   2.495   4.856
 3752TIP3    H111199   0.292   2.560   4.786
 3752TIP3    H211200   0.394   2.496   4.879
 3753TIP3   OH211201   4.259   5.621   2.177
 3753TIP3    H111202   4.238   5.624   2.083
 3753TIP3    H211203   4.334   5.680   2.186
 3754TIP3   OH211204   5.834   5.577   5.167
 3754TIP3    H111205   5.812   5.648   5.105
 3754TIP3    H211206   5.808   5.497   5.121
 3755TIP3   OH211207   8.238   1.269   4.375
 3755TIP3    H111208   8.242   1.350   4.324
 3755TIP3    H211209   8.317   1.221   4.350
 3756TIP3   OH211210   0.686   6.407   4.421
 3756TIP3    H111211   0.631   6.348   4.369
 3756TIP3    H211212   0.770   6.406   4.375
 3757TIP3   OH211213   0.495   6.548   0.493
 3757TIP3    H111214   0.444   6.573   0.570
 3757TIP3    H211215   0.477   6.455   0.481
 3758TIP3   OH211216   2.820   4.694   5.089
 3758TIP3    H111217   2.885   4.626   5.068
 3758TIP3    H211218   2.737   4.647   5.095
 3759TIP3   OH211219   7.570   5.718   3.967
 3759TIP3    H111220   7.475   5.732   3.967
 3759TIP3    H211221   7.588   5.681   4.053
 3760TIP3   OH211222   7.282   2.449   2.526
 3760TIP3    H111223   7.334   2.497   2.461
 3760TIP3    H211224   7.191   2.472   2.506
 3761TIP3   OH211225   1.468   5.288   5.320
 3761TIP3    H111226   1.530   5.310   5.250
 3761TIP3    H211227   1.471   5.193   5.325
 3762TIP3   OH211228   2.416   7.611   6.485
 3762TIP3    H111229   2.486   7.677   6.488
 3762TIP3    H211230   2.384   7.615   6.395
 3763TIP3   OH211231   4.895   6.408   0.763
 3763TIP3    H111232   4.900   6.323   0.719
 3763TIP3    H211233   4.847   6.389   0.844
 3764TIP3   OH211234   2.906   0.004   2.075
 3764TIP3    H111235   2.864  -0.082   2.085
 3764TIP3    H211236   2.840   0.058   2.031
 3765TIP3   OH211237   0.578   5.155   4.322
 3765TIP3    H111238   0.637   5.163   4.247
 3765TIP3    H211239   0.581   5.062   4.345
 3766TIP3   OH211240   1.663   6.431   6.616
 3766TIP3    H111241   1.624   6.371   6.553
 3766TIP3    H211242   1.688   6.375   6.690
 3767TIP3   OH211243   7.907   3.375   0.149
 3767TIP3    H111244   7.948   3.440   0.091
 3767TIP3    H211245   7.823   3.356   0.107
 3768TIP3   OH211246   7.479   2.078   5.165
 3768TIP3    H111247   7.463   1.984   5.166
 3768TIP3    H211248   7.522   2.095   5.081
 3769TIP3   OH211249   4.603   0.692   0.408
 3769TIP3    H111250   4.656   0.743   0.347
 3769TIP3    H211251   4.657   0.615   0.428
 3770TIP3   OH211252   0.131   6.806   0.224
 3770TIP3    H111253   0.060   6.749   0.196
 3770TIP3    H211254   0.168   6.762   0.301
 3771TIP3   OH211255   7.976   5.010   2.026
 3771TIP3    H111256   8.020   5.057   2.097
 3771TIP3    H211257   7.931   5.079   1.977
 3772TIP3   OH211258   3.385   2.935   5.214
 3772TIP3    H111259   3.377   2.913   5.307
 3772TIP3    H211260   3.475   2.966   5.205
 3773TIP3   OH211261   1.505   4.718   6.150
 3773TIP3    H111262   1.437   4.724   6.217
 3773TIP3    H211263   1.541   4.807   6.144
 3774TIP3   OH211264   1.757   1.660   1.704
 3774TIP3    H111265   1.687   1.639   1.642
 3774TIP3    H211266   1.735   1.746   1.738
 3775TIP3   OH211267   7.704   0.189   4.236
 3775TIP3    H111268   7.682   0.205   4.144
 3775TIP3    H211269   7.646   0.249   4.285
 3776TIP3   OH211270   4.600   0.424   0.241
 3776TIP3    H111271   4.689   0.452   0.261
 3776TIP3    H211272   4.578   0.471   0.160
 3777TIP3   OH211273   4.872   3.444   2.211
 3777TIP3    H111274   4.883   3.537   2.233
 3777TIP3    H211275   4.777   3.431   2.206
 3778TIP3   OH211276   0.143   2.622   6.591
 3778TIP3    H111277   0.219   2.665   6.551
 3778TIP3    H211278   0.094   2.693   6.631
 3779TIP3   OH211279   1.185   7.002   6.749
 3779TIP3    H111280   1.176   6.947   6.672
 3779TIP3    H211281   1.266   7.050   6.735
 3780TIP3   OH211282   4.652   1.762   6.762
 3780TIP3    H111283   4.622   1.761   6.671
 3780TIP3    H211284   4.624   1.677   6.797
 3781TIP3   OH211285   6.467   7.637   5.841
 3781TIP3    H111286   6.479   7.557   5.790
 3781TIP3    H211287   6.528   7.627   5.915
 3782TIP3   OH211288   4.537   1.150   4.198
 3782TIP3    H111289   4.462   1.199   4.164
 3782TIP3    H211290   4.502   1.061   4.214
 3783TIP3   OH211291   2.314   3.453   4.352
 3783TIP3    H111292   2.372   3.391   4.308
 3783TIP3    H211293   2.238   3.460   4.295
 3784TIP3   OH211294   5.825   4.414   6.724
 3784TIP3    H111295   5.914   4.425   6.758
 3784TIP3    H211296   5.815   4.319   6.713
 3785TIP3   OH211297   4.594   1.785   1.599
 3785TIP3    H111298   4.682   1.751   1.617
 3785TIP3    H211299   4.578   1.847   1.670
 3786TIP3   OH211300   1.960   2.217   4.781
 3786TIP3    H111301   2.037   2.217   4.724
 3786TIP3    H211302   1.990   2.178   4.863
 3787TIP3   OH211303   1.896   3.069   0.186
 3787TIP3    H111304   1.894   3.066   0.282
 3787TIP3    H211305   1.989   3.065   0.164
 3788TIP3   OH211306   4.538   0.212   6.283
 3788TIP3    H111307   4.514   0.123   6.258
 3788TIP3    H211308   4.492   0.228   6.366
 3789TIP3   OH211309   2.701   3.046   2.963
 3789TIP3    H111310   2.782   3.032   3.012
 3789TIP3    H211311   2.662   2.959   2.956
 3790TIP3   OH211312   1.977   7.436   5.947
 3790TIP3    H111313   1.995   7.530   5.948
 3790TIP3    H211314   1.888   7.428   5.982
 3791TIP3   OH211315   4.185   1.870   0.843
 3791TIP3    H111316   4.160   1.777   0.844
 3791TIP3    H211317   4.105   1.916   0.819
 3792TIP3   OH211318   3.640   5.129   3.571
 3792TIP3    H111319   3.598   5.154   3.489
 3792TIP3    H211320   3.589   5.174   3.638
 3793TIP3   OH211321   0.518   1.703   2.112
 3793TIP3    H111322   0.434   1.731   2.076
 3793TIP3    H211323   0.560   1.656   2.041
 3794TIP3   OH211324   2.888   4.997   0.377
 3794TIP3    H111325   2.862   4.974   0.466
 3794TIP3    H211326   2.966   5.051   0.387
 3795TIP3   OH211327   4.757   1.770   3.732
 3795TIP3    H111328   4.790   1.731   3.652
 3795TIP3    H211329   4.761   1.865   3.716
 3796TIP3   OH211330   5.516   5.337   2.001
 3796TIP3    H111331   5.568   5.369   2.075
 3796TIP3    H211332   5.552   5.384   1.925
 3797TIP3   OH211333   0.807   1.862   6.218
 3797TIP3    H111334   0.899   1.857   6.246
 3797TIP3    H211335   0.798   1.951   6.184
 3798TIP3   OH211336   2.441   5.453   1.238
 3798TIP3    H111337   2.411   5.464   1.328
 3798TIP3    H211338   2.531   5.423   1.246
 3799TIP3   OH211339   4.524   3.252   2.468
 3799TIP3    H111340   4.454   3.275   2.408
 3799TIP3    H211341   4.479   3.215   2.544
 3800TIP3   OH211342   4.206   4.854   1.961
 3800TIP3    H111343   4.217   4.782   1.899
 3800TIP3    H211344   4.117   4.843   1.995
 3801TIP3   OH211345   1.544   1.691   1.901
 3801TIP3    H111346   1.531   1.686   1.807
 3801TIP3    H211347   1.536   1.601   1.931
 3802TIP3   OH211348   1.751   6.248   0.829
 3802TIP3    H111349   1.799   6.331   0.821
 3802TIP3    H211350   1.696   6.260   0.906
 3803TIP3   OH211351   3.178   5.007   1.180
 3803TIP3    H111352   3.091   5.039   1.157
 3803TIP3    H211353   3.172   4.988   1.274
 3804TIP3   OH211354   4.339   7.080   2.099
 3804TIP3    H111355   4.350   6.985   2.098
 3804TIP3    H211356   4.380   7.110   2.018
 3805TIP3   OH211357   5.777   1.811   5.051
 3805TIP3    H111358   5.689   1.817   5.013
 3805TIP3    H211359   5.833   1.789   4.977
 3806TIP3   OH211360   0.198   5.674   6.717
 3806TIP3    H111361   0.127   5.651   6.658
 3806TIP3    H211362   0.169   5.641   6.803
 3807TIP3   OH211363   6.800   7.055   5.380
 3807TIP3    H111364   6.857   6.983   5.352
 3807TIP3    H211365   6.747   7.018   5.450
 3808TIP3   OH211366   4.725   6.685   4.440
 3808TIP3    H111367   4.782   6.608   4.452
 3808TIP3    H211368   4.781   6.759   4.462
 3809TIP3   OH211369   3.527   1.571   2.088
 3809TIP3    H111370   3.510   1.525   2.006
 3809TIP3    H211371   3.546   1.661   2.061
 3810TIP3   OH211372   4.301   3.581   3.237
 3810TIP3    H111373   4.380   3.620   3.200
 3810TIP3    H211374   4.237   3.652   3.238
 3811TIP3   OH211375   1.260   2.768   2.794
 3811TIP3    H111376   1.294   2.697   2.849
 3811TIP3    H211377   1.191   2.807   2.848
 3812TIP3   OH211378   5.891   5.434   0.982
 3812TIP3    H111379   5.870   5.372   1.052
 3812TIP3    H211380   5.841   5.513   1.003
 3813TIP3   OH211381   1.474   6.922   0.155
 3813TIP3    H111382   1.545   6.874   0.197
 3813TIP3    H211383   1.395   6.878   0.184
 3814TIP3   OH211384   7.953   2.516   4.456
 3814TIP3    H111385   8.018   2.462   4.411
 3814TIP3    H211386   7.896   2.548   4.387
 3815TIP3   OH211387   7.487   6.752   5.453
 3815TIP3    H111388   7.500   6.689   5.382
 3815TIP3    H211389   7.556   6.817   5.440
 3816TIP3   OH211390   2.390   0.491   0.492
 3816TIP3    H111391   2.436   0.450   0.419
 3816TIP3    H211392   2.331   0.554   0.450
 3817TIP3   OH211393   4.311   5.098   4.722
 3817TIP3    H111394   4.322   5.173   4.664
 3817TIP3    H211395   4.351   5.126   4.805
 3818TIP3   OH211396   1.180   0.562   0.713
 3818TIP3    H111397   1.103   0.535   0.763
 3818TIP3    H211398   1.147   0.627   0.651
 3819TIP3   OH211399   6.453   6.754   3.585
 3819TIP3    H111400   6.496   6.694   3.525
 3819TIP3    H211401   6.507   6.833   3.584
 3820TIP3   OH211402   7.076   2.467   5.231
 3820TIP3    H111403   7.110   2.392   5.183
 3820TIP3    H211404   7.077   2.439   5.323
 3821TIP3   OH211405   1.416   3.663   0.301
 3821TIP3    H111406   1.493   3.691   0.350
 3821TIP3    H211407   1.451   3.628   0.219
 3822TIP3   OH211408   4.946   1.505   4.277
 3822TIP3    H111409   4.959   1.476   4.187
 3822TIP3    H211410   4.903   1.431   4.320
 3823TIP3   OH211411   4.879   0.280   5.549
 3823TIP3    H111412   4.850   0.192   5.574
 3823TIP3    H211413   4.824   0.303   5.475
 3824TIP3   OH211414   7.890   2.779   3.563
 3824TIP3    H111415   7.885   2.716   3.492
 3824TIP3    H211416   7.970   2.829   3.546
 3825TIP3   OH211417   2.188   0.520   2.136
 3825TIP3    H111418   2.230   0.544   2.054
 3825TIP3    H211419   2.243   0.559   2.204
 3826TIP3   OH211420   7.400   3.400   3.366
 3826TIP3    H111421   7.421   3.342   3.440
 3826TIP3    H211422   7.327   3.453   3.397
 3827TIP3   OH211423   5.922   0.310   3.401
 3827TIP3    H111424   5.909   0.343   3.312
 3827TIP3    H211425   5.867   0.366   3.455
 3828TIP3   OH211426   1.122   4.903   6.706
 3828TIP3    H111427   1.084   4.900   6.618
 3828TIP3    H211428   1.047   4.911   6.764
 3829TIP3   OH211429   4.132   0.731   2.928
 3829TIP3    H111430   4.087   0.670   2.871
 3829TIP3    H211431   4.143   0.810   2.875
 3830TIP3   OH211432   8.146   6.694   5.716
 3830TIP3    H111433   8.070   6.635   5.710
 3830TIP3    H211434   8.221   6.636   5.702
 3831TIP3   OH211435   7.207   4.178   6.715
 3831TIP3    H111436   7.194   4.269   6.689
 3831TIP3    H211437   7.265   4.142   6.648
 3832TIP3   OH211438   5.969   1.304   1.023
 3832TIP3    H111439   5.999   1.358   1.096
 3832TIP3    H211440   6.015   1.221   1.035
 3833TIP3   OH211441   5.310   1.823   3.045
 3833TIP3    H111442   5.266   1.786   3.121
 3833TIP3    H211443   5.403   1.800   3.057
 3834TIP3   OH211444   7.058   5.099   0.549
 3834TIP3    H111445   7.070   5.129   0.458
 3834TIP3    H211446   7.004   5.167   0.589
 3835TIP3   OH211447   2.985   1.363   3.812
 3835TIP3    H111448   2.999   1.270   3.826
 3835TIP3    H211449   2.971   1.399   3.900
 3836TIP3   OH211450   3.923   4.650   2.386
 3836TIP3    H111451   3.973   4.576   2.352
 3836TIP3    H211452   3.987   4.703   2.433
 3837TIP3   OH211453   0.401   3.592   3.745
 3837TIP3    H111454   0.438   3.679   3.732
 3837TIP3    H211455   0.350   3.598   3.825
 3838TIP3   OH211456   4.247   4.652   3.812
 3838TIP3    H111457   4.252   4.575   3.755
 3838TIP3    H211458   4.153   4.666   3.824
 3839TIP3   OH211459   5.617   7.748   4.519
 3839TIP3    H111460   5.689   7.731   4.457
 3839TIP3    H211461   5.660   7.760   4.603
 3840TIP3   OH211462   6.611   1.712   5.797
 3840TIP3    H111463   6.578   1.793   5.835
 3840TIP3    H211464   6.532   1.661   5.778
 3841TIP3   OH211465   1.288   2.789   5.341
 3841TIP3    H111466   1.228   2.729   5.383
 3841TIP3    H211467   1.352   2.812   5.408
 3842TIP3   OH211468   6.969   4.546   1.730
 3842TIP3    H111469   7.050   4.537   1.681
 3842TIP3    H211470   6.902   4.507   1.674
 3843TIP3   OH211471   4.918   1.095   1.503
 3843TIP3    H111472   4.867   1.055   1.433
 3843TIP3    H211473   4.862   1.166   1.535
 3844TIP3   OH211474   7.703   7.443   2.395
 3844TIP3    H111475   7.690   7.406   2.308
 3844TIP3    H211476   7.762   7.382   2.439
 3845TIP3   OH211477   5.944   5.506   2.261
 3845TIP3    H111478   6.015   5.453   2.225
 3845TIP3    H211479   5.942   5.484   2.354
 3846TIP3   OH211480   6.829   5.177   1.599
 3846TIP3    H111481   6.880   5.256   1.615
 3846TIP3    H211482   6.779   5.196   1.520
 3847TIP3   OH211483   7.951   4.646   1.390
 3847TIP3    H111484   7.967   4.695   1.471
 3847TIP3    H211485   8.023   4.584   1.385
 3848TIP3   OH211486   2.927   1.074   0.589
 3848TIP3    H111487   2.876   1.098   0.511
 3848TIP3    H211488   2.983   1.002   0.559
 3849TIP3   OH211489   6.621   0.273   4.380
 3849TIP3    H111490   6.531   0.289   4.353
 3849TIP3    H211491   6.672   0.278   4.299
 3850TIP3   OH211492   7.175   3.878   5.481
 3850TIP3    H111493   7.170   3.828   5.562
 3850TIP3    H211494   7.173   3.812   5.412
 3851TIP3   OH211495   3.295   1.108   2.661
 3851TIP3    H111496   3.381   1.130   2.626
 3851TIP3    H211497   3.280   1.173   2.730
 3852TIP3   OH211498   3.791   2.472   2.240
 3852TIP3    H111499   3.854   2.425   2.185
 3852TIP3    H211500   3.753   2.404   2.295
 3853TIP3   OH211501   0.215   7.274   3.418
 3853TIP3    H111502   0.209   7.286   3.323
 3853TIP3    H211503   0.276   7.342   3.446
 3854TIP3   OH211504   0.745   4.947   6.648
 3854TIP3    H111505   0.792   4.930   6.729
 3854TIP3    H211506   0.690   4.870   6.635
 3855TIP3   OH211507   7.993   1.186   0.576
 3855TIP3    H111508   8.085   1.212   0.570
 3855TIP3    H211509   7.947   1.266   0.601
 3856TIP3   OH211510   1.383   0.521   4.396
 3856TIP3    H111511   1.351   0.496   4.309
 3856TIP3    H211512   1.369   0.616   4.400
 3857TIP3   OH211513   4.984   2.349   5.730
 3857TIP3    H111514   4.896   2.368   5.765
 3857TIP3    H211515   4.988   2.254   5.726
 3858TIP3   OH211516   6.605   6.650   4.633
 3858TIP3    H111517   6.638   6.734   4.665
 3858TIP3    H211518   6.662   6.628   4.559
 3859TIP3   OH211519   1.997   3.452   3.322
 3859TIP3    H111520   2.057   3.414   3.386
 3859TIP3    H211521   1.995   3.389   3.250
 3860TIP3   OH211522   7.039   0.332   4.818
 3860TIP3    H111523   7.043   0.346   4.913
 3860TIP3    H211524   7.131   0.330   4.790
 3861TIP3   OH211525   6.173   3.831   2.005
 3861TIP3    H111526   6.079   3.841   2.020
 3861TIP3    H211527   6.210   3.820   2.093
 3862TIP3   OH211528   6.790   1.425   5.644
 3862TIP3    H111529   6.704   1.395   5.618
 3862TIP3    H211530   6.794   1.408   5.739
 3863TIP3   OH211531   2.511   6.358   5.716
 3863TIP3    H111532   2.490   6.433   5.771
 3863TIP3    H211533   2.478   6.283   5.764
 3864TIP3   OH211534   0.977   0.335   4.546
 3864TIP3    H111535   1.028   0.288   4.480
 3864TIP3    H211536   1.009   0.302   4.630
 3865TIP3   OH211537   3.042   4.121   3.718
 3865TIP3    H111538   3.049   4.205   3.673
 3865TIP3    H211539   2.949   4.100   3.716
 3866TIP3   OH211540   4.027   3.231   5.634
 3866TIP3    H111541   4.056   3.262   5.548
 3866TIP3    H211542   4.024   3.310   5.688
 3867TIP3   OH211543   4.149   1.537   0.412
 3867TIP3    H111544   4.120   1.531   0.503
 3867TIP3    H211545   4.200   1.457   0.398
 3868TIP3   OH211546   0.263   1.755   6.630
 3868TIP3    H111547   0.171   1.778   6.621
 3868TIP3    H211548   0.281   1.696   6.557
 3869TIP3   OH211549   7.878   3.865   6.737
 3869TIP3    H111550   7.945   3.896   6.798
 3869TIP3    H211551   7.830   3.799   6.787
 3870TIP3   OH211552   3.079   0.380   6.350
 3870TIP3    H111553   3.012   0.423   6.298
 3870TIP3    H211554   3.032   0.314   6.401
 3871TIP3   OH211555   3.489   1.672   4.594
 3871TIP3    H111556   3.502   1.584   4.629
 3871TIP3    H211557   3.545   1.728   4.647
 3872TIP3   OH211558   0.163   3.442   5.855
 3872TIP3    H111559   0.229   3.373   5.867
 3872TIP3    H211560   0.182   3.505   5.924
 3873TIP3   OH211561   0.158   1.834   6.338
 3873TIP3    H111562   0.204   1.914   6.314
 3873TIP3    H211563   0.101   1.815   6.263
 3874TIP3   OH211564   4.955   4.738   6.745
 3874TIP3    H111565   4.911   4.653   6.742
 3874TIP3    H211566   4.905   4.788   6.811
 3875TIP3   OH211567   3.727   1.897   2.712
 3875TIP3    H111568   3.812   1.855   2.712
 3875TIP3    H211569   3.674   1.845   2.652
 3876TIP3   OH211570   4.248   2.936   1.109
 3876TIP3    H111571   4.175   2.895   1.156
 3876TIP3    H211572   4.279   3.004   1.167
 3877TIP3   OH211573   4.433   3.107   3.665
 3877TIP3    H111574   4.459   3.021   3.631
 3877TIP3    H211575   4.512   3.141   3.707
 3878TIP3   OH211576   1.600   1.958   6.444
 3878TIP3    H111577   1.671   1.995   6.497
 3878TIP3    H211578   1.556   2.035   6.407
 3879TIP3   OH211579   4.248   5.616   3.097
 3879TIP3    H111580   4.250   5.655   3.184
 3879TIP3    H211581   4.284   5.528   3.108
 3880TIP3   OH211582   5.707   0.423   2.945
 3880TIP3    H111583   5.645   0.355   2.970
 3880TIP3    H211584   5.751   0.389   2.867
 3881TIP3   OH211585   0.373   4.361   1.088
 3881TIP3    H111586   0.305   4.303   1.055
 3881TIP3    H211587   0.345   4.449   1.061
 3882TIP3   OH211588   1.858   2.383   1.481
 3882TIP3    H111589   1.945   2.415   1.457
 3882TIP3    H211590   1.873   2.297   1.520
 3883TIP3   OH211591   0.314   1.871   3.986
 3883TIP3    H111592   0.372   1.855   3.912
 3883TIP3    H211593   0.249   1.933   3.951
 3884TIP3   OH211594   6.593   7.328   3.108
 3884TIP3    H111595   6.577   7.317   3.015
 3884TIP3    H211596   6.689   7.329   3.116
 3885TIP3   OH211597   3.829   1.145   4.928
 3885TIP3    H111598   3.906   1.089   4.937
 3885TIP3    H211599   3.845   1.194   4.847
 3886TIP3   OH211600   0.426   4.315   1.775
 3886TIP3    H111601   0.391   4.248   1.717
 3886TIP3    H211602   0.444   4.269   1.857
 3887TIP3   OH211603   0.704   7.051   3.191
 3887TIP3    H111604   0.663   7.061   3.277
 3887TIP3    H211605   0.789   7.094   3.201
 3888TIP3   OH211606   0.481   6.291   4.285
 3888TIP3    H111607   0.397   6.288   4.330
 3888TIP3    H211608   0.471   6.233   4.210
 3889TIP3   OH211609   2.837   4.322   6.507
 3889TIP3    H111610   2.914   4.317   6.451
 3889TIP3    H211611   2.869   4.356   6.590
 3890TIP3   OH211612   4.615   0.224   6.636
 3890TIP3    H111613   4.702   0.260   6.621
 3890TIP3    H211614   4.614   0.142   6.586
 3891TIP3   OH211615   6.746   2.682   1.685
 3891TIP3    H111616   6.679   2.620   1.714
 3891TIP3    H211617   6.698   2.745   1.631
 3892TIP3   OH211618   2.033   4.300   3.019
 3892TIP3    H111619   1.952   4.252   3.034
 3892TIP3    H211620   2.032   4.320   2.925
 3893TIP3   OH211621   5.712   2.313   0.711
 3893TIP3    H111622   5.763   2.369   0.769
 3893TIP3    H211623   5.688   2.238   0.765
 3894TIP3   OH211624   7.883   6.166   6.166
 3894TIP3    H111625   7.910   6.110   6.239
 3894TIP3    H211626   7.884   6.255   6.202
 3895TIP3   OH211627   5.819   6.635   6.722
 3895TIP3    H111628   5.749   6.660   6.782
 3895TIP3    H211629   5.897   6.632   6.776
 3896TIP3   OH211630   3.906   7.733   6.527
 3896TIP3    H111631   3.823   7.773   6.500
 3896TIP3    H211632   3.899   7.725   6.622
 3897TIP3   OH211633   4.839   4.639   4.637
 3897TIP3    H111634   4.744   4.640   4.626
 3897TIP3    H211635   4.861   4.547   4.651
 3898TIP3   OH211636   1.932   4.350   6.709
 3898TIP3    H111637   2.012   4.365   6.659
 3898TIP3    H211638   1.889   4.277   6.664
 3899TIP3   OH211639   5.328   5.637   4.130
 3899TIP3    H111640   5.274   5.567   4.166
 3899TIP3    H211641   5.412   5.628   4.174
 3900TIP3   OH211642   7.816   6.884   1.221
 3900TIP3    H111643   7.781   6.927   1.299
 3900TIP3    H211644   7.739   6.847   1.177
 3901TIP3   OH211645   7.603   4.006   4.218
 3901TIP3    H111646   7.629   3.947   4.288
 3901TIP3    H211647   7.678   4.008   4.159
 3902TIP3   OH211648   2.115   4.411   1.505
 3902TIP3    H111649   2.065   4.453   1.435
 3902TIP3    H211650   2.196   4.463   1.511
 3903TIP3   OH211651   0.269   4.009   6.308
 3903TIP3    H111652   0.245   3.940   6.247
 3903TIP3    H211653   0.241   4.090   6.266
 3904TIP3   OH211654   7.710   6.090   5.742
 3904TIP3    H111655   7.694   6.101   5.835
 3904TIP3    H211656   7.705   5.995   5.728
 3905TIP3   OH211657   3.808   5.144   2.498
 3905TIP3    H111658   3.862   5.142   2.577
 3905TIP3    H211659   3.868   5.170   2.428
 3906TIP3   OH211660   0.867   5.930   0.447
 3906TIP3    H111661   0.887   5.976   0.528
 3906TIP3    H211662   0.841   5.999   0.386
 3907TIP3   OH211663   5.126   2.145   3.469
 3907TIP3    H111664   5.153   2.055   3.487
 3907TIP3    H211665   5.132   2.190   3.553
 3908TIP3   OH211666   2.583   7.701   4.516
 3908TIP3    H111667   2.652   7.758   4.549
 3908TIP3    H211668   2.508   7.758   4.503
 3909TIP3   OH211669   2.479   6.420   4.378
 3909TIP3    H111670   2.466   6.345   4.320
 3909TIP3    H211671   2.574   6.433   4.378
 3910TIP3   OH211672   4.334   6.660   1.859
 3910TIP3    H111673   4.318   6.578   1.905
 3910TIP3    H211674   4.252   6.709   1.868
 3911TIP3   OH211675   4.443   2.325   2.369
 3911TIP3    H111676   4.406   2.239   2.388
 3911TIP3    H211677   4.441   2.372   2.452
 3912TIP3   OH211678   5.028   5.094   3.508
 3912TIP3    H111679   5.116   5.057   3.500
 3912TIP3    H211680   4.983   5.065   3.429
 3913TIP3   OH211681   7.949   0.484   1.026
 3913TIP3    H111682   7.914   0.510   0.941
 3913TIP3    H211683   7.877   0.441   1.070
 3914TIP3   OH211684   4.322   0.222   3.835
 3914TIP3    H111685   4.379   0.297   3.819
 3914TIP3    H211686   4.380   0.153   3.865
 3915TIP3   OH211687   5.088   6.678   1.451
 3915TIP3    H111688   5.027   6.692   1.524
 3915TIP3    H211689   5.067   6.591   1.418
 3916TIP3   OH211690   4.780   2.249   2.906
 3916TIP3    H111691   4.724   2.319   2.938
 3916TIP3    H211692   4.769   2.251   2.811
 3917TIP3   OH211693   2.367   3.073   3.289
 3917TIP3    H111694   2.414   3.004   3.242
 3917TIP3    H211695   2.281   3.035   3.309
 3918TIP3   OH211696   4.656   4.420   1.066
 3918TIP3    H111697   4.714   4.401   0.992
 3918TIP3    H211698   4.572   4.381   1.041
 3919TIP3   OH211699   4.102   5.724   4.837
 3919TIP3    H111700   4.070   5.814   4.838
 3919TIP3    H211701   4.025   5.671   4.857
 3920TIP3   OH211702   6.429   1.442   0.369
 3920TIP3    H111703   6.439   1.385   0.445
 3920TIP3    H211704   6.466   1.391   0.296
 3921TIP3   OH211705   2.944   4.379   3.355
 3921TIP3    H111706   2.888   4.311   3.318
 3921TIP3    H211707   2.996   4.410   3.281
 3922TIP3   OH211708   4.769   3.776   1.038
 3922TIP3    H111709   4.786   3.809   0.950
 3922TIP3    H211710   4.853   3.740   1.067
 3923TIP3   OH211711   1.047   0.106   0.823
 3923TIP3    H111712   0.973   0.057   0.859
 3923TIP3    H211713   1.113   0.103   0.892
 3924TIP3   OH211714   4.574   5.924   1.984
 3924TIP3    H111715   4.531   5.882   2.058
 3924TIP3    H211716   4.569   5.860   1.913
 3925TIP3   OH211717   1.543   6.633   4.773
 3925TIP3    H111718   1.614   6.675   4.822
 3925TIP3    H211719   1.583   6.609   4.690
 3926TIP3   OH211720   2.414   7.783   2.736
 3926TIP3    H111721   2.400   7.718   2.667
 3926TIP3    H211722   2.342   7.769   2.797
 3927TIP3   OH211723   6.505   3.777   3.285
 3927TIP3    H111724   6.511   3.809   3.195
 3927TIP3    H211725   6.560   3.837   3.335
 3928TIP3   OH211726   8.103   6.468   2.157
 3928TIP3    H111727   8.031   6.445   2.098
 3928TIP3    H211728   8.177   6.482   2.099
 3929TIP3   OH211729   2.881   1.723   3.573
 3929TIP3    H111730   2.892   1.692   3.663
 3929TIP3    H211731   2.939   1.667   3.522
 3930TIP3   OH211732   1.443   5.006   6.243
 3930TIP3    H111733   1.472   4.991   6.333
 3930TIP3    H211734   1.472   5.095   6.224
 3931TIP3   OH211735   4.245   3.242   6.577
 3931TIP3    H111736   4.316   3.228   6.639
 3931TIP3    H211737   4.168   3.259   6.632
 3932TIP3   OH211738   8.292   7.754   6.191
 3932TIP3    H111739   8.345   7.765   6.112
 3932TIP3    H211740   8.230   7.826   6.189
 3933TIP3   OH211741   4.738   4.390   5.133
 3933TIP3    H111742   4.657   4.440   5.119
 3933TIP3    H211743   4.708   4.299   5.145
 3934TIP3   OH211744   2.565   3.037   1.753
 3934TIP3    H111745   2.497   2.985   1.796
 3934TIP3    H211746   2.642   3.027   1.809
 3935TIP3   OH211747   1.916   6.470   0.824
 3935TIP3    H111748   1.965   6.534   0.875
 3935TIP3    H211749   1.983   6.412   0.786
 3936TIP3   OH211750   5.972   3.002   6.208
 3936TIP3    H111751   5.912   3.055   6.260
 3936TIP3    H211752   5.918   2.929   6.177
 3937TIP3   OH211753   3.735   6.755   4.914
 3937TIP3    H111754   3.743   6.835   4.966
 3937TIP3    H211755   3.750   6.783   4.824
 3938TIP3   OH211756   3.398   2.228   5.351
 3938TIP3    H111757   3.343   2.221   5.429
 3938TIP3    H211758   3.486   2.246   5.385
 3939TIP3   OH211759   1.701   6.515   0.051
 3939TIP3    H111760   1.695   6.431   0.097
 3939TIP3    H211761   1.657   6.577   0.109
 3940TIP3   OH211762   2.682   5.174   3.622
 3940TIP3    H111763   2.730   5.100   3.660
 3940TIP3    H211764   2.670   5.150   3.530
 3941TIP3   OH211765   6.892   6.150   6.390
 3941TIP3    H111766   6.798   6.156   6.402
 3941TIP3    H211767   6.907   6.181   6.300
 3942TIP3   OH211768   1.736   1.535   3.411
 3942TIP3    H111769   1.644   1.511   3.406
 3942TIP3    H211770   1.742   1.594   3.487
 3943TIP3   OH211771   0.942   6.248   5.090
 3943TIP3    H111772   0.981   6.305   5.023
 3943TIP3    H211773   0.937   6.162   5.048
 3944TIP3   OH211774   1.340   5.471   3.025
 3944TIP3    H111775   1.304   5.400   3.079
 3944TIP3    H211776   1.368   5.428   2.944
 3945TIP3   OH211777   1.906   2.429   2.856
 3945TIP3    H111778   1.976   2.389   2.908
 3945TIP3    H211779   1.830   2.373   2.871
 3946TIP3   OH211780   5.258   2.969   5.514
 3946TIP3    H111781   5.295   3.056   5.528
 3946TIP3    H211782   5.311   2.912   5.571
 3947TIP3   OH211783   4.041   5.901   6.700
 3947TIP3    H111784   3.959   5.872   6.739
 3947TIP3    H211785   4.059   5.986   6.742
 3948TIP3   OH211786   5.944   2.740   5.002
 3948TIP3    H111787   5.971   2.826   4.969
 3948TIP3    H211788   5.849   2.744   5.006
 3949TIP3   OH211789   0.154   6.717   3.848
 3949TIP3    H111790   0.126   6.628   3.868
 3949TIP3    H211791   0.187   6.713   3.759
 3950TIP3   OH211792   2.100   7.645   3.591
 3950TIP3    H111793   2.031   7.614   3.650
 3950TIP3    H211794   2.127   7.567   3.543
 3951TIP3   OH211795   1.238   1.940   2.751
 3951TIP3    H111796   1.328   1.935   2.718
 3951TIP3    H211797   1.185   1.894   2.686
 3952TIP3   OH211798   0.614   5.199   3.768
 3952TIP3    H111799   0.630   5.250   3.689
 3952TIP3    H211800   0.560   5.255   3.823
 3953TIP3   OH211801   5.204   2.413   1.292
 3953TIP3    H111802   5.109   2.425   1.294
 3953TIP3    H211803   5.235   2.479   1.230
 3954TIP3   OH211804   3.660   2.318   0.478
 3954TIP3    H111805   3.739   2.364   0.451
 3954TIP3    H211806   3.689   2.261   0.550
 3955TIP3   OH211807   7.548   5.946   5.373
 3955TIP3    H111808   7.595   6.027   5.394
 3955TIP3    H211809   7.461   5.976   5.346
 3956TIP3   OH211810   2.432   2.985   6.625
 3956TIP3    H111811   2.409   3.075   6.599
 3956TIP3    H211812   2.416   2.982   6.719
 3957TIP3   OH211813   3.446   2.885   1.684
 3957TIP3    H111814   3.363   2.853   1.718
 3957TIP3    H211815   3.488   2.808   1.646
 3958TIP3   OH211816   3.613   3.037   3.726
 3958TIP3    H111817   3.641   3.124   3.753
 3958TIP3    H211818   3.553   3.053   3.653
 3959TIP3   OH211819   4.267   5.412   4.898
 3959TIP3    H111820   4.299   5.331   4.938
 3959TIP3    H211821   4.172   5.400   4.894
 3960TIP3   OH211822   6.108   4.403   6.749
 3960TIP3    H111823   6.197   4.374   6.767
 3960TIP3    H211824   6.116   4.463   6.675
 3961TIP3   OH211825   7.338   7.443   0.471
 3961TIP3    H111826   7.353   7.516   0.412
 3961TIP3    H211827   7.338   7.366   0.415
 3962TIP3   OH211828   2.838   0.413   1.802
 3962TIP3    H111829   2.880   0.461   1.873
 3962TIP3    H211830   2.866   0.458   1.723
 3963TIP3   OH211831   7.064   1.016   4.884
 3963TIP3    H111832   7.061   1.111   4.896
 3963TIP3    H211833   7.081   1.004   4.791
 3964TIP3   OH211834   5.007   5.101   5.836
 3964TIP3    H111835   4.922   5.062   5.856
 3964TIP3    H211836   4.986   5.175   5.780
 3965TIP3   OH211837   3.189   4.048   2.137
 3965TIP3    H111838   3.215   4.030   2.046
 3965TIP3    H211839   3.208   4.141   2.148
 3966TIP3   OH211840   5.917   7.405   1.010
 3966TIP3    H111841   5.941   7.496   1.028
 3966TIP3    H211842   5.825   7.409   0.985
 3967TIP3   OH211843   6.552   5.789   1.470
 3967TIP3    H111844   6.639   5.829   1.466
 3967TIP3    H211845   6.540   5.748   1.384
 3968TIP3   OH211846   3.930   1.452   6.417
 3968TIP3    H111847   3.990   1.408   6.477
 3968TIP3    H211848   3.843   1.420   6.442
 3969TIP3   OH211849   2.818   3.859   5.354
 3969TIP3    H111850   2.738   3.911   5.344
 3969TIP3    H211851   2.794   3.789   5.415
 3970TIP3   OH211852   3.983   2.963   4.755
 3970TIP3    H111853   4.076   2.984   4.769
 3970TIP3    H211854   3.967   2.982   4.663
 3971TIP3   OH211855   5.379   5.619   2.631
 3971TIP3    H111856   5.325   5.629   2.553
 3971TIP3    H211857   5.463   5.660   2.609
 3972TIP3   OH211858   6.850   1.565   2.631
 3972TIP3    H111859   6.891   1.484   2.663
 3972TIP3    H211860   6.819   1.544   2.543
 3973TIP3   OH211861   7.778   2.749   2.900
 3973TIP3    H111862   7.773   2.838   2.936
 3973TIP3    H211863   7.809   2.762   2.810
 3974TIP3   OH211864   2.130   6.802   2.806
 3974TIP3    H111865   2.151   6.878   2.751
 3974TIP3    H211866   2.056   6.831   2.860
 3975TIP3   OH211867   5.538   3.947   5.186
 3975TIP3    H111868   5.627   3.978   5.207
 3975TIP3    H211869   5.551   3.860   5.149
 3976TIP3   OH211870   3.017   1.098   6.343
 3976TIP3    H111871   2.959   1.099   6.268
 3976TIP3    H211872   3.028   1.190   6.367
 3977TIP3   OH211873   7.711   6.056   2.906
 3977TIP3    H111874   7.667   6.097   2.832
 3977TIP3    H211875   7.718   5.963   2.882
 3978TIP3   OH211876   0.267   4.762   3.780
 3978TIP3    H111877   0.332   4.777   3.712
 3978TIP3    H211878   0.238   4.850   3.806
 3979TIP3   OH211879   4.463   5.420   2.164
 3979TIP3    H111880   4.392   5.480   2.139
 3979TIP3    H211881   4.535   5.478   2.189
 3980TIP3   OH211882   0.047   6.558   4.710
 3980TIP3    H111883   0.110   6.486   4.713
 3980TIP3    H211884   0.066   6.603   4.627
 3981TIP3   OH211885   4.264   7.445   5.239
 3981TIP3    H111886   4.260   7.468   5.331
 3981TIP3    H211887   4.341   7.388   5.231
 3982TIP3   OH211888   1.378   0.285   3.739
 3982TIP3    H111889   1.350   0.339   3.665
 3982TIP3    H211890   1.422   0.345   3.798
 3983TIP3   OH211891   1.007   3.182   2.103
 3983TIP3    H111892   1.039   3.208   2.016
 3983TIP3    H211893   1.069   3.116   2.133
 3984TIP3   OH211894   2.183   1.872   4.052
 3984TIP3    H111895   2.119   1.849   4.119
 3984TIP3    H211896   2.157   1.822   3.975
 3985TIP3   OH211897   2.446   4.083   6.560
 3985TIP3    H111898   2.393   4.004   6.570
 3985TIP3    H211899   2.423   4.116   6.473
 3986TIP3   OH211900   3.957   1.673   1.144
 3986TIP3    H111901   3.897   1.745   1.166
 3986TIP3    H211902   3.954   1.615   1.220
 3987TIP3   OH211903   2.301   2.169   4.937
 3987TIP3    H111904   2.358   2.093   4.947
 3987TIP3    H211905   2.224   2.135   4.891
 3988TIP3   OH211906   3.185   5.723   3.292
 3988TIP3    H111907   3.121   5.696   3.226
 3988TIP3    H211908   3.256   5.763   3.243
 3989TIP3   OH211909   2.903   4.588   4.797
 3989TIP3    H111910   2.827   4.627   4.839
 3989TIP3    H211911   2.952   4.548   4.869
 3990TIP3   OH211912   3.035   5.773   0.295
 3990TIP3    H111913   2.962   5.831   0.319
 3990TIP3    H211914   3.002   5.685   0.311
 3991TIP3   OH211915   3.431   0.182   1.296
 3991TIP3    H111916   3.345   0.144   1.281
 3991TIP3    H211917   3.478   0.168   1.213
 3992TIP3   OH211918   2.707   1.342   5.165
 3992TIP3    H111919   2.632   1.292   5.132
 3992TIP3    H211920   2.671   1.394   5.238
 3993TIP3   OH211921   5.293   0.257   3.584
 3993TIP3    H111922   5.325   0.168   3.570
 3993TIP3    H211923   5.364   0.313   3.555
 3994TIP3   OH211924   6.730   3.215   5.967
 3994TIP3    H111925   6.811   3.251   6.004
 3994TIP3    H211926   6.697   3.284   5.910
 3995TIP3   OH211927   3.105   0.289   5.260
 3995TIP3    H111928   3.073   0.379   5.259
 3995TIP3    H211929   3.165   0.286   5.335
 3996TIP3   OH211930   5.909   4.833   0.522
 3996TIP3    H111931   5.918   4.738   0.514
 3996TIP3    H211932   5.998   4.864   0.540
 3997TIP3   OH211933   5.484   7.150   4.056
 3997TIP3    H111934   5.552   7.211   4.030
 3997TIP3    H211935   5.505   7.070   4.007
 3998TIP3   OH211936   6.037   5.134   6.184
 3998TIP3    H111937   5.953   5.176   6.164
 3998TIP3    H211938   6.078   5.119   6.099
 3999TIP3   OH211939   2.586   4.206   1.062
 3999TIP3    H111940   2.517   4.146   1.090
 3999TIP3    H211941   2.540   4.286   1.039
 4000TIP3   OH211942   7.359   1.101   2.807
 4000TIP3    H111943   7.354   1.177   2.749
 4000TIP3    H211944   7.452   1.085   2.818
 4001TIP3   OH211945   0.862   3.926   0.128
 4001TIP3    H111946   0.807   3.980   0.185
 4001TIP3    H211947   0.900   3.988   0.066
 4002TIP3   OH211948   8.001   5.676   3.461
 4002TIP3    H111949   7.918   5.628   3.464
 4002TIP3    H211950   8.045   5.642   3.383
 4003TIP3   OH211951   1.974   3.685   0.383
 4003TIP3    H111952   1.983   3.758   0.322
 4003TIP3    H211953   2.019   3.612   0.341
 4004TIP3   OH211954   2.595   4.587   5.000
 4004TIP3    H111955   2.540   4.510   5.018
 4004TIP3    H211956   2.542   4.661   5.031
 4005TIP3   OH211957   6.970   0.476   1.401
 4005TIP3    H111958   6.920   0.460   1.321
 4005TIP3    H211959   6.994   0.568   1.397
 4006TIP3   OH211960   0.139   2.758   1.253
 4006TIP3    H111961   0.047   2.778   1.269
 4006TIP3    H211962   0.167   2.823   1.188
 4007TIP3   OH211963   5.601   0.745   1.758
 4007TIP3    H111964   5.560   0.672   1.805
 4007TIP3    H211965   5.633   0.705   1.677
 4008TIP3   OH211966   0.642   2.359   2.853
 4008TIP3    H111967   0.665   2.281   2.904
 4008TIP3    H211968   0.547   2.354   2.845
 4009TIP3   OH211969   6.844   0.075   3.295
 4009TIP3    H111970   6.803   0.026   3.225
 4009TIP3    H211971   6.933   0.092   3.264
 4010TIP3   OH211972   0.032   2.397   2.779
 4010TIP3    H111973  -0.044   2.339   2.782
 4010TIP3    H211974   0.056   2.400   2.686
 4011TIP3   OH211975   5.727   2.310   2.363
 4011TIP3    H111976   5.798   2.364   2.397
 4011TIP3    H211977   5.679   2.368   2.304
 4012TIP3   OH211978   0.092   0.798   6.317
 4012TIP3    H111979   0.117   0.730   6.254
 4012TIP3    H211980   0.096   0.754   6.402
 4013TIP3   OH211981   4.002   0.608   0.769
 4013TIP3    H111982   4.057   0.652   0.705
 4013TIP3    H211983   3.917   0.600   0.726
 4014TIP3   OH211984   1.567   2.331   3.783
 4014TIP3    H111985   1.514   2.252   3.774
 4014TIP3    H211986   1.653   2.300   3.811
 4015TIP3   OH211987   0.163   3.040   4.803
 4015TIP3    H111988   0.158   3.023   4.709
 4015TIP3    H211989   0.108   2.972   4.843
 4016TIP3   OH211990   5.875   0.827   4.060
 4016TIP3    H111991   5.925   0.835   3.979
 4016TIP3    H211992   5.789   0.863   4.038
 4017TIP3   OH211993   4.160   3.661   5.068
 4017TIP3    H111994   4.145   3.596   5.136
 4017TIP3    H211995   4.072   3.683   5.036
 4018TIP3   OH211996   0.072   1.828   2.563
 4018TIP3    H111997   0.076   1.917   2.528
 4018TIP3    H211998   0.077   1.771   2.486
 4019TIP3   OH211999   1.943   4.618   2.252
 4019TIP3    H112000   1.920   4.538   2.204
 4019TIP3    H212001   2.022   4.594   2.302
 4020TIP3   OH212002   1.743   0.214   2.885
 4020TIP3    H112003   1.710   0.126   2.899
 4020TIP3    H212004   1.701   0.267   2.953
 4021TIP3   OH212005   0.268   6.387   4.109
 4021TIP3    H112006   0.206   6.387   4.182
 4021TIP3    H212007   0.340   6.443   4.139
 4022TIP3   OH212008   7.125   1.546   0.847
 4022TIP3    H112009   7.085   1.459   0.847
 4022TIP3    H212010   7.192   1.542   0.916
 4023TIP3   OH212011   4.646   7.385   4.260
 4023TIP3    H112012   4.556   7.416   4.268
 4023TIP3    H212013   4.647   7.303   4.309
 4024TIP3   OH212014   0.807   5.225   0.019
 4024TIP3    H112015   0.846   5.277  -0.051
 4024TIP3    H212016   0.856   5.143   0.019
 4025TIP3   OH212017   4.611   2.933   3.489
 4025TIP3    H112018   4.599   2.856   3.545
 4025TIP3    H212019   4.639   2.897   3.405
 4026TIP3   OH212020   7.771   5.903   1.711
 4026TIP3    H112021   7.765   5.876   1.619
 4026TIP3    H212022   7.823   5.835   1.752
 4027TIP3   OH212023   5.272   1.727   2.112
 4027TIP3    H112024   5.311   1.796   2.058
 4027TIP3    H212025   5.277   1.761   2.201
 4028TIP3   OH212026   3.675   6.580   5.636
 4028TIP3    H112027   3.722   6.576   5.720
 4028TIP3    H212028   3.741   6.558   5.570
 4029TIP3   OH212029   2.096   0.172   3.532
 4029TIP3    H112030   2.131   0.246   3.483
 4029TIP3    H212031   2.019   0.144   3.482
 4030TIP3   OH212032   1.577   5.810   2.271
 4030TIP3    H112033   1.522   5.888   2.259
 4030TIP3    H212034   1.557   5.755   2.196
 4031TIP3   OH212035   6.095   3.384   1.223
 4031TIP3    H112036   6.056   3.346   1.302
 4031TIP3    H212037   6.188   3.390   1.243
 4032TIP3   OH212038   5.901   3.116   1.240
 4032TIP3    H112039   5.941   3.150   1.160
 4032TIP3    H212040   5.942   3.165   1.311
 4033TIP3   OH212041   7.359   0.727   2.677
 4033TIP3    H112042   7.316   0.781   2.743
 4033TIP3    H212043   7.449   0.717   2.708
 4034TIP3   OH212044   6.884   7.805   2.813
 4034TIP3    H112045   6.793   7.777   2.818
 4034TIP3    H212046   6.932   7.739   2.863
 4035TIP3   OH212047   2.747   5.372   3.019
 4035TIP3    H112048   2.711   5.288   3.047
 4035TIP3    H212049   2.832   5.351   2.980
 4036TIP3   OH212050   0.005   0.632   2.810
 4036TIP3    H112051  -0.062   0.663   2.750
 4036TIP3    H212052   0.044   0.712   2.846
 4037TIP3   OH212053   7.852   0.881   2.446
 4037TIP3    H112054   7.765   0.919   2.455
 4037TIP3    H212055   7.859   0.819   2.519
 4038TIP3   OH212056   4.142   3.827   2.778
 4038TIP3    H112057   4.145   3.818   2.682
 4038TIP3    H212058   4.230   3.859   2.801
 4039TIP3   OH212059   5.403   7.341   1.232
 4039TIP3    H112060   5.333   7.283   1.262
 4039TIP3    H212061   5.358   7.418   1.198
 4040TIP3   OH212062   5.138   5.973   4.726
 4040TIP3    H112063   5.192   5.894   4.726
 4040TIP3    H212064   5.187   6.036   4.777
 4041TIP3   OH212065   4.060   6.398   1.263
 4041TIP3    H112066   4.112   6.469   1.224
 4041TIP3    H212067   4.115   6.364   1.333
 4042TIP3   OH212068   1.049   4.551   0.643
 4042TIP3    H112069   1.009   4.590   0.721
 4042TIP3    H212070   1.142   4.547   0.664
 4043TIP3   OH212071   2.056   5.444   4.804
 4043TIP3    H112072   2.034   5.448   4.897
 4043TIP3    H212073   1.975   5.420   4.760
 4044TIP3   OH212074   6.234   6.639   5.278
 4044TIP3    H112075   6.326   6.613   5.282
 4044TIP3    H212076   6.235   6.727   5.239
 4045TIP3   OH212077   8.105   1.458   6.025
 4045TIP3    H112078   8.063   1.405   5.957
 4045TIP3    H212079   8.095   1.406   6.105
 4046TIP3   OH212080   2.204   4.802   0.404
 4046TIP3    H112081   2.206   4.895   0.380
 4046TIP3    H212082   2.252   4.758   0.333
 4047TIP3   OH212083   3.230   0.553   4.081
 4047TIP3    H112084   3.234   0.541   3.986
 4047TIP3    H212085   3.143   0.588   4.098
 4048TIP3   OH212086   6.871   6.080   0.573
 4048TIP3    H112087   6.931   6.111   0.641
 4048TIP3    H212088   6.916   6.101   0.491
 4049TIP3   OH212089   7.810   7.155   6.040
 4049TIP3    H112090   7.857   7.195   6.114
 4049TIP3    H212091   7.761   7.083   6.079
 4050TIP3   OH212092   7.236   0.070   2.101
 4050TIP3    H112093   7.272   0.105   2.019
 4050TIP3    H212094   7.193  -0.012   2.076
 4051TIP3   OH212095   4.739   0.309   1.481
 4051TIP3    H112096   4.706   0.220   1.479
 4051TIP3    H212097   4.830   0.300   1.510
 4052TIP3   OH212098   2.161   0.091   0.056
 4052TIP3    H112099   2.100   0.089   0.129
 4052TIP3    H212100   2.137   0.016   0.002
 4053TIP3   OH212101   2.239   3.388   0.491
 4053TIP3    H112102   2.213   3.401   0.583
 4053TIP3    H212103   2.298   3.461   0.472
 4054TIP3   OH212104   0.042   0.468   5.507
 4054TIP3    H112105   0.081   0.488   5.592
 4054TIP3    H212106   0.085   0.387   5.479
 4055TIP3   OH212107   8.128   2.761   2.785
 4055TIP3    H112108   8.044   2.750   2.741
 4055TIP3    H212109   8.192   2.726   2.723
 4056TIP3   OH212110   6.567   0.512   2.133
 4056TIP3    H112111   6.497   0.495   2.071
 4056TIP3    H212112   6.537   0.473   2.215
 4057TIP3   OH212113   6.558   4.348   1.702
 4057TIP3    H112114   6.531   4.298   1.779
 4057TIP3    H212115   6.496   4.421   1.698
 4058TIP3   OH212116   5.873   6.452   5.627
 4058TIP3    H112117   5.869   6.539   5.588
 4058TIP3    H212118   5.844   6.465   5.717
 4059TIP3   OH212119   1.128   2.073   5.020
 4059TIP3    H112120   1.169   2.125   4.951
 4059TIP3    H212121   1.138   2.126   5.099
 4060TIP3   OH212122   1.896   2.781   4.071
 4060TIP3    H112123   1.956   2.707   4.066
 4060TIP3    H212124   1.865   2.781   4.161
 4061TIP3   OH212125   2.247   3.457   3.697
 4061TIP3    H112126   2.174   3.506   3.734
 4061TIP3    H212127   2.312   3.524   3.674
 4062TIP3   OH212128   4.440   1.090   2.542
 4062TIP3    H112129   4.528   1.053   2.535
 4062TIP3    H212130   4.416   1.077   2.634
 4063TIP3   OH212131   1.849   6.044   1.025
 4063TIP3    H112132   1.802   6.121   0.994
 4063TIP3    H212133   1.912   6.078   1.089
 4064TIP3   OH212134   5.916   0.502   3.945
 4064TIP3    H112135   5.829   0.527   3.913
 4064TIP3    H212136   5.904   0.494   4.040
 4065TIP3   OH212137   0.905   7.144   4.360
 4065TIP3    H112138   0.817   7.128   4.393
 4065TIP3    H212139   0.950   7.188   4.432
 4066TIP3   OH212140   0.057   0.698   5.128
 4066TIP3    H112141  -0.009   0.659   5.070
 4066TIP3    H212142   0.071   0.785   5.092
 4067TIP3   OH212143   3.920   0.248   5.661
 4067TIP3    H112144   3.941   0.332   5.703
 4067TIP3    H212145   3.913   0.270   5.568
 4068TIP3   OH212146   0.592   5.120   0.221
 4068TIP3    H112147   0.617   5.041   0.173
 4068TIP3    H212148   0.660   5.184   0.199
 4069TIP3   OH212149   1.674   5.010   4.321
 4069TIP3    H112150   1.723   4.931   4.343
 4069TIP3    H212151   1.704   5.034   4.234
 4070TIP3   OH212152   0.445   1.202   1.208
 4070TIP3    H112153   0.399   1.252   1.141
 4070TIP3    H212154   0.515   1.260   1.238
 4071TIP3   OH212155   4.501   0.724   3.249
 4071TIP3    H112156   4.461   0.665   3.185
 4071TIP3    H212157   4.562   0.777   3.198
 4072TIP3   OH212158   8.108   0.714   2.586
 4072TIP3    H112159   8.118   0.754   2.500
 4072TIP3    H212160   8.135   0.782   2.648
 4073TIP3   OH212161   8.195   7.091   3.371
 4073TIP3    H112162   8.174   7.015   3.425
 4073TIP3    H212163   8.210   7.162   3.434
 4074TIP3   OH212164   4.839   6.030   2.118
 4074TIP3    H112165   4.866   6.122   2.126
 4074TIP3    H212166   4.752   6.034   2.078
 4075TIP3   OH212167   0.381   4.687   3.424
 4075TIP3    H112168   0.365   4.618   3.360
 4075TIP3    H212169   0.472   4.673   3.452
 4076TIP3   OH212170   0.423   5.211   6.470
 4076TIP3    H112171   0.504   5.180   6.429
 4076TIP3    H212172   0.389   5.277   6.411
 4077TIP3   OH212173   7.955   1.142   2.828
 4077TIP3    H112174   7.876   1.176   2.871
 4077TIP3    H212175   8.024   1.204   2.851
 4078TIP3   OH212176   7.828   3.827   6.329
 4078TIP3    H112177   7.885   3.870   6.393
 4078TIP3    H212178   7.789   3.754   6.377
 4079TIP3   OH212179   2.236   2.455   2.020
 4079TIP3    H112180   2.236   2.549   2.002
 4079TIP3    H212181   2.147   2.437   2.049
 4080TIP3   OH212182   7.494   1.788   2.122
 4080TIP3    H112183   7.417   1.734   2.138
 4080TIP3    H212184   7.460   1.862   2.070
 4081TIP3   OH212185   3.084   5.694   3.826
 4081TIP3    H112186   3.137   5.713   3.749
 4081TIP3    H212187   3.122   5.613   3.861
 4082TIP3   OH212188   5.278   5.789   5.850
 4082TIP3    H112189   5.302   5.710   5.897
 4082TIP3    H212190   5.356   5.844   5.854
 4083TIP3   OH212191   0.578   5.390   5.111
 4083TIP3    H112192   0.642   5.405   5.181
 4083TIP3    H212193   0.507   5.451   5.130
 4084TIP3   OH212194   4.820   5.318   0.167
 4084TIP3    H112195   4.771   5.271   0.100
 4084TIP3    H212196   4.774   5.297   0.249
 4085TIP3   OH212197   3.750   6.597   3.921
 4085TIP3    H112198   3.835   6.554   3.920
 4085TIP3    H212199   3.702   6.558   3.847
 4086TIP3   OH212200   3.099   5.270   1.967
 4086TIP3    H112201   3.189   5.300   1.969
 4086TIP3    H212202   3.075   5.271   1.874
 4087TIP3   OH212203   0.814   6.270   6.309
 4087TIP3    H112204   0.791   6.234   6.395
 4087TIP3    H212205   0.745   6.334   6.290
 4088TIP3   OH212206   4.904   4.822   4.440
 4088TIP3    H112207   4.873   4.899   4.487
 4088TIP3    H212208   4.910   4.754   4.506
 4089TIP3   OH212209   3.880   2.232   4.111
 4089TIP3    H112210   3.829   2.226   4.192
 4089TIP3    H212211   3.845   2.308   4.066
 4090TIP3   OH212212   4.495   0.516   6.596
 4090TIP3    H112213   4.562   0.457   6.630
 4090TIP3    H212214   4.541   0.574   6.535
 4091TIP3   OH212215   0.788   0.188   5.774
 4091TIP3    H112216   0.762   0.117   5.833
 4091TIP3    H212217   0.872   0.159   5.738
 4092TIP3   OH212218   8.087   4.953   3.193
 4092TIP3    H112219   8.016   4.900   3.229
 4092TIP3    H212220   8.094   5.027   3.253
 4093TIP3   OH212221   3.350   7.040   1.920
 4093TIP3    H112222   3.393   6.972   1.972
 4093TIP3    H212223   3.390   7.034   1.834
 4094TIP3   OH212224   3.846   1.943   5.614
 4094TIP3    H112225   3.911   1.882   5.578
 4094TIP3    H212226   3.786   1.960   5.542
 4095TIP3   OH212227   6.918   6.745   5.669
 4095TIP3    H112228   6.983   6.708   5.609
 4095TIP3    H212229   6.920   6.839   5.651
 4096TIP3   OH212230   6.542   0.634   3.015
 4096TIP3    H112231   6.590   0.567   2.967
 4096TIP3    H212232   6.534   0.599   3.104
 4097TIP3   OH212233   0.605   0.399   3.851
 4097TIP3    H112234   0.639   0.349   3.777
 4097TIP3    H212235   0.510   0.383   3.850
 4098TIP3   OH212236   7.099   0.529   5.046
 4098TIP3    H112237   7.163   0.507   5.114
 4098TIP3    H212238   7.015   0.533   5.092
 4099TIP3   OH212239   8.000   0.473   2.427
 4099TIP3    H112240   7.932   0.411   2.452
 4099TIP3    H212241   7.996   0.541   2.494
 4100TIP3   OH212242   2.488   3.270   6.549
 4100TIP3    H112243   2.542   3.247   6.624
 4100TIP3    H212244   2.545   3.326   6.495
 4101TIP3   OH212245   0.405   0.682   6.693
 4101TIP3    H112246   0.323   0.692   6.645
 4101TIP3    H212247   0.379   0.672   6.785
 4102TIP3   OH212248   4.445   0.531   5.306
 4102TIP3    H112249   4.400   0.509   5.388
 4102TIP3    H212250   4.417   0.620   5.286
 4103TIP3   OH212251   1.211   0.260   5.753
 4103TIP3    H112252   1.154   0.183   5.746
 4103TIP3    H212253   1.199   0.290   5.844
 4104TIP3   OH212254   4.617   3.522   5.585
 4104TIP3    H112255   4.656   3.442   5.622
 4104TIP3    H212256   4.549   3.546   5.647
 4105TIP3   OH212257   7.790   6.434   2.389
 4105TIP3    H112258   7.710   6.386   2.370
 4105TIP3    H212259   7.765   6.495   2.459
 4106TIP3   OH212260   6.887   5.663   3.946
 4106TIP3    H112261   6.927   5.684   3.861
 4106TIP3    H212262   6.805   5.619   3.923
 4107TIP3   OH212263   7.509   7.343   5.220
 4107TIP3    H112264   7.587   7.352   5.274
 4107TIP3    H212265   7.543   7.325   5.132
 4108TIP3   OH212266   7.298   3.228   4.644
 4108TIP3    H112267   7.358   3.179   4.587
 4108TIP3    H212268   7.351   3.298   4.680
 4109TIP3   OH212269   0.247   4.498   3.921
 4109TIP3    H112270   0.258   4.574   3.865
 4109TIP3    H212271   0.231   4.534   4.008
 4110TIP3   OH212272   6.449   5.112   3.672
 4110TIP3    H112273   6.459   5.207   3.684
 4110TIP3    H212274   6.362   5.092   3.706
 4111TIP3   OH212275   3.235   7.800   1.064
 4111TIP3    H112276   3.155   7.804   1.116
 4111TIP3    H212277   3.306   7.801   1.128
 4112TIP3   OH212278   4.138   5.014   4.087
 4112TIP3    H112279   4.099   4.941   4.135
 4112TIP3    H212280   4.232   5.005   4.104
 4113TIP3   OH212281   4.775   4.829   0.983
 4113TIP3    H112282   4.767   4.762   1.051
 4113TIP3    H212283   4.865   4.861   0.991
 4114TIP3   OH212284   1.739   6.431   2.381
 4114TIP3    H112285   1.703   6.519   2.396
 4114TIP3    H212286   1.834   6.443   2.392
 4115TIP3   OH212287   4.399   6.282   6.157
 4115TIP3    H112288   4.389   6.374   6.132
 4115TIP3    H212289   4.406   6.235   6.074
 4116TIP3   OH212290   4.435   4.160   2.426
 4116TIP3    H112291   4.434   4.158   2.330
 4116TIP3    H212292   4.344   4.170   2.451
 4117TIP3   OH212293   3.207   0.773   5.370
 4117TIP3    H112294   3.138   0.838   5.358
 4117TIP3    H212295   3.288   0.819   5.349
 4118TIP3   OH212296   5.074   3.569   4.935
 4118TIP3    H112297   5.027   3.614   5.005
 4118TIP3    H212298   5.099   3.639   4.875
 4119TIP3   OH212299   3.770   0.140   6.692
 4119TIP3    H112300   3.704   0.078   6.662
 4119TIP3    H212301   3.759   0.216   6.635
 4120TIP3   OH212302   2.623   3.267   3.168
 4120TIP3    H112303   2.701   3.256   3.222
 4120TIP3    H212304   2.635   3.206   3.095
 4121TIP3   OH212305   4.126   4.897   3.263
 4121TIP3    H112306   4.059   4.828   3.265
 4121TIP3    H212307   4.109   4.945   3.182
 4122TIP3   OH212308   8.091   5.335   4.832
 4122TIP3    H112309   8.117   5.405   4.892
 4122TIP3    H212310   8.003   5.310   4.861
 4123TIP3   OH212311   5.251   6.773   4.068
 4123TIP3    H112312   5.229   6.740   3.981
 4123TIP3    H212313   5.167   6.778   4.114
 4124TIP3   OH212314   0.487   6.582   3.604
 4124TIP3    H112315   0.428   6.655   3.584
 4124TIP3    H212316   0.431   6.504   3.602
 4125TIP3   OH212317   1.136   0.397   1.718
 4125TIP3    H112318   1.041   0.409   1.718
 4125TIP3    H212319   1.150   0.318   1.770
 4126TIP3   OH212320   7.007   3.178   2.078
 4126TIP3    H112321   7.023   3.141   2.165
 4126TIP3    H212322   7.067   3.130   2.021
 4127TIP3   OH212323   0.401   6.709   0.711
 4127TIP3    H112324   0.471   6.770   0.686
 4127TIP3    H212325   0.403   6.709   0.807
 4128TIP3   OH212326   4.607   0.903   1.948
 4128TIP3    H112327   4.627   0.989   1.912
 4128TIP3    H212328   4.678   0.886   2.010
 4129TIP3   OH212329   6.764   5.128   4.558
 4129TIP3    H112330   6.687   5.156   4.607
 4129TIP3    H212331   6.793   5.048   4.603
 4130TIP3   OH212332   2.202   1.789   5.841
 4130TIP3    H112333   2.123   1.797   5.788
 4130TIP3    H212334   2.204   1.869   5.894
 4131TIP3   OH212335   3.608   0.951   1.761
 4131TIP3    H112336   3.699   0.928   1.777
 4131TIP3    H212337   3.592   1.027   1.818
 4132TIP3   OH212338   6.704   1.461   3.298
 4132TIP3    H112339   6.656   1.399   3.353
 4132TIP3    H212340   6.729   1.411   3.221
 4133TIP3   OH212341   4.944   5.576   0.925
 4133TIP3    H112342   4.925   5.510   0.992
 4133TIP3    H212343   4.860   5.590   0.881
 4134TIP3   OH212344   1.478   4.720   4.556
 4134TIP3    H112345   1.429   4.638   4.562
 4134TIP3    H212346   1.520   4.729   4.642
 4135TIP3   OH212347   3.108   1.683   0.326
 4135TIP3    H112348   3.074   1.755   0.274
 4135TIP3    H212349   3.113   1.717   0.415
 4136TIP3   OH212350   2.049   6.042   5.203
 4136TIP3    H112351   2.117   5.981   5.233
 4136TIP3    H212352   2.017   6.084   5.283
 4137TIP3   OH212353   3.510   2.189   3.901
 4137TIP3    H112354   3.588   2.135   3.915
 4137TIP3    H212355   3.502   2.241   3.981
 4138TIP3   OH212356   2.227   0.535   4.109
 4138TIP3    H112357   2.240   0.613   4.164
 4138TIP3    H212358   2.316   0.507   4.088
 4139TIP3   OH212359   0.821   7.742   3.975
 4139TIP3    H112360   0.857   7.795   4.046
 4139TIP3    H212361   0.731   7.725   4.001
 4140TIP3   OH212362   1.776   3.749   3.794
 4140TIP3    H112363   1.740   3.836   3.777
 4140TIP3    H212364   1.717   3.689   3.747
 4141TIP3   OH212365   6.553   5.999   4.394
 4141TIP3    H112366   6.634   6.033   4.357
 4141TIP3    H212367   6.509   5.957   4.321
 4142TIP3   OH212368   6.643   5.970   0.663
 4142TIP3    H112369   6.586   5.991   0.589
 4142TIP3    H212370   6.730   5.999   0.635
 4143TIP3   OH212371   4.456   2.990   1.782
 4143TIP3    H112372   4.436   2.904   1.820
 4143TIP3    H212373   4.540   3.015   1.821
 4144TIP3   OH212374   2.286   3.200   3.811
 4144TIP3    H112375   2.267   3.286   3.772
 4144TIP3    H212376   2.294   3.141   3.736
 4145TIP3   OH212377   4.423   6.201   5.905
 4145TIP3    H112378   4.473   6.236   5.832
 4145TIP3    H212379   4.376   6.125   5.869
 4146TIP3   OH212380   1.895   3.352   2.217
 4146TIP3    H112381   1.952   3.419   2.256
 4146TIP3    H212382   1.821   3.401   2.182
 4147TIP3   OH212383   6.459   4.062   3.627
 4147TIP3    H112384   6.501   4.119   3.563
 4147TIP3    H212385   6.451   3.978   3.582
 4148TIP3   OH212386   6.835   6.996   1.042
 4148TIP3    H112387   6.835   6.955   0.955
 4148TIP3    H212388   6.824   7.090   1.024
 4149TIP3   OH212389   6.747   2.833   1.924
 4149TIP3    H112390   6.834   2.868   1.909
 4149TIP3    H212391   6.715   2.810   1.836
 4150TIP3   OH212392   7.496   7.437   6.020
 4150TIP3    H112393   7.543   7.384   6.085
 4150TIP3    H212394   7.408   7.401   6.019
 4151TIP3   OH212395   6.861   6.220   6.119
 4151TIP3    H112396   6.891   6.310   6.121
 4151TIP3    H212397   6.905   6.180   6.044
 4152TIP3   OH212398   5.011   0.976   4.799
 4152TIP3    H112399   5.087   1.017   4.841
 4152TIP3    H212400   4.997   1.028   4.720
 4153TIP3   OH212401   5.036   5.018   3.918
 4153TIP3    H112402   5.113   5.035   3.863
 4153TIP3    H212403   5.058   4.937   3.965
 4154TIP3   OH212404   3.134   4.449   3.159
 4154TIP3    H112405   3.084   4.458   3.078
 4154TIP3    H212406   3.226   4.458   3.133
 4155TIP3   OH212407   3.671   7.042   6.146
 4155TIP3    H112408   3.740   7.107   6.159
 4155TIP3    H212409   3.593   7.081   6.185
 4156TIP3   OH212410   8.067   0.608   5.152
 4156TIP3    H112411   8.022   0.687   5.123
 4156TIP3    H212412   8.048   0.603   5.246
 4157TIP3   OH212413   6.382   4.168   6.037
 4157TIP3    H112414   6.348   4.085   6.070
 4157TIP3    H212415   6.367   4.230   6.109
 4158TIP3   OH212416   2.394   0.480   5.872
 4158TIP3    H112417   2.450   0.509   5.944
 4158TIP3    H212418   2.452   0.425   5.818
 4159TIP3   OH212419   3.567   1.412   4.095
 4159TIP3    H112420   3.546   1.378   4.008
 4159TIP3    H212421   3.491   1.465   4.119
 4160TIP3   OH212422   0.406   4.258   5.979
 4160TIP3    H112423   0.362   4.195   5.922
 4160TIP3    H212424   0.388   4.343   5.939
 4161TIP3   OH212425   4.789   4.614   1.563
 4161TIP3    H112426   4.734   4.693   1.560
 4161TIP3    H212427   4.741   4.554   1.619
 4162TIP3   OH212428   0.137   1.997   4.291
 4162TIP3    H112429   0.108   2.039   4.372
 4162TIP3    H212430   0.230   2.018   4.285
 4163TIP3   OH212431   1.664   6.284   4.281
 4163TIP3    H112432   1.750   6.320   4.302
 4163TIP3    H212433   1.673   6.250   4.192
 4164TIP3   OH212434   6.382   6.060   3.541
 4164TIP3    H112435   6.438   6.134   3.566
 4164TIP3    H212436   6.314   6.100   3.486
 4165TIP3   OH212437   5.648   5.895   6.252
 4165TIP3    H112438   5.662   5.988   6.234
 4165TIP3    H212439   5.736   5.857   6.254
 4166TIP3   OH212440   5.266   2.723   1.337
 4166TIP3    H112441   5.259   2.708   1.243
 4166TIP3    H212442   5.346   2.677   1.363
 4167TIP3   OH212443   4.088   7.597   0.840
 4167TIP3    H112444   4.118   7.515   0.879
 4167TIP3    H212445   4.158   7.659   0.858
 4168TIP3   OH212446   3.564   4.376   3.323
 4168TIP3    H112447   3.588   4.284   3.310
 4168TIP3    H212448   3.491   4.374   3.385
 4169TIP3   OH212449   7.288   5.445   0.074
 4169TIP3    H112450   7.197   5.460   0.047
 4169TIP3    H212451   7.281   5.394   0.155
 4170TIP3   OH212452   0.553   7.177   4.791
 4170TIP3    H112453   0.521   7.108   4.733
 4170TIP3    H212454   0.549   7.139   4.879
 4171TIP3   OH212455   5.873   3.037   1.623
 4171TIP3    H112456   5.886   2.973   1.693
 4171TIP3    H212457   5.855   2.984   1.546
 4172TIP3   OH212458   1.839   6.813   4.579
 4172TIP3    H112459   1.786   6.829   4.501
 4172TIP3    H212460   1.791   6.856   4.650
 4173TIP3   OH212461   4.027   2.468   6.517
 4173TIP3    H112462   3.990   2.413   6.449
 4173TIP3    H212463   4.005   2.423   6.599
 4174TIP3   OH212464   1.741   0.063   4.848
 4174TIP3    H112465   1.751   0.058   4.752
 4174TIP3    H212466   1.829   0.084   4.879
 4175TIP3   OH212467   2.686   3.127   5.637
 4175TIP3    H112468   2.733   3.185   5.697
 4175TIP3    H212469   2.657   3.185   5.566
 4176TIP3   OH212470   3.589   0.176   1.627
 4176TIP3    H112471   3.676   0.142   1.647
 4176TIP3    H212472   3.539   0.161   1.707
 4177TIP3   OH212473   7.287   4.631   3.601
 4177TIP3    H112474   7.210   4.646   3.545
 4177TIP3    H212475   7.353   4.692   3.567
 4178TIP3   OH212476   6.578   6.956   0.046
 4178TIP3    H112477   6.539   6.963   0.133
 4178TIP3    H212478   6.606   6.865   0.039
 4179TIP3   OH212479   5.633   3.424   5.366
 4179TIP3    H112480   5.567   3.372   5.321
 4179TIP3    H212481   5.583   3.483   5.422
 4180TIP3   OH212482   3.328   3.972   1.397
 4180TIP3    H112483   3.300   3.947   1.485
 4180TIP3    H212484   3.390   3.904   1.371
 4181TIP3   OH212485   3.578   4.866   0.831
 4181TIP3    H112486   3.613   4.949   0.799
 4181TIP3    H212487   3.498   4.890   0.877
 4182TIP3   OH212488   6.018   1.942   3.795
 4182TIP3    H112489   5.980   1.903   3.717
 4182TIP3    H212490   6.073   1.873   3.832
 4183TIP3   OH212491   3.933   0.254   5.370
 4183TIP3    H112492   3.962   0.164   5.351
 4183TIP3    H212493   3.909   0.289   5.285
 4184TIP3   OH212494   3.943   6.779   5.185
 4184TIP3    H112495   3.928   6.771   5.279
 4184TIP3    H212496   3.899   6.860   5.160
 4185TIP3   OH212497   8.150   1.222   2.516
 4185TIP3    H112498   8.163   1.165   2.591
 4185TIP3    H212499   8.214   1.292   2.528
 4186TIP3   OH212500   1.835   5.592   3.666
 4186TIP3    H112501   1.833   5.640   3.748
 4186TIP3    H212502   1.769   5.523   3.676
 4187TIP3   OH212503   6.597   6.154   1.744
 4187TIP3    H112504   6.633   6.151   1.833
 4187TIP3    H212505   6.528   6.220   1.749
 4188TIP3   OH212506   0.755   6.284   2.821
 4188TIP3    H112507   0.695   6.347   2.780
 4188TIP3    H212508   0.719   6.270   2.909
 4189TIP3   OH212509   7.124   7.598   1.314
 4189TIP3    H112510   7.195   7.575   1.373
 4189TIP3    H212511   7.146   7.554   1.231
 4190TIP3   OH212512   4.290   0.438   0.361
 4190TIP3    H112513   4.202   0.475   0.375
 4190TIP3    H212514   4.275   0.346   0.343
 4191TIP3   OH212515   0.292   1.358   4.463
 4191TIP3    H112516   0.237   1.317   4.396
 4191TIP3    H212517   0.342   1.424   4.415
 4192TIP3   OH212518   7.180   3.564   4.498
 4192TIP3    H112519   7.213   3.653   4.507
 4192TIP3    H212520   7.186   3.546   4.404
 4193TIP3   OH212521   2.700   7.446   4.504
 4193TIP3    H112522   2.649   7.399   4.569
 4193TIP3    H212523   2.644   7.518   4.476
 4194TIP3   OH212524   4.696   7.403   2.216
 4194TIP3    H112525   4.638   7.402   2.140
 4194TIP3    H212526   4.661   7.335   2.273
 4195TIP3   OH212527   1.528   5.296   6.456
 4195TIP3    H112528   1.465   5.250   6.512
 4195TIP3    H212529   1.505   5.270   6.367
 4196TIP3   OH212530   7.351   1.068   4.966
 4196TIP3    H112531   7.423   1.018   5.005
 4196TIP3    H212532   7.296   1.002   4.924
 4197TIP3   OH212533   3.852   4.730   2.135
 4197TIP3    H112534   3.784   4.787   2.171
 4197TIP3    H212535   3.925   4.739   2.196
 4198TIP3   OH212536   4.575   6.578   6.067
 4198TIP3    H112537   4.657   6.555   6.111
 4198TIP3    H212538   4.539   6.650   6.118
 4199TIP3   OH212539   3.301   5.085   0.025
 4199TIP3    H112540   3.384   5.112   0.064
 4199TIP3    H212541   3.303   5.122  -0.063
 4200TIP3   OH212542   5.561   0.521   4.865
 4200TIP3    H112543   5.546   0.458   4.935
 4200TIP3    H212544   5.557   0.469   4.785
 4201TIP3   OH212545   4.986   7.045   0.267
 4201TIP3    H112546   5.034   6.995   0.200
 4201TIP3    H212547   4.994   6.991   0.346
 4202TIP3   OH212548   3.953   0.977   2.543
 4202TIP3    H112549   3.923   0.893   2.509
 4202TIP3    H212550   3.983   1.025   2.465
 4203TIP3   OH212551   5.981   3.751   4.401
 4203TIP3    H112552   5.897   3.724   4.366
 4203TIP3    H212553   5.978   3.847   4.402
 4204TIP3   OH212554   1.233   4.803   2.233
 4204TIP3    H112555   1.222   4.841   2.321
 4204TIP3    H212556   1.297   4.733   2.245
 4205TIP3   OH212557   1.225   3.007   0.142
 4205TIP3    H112558   1.263   2.993   0.055
 4205TIP3    H212559   1.279   3.076   0.180
 4206TIP3   OH212560   3.953   5.491   4.240
 4206TIP3    H112561   3.884   5.468   4.178
 4206TIP3    H212562   4.010   5.551   4.192
 4207TIP3   OH212563   5.938   2.531   4.783
 4207TIP3    H112564   6.004   2.566   4.724
 4207TIP3    H212565   5.971   2.552   4.871
 4208TIP3   OH212566   7.222   2.314   4.997
 4208TIP3    H112567   7.304   2.322   4.948
 4208TIP3    H212568   7.161   2.274   4.935
 4209TIP3   OH212569   2.336   3.231   0.228
 4209TIP3    H112570   2.430   3.218   0.216
 4209TIP3    H212571   2.328   3.270   0.315
 4210TIP3   OH212572   6.374   0.755   0.662
 4210TIP3    H112573   6.296   0.779   0.713
 4210TIP3    H212574   6.341   0.699   0.592
 4211TIP3   OH212575   7.860   2.997   2.239
 4211TIP3    H112576   7.862   3.022   2.147
 4211TIP3    H212577   7.771   2.962   2.252
 4212TIP3   OH212578   4.980   1.535   1.428
 4212TIP3    H112579   5.057   1.489   1.395
 4212TIP3    H212580   4.989   1.624   1.394
 4213TIP3   OH212581   6.127   4.736   2.771
 4213TIP3    H112582   6.209   4.695   2.798
 4213TIP3    H212583   6.114   4.808   2.833
 4214TIP3   OH212584   5.709   2.420   4.868
 4214TIP3    H112585   5.790   2.436   4.819
 4214TIP3    H212586   5.705   2.325   4.879
 4215TIP3   OH212587   3.241   3.124   2.846
 4215TIP3    H112588   3.273   3.090   2.762
 4215TIP3    H212589   3.290   3.075   2.912
 4216TIP3   OH212590   5.017   6.855   6.097
 4216TIP3    H112591   5.070   6.791   6.048
 4216TIP3    H212592   4.929   6.846   6.061
 4217TIP3   OH212593   7.626   7.467   4.199
 4217TIP3    H112594   7.591   7.424   4.121
 4217TIP3    H212595   7.565   7.444   4.269
 4218TIP3   OH212596   7.129   2.555   6.548
 4218TIP3    H112597   7.196   2.583   6.486
 4218TIP3    H212598   7.151   2.600   6.630
 4219TIP3   OH212599   1.846   1.324   4.545
 4219TIP3    H112600   1.857   1.382   4.620
 4219TIP3    H212601   1.788   1.373   4.486
 4220TIP3   OH212602   8.116   3.013   4.694
 4220TIP3    H112603   8.132   2.939   4.634
 4220TIP3    H212604   8.168   3.085   4.657
 4221TIP3   OH212605   3.546   2.546   4.993
 4221TIP3    H112606   3.599   2.570   5.069
 4221TIP3    H212607   3.607   2.553   4.919
 4222TIP3   OH212608   1.185   2.892   4.328
 4222TIP3    H112609   1.167   2.972   4.278
 4222TIP3    H212610   1.279   2.880   4.320
 4223TIP3   OH212611   5.568   2.807   5.315
 4223TIP3    H112612   5.517   2.873   5.267
 4223TIP3    H212613   5.592   2.851   5.397
 4224TIP3   OH212614   4.847   4.267   5.480
 4224TIP3    H112615   4.901   4.343   5.459
 4224TIP3    H212616   4.879   4.238   5.566
 4225TIP3   OH212617   1.394   6.328   6.726
 4225TIP3    H112618   1.406   6.379   6.806
 4225TIP3    H212619   1.299   6.321   6.716
 4226TIP3   OH212620   4.498   1.759   3.864
 4226TIP3    H112621   4.583   1.776   3.823
 4226TIP3    H212622   4.483   1.666   3.851
 4227TIP3   OH212623   5.479   3.719   3.149
 4227TIP3    H112624   5.550   3.781   3.130
 4227TIP3    H212625   5.421   3.725   3.073
 4228TIP3   OH212626   5.566   3.543   2.151
 4228TIP3    H112627   5.588   3.586   2.068
 4228TIP3    H212628   5.529   3.458   2.125
 4229TIP3   OH212629   2.090   6.165   1.794
 4229TIP3    H112630   2.040   6.084   1.784
 4229TIP3    H212631   2.109   6.193   1.705
 4230TIP3   OH212632   3.020   6.591   2.496
 4230TIP3    H112633   2.959   6.650   2.451
 4230TIP3    H212634   3.008   6.506   2.452
 4231TIP3   OH212635   1.037   3.201   3.544
 4231TIP3    H112636   1.039   3.204   3.449
 4231TIP3    H212637   0.995   3.117   3.565
 4232TIP3   OH212638   4.069   5.910   2.860
 4232TIP3    H112639   4.020   5.938   2.938
 4232TIP3    H212640   4.085   5.817   2.874
 4233TIP3   OH212641   3.925   1.940   2.241
 4233TIP3    H112642   3.833   1.938   2.216
 4233TIP3    H212643   3.930   2.006   2.310
 4234TIP3   OH212644   0.536   2.344   4.337
 4234TIP3    H112645   0.547   2.392   4.254
 4234TIP3    H212646   0.611   2.370   4.389
 4235TIP3   OH212647   4.306   7.413   1.385
 4235TIP3    H112648   4.385   7.359   1.387
 4235TIP3    H212649   4.302   7.447   1.296
 4236TIP3   OH212650   6.509   5.368   6.123
 4236TIP3    H112651   6.457   5.435   6.167
 4236TIP3    H212652   6.599   5.398   6.133
 4237TIP3   OH212653   6.779   6.809   3.713
 4237TIP3    H112654   6.686   6.807   3.735
 4237TIP3    H212655   6.823   6.808   3.798
 4238TIP3   OH212656   3.847   1.223   0.217
 4238TIP3    H112657   3.799   1.177   0.148
 4238TIP3    H212658   3.908   1.280   0.171
 4239TIP3   OH212659   2.693   3.257   0.597
 4239TIP3    H112660   2.736   3.332   0.636
 4239TIP3    H212661   2.660   3.206   0.671
 4240TIP3   OH212662   1.480   6.459   6.187
 4240TIP3    H112663   1.461   6.461   6.281
 4240TIP3    H212664   1.526   6.541   6.170
 4241TIP3   OH212665   5.789   5.429   6.275
 4241TIP3    H112666   5.837   5.398   6.199
 4241TIP3    H212667   5.854   5.438   6.344
 4242TIP3   OH212668   5.340   1.283   3.259
 4242TIP3    H112669   5.417   1.284   3.316
 4242TIP3    H212670   5.336   1.371   3.222
 4243TIP3   OH212671   4.780   0.935   4.405
 4243TIP3    H112672   4.742   0.894   4.483
 4243TIP3    H212673   4.735   1.019   4.398
 4244TIP3   OH212674   5.918   5.807   4.342
 4244TIP3    H112675   5.877   5.879   4.294
 4244TIP3    H212676   5.944   5.744   4.274
 4245TIP3   OH212677   7.816   7.625   5.199
 4245TIP3    H112678   7.744   7.657   5.144
 4245TIP3    H212679   7.883   7.693   5.193
 4246TIP3   OH212680   7.862   1.056   5.821
 4246TIP3    H112681   7.815   1.055   5.738
 4246TIP3    H212682   7.893   0.966   5.832
 4247TIP3   OH212683   1.680   7.698   0.176
 4247TIP3    H112684   1.727   7.782   0.177
 4247TIP3    H212685   1.748   7.632   0.191
 4248TIP3   OH212686   7.044   4.569   4.755
 4248TIP3    H112687   7.069   4.574   4.662
 4248TIP3    H212688   7.126   4.582   4.802
 4249TIP3   OH212689   4.372   6.654   3.609
 4249TIP3    H112690   4.301   6.594   3.584
 4249TIP3    H212691   4.428   6.603   3.667
 4250TIP3   OH212692   8.046   7.376   5.996
 4250TIP3    H112693   7.966   7.412   6.034
 4250TIP3    H212694   8.115   7.399   6.058
 4251TIP3   OH212695   3.092   4.250   5.582
 4251TIP3    H112696   3.032   4.227   5.510
 4251TIP3    H212697   3.064   4.337   5.610
 4252TIP3   OH212698   5.786   6.772   3.331
 4252TIP3    H112699   5.856   6.776   3.266
 4252TIP3    H212700   5.791   6.857   3.376
 4253TIP3   OH212701   5.332   6.867   4.548
 4253TIP3    H112702   5.372   6.891   4.465
 4253TIP3    H212703   5.398   6.814   4.593
 4254TIP3   OH212704   0.872   2.521   5.639
 4254TIP3    H112705   0.826   2.438   5.652
 4254TIP3    H212706   0.866   2.537   5.545
 4255TIP3   OH212707   5.968   3.430   2.060
 4255TIP3    H112708   6.039   3.388   2.109
 4255TIP3    H212709   5.924   3.484   2.125
 4256TIP3   OH212710   1.856   4.378   2.150
 4256TIP3    H112711   1.760   4.381   2.142
 4256TIP3    H212712   1.873   4.297   2.199
 4257TIP3   OH212713   3.237   4.110   1.859
 4257TIP3    H112714   3.282   4.193   1.876
 4257TIP3    H212715   3.146   4.127   1.881
 4258TIP3   OH212716   7.842   4.303   3.823
 4258TIP3    H112717   7.807   4.280   3.737
 4258TIP3    H212718   7.888   4.385   3.809
 4259TIP3   OH212719   1.989   0.142   2.371
 4259TIP3    H112720   1.898   0.116   2.356
 4259TIP3    H212721   2.041   0.081   2.318
 4260TIP3   OH212722   3.320   5.034   6.285
 4260TIP3    H112723   3.363   4.949   6.277
 4260TIP3    H212724   3.392   5.097   6.296
 4261TIP3   OH212725   5.394   2.158   4.826
 4261TIP3    H112726   5.315   2.186   4.873
 4261TIP3    H212727   5.364   2.089   4.767
 4262TIP3   OH212728   8.171   7.538   4.498
 4262TIP3    H112729   8.076   7.549   4.501
 4262TIP3    H212730   8.188   7.496   4.414
 4263TIP3   OH212731   4.504   6.553   0.643
 4263TIP3    H112732   4.525   6.510   0.560
 4263TIP3    H212733   4.455   6.631   0.618
 4264TIP3   OH212734   3.919   2.018   1.052
 4264TIP3    H112735   3.852   2.082   1.078
 4264TIP3    H212736   3.884   1.977   0.973
 4265TIP3   OH212737   2.963   0.970   5.720
 4265TIP3    H112738   2.894   1.017   5.766
 4265TIP3    H212739   2.946   0.985   5.627
 4266TIP3   OH212740   3.690   0.174   4.451
 4266TIP3    H112741   3.773   0.130   4.432
 4266TIP3    H212742   3.688   0.249   4.391
 4267TIP3   OH212743   5.245   4.475   6.605
 4267TIP3    H112744   5.333   4.483   6.641
 4267TIP3    H212745   5.187   4.494   6.678
 4268TIP3   OH212746   3.634   0.561   1.503
 4268TIP3    H112747   3.555   0.507   1.492
 4268TIP3    H212748   3.666   0.540   1.591
 4269TIP3   OH212749   4.920   2.503   1.926
 4269TIP3    H112750   4.953   2.521   1.838
 4269TIP3    H212751   4.994   2.520   1.984
 4270TIP3   OH212752   6.284   3.759   2.250
 4270TIP3    H112753   6.364   3.792   2.292
 4270TIP3    H212754   6.267   3.675   2.292
 4271TIP3   OH212755   4.876   4.750   5.836
 4271TIP3    H112756   4.861   4.661   5.805
 4271TIP3    H212757   4.916   4.795   5.762
 4272TIP3   OH212758   3.486   4.602   2.753
 4272TIP3    H112759   3.527   4.520   2.727
 4272TIP3    H212760   3.507   4.663   2.682
 4273TIP3   OH212761   7.008   1.337   4.308
 4273TIP3    H112762   7.104   1.336   4.314
 4273TIP3    H212763   6.981   1.395   4.379
 4274TIP3   OH212764   3.203   3.847   0.638
 4274TIP3    H112765   3.189   3.833   0.732
 4274TIP3    H212766   3.281   3.903   0.634
 4275TIP3   OH212767   2.918   6.911   2.612
 4275TIP3    H112768   2.926   7.005   2.598
 4275TIP3    H212769   2.907   6.901   2.707
 4276TIP3   OH212770   5.354   0.069   0.360
 4276TIP3    H112771   5.419  -0.001   0.359
 4276TIP3    H212772   5.355   0.104   0.271
 4277TIP3   OH212773   6.542   0.783   3.309
 4277TIP3    H112774   6.627   0.807   3.272
 4277TIP3    H212775   6.544   0.687   3.313
 4278TIP3   OH212776   7.929   4.368   6.569
 4278TIP3    H112777   7.882   4.319   6.501
 4278TIP3    H212778   7.973   4.439   6.521
 4279TIP3   OH212779   0.142   5.455   3.139
 4279TIP3    H112780   0.093   5.395   3.082
 4279TIP3    H212781   0.087   5.463   3.218
 4280TIP3   OH212782   7.827   4.142   2.722
 4280TIP3    H112783   7.854   4.170   2.635
 4280TIP3    H212784   7.749   4.088   2.707
 4281TIP3   OH212785   6.652   5.310   4.038
 4281TIP3    H112786   6.673   5.385   4.094
 4281TIP3    H212787   6.666   5.234   4.094
 4282TIP3   OH212788   7.440   7.329   2.784
 4282TIP3    H112789   7.408   7.252   2.831
 4282TIP3    H212790   7.518   7.299   2.738
 4283TIP3   OH212791   5.292   7.355   5.952
 4283TIP3    H112792   5.262   7.415   5.884
 4283TIP3    H212793   5.301   7.271   5.908
 4284TIP3   OH212794   3.454   2.168   2.439
 4284TIP3    H112795   3.389   2.141   2.504
 4284TIP3    H212796   3.425   2.255   2.410
 4285TIP3   OH212797   4.957   3.896   4.841
 4285TIP3    H112798   4.911   3.841   4.777
 4285TIP3    H212799   4.988   3.971   4.790
 4286TIP3   OH212800   6.534   5.984   0.423
 4286TIP3    H112801   6.599   6.009   0.357
 4286TIP3    H212802   6.495   6.066   0.451
 4287TIP3   OH212803   7.248   7.357   5.316
 4287TIP3    H112804   7.330   7.360   5.268
 4287TIP3    H212805   7.214   7.446   5.311
 4288TIP3   OH212806   7.111   5.965   0.457
 4288TIP3    H112807   7.178   6.032   0.470
 4288TIP3    H212808   7.137   5.893   0.515
 4289TIP3   OH212809   1.460   3.661   5.616
 4289TIP3    H112810   1.524   3.732   5.605
 4289TIP3    H212811   1.404   3.668   5.539
 4290TIP3   OH212812   1.495   2.449   1.732
 4290TIP3    H112813   1.436   2.524   1.739
 4290TIP3    H212814   1.471   2.392   1.805
 4291TIP3   OH212815   4.200   2.719   2.665
 4291TIP3    H112816   4.151   2.785   2.713
 4291TIP3    H212817   4.284   2.760   2.645
 4292TIP3   OH212818   3.910   1.665   6.679
 4292TIP3    H112819   3.882   1.747   6.722
 4292TIP3    H212820   3.955   1.694   6.600
 4293TIP3   OH212821   4.218   2.472   3.673
 4293TIP3    H112822   4.144   2.463   3.613
 4293TIP3    H212823   4.185   2.526   3.745
 4294TIP3   OH212824   0.611   1.518   2.924
 4294TIP3    H112825   0.612   1.433   2.882
 4294TIP3    H212826   0.611   1.499   3.018
 4295TIP3   OH212827   3.072   2.249   4.964
 4295TIP3    H112828   3.121   2.305   5.025
 4295TIP3    H212829   3.080   2.292   4.880
 4296TIP3   OH212830   3.052   2.865   0.462
 4296TIP3    H112831   2.984   2.918   0.503
 4296TIP3    H212832   3.017   2.776   0.462
 4297TIP3   OH212833   5.605   0.445   2.226
 4297TIP3    H112834   5.631   0.445   2.134
 4297TIP3    H212835   5.526   0.391   2.229
 4298TIP3   OH212836   5.737   1.160   0.177
 4298TIP3    H112837   5.756   1.154   0.270
 4298TIP3    H212838   5.709   1.250   0.163
 4299TIP3   OH212839   1.417   5.640   4.943
 4299TIP3    H112840   1.337   5.614   4.988
 4299TIP3    H212841   1.486   5.588   4.985
 4300TIP3   OH212842   1.475   3.404   4.314
 4300TIP3    H112843   1.521   3.347   4.375
 4300TIP3    H212844   1.452   3.348   4.240
 4301TIP3   OH212845   7.597   6.923   5.873
 4301TIP3    H112846   7.610   6.840   5.827
 4301TIP3    H212847   7.668   6.926   5.938
 4302TIP3   OH212848   0.655   1.769   5.296
 4302TIP3    H112849   0.645   1.817   5.378
 4302TIP3    H212850   0.749   1.766   5.281
 4303TIP3   OH212851   5.404   6.340   1.887
 4303TIP3    H112852   5.489   6.309   1.918
 4303TIP3    H212853   5.405   6.325   1.793
 4304TIP3   OH212854   2.168   5.981   4.549
 4304TIP3    H112855   2.078   6.006   4.567
 4304TIP3    H212856   2.188   5.912   4.612
 4305TIP3   OH212857   7.296   5.376   0.897
 4305TIP3    H112858   7.337   5.291   0.913
 4305TIP3    H212859   7.286   5.415   0.984
 4306TIP3   OH212860   5.073   1.287   3.411
 4306TIP3    H112861   5.084   1.341   3.490
 4306TIP3    H212862   5.162   1.269   3.381
 4307TIP3   OH212863   7.393   3.709   3.692
 4307TIP3    H112864   7.309   3.748   3.717
 4307TIP3    H212865   7.407   3.738   3.601
 4308TIP3   OH212866   6.801   5.543   1.907
 4308TIP3    H112867   6.738   5.471   1.909
 4308TIP3    H212868   6.876   5.508   1.860
 4309TIP3   OH212869   6.662   3.029   3.894
 4309TIP3    H112870   6.710   3.034   3.811
 4309TIP3    H212871   6.700   2.953   3.938
 4310TIP3   OH212872   0.838   6.313   0.519
 4310TIP3    H112873   0.859   6.396   0.562
 4310TIP3    H212874   0.757   6.331   0.471
 4311TIP3   OH212875   1.420   6.168   0.288
 4311TIP3    H112876   1.356   6.172   0.359
 4311TIP3    H212877   1.427   6.075   0.266
 4312TIP3   OH212878   6.622   2.337   3.759
 4312TIP3    H112879   6.675   2.395   3.815
 4312TIP3    H212880   6.555   2.394   3.723
 4313TIP3   OH212881   4.773   1.285   0.323
 4313TIP3    H112882   4.684   1.315   0.301
 4313TIP3    H212883   4.830   1.344   0.273
 4314TIP3   OH212884   1.446   1.296   1.617
 4314TIP3    H112885   1.463   1.390   1.604
 4314TIP3    H212886   1.511   1.269   1.682
 4315TIP3   OH212887   2.523   2.314   6.475
 4315TIP3    H112888   2.545   2.363   6.396
 4315TIP3    H212889   2.607   2.282   6.508
 4316TIP3   OH212890   7.115   2.706   4.218
 4316TIP3    H112891   7.119   2.709   4.122
 4316TIP3    H212892   7.192   2.756   4.246
 4317TIP3   OH212893   6.079   7.367   3.986
 4317TIP3    H112894   6.147   7.387   3.922
 4317TIP3    H212895   6.044   7.453   4.011
 4318TIP3   OH212896   2.032   1.791   4.723
 4318TIP3    H112897   1.964   1.793   4.791
 4318TIP3    H212898   1.986   1.813   4.643
 4319TIP3   OH212899   0.056   6.552   5.306
 4319TIP3    H112900   0.073   6.603   5.386
 4319TIP3    H212901   0.132   6.494   5.299
 4320TIP3   OH212902   2.695   2.786   3.656
 4320TIP3    H112903   2.679   2.693   3.671
 4320TIP3    H212904   2.782   2.790   3.618
 4321TIP3   OH212905   4.913   1.166   4.605
 4321TIP3    H112906   4.946   1.099   4.545
 4321TIP3    H212907   4.831   1.196   4.565
 4322TIP3   OH212908   6.051   2.028   5.577
 4322TIP3    H112909   6.067   2.023   5.483
 4322TIP3    H212910   5.960   2.000   5.587
 4323TIP3   OH212911   4.639   0.461   6.199
 4323TIP3    H112912   4.606   0.371   6.199
 4323TIP3    H212913   4.651   0.483   6.107
 4324TIP3   OH212914   5.026   5.113   4.288
 4324TIP3    H112915   5.111   5.074   4.267
 4324TIP3    H212916   5.017   5.185   4.226
 4325TIP3   OH212917   4.833   4.592   0.683
 4325TIP3    H112918   4.895   4.664   0.685
 4325TIP3    H212919   4.808   4.584   0.591
 4326TIP3   OH212920   3.606   5.202   0.328
 4326TIP3    H112921   3.515   5.173   0.335
 4326TIP3    H212922   3.638   5.162   0.248
 4327TIP3   OH212923   1.352   6.880   4.351
 4327TIP3    H112924   1.299   6.807   4.384
 4327TIP3    H212925   1.372   6.856   4.260
 4328TIP3   OH212926   0.571   5.678   6.085
 4328TIP3    H112927   0.616   5.705   6.165
 4328TIP3    H212928   0.641   5.650   6.026
 4329TIP3   OH212929   2.717   2.769   2.931
 4329TIP3    H112930   2.796   2.728   2.898
 4329TIP3    H212931   2.690   2.714   3.005
 4330TIP3   OH212932   6.663   6.964   5.626
 4330TIP3    H112933   6.650   6.943   5.718
 4330TIP3    H212934   6.575   6.971   5.590
 4331TIP3   OH212935   3.976   0.352   6.163
 4331TIP3    H112936   4.058   0.313   6.132
 4331TIP3    H212937   3.907   0.302   6.119
 4332TIP3   OH212938   3.467   3.678   0.344
 4332TIP3    H112939   3.505   3.590   0.355
 4332TIP3    H212940   3.504   3.729   0.416
 4333TIP3   OH212941   7.171   0.981   4.178
 4333TIP3    H112942   7.197   1.071   4.159
 4333TIP3    H212943   7.127   0.986   4.262
 4334TIP3   OH212944   8.154   6.680   4.016
 4334TIP3    H112945   8.215   6.658   3.946
 4334TIP3    H212946   8.069   6.653   3.983
 4335TIP3   OH212947   5.041   0.779   0.982
 4335TIP3    H112948   5.049   0.857   0.927
 4335TIP3    H212949   5.127   0.737   0.977
 4336TIP3   OH212950   6.899   5.737   0.110
 4336TIP3    H112951   6.939   5.678   0.175
 4336TIP3    H212952   6.806   5.739   0.135
 4337TIP3   OH212953   4.102   6.855   1.751
 4337TIP3    H112954   4.040   6.922   1.779
 4337TIP3    H212955   4.158   6.899   1.688
 4338TIP3   OH212956   5.058   2.378   4.755
 4338TIP3    H112957   5.097   2.464   4.765
 4338TIP3    H212958   4.971   2.387   4.794
 4339TIP3   OH212959   4.461   1.925   2.200
 4339TIP3    H112960   4.441   1.955   2.289
 4339TIP3    H212961   4.377   1.928   2.154
 4340TIP3   OH212962   1.264   6.142   2.862
 4340TIP3    H112963   1.184   6.187   2.836
 4340TIP3    H212964   1.272   6.069   2.800
 4341TIP3   OH212965   5.199   0.547   4.495
 4341TIP3    H112966   5.151   0.584   4.569
 4341TIP3    H212967   5.159   0.587   4.418
 4342TIP3   OH212968   1.289   3.402   0.504
 4342TIP3    H112969   1.305   3.399   0.599
 4342TIP3    H212970   1.230   3.476   0.492
 4343TIP3   OH212971   7.047   3.317   3.972
 4343TIP3    H112972   7.020   3.400   4.012
 4343TIP3    H212973   7.127   3.339   3.924
 4344TIP3   OH212974   8.163   1.490   2.211
 4344TIP3    H112975   8.233   1.425   2.222
 4344TIP3    H212976   8.084   1.445   2.238
 4345TIP3   OH212977   7.412   4.897   2.110
 4345TIP3    H112978   7.445   4.870   2.025
 4345TIP3    H212979   7.479   4.869   2.172
 4346TIP3   OH212980   0.767   6.035   4.012
 4346TIP3    H112981   0.817   6.046   4.093
 4346TIP3    H212982   0.831   6.050   3.942
 4347TIP3   OH212983   6.433   3.123   5.735
 4347TIP3    H112984   6.492   3.081   5.672
 4347TIP3    H212985   6.350   3.130   5.689
 4348TIP3   OH212986   6.306   3.535   4.078
 4348TIP3    H112987   6.288   3.442   4.065
 4348TIP3    H212988   6.307   3.546   4.173
 4349TIP3   OH212989   2.650   6.956   0.206
 4349TIP3    H112990   2.675   7.037   0.161
 4349TIP3    H212991   2.733   6.923   0.241
 4350TIP3   OH212992   1.285   1.191   3.875
 4350TIP3    H112993   1.283   1.258   3.806
 4350TIP3    H212994   1.327   1.116   3.833
 4351TIP3   OH212995   5.170   0.852   3.340
 4351TIP3    H112996   5.135   0.895   3.417
 4351TIP3    H212997   5.255   0.894   3.326
 4352TIP3   OH212998   6.008   7.343   1.976
 4352TIP3    H112999   5.960   7.262   1.958
 4352TIP3    H213000   6.029   7.378   1.890
 4353TIP3   OH213001   7.832   2.298   2.324
 4353TIP3    H113002   7.740   2.276   2.340
 4353TIP3    H213003   7.881   2.222   2.356
 4354TIP3   OH213004   4.460   6.914   1.832
 4354TIP3    H113005   4.418   6.829   1.820
 4354TIP3    H213006   4.535   6.896   1.887
 4355TIP3   OH213007   2.583   5.855   1.908
 4355TIP3    H113008   2.570   5.824   1.819
 4355TIP3    H213009   2.577   5.776   1.962
 4356TIP3   OH213010   5.388   7.511   4.194
 4356TIP3    H113011   5.467   7.468   4.228
 4356TIP3    H213012   5.422   7.580   4.137
 4357TIP3   OH213013   5.517   2.757   2.479
 4357TIP3    H113014   5.600   2.805   2.485
 4357TIP3    H213015   5.539   2.669   2.510
 4358TIP3   OH213016   1.105   6.552   5.039
 4358TIP3    H113017   1.061   6.635   5.060
 4358TIP3    H213018   1.198   6.575   5.035
 4359TIP3   OH213019   4.408   5.002   4.124
 4359TIP3    H113020   4.425   4.911   4.150
 4359TIP3    H213021   4.433   5.054   4.200
 4360TIP3   OH213022   2.318   0.208   4.392
 4360TIP3    H113023   2.254   0.230   4.325
 4360TIP3    H213024   2.323   0.285   4.448
 4361TIP3   OH213025   4.836   5.321   2.101
 4361TIP3    H113026   4.758   5.272   2.074
 4361TIP3    H213027   4.817   5.412   2.076
 4362TIP3   OH213028   0.548   0.926   1.242
 4362TIP3    H113029   0.552   0.839   1.282
 4362TIP3    H213030   0.634   0.965   1.259
 4363TIP3   OH213031   4.801   4.058   0.200
 4363TIP3    H113032   4.749   4.126   0.156
 4363TIP3    H213033   4.739   3.985   0.211
 4364TIP3   OH213034   6.142   4.863   2.270
 4364TIP3    H113035   6.059   4.835   2.310
 4364TIP3    H213036   6.183   4.782   2.240
 4365TIP3   OH213037   8.124   3.368   1.898
 4365TIP3    H113038   8.180   3.332   1.829
 4365TIP3    H213039   8.170   3.447   1.927
 4366TIP3   OH213040   1.769   1.842   5.793
 4366TIP3    H113041   1.723   1.903   5.850
 4366TIP3    H213042   1.798   1.772   5.851
 4367TIP3   OH213043   6.207   6.145   3.839
 4367TIP3    H113044   6.232   6.067   3.888
 4367TIP3    H213045   6.289   6.179   3.804
 4368TIP3   OH213046   1.453   7.723   5.262
 4368TIP3    H113047   1.495   7.692   5.342
 4368TIP3    H213048   1.414   7.644   5.223
 4369TIP3   OH213049   1.675   2.986   1.903
 4369TIP3    H113050   1.581   2.971   1.892
 4369TIP3    H213051   1.681   3.075   1.939
 4370TIP3   OH213052   5.542   3.354   6.263
 4370TIP3    H113053   5.631   3.379   6.288
 4370TIP3    H213054   5.494   3.437   6.258
 4371TIP3   OH213055   5.808   2.289   3.111
 4371TIP3    H113056   5.770   2.326   3.191
 4371TIP3    H213057   5.897   2.264   3.136
 4372TIP3   OH213058   3.145   5.789   0.770
 4372TIP3    H113059   3.118   5.877   0.743
 4372TIP3    H213060   3.238   5.798   0.789
 4373TIP3   OH213061   0.807   0.097   3.245
 4373TIP3    H113062   0.734   0.036   3.231
 4373TIP3    H213063   0.772   0.182   3.216
 4374TIP3   OH213064   8.218   4.018   4.738
 4374TIP3    H113065   8.174   3.937   4.710
 4374TIP3    H213066   8.210   4.018   4.833
 4375TIP3   OH213067   6.571   3.476   5.155
 4375TIP3    H113068   6.581   3.382   5.171
 4375TIP3    H213069   6.613   3.518   5.231
 4376TIP3   OH213070   6.517   0.005   5.114
 4376TIP3    H113071   6.450   0.016   5.182
 4376TIP3    H213072   6.487   0.061   5.042
 4377TIP3   OH213073   2.980   6.018   6.418
 4377TIP3    H113074   3.060   5.969   6.399
 4377TIP3    H213075   2.960   6.063   6.336
 4378TIP3   OH213076   8.008   2.527   0.405
 4378TIP3    H113077   7.929   2.577   0.387
 4378TIP3    H213078   8.076   2.594   0.419
 4379TIP3   OH213079   0.069   3.021   5.118
 4379TIP3    H113080   0.152   2.996   5.159
 4379TIP3    H213081   0.056   2.957   5.049
 4380TIP3   OH213082   2.756   6.962   6.215
 4380TIP3    H113083   2.732   6.880   6.258
 4380TIP3    H213084   2.845   6.947   6.182
 4381TIP3   OH213085   5.897   0.000   3.676
 4381TIP3    H113086   5.841   0.078   3.683
 4381TIP3    H213087   5.969   0.027   3.619
 4382TIP3   OH213088   1.125   4.874   5.459
 4382TIP3    H113089   1.182   4.885   5.534
 4382TIP3    H213090   1.079   4.791   5.475
 4383TIP3   OH213091   2.764   5.566   0.880
 4383TIP3    H113092   2.778   5.567   0.786
 4383TIP3    H213093   2.699   5.498   0.895
 4384TIP3   OH213094   1.574   6.732   0.688
 4384TIP3    H113095   1.583   6.798   0.619
 4384TIP3    H213096   1.541   6.655   0.643
 4385TIP3   OH213097   2.518   1.621   4.204
 4385TIP3    H113098   2.581   1.552   4.227
 4385TIP3    H213099   2.433   1.585   4.229
 4386TIP3   OH213100   4.168   1.632   2.302
 4386TIP3    H113101   4.085   1.648   2.257
 4386TIP3    H213102   4.156   1.547   2.344
 4387TIP3   OH213103   6.604   0.708   0.319
 4387TIP3    H113104   6.629   0.622   0.353
 4387TIP3    H213105   6.520   0.693   0.274
 4388TIP3   OH213106   0.379   0.374   0.450
 4388TIP3    H113107   0.368   0.294   0.502
 4388TIP3    H213108   0.290   0.410   0.442
 4389TIP3   OH213109   5.343   2.989   2.457
 4389TIP3    H113110   5.388   2.920   2.506
 4389TIP3    H213111   5.265   2.947   2.422
 4390TIP3   OH213112   0.465   0.654   5.204
 4390TIP3    H113113   0.504   0.637   5.290
 4390TIP3    H213114   0.503   0.737   5.176
 4391TIP3   OH213115   4.687   2.239   1.284
 4391TIP3    H113116   4.603   2.234   1.237
 4391TIP3    H213117   4.749   2.272   1.219
 4392TIP3   OH213118   2.729   5.413   1.221
 4392TIP3    H113119   2.739   5.319   1.203
 4392TIP3    H213120   2.809   5.452   1.186
 4393TIP3   OH213121   2.314   6.568   5.466
 4393TIP3    H113122   2.280   6.541   5.551
 4393TIP3    H213123   2.375   6.499   5.441
 4394TIP3   OH213124   5.809   6.310   1.700
 4394TIP3    H113125   5.753   6.386   1.717
 4394TIP3    H213126   5.836   6.319   1.609
 4395TIP3   OH213127   6.690   5.140   4.281
 4395TIP3    H113128   6.724   5.059   4.242
 4395TIP3    H213129   6.682   5.120   4.374
 4396TIP3   OH213130   0.627   6.886   3.524
 4396TIP3    H113131   0.655   6.973   3.550
 4396TIP3    H213132   0.691   6.858   3.459
 4397TIP3   OH213133   5.050   1.718   0.660
 4397TIP3    H113134   4.958   1.693   0.667
 4397TIP3    H213135   5.050   1.797   0.606
 4398TIP3   OH213136   0.326   0.117   3.692
 4398TIP3    H113137   0.316   0.022   3.703
 4398TIP3    H213138   0.404   0.127   3.637
 4399TIP3   OH213139   6.441   7.282   0.591
 4399TIP3    H113140   6.370   7.285   0.655
 4399TIP3    H213141   6.408   7.330   0.515
 4400TIP3   OH213142   6.586   7.669   5.278
 4400TIP3    H113143   6.634   7.690   5.198
 4400TIP3    H213144   6.533   7.747   5.295
 4401TIP3   OH213145   0.875   3.520   1.214
 4401TIP3    H113146   0.918   3.511   1.129
 4401TIP3    H213147   0.840   3.433   1.232
 4402TIP3   OH213148   2.150   3.023   5.789
 4402TIP3    H113149   2.228   2.979   5.821
 4402TIP3    H213150   2.119   2.968   5.717
 4403TIP3   OH213151   0.664   0.391   5.969
 4403TIP3    H113152   0.735   0.338   5.933
 4403TIP3    H213153   0.604   0.328   6.008
 4404TIP3   OH213154   2.614   0.713   2.965
 4404TIP3    H113155   2.588   0.621   2.966
 4404TIP3    H213156   2.694   0.716   2.912
 4405TIP3   OH213157   0.363   4.636   1.342
 4405TIP3    H113158   0.370   4.540   1.337
 4405TIP3    H213159   0.272   4.654   1.319
 4406TIP3   OH213160   8.088   2.599   6.493
 4406TIP3    H113161   8.108   2.677   6.546
 4406TIP3    H213162   8.124   2.618   6.407
 4407TIP3   OH213163   7.889   2.807   4.314
 4407TIP3    H113164   7.872   2.901   4.321
 4407TIP3    H213165   7.803   2.767   4.328
 4408TIP3   OH213166   7.804   2.506   2.992
 4408TIP3    H113167   7.894   2.475   2.995
 4408TIP3    H213168   7.810   2.598   2.967
 4409TIP3   OH213169   7.996   3.807   3.792
 4409TIP3    H113170   8.076   3.833   3.746
 4409TIP3    H213171   7.944   3.887   3.796
 4410TIP3   OH213172   8.118   1.959   1.317
 4410TIP3    H113173   8.203   2.000   1.335
 4410TIP3    H213174   8.079   2.014   1.250
 4411TIP3   OH213175   6.684   4.636   3.719
 4411TIP3    H113176   6.698   4.586   3.800
 4411TIP3    H213177   6.632   4.578   3.664
 4412TIP3   OH213178   6.476   5.989   6.230
 4412TIP3    H113179   6.390   6.022   6.205
 4412TIP3    H213180   6.534   6.065   6.227
 4413TIP3   OH213181   7.362   0.002   5.624
 4413TIP3    H113182   7.343   0.066   5.693
 4413TIP3    H213183   7.325   0.042   5.545
 4414TIP3   OH213184   5.286   0.491   3.307
 4414TIP3    H113185   5.235   0.443   3.242
 4414TIP3    H213186   5.225   0.505   3.380
 4415TIP3   OH213187   2.563   0.843   4.045
 4415TIP3    H113188   2.569   0.761   3.997
 4415TIP3    H213189   2.638   0.842   4.104
 4416TIP3   OH213190   1.852   7.499   3.691
 4416TIP3    H113191   1.779   7.559   3.678
 4416TIP3    H213192   1.819   7.414   3.663
 4417TIP3   OH213193   5.026   1.603   3.102
 4417TIP3    H113194   4.972   1.655   3.162
 4417TIP3    H213195   4.989   1.619   3.016
 4418TIP3   OH213196   1.514   3.912   2.824
 4418TIP3    H113197   1.474   3.969   2.889
 4418TIP3    H213198   1.608   3.931   2.830
 4419TIP3   OH213199   4.510   6.233   6.551
 4419TIP3    H113200   4.451   6.162   6.529
 4419TIP3    H213201   4.520   6.227   6.646
 4420TIP3   OH213202   3.689   4.705   5.434
 4420TIP3    H113203   3.723   4.616   5.446
 4420TIP3    H213204   3.594   4.695   5.441
 4421TIP3   OH213205   2.778   2.414   6.729
 4421TIP3    H113206   2.871   2.426   6.714
 4421TIP3    H213207   2.766   2.319   6.734
 4422TIP3   OH213208   3.771   7.639   2.217
 4422TIP3    H113209   3.807   7.559   2.254
 4422TIP3    H213210   3.794   7.634   2.124
 4423TIP3   OH213211   7.003   5.314   3.422
 4423TIP3    H113212   6.947   5.355   3.488
 4423TIP3    H213213   6.986   5.220   3.433
 4424TIP3   OH213214   0.775   5.910   4.335
 4424TIP3    H113215   0.747   5.986   4.387
 4424TIP3    H213216   0.848   5.943   4.283
 4425TIP3   OH213217   5.324   3.781   1.006
 4425TIP3    H113218   5.344   3.821   1.091
 4425TIP3    H213219   5.389   3.711   0.997
 4426TIP3   OH213220   0.383   0.401   0.138
 4426TIP3    H113221   0.401   0.350   0.217
 4426TIP3    H213222   0.463   0.391   0.085
 4427TIP3   OH213223   1.554   0.608   6.619
 4427TIP3    H113224   1.524   0.561   6.542
 4427TIP3    H213225   1.474   0.630   6.667
 4428TIP3   OH213226   1.054   5.718   3.315
 4428TIP3    H113227   1.095   5.632   3.305
 4428TIP3    H213228   1.127   5.779   3.320
 4429TIP3   OH213229   4.214   7.724   4.333
 4429TIP3    H113230   4.161   7.794   4.372
 4429TIP3    H213231   4.177   7.713   4.245
 4430TIP3   OH213232   5.781   5.350   4.972
 4430TIP3    H113233   5.868   5.339   4.934
 4430TIP3    H213234   5.771   5.275   5.030
 4431TIP3   OH213235   3.240   3.536   4.393
 4431TIP3    H113236   3.159   3.527   4.442
 4431TIP3    H213237   3.218   3.509   4.304
 4432TIP3   OH213238   7.505   3.768   4.514
 4432TIP3    H113239   7.586   3.806   4.481
 4432TIP3    H213240   7.499   3.683   4.471
 4433TIP3   OH213241   6.281   4.489   3.581
 4433TIP3    H113242   6.259   4.396   3.579
 4433TIP3    H213243   6.366   4.492   3.626
 4434TIP3   OH213244   2.543   7.431   0.211
 4434TIP3    H113245   2.519   7.390   0.294
 4434TIP3    H213246   2.624   7.478   0.230
 4435TIP3   OH213247   3.922   1.220   4.633
 4435TIP3    H113248   3.981   1.170   4.577
 4435TIP3    H213249   3.848   1.242   4.576
 4436TIP3   OH213250   0.092   2.042   1.324
 4436TIP3    H113251   0.083   2.121   1.378
 4436TIP3    H213252   0.153   2.067   1.255
 4437TIP3   OH213253   8.222   4.603   6.185
 4437TIP3    H113254   8.133   4.579   6.157
 4437TIP3    H213255   8.214   4.621   6.278
 4438TIP3   OH213256   5.025   7.774   5.925
 4438TIP3    H113257   4.988   7.862   5.921
 4438TIP3    H213258   5.118   7.788   5.942
 4439TIP3   OH213259   6.014   5.887   1.218
 4439TIP3    H113260   6.088   5.827   1.208
 4439TIP3    H213261   6.022   5.921   1.307
 4440TIP3   OH213262   6.955   6.904   6.538
 4440TIP3    H113263   6.919   6.924   6.625
 4440TIP3    H213264   6.878   6.888   6.483
 4441TIP3   OH213265   3.572   3.092   4.364
 4441TIP3    H113266   3.655   3.139   4.362
 4441TIP3    H213267   3.547   3.091   4.456
 4442TIP3   OH213268   8.218   3.319   2.492
 4442TIP3    H113269   8.308   3.317   2.461
 4442TIP3    H213270   8.165   3.298   2.415
 4443TIP3   OH213271   4.398   3.654   2.537
 4443TIP3    H113272   4.358   3.689   2.458
 4443TIP3    H213273   4.354   3.699   2.609
 4444TIP3   OH213274   2.629   2.540   2.488
 4444TIP3    H113275   2.639   2.541   2.583
 4444TIP3    H213276   2.695   2.601   2.456
 4445TIP3   OH213277   1.305   4.758   1.532
 4445TIP3    H113278   1.363   4.711   1.472
 4445TIP3    H213279   1.313   4.850   1.506
 4446TIP3   OH213280   5.283   1.907   4.718
 4446TIP3    H113281   5.339   1.835   4.690
 4446TIP3    H213282   5.255   1.949   4.636
 4447TIP3   OH213283   4.548   5.061   0.291
 4447TIP3    H113284   4.551   5.048   0.385
 4447TIP3    H213285   4.625   5.014   0.258
 4448TIP3   OH213286   4.402   5.240   6.506
 4448TIP3    H113287   4.432   5.150   6.515
 4448TIP3    H213288   4.309   5.237   6.530
 4449TIP3   OH213289   1.751   0.385   5.920
 4449TIP3    H113290   1.688   0.417   5.855
 4449TIP3    H213291   1.738   0.290   5.922
 4450TIP3   OH213292   2.119   3.189   1.117
 4450TIP3    H113293   2.051   3.191   1.049
 4450TIP3    H213294   2.086   3.245   1.186
 4451TIP3   OH213295   6.957   3.978   2.755
 4451TIP3    H113296   7.036   3.950   2.708
 4451TIP3    H213297   6.885   3.942   2.704
 4452TIP3   OH213298   3.029   6.145   0.431
 4452TIP3    H113299   2.980   6.064   0.416
 4452TIP3    H213300   3.007   6.200   0.356
 4453TIP3   OH213301   1.069   5.024   4.983
 4453TIP3    H113302   1.030   5.004   4.897
 4453TIP3    H213303   1.028   5.106   5.009
 4454TIP3   OH213304   1.299   6.972   0.436
 4454TIP3    H113305   1.279   7.054   0.390
 4454TIP3    H213306   1.279   6.991   0.527
 4455TIP3   OH213307   7.102   2.431   6.134
 4455TIP3    H113308   7.118   2.342   6.166
 4455TIP3    H213309   7.070   2.478   6.211
 4456TIP3   OH213310   3.548   5.274   4.194
 4456TIP3    H113311   3.581   5.353   4.151
 4456TIP3    H213312   3.618   5.248   4.253
 4457TIP3   OH213313   1.408   0.708   3.524
 4457TIP3    H113314   1.413   0.803   3.530
 4457TIP3    H213315   1.314   0.690   3.517
 4458TIP3   OH213316   3.915   0.301   5.115
 4458TIP3    H113317   3.962   0.375   5.077
 4458TIP3    H213318   3.903   0.240   5.042
 4459TIP3   OH213319   7.966   4.899   6.599
 4459TIP3    H113320   7.895   4.850   6.642
 4459TIP3    H213321   8.042   4.842   6.609
 4460TIP3   OH213322   0.857   2.151   1.366
 4460TIP3    H113323   0.942   2.149   1.323
 4460TIP3    H213324   0.876   2.136   1.458
 4461TIP3   OH213325   5.003   3.609   1.077
 4461TIP3    H113326   5.078   3.578   1.027
 4461TIP3    H213327   5.040   3.657   1.150
 4462TIP3   OH213328   3.944   2.654   2.870
 4462TIP3    H113329   3.924   2.748   2.872
 4462TIP3    H213330   3.980   2.636   2.957
 4463TIP3   OH213331   5.390   6.580   0.485
 4463TIP3    H113332   5.316   6.533   0.522
 4463TIP3    H213333   5.420   6.525   0.413
 4464TIP3   OH213334   7.799   5.082   3.123
 4464TIP3    H113335   7.878   5.057   3.075
 4464TIP3    H213336   7.727   5.040   3.074
 4465TIP3   OH213337   0.622   4.594   2.297
 4465TIP3    H113338   0.579   4.619   2.379
 4465TIP3    H213339   0.713   4.619   2.309
 4466TIP3   OH213340   6.780   4.215   5.791
 4466TIP3    H113341   6.826   4.286   5.748
 4466TIP3    H213342   6.829   4.136   5.766
 4467TIP3   OH213343   6.106   7.315   3.411
 4467TIP3    H113344   6.017   7.289   3.436
 4467TIP3    H213345   6.127   7.259   3.336
 4468TIP3   OH213346   3.380   6.658   5.298
 4468TIP3    H113347   3.372   6.642   5.204
 4468TIP3    H213348   3.349   6.748   5.309
 4469TIP3   OH213349   2.065   3.271   3.133
 4469TIP3    H113350   2.062   3.179   3.106
 4469TIP3    H213351   2.042   3.320   3.055
 4470TIP3   OH213352   1.427   6.186   1.366
 4470TIP3    H113353   1.467   6.257   1.416
 4470TIP3    H213354   1.491   6.165   1.299
 4471TIP3   OH213355   2.386   0.740   4.264
 4471TIP3    H113356   2.425   0.789   4.336
 4471TIP3    H213357   2.432   0.771   4.186
 4472TIP3   OH213358   1.166   1.201   3.108
 4472TIP3    H113359   1.167   1.274   3.048
 4472TIP3    H213360   1.078   1.164   3.100
 4473TIP3   OH213361   3.034   7.035   6.248
 4473TIP3    H113362   3.118   7.033   6.294
 4473TIP3    H213363   3.039   6.962   6.186
 4474TIP3   OH213364   4.489   0.624   4.534
 4474TIP3    H113365   4.547   0.609   4.459
 4474TIP3    H213366   4.481   0.537   4.575
 4475TIP3   OH213367   6.983   4.141   2.144
 4475TIP3    H113368   6.977   4.173   2.234
 4475TIP3    H213369   7.070   4.167   2.115
 4476TIP3   OH213370   1.391   1.651   2.785
 4476TIP3    H113371   1.329   1.690   2.847
 4476TIP3    H213372   1.335   1.617   2.714
 4477TIP3   OH213373   2.167   2.095   3.698
 4477TIP3    H113374   2.139   2.159   3.764
 4477TIP3    H213375   2.155   2.010   3.741
 4478TIP3   OH213376   0.796   7.514   1.373
 4478TIP3    H113377   0.861   7.444   1.378
 4478TIP3    H213378   0.837   7.582   1.319
 4479TIP3   OH213379   4.746   0.036   5.814
 4479TIP3    H113380   4.788   0.058   5.897
 4479TIP3    H213381   4.819   0.029   5.752
 4480TIP3   OH213382   1.322   6.527   6.432
 4480TIP3    H113383   1.245   6.471   6.421
 4480TIP3    H213384   1.348   6.515   6.523
 4481TIP3   OH213385   5.240   4.196   0.942
 4481TIP3    H113386   5.278   4.124   0.891
 4481TIP3    H213387   5.201   4.254   0.876
 4482TIP3   OH213388   2.547   4.958   2.022
 4482TIP3    H113389   2.641   4.970   2.012
 4482TIP3    H213390   2.513   4.962   1.933
 4483TIP3   OH213391   2.463   4.944   1.217
 4483TIP3    H113392   2.447   4.850   1.210
 4483TIP3    H213393   2.375   4.983   1.216
 4484TIP3   OH213394   7.113   7.047   2.820
 4484TIP3    H113395   7.122   6.952   2.821
 4484TIP3    H213396   7.075   7.067   2.734
 4485TIP3   OH213397   2.294   7.362   0.858
 4485TIP3    H113398   2.285   7.429   0.925
 4485TIP3    H213399   2.291   7.410   0.775
 4486TIP3   OH213400   7.746   1.250   3.662
 4486TIP3    H113401   7.687   1.201   3.605
 4486TIP3    H213402   7.816   1.189   3.682
 4487TIP3   OH213403   4.011   6.648   0.903
 4487TIP3    H113404   3.980   6.632   0.992
 4487TIP3    H213405   4.073   6.577   0.886
 4488TIP3   OH213406   4.003   6.217   1.056
 4488TIP3    H113407   3.936   6.174   1.110
 4488TIP3    H213408   4.042   6.282   1.113
 4489TIP3   OH213409   7.746   5.618   1.120
 4489TIP3    H113410   7.795   5.536   1.132
 4489TIP3    H213411   7.804   5.685   1.157
 4490TIP3   OH213412   7.879   5.052   4.348
 4490TIP3    H113413   7.932   4.975   4.367
 4490TIP3    H213414   7.843   5.036   4.261
 4491TIP3   OH213415   7.591   0.613   5.968
 4491TIP3    H113416   7.533   0.587   6.040
 4491TIP3    H213417   7.582   0.708   5.963
 4492TIP3   OH213418   0.421   0.284   6.004
 4492TIP3    H113419   0.434   0.207   5.950
 4492TIP3    H213420   0.374   0.251   6.081
 4493TIP3   OH213421   2.230   6.144   0.016
 4493TIP3    H113422   2.320   6.133   0.047
 4493TIP3    H213423   2.207   6.233   0.042
 4494TIP3   OH213424   3.987   6.995   3.750
 4494TIP3    H113425   4.034   7.077   3.765
 4494TIP3    H213426   3.999   6.978   3.657
 4495TIP3   OH213427   2.966   6.581   3.861
 4495TIP3    H113428   2.970   6.640   3.936
 4495TIP3    H213429   2.876   6.548   3.861
 4496TIP3   OH213430   7.675   6.961   5.380
 4496TIP3    H113431   7.593   6.990   5.341
 4496TIP3    H213432   7.730   6.937   5.305
 4497TIP3   OH213433   7.875   2.943   6.336
 4497TIP3    H113434   7.832   2.904   6.412
 4497TIP3    H213435   7.913   2.869   6.288
 4498TIP3   OH213436   2.202   1.407   3.124
 4498TIP3    H113437   2.229   1.484   3.075
 4498TIP3    H213438   2.129   1.370   3.075
 4499TIP3   OH213439   0.817   2.688   5.844
 4499TIP3    H113440   0.755   2.627   5.883
 4499TIP3    H213441   0.855   2.639   5.771
 4500TIP3   OH213442   6.421   4.731   1.182
 4500TIP3    H113443   6.390   4.782   1.107
 4500TIP3    H213444   6.464   4.655   1.143
 4501TIP3   OH213445   1.021   4.329   6.267
 4501TIP3    H113446   0.942   4.378   6.245
 4501TIP3    H213447   0.999   4.286   6.350
 4502TIP3   OH213448   4.599   4.158   5.618
 4502TIP3    H113449   4.521   4.210   5.593
 4502TIP3    H213450   4.673   4.212   5.590
 4503TIP3   OH213451   3.006   6.466   4.289
 4503TIP3    H113452   3.050   6.535   4.239
 4503TIP3    H213453   3.048   6.468   4.375
 4504TIP3   OH213454   7.403   2.150   3.359
 4504TIP3    H113455   7.327   2.096   3.380
 4504TIP3    H213456   7.446   2.166   3.442
 4505TIP3   OH213457   6.635   7.610   4.307
 4505TIP3    H113458   6.644   7.581   4.216
 4505TIP3    H213459   6.578   7.687   4.302
 4506TIP3   OH213460   7.316   5.071   4.896
 4506TIP3    H113461   7.323   5.037   4.985
 4506TIP3    H213462   7.327   5.166   4.905
 4507TIP3   OH213463   7.948   2.883   5.040
 4507TIP3    H113464   7.998   2.823   4.985
 4507TIP3    H213465   7.924   2.955   4.982
 4508TIP3   OH213466   5.388   5.080   5.142
 4508TIP3    H113467   5.299   5.109   5.120
 4508TIP3    H213468   5.410   5.016   5.074
 4509TIP3   OH213469   7.335   3.817   4.770
 4509TIP3    H113470   7.354   3.869   4.692
 4509TIP3    H213471   7.420   3.805   4.812
 4510TIP3   OH213472   7.397   1.725   3.973
 4510TIP3    H113473   7.315   1.736   4.021
 4510TIP3    H213474   7.433   1.813   3.967
 4511TIP3   OH213475   0.082   0.354   2.135
 4511TIP3    H113476   0.009   0.346   2.197
 4511TIP3    H213477   0.151   0.299   2.172
 4512TIP3   OH213478   0.796   4.214   1.025
 4512TIP3    H113479   0.771   4.210   0.932
 4512TIP3    H213480   0.892   4.217   1.023
 4513TIP3   OH213481   6.691   5.788   2.727
 4513TIP3    H113482   6.602   5.762   2.702
 4513TIP3    H213483   6.733   5.707   2.755
 4514TIP3   OH213484   0.943   3.241   3.057
 4514TIP3    H113485   0.911   3.153   3.074
 4514TIP3    H213486   0.949   3.247   2.962
 4515TIP3   OH213487   4.401   6.325   0.746
 4515TIP3    H113488   4.438   6.399   0.698
 4515TIP3    H213489   4.476   6.268   0.764
 4516TIP3   OH213490   4.755   0.642   5.963
 4516TIP3    H113491   4.831   0.699   5.950
 4516TIP3    H213492   4.682   0.692   5.927
 4517TIP3   OH213493   5.710   7.163   6.019
 4517TIP3    H113494   5.689   7.077   6.057
 4517TIP3    H213495   5.804   7.173   6.032
 4518TIP3   OH213496   1.937   3.297   1.320
 4518TIP3    H113497   1.900   3.386   1.321
 4518TIP3    H213498   1.984   3.290   1.403
 4519TIP3   OH213499   0.947   5.250   4.415
 4519TIP3    H113500   0.978   5.337   4.440
 4519TIP3    H213501   0.872   5.233   4.472
 4520TIP3   OH213502   5.711   3.753   5.085
 4520TIP3    H113503   5.669   3.766   5.001
 4520TIP3    H213504   5.802   3.779   5.070
 4521TIP3   OH213505   2.393   4.408   1.064
 4521TIP3    H113506   2.333   4.478   1.040
 4521TIP3    H213507   2.401   4.414   1.160
 4522TIP3   OH213508   6.554   7.039   4.115
 4522TIP3    H113509   6.567   7.097   4.040
 4522TIP3    H213510   6.553   7.096   4.191
 4523TIP3   OH213511   6.203   2.279   1.386
 4523TIP3    H113512   6.211   2.367   1.350
 4523TIP3    H213513   6.293   2.247   1.391
 4524TIP3   OH213514   0.035   5.639   2.171
 4524TIP3    H113515  -0.058   5.634   2.149
 4524TIP3    H213516   0.069   5.552   2.151
 4525TIP3   OH213517   5.444   2.360   4.504
 4525TIP3    H113518   5.440   2.456   4.501
 4525TIP3    H213519   5.518   2.337   4.448
 4526TIP3   OH213520   1.834   6.632   0.617
 4526TIP3    H113521   1.859   6.563   0.678
 4526TIP3    H213522   1.747   6.660   0.647
 4527TIP3   OH213523   0.548   6.206   0.934
 4527TIP3    H113524   0.611   6.186   0.864
 4527TIP3    H213525   0.474   6.149   0.916
 4528TIP3   OH213526   6.144   1.267   3.748
 4528TIP3    H113527   6.147   1.317   3.667
 4528TIP3    H213528   6.215   1.203   3.739
 4529TIP3   OH213529   7.956   5.466   2.980
 4529TIP3    H113530   8.023   5.439   2.917
 4529TIP3    H213531   8.005   5.494   3.057
 4530TIP3   OH213532   6.538   5.409   2.375
 4530TIP3    H113533   6.490   5.490   2.396
 4530TIP3    H213534   6.629   5.430   2.393
 4531TIP3   OH213535   3.278   6.033   2.281
 4531TIP3    H113536   3.207   5.972   2.299
 4531TIP3    H213537   3.243   6.118   2.309
 4532TIP3   OH213538   7.938   6.197   1.494
 4532TIP3    H113539   7.873   6.228   1.556
 4532TIP3    H213540   7.991   6.134   1.543
 4533TIP3   OH213541   7.584   0.478   4.688
 4533TIP3    H113542   7.525   0.421   4.737
 4533TIP3    H213543   7.617   0.422   4.618
 4534TIP3   OH213544   5.631   4.709   6.131
 4534TIP3    H113545   5.587   4.689   6.214
 4534TIP3    H213546   5.686   4.632   6.113
 4535TIP3   OH213547   3.974   7.530   2.846
 4535TIP3    H113548   4.070   7.530   2.851
 4535TIP3    H213549   3.953   7.455   2.791
 4536TIP3   OH213550   1.032   0.803   2.855
 4536TIP3    H113551   1.031   0.895   2.827
 4536TIP3    H213552   0.940   0.779   2.860
 4537TIP3   OH213553   2.569   0.248   3.873
 4537TIP3    H113554   2.491   0.209   3.835
 4537TIP3    H213555   2.537   0.322   3.924
 4538TIP3   OH213556   4.911   6.430   0.362
 4538TIP3    H113557   4.855   6.492   0.410
 4538TIP3    H213558   4.887   6.443   0.270
 4539TIP3   OH213559   5.888   5.259   5.471
 4539TIP3    H113560   5.951   5.191   5.446
 4539TIP3    H213561   5.861   5.234   5.560
 4540TIP3   OH213562   3.347   4.890   2.718
 4540TIP3    H113563   3.329   4.960   2.656
 4540TIP3    H213564   3.441   4.873   2.709
 4541TIP3   OH213565   4.977   3.428   0.766
 4541TIP3    H113566   5.064   3.460   0.741
 4541TIP3    H213567   4.993   3.341   0.803
 4542TIP3   OH213568   1.104   1.441   1.904
 4542TIP3    H113569   1.166   1.510   1.927
 4542TIP3    H213570   1.100   1.444   1.808
 4543TIP3   OH213571   8.111   6.261   3.974
 4543TIP3    H113572   8.183   6.226   3.921
 4543TIP3    H213573   8.092   6.191   4.037
 4544TIP3   OH213574   5.950   2.093   6.492
 4544TIP3    H113575   5.969   2.187   6.484
 4544TIP3    H213576   5.885   2.076   6.424
 4545TIP3   OH213577   1.926   4.133   4.053
 4545TIP3    H113578   1.908   4.204   4.114
 4545TIP3    H213579   1.963   4.063   4.108
 4546TIP3   OH213580   6.481   7.054   4.858
 4546TIP3    H113581   6.494   6.963   4.883
 4546TIP3    H213582   6.386   7.067   4.865
 4547TIP3   OH213583   3.599   4.838   2.177
 4547TIP3    H113584   3.580   4.802   2.091
 4547TIP3    H213585   3.520   4.822   2.229
 4548TIP3   OH213586   2.573   4.171   3.119
 4548TIP3    H113587   2.587   4.250   3.067
 4548TIP3    H213588   2.477   4.163   3.125
 4549TIP3   OH213589   4.418   6.031   3.330
 4549TIP3    H113590   4.361   5.954   3.338
 4549TIP3    H213591   4.428   6.044   3.235
 4550TIP3   OH213592   3.516   4.761   1.930
 4550TIP3    H113593   3.464   4.829   1.888
 4550TIP3    H213594   3.592   4.749   1.872
 4551TIP3   OH213595   2.601   2.936   0.564
 4551TIP3    H113596   2.662   2.910   0.633
 4551TIP3    H213597   2.655   2.988   0.504
 4552TIP3   OH213598   5.445   4.228   5.274
 4552TIP3    H113599   5.491   4.208   5.355
 4552TIP3    H213600   5.480   4.166   5.210
 4553TIP3   OH213601   7.645   4.876   2.640
 4553TIP3    H113602   7.665   4.932   2.565
 4553TIP3    H213603   7.552   4.891   2.656
 4554TIP3   OH213604   3.655   4.885   6.043
 4554TIP3    H113605   3.587   4.855   6.103
 4554TIP3    H213606   3.734   4.839   6.073
 4555TIP3   OH213607   7.319   2.154   4.186
 4555TIP3    H113608   7.327   2.242   4.148
 4555TIP3    H213609   7.225   2.146   4.206
 4556TIP3   OH213610   6.577   4.091   3.348
 4556TIP3    H113611   6.592   4.087   3.254
 4556TIP3    H213612   6.661   4.068   3.387
 4557TIP3   OH213613   3.521   3.746   3.118
 4557TIP3    H113614   3.590   3.686   3.143
 4557TIP3    H213615   3.441   3.708   3.154
 4558TIP3   OH213616   4.776   4.821   4.166
 4558TIP3    H113617   4.785   4.811   4.261
 4558TIP3    H213618   4.864   4.804   4.131
 4559TIP3   OH213619   0.261   3.201   2.123
 4559TIP3    H113620   0.202   3.272   2.098
 4559TIP3    H213621   0.291   3.165   2.040
 4560TIP3   OH213622   0.789   1.474   5.190
 4560TIP3    H113623   0.830   1.454   5.274
 4560TIP3    H213624   0.698   1.493   5.212
 4561TIP3   OH213625   3.852   1.765   4.984
 4561TIP3    H113626   3.809   1.804   5.060
 4561TIP3    H213627   3.946   1.778   5.000
 4562TIP3   OH213628   7.321   6.008   4.799
 4562TIP3    H113629   7.409   5.994   4.834
 4562TIP3    H213630   7.262   5.969   4.863
 4563TIP3   OH213631   8.055   3.376   5.671
 4563TIP3    H113632   8.030   3.301   5.617
 4563TIP3    H213633   8.119   3.423   5.618
 4564TIP3   OH213634   2.452   0.689   4.897
 4564TIP3    H113635   2.452   0.773   4.942
 4564TIP3    H213636   2.454   0.624   4.967
 4565TIP3   OH213637   6.419   3.995   2.579
 4565TIP3    H113638   6.444   3.971   2.489
 4565TIP3    H213639   6.465   4.077   2.595
 4566TIP3   OH213640   5.584   3.474   2.472
 4566TIP3    H113641   5.537   3.523   2.539
 4566TIP3    H213642   5.525   3.473   2.397
 4567TIP3   OH213643   1.026   2.923   3.136
 4567TIP3    H113644   1.098   2.957   3.084
 4567TIP3    H213645   0.948   2.942   3.085
 4568TIP3   OH213646   3.175   4.712   0.928
 4568TIP3    H113647   3.160   4.657   0.851
 4568TIP3    H213648   3.213   4.653   0.993
 4569TIP3   OH213649   4.534   0.552   1.416
 4569TIP3    H113650   4.538   0.468   1.461
 4569TIP3    H213651   4.565   0.533   1.327
 4570TIP3   OH213652   4.189   2.229   4.684
 4570TIP3    H113653   4.165   2.146   4.642
 4570TIP3    H213654   4.206   2.289   4.612
 4571TIP3   OH213655   3.644   0.838   3.380
 4571TIP3    H113656   3.672   0.747   3.374
 4571TIP3    H213657   3.712   0.881   3.432
 4572TIP3   OH213658   1.107   4.479   3.120
 4572TIP3    H113659   1.132   4.556   3.170
 4572TIP3    H213660   1.133   4.405   3.175
 4573TIP3   OH213661   5.297   2.540   3.861
 4573TIP3    H113662   5.203   2.529   3.867
 4573TIP3    H213663   5.334   2.462   3.901
 4574TIP3   OH213664   2.222   2.375   6.393
 4574TIP3    H113665   2.308   2.396   6.358
 4574TIP3    H213666   2.230   2.386   6.488
 4575TIP3   OH213667   0.160   5.934   3.813
 4575TIP3    H113668   0.234   5.902   3.865
 4575TIP3    H213669   0.107   5.856   3.797
 4576TIP3   OH213670   3.628   1.100   3.933
 4576TIP3    H113671   3.719   1.096   3.963
 4576TIP3    H213672   3.624   1.040   3.859
 4577TIP3   OH213673   1.577   3.625   6.379
 4577TIP3    H113674   1.503   3.682   6.359
 4577TIP3    H213675   1.652   3.685   6.386
 4578TIP3   OH213676   1.303   3.039   3.756
 4578TIP3    H113677   1.254   3.053   3.837
 4578TIP3    H213678   1.282   2.949   3.731
 4579TIP3   OH213679   6.360   3.362   0.580
 4579TIP3    H113680   6.267   3.356   0.599
 4579TIP3    H213681   6.382   3.279   0.538
 4580TIP3   OH213682   7.445   6.834   1.679
 4580TIP3    H113683   7.512   6.833   1.748
 4580TIP3    H213684   7.469   6.761   1.622
 4581TIP3   OH213685   0.964   6.652   3.154
 4581TIP3    H113686   0.948   6.623   3.064
 4581TIP3    H213687   1.057   6.631   3.168
 4582TIP3   OH213688   6.551   6.882   3.885
 4582TIP3    H113689   6.511   6.944   3.825
 4582TIP3    H213690   6.543   6.923   3.971
 4583TIP3   OH213691   6.584   2.667   0.686
 4583TIP3    H113692   6.603   2.752   0.646
 4583TIP3    H213693   6.490   2.653   0.671
 4584TIP3   OH213694   7.379   0.139   2.737
 4584TIP3    H113695   7.320   0.213   2.730
 4584TIP3    H213696   7.349   0.077   2.670
 4585TIP3   OH213697   7.995   4.178   0.393
 4585TIP3    H113698   8.016   4.150   0.304
 4585TIP3    H213699   7.940   4.107   0.428
 4586TIP3   OH213700   5.690   3.185   0.310
 4586TIP3    H113701   5.737   3.233   0.379
 4586TIP3    H213702   5.738   3.204   0.230
 4587TIP3   OH213703   6.919   4.441   5.724
 4587TIP3    H113704   7.014   4.445   5.736
 4587TIP3    H213705   6.903   4.492   5.645
 4588TIP3   OH213706   4.233   0.413   0.789
 4588TIP3    H113707   4.158   0.468   0.810
 4588TIP3    H213708   4.288   0.467   0.734
 4589TIP3   OH213709   0.355   0.392   3.747
 4589TIP3    H113710   0.334   0.301   3.727
 4589TIP3    H213711   0.270   0.433   3.765
 4590TIP3   OH213712   5.540   1.826   2.361
 4590TIP3    H113713   5.444   1.823   2.367
 4590TIP3    H213714   5.559   1.804   2.270
 4591TIP3   OH213715   4.762   1.351   5.548
 4591TIP3    H113716   4.688   1.408   5.568
 4591TIP3    H213717   4.828   1.409   5.510
 4592TIP3   OH213718   1.458   5.137   0.028
 4592TIP3    H113719   1.506   5.173  -0.047
 4592TIP3    H213720   1.414   5.213   0.067
 4593TIP3   OH213721   1.955   6.871   1.677
 4593TIP3    H113722   1.873   6.914   1.651
 4593TIP3    H213723   1.974   6.811   1.604
 4594TIP3   OH213724   4.187   7.465   0.489
 4594TIP3    H113725   4.135   7.539   0.519
 4594TIP3    H213726   4.194   7.477   0.395
 4595TIP3   OH213727   5.043   1.267   1.694
 4595TIP3    H113728   5.010   1.199   1.635
 4595TIP3    H213729   5.006   1.244   1.780
 4596TIP3   OH213730   4.660   1.070   5.570
 4596TIP3    H113731   4.685   1.162   5.572
 4596TIP3    H213732   4.615   1.059   5.486
 4597TIP3   OH213733   7.891   2.135   5.519
 4597TIP3    H113734   7.897   2.172   5.431
 4597TIP3    H213735   7.822   2.185   5.561
 4598TIP3   OH213736   0.582   5.485   2.458
 4598TIP3    H113737   0.531   5.424   2.404
 4598TIP3    H213738   0.618   5.548   2.396
 4599TIP3   OH213739   1.552   5.065   5.584
 4599TIP3    H113740   1.474   5.114   5.609
 4599TIP3    H213741   1.519   4.991   5.533
 4600TIP3   OH213742   1.746   4.985   4.028
 4600TIP3    H113743   1.654   5.011   4.033
 4600TIP3    H213744   1.787   5.054   3.976
 4601TIP3   OH213745   4.552   4.986   0.869
 4601TIP3    H113746   4.645   4.973   0.855
 4601TIP3    H213747   4.543   5.078   0.894
 4602TIP3   OH213748   3.329   6.822   3.359
 4602TIP3    H113749   3.248   6.863   3.327
 4602TIP3    H213750   3.393   6.893   3.362
 4603TIP3   OH213751   2.592   5.093   6.599
 4603TIP3    H113752   2.570   5.170   6.548
 4603TIP3    H213753   2.597   5.022   6.534
 4604TIP3   OH213754   5.250   2.201   6.533
 4604TIP3    H113755   5.330   2.149   6.522
 4604TIP3    H213756   5.278   2.279   6.580
 4605TIP3   OH213757   6.992   2.179   4.859
 4605TIP3    H113758   6.961   2.267   4.839
 4605TIP3    H213759   6.923   2.141   4.914
 4606TIP3   OH213760   6.622   4.125   1.541
 4606TIP3    H113761   6.533   4.090   1.542
 4606TIP3    H213762   6.622   4.195   1.606
 4607TIP3   OH213763   0.854   7.568   6.439
 4607TIP3    H113764   0.895   7.602   6.518
 4607TIP3    H213765   0.763   7.599   6.445
 4608TIP3   OH213766   5.169   2.678   4.292
 4608TIP3    H113767   5.143   2.633   4.372
 4608TIP3    H213768   5.239   2.624   4.256
 4609TIP3   OH213769   3.132   2.075   2.360
 4609TIP3    H113770   3.142   2.138   2.432
 4609TIP3    H213771   3.188   2.002   2.385
 4610TIP3   OH213772   6.933   3.767   5.913
 4610TIP3    H113773   6.930   3.729   6.000
 4610TIP3    H213774   6.844   3.755   5.878
 4611TIP3   OH213775   4.963   6.535   4.483
 4611TIP3    H113776   5.056   6.557   4.489
 4611TIP3    H213777   4.961   6.440   4.473
 4612TIP3   OH213778   7.982   3.969   6.514
 4612TIP3    H113779   8.077   3.972   6.526
 4612TIP3    H213780   7.948   3.943   6.600
 4613TIP3   OH213781   4.273   3.132   1.909
 4613TIP3    H113782   4.256   3.072   1.981
 4613TIP3    H213783   4.326   3.082   1.847
 4614TIP3   OH213784   7.114   2.902   6.537
 4614TIP3    H113785   7.148   2.977   6.489
 4614TIP3    H213786   7.187   2.873   6.591
 4615TIP3   OH213787   0.537   1.185   5.144
 4615TIP3    H113788   0.612   1.168   5.201
 4615TIP3    H213789   0.495   1.100   5.134
 4616TIP3   OH213790   2.666   4.640   2.866
 4616TIP3    H113791   2.709   4.606   2.787
 4616TIP3    H213792   2.726   4.619   2.937
 4617TIP3   OH213793   1.549   0.863   3.866
 4617TIP3    H113794   1.509   0.822   3.943
 4617TIP3    H213795   1.477   0.908   3.822
 4618TIP3   OH213796   7.759   3.591   6.475
 4618TIP3    H113797   7.750   3.496   6.467
 4618TIP3    H213798   7.682   3.618   6.526
 4619TIP3   OH213799   0.993   3.994   3.638
 4619TIP3    H113800   0.948   3.980   3.721
 4619TIP3    H213801   1.031   4.081   3.646
 4620TIP3   OH213802   3.075   3.298   4.651
 4620TIP3    H113803   3.001   3.286   4.711
 4620TIP3    H213804   3.055   3.381   4.606
 4621TIP3   OH213805   6.736   3.756   2.114
 4621TIP3    H113806   6.784   3.674   2.101
 4621TIP3    H213807   6.777   3.796   2.191
 4622TIP3   OH213808   0.886   4.028   4.776
 4622TIP3    H113809   0.832   4.057   4.849
 4622TIP3    H213810   0.856   3.939   4.758
 4623TIP3   OH213811   3.188   5.767   2.082
 4623TIP3    H113812   3.147   5.802   2.161
 4623TIP3    H213813   3.187   5.672   2.094
 4624TIP3   OH213814   7.187   0.077   2.362
 4624TIP3    H113815   7.130   0.006   2.391
 4624TIP3    H213816   7.196   0.064   2.268
 4625TIP3   OH213817   2.984   5.355   2.870
 4625TIP3    H113818   3.029   5.279   2.833
 4625TIP3    H213819   2.965   5.411   2.795
 4626TIP3   OH213820   7.748   5.800   5.725
 4626TIP3    H113821   7.717   5.756   5.805
 4626TIP3    H213822   7.819   5.744   5.693
 4627TIP3   OH213823   7.006   7.517   4.008
 4627TIP3    H113824   7.101   7.519   4.003
 4627TIP3    H213825   6.980   7.607   4.029
 4628TIP3   OH213826   2.610   6.172   1.264
 4628TIP3    H113827   2.610   6.137   1.353
 4628TIP3    H213828   2.628   6.266   1.275
 4629TIP3   OH213829   4.014   2.366   5.946
 4629TIP3    H113830   4.059   2.282   5.943
 4629TIP3    H213831   4.082   2.430   5.926
 4630TIP3   OH213832   0.936   3.879   6.290
 4630TIP3    H113833   0.999   3.944   6.260
 4630TIP3    H213834   0.980   3.795   6.276
 4631TIP3   OH213835   7.557   3.073   1.143
 4631TIP3    H113836   7.495   3.003   1.163
 4631TIP3    H213837   7.506   3.137   1.094
 4632TIP3   OH213838   5.612   6.296   5.795
 4632TIP3    H113839   5.593   6.211   5.835
 4632TIP3    H213840   5.538   6.313   5.737
 4633TIP3   OH213841   6.419   6.277   3.031
 4633TIP3    H113842   6.451   6.362   3.000
 4633TIP3    H213843   6.487   6.246   3.090
 4634TIP3   OH213844   3.396   1.048   5.017
 4634TIP3    H113845   3.372   0.977   4.958
 4634TIP3    H213846   3.334   1.118   4.997
 4635TIP3   OH213847   2.174   3.316   4.914
 4635TIP3    H113848   2.203   3.267   4.991
 4635TIP3    H213849   2.186   3.256   4.841
 4636TIP3   OH213850   7.669   1.865   1.160
 4636TIP3    H113851   7.758   1.834   1.177
 4636TIP3    H213852   7.681   1.953   1.125
 4637TIP3   OH213853   2.326   7.667   5.907
 4637TIP3    H113854   2.330   7.761   5.920
 4637TIP3    H213855   2.257   7.637   5.967
 4638TIP3   OH213856   6.146   4.903   3.986
 4638TIP3    H113857   6.162   4.902   4.081
 4638TIP3    H213858   6.119   4.814   3.965
 4639TIP3   OH213859   0.852   6.915   2.231
 4639TIP3    H113860   0.826   6.848   2.294
 4639TIP3    H213861   0.863   6.868   2.148
 4640TIP3   OH213862   2.810   7.509   4.963
 4640TIP3    H113863   2.810   7.436   4.902
 4640TIP3    H213864   2.769   7.581   4.914
 4641TIP3   OH213865   1.177   7.560   2.829
 4641TIP3    H113866   1.114   7.582   2.760
 4641TIP3    H213867   1.230   7.489   2.792
 4642TIP3   OH213868   5.174   0.401   4.884
 4642TIP3    H113869   5.199   0.370   4.971
 4642TIP3    H213870   5.148   0.493   4.898
 4643TIP3   OH213871   4.922   5.413   2.608
 4643TIP3    H113872   4.939   5.454   2.524
 4643TIP3    H213873   4.994   5.351   2.620
 4644TIP3   OH213874   7.751   6.398   5.264
 4644TIP3    H113875   7.733   6.330   5.328
 4644TIP3    H213876   7.804   6.462   5.311
 4645TIP3   OH213877   2.191   1.993   4.701
 4645TIP3    H113878   2.265   1.933   4.690
 4645TIP3    H213879   2.115   1.937   4.713
 4646TIP3   OH213880   2.434   4.058   4.517
 4646TIP3    H113881   2.463   4.074   4.427
 4646TIP3    H213882   2.422   4.146   4.554
 4647TIP3   OH213883   1.171   4.460   1.978
 4647TIP3    H113884   1.199   4.534   1.924
 4647TIP3    H213885   1.253   4.424   2.013
 4648TIP3   OH213886   6.092   4.609   1.615
 4648TIP3    H113887   6.105   4.579   1.525
 4648TIP3    H213888   6.044   4.692   1.606
 4649TIP3   OH213889   4.299   6.222   4.454
 4649TIP3    H113890   4.206   6.222   4.432
 4649TIP3    H213891   4.301   6.226   4.549
 4650TIP3   OH213892   4.693   1.138   2.394
 4650TIP3    H113893   4.764   1.175   2.446
 4650TIP3    H213894   4.663   1.210   2.339
 4651TIP3   OH213895   5.074   2.293   6.345
 4651TIP3    H113896   5.115   2.254   6.422
 4651TIP3    H213897   5.100   2.236   6.273
 4652TIP3   OH213898   6.385   6.039   5.700
 4652TIP3    H113899   6.393   6.070   5.610
 4652TIP3    H213900   6.346   6.113   5.747
 4653TIP3   OH213901   8.105   0.998   0.938
 4653TIP3    H113902   8.028   1.035   0.981
 4653TIP3    H213903   8.070   0.952   0.862
 4654TIP3   OH213904   3.278   5.307   0.869
 4654TIP3    H113905   3.321   5.235   0.823
 4654TIP3    H213906   3.263   5.373   0.801
 4655TIP3   OH213907   5.716   5.618   2.146
 4655TIP3    H113908   5.789   5.593   2.202
 4655TIP3    H213909   5.738   5.581   2.060
 4656TIP3   OH213910   0.896   0.455   2.374
 4656TIP3    H113911   0.911   0.502   2.291
 4656TIP3    H213912   0.803   0.431   2.370
 4657TIP3   OH213913   1.084   2.327   3.586
 4657TIP3    H113914   1.113   2.353   3.498
 4657TIP3    H213915   0.989   2.325   3.580
 4658TIP3   OH213916   2.027   3.722   6.680
 4658TIP3    H113917   2.059   3.636   6.654
 4658TIP3    H213918   1.939   3.728   6.643
 4659TIP3   OH213919   5.159   7.125   4.363
 4659TIP3    H113920   5.115   7.210   4.369
 4659TIP3    H213921   5.093   7.067   4.324
 4660TIP3   OH213922   1.850   7.307   4.803
 4660TIP3    H113923   1.803   7.287   4.721
 4660TIP3    H213924   1.780   7.326   4.866
 4661TIP3   OH213925   0.535   7.272   4.444
 4661TIP3    H113926   0.494   7.319   4.517
 4661TIP3    H213927   0.573   7.342   4.389
 4662TIP3   OH213928   6.120   6.346   2.822
 4662TIP3    H113929   6.050   6.388   2.871
 4662TIP3    H213930   6.150   6.413   2.761
 4663TIP3   OH213931   7.132   3.954   6.263
 4663TIP3    H113932   7.099   3.973   6.175
 4663TIP3    H213933   7.058   3.969   6.321
 4664TIP3   OH213934   0.682   6.513   3.429
 4664TIP3    H113935   0.614   6.513   3.496
 4664TIP3    H213936   0.692   6.605   3.404
 4665TIP3   OH213937   7.552   1.850   6.351
 4665TIP3    H113938   7.540   1.830   6.444
 4665TIP3    H213939   7.549   1.946   6.347
 4666TIP3   OH213940   2.748   2.088   0.436
 4666TIP3    H113941   2.818   2.098   0.500
 4666TIP3    H213942   2.698   2.012   0.467
 4667TIP3   OH213943   4.539   3.808   6.767
 4667TIP3    H113944   4.510   3.890   6.728
 4667TIP3    H213945   4.470   3.745   6.744
 4668TIP3   OH213946   6.367   4.648   2.901
 4668TIP3    H113947   6.306   4.593   2.950
 4668TIP3    H213948   6.377   4.726   2.956
 4669TIP3   OH213949   7.864   6.643   1.369
 4669TIP3    H113950   7.855   6.722   1.316
 4669TIP3    H213951   7.801   6.581   1.331
 4670TIP3   OH213952   4.822   0.673   3.316
 4670TIP3    H113953   4.764   0.600   3.294
 4670TIP3    H213954   4.909   0.644   3.290
 4671TIP3   OH213955   7.269   1.625   0.607
 4671TIP3    H113956   7.216   1.693   0.564
 4671TIP3    H213957   7.232   1.619   0.695
 4672TIP3   OH213958   1.460   4.997   4.492
 4672TIP3    H113959   1.540   5.029   4.450
 4672TIP3    H213960   1.481   4.906   4.517
 4673TIP3   OH213961   0.164   2.034   4.583
 4673TIP3    H113962   0.235   1.974   4.559
 4673TIP3    H213963   0.187   2.066   4.670
 4674TIP3   OH213964   4.427   4.918   4.505
 4674TIP3    H113965   4.483   4.970   4.447
 4674TIP3    H213966   4.390   4.982   4.566
 4675TIP3   OH213967   0.202   7.244   6.423
 4675TIP3    H113968   0.242   7.309   6.481
 4675TIP3    H213969   0.197   7.288   6.338
 4676TIP3   OH213970   3.702   3.364   0.792
 4676TIP3    H113971   3.725   3.455   0.810
 4676TIP3    H213972   3.607   3.363   0.794
 4677TIP3   OH213973   2.846   3.470   1.252
 4677TIP3    H113974   2.783   3.399   1.237
 4677TIP3    H213975   2.931   3.432   1.232
 4678TIP3   OH213976   6.900   6.778   0.642
 4678TIP3    H113977   6.956   6.853   0.661
 4678TIP3    H213978   6.876   6.788   0.550
 4679TIP3   OH213979   0.356   2.086   1.200
 4679TIP3    H113980   0.351   1.991   1.192
 4679TIP3    H213981   0.339   2.118   1.111
 4680TIP3   OH213982   1.089   7.759   2.422
 4680TIP3    H113983   1.059   7.714   2.343
 4680TIP3    H213984   1.146   7.829   2.390
 4681TIP3   OH213985   2.045   3.850   1.796
 4681TIP3    H113986   2.069   3.884   1.882
 4681TIP3    H213987   1.996   3.770   1.814
 4682TIP3   OH213988   4.026   1.981   2.806
 4682TIP3    H113989   4.016   2.040   2.732
 4682TIP3    H213990   4.089   2.025   2.864
 4683TIP3   OH213991   1.172   7.206   4.975
 4683TIP3    H113992   1.110   7.279   4.983
 4683TIP3    H213993   1.257   7.244   4.997
 4684TIP3   OH213994   3.724   5.393   5.055
 4684TIP3    H113995   3.715   5.317   4.999
 4684TIP3    H213996   3.679   5.369   5.136
 4685TIP3   OH213997   3.938   7.677   5.434
 4685TIP3    H113998   3.965   7.764   5.463
 4685TIP3    H213999   3.960   7.620   5.508
 4686TIP3   OH214000   5.785   3.082   6.769
 4686TIP3    H114001   5.709   3.120   6.726
 4686TIP3    H214002   5.748   3.027   6.839
 4687TIP3   OH214003   0.919   0.974   5.027
 4687TIP3    H114004   0.849   0.967   4.962
 4687TIP3    H214005   0.924   0.887   5.067
 4688TIP3   OH214006   7.988   3.339   1.554
 4688TIP3    H114007   8.068   3.327   1.606
 4688TIP3    H214008   8.020   3.352   1.465
 4689TIP3   OH214009   7.088   4.127   4.655
 4689TIP3    H114010   7.079   4.085   4.570
 4689TIP3    H214011   7.041   4.210   4.647
 4690TIP3   OH214012   0.841   0.191   0.188
 4690TIP3    H114013   0.841   0.153   0.276
 4690TIP3    H214014   0.855   0.284   0.202
 4691TIP3   OH214015   6.235   4.690   5.747
 4691TIP3    H114016   6.216   4.654   5.834
 4691TIP3    H214017   6.160   4.746   5.727
 4692TIP3   OH214018   1.514   2.097   1.986
 4692TIP3    H114019   1.502   2.190   2.005
 4692TIP3    H214020   1.585   2.094   1.922
 4693TIP3   OH214021   3.421   2.443   0.457
 4693TIP3    H114022   3.361   2.403   0.521
 4693TIP3    H214023   3.496   2.384   0.455
 4694TIP3   OH214024   4.811   2.594   4.335
 4694TIP3    H114025   4.739   2.580   4.396
 4694TIP3    H214026   4.863   2.664   4.374
 4695TIP3   OH214027   1.918   6.761   5.272
 4695TIP3    H114028   1.989   6.734   5.214
 4695TIP3    H214029   1.960   6.822   5.334
 4696TIP3   OH214030   3.872   1.799   2.501
 4696TIP3    H114031   3.965   1.787   2.522
 4696TIP3    H214032   3.865   1.892   2.478
 4697TIP3   OH214033   4.184   6.346   4.972
 4697TIP3    H114034   4.195   6.389   4.887
 4697TIP3    H214035   4.152   6.415   5.030
 4698TIP3   OH214036   1.937   6.720   1.445
 4698TIP3    H114037   1.855   6.714   1.397
 4698TIP3    H214038   1.978   6.634   1.432
 4699TIP3   OH214039   6.040   6.814   4.082
 4699TIP3    H114040   6.129   6.780   4.074
 4699TIP3    H214041   5.983   6.739   4.066
 4700TIP3   OH214042   3.002   6.309   2.084
 4700TIP3    H114043   3.060   6.265   2.022
 4700TIP3    H214044   3.042   6.395   2.097
 4701TIP3   OH214045   3.809   1.022   6.159
 4701TIP3    H114046   3.870   1.072   6.105
 4701TIP3    H214047   3.785   0.947   6.104
 4702TIP3   OH214048   4.202   7.124   6.010
 4702TIP3    H114049   4.271   7.116   6.075
 4702TIP3    H214050   4.141   7.053   6.030
 4703TIP3   OH214051   5.554   1.121   2.067
 4703TIP3    H114052   5.604   1.046   2.036
 4703TIP3    H214053   5.501   1.087   2.139
 4704TIP3   OH214054   7.682   6.482   3.975
 4704TIP3    H114055   7.766   6.438   3.988
 4704TIP3    H214056   7.628   6.418   3.930
 4705TIP3   OH214057   4.057   2.636   3.928
 4705TIP3    H114058   3.981   2.593   3.967
 4705TIP3    H214059   4.027   2.723   3.905
 4706TIP3   OH214060   7.068   2.904   3.739
 4706TIP3    H114061   6.980   2.938   3.725
 4706TIP3    H214062   7.125   2.962   3.688
 4707TIP3   OH214063   1.981   5.732   5.492
 4707TIP3    H114064   2.033   5.812   5.488
 4707TIP3    H214065   2.043   5.662   5.474
 4708TIP3   OH214066   3.269   0.043   6.003
 4708TIP3    H114067   3.255   0.084   5.918
 4708TIP3    H214068   3.257   0.114   6.066
 4709TIP3   OH214069   3.835   2.436   0.944
 4709TIP3    H114070   3.927   2.415   0.926
 4709TIP3    H214071   3.802   2.472   0.861
 4710TIP3   OH214072   2.232   1.303   5.343
 4710TIP3    H114073   2.146   1.278   5.376
 4710TIP3    H214074   2.290   1.298   5.419
 4711TIP3   OH214075   6.200   2.104   0.227
 4711TIP3    H114076   6.112   2.130   0.255
 4711TIP3    H214077   6.185   2.049   0.150
 4712TIP3   OH214078   3.621   6.833   3.756
 4712TIP3    H114079   3.684   6.874   3.697
 4712TIP3    H214080   3.537   6.846   3.714
 4713TIP3   OH214081   1.868   6.125   4.095
 4713TIP3    H114082   1.848   6.032   4.083
 4713TIP3    H214083   1.822   6.168   4.023
 4714TIP3   OH214084   1.598   6.183   2.878
 4714TIP3    H114085   1.537   6.201   2.950
 4714TIP3    H214086   1.684   6.207   2.913
 4715TIP3   OH214087   0.397   7.799   2.107
 4715TIP3    H114088   0.367   7.711   2.129
 4715TIP3    H214089   0.321   7.843   2.069
 4716TIP3   OH214090   1.251   1.989   5.412
 4716TIP3    H114091   1.266   2.068   5.463
 4716TIP3    H214092   1.222   2.021   5.326
 4717TIP3   OH214093   7.813   7.462   6.105
 4717TIP3    H114094   7.770   7.540   6.138
 4717TIP3    H214095   7.764   7.389   6.145
 4718TIP3   OH214096   0.798   0.829   3.257
 4718TIP3    H114097   0.751   0.823   3.174
 4718TIP3    H214098   0.746   0.890   3.310
 4719TIP3   OH214099   7.001   3.824   4.488
 4719TIP3    H114100   6.988   3.828   4.393
 4719TIP3    H214101   7.089   3.857   4.502
 4720TIP3   OH214102   0.655   6.316   1.175
 4720TIP3    H114103   0.621   6.283   1.092
 4720TIP3    H214104   0.745   6.282   1.179
 4721TIP3   OH214105   1.981   2.282   5.298
 4721TIP3    H114106   1.891   2.310   5.282
 4721TIP3    H214107   2.034   2.358   5.274
 4722TIP3   OH214108   0.230   5.131   1.352
 4722TIP3    H114109   0.281   5.203   1.314
 4722TIP3    H214110   0.295   5.073   1.391
 4723TIP3   OH214111   6.747   4.330   6.405
 4723TIP3    H114112   6.671   4.376   6.441
 4723TIP3    H214113   6.726   4.237   6.416
 4724TIP3   OH214114   5.630   4.520   3.737
 4724TIP3    H114115   5.541   4.550   3.755
 4724TIP3    H214116   5.633   4.508   3.642
 4725TIP3   OH214117   4.035   6.560   0.554
 4725TIP3    H114118   4.093   6.542   0.627
 4725TIP3    H214119   4.089   6.545   0.476
 4726TIP3   OH214120   2.110   1.806   2.449
 4726TIP3    H114121   2.132   1.855   2.370
 4726TIP3    H214122   2.060   1.868   2.503
 4727TIP3   OH214123   3.822   4.560   6.494
 4727TIP3    H114124   3.860   4.495   6.553
 4727TIP3    H214125   3.751   4.599   6.545
 4728TIP3   OH214126   3.683   2.442   3.322
 4728TIP3    H114127   3.692   2.387   3.400
 4728TIP3    H214128   3.629   2.516   3.350
 4729TIP3   OH214129   4.750   5.583   1.972
 4729TIP3    H114130   4.798   5.520   1.918
 4729TIP3    H214131   4.731   5.656   1.912
 4730TIP3   OH214132   0.172   2.625   5.586
 4730TIP3    H114133   0.127   2.582   5.514
 4730TIP3    H214134   0.121   2.705   5.601
 4731TIP3   OH214135   3.717   5.666   1.817
 4731TIP3    H114136   3.768   5.738   1.854
 4731TIP3    H214137   3.741   5.590   1.869
 4732TIP3   OH214138   8.060   1.049   1.619
 4732TIP3    H114139   8.090   1.127   1.573
 4732TIP3    H214140   8.044   0.985   1.550
 4733TIP3   OH214141   3.415   2.489   2.515
 4733TIP3    H114142   3.329   2.531   2.527
 4733TIP3    H214143   3.474   2.538   2.572
 4734TIP3   OH214144   5.929   4.317   4.480
 4734TIP3    H114145   5.903   4.349   4.567
 4734TIP3    H214146   5.851   4.330   4.426
 4735TIP3   OH214147   2.686   1.771   1.889
 4735TIP3    H114148   2.637   1.698   1.926
 4735TIP3    H214149   2.656   1.848   1.939
 4736TIP3   OH214150   5.336   6.041   1.731
 4736TIP3    H114151   5.375   5.994   1.658
 4736TIP3    H214152   5.242   6.045   1.710
 4737TIP3   OH214153   0.509   5.034   2.251
 4737TIP3    H114154   0.516   5.043   2.346
 4737TIP3    H214155   0.414   5.032   2.234
 4738TIP3   OH214156   4.082   4.904   6.576
 4738TIP3    H114157   4.035   4.953   6.642
 4738TIP3    H214158   4.020   4.895   6.503
 4739TIP3   OH214159   4.697   5.372   6.070
 4739TIP3    H114160   4.783   5.388   6.109
 4739TIP3    H214161   4.644   5.339   6.142
 4740TIP3   OH214162   5.707   7.704   1.559
 4740TIP3    H114163   5.753   7.714   1.476
 4740TIP3    H214164   5.724   7.614   1.585
 4741TIP3   OH214165   1.307   3.907   5.323
 4741TIP3    H114166   1.331   3.841   5.258
 4741TIP3    H214167   1.234   3.954   5.283
 4742TIP3   OH214168   4.520   5.191   3.960
 4742TIP3    H114169   4.608   5.155   3.950
 4742TIP3    H214170   4.474   5.127   4.014
 4743TIP3   OH214171   7.702   3.469   4.951
 4743TIP3    H114172   7.682   3.542   5.010
 4743TIP3    H214173   7.761   3.413   5.001
 4744TIP3   OH214174   7.939   2.984   0.769
 4744TIP3    H114175   8.019   2.953   0.810
 4744TIP3    H214176   7.908   2.910   0.717
 4745TIP3   OH214177   7.334   1.238   4.707
 4745TIP3    H114178   7.399   1.260   4.640
 4745TIP3    H214179   7.374   1.167   4.757
 4746TIP3   OH214180   6.990   6.338   6.763
 4746TIP3    H114181   7.047   6.275   6.806
 4746TIP3    H214182   7.035   6.360   6.681
 4747TIP3   OH214183   2.881   7.419   4.290
 4747TIP3    H114184   2.818   7.394   4.358
 4747TIP3    H214185   2.839   7.492   4.246
 4748TIP3   OH214186   8.232   4.552   4.248
 4748TIP3    H114187   8.156   4.562   4.190
 4748TIP3    H214188   8.221   4.466   4.288
 4749TIP3   OH214189   8.076   7.574   1.542
 4749TIP3    H114190   7.996   7.603   1.585
 4749TIP3    H214191   8.146   7.597   1.603
 4750TIP3   OH214192   3.807   2.813   1.483
 4750TIP3    H114193   3.849   2.857   1.557
 4750TIP3    H214194   3.756   2.743   1.523
 4751TIP3   OH214195   4.531   2.919   6.320
 4751TIP3    H114196   4.455   2.911   6.378
 4751TIP3    H214197   4.566   3.007   6.338
 4752TIP3   OH214198   3.049   3.167   3.187
 4752TIP3    H114199   2.986   3.221   3.235
 4752TIP3    H214200   2.999   3.089   3.162
 4753TIP3   OH214201   6.839   0.729   3.010
 4753TIP3    H114202   6.879   0.679   2.938
 4753TIP3    H214203   6.799   0.805   2.966
 4754TIP3   OH214204   1.084   3.960   1.716
 4754TIP3    H114205   1.162   3.964   1.772
 4754TIP3    H214206   1.053   4.051   1.713
 4755TIP3   OH214207   2.103   5.541   2.709
 4755TIP3    H114208   2.020   5.572   2.673
 4755TIP3    H214209   2.083   5.516   2.799
 4756TIP3   OH214210   3.487   6.744   5.852
 4756TIP3    H114211   3.509   6.760   5.760
 4756TIP3    H214212   3.568   6.764   5.899
 4757TIP3   OH214213   4.967   7.345   2.146
 4757TIP3    H114214   4.971   7.260   2.190
 4757TIP3    H214215   4.874   7.370   2.150
 4758TIP3   OH214216   2.169   0.999   3.871
 4758TIP3    H114217   2.236   0.962   3.928
 4758TIP3    H214218   2.098   1.024   3.931
 4759TIP3   OH214219   7.174   1.889   1.611
 4759TIP3    H114220   7.120   1.884   1.690
 4759TIP3    H214221   7.193   1.983   1.602
 4760TIP3   OH214222   5.934   2.334   3.737
 4760TIP3    H114223   5.929   2.250   3.782
 4760TIP3    H214224   5.940   2.311   3.644
 4761TIP3   OH214225   0.801   4.355   4.089
 4761TIP3    H114226   0.861   4.321   4.155
 4761TIP3    H214227   0.820   4.449   4.086
 4762TIP3   OH214228   0.552   1.530   3.192
 4762TIP3    H114229   0.509   1.542   3.277
 4762TIP3    H214230   0.644   1.549   3.209
 4763TIP3   OH214231   3.821   6.941   1.441
 4763TIP3    H114232   3.876   6.864   1.454
 4763TIP3    H214233   3.738   6.905   1.408
 4764TIP3   OH214234   3.105   6.069   5.336
 4764TIP3    H114235   3.118   5.992   5.392
 4764TIP3    H214236   3.185   6.121   5.349
 4765TIP3   OH214237   7.891   5.891   2.093
 4765TIP3    H114238   7.923   5.972   2.131
 4765TIP3    H214239   7.967   5.851   2.052
 4766TIP3   OH214240   3.021   7.085   4.373
 4766TIP3    H114241   2.931   7.089   4.341
 4766TIP3    H214242   3.036   6.992   4.392
 4767TIP3   OH214243   1.542   0.786   0.972
 4767TIP3    H114244   1.611   0.724   0.994
 4767TIP3    H214245   1.471   0.733   0.937
 4768TIP3   OH214246   2.285   1.663   6.427
 4768TIP3    H114247   2.327   1.601   6.487
 4768TIP3    H214248   2.192   1.643   6.432
 4769TIP3   OH214249   0.202   7.562   5.912
 4769TIP3    H114250   0.124   7.507   5.918
 4769TIP3    H214251   0.199   7.598   5.823
 4770TIP3   OH214252   4.701   5.894   5.761
 4770TIP3    H114253   4.661   5.862   5.679
 4770TIP3    H214254   4.627   5.901   5.822
 4771TIP3   OH214255   5.291   5.139   1.337
 4771TIP3    H114256   5.221   5.075   1.352
 4771TIP3    H214257   5.329   5.115   1.253
 4772TIP3   OH214258   5.708   2.313   3.451
 4772TIP3    H114259   5.744   2.399   3.429
 4772TIP3    H214260   5.634   2.333   3.507
 4773TIP3   OH214261   6.720   3.010   5.661
 4773TIP3    H114262   6.742   3.102   5.680
 4773TIP3    H214263   6.683   2.978   5.743
 4774TIP3   OH214264   0.966   7.273   6.417
 4774TIP3    H114265   0.883   7.246   6.377
 4774TIP3    H214266   0.962   7.369   6.418
 4775TIP3   OH214267   3.106   6.274   0.968
 4775TIP3    H114268   3.092   6.303   0.878
 4775TIP3    H214269   3.135   6.184   0.960
 4776TIP3   OH214270   7.810   7.319   1.788
 4776TIP3    H114271   7.798   7.345   1.697
 4776TIP3    H214272   7.787   7.397   1.839
 4777TIP3   OH214273   3.315   3.129   1.513
 4777TIP3    H114274   3.353   3.041   1.516
 4777TIP3    H214275   3.391   3.188   1.513
 4778TIP3   OH214276   5.931   3.299   3.623
 4778TIP3    H114277   5.916   3.265   3.712
 4778TIP3    H214278   5.986   3.232   3.582
 4779TIP3   OH214279   1.897   3.340   5.198
 4779TIP3    H114280   1.877   3.342   5.104
 4779TIP3    H214281   1.957   3.413   5.212
 4780TIP3   OH214282   5.546   0.856   6.447
 4780TIP3    H114283   5.589   0.785   6.399
 4780TIP3    H214284   5.465   0.872   6.399
 4781TIP3   OH214285   6.985   4.534   5.206
 4781TIP3    H114286   6.912   4.521   5.144
 4781TIP3    H214287   7.020   4.620   5.183
 4782TIP3   OH214288   1.145   4.237   4.592
 4782TIP3    H114289   1.152   4.259   4.499
 4782TIP3    H214290   1.090   4.306   4.629
 4783TIP3   OH214291   5.785   1.809   2.767
 4783TIP3    H114292   5.714   1.855   2.721
 4783TIP3    H214293   5.799   1.729   2.716
 4784TIP3   OH214294   6.834   0.067   3.850
 4784TIP3    H114295   6.765   0.053   3.915
 4784TIP3    H214296   6.787   0.086   3.769
 4785TIP3   OH214297   3.778   3.424   1.965
 4785TIP3    H114298   3.783   3.516   1.939
 4785TIP3    H214299   3.864   3.403   2.000
 4786TIP3   OH214300   0.309   4.656   0.888
 4786TIP3    H114301   0.221   4.618   0.889
 4786TIP3    H214302   0.294   4.751   0.885
 4787TIP3   OH214303   1.332   5.865   1.901
 4787TIP3    H114304   1.295   5.951   1.880
 4787TIP3    H214305   1.274   5.830   1.969
 4788TIP3   OH214306   1.207   1.151   1.703
 4788TIP3    H114307   1.285   1.180   1.655
 4788TIP3    H214308   1.136   1.157   1.640
 4789TIP3   OH214309   2.767   5.328   3.343
 4789TIP3    H114310   2.690   5.373   3.377
 4789TIP3    H214311   2.747   5.235   3.352
 4790TIP3   OH214312   5.491   2.920   0.768
 4790TIP3    H114313   5.505   2.855   0.836
 4790TIP3    H214314   5.539   2.887   0.692
 4791TIP3   OH214315   4.738   2.588   5.003
 4791TIP3    H114316   4.758   2.506   4.958
 4791TIP3    H214317   4.819   2.612   5.047
 4792TIP3   OH214318   2.410   1.513   1.305
 4792TIP3    H114319   2.416   1.501   1.210
 4792TIP3    H214320   2.322   1.546   1.319
 4793TIP3   OH214321   0.577   3.359   5.287
 4793TIP3    H114322   0.536   3.423   5.345
 4793TIP3    H214323   0.659   3.335   5.330
 4794TIP3   OH214324   4.830   6.146   4.765
 4794TIP3    H114325   4.822   6.122   4.857
 4794TIP3    H214326   4.766   6.216   4.753
 4795TIP3   OH214327   1.290   6.464   3.130
 4795TIP3    H114328   1.269   6.557   3.136
 4795TIP3    H214329   1.209   6.420   3.155
 4796TIP3   OH214330   1.527   5.498   1.710
 4796TIP3    H114331   1.501   5.428   1.770
 4796TIP3    H214332   1.620   5.483   1.694
 4797TIP3   OH214333   7.826   4.889   1.225
 4797TIP3    H114334   7.784   4.894   1.311
 4797TIP3    H214335   7.889   4.817   1.233
 4798TIP3   OH214336   4.166   5.295   3.992
 4798TIP3    H114337   4.229   5.274   4.061
 4798TIP3    H214338   4.156   5.390   3.996
 4799TIP3   OH214339   3.657   0.787   2.561
 4799TIP3    H114340   3.590   0.850   2.534
 4799TIP3    H214341   3.715   0.781   2.485
 4800TIP3   OH214342   6.440   5.169   2.508
 4800TIP3    H114343   6.472   5.233   2.444
 4800TIP3    H214344   6.409   5.222   2.581
 4801TIP3   OH214345   6.570   1.836   4.838
 4801TIP3    H114346   6.487   1.791   4.827
 4801TIP3    H214347   6.546   1.927   4.854
 4802TIP3   OH214348   3.773   4.063   2.631
 4802TIP3    H114349   3.826   4.142   2.623
 4802TIP3    H214350   3.684   4.095   2.646
 4803TIP3   OH214351   6.166   6.419   1.578
 4803TIP3    H114352   6.156   6.509   1.546
 4803TIP3    H214353   6.132   6.421   1.668
 4804TIP3   OH214354   5.251   7.009   3.522
 4804TIP3    H114355   5.243   7.065   3.599
 4804TIP3    H214356   5.272   6.923   3.557
 4805TIP3   OH214357   4.365   3.154   2.687
 4805TIP3    H114358   4.366   3.129   2.779
 4805TIP3    H214359   4.314   3.235   2.685
 4806TIP3   OH214360   3.625   3.209   1.463
 4806TIP3    H114361   3.621   3.194   1.369
 4806TIP3    H214362   3.704   3.262   1.476
 4807TIP3   OH214363   3.579   6.856   3.227
 4807TIP3    H114364   3.575   6.762   3.209
 4807TIP3    H214365   3.643   6.865   3.297
 4808TIP3   OH214366   3.505   0.338   5.590
 4808TIP3    H114367   3.583   0.392   5.580
 4808TIP3    H214368   3.452   0.358   5.512
 4809TIP3   OH214369   1.100   1.514   1.000
 4809TIP3    H114370   1.092   1.609   0.999
 4809TIP3    H214371   1.009   1.482   1.001
 4810TIP3   OH214372   7.804   1.834   3.470
 4810TIP3    H114373   7.858   1.814   3.547
 4810TIP3    H214374   7.717   1.800   3.493
 4811TIP3   OH214375   3.958   3.797   2.975
 4811TIP3    H114376   3.895   3.748   2.922
 4811TIP3    H214377   4.026   3.824   2.912
 4812TIP3   OH214378   7.175   4.458   5.636
 4812TIP3    H114379   7.256   4.413   5.662
 4812TIP3    H214380   7.152   4.417   5.553
 4813TIP3   OH214381   7.833   2.892   5.322
 4813TIP3    H114382   7.903   2.836   5.287
 4813TIP3    H214383   7.779   2.913   5.245
 4814TIP3   OH214384   4.353   6.727   2.803
 4814TIP3    H114385   4.358   6.816   2.839
 4814TIP3    H214386   4.440   6.710   2.767
 4815TIP3   OH214387   2.440   2.011   4.447
 4815TIP3    H114388   2.529   1.992   4.476
 4815TIP3    H214389   2.386   1.993   4.524
 4816TIP3   OH214390   4.570   6.873   0.908
 4816TIP3    H114391   4.637   6.807   0.929
 4816TIP3    H214392   4.546   6.854   0.817
 4817TIP3   OH214393   0.854   5.092   0.871
 4817TIP3    H114394   0.881   5.182   0.857
 4817TIP3    H214395   0.797   5.095   0.948
 4818TIP3   OH214396   4.443   4.349   5.444
 4818TIP3    H114397   4.364   4.361   5.496
 4818TIP3    H214398   4.480   4.436   5.435
 4819TIP3   OH214399   6.722   0.693   5.934
 4819TIP3    H114400   6.629   0.670   5.930
 4819TIP3    H214401   6.741   0.699   6.028
 4820TIP3   OH214402   5.681   0.974   6.016
 4820TIP3    H114403   5.666   0.882   6.038
 4820TIP3    H214404   5.689   1.019   6.100
 4821TIP3   OH214405   7.003   5.296   4.193
 4821TIP3    H114406   6.928   5.268   4.139
 4821TIP3    H214407   6.973   5.283   4.283
 4822TIP3   OH214408   8.103   6.033   1.633
 4822TIP3    H114409   8.144   5.948   1.617
 4822TIP3    H214410   8.172   6.085   1.675
 4823TIP3   OH214411   6.370   3.518   1.030
 4823TIP3    H114412   6.428   3.579   1.074
 4823TIP3    H214413   6.393   3.524   0.938
 4824TIP3   OH214414   3.216   0.035   1.204
 4824TIP3    H114415   3.268  -0.037   1.169
 4824TIP3    H214416   3.184   0.081   1.127
 4825TIP3   OH214417   5.833   4.060   5.142
 4825TIP3    H114418   5.881   3.978   5.135
 4825TIP3    H214419   5.861   4.112   5.067
 4826TIP3   OH214420   0.505   5.077   5.585
 4826TIP3    H114421   0.460   5.124   5.655
 4826TIP3    H214422   0.439   5.021   5.546
 4827TIP3   OH214423   3.537   4.041   6.210
 4827TIP3    H114424   3.467   4.057   6.146
 4827TIP3    H214425   3.495   3.990   6.279
 4828TIP3   OH214426   8.072   0.612   1.972
 4828TIP3    H114427   8.089   0.545   1.906
 4828TIP3    H214428   7.997   0.661   1.938
 4829TIP3   OH214429   5.069   5.971   0.860
 4829TIP3    H114430   5.110   5.973   0.947
 4829TIP3    H214431   5.094   5.886   0.823
 4830TIP3   OH214432   3.410   5.283   3.423
 4830TIP3    H114433   3.369   5.212   3.472
 4830TIP3    H214434   3.339   5.325   3.376
 4831TIP3   OH214435   4.985   7.758   3.779
 4831TIP3    H114436   4.976   7.663   3.778
 4831TIP3    H214437   4.979   7.782   3.872
 4832TIP3   OH214438   6.674   0.540   5.477
 4832TIP3    H114439   6.670   0.446   5.493
 4832TIP3    H214440   6.596   0.575   5.519
 4833TIP3   OH214441   4.501   6.829   5.082
 4833TIP3    H114442   4.449   6.909   5.084
 4833TIP3    H214443   4.440   6.761   5.053
 4834TIP3   OH214444   6.149   3.696   3.906
 4834TIP3    H114445   6.216   3.657   3.962
 4834TIP3    H214446   6.190   3.777   3.874
 4835TIP3   OH214447   0.267   6.535   0.114
 4835TIP3    H114448   0.337   6.587   0.076
 4835TIP3    H214449   0.192   6.548   0.055
 4836TIP3   OH214450   7.349   6.234   6.436
 4836TIP3    H114451   7.270   6.255   6.486
 4836TIP3    H214452   7.421   6.264   6.492
 4837TIP3   OH214453   4.455   2.471   1.486
 4837TIP3    H114454   4.389   2.533   1.518
 4837TIP3    H214455   4.534   2.525   1.475
 4838TIP3   OH214456   2.109   3.096   6.676
 4838TIP3    H114457   2.027   3.145   6.684
 4838TIP3    H214458   2.158   3.141   6.607
 4839TIP3   OH214459   7.402   7.471   0.886
 4839TIP3    H114460   7.388   7.529   0.811
 4839TIP3    H214461   7.497   7.466   0.895
 4840TIP3   OH214462   7.421   3.275   0.711
 4840TIP3    H114463   7.380   3.257   0.627
 4840TIP3    H214464   7.511   3.298   0.690
 4841TIP3   OH214465   8.160   0.940   2.716
 4841TIP3    H114466   8.097   1.011   2.707
 4841TIP3    H214467   8.152   0.912   2.807
 4842TIP3   OH214468   3.890   7.795   0.891
 4842TIP3    H114469   3.944   7.867   0.862
 4842TIP3    H214470   3.946   7.718   0.884
 4843TIP3   OH214471   2.758   4.513   2.609
 4843TIP3    H114472   2.840   4.465   2.617
 4843TIP3    H214473   2.777   4.583   2.546
 4844TIP3   OH214474   6.547   3.639   2.477
 4844TIP3    H114475   6.478   3.578   2.451
 4844TIP3    H214476   6.621   3.618   2.419
 4845TIP3   OH214477   6.960   6.196   0.952
 4845TIP3    H114478   6.975   6.102   0.941
 4845TIP3    H214479   7.048   6.234   0.952
 4846TIP3   OH214480   2.199   7.531   5.512
 4846TIP3    H114481   2.197   7.482   5.595
 4846TIP3    H214482   2.290   7.527   5.484
 4847TIP3   OH214483   1.088   5.800   5.239
 4847TIP3    H114484   1.086   5.886   5.282
 4847TIP3    H214485   1.084   5.737   5.311
 4848TIP3   OH214486   0.309   6.517   1.757
 4848TIP3    H114487   0.290   6.437   1.807
 4848TIP3    H214488   0.363   6.487   1.684
 4849TIP3   OH214489   3.715   6.043   3.385
 4849TIP3    H114490   3.737   5.950   3.393
 4849TIP3    H214491   3.656   6.060   3.459
 4850TIP3   OH214492   5.197   6.633   4.423
 4850TIP3    H114493   5.238   6.710   4.462
 4850TIP3    H214494   5.270   6.577   4.397
 4851TIP3   OH214495   6.882   4.580   3.505
 4851TIP3    H114496   6.845   4.626   3.429
 4851TIP3    H214497   6.824   4.603   3.577
 4852TIP3   OH214498   7.463   3.967   0.279
 4852TIP3    H114499   7.400   3.984   0.209
 4852TIP3    H214500   7.449   4.037   0.342
 4853TIP3   OH214501   7.934   5.473   1.427
 4853TIP3    H114502   7.992   5.400   1.451
 4853TIP3    H214503   7.893   5.500   1.509
 4854TIP3   OH214504   6.550   1.299   1.898
 4854TIP3    H114505   6.639   1.283   1.929
 4854TIP3    H214506   6.509   1.212   1.895
 4855TIP3   OH214507   0.953   2.620   4.935
 4855TIP3    H114508   0.939   2.646   4.844
 4855TIP3    H214509   0.952   2.703   4.983
 4856TIP3   OH214510   4.926   2.450   1.267
 4856TIP3    H114511   4.911   2.541   1.244
 4856TIP3    H214512   4.910   2.402   1.186
 4857TIP3   OH214513   5.573   5.182   1.388
 4857TIP3    H114514   5.624   5.215   1.314
 4857TIP3    H214515   5.482   5.191   1.361
 4858TIP3   OH214516   1.925   4.853   0.485
 4858TIP3    H114517   2.017   4.830   0.493
 4858TIP3    H214518   1.909   4.857   0.391
 4859TIP3   OH214519   3.744   6.310   1.615
 4859TIP3    H114520   3.739   6.228   1.663
 4859TIP3    H214521   3.785   6.287   1.532
 4860TIP3   OH214522   5.771   1.179   2.208
 4860TIP3    H114523   5.682   1.185   2.175
 4860TIP3    H214524   5.792   1.086   2.204
 4861TIP3   OH214525   7.589   6.478   2.956
 4861TIP3    H114526   7.598   6.403   3.015
 4861TIP3    H214527   7.645   6.546   2.995
 4862TIP3   OH214528   4.170   6.503   5.303
 4862TIP3    H114529   4.154   6.578   5.360
 4862TIP3    H214530   4.109   6.516   5.230
 4863TIP3   OH214531   2.212   6.948   5.042
 4863TIP3    H114532   2.154   6.917   5.112
 4863TIP3    H214533   2.167   6.923   4.961
 4864TIP3   OH214534   6.305   3.298   3.074
 4864TIP3    H114535   6.392   3.328   3.102
 4864TIP3    H214536   6.270   3.372   3.024
 4865TIP3   OH214537   0.239   0.677   1.040
 4865TIP3    H114538   0.283   0.720   0.967
 4865TIP3    H214539   0.160   0.731   1.055
 4866TIP3   OH214540   4.147   6.557   3.471
 4866TIP3    H114541   4.160   6.486   3.409
 4866TIP3    H214542   4.076   6.527   3.528
 4867TIP3   OH214543   3.354   6.386   0.783
 4867TIP3    H114544   3.390   6.363   0.869
 4867TIP3    H214545   3.425   6.368   0.722
 4868TIP3   OH214546   4.228   0.978   4.995
 4868TIP3    H114547   4.264   1.062   5.025
 4868TIP3    H214548   4.133   0.991   4.994
 4869TIP3   OH214549   3.839   0.662   3.172
 4869TIP3    H114550   3.744   0.656   3.185
 4869TIP3    H214551   3.849   0.704   3.087
 4870TIP3   OH214552   6.637   1.311   3.577
 4870TIP3    H114553   6.572   1.369   3.616
 4870TIP3    H214554   6.661   1.251   3.648
 4871TIP3   OH214555   6.047   4.047   0.926
 4871TIP3    H114556   6.127   3.995   0.933
 4871TIP3    H214557   6.058   4.118   0.990
 4872TIP3   OH214558   2.608   2.518   1.783
 4872TIP3    H114559   2.632   2.601   1.823
 4872TIP3    H214560   2.513   2.512   1.795
 4873TIP3   OH214561   5.010   3.877   3.286
 4873TIP3    H114562   4.963   3.946   3.333
 4873TIP3    H214563   5.008   3.905   3.194
 4874TIP3   OH214564   5.963   0.679   2.586
 4874TIP3    H114565   6.051   0.681   2.624
 4874TIP3    H214566   5.910   0.631   2.649
 4875TIP3   OH214567   1.975   3.895   1.389
 4875TIP3    H114568   1.892   3.858   1.417
 4875TIP3    H214569   1.951   3.959   1.321
 4876TIP3   OH214570   2.775   3.959   0.121
 4876TIP3    H114571   2.854   3.962   0.068
 4876TIP3    H214572   2.756   4.051   0.141
 4877TIP3   OH214573   4.651   6.722   5.325
 4877TIP3    H114574   4.592   6.659   5.366
 4877TIP3    H214575   4.602   6.753   5.248
 4878TIP3   OH214576   3.601   0.252   4.957
 4878TIP3    H114577   3.506   0.250   4.971
 4878TIP3    H214578   3.616   0.337   4.915
 4879TIP3   OH214579   4.768   1.723   0.994
 4879TIP3    H114580   4.812   1.748   1.075
 4879TIP3    H214581   4.675   1.743   1.011
 4880TIP3   OH214582   1.627   4.739   1.115
 4880TIP3    H114583   1.667   4.825   1.127
 4880TIP3    H214584   1.699   4.682   1.089
 4881TIP3   OH214585   7.032   2.347   5.473
 4881TIP3    H114586   6.950   2.314   5.510
 4881TIP3    H214587   7.079   2.269   5.446
 4882TIP3   OH214588   1.059   0.378   0.460
 4882TIP3    H114589   1.034   0.468   0.479
 4882TIP3    H214590   0.989   0.325   0.499
 4883TIP3   OH214591   2.511   3.370   4.744
 4883TIP3    H114592   2.461   3.430   4.799
 4883TIP3    H214593   2.521   3.291   4.797
 4884TIP3   OH214594   2.950   0.580   4.568
 4884TIP3    H114595   2.927   0.514   4.634
 4884TIP3    H214596   2.991   0.650   4.618
 4885TIP3   OH214597   5.759   4.601   4.853
 4885TIP3    H114598   5.843   4.643   4.836
 4885TIP3    H214599   5.695   4.656   4.806
 4886TIP3   OH214600   7.566   4.272   4.412
 4886TIP3    H114601   7.523   4.356   4.393
 4886TIP3    H214602   7.534   4.213   4.344
 4887TIP3   OH214603   1.807   2.833   0.882
 4887TIP3    H114604   1.826   2.740   0.894
 4887TIP3    H214605   1.891   2.876   0.899
 4888TIP3   OH214606   4.440   2.954   6.573
 4888TIP3    H114607   4.506   3.014   6.608
 4888TIP3    H214608   4.407   2.907   6.649
 4889TIP3   OH214609   7.959   7.546   4.822
 4889TIP3    H114610   7.960   7.490   4.900
 4889TIP3    H214611   8.033   7.515   4.770
 4890TIP3   OH214612   7.002   2.771   1.074
 4890TIP3    H114613   6.951   2.802   1.149
 4890TIP3    H214614   7.093   2.776   1.104
 4891TIP3   OH214615   1.098   4.993   4.589
 4891TIP3    H114616   1.011   5.029   4.603
 4891TIP3    H214617   1.102   4.916   4.647
 4892TIP3   OH214618   3.546   3.357   3.245
 4892TIP3    H114619   3.465   3.385   3.202
 4892TIP3    H214620   3.610   3.424   3.222
 4893TIP3   OH214621   3.228   4.619   5.802
 4893TIP3    H114622   3.290   4.558   5.762
 4893TIP3    H214623   3.282   4.696   5.824
 4894TIP3   OH214624   5.407   2.457   6.627
 4894TIP3    H114625   5.486   2.414   6.660
 4894TIP3    H214626   5.402   2.539   6.677
 4895TIP3   OH214627   3.302   0.825   6.527
 4895TIP3    H114628   3.215   0.799   6.497
 4895TIP3    H214629   3.297   0.921   6.536
 4896TIP3   OH214630   7.926   3.410   2.400
 4896TIP3    H114631   7.852   3.415   2.462
 4896TIP3    H214632   7.952   3.318   2.402
 4897TIP3   OH214633   3.301   1.188   5.342
 4897TIP3    H114634   3.324   1.140   5.422
 4897TIP3    H214635   3.378   1.180   5.286
 4898TIP3   OH214636   3.745   1.665   4.069
 4898TIP3    H114637   3.703   1.583   4.095
 4898TIP3    H214638   3.741   1.720   4.147
 4899TIP3   OH214639   6.375   5.993   1.225
 4899TIP3    H114640   6.432   5.953   1.160
 4899TIP3    H214641   6.432   6.051   1.276
 4900TIP3   OH214642   0.069   2.228   1.057
 4900TIP3    H114643   0.156   2.234   1.017
 4900TIP3    H214644   0.074   2.286   1.133
 4901TIP3   OH214645   7.997   5.056   5.471
 4901TIP3    H114646   7.948   5.096   5.542
 4901TIP3    H214647   7.965   4.966   5.467
 4902TIP3   OH214648   1.170   4.895   2.467
 4902TIP3    H114649   1.199   4.942   2.546
 4902TIP3    H214650   1.075   4.906   2.467
 4903TIP3   OH214651   0.839   4.092   2.689
 4903TIP3    H114652   0.752   4.113   2.656
 4903TIP3    H214653   0.830   4.094   2.785
 4904TIP3   OH214654   1.278   0.139   0.971
 4904TIP3    H114655   1.362   0.102   0.998
 4904TIP3    H214656   1.300   0.201   0.902
 4905TIP3   OH214657   1.429   2.561   5.746
 4905TIP3    H114658   1.496   2.539   5.681
 4905TIP3    H214659   1.361   2.606   5.697
 4906TIP3   OH214660   3.558   1.246   1.379
 4906TIP3    H114661   3.484   1.228   1.321
 4906TIP3    H214662   3.575   1.162   1.423
 4907TIP3   OH214663   0.274   3.189   6.777
 4907TIP3    H114664   0.344   3.237   6.732
 4907TIP3    H214665   0.193   3.221   6.736
 4908TIP3   OH214666   4.912   0.983   5.660
 4908TIP3    H114667   4.888   0.971   5.568
 4908TIP3    H214668   4.828   0.985   5.706
 4909TIP3   OH214669   3.202   6.987   2.692
 4909TIP3    H114670   3.215   6.974   2.786
 4909TIP3    H214671   3.160   6.906   2.663
 4910TIP3   OH214672   6.150   3.913   3.573
 4910TIP3    H114673   6.086   3.899   3.502
 4910TIP3    H214674   6.215   3.843   3.561
 4911TIP3   OH214675   7.091   1.326   2.004
 4911TIP3    H114676   7.134   1.241   2.014
 4911TIP3    H214677   7.162   1.388   1.992
 4912TIP3   OH214678   3.117   2.265   2.565
 4912TIP3    H114679   3.181   2.289   2.631
 4912TIP3    H214680   3.055   2.337   2.564
 4913TIP3   OH214681   6.968   6.759   0.210
 4913TIP3    H114682   6.927   6.685   0.254
 4913TIP3    H214683   7.054   6.767   0.251
 4914TIP3   OH214684   2.080   2.445   0.068
 4914TIP3    H114685   2.082   2.444   0.163
 4914TIP3    H214686   2.062   2.537   0.046
 4915TIP3   OH214687   2.738   2.261   5.615
 4915TIP3    H114688   2.760   2.216   5.696
 4915TIP3    H214689   2.643   2.263   5.613
 4916TIP3   OH214690   4.684   1.707   5.894
 4916TIP3    H114691   4.718   1.708   5.984
 4916TIP3    H214692   4.712   1.791   5.858
 4917TIP3   OH214693   6.327   6.811   2.609
 4917TIP3    H114694   6.398   6.763   2.565
 4917TIP3    H214695   6.247   6.779   2.567
 4918TIP3   OH214696   6.414   7.103   2.335
 4918TIP3    H114697   6.382   7.171   2.394
 4918TIP3    H214698   6.342   7.089   2.274
 4919TIP3   OH214699   8.171   1.873   5.628
 4919TIP3    H114700   8.087   1.873   5.674
 4919TIP3    H214701   8.176   1.959   5.587
 4920TIP3   OH214702   1.902   7.481   6.398
 4920TIP3    H114703   1.881   7.413   6.333
 4920TIP3    H214704   1.930   7.432   6.475
 4921TIP3   OH214705   7.951   5.302   2.378
 4921TIP3    H114706   7.877   5.281   2.322
 4921TIP3    H214707   7.938   5.395   2.401
 4922TIP3   OH214708   0.719   1.343   0.420
 4922TIP3    H114709   0.788   1.332   0.356
 4922TIP3    H214710   0.700   1.254   0.451
 4923TIP3   OH214711   3.598   5.346   6.716
 4923TIP3    H114712   3.644   5.413   6.766
 4923TIP3    H214713   3.618   5.366   6.624
 4924TIP3   OH214714   5.888   2.217   5.736
 4924TIP3    H114715   5.936   2.211   5.654
 4924TIP3    H214716   5.910   2.136   5.783
 4925TIP3   OH214717   2.716   2.280   4.629
 4925TIP3    H114718   2.671   2.240   4.554
 4925TIP3    H214719   2.809   2.272   4.607
 4926TIP3   OH214720   3.330   2.348   1.862
 4926TIP3    H114721   3.382   2.268   1.861
 4926TIP3    H214722   3.342   2.384   1.950
 4927TIP3   OH214723   1.394   4.382   2.751
 4927TIP3    H114724   1.327   4.341   2.806
 4927TIP3    H214725   1.466   4.401   2.810
 4928TIP3   OH214726   6.476   5.704   0.503
 4928TIP3    H114727   6.477   5.797   0.479
 4928TIP3    H214728   6.444   5.659   0.425
 4929TIP3   OH214729   2.385   3.107   1.041
 4929TIP3    H114730   2.298   3.108   1.002
 4929TIP3    H214731   2.369   3.108   1.135
 4930TIP3   OH214732   7.077   0.463   2.293
 4930TIP3    H114733   7.166   0.441   2.322
 4930TIP3    H214734   7.085   0.478   2.199
 4931TIP3   OH214735   6.541   4.411   5.699
 4931TIP3    H114736   6.534   4.328   5.745
 4931TIP3    H214737   6.551   4.387   5.607
 4932TIP3   OH214738   1.861   4.892   0.227
 4932TIP3    H114739   1.771   4.924   0.218
 4932TIP3    H214740   1.913   4.952   0.175
 4933TIP3   OH214741   4.532   3.877   5.872
 4933TIP3    H114742   4.469   3.949   5.869
 4933TIP3    H214743   4.550   3.858   5.780
 4934TIP3   OH214744   3.137   4.218   2.561
 4934TIP3    H114745   3.197   4.279   2.603
 4934TIP3    H214746   3.185   4.134   2.561
 4935TIP3   OH214747   3.160   1.534   2.142
 4935TIP3    H114748   3.095   1.595   2.179
 4935TIP3    H214749   3.221   1.518   2.214
 4936TIP3   OH214750   8.229   4.128   3.912
 4936TIP3    H114751   8.140   4.097   3.926
 4936TIP3    H214752   8.220   4.216   3.877
 4937TIP3   OH214753   5.896   1.309   2.699
 4937TIP3    H114754   5.882   1.249   2.772
 4937TIP3    H214755   5.979   1.281   2.660
 4938TIP3   OH214756   4.383   6.001   3.037
 4938TIP3    H114757   4.356   6.077   2.986
 4938TIP3    H214758   4.474   5.986   3.011
 4939TIP3   OH214759   6.096   5.303   4.417
 4939TIP3    H114760   6.043   5.255   4.481
 4939TIP3    H214761   6.163   5.346   4.470
 4940TIP3   OH214762   4.331   0.996   5.549
 4940TIP3    H114763   4.303   0.965   5.636
 4940TIP3    H214764   4.378   1.077   5.567
 4941TIP3   OH214765   7.904   0.540   6.296
 4941TIP3    H114766   7.954   0.477   6.348
 4941TIP3    H214767   7.967   0.610   6.276
 4942TIP3   OH214768   3.611   3.173   0.548
 4942TIP3    H114769   3.635   3.227   0.623
 4942TIP3    H214770   3.516   3.185   0.540
 4943TIP3   OH214771   2.487   2.836   2.775
 4943TIP3    H114772   2.553   2.855   2.842
 4943TIP3    H214773   2.500   2.744   2.754
 4944TIP3   OH214774   2.299   4.210   6.068
 4944TIP3    H114775   2.336   4.123   6.056
 4944TIP3    H214776   2.310   4.254   5.984
 4945TIP3   OH214777   5.010   3.869   1.775
 4945TIP3    H114778   5.034   3.777   1.773
 4945TIP3    H214779   4.998   3.894   1.683
 4946TIP3   OH214780   0.523   3.530   4.417
 4946TIP3    H114781   0.526   3.461   4.351
 4946TIP3    H214782   0.608   3.575   4.410
 4947TIP3   OH214783   6.500   6.420   0.173
 4947TIP3    H114784   6.425   6.382   0.220
 4947TIP3    H214785   6.461   6.476   0.106
 4948TIP3   OH214786   3.036   6.925   5.519
 4948TIP3    H114787   2.963   6.951   5.463
 4948TIP3    H214788   3.104   6.896   5.458
 4949TIP3   OH214789   3.937   3.777   4.922
 4949TIP3    H114790   3.850   3.739   4.915
 4949TIP3    H214791   3.929   3.864   4.883
 4950TIP3   OH214792   6.157   4.492   1.030
 4950TIP3    H114793   6.135   4.521   1.119
 4950TIP3    H214794   6.129   4.565   0.974
 4951TIP3   OH214795   2.946   6.930   0.764
 4951TIP3    H114796   2.965   6.851   0.815
 4951TIP3    H214797   3.032   6.960   0.734
 4952TIP3   OH214798   1.901   7.225   3.905
 4952TIP3    H114799   1.915   7.215   3.810
 4952TIP3    H214800   1.988   7.247   3.939
 4953TIP3   OH214801   3.857   3.394   6.175
 4953TIP3    H114802   3.810   3.406   6.092
 4953TIP3    H214803   3.832   3.470   6.227
 4954TIP3   OH214804   5.465   2.976   3.167
 4954TIP3    H114805   5.528   2.982   3.095
 4954TIP3    H214806   5.461   3.065   3.201
 4955TIP3   OH214807   1.909   6.436   3.334
 4955TIP3    H114808   1.816   6.441   3.356
 4955TIP3    H214809   1.954   6.438   3.418
 4956TIP3   OH214810   2.285   6.998   3.309
 4956TIP3    H114811   2.197   7.036   3.308
 4956TIP3    H214812   2.276   6.919   3.362
 4957TIP3   OH214813   3.323   3.111   0.626
 4957TIP3    H114814   3.310   3.017   0.615
 4957TIP3    H214815   3.269   3.135   0.702
 4958TIP3   OH214816   5.426   0.014   3.668
 4958TIP3    H114817   5.508   0.056   3.642
 4958TIP3    H214818   5.448  -0.077   3.683
 4959TIP3   OH214819   6.269   3.865   0.935
 4959TIP3    H114820   6.342   3.827   0.985
 4959TIP3    H214821   6.308   3.890   0.851
 4960TIP3   OH214822   7.451   7.755   2.937
 4960TIP3    H114823   7.359   7.771   2.959
 4960TIP3    H214824   7.498   7.769   3.020
 4961TIP3   OH214825   1.839   2.915   0.461
 4961TIP3    H114826   1.862   2.822   0.454
 4961TIP3    H214827   1.758   2.916   0.511
 4962TIP3   OH214828   8.243   5.204   1.769
 4962TIP3    H114829   8.248   5.292   1.807
 4962TIP3    H214830   8.334   5.181   1.752
 4963TIP3   OH214831   6.104   5.260   2.404
 4963TIP3    H114832   6.184   5.244   2.354
 4963TIP3    H214833   6.124   5.230   2.492
 4964TIP3   OH214834   6.909   1.174   4.534
 4964TIP3    H114835   6.903   1.179   4.629
 4964TIP3    H214836   7.002   1.160   4.517
 4965TIP3   OH214837   6.367   7.147   6.097
 4965TIP3    H114838   6.354   7.105   6.182
 4965TIP3    H214839   6.460   7.139   6.080
 4966TIP3   OH214840   4.419   2.588   0.928
 4966TIP3    H114841   4.414   2.617   0.837
 4966TIP3    H214842   4.459   2.501   0.923
 4967TIP3   OH214843   0.112   2.817   5.333
 4967TIP3    H114844   0.113   2.907   5.301
 4967TIP3    H214845   0.191   2.810   5.386
 4968TIP3   OH214846   8.154   1.860   3.217
 4968TIP3    H114847   8.083   1.807   3.253
 4968TIP3    H214848   8.215   1.797   3.179
 4969TIP3   OH214849   1.049   5.798   4.493
 4969TIP3    H114850   1.087   5.881   4.467
 4969TIP3    H214851   1.023   5.756   4.411
 4970TIP3   OH214852   7.893   7.273   3.154
 4970TIP3    H114853   7.920   7.235   3.237
 4970TIP3    H214854   7.844   7.203   3.110
 4971TIP3   OH214855   6.074   0.725   6.025
 4971TIP3    H114856   6.149   0.674   5.994
 4971TIP3    H214857   6.025   0.746   5.945
 4972TIP3   OH214858   7.072   6.495   1.104
 4972TIP3    H114859   7.091   6.412   1.059
 4972TIP3    H214860   7.051   6.556   1.033
 4973TIP3   OH214861   3.641   6.087   4.092
 4973TIP3    H114862   3.728   6.120   4.118
 4973TIP3    H214863   3.630   6.119   4.003
 4974TIP3   OH214864   0.831   4.599   5.927
 4974TIP3    H114865   0.854   4.689   5.904
 4974TIP3    H214866   0.907   4.548   5.902
 4975TIP3   OH214867   7.204   6.510   4.156
 4975TIP3    H114868   7.239   6.467   4.233
 4975TIP3    H214869   7.114   6.534   4.180
 4976TIP3   OH214870   8.089   6.735   6.701
 4976TIP3    H114871   8.123   6.747   6.790
 4976TIP3    H214872   8.167   6.735   6.646
 4977TIP3   OH214873   0.694   1.224   4.730
 4977TIP3    H114874   0.776   1.264   4.702
 4977TIP3    H214875   0.652   1.289   4.786
 4978TIP3   OH214876   2.412   7.589   2.516
 4978TIP3    H114877   2.341   7.550   2.466
 4978TIP3    H214878   2.492   7.557   2.473
 4979TIP3   OH214879   4.648   4.728   5.608
 4979TIP3    H114880   4.727   4.767   5.645
 4979TIP3    H214881   4.583   4.799   5.609
 4980TIP3   OH214882   4.399   0.989   3.354
 4980TIP3    H114883   4.442   0.918   3.400
 4980TIP3    H214884   4.329   0.946   3.304
 4981TIP3   OH214885   1.285   3.193   2.261
 4981TIP3    H114886   1.254   3.266   2.207
 4981TIP3    H214887   1.276   3.117   2.204
 4982TIP3   OH214888   8.176   0.699   3.128
 4982TIP3    H114889   8.083   0.677   3.126
 4982TIP3    H214890   8.221   0.614   3.127
 4983TIP3   OH214891   3.242   5.716   0.129
 4983TIP3    H114892   3.307   5.775   0.167
 4983TIP3    H214893   3.158   5.751   0.157
 4984TIP3   OH214894   6.569   1.954   5.433
 4984TIP3    H114895   6.647   1.930   5.482
 4984TIP3    H214896   6.498   1.947   5.497
 4985TIP3   OH214897   4.789   2.309   2.618
 4985TIP3    H114898   4.780   2.225   2.573
 4985TIP3    H214899   4.703   2.350   2.609
 4986TIP3   OH214900   3.038   4.965   2.973
 4986TIP3    H114901   2.982   4.903   3.020
 4986TIP3    H214902   3.070   5.025   3.041
 4987TIP3   OH214903   5.500   3.116   6.738
 4987TIP3    H114904   5.441   3.176   6.694
 4987TIP3    H214905   5.467   3.110   6.828
 4988TIP3   OH214906   6.600   6.493   6.204
 4988TIP3    H114907   6.642   6.467   6.286
 4988TIP3    H214908   6.532   6.555   6.229
 4989TIP3   OH214909   0.840   4.913   1.707
 4989TIP3    H114910   0.916   4.919   1.766
 4989TIP3    H214911   0.869   4.853   1.638
 4990TIP3   OH214912   2.739   5.219   5.621
 4990TIP3    H114913   2.803   5.174   5.566
 4990TIP3    H214914   2.782   5.302   5.643
 4991TIP3   OH214915   3.676   3.715   4.835
 4991TIP3    H114916   3.625   3.791   4.808
 4991TIP3    H214917   3.708   3.677   4.753
 4992TIP3   OH214918   5.247   3.052   4.516
 4992TIP3    H114919   5.185   3.112   4.557
 4992TIP3    H214920   5.199   3.016   4.441
 4993TIP3   OH214921   6.971   1.633   3.882
 4993TIP3    H114922   6.883   1.612   3.851
 4993TIP3    H214923   6.993   1.561   3.942
 4994TIP3   OH214924   6.196   5.125   0.383
 4994TIP3    H114925   6.204   5.097   0.474
 4994TIP3    H214926   6.108   5.099   0.357
 4995TIP3   OH214927   2.335   2.450   3.282
 4995TIP3    H114928   2.382   2.439   3.365
 4995TIP3    H214929   2.381   2.393   3.220
 4996TIP3   OH214930   2.913   0.455   2.595
 4996TIP3    H114931   2.869   0.425   2.516
 4996TIP3    H214932   2.923   0.376   2.648
 4997TIP3   OH214933   7.649   7.306   4.972
 4997TIP3    H114934   7.595   7.316   4.894
 4997TIP3    H214935   7.733   7.276   4.939
 4998TIP3   OH214936   4.948   5.200   3.145
 4998TIP3    H114937   4.890   5.188   3.220
 4998TIP3    H214938   5.035   5.180   3.179
 4999TIP3   OH214939   3.588   1.952   5.529
 4999TIP3    H114940   3.536   1.881   5.490
 4999TIP3    H214941   3.531   1.990   5.595
 5000TIP3   OH214942   1.399   0.125   5.131
 5000TIP3    H114943   1.475   0.123   5.189
 5000TIP3    H214944   1.429   0.174   5.054
 5001TIP3   OH214945   7.532   6.477   0.334
 5001TIP3    H114946   7.501   6.548   0.390
 5001TIP3    H214947   7.467   6.472   0.264
 5002TIP3   OH214948   3.088   7.799   4.653
 5002TIP3    H114949   3.097   7.893   4.668
 5002TIP3    H214950   3.108   7.759   4.737
 5003TIP3   OH214951   1.183   3.033   0.873
 5003TIP3    H114952   1.154   2.951   0.912
 5003TIP3    H214953   1.254   3.063   0.930
 5004TIP3   OH214954   3.361   0.386   5.349
 5004TIP3    H114955   3.389   0.313   5.292
 5004TIP3    H214956   3.374   0.464   5.295
 5005TIP3   OH214957   4.962   1.974   3.195
 5005TIP3    H114958   5.005   2.002   3.276
 5005TIP3    H214959   4.882   2.026   3.192
 5006TIP3   OH214960   0.425   1.539   3.494
 5006TIP3    H114961   0.384   1.596   3.429
 5006TIP3    H214962   0.373   1.458   3.492
 5007TIP3   OH214963   6.225   1.818   1.750
 5007TIP3    H114964   6.179   1.901   1.736
 5007TIP3    H214965   6.273   1.804   1.668
 5008TIP3   OH214966   1.734   3.115   1.568
 5008TIP3    H114967   1.818   3.068   1.563
 5008TIP3    H214968   1.668   3.045   1.566
 5009TIP3   OH214969   7.065   6.927   2.241
 5009TIP3    H114970   7.116   6.998   2.280
 5009TIP3    H214971   7.127   6.856   2.230
 5010TIP3   OH214972   6.541   0.960   5.991
 5010TIP3    H114973   6.635   0.961   6.010
 5010TIP3    H214974   6.501   0.916   6.066
 5011TIP3   OH214975   5.095   7.440   0.213
 5011TIP3    H114976   5.122   7.532   0.220
 5011TIP3    H214977   5.007   7.438   0.250
 5012TIP3   OH214978   3.899   2.071   1.921
 5012TIP3    H114979   3.893   1.975   1.921
 5012TIP3    H214980   3.980   2.090   1.875
 5013TIP3   OH214981   7.934   0.320   3.586
 5013TIP3    H114982   7.844   0.296   3.607
 5013TIP3    H214983   7.932   0.414   3.573
 5014TIP3   OH214984   6.031   1.074   6.249
 5014TIP3    H114985   6.084   0.996   6.264
 5014TIP3    H214986   6.093   1.140   6.218
 5015TIP3   OH214987   1.226   2.694   0.958
 5015TIP3    H114988   1.255   2.677   0.868
 5015TIP3    H214989   1.170   2.620   0.979
 5016TIP3   OH214990   3.817   3.080   4.971
 5016TIP3    H114991   3.790   3.151   4.912
 5016TIP3    H214992   3.871   3.023   4.916
 5017TIP3   OH214993   7.001   6.820   3.138
 5017TIP3    H114994   7.085   6.834   3.094
 5017TIP3    H214995   6.947   6.775   3.073
 5018TIP3   OH214996   5.494   4.318   0.570
 5018TIP3    H114997   5.412   4.355   0.538
 5018TIP3    H214998   5.484   4.314   0.665
 5019TIP3   OH214999   4.094   1.101   4.072
 5019TIP3    H115000   4.145   1.182   4.078
 5019TIP3    H215001   4.015   1.119   4.122
 5020TIP3   OH215002   0.473   5.370   1.361
 5020TIP3    H115003   0.462   5.404   1.272
 5020TIP3    H215004   0.532   5.295   1.351
 5021TIP3   OH215005   6.105   4.808   1.881
 5021TIP3    H115006   6.187   4.852   1.861
 5021TIP3    H215007   6.131   4.719   1.906
 5022TIP3   OH215008   7.683   5.405   5.851
 5022TIP3    H115009   7.650   5.373   5.935
 5022TIP3    H215010   7.770   5.439   5.871
 5023TIP3   OH215011   1.557   5.025   1.934
 5023TIP3    H115012   1.643   5.059   1.959
 5023TIP3    H215013   1.573   4.975   1.854
 5024TIP3   OH215014   2.826   7.618   6.111
 5024TIP3    H115015   2.781   7.557   6.169
 5024TIP3    H215016   2.761   7.685   6.091
 5025TIP3   OH215017   6.852   7.362   4.199
 5025TIP3    H115018   6.882   7.414   4.124
 5025TIP3    H215019   6.919   7.295   4.210
 5026TIP3   OH215020   0.899   6.489   5.242
 5026TIP3    H115021   0.893   6.404   5.198
 5026TIP3    H215022   0.954   6.542   5.185
 5027TIP3   OH215023   3.515   3.753   2.836
 5027TIP3    H115024   3.520   3.658   2.835
 5027TIP3    H215025   3.503   3.777   2.928
 5028TIP3   OH215026   8.007   4.740   1.968
 5028TIP3    H115027   7.967   4.670   2.020
 5028TIP3    H215028   7.954   4.818   1.987
 5029TIP3   OH215029   4.975   1.997   6.155
 5029TIP3    H115030   4.891   2.041   6.137
 5029TIP3    H215031   5.041   2.055   6.117
 5030TIP3   OH215032   1.126   1.647   0.696
 5030TIP3    H115033   1.086   1.694   0.623
 5030TIP3    H215034   1.079   1.563   0.700
 5031TIP3   OH215035   7.688   0.765   1.706
 5031TIP3    H115036   7.661   0.704   1.637
 5031TIP3    H215037   7.632   0.743   1.781
 5032TIP3   OH215038   2.179   3.147   4.681
 5032TIP3    H115039   2.087   3.138   4.656
 5032TIP3    H215040   2.223   3.072   4.640
 5033TIP3   OH215041   3.071   3.612   2.605
 5033TIP3    H115042   3.162   3.638   2.619
 5033TIP3    H215043   3.022   3.661   2.671
 5034TIP3   OH215044   7.150   4.158   2.887
 5034TIP3    H115045   7.089   4.100   2.842
 5034TIP3    H215046   7.143   4.241   2.839
 5035TIP3   OH215047   3.121   2.445   4.767
 5035TIP3    H115048   3.076   2.432   4.684
 5035TIP3    H215049   3.214   2.433   4.745
 5036TIP3   OH215050   3.156   0.704   1.355
 5036TIP3    H115051   3.206   0.775   1.315
 5036TIP3    H215052   3.198   0.691   1.440
 5037TIP3   OH215053   6.992   5.259   4.519
 5037TIP3    H115054   6.907   5.217   4.533
 5037TIP3    H215055   7.052   5.186   4.502
 5038TIP3   OH215056   5.229   4.148   5.856
 5038TIP3    H115057   5.270   4.205   5.920
 5038TIP3    H215058   5.171   4.092   5.907
 5039TIP3   OH215059   7.595   5.386   0.865
 5039TIP3    H115060   7.533   5.391   0.792
 5039TIP3    H215061   7.668   5.442   0.839
 5040TIP3   OH215062   6.350   2.528   0.351
 5040TIP3    H115063   6.428   2.494   0.394
 5040TIP3    H215064   6.281   2.521   0.418
 5041TIP3   OH215065   8.280   1.748   1.419
 5041TIP3    H115066   8.256   1.686   1.487
 5041TIP3    H215067   8.216   1.819   1.427
 5042TIP3   OH215068   2.387   2.561   1.177
 5042TIP3    H115069   2.300   2.528   1.197
 5042TIP3    H215070   2.388   2.651   1.212
 5043TIP3   OH215071   0.655   4.841   4.865
 5043TIP3    H115072   0.593   4.880   4.927
 5043TIP3    H215073   0.702   4.775   4.915
 5044TIP3   OH215074   1.755   1.202   4.006
 5044TIP3    H115075   1.803   1.147   4.068
 5044TIP3    H215076   1.684   1.147   3.975
 5045TIP3   OH215077   0.187   4.834   1.709
 5045TIP3    H115078   0.240   4.756   1.694
 5045TIP3    H215079   0.114   4.826   1.647
 5046TIP3   OH215080   8.279   4.803   4.160
 5046TIP3    H115081   8.184   4.815   4.162
 5046TIP3    H215082   8.292   4.713   4.191
 5047TIP3   OH215083   0.410   0.511   0.690
 5047TIP3    H115084   0.315   0.516   0.681
 5047TIP3    H215085   0.442   0.483   0.604
 5048TIP3   OH215086   5.634   2.093   4.969
 5048TIP3    H115087   5.629   1.997   4.970
 5048TIP3    H215088   5.554   2.121   4.925
 5049TIP3   OH215089   1.602   7.396   3.373
 5049TIP3    H115090   1.670   7.462   3.362
 5049TIP3    H215091   1.593   7.356   3.286
 5050TIP3   OH215092   6.969   6.291   4.125
 5050TIP3    H115093   6.900   6.302   4.059
 5050TIP3    H215094   6.960   6.367   4.182
 5051TIP3   OH215095   2.197   6.352   6.332
 5051TIP3    H115096   2.107   6.358   6.363
 5051TIP3    H215097   2.245   6.313   6.405
 5052TIP3   OH215098   1.385   3.720   3.422
 5052TIP3    H115099   1.367   3.778   3.348
 5052TIP3    H215100   1.318   3.651   3.416
 5053TIP3   OH215101   4.811   2.199   6.340
 5053TIP3    H115102   4.745   2.268   6.337
 5053TIP3    H215103   4.891   2.240   6.306
 5054TIP3   OH215104   5.300   1.568   1.862
 5054TIP3    H115105   5.357   1.625   1.913
 5054TIP3    H215106   5.328   1.479   1.885
 5055TIP3   OH215107   7.483   3.211   2.202
 5055TIP3    H115108   7.478   3.154   2.279
 5055TIP3    H215109   7.495   3.299   2.238
 5056TIP3   OH215110   6.873   3.910   4.712
 5056TIP3    H115111   6.915   3.965   4.778
 5056TIP3    H215112   6.933   3.911   4.638
 5057TIP3   OH215113   4.081   6.777   5.506
 5057TIP3    H115114   4.075   6.836   5.581
 5057TIP3    H215115   4.041   6.696   5.537
 5058TIP3   OH215116   5.674   4.150   6.098
 5058TIP3    H115117   5.761   4.178   6.127
 5058TIP3    H215118   5.632   4.230   6.066
 5059TIP3   OH215119   1.137   7.626   2.150
 5059TIP3    H115120   1.093   7.544   2.124
 5059TIP3    H215121   1.115   7.688   2.080
 5060TIP3   OH215122   3.662   2.553   1.455
 5060TIP3    H115123   3.719   2.516   1.388
 5060TIP3    H215124   3.641   2.478   1.512
 5061TIP3   OH215125   5.125   0.650   5.233
 5061TIP3    H115126   5.168   0.735   5.226
 5061TIP3    H215127   5.051   0.655   5.172
 5062TIP3   OH215128   5.365   6.514   5.974
 5062TIP3    H115129   5.420   6.439   5.995
 5062TIP3    H215130   5.366   6.568   6.053
 5063TIP3   OH215131   1.598   1.040   5.878
 5063TIP3    H115132   1.690   1.066   5.865
 5063TIP3    H215133   1.549   1.094   5.816
 5064TIP3   OH215134   0.786   1.972   5.580
 5064TIP3    H115135   0.835   1.893   5.556
 5064TIP3    H215136   0.719   1.940   5.641
 5065TIP3   OH215137   2.651   1.253   0.943
 5065TIP3    H115138   2.665   1.179   0.884
 5065TIP3    H215139   2.584   1.306   0.899
 5066TIP3   OH215140   0.552   4.722   3.086
 5066TIP3    H115141   0.518   4.810   3.071
 5066TIP3    H215142   0.646   4.730   3.077
 5067TIP3   OH215143   6.684   6.678   3.237
 5067TIP3    H115144   6.726   6.691   3.152
 5067TIP3    H215145   6.597   6.716   3.227
 5068TIP3   OH215146   2.237   3.538   5.419
 5068TIP3    H115147   2.249   3.535   5.513
 5068TIP3    H215148   2.142   3.541   5.407
 5069TIP3   OH215149   3.513   1.110   6.622
 5069TIP3    H115150   3.427   1.095   6.583
 5069TIP3    H215151   3.570   1.130   6.547
 5070TIP3   OH215152   6.989   2.671   1.787
 5070TIP3    H115153   6.904   2.689   1.748
 5070TIP3    H215154   6.981   2.582   1.822
 5071TIP3   OH215155   0.999   5.190   1.401
 5071TIP3    H115156   1.026   5.161   1.488
 5071TIP3    H215157   1.078   5.227   1.362
 5072TIP3   OH215158   3.548   0.998   3.187
 5072TIP3    H115159   3.570   0.938   3.258
 5072TIP3    H215160   3.563   0.947   3.107
 5073TIP3   OH215161   0.639   3.991   5.822
 5073TIP3    H115162   0.719   3.941   5.805
 5073TIP3    H215163   0.655   4.076   5.781
 5074TIP3   OH215164   2.951   6.832   5.780
 5074TIP3    H115165   2.985   6.866   5.697
 5074TIP3    H215166   2.866   6.795   5.758
 5075TIP3   OH215167   1.532   4.443   1.766
 5075TIP3    H115168   1.494   4.456   1.853
 5075TIP3    H215169   1.457   4.434   1.708
 5076TIP3   OH215170   5.515   3.800   0.356
 5076TIP3    H115171   5.486   3.755   0.436
 5076TIP3    H215172   5.540   3.887   0.386
 5077TIP3   OH215173   4.716   4.554   6.654
 5077TIP3    H115174   4.758   4.473   6.682
 5077TIP3    H215175   4.689   4.597   6.736
 5078TIP3   OH215176   4.743   5.040   5.922
 5078TIP3    H115177   4.704   5.071   5.841
 5078TIP3    H215178   4.671   5.001   5.971
 5079TIP3   OH215179   6.342   3.925   3.085
 5079TIP3    H115180   6.372   3.990   3.022
 5079TIP3    H215181   6.257   3.958   3.116
 5080TIP3   OH215182   6.122   4.985   2.943
 5080TIP3    H115183   6.135   4.935   3.024
 5080TIP3    H215184   6.140   5.075   2.968
 5081TIP3   OH215185   6.864   3.885   2.315
 5081TIP3    H115186   6.869   3.961   2.373
 5081TIP3    H215187   6.910   3.816   2.362
 5082TIP3   OH215188   5.374   5.613   0.361
 5082TIP3    H115189   5.362   5.707   0.372
 5082TIP3    H215190   5.320   5.590   0.286
 5083TIP3   OH215191   0.008   4.787   1.503
 5083TIP3    H115192   0.007   4.872   1.459
 5083TIP3    H215193  -0.082   4.775   1.534
 5084TIP3   OH215194   3.344   4.722   6.538
 5084TIP3    H115195   3.422   4.667   6.533
 5084TIP3    H215196   3.314   4.713   6.629
 5085TIP3   OH215197   6.374   0.442   1.123
 5085TIP3    H115198   6.451   0.448   1.181
 5085TIP3    H215199   6.354   0.533   1.101
 5086TIP3   OH215200   6.096   3.663   4.648
 5086TIP3    H115201   6.082   3.569   4.632
 5086TIP3    H215202   6.073   3.704   4.565
 5087TIP3   OH215203   2.038   1.873   3.163
 5087TIP3    H115204   2.037   1.816   3.086
 5087TIP3    H215205   1.965   1.842   3.216
 5088TIP3   OH215206   3.339   1.223   1.615
 5088TIP3    H115207   3.286   1.145   1.628
 5088TIP3    H215208   3.298   1.268   1.541
 5089TIP3   OH215209   3.823   6.276   5.228
 5089TIP3    H115210   3.876   6.196   5.226
 5089TIP3    H215211   3.824   6.307   5.138
 5090TIP3   OH215212   2.342   0.118   1.381
 5090TIP3    H115213   2.278   0.096   1.313
 5090TIP3    H215214   2.297   0.180   1.438
 5091TIP3   OH215215   3.157   1.174   0.881
 5091TIP3    H115216   3.145   1.156   0.788
 5091TIP3    H215217   3.081   1.228   0.905
 5092TIP3   OH215218   4.095   6.654   4.630
 5092TIP3    H115219   4.057   6.741   4.643
 5092TIP3    H215220   4.039   6.612   4.565
 5093TIP3   OH215221   3.057   5.114   2.753
 5093TIP3    H115222   3.080   5.041   2.810
 5093TIP3    H215223   3.131   5.121   2.692
 5094TIP3   OH215224   7.970   4.377   0.851
 5094TIP3    H115225   7.971   4.467   0.820
 5094TIP3    H215226   8.046   4.337   0.810
 5095TIP3   OH215227   5.207   2.627   1.053
 5095TIP3    H115228   5.232   2.613   0.962
 5095TIP3    H215229   5.114   2.652   1.048
 5096TIP3   OH215230   0.358   5.442   1.632
 5096TIP3    H115231   0.405   5.427   1.550
 5096TIP3    H215232   0.428   5.461   1.696
 5097TIP3   OH215233   0.634   0.682   3.814
 5097TIP3    H115234   0.602   0.596   3.786
 5097TIP3    H215235   0.623   0.738   3.737
 5098TIP3   OH215236   4.867   0.630   5.141
 5098TIP3    H115237   4.789   0.642   5.087
 5098TIP3    H215238   4.873   0.536   5.153
 5099TIP3   OH215239   4.394   7.806   0.860
 5099TIP3    H115240   4.388   7.831   0.952
 5099TIP3    H215241   4.430   7.884   0.817
 5100TIP3   OH215242   0.832   6.419   1.577
 5100TIP3    H115243   0.799   6.335   1.544
 5100TIP3    H215244   0.756   6.477   1.576
 5101TIP3   OH215245   6.955   6.625   2.430
 5101TIP3    H115246   6.932   6.605   2.521
 5101TIP3    H215247   6.887   6.685   2.400
 5102TIP3   OH215248   6.934   7.082   3.262
 5102TIP3    H115249   6.949   6.996   3.222
 5102TIP3    H215250   6.967   7.072   3.352
 5103TIP3   OH215251   2.563   5.380   0.919
 5103TIP3    H115252   2.583   5.303   0.972
 5103TIP3    H215253   2.478   5.409   0.951
 5104TIP3   OH215254   4.612   1.446   5.785
 5104TIP3    H115255   4.580   1.434   5.874
 5104TIP3    H215256   4.675   1.518   5.791
 5105TIP3   OH215257   1.323   0.344   4.171
 5105TIP3    H115258   1.407   0.308   4.141
 5105TIP3    H215259   1.267   0.341   4.093
 5106TIP3   OH215260   0.264   2.317   3.838
 5106TIP3    H115261   0.328   2.277   3.897
 5106TIP3    H215262   0.189   2.335   3.894
 5107TIP3   OH215263   4.499   3.183   5.974
 5107TIP3    H115264   4.436   3.149   6.037
 5107TIP3    H215265   4.582   3.142   6.000
 5108TIP3   OH215266   6.354   6.765   4.110
 5108TIP3    H115267   6.361   6.822   4.186
 5108TIP3    H215268   6.443   6.760   4.076
 5109TIP3   OH215269   5.155   4.599   0.929
 5109TIP3    H115270   5.129   4.566   1.015
 5109TIP3    H215271   5.232   4.548   0.905
 5110TIP3   OH215272   4.072   4.196   3.652
 5110TIP3    H115273   4.126   4.125   3.617
 5110TIP3    H215274   4.132   4.270   3.662
 5111TIP3   OH215275   0.778   6.684   4.289
 5111TIP3    H115276   0.749   6.760   4.239
 5111TIP3    H215277   0.736   6.610   4.245
 5112TIP3   OH215278   5.882   4.414   0.761
 5112TIP3    H115279   5.847   4.368   0.685
 5112TIP3    H215280   5.977   4.410   0.750
 5113TIP3   OH215281   4.104   3.511   4.546
 5113TIP3    H115282   4.072   3.512   4.637
 5113TIP3    H215283   4.024   3.513   4.493
 5114TIP3   OH215284   3.309   3.404   5.107
 5114TIP3    H115285   3.236   3.459   5.135
 5114TIP3    H215286   3.267   3.332   5.058
 5115TIP3   OH215287   7.787   4.170   6.433
 5115TIP3    H115288   7.860   4.123   6.474
 5115TIP3    H215289   7.712   4.112   6.445
 5116TIP3   OH215290   0.854   4.899   4.222
 5116TIP3    H115291   0.942   4.884   4.257
 5116TIP3    H215292   0.797   4.898   4.299
 5117TIP3   OH215293   1.109   0.551   1.240
 5117TIP3    H115294   1.071   0.562   1.327
 5117TIP3    H215295   1.204   0.553   1.255
 5118TIP3   OH215296   5.655   3.609   5.598
 5118TIP3    H115297   5.700   3.564   5.669
 5118TIP3    H215298   5.725   3.650   5.547
 5119TIP3   OH215299   3.296   6.868   6.569
 5119TIP3    H115300   3.220   6.921   6.546
 5119TIP3    H215301   3.371   6.928   6.562
 5120TIP3   OH215302   3.450   1.773   2.685
 5120TIP3    H115303   3.464   1.739   2.773
 5120TIP3    H215304   3.477   1.703   2.627
 5121TIP3   OH215305   5.477   3.959   4.420
 5121TIP3    H115306   5.534   4.005   4.358
 5121TIP3    H215307   5.472   3.870   4.386
 5122TIP3   OH215308   0.712   0.968   4.862
 5122TIP3    H115309   0.709   1.044   4.805
 5122TIP3    H215310   0.739   0.896   4.805
 5123TIP3   OH215311   2.623   2.852   1.562
 5123TIP3    H115312   2.584   2.934   1.592
 5123TIP3    H215313   2.561   2.784   1.591
 5124TIP3   OH215314   4.332   2.751   5.938
 5124TIP3    H115315   4.345   2.830   5.887
 5124TIP3    H215316   4.409   2.748   5.996
 5125TIP3   OH215317   1.993   1.118   5.569
 5125TIP3    H115318   2.047   1.185   5.612
 5125TIP3    H215319   1.927   1.167   5.521
 5126TIP3   OH215320   7.119   6.680   5.899
 5126TIP3    H115321   7.189   6.671   5.834
 5126TIP3    H215322   7.084   6.768   5.885
 5127TIP3   OH215323   7.764   7.381   5.321
 5127TIP3    H115324   7.785   7.464   5.278
 5127TIP3    H215325   7.833   7.321   5.293
 5128TIP3   OH215326   5.716   7.452   4.577
 5128TIP3    H115327   5.690   7.534   4.619
 5128TIP3    H215328   5.751   7.398   4.649
 5129TIP3   OH215329   3.796   1.877   0.827
 5129TIP3    H115330   3.819   1.787   0.849
 5129TIP3    H215331   3.799   1.880   0.731
 5130TIP3   OH215332   7.039   2.718   6.268
 5130TIP3    H115333   7.038   2.734   6.363
 5130TIP3    H215334   7.114   2.768   6.236
 5131TIP3   OH215335   7.391   4.450   4.809
 5131TIP3    H115336   7.468   4.464   4.754
 5131TIP3    H215337   7.363   4.361   4.789
 5132TIP3   OH215338   2.672   5.209   0.165
 5132TIP3    H115339   2.677   5.218   0.260
 5132TIP3    H215340   2.672   5.299   0.132
 5133TIP3   OH215341   5.083   6.532   5.193
 5133TIP3    H115342   5.006   6.546   5.248
 5133TIP3    H215343   5.048   6.516   5.106
 5134TIP3   OH215344   3.250   2.712   2.489
 5134TIP3    H115345   3.177   2.727   2.429
 5134TIP3    H215346   3.320   2.769   2.457
 5135TIP3   OH215347   3.161   2.794   1.709
 5135TIP3    H115348   3.067   2.800   1.697
 5135TIP3    H215349   3.173   2.766   1.800
 5136TIP3   OH215350   2.088   7.121   3.702
 5136TIP3    H115351   2.148   7.107   3.629
 5136TIP3    H215352   2.133   7.084   3.778
 5137TIP3   OH215353   7.924   4.601   5.134
 5137TIP3    H115354   7.832   4.622   5.148
 5137TIP3    H215355   7.928   4.567   5.045
 5138TIP3   OH215356   1.055   3.832   1.128
 5138TIP3    H115357   1.055   3.886   1.048
 5138TIP3    H215358   1.073   3.743   1.097
 5139TIP3   OH215359   8.133   0.105   4.500
 5139TIP3    H115360   8.210   0.049   4.489
 5139TIP3    H215361   8.064   0.061   4.449
 5140TIP3   OH215362   4.366   1.444   1.007
 5140TIP3    H115363   4.428   1.401   0.949
 5140TIP3    H215364   4.414   1.517   1.046
 5141TIP3   OH215365   4.936   4.814   5.579
 5141TIP3    H115366   5.021   4.856   5.566
 5141TIP3    H215367   4.873   4.871   5.534
 5142TIP3   OH215368   0.916   2.027   0.286
 5142TIP3    H115369   0.955   2.055   0.369
 5142TIP3    H215370   0.831   2.070   0.284
 5143TIP3   OH215371   1.034   6.322   1.913
 5143TIP3    H115372   1.051   6.372   1.833
 5143TIP3    H215373   1.030   6.387   1.982
 5144TIP3   OH215374   2.585   2.822   3.903
 5144TIP3    H115375   2.628   2.843   3.820
 5144TIP3    H215376   2.516   2.760   3.879
 5145TIP3   OH215377   0.714   7.035   1.933
 5145TIP3    H115378   0.632   7.015   1.977
 5145TIP3    H215379   0.732   7.126   1.954
 5146TIP3   OH215380   4.764   3.535   6.010
 5146TIP3    H115381   4.767   3.631   6.007
 5146TIP3    H215382   4.782   3.513   6.101
 5147TIP3   OH215383   7.872   6.646   1.895
 5147TIP3    H115384   7.934   6.599   1.840
 5147TIP3    H215385   7.854   6.727   1.848
 5148TIP3   OH215386   1.837   5.823   6.353
 5148TIP3    H115387   1.852   5.884   6.281
 5148TIP3    H215388   1.919   5.774   6.361
 5149TIP3   OH215389   4.521   1.535   3.600
 5149TIP3    H115390   4.588   1.520   3.667
 5149TIP3    H215391   4.441   1.497   3.636
 5150TIP3   OH215392   3.418   4.023   5.092
 5150TIP3    H115393   3.381   3.971   5.020
 5150TIP3    H215394   3.447   4.103   5.050
 5151TIP3   OH215395   1.795   6.640   1.198
 5151TIP3    H115396   1.864   6.632   1.132
 5151TIP3    H215397   1.748   6.556   1.194
 5152TIP3   OH215398   5.122   1.488   5.730
 5152TIP3    H115399   5.204   1.531   5.706
 5152TIP3    H215400   5.148   1.400   5.756
 5153TIP3   OH215401   2.701   6.300   2.765
 5153TIP3    H115402   2.685   6.340   2.850
 5153TIP3    H215403   2.730   6.372   2.709
 5154TIP3   OH215404   2.529   6.785   0.955
 5154TIP3    H115405   2.454   6.826   0.999
 5154TIP3    H215406   2.584   6.858   0.929
 5155TIP3   OH215407   2.325   5.929   1.983
 5155TIP3    H115408   2.416   5.907   1.967
 5155TIP3    H215409   2.282   5.920   1.897
 5156TIP3   OH215410   4.418   3.296   6.382
 5156TIP3    H115411   4.343   3.289   6.441
 5156TIP3    H215412   4.384   3.272   6.296
 5157TIP3   OH215413   5.346   6.169   4.536
 5157TIP3    H115414   5.267   6.132   4.575
 5157TIP3    H215415   5.341   6.144   4.444
 5158TIP3   OH215416   6.991   2.635   2.908
 5158TIP3    H115417   7.077   2.633   2.866
 5158TIP3    H215418   6.946   2.709   2.867
 5159TIP3   OH215419   4.404   7.024   5.855
 5159TIP3    H115420   4.414   7.093   5.790
 5159TIP3    H215421   4.337   7.058   5.915
 5160TIP3   OH215422   5.471   7.730   4.883
 5160TIP3    H115423   5.405   7.724   4.813
 5160TIP3    H215424   5.427   7.693   4.960
 5161TIP3   OH215425   7.675   7.693   6.195
 5161TIP3    H115426   7.669   7.718   6.287
 5161TIP3    H215427   7.591   7.719   6.158
 5162TIP3   OH215428   8.205   2.951   2.522
 5162TIP3    H115429   8.217   2.857   2.535
 5162TIP3    H215430   8.221   2.990   2.608
 5163TIP3   OH215431   2.075   2.022   6.336
 5163TIP3    H115432   2.000   2.065   6.376
 5163TIP3    H215433   2.039   1.943   6.296
 5164TIP3   OH215434   7.331   3.602   1.430
 5164TIP3    H115435   7.377   3.670   1.380
 5164TIP3    H215436   7.388   3.586   1.505
 5165TIP3   OH215437   2.820   4.199   5.761
 5165TIP3    H115438   2.848   4.285   5.729
 5165TIP3    H215439   2.816   4.144   5.683
 5166TIP3   OH215440   6.008   4.010   2.871
 5166TIP3    H115441   5.939   3.968   2.820
 5166TIP3    H215442   6.088   3.963   2.845
 5167TIP3   OH215443   7.786   2.181   6.516
 5167TIP3    H115444   7.761   2.178   6.608
 5167TIP3    H215445   7.877   2.151   6.514
 5168TIP3   OH215446   4.786   1.797   2.075
 5168TIP3    H115447   4.775   1.740   2.151
 5168TIP3    H215448   4.873   1.775   2.041
 5169TIP3   OH215449   3.296   1.240   0.573
 5169TIP3    H115450   3.351   1.317   0.583
 5169TIP3    H215451   3.207   1.270   0.591
 5170TIP3   OH215452   2.348   2.067   6.391
 5170TIP3    H115453   2.262   2.027   6.377
 5170TIP3    H215454   2.329   2.153   6.428
 5171TIP3   OH215455   8.289   5.040   1.409
 5171TIP3    H115456   8.373   5.082   1.392
 5171TIP3    H215457   8.234   5.067   1.335
 5172TIP3   OH215458   4.500   5.141   4.349
 5172TIP3    H115459   4.453   5.222   4.367
 5172TIP3    H215460   4.592   5.164   4.354
 5173TIP3   OH215461   7.654   2.557   4.820
 5173TIP3    H115462   7.578   2.508   4.853
 5173TIP3    H215463   7.650   2.641   4.865
 5174TIP3   OH215464   3.932   3.900   6.262
 5174TIP3    H115465   4.025   3.887   6.280
 5174TIP3    H215466   3.894   3.924   6.347
 5175TIP3   OH215467   3.805   0.255   5.954
 5175TIP3    H115468   3.768   0.338   5.984
 5175TIP3    H215469   3.807   0.263   5.858
 5176TIP3   OH215470   0.693   2.142   5.812
 5176TIP3    H115471   0.638   2.074   5.852
 5176TIP3    H215472   0.635   2.188   5.752
 5177TIP3   OH215473   1.051   1.790   0.953
 5177TIP3    H115474   0.967   1.834   0.945
 5177TIP3    H215475   1.069   1.754   0.866
 5178TIP3   OH215476   1.389   1.105   4.137
 5178TIP3    H115477   1.314   1.060   4.176
 5178TIP3    H215478   1.351   1.157   4.066
 5179TIP3   OH215479   7.484   0.395   3.941
 5179TIP3    H115480   7.475   0.468   3.879
 5179TIP3    H215481   7.574   0.366   3.931
 5180TIP3   OH215482   0.699   1.720   4.229
 5180TIP3    H115483   0.774   1.754   4.279
 5180TIP3    H215484   0.739   1.663   4.163
 5181TIP3   OH215485   3.277   3.122   6.364
 5181TIP3    H115486   3.281   3.069   6.284
 5181TIP3    H215487   3.333   3.197   6.345
 5182TIP3   OH215488   0.950   0.034   4.031
 5182TIP3    H115489   0.895   0.110   4.012
 5182TIP3    H215490   1.018   0.036   3.963
 5183TIP3   OH215491   7.897   3.306   4.006
 5183TIP3    H115492   7.887   3.392   3.966
 5183TIP3    H215493   7.818   3.258   3.981
 5184TIP3   OH215494   5.874   7.790   4.195
 5184TIP3    H115495   5.853   7.836   4.276
 5184TIP3    H215496   5.834   7.843   4.126
 5185TIP3   OH215497   0.650   2.428   5.213
 5185TIP3    H115498   0.597   2.482   5.154
 5185TIP3    H215499   0.611   2.442   5.300
 5186TIP3   OH215500   2.261   1.825   1.238
 5186TIP3    H115501   2.168   1.845   1.249
 5186TIP3    H215502   2.302   1.856   1.319
 5187TIP3   OH215503   1.024   0.164   6.043
 5187TIP3    H115504   1.050   0.162   6.135
 5187TIP3    H215505   0.939   0.121   6.040
 5188TIP3   OH215506   2.375   6.314   6.048
 5188TIP3    H115507   2.284   6.287   6.031
 5188TIP3    H215508   2.428   6.242   6.012
 5189TIP3   OH215509   0.627   7.472   4.023
 5189TIP3    H115510   0.585   7.557   4.008
 5189TIP3    H215511   0.570   7.409   3.980
 5190TIP3   OH215512   5.815   2.502   4.527
 5190TIP3    H115513   5.822   2.550   4.609
 5190TIP3    H215514   5.725   2.516   4.499
 5191TIP3   OH215515   1.309   0.639   0.960
 5191TIP3    H115516   1.237   0.689   0.999
 5191TIP3    H215517   1.283   0.628   0.868
 5192TIP3   OH215518   6.025   7.501   5.972
 5192TIP3    H115519   5.944   7.499   6.024
 5192TIP3    H215520   6.093   7.522   6.036
 5193TIP3   OH215521   4.147   0.710   0.569
 5193TIP3    H115522   4.099   0.793   0.570
 5193TIP3    H215523   4.239   0.736   0.576
 5194TIP3   OH215524   5.196   2.067   0.564
 5194TIP3    H115525   5.226   2.094   0.650
 5194TIP3    H215526   5.199   2.147   0.511
 5195TIP3   OH215527   3.356   4.057   0.370
 5195TIP3    H115528   3.450   4.077   0.370
 5195TIP3    H215529   3.325   4.088   0.455
 5196TIP3   OH215530   0.623   0.631   2.557
 5196TIP3    H115531   0.550   0.617   2.496
 5196TIP3    H215532   0.633   0.547   2.602
 5197TIP3   OH215533   4.245   5.783   6.085
 5197TIP3    H115534   4.206   5.869   6.102
 5197TIP3    H215535   4.279   5.754   6.170
 5198TIP3   OH215536   7.260   5.888   2.357
 5198TIP3    H115537   7.291   5.800   2.377
 5198TIP3    H215538   7.318   5.945   2.408
 5199TIP3   OH215539   6.375   3.268   2.337
 5199TIP3    H115540   6.381   3.205   2.265
 5199TIP3    H215541   6.463   3.269   2.375
 5200TIP3   OH215542   0.988   1.880   2.062
 5200TIP3    H115543   1.049   1.846   2.127
 5200TIP3    H215544   1.036   1.875   1.979
 5201TIP3   OH215545   1.441   4.428   6.529
 5201TIP3    H115546   1.381   4.462   6.462
 5201TIP3    H215547   1.456   4.502   6.588
 5202TIP3   OH215548   2.200   5.342   3.149
 5202TIP3    H115549   2.232   5.273   3.207
 5202TIP3    H215550   2.259   5.416   3.164
 5203TIP3   OH215551   3.599   2.352   1.704
 5203TIP3    H115552   3.594   2.264   1.669
 5203TIP3    H215553   3.687   2.359   1.741
 5204TIP3   OH215554   3.689   2.607   6.497
 5204TIP3    H115555   3.753   2.667   6.461
 5204TIP3    H215556   3.665   2.550   6.424
 5205TIP3   OH215557   2.512   3.591   3.721
 5205TIP3    H115558   2.541   3.507   3.756
 5205TIP3    H215559   2.495   3.645   3.798
 5206TIP3   OH215560   7.220   2.671   2.767
 5206TIP3    H115561   7.220   2.728   2.690
 5206TIP3    H215562   7.297   2.698   2.816
 5207TIP3   OH215563   7.097   4.781   3.399
 5207TIP3    H115564   7.067   4.733   3.322
 5207TIP3    H215565   7.193   4.784   3.389
 5208TIP3   OH215566   6.348   6.450   3.317
 5208TIP3    H115567   6.441   6.446   3.295
 5208TIP3    H215568   6.305   6.464   3.232
 5209TIP3   OH215569   2.591   6.524   0.952
 5209TIP3    H115570   2.586   6.619   0.947
 5209TIP3    H215571   2.525   6.493   0.889
 5210TIP3   OH215572   6.251   6.475   0.858
 5210TIP3    H115573   6.238   6.442   0.769
 5210TIP3    H215574   6.343   6.502   0.860
 5211TIP3   OH215575   3.715   2.218   4.326
 5211TIP3    H115576   3.672   2.220   4.411
 5211TIP3    H215577   3.643   2.215   4.263
 5212TIP3   OH215578   6.308   7.708   4.753
 5212TIP3    H115579   6.359   7.678   4.828
 5212TIP3    H215580   6.366   7.769   4.707
 5213TIP3   OH215581   7.517   6.733   4.028
 5213TIP3    H115582   7.509   6.710   4.120
 5213TIP3    H215583   7.587   6.676   3.995
 5214TIP3   OH215584   1.636   5.483   5.749
 5214TIP3    H115585   1.681   5.568   5.747
 5214TIP3    H215586   1.653   5.445   5.662
 5215TIP3   OH215587   7.988   6.995   0.314
 5215TIP3    H115588   7.962   7.084   0.290
 5215TIP3    H215589   8.074   6.984   0.274
 5216TIP3   OH215590   2.845   7.583   1.794
 5216TIP3    H115591   2.908   7.526   1.751
 5216TIP3    H215592   2.812   7.640   1.725
 5217TIP3   OH215593   0.412   4.777   2.516
 5217TIP3    H115594   0.327   4.818   2.534
 5217TIP3    H215595   0.459   4.780   2.600
 5218TIP3   OH215596   1.654   1.017   2.000
 5218TIP3    H115597   1.566   1.017   1.963
 5218TIP3    H215598   1.656   1.094   2.056
 5219TIP3   OH215599   0.360   3.812   0.253
 5219TIP3    H115600   0.417   3.737   0.239
 5219TIP3    H215601   0.399   3.858   0.327
 5220TIP3   OH215602   1.625   2.728   5.952
 5220TIP3    H115603   1.642   2.657   5.891
 5220TIP3    H215604   1.537   2.710   5.986
 5221TIP3   OH215605   6.443   4.235   3.907
 5221TIP3    H115606   6.485   4.152   3.886
 5221TIP3    H215607   6.514   4.299   3.908
 5222TIP3   OH215608   5.281   3.817   3.671
 5222TIP3    H115609   5.264   3.813   3.577
 5222TIP3    H215610   5.288   3.911   3.690
 5223TIP3   OH215611   3.276   6.718   0.720
 5223TIP3    H115612   3.210   6.710   0.789
 5223TIP3    H215613   3.262   6.641   0.665
 5224TIP3   OH215614   0.967   4.425   3.474
 5224TIP3    H115615   1.025   4.483   3.426
 5224TIP3    H215616   1.024   4.379   3.536
 5225TIP3   OH215617   2.884   4.836   1.459
 5225TIP3    H115618   2.807   4.797   1.501
 5225TIP3    H215619   2.850   4.874   1.378
 5226TIP3   OH215620   3.070   2.340   6.390
 5226TIP3    H115621   3.035   2.409   6.334
 5226TIP3    H215622   3.136   2.383   6.444
 5227TIP3   OH215623   5.465   1.582   3.364
 5227TIP3    H115624   5.515   1.663   3.352
 5227TIP3    H215625   5.395   1.587   3.298
 5228TIP3   OH215626   2.999   0.120   4.654
 5228TIP3    H115627   2.924   0.072   4.621
 5228TIP3    H215628   3.074   0.063   4.638
 5229TIP3   OH215629   0.208   5.952   5.345
 5229TIP3    H115630   0.254   5.887   5.398
 5229TIP3    H215631   0.243   5.940   5.257
 5230TIP3   OH215632   7.661   1.516   3.732
 5230TIP3    H115633   7.677   1.425   3.710
 5230TIP3    H215634   7.568   1.520   3.755
 5231TIP3   OH215635   6.970   2.059   5.316
 5231TIP3    H115636   6.909   2.092   5.381
 5231TIP3    H215637   6.916   2.009   5.255
 5232TIP3   OH215638   0.945   4.821   3.433
 5232TIP3    H115639   0.911   4.823   3.523
 5232TIP3    H215640   0.875   4.858   3.380
 5233TIP3   OH215641   2.830   3.124   5.076
 5233TIP3    H115642   2.815   3.110   5.170
 5233TIP3    H215643   2.812   3.040   5.036
 5234TIP3   OH215644   2.736   0.176   5.431
 5234TIP3    H115645   2.776   0.137   5.353
 5234TIP3    H215646   2.810   0.194   5.489
 5235TIP3   OH215647   3.526   6.917   1.084
 5235TIP3    H115648   3.525   6.880   1.172
 5235TIP3    H215649   3.619   6.919   1.059
 5236TIP3   OH215650   5.139   3.065   3.330
 5236TIP3    H115651   5.176   3.144   3.290
 5236TIP3    H215652   5.052   3.091   3.359
 5237TIP3   OH215653   6.861   3.993   1.535
 5237TIP3    H115654   6.873   4.058   1.604
 5237TIP3    H215655   6.768   3.999   1.513
 5238TIP3   OH215656   6.967   5.272   6.421
 5238TIP3    H115657   7.049   5.257   6.468
 5238TIP3    H215658   6.926   5.185   6.418
 5239TIP3   OH215659   7.580   4.774   1.527
 5239TIP3    H115660   7.653   4.816   1.572
 5239TIP3    H215661   7.558   4.834   1.455
 5240TIP3   OH215662   7.793   0.283   2.476
 5240TIP3    H115663   7.742   0.220   2.425
 5240TIP3    H215664   7.728   0.329   2.529
 5241TIP3   OH215665   1.771   1.709   3.610
 5241TIP3    H115666   1.714   1.726   3.686
 5241TIP3    H215667   1.828   1.638   3.639
 5242TIP3   OH215668   3.218   0.478   2.955
 5242TIP3    H115669   3.266   0.551   2.995
 5242TIP3    H215670   3.224   0.494   2.861
 5243TIP3   OH215671   4.982   5.044   0.460
 5243TIP3    H115672   5.018   4.959   0.485
 5243TIP3    H215673   5.043   5.078   0.395
 5244TIP3   OH215674   1.822   6.029   6.647
 5244TIP3    H115675   1.846   6.113   6.687
 5244TIP3    H215676   1.773   6.053   6.569
 5245TIP3   OH215677   0.178   7.646   4.070
 5245TIP3    H115678   0.239   7.712   4.103
 5245TIP3    H215679   0.168   7.584   4.142
 5246TIP3   OH215680   3.689   1.313   4.454
 5246TIP3    H115681   3.703   1.275   4.368
 5246TIP3    H215682   3.679   1.407   4.438
 5247TIP3   OH215683   6.180   3.668   5.192
 5247TIP3    H115684   6.273   3.689   5.185
 5247TIP3    H215685   6.175   3.607   5.266
 5248TIP3   OH215686   6.332   6.540   2.898
 5248TIP3    H115687   6.295   6.524   2.811
 5248TIP3    H215688   6.426   6.526   2.887
 5249TIP3   OH215689   6.338   2.023   5.683
 5249TIP3    H115690   6.305   2.104   5.643
 5249TIP3    H215691   6.271   1.958   5.664
 5250TIP3   OH215692   6.240   6.995   5.101
 5250TIP3    H115693   6.172   7.062   5.106
 5250TIP3    H215694   6.213   6.938   5.028
 5251TIP3   OH215695   6.067   2.335   6.458
 5251TIP3    H115696   6.160   2.342   6.477
 5251TIP3    H215697   6.030   2.420   6.480
 5252TIP3   OH215698   1.603   2.884   0.626
 5252TIP3    H115699   1.626   2.802   0.669
 5252TIP3    H215700   1.508   2.890   0.634
 5253TIP3   OH215701   5.538   7.371   6.459
 5253TIP3    H115702   5.565   7.413   6.377
 5253TIP3    H215703   5.584   7.287   6.459
 5254TIP3   OH215704   2.670   3.416   6.394
 5254TIP3    H115705   2.739   3.472   6.429
 5254TIP3    H215706   2.712   3.367   6.323
 5255TIP3   OH215707   1.782   3.946   2.727
 5255TIP3    H115708   1.759   3.994   2.647
 5255TIP3    H215709   1.867   3.905   2.706
 5256TIP3   OH215710   3.020   4.140   1.556
 5256TIP3    H115711   3.052   4.214   1.504
 5256TIP3    H215712   3.099   4.094   1.584
 5257TIP3   OH215713   3.758   6.606   6.410
 5257TIP3    H115714   3.789   6.520   6.438
 5257TIP3    H215715   3.707   6.588   6.331
 5258TIP3   OH215716   1.918   7.040   6.242
 5258TIP3    H115717   2.005   7.075   6.225
 5258TIP3    H215718   1.864   7.116   6.261
 5259TIP3   OH215719   6.088   6.496   1.879
 5259TIP3    H115720   6.163   6.459   1.924
 5259TIP3    H215721   6.012   6.459   1.924
 5260TIP3   OH215722   4.423   5.770   3.641
 5260TIP3    H115723   4.329   5.790   3.639
 5260TIP3    H215724   4.426   5.674   3.645
 5261TIP3   OH215725   4.055   1.099   0.395
 5261TIP3    H115726   4.134   1.083   0.344
 5261TIP3    H215727   4.005   1.162   0.342
 5262TIP3   OH215728   1.042   1.048   2.742
 5262TIP3    H115729   1.077   1.052   2.653
 5262TIP3    H215730   1.039   1.140   2.771
 5263TIP3   OH215731   1.333   0.975   3.708
 5263TIP3    H115732   1.240   0.967   3.688
 5263TIP3    H215733   1.378   0.960   3.625
 5264TIP3   OH215734   0.936   7.622   5.751
 5264TIP3    H115735   1.005   7.686   5.729
 5264TIP3    H215736   0.936   7.619   5.846
 5265TIP3   OH215737   7.390   3.939   3.232
 5265TIP3    H115738   7.318   3.963   3.173
 5265TIP3    H215739   7.389   4.007   3.300
 5266TIP3   OH215740   2.992   0.335   1.453
 5266TIP3    H115741   2.960   0.415   1.495
 5266TIP3    H215742   2.914   0.282   1.440
 5267TIP3   OH215743   5.805   4.450   0.038
 5267TIP3    H115744   5.858   4.450  -0.042
 5267TIP3    H215745   5.726   4.402   0.014
 5268TIP3   OH215746   1.941   2.167   5.051
 5268TIP3    H115747   1.849   2.139   5.060
 5268TIP3    H215748   1.966   2.194   5.139
 5269TIP3   OH215749   2.277   5.758   3.476
 5269TIP3    H115750   2.220   5.697   3.523
 5269TIP3    H215751   2.336   5.793   3.544
 5270TIP3   OH215752   4.643   2.135   2.182
 5270TIP3    H115753   4.590   2.057   2.169
 5270TIP3    H215754   4.649   2.146   2.277
 5271TIP3   OH215755   4.173   5.120   3.755
 5271TIP3    H115756   4.219   5.170   3.688
 5271TIP3    H215757   4.190   5.166   3.836
 5272TIP3   OH215758   7.527   6.554   4.503
 5272TIP3    H115759   7.533   6.490   4.432
 5272TIP3    H215760   7.443   6.598   4.489
 5273TIP3   OH215761   6.703   4.410   0.299
 5273TIP3    H115762   6.660   4.362   0.229
 5273TIP3    H215763   6.791   4.426   0.266
 5274TIP3   OH215764   4.121   5.487   1.247
 5274TIP3    H115765   4.209   5.452   1.233
 5274TIP3    H215766   4.117   5.562   1.187
 5275TIP3   OH215767   3.187   0.705   0.238
 5275TIP3    H115768   3.122   0.767   0.206
 5275TIP3    H215769   3.140   0.622   0.245
 5276TIP3   OH215770   3.302   7.225   2.134
 5276TIP3    H115771   3.222   7.246   2.087
 5276TIP3    H215772   3.346   7.160   2.078
 5277TIP3   OH215773   5.322   1.301   0.659
 5277TIP3    H115774   5.246   1.347   0.623
 5277TIP3    H215775   5.396   1.335   0.609
 5278TIP3   OH215776   0.007   2.978   4.268
 5278TIP3    H115777   0.067   2.969   4.195
 5278TIP3    H215778   0.043   3.049   4.321
 5279TIP3   OH215779   7.318   2.374   2.788
 5279TIP3    H115780   7.283   2.424   2.715
 5279TIP3    H215781   7.373   2.436   2.836
 5280TIP3   OH215782   4.226   3.452   0.840
 5280TIP3    H115783   4.204   3.421   0.752
 5280TIP3    H215784   4.322   3.459   0.840
 5281TIP3   OH215785   2.223   0.926   1.567
 5281TIP3    H115786   2.266   0.888   1.491
 5281TIP3    H215787   2.278   0.903   1.641
 5282TIP3   OH215788   7.364   3.757   2.998
 5282TIP3    H115789   7.389   3.753   3.090
 5282TIP3    H215790   7.269   3.772   3.001
 5283TIP3   OH215791   4.272   7.346   4.800
 5283TIP3    H115792   4.210   7.404   4.845
 5283TIP3    H215793   4.326   7.310   4.870
 5284TIP3   OH215794   7.526   1.008   1.731
 5284TIP3    H115795   7.593   0.941   1.738
 5284TIP3    H215796   7.569   1.088   1.760
 5285TIP3   OH215797   0.649   6.462   6.240
 5285TIP3    H115798   0.705   6.532   6.206
 5285TIP3    H215799   0.562   6.501   6.243
 5286TIP3   OH215800   1.050   4.302   3.730
 5286TIP3    H115801   1.101   4.246   3.789
 5286TIP3    H215802   1.045   4.386   3.776
 5287TIP3   OH215803   1.306   1.846   4.200
 5287TIP3    H115804   1.257   1.855   4.282
 5287TIP3    H215805   1.245   1.803   4.140
 5288TIP3   OH215806   4.703   4.558   4.375
 5288TIP3    H115807   4.681   4.523   4.289
 5288TIP3    H215808   4.799   4.556   4.378
 5289TIP3   OH215809   8.194   5.965   2.416
 5289TIP3    H115810   8.211   5.965   2.322
 5289TIP3    H215811   8.140   6.043   2.431
 5290TIP3   OH215812   0.971   0.624   1.444
 5290TIP3    H115813   1.016   0.702   1.477
 5290TIP3    H215814   0.936   0.583   1.523
 5291TIP3   OH215815   5.306   5.533   5.539
 5291TIP3    H115816   5.327   5.440   5.532
 5291TIP3    H215817   5.226   5.536   5.592
 5292TIP3   OH215818   4.229   3.636   5.915
 5292TIP3    H115819   4.275   3.552   5.907
 5292TIP3    H215820   4.278   3.683   5.983
 5293TIP3   OH215821   6.996   2.523   0.199
 5293TIP3    H115822   7.051   2.499   0.274
 5293TIP3    H215823   6.914   2.474   0.214
 5294TIP3   OH215824   0.593   1.532   1.908
 5294TIP3    H115825   0.552   1.472   1.846
 5294TIP3    H215826   0.687   1.525   1.890
 5295TIP3   OH215827   2.017   2.739   3.751
 5295TIP3    H115828   1.950   2.675   3.776
 5295TIP3    H215829   2.068   2.752   3.831
 5296TIP3   OH215830   2.601   0.398   2.282
 5296TIP3    H115831   2.515   0.426   2.314
 5296TIP3    H215832   2.622   0.460   2.212
 5297TIP3   OH215833   4.635   7.655   4.157
 5297TIP3    H115834   4.675   7.599   4.224
 5297TIP3    H215835   4.575   7.711   4.205
 5298TIP3   OH215836   5.015   4.352   5.174
 5298TIP3    H115837   4.928   4.392   5.180
 5298TIP3    H215838   5.024   4.327   5.082
 5299TIP3   OH215839   6.437   4.963   5.995
 5299TIP3    H115840   6.517   5.015   5.993
 5299TIP3    H215841   6.468   4.872   5.994
 5300TIP3   OH215842   7.680   4.140   1.813
 5300TIP3    H115843   7.687   4.233   1.832
 5300TIP3    H215844   7.715   4.097   1.891
 5301TIP3   OH215845   1.766   0.418   0.773
 5301TIP3    H115846   1.857   0.386   0.770
 5301TIP3    H215847   1.724   0.363   0.839
 5302TIP3   OH215848   1.617   6.109   4.556
 5302TIP3    H115849   1.636   6.180   4.494
 5302TIP3    H215850   1.625   6.150   4.642
 5303TIP3   OH215851   5.846   3.850   3.417
 5303TIP3    H115852   5.864   3.765   3.376
 5303TIP3    H215853   5.751   3.857   3.418
 5304TIP3   OH215854   0.376   4.952   3.038
 5304TIP3    H115855   0.286   4.984   3.048
 5304TIP3    H215856   0.426   5.028   3.009
 5305TIP3   OH215857   4.141   1.814   2.547
 5305TIP3    H115858   4.160   1.905   2.526
 5305TIP3    H215859   4.188   1.763   2.481
 5306TIP3   OH215860   5.335   4.599   4.413
 5306TIP3    H115861   5.352   4.505   4.410
 5306TIP3    H215862   5.419   4.639   4.393
 5307TIP3   OH215863   3.656   4.737   5.756
 5307TIP3    H115864   3.630   4.759   5.667
 5307TIP3    H215865   3.640   4.817   5.806
 5308TIP3   OH215866   0.027   3.449   0.139
 5308TIP3    H115867   0.097   3.422   0.080
 5308TIP3    H215868   0.000   3.535   0.106
 5309TIP3   OH215869   7.287   3.360   1.265
 5309TIP3    H115870   7.357   3.393   1.208
 5309TIP3    H215871   7.273   3.430   1.329
 5310TIP3   OH215872   8.184   3.208   3.997
 5310TIP3    H115873   8.215   3.249   3.917
 5310TIP3    H215874   8.090   3.197   3.984
 5311TIP3   OH215875   2.263   7.048   4.448
 5311TIP3    H115876   2.323   7.031   4.521
 5311TIP3    H215877   2.176   7.041   4.487
 5312TIP3   OH215878   4.904   3.254   5.603
 5312TIP3    H115879   4.850   3.313   5.656
 5312TIP3    H215880   4.959   3.208   5.667
 5313TIP3   OH215881   1.402   2.073   0.273
 5313TIP3    H115882   1.389   1.986   0.236
 5313TIP3    H215883   1.339   2.129   0.227
 5314TIP3   OH215884   5.941   0.763   3.297
 5314TIP3    H115885   5.898   0.846   3.279
 5314TIP3    H215886   6.019   0.764   3.241
 5315TIP3   OH215887   2.179   0.688   3.311
 5315TIP3    H115888   2.273   0.684   3.294
 5315TIP3    H215889   2.153   0.775   3.281
 5316TIP3   OH215890   6.712   6.196   3.584
 5316TIP3    H115891   6.788   6.211   3.528
 5316TIP3    H215892   6.679   6.284   3.605
 5317TIP3   OH215893   4.475   1.519   3.019
 5317TIP3    H115894   4.424   1.598   3.034
 5317TIP3    H215895   4.505   1.527   2.929
 5318TIP3   OH215896   0.735   3.598   2.306
 5318TIP3    H115897   0.700   3.607   2.394
 5318TIP3    H215898   0.684   3.659   2.253
 5319TIP3   OH215899   7.783   1.771   3.764
 5319TIP3    H115900   7.699   1.817   3.774
 5319TIP3    H215901   7.760   1.690   3.719
 5320TIP3   OH215902   7.281   2.397   1.636
 5320TIP3    H115903   7.314   2.447   1.561
 5320TIP3    H215904   7.187   2.392   1.622
 5321TIP3   OH215905   5.807   7.516   5.598
 5321TIP3    H115906   5.715   7.528   5.619
 5321TIP3    H215907   5.808   7.452   5.527
 5322TIP3   OH215908   6.212   3.439   6.764
 5322TIP3    H115909   6.192   3.505   6.831
 5322TIP3    H215910   6.158   3.364   6.788
 5323TIP3   OH215911   4.172   0.020   2.337
 5323TIP3    H115912   4.100   0.027   2.274
 5323TIP3    H215913   4.149   0.082   2.406
 5324TIP3   OH215914   2.402   0.205   5.318
 5324TIP3    H115915   2.470   0.156   5.365
 5324TIP3    H215916   2.360   0.259   5.384
 5325TIP3   OH215917   8.066   2.122   4.694
 5325TIP3    H115918   7.994   2.185   4.686
 5325TIP3    H215919   8.102   2.138   4.781
 5326TIP3   OH215920   6.478   7.644   2.046
 5326TIP3    H115921   6.493   7.737   2.062
 5326TIP3    H215922   6.566   7.605   2.045
 5327TIP3   OH215923   0.514   6.702   6.158
 5327TIP3    H115924   0.499   6.790   6.124
 5327TIP3    H215925   0.454   6.695   6.233
 5328TIP3   OH215926   1.898   3.129   4.672
 5328TIP3    H115927   1.895   3.194   4.601
 5328TIP3    H215928   1.854   3.052   4.636
 5329TIP3   OH215929   5.565   1.354   3.753
 5329TIP3    H115930   5.609   1.275   3.784
 5329TIP3    H215931   5.634   1.404   3.709
 5330TIP3   OH215932   4.625   0.598   2.629
 5330TIP3    H115933   4.689   0.528   2.643
 5330TIP3    H215934   4.624   0.646   2.712
 5331TIP3   OH215935   5.011   6.901   1.281
 5331TIP3    H115936   5.006   6.806   1.294
 5331TIP3    H215937   4.994   6.937   1.368
 5332TIP3   OH215938   7.829   5.905   3.668
 5332TIP3    H115939   7.911   5.956   3.664
 5332TIP3    H215940   7.801   5.913   3.760
 5333TIP3   OH215941   1.250   1.897   2.274
 5333TIP3    H115942   1.215   1.981   2.244
 5333TIP3    H215943   1.326   1.882   2.218
 5334TIP3   OH215944   4.170   1.997   3.609
 5334TIP3    H115945   4.150   1.928   3.672
 5334TIP3    H215946   4.158   1.955   3.524
 5335TIP3   OH215947   3.366   2.888   2.157
 5335TIP3    H115948   3.397   2.971   2.121
 5335TIP3    H215949   3.396   2.889   2.248
 5336TIP3   OH215950   7.158   3.807   0.762
 5336TIP3    H115951   7.153   3.844   0.674
 5336TIP3    H215952   7.068   3.786   0.784
 5337TIP3   OH215953   7.972   2.840   0.345
 5337TIP3    H115954   8.057   2.841   0.389
 5337TIP3    H215955   7.926   2.916   0.381
 5338TIP3   OH215956   3.490   7.132   2.342
 5338TIP3    H115957   3.411   7.169   2.302
 5338TIP3    H215958   3.459   7.053   2.387
 5339TIP3   OH215959   5.539   1.116   4.162
 5339TIP3    H115960   5.540   1.046   4.096
 5339TIP3    H215961   5.571   1.074   4.242
 5340TIP3   OH215962   3.691   1.193   3.553
 5340TIP3    H115963   3.630   1.266   3.566
 5340TIP3    H215964   3.646   1.118   3.592
 5341TIP3   OH215965   2.921   3.998   6.569
 5341TIP3    H115966   3.017   4.005   6.570
 5341TIP3    H215967   2.897   3.982   6.660
 5342TIP3   OH215968   0.844   2.466   4.258
 5342TIP3    H115969   0.768   2.505   4.216
 5342TIP3    H215970   0.918   2.490   4.203
 5343TIP3   OH215971   7.158   4.960   1.831
 5343TIP3    H115972   7.206   5.043   1.841
 5343TIP3    H215973   7.120   4.965   1.743
 5344TIP3   OH215974   3.286   3.044   2.564
 5344TIP3    H115975   3.202   3.043   2.517
 5344TIP3    H215976   3.345   2.992   2.508
 5345TIP3   OH215977   5.281   7.508   3.689
 5345TIP3    H115978   5.356   7.487   3.745
 5345TIP3    H215979   5.269   7.430   3.634
 5346TIP3   OH215980   1.252   4.510   6.332
 5346TIP3    H115981   1.183   4.446   6.318
 5346TIP3    H215982   1.207   4.585   6.371
 5347TIP3   OH215983   0.299   6.508   4.407
 5347TIP3    H115984   0.363   6.579   4.411
 5347TIP3    H215985   0.281   6.487   4.498
 5348TIP3   OH215986   0.278   7.803   0.461
 5348TIP3    H115987   0.241   7.842   0.540
 5348TIP3    H215988   0.372   7.802   0.475
 5349TIP3   OH215989   5.311   3.082   0.891
 5349TIP3    H115990   5.389   3.055   0.843
 5349TIP3    H215991   5.268   3.000   0.914
 5350TIP3   OH215992   4.296   6.186   1.047
 5350TIP3    H115993   4.292   6.100   1.089
 5350TIP3    H215994   4.209   6.196   1.007
 5351TIP3   OH215995   7.649   3.366   4.512
 5351TIP3    H115996   7.693   3.281   4.517
 5351TIP3    H215997   7.586   3.364   4.584
 5352TIP3   OH215998   4.554   2.456   2.608
 5352TIP3    H115999   4.587   2.538   2.571
 5352TIP3    H216000   4.550   2.473   2.702
 5353TIP3   OH216001   1.617   6.201   6.119
 5353TIP3    H116002   1.573   6.271   6.166
 5353TIP3    H216003   1.669   6.156   6.185
 5354TIP3   OH216004   3.765   5.436   3.941
 5354TIP3    H116005   3.776   5.481   3.856
 5354TIP3    H216006   3.726   5.503   3.997
 5355TIP3   OH216007   7.736   4.031   0.635
 5355TIP3    H116008   7.653   3.985   0.651
 5355TIP3    H216009   7.746   4.089   0.711
 5356TIP3   OH216010   6.728   3.172   2.088
 5356TIP3    H116011   6.734   3.077   2.097
 5356TIP3    H216012   6.814   3.205   2.113
 5357TIP3   OH216013   7.986   1.262   6.214
 5357TIP3    H116014   7.926   1.258   6.140
 5357TIP3    H216015   8.012   1.171   6.229
 5358TIP3   OH216016   6.646   2.488   2.092
 5358TIP3    H116017   6.604   2.506   2.176
 5358TIP3    H216018   6.732   2.528   2.098
 5359TIP3   OH216019   0.827   4.758   3.102
 5359TIP3    H116020   0.790   4.802   3.178
 5359TIP3    H216021   0.917   4.791   3.096
 5360TIP3   OH216022   1.697   6.881   4.102
 5360TIP3    H116023   1.733   6.967   4.124
 5360TIP3    H216024   1.743   6.856   4.022
 5361TIP3   OH216025   6.076   5.367   5.724
 5361TIP3    H116026   5.995   5.322   5.700
 5361TIP3    H216027   6.143   5.299   5.723
 5362TIP3   OH216028   1.644   6.302   2.117
 5362TIP3    H116029   1.684   6.327   2.200
 5362TIP3    H216030   1.631   6.385   2.071
 5363TIP3   OH216031   7.317   0.570   0.985
 5363TIP3    H116032   7.278   0.656   1.004
 5363TIP3    H216033   7.366   0.583   0.904
 5364TIP3   OH216034   5.774   0.454   3.577
 5364TIP3    H116035   5.748   0.541   3.545
 5364TIP3    H216036   5.746   0.453   3.668
 5365TIP3   OH216037   6.174   6.763   6.669
 5365TIP3    H116038   6.143   6.804   6.588
 5365TIP3    H216039   6.251   6.814   6.694
 5366TIP3   OH216040   7.096   5.547   4.123
 5366TIP3    H116041   7.071   5.462   4.158
 5366TIP3    H216042   7.020   5.577   4.074
 5367TIP3   OH216043   1.743   3.788   1.507
 5367TIP3    H116044   1.658   3.750   1.531
 5367TIP3    H216045   1.745   3.873   1.551
 5368TIP3   OH216046   0.181   4.701   0.089
 5368TIP3    H116047   0.239   4.774   0.113
 5368TIP3    H216048   0.237   4.640   0.042
 5369TIP3   OH216049   6.816   0.574   1.761
 5369TIP3    H116050   6.871   0.500   1.735
 5369TIP3    H216051   6.796   0.559   1.853
 5370TIP3   OH216052   3.666   5.129   1.960
 5370TIP3    H116053   3.691   5.209   2.006
 5370TIP3    H216054   3.636   5.159   1.874
 5371TIP3   OH216055   2.258   3.665   5.163
 5371TIP3    H116056   2.163   3.668   5.152
 5371TIP3    H216057   2.272   3.619   5.246
 5372TIP3   OH216058   0.384   7.043   6.314
 5372TIP3    H116059   0.455   7.050   6.377
 5372TIP3    H216060   0.310   7.088   6.355
 5373TIP3   OH216061   6.030   2.528   3.985
 5373TIP3    H116062   6.027   2.558   3.894
 5373TIP3    H216063   6.120   2.546   4.013
 5374TIP3   OH216064   6.329   1.311   2.431
 5374TIP3    H116065   6.243   1.339   2.460
 5374TIP3    H216066   6.325   1.313   2.335
 5375TIP3   OH216067   6.411   1.705   4.576
 5375TIP3    H116068   6.374   1.791   4.553
 5375TIP3    H216069   6.338   1.644   4.566
 5376TIP3   OH216070   1.669   5.309   3.319
 5376TIP3    H116071   1.677   5.379   3.384
 5376TIP3    H216072   1.597   5.255   3.351
 5377TIP3   OH216073   1.868   3.905   3.276
 5377TIP3    H116074   1.884   3.956   3.355
 5377TIP3    H216075   1.801   3.955   3.229
 5378TIP3   OH216076   1.514   3.250   2.423
 5378TIP3    H116077   1.571   3.192   2.373
 5378TIP3    H216078   1.427   3.237   2.385
 5379TIP3   OH216079   4.218   5.590   4.640
 5379TIP3    H116080   4.196   5.628   4.725
 5379TIP3    H216081   4.138   5.544   4.614
 5380TIP3   OH216082   2.983   0.985   6.589
 5380TIP3    H116083   2.961   0.998   6.497
 5380TIP3    H216084   2.913   1.028   6.637
 5381TIP3   OH216085   6.021   1.939   4.672
 5381TIP3    H116086   5.962   2.007   4.706
 5381TIP3    H216087   6.084   1.987   4.619
 5382TIP3   OH216088   1.106   7.348   3.874
 5382TIP3    H116089   1.189   7.364   3.918
 5382TIP3    H216090   1.039   7.365   3.940
 5383TIP3   OH216091   7.733   1.073   4.297
 5383TIP3    H116092   7.746   0.979   4.306
 5383TIP3    H216093   7.672   1.083   4.225
 5384TIP3   OH216094   7.708   1.861   4.134
 5384TIP3    H116095   7.761   1.853   4.213
 5384TIP3    H216096   7.749   1.933   4.085
 5385TIP3   OH216097   7.437   2.096   1.362
 5385TIP3    H116098   7.358   2.088   1.308
 5385TIP3    H216099   7.498   2.144   1.307
 5386TIP3   OH216100   0.363   6.088   5.044
 5386TIP3    H116101   0.442   6.069   5.094
 5386TIP3    H216102   0.321   6.002   5.033
 5387TIP3   OH216103   5.037   1.720   2.459
 5387TIP3    H116104   5.041   1.815   2.455
 5387TIP3    H216105   5.049   1.699   2.551
 5388TIP3   OH216106   2.431   5.668   0.723
 5388TIP3    H116107   2.419   5.696   0.813
 5388TIP3    H216108   2.460   5.577   0.729
 5389TIP3   OH216109   0.153   1.085   3.203
 5389TIP3    H116110   0.147   1.016   3.268
 5389TIP3    H216111   0.068   1.129   3.206
 5390TIP3   OH216112   3.302   5.302   1.141
 5390TIP3    H116113   3.346   5.386   1.129
 5390TIP3    H216114   3.264   5.283   1.055
 5391TIP3   OH216115   6.328   3.418   1.381
 5391TIP3    H116116   6.271   3.445   1.452
 5391TIP3    H216117   6.410   3.466   1.396
 5392TIP3   OH216118   5.239   4.803   5.779
 5392TIP3    H116119   5.177   4.793   5.851
 5392TIP3    H216120   5.213   4.736   5.716
 5393TIP3   OH216121   4.419   3.890   2.796
 5393TIP3    H116122   4.423   3.984   2.811
 5393TIP3    H216123   4.511   3.862   2.791
 5394TIP3   OH216124   5.836   0.783   4.344
 5394TIP3    H116125   5.900   0.717   4.370
 5394TIP3    H216126   5.828   0.772   4.249
 5395TIP3   OH216127   2.665   4.340   1.833
 5395TIP3    H116128   2.734   4.291   1.789
 5395TIP3    H216129   2.597   4.274   1.849
 5396TIP3   OH216130   1.785   3.502   3.599
 5396TIP3    H116131   1.834   3.560   3.541
 5396TIP3    H216132   1.701   3.547   3.612
 5397TIP3   OH216133   2.983   4.447   2.936
 5397TIP3    H116134   2.932   4.509   2.989
 5397TIP3    H216135   2.919   4.382   2.908
 5398TIP3   OH216136   4.474   6.577   0.928
 5398TIP3    H116137   4.461   6.498   0.980
 5398TIP3    H216138   4.462   6.549   0.838
 5399TIP3   OH216139   3.044   3.414   5.971
 5399TIP3    H116140   3.050   3.338   6.029
 5399TIP3    H216141   3.133   3.448   5.965
 5400TIP3   OH216142   0.990   2.240   5.809
 5400TIP3    H116143   0.973   2.296   5.885
 5400TIP3    H216144   0.904   2.204   5.787
 5401TIP3   OH216145   2.612   1.503   5.352
 5401TIP3    H116146   2.625   1.595   5.328
 5401TIP3    H216147   2.521   1.499   5.382
 5402TIP3   OH216148   6.838   7.043   3.579
 5402TIP3    H116149   6.908   7.094   3.620
 5402TIP3    H216150   6.831   6.964   3.632
 5403TIP3   OH216151   0.955   2.184   3.980
 5403TIP3    H116152   1.045   2.205   3.954
 5403TIP3    H216153   0.901   2.215   3.908
 5404TIP3   OH216154   3.522   2.098   4.184
 5404TIP3    H116155   3.447   2.062   4.231
 5404TIP3    H216156   3.543   2.032   4.118
 5405TIP3   OH216157   2.119   4.496   0.958
 5405TIP3    H116158   2.072   4.458   0.884
 5405TIP3    H216159   2.108   4.591   0.947
 5406TIP3   OH216160   0.686   7.358   3.601
 5406TIP3    H116161   0.719   7.403   3.523
 5406TIP3    H216162   0.707   7.418   3.673
 5407TIP3   OH216163   3.583   5.878   0.651
 5407TIP3    H116164   3.640   5.829   0.593
 5407TIP3    H216165   3.548   5.948   0.597
 5408TIP3   OH216166   0.921   6.792   4.840
 5408TIP3    H116167   0.986   6.728   4.812
 5408TIP3    H216168   0.960   6.877   4.818
 5409TIP3   OH216169   7.947   2.822   0.058
 5409TIP3    H116170   7.935   2.834   0.152
 5409TIP3    H216171   7.956   2.911   0.023
 5410TIP3   OH216172   5.533   4.736   4.756
 5410TIP3    H116173   5.482   4.811   4.788
 5410TIP3    H216174   5.486   4.659   4.790
 5411TIP3   OH216175   7.196   6.754   1.778
 5411TIP3    H116176   7.268   6.768   1.717
 5411TIP3    H216177   7.236   6.758   1.865
 5412TIP3   OH216178   7.723   6.353   0.526
 5412TIP3    H116179   7.662   6.406   0.475
 5412TIP3    H216180   7.807   6.362   0.481
 5413TIP3   OH216181   6.648   3.744   3.735
 5413TIP3    H116182   6.656   3.830   3.774
 5413TIP3    H216183   6.665   3.683   3.806
 5414TIP3   OH216184   7.130   1.524   0.166
 5414TIP3    H116185   7.182   1.485   0.096
 5414TIP3    H216186   7.135   1.460   0.238
 5415TIP3   OH216187   0.674   5.792   6.569
 5415TIP3    H116188   0.626   5.794   6.651
 5415TIP3    H216189   0.613   5.825   6.504
 5416TIP3   OH216190   0.629   4.332   4.701
 5416TIP3    H116191   0.572   4.400   4.736
 5416TIP3    H216192   0.665   4.289   4.778
 5417TIP3   OH216193   1.534   0.713   2.637
 5417TIP3    H116194   1.605   0.657   2.604
 5417TIP3    H216195   1.463   0.700   2.574
 5418TIP3   OH216196   4.655   0.199   3.097
 5418TIP3    H116197   4.724   0.146   3.057
 5418TIP3    H216198   4.660   0.283   3.050
 5419TIP3   OH216199   2.026   4.568   4.023
 5419TIP3    H116200   2.071   4.502   3.970
 5419TIP3    H216201   1.949   4.524   4.057
 5420TIP3   OH216202   1.497   2.575   2.595
 5420TIP3    H116203   1.519   2.614   2.679
 5420TIP3    H216204   1.401   2.573   2.592
 5421TIP3   OH216205   0.406   5.391   4.377
 5421TIP3    H116206   0.327   5.379   4.429
 5421TIP3    H216207   0.449   5.305   4.379
 5422TIP3   OH216208   2.408   0.837   1.407
 5422TIP3    H116209   2.453   0.762   1.448
 5422TIP3    H216210   2.409   0.817   1.314
 5423TIP3   OH216211   7.932   7.321   3.705
 5423TIP3    H116212   8.002   7.365   3.753
 5423TIP3    H216213   7.941   7.352   3.615
 5424TIP3   OH216214   5.893   1.318   5.811
 5424TIP3    H116215   5.805   1.285   5.794
 5424TIP3    H216216   5.947   1.239   5.821
 5425TIP3   OH216217   3.952   4.371   4.275
 5425TIP3    H116218   3.978   4.299   4.332
 5425TIP3    H216219   3.856   4.374   4.282
 5426TIP3   OH216220   1.468   6.558   5.292
 5426TIP3    H116221   1.455   6.652   5.305
 5426TIP3    H216222   1.438   6.542   5.203
 5427TIP3   OH216223   1.011   2.935   0.305
 5427TIP3    H116224   1.078   2.952   0.240
 5427TIP3    H216225   0.984   3.022   0.336
 5428TIP3   OH216226   5.019   4.093   0.359
 5428TIP3    H116227   4.969   4.116   0.280
 5428TIP3    H216228   5.111   4.101   0.333
 5429TIP3   OH216229   4.911   5.206   3.742
 5429TIP3    H116230   4.923   5.134   3.805
 5429TIP3    H216231   4.918   5.164   3.656
 5430TIP3   OH216232   0.519   1.090   0.151
 5430TIP3    H116233   0.436   1.057   0.184
 5430TIP3    H216234   0.506   1.185   0.145
 5431TIP3   OH216235   3.217   5.556   2.398
 5431TIP3    H116236   3.127   5.585   2.379
 5431TIP3    H216237   3.229   5.479   2.343
 5432TIP3   OH216238   4.885   1.477   0.147
 5432TIP3    H116239   4.913   1.468   0.056
 5432TIP3    H216240   4.853   1.567   0.154
 5433TIP3   OH216241   0.826   1.974   1.639
 5433TIP3    H116242   0.828   2.039   1.709
 5433TIP3    H216243   0.918   1.955   1.621
 5434TIP3   OH216244   3.734   0.445   1.754
 5434TIP3    H116245   3.654   0.476   1.796
 5434TIP3    H216246   3.717   0.354   1.733
 5435TIP3   OH216247   0.685   3.045   5.190
 5435TIP3    H116248   0.624   3.009   5.255
 5435TIP3    H216249   0.683   3.140   5.206
 5436TIP3   OH216250   6.724   3.477   6.109
 5436TIP3    H116251   6.795   3.535   6.137
 5436TIP3    H216252   6.749   3.448   6.022
 5437TIP3   OH216253   7.991   3.039   6.602
 5437TIP3    H116254   7.996   3.116   6.658
 5437TIP3    H216255   7.983   3.074   6.514
 5438TIP3   OH216256   3.356   4.140   1.128
 5438TIP3    H116257   3.390   4.055   1.100
 5438TIP3    H216258   3.295   4.119   1.199
 5439TIP3   OH216259   0.550   4.226   4.175
 5439TIP3    H116260   0.626   4.282   4.160
 5439TIP3    H216261   0.535   4.182   4.092
 5440TIP3   OH216262   5.084   4.972   1.300
 5440TIP3    H116263   5.007   5.019   1.331
 5440TIP3    H216264   5.053   4.882   1.285
 5441TIP3   OH216265   2.052   4.377   1.928
 5441TIP3    H116266   2.136   4.363   1.972
 5441TIP3    H216267   1.987   4.367   1.997
 5442TIP3   OH216268   2.545   7.691   5.400
 5442TIP3    H116269   2.456   7.724   5.385
 5442TIP3    H216270   2.533   7.600   5.424
 5443TIP3   OH216271   2.869   5.921   1.912
 5443TIP3    H116272   2.881   5.994   1.974
 5443TIP3    H216273   2.775   5.921   1.894
 5444TIP3   OH216274   1.981   5.314   3.343
 5444TIP3    H116275   2.047   5.343   3.280
 5444TIP3    H216276   1.936   5.394   3.369
 5445TIP3   OH216277   2.348   3.528   4.943
 5445TIP3    H116278   2.345   3.591   5.014
 5445TIP3    H216279   2.278   3.465   4.963
 5446TIP3   OH216280   1.468   5.155   3.755
 5446TIP3    H116281   1.545   5.199   3.718
 5446TIP3    H216282   1.444   5.089   3.690
 5447TIP3   OH216283   4.038   4.391   2.786
 5447TIP3    H116284   4.069   4.416   2.873
 5447TIP3    H216285   3.951   4.430   2.779
 5448TIP3   OH216286   4.340   0.770   3.611
 5448TIP3    H116287   4.330   0.720   3.530
 5448TIP3    H216288   4.434   0.765   3.631
 5449TIP3   OH216289   2.040   6.806   5.959
 5449TIP3    H116290   2.110   6.814   5.894
 5449TIP3    H216291   2.067   6.734   6.016
 5450TIP3   OH216292   0.931   7.084   2.434
 5450TIP3    H116293   0.864   7.087   2.502
 5450TIP3    H216294   0.907   7.007   2.381
 5451TIP3   OH216295   5.351   1.013   3.458
 5451TIP3    H116296   5.444   0.992   3.472
 5451TIP3    H216297   5.330   1.075   3.529
 5452TIP3   OH216298   0.779   1.091   0.502
 5452TIP3    H116299   0.785   1.047   0.417
 5452TIP3    H216300   0.841   1.045   0.557
 5453TIP3   OH216301   5.748   7.397   5.350
 5453TIP3    H116302   5.797   7.411   5.268
 5453TIP3    H216303   5.731   7.303   5.352
 5454TIP3   OH216304   4.096   7.727   0.335
 5454TIP3    H116305   4.110   7.786   0.409
 5454TIP3    H216306   4.184   7.709   0.302
 5455TIP3   OH216307   3.042   3.237   3.644
 5455TIP3    H116308   3.131   3.213   3.666
 5455TIP3    H216309   3.002   3.155   3.614
 5456TIP3   OH216310   3.025   0.824   6.303
 5456TIP3    H116311   3.022   0.787   6.214
 5456TIP3    H216312   3.055   0.914   6.290
 5457TIP3   OH216313   7.705   3.598   0.556
 5457TIP3    H116314   7.669   3.687   0.559
 5457TIP3    H216315   7.773   3.602   0.490
 5458TIP3   OH216316   7.551   1.571   0.806
 5458TIP3    H116317   7.524   1.480   0.819
 5458TIP3    H216318   7.589   1.573   0.718
 5459TIP3   OH216319   8.187   0.837   0.146
 5459TIP3    H116320   8.164   0.893   0.220
 5459TIP3    H216321   8.222   0.897   0.080
 5460TIP3   OH216322   3.245   2.917   4.160
 5460TIP3    H116323   3.313   2.975   4.126
 5460TIP3    H216324   3.166   2.971   4.164
 5461TIP3   OH216325   2.995   3.530   2.931
 5461TIP3    H116326   2.974   3.440   2.956
 5461TIP3    H216327   3.086   3.526   2.901
 5462TIP3   OH216328   1.011   6.930   6.292
 5462TIP3    H116329   1.081   6.946   6.229
 5462TIP3    H216330   0.970   7.016   6.304
 5463TIP3   OH216331   3.965   0.438   1.872
 5463TIP3    H116332   4.005   0.489   1.801
 5463TIP3    H216333   3.871   0.446   1.858
 5464TIP3   OH216334   7.395   0.884   3.436
 5464TIP3    H116335   7.310   0.888   3.480
 5464TIP3    H216336   7.414   0.791   3.429
 5465TIP3   OH216337   5.350   5.821   3.933
 5465TIP3    H116338   5.439   5.806   3.900
 5465TIP3    H216339   5.325   5.738   3.975
 5466TIP3   OH216340   4.500   4.642   0.207
 5466TIP3    H116341   4.463   4.612   0.291
 5466TIP3    H216342   4.423   4.671   0.157
 5467TIP3   OH216343   6.491   6.841   2.213
 5467TIP3    H116344   6.423   6.830   2.147
 5467TIP3    H216345   6.469   6.924   2.257
 5468TIP3   OH216346   6.571   7.588   0.260
 5468TIP3    H116347   6.491   7.636   0.285
 5468TIP3    H216348   6.627   7.655   0.221
 5469TIP3   OH216349   3.562   7.101   3.961
 5469TIP3    H116350   3.535   7.053   4.040
 5469TIP3    H216351   3.507   7.065   3.891
 5470TIP3   OH216352   7.139   6.744   3.655
 5470TIP3    H116353   7.078   6.687   3.702
 5470TIP3    H216354   7.166   6.809   3.720
 5471TIP3   OH216355   6.074   3.589   0.848
 5471TIP3    H116356   6.046   3.664   0.901
 5471TIP3    H216357   6.169   3.594   0.847
 5472TIP3   OH216358   7.673   5.082   0.278
 5472TIP3    H116359   7.759   5.122   0.289
 5472TIP3    H216360   7.682   4.995   0.316
 5473TIP3   OH216361   4.108   1.461   2.524
 5473TIP3    H116362   4.052   1.383   2.528
 5473TIP3    H216363   4.132   1.478   2.615
 5474TIP3   OH216364   4.300   1.199   6.159
 5474TIP3    H116365   4.216   1.204   6.206
 5474TIP3    H216366   4.359   1.157   6.222
 5475TIP3   OH216367   5.254   2.818   3.064
 5475TIP3    H116368   5.329   2.869   3.093
 5475TIP3    H216369   5.270   2.730   3.096
 5476TIP3   OH216370   7.221   6.483   0.682
 5476TIP3    H116371   7.274   6.541   0.627
 5476TIP3    H216372   7.158   6.542   0.724
 5477TIP3   OH216373   4.414   6.134   4.057
 5477TIP3    H116374   4.378   6.069   3.997
 5477TIP3    H216375   4.409   6.216   4.009
 5478TIP3   OH216376   5.131   1.453   0.336
 5478TIP3    H116377   5.204   1.420   0.283
 5478TIP3    H216378   5.054   1.446   0.279
 5479TIP3   OH216379   1.332   1.055   2.148
 5479TIP3    H116380   1.249   1.103   2.148
 5479TIP3    H216381   1.346   1.032   2.057
 5480TIP3   OH216382   5.466   6.418   0.226
 5480TIP3    H116383   5.505   6.382   0.146
 5480TIP3    H216384   5.373   6.422   0.207
 5481TIP3   OH216385   8.220   2.401   3.459
 5481TIP3    H116386   8.248   2.451   3.382
 5481TIP3    H216387   8.276   2.432   3.530
 5482TIP3   OH216388   5.375   1.066   0.858
 5482TIP3    H116389   5.307   1.008   0.825
 5482TIP3    H216390   5.386   1.132   0.789
 5483TIP3   OH216391   4.480   5.549   5.976
 5483TIP3    H116392   4.538   5.510   6.042
 5483TIP3    H216393   4.392   5.536   6.012
 5484TIP3   OH216394   7.446   5.609   5.044
 5484TIP3    H116395   7.415   5.656   4.966
 5484TIP3    H216396   7.390   5.643   5.114
 5485TIP3   OH216397   7.707   7.054   1.789
 5485TIP3    H116398   7.758   6.996   1.733
 5485TIP3    H216399   7.763   7.131   1.801
 5486TIP3   OH216400   5.810   7.712   3.086
 5486TIP3    H116401   5.721   7.747   3.077
 5486TIP3    H216402   5.831   7.679   2.999
 5487TIP3   OH216403   6.305   2.240   5.509
 5487TIP3    H116404   6.278   2.312   5.452
 5487TIP3    H216405   6.336   2.172   5.448
 5488TIP3   OH216406   5.703   1.838   1.225
 5488TIP3    H116407   5.751   1.896   1.166
 5488TIP3    H216408   5.657   1.777   1.167
 5489TIP3   OH216409   6.011   0.839   1.157
 5489TIP3    H116410   6.011   0.874   1.246
 5489TIP3    H216411   6.099   0.857   1.124
 5490TIP3   OH216412   2.279   0.956   4.683
 5490TIP3    H116413   2.313   0.886   4.628
 5490TIP3    H216414   2.206   0.916   4.731
 5491TIP3   OH216415   3.688   5.075   1.417
 5491TIP3    H116416   3.596   5.100   1.417
 5491TIP3    H216417   3.687   4.979   1.416
 5492TIP3   OH216418   3.000   7.420   1.384
 5492TIP3    H116419   3.065   7.418   1.313
 5492TIP3    H216420   2.984   7.327   1.404
 5493TIP3   OH216421   5.709   3.513   0.402
 5493TIP3    H116422   5.681   3.567   0.477
 5493TIP3    H216423   5.751   3.437   0.442
 5494TIP3   OH216424   0.021   2.038   0.174
 5494TIP3    H116425   0.107   2.032   0.218
 5494TIP3    H216426   0.039   2.013   0.084
 5495TIP3   OH216427   0.465   7.117   3.413
 5495TIP3    H116428   0.447   7.037   3.463
 5495TIP3    H216429   0.379   7.158   3.403
 5496TIP3   OH216430   0.487   7.442   6.384
 5496TIP3    H116431   0.440   7.463   6.464
 5496TIP3    H216432   0.444   7.494   6.316
 5497TIP3   OH216433   5.293   6.262   4.896
 5497TIP3    H116434   5.337   6.180   4.918
 5497TIP3    H216435   5.221   6.268   4.958
 5498TIP3   OH216436   7.956   3.228   4.500
 5498TIP3    H116437   7.879   3.175   4.522
 5498TIP3    H216438   7.961   3.223   4.404
 5499TIP3   OH216439   7.409   7.079   4.772
 5499TIP3    H116440   7.439   7.059   4.683
 5499TIP3    H216441   7.349   7.008   4.794
 5500TIP3   OH216442   6.852   5.938   6.651
 5500TIP3    H116443   6.885   5.849   6.640
 5500TIP3    H216444   6.803   5.955   6.570
 5501TIP3   OH216445   1.394   2.240   5.450
 5501TIP3    H116446   1.391   2.324   5.405
 5501TIP3    H216447   1.480   2.204   5.427
 5502TIP3   OH216448   5.155   3.924   0.637
 5502TIP3    H116449   5.129   3.851   0.694
 5502TIP3    H216450   5.250   3.929   0.647
 5503TIP3   OH216451   6.855   1.037   0.107
 5503TIP3    H116452   6.834   1.009   0.197
 5503TIP3    H216453   6.774   1.022   0.059
 5504TIP3   OH216454   2.264   7.099   0.673
 5504TIP3    H116455   2.329   7.086   0.603
 5504TIP3    H216456   2.307   7.065   0.752
 5505TIP3   OH216457   5.553   6.305   2.290
 5505TIP3    H116458   5.638   6.311   2.334
 5505TIP3    H216459   5.558   6.223   2.240
 5506TIP3   OH216460   1.445   1.629   0.426
 5506TIP3    H116461   1.520   1.684   0.404
 5506TIP3    H216462   1.422   1.655   0.515
 5507TIP3   OH216463   4.613   0.632   4.289
 5507TIP3    H116464   4.621   0.692   4.215
 5507TIP3    H216465   4.702   0.600   4.304
 5508TIP3   OH216466   3.278   1.279   1.263
 5508TIP3    H116467   3.191   1.276   1.303
 5508TIP3    H216468   3.275   1.356   1.206
 5509TIP3   OH216469   7.750   6.627   1.051
 5509TIP3    H116470   7.673   6.663   1.007
 5509TIP3    H216471   7.824   6.657   0.998
 5510TIP3   OH216472   2.025   3.596   2.286
 5510TIP3    H116473   1.948   3.630   2.240
 5510TIP3    H216474   1.999   3.596   2.379
 5511TIP3   OH216475   1.030   0.696   4.251
 5511TIP3    H116476   0.949   0.723   4.208
 5511TIP3    H216477   1.083   0.657   4.181
 5512TIP3   OH216478   5.840   2.095   4.227
 5512TIP3    H116479   5.903   2.023   4.230
 5512TIP3    H216480   5.841   2.124   4.136
 5513TIP3   OH216481   1.679   2.431   5.019
 5513TIP3    H116482   1.745   2.463   4.958
 5513TIP3    H216483   1.596   2.465   4.984
 5514TIP3   OH216484   8.287   1.348   0.296
 5514TIP3    H116485   8.192   1.349   0.308
 5514TIP3    H216486   8.323   1.348   0.385
 5515TIP3   OH216487   3.093   1.267   4.399
 5515TIP3    H116488   3.147   1.197   4.361
 5515TIP3    H216489   3.143   1.347   4.381
 5516TIP3   OH216490   0.232   4.120   0.203
 5516TIP3    H116491   0.243   4.216   0.202
 5516TIP3    H216492   0.247   4.095   0.294
 5517TIP3   OH216493   7.465   6.334   4.871
 5517TIP3    H116494   7.516   6.277   4.930
 5517TIP3    H216495   7.420   6.273   4.813
 5518TIP3   OH216496   2.201   7.154   1.036
 5518TIP3    H116497   2.227   7.213   0.966
 5518TIP3    H216498   2.150   7.209   1.096
 5519TIP3   OH216499   7.252   3.922   4.491
 5519TIP3    H116500   7.335   3.877   4.480
 5519TIP3    H216501   7.234   3.960   4.405
 5520TIP3   OH216502   2.409   4.617   5.285
 5520TIP3    H116503   2.373   4.636   5.198
 5520TIP3    H216504   2.444   4.700   5.316
 5521TIP3   OH216505   0.183   5.410   2.071
 5521TIP3    H116506   0.139   5.329   2.044
 5521TIP3    H216507   0.248   5.381   2.134
 5522TIP3   OH216508   4.664   7.734   0.827
 5522TIP3    H116509   4.681   7.704   0.737
 5522TIP3    H216510   4.576   7.769   0.825
 5523TIP3   OH216511   1.232   7.290   6.546
 5523TIP3    H116512   1.153   7.254   6.507
 5523TIP3    H216513   1.295   7.218   6.543
 5524TIP3   OH216514   0.329   4.189   5.256
 5524TIP3    H116515   0.373   4.271   5.235
 5524TIP3    H216516   0.236   4.213   5.263
 5525TIP3   OH216517   5.830   0.473   1.159
 5525TIP3    H116518   5.760   0.520   1.206
 5525TIP3    H216519   5.911   0.502   1.201
 5526TIP3   OH216520   4.351   3.790   2.295
 5526TIP3    H116521   4.426   3.758   2.246
 5526TIP3    H216522   4.276   3.775   2.236
 5527TIP3   OH216523   0.340   7.027   2.298
 5527TIP3    H116524   0.367   6.939   2.270
 5527TIP3    H216525   0.315   7.071   2.217
 5528TIP3   OH216526   8.138   0.291   1.443
 5528TIP3    H116527   8.207   0.235   1.480
 5528TIP3    H216528   8.057   0.243   1.459
 5529TIP3   OH216529   3.623   7.642   3.897
 5529TIP3    H116530   3.553   7.610   3.839
 5529TIP3    H216531   3.622   7.581   3.970
 5530TIP3   OH216532   2.046   3.917   2.686
 5530TIP3    H116533   2.116   3.854   2.704
 5530TIP3    H216534   2.035   3.965   2.769
 5531TIP3   OH216535   4.897   6.446   4.953
 5531TIP3    H116536   4.875   6.454   4.861
 5531TIP3    H216537   4.822   6.483   4.999
 5532TIP3   OH216538   1.739   7.234   3.615
 5532TIP3    H116539   1.764   7.143   3.598
 5532TIP3    H216540   1.761   7.280   3.534
 5533TIP3   OH216541   3.668   2.616   2.945
 5533TIP3    H116542   3.747   2.658   2.911
 5533TIP3    H216543   3.682   2.523   2.931
 5534TIP3   OH216544   2.663   6.274   0.848
 5534TIP3    H116545   2.690   6.324   0.925
 5534TIP3    H216546   2.733   6.210   0.835
 5535TIP3   OH216547   6.599   0.328   1.854
 5535TIP3    H116548   6.611   0.367   1.767
 5535TIP3    H216549   6.509   0.348   1.878
 5536TIP3   OH216550   0.817   2.316   0.750
 5536TIP3    H116551   0.773   2.301   0.834
 5536TIP3    H216552   0.801   2.236   0.700
 5537TIP3   OH216553   2.378   0.337   3.405
 5537TIP3    H116554   2.294   0.362   3.442
 5537TIP3    H216555   2.358   0.312   3.314
 5538TIP3   OH216556   1.338   1.636   3.223
 5538TIP3    H116557   1.244   1.651   3.234
 5538TIP3    H216558   1.379   1.716   3.257
 5539TIP3   OH216559   1.115   7.636   4.076
 5539TIP3    H116560   1.156   7.693   4.011
 5539TIP3    H216561   1.160   7.656   4.157
 5540TIP3   OH216562   3.023   2.097   3.076
 5540TIP3    H116563   3.113   2.130   3.086
 5540TIP3    H216564   3.032   2.002   3.080
 5541TIP3   OH216565   2.465   0.399   0.761
 5541TIP3    H116566   2.416   0.317   0.757
 5541TIP3    H216567   2.455   0.437   0.674
 5542TIP3   OH216568   6.605   1.655   6.127
 5542TIP3    H116569   6.676   1.678   6.067
 5542TIP3    H216570   6.629   1.569   6.162
 5543TIP3   OH216571   6.993   6.591   0.811
 5543TIP3    H116572   6.968   6.667   0.757
 5543TIP3    H216573   6.948   6.517   0.770
 5544TIP3   OH216574   0.526   4.126   1.964
 5544TIP3    H116575   0.544   4.120   2.058
 5544TIP3    H216576   0.608   4.158   1.926
 5545TIP3   OH216577   1.228   3.425   2.095
 5545TIP3    H116578   1.291   3.498   2.092
 5545TIP3    H216579   1.157   3.457   2.151
 5546TIP3   OH216580   2.232   3.868   1.233
 5546TIP3    H116581   2.196   3.923   1.302
 5546TIP3    H216582   2.188   3.784   1.242
 5547TIP3   OH216583   4.151   7.135   0.765
 5547TIP3    H116584   4.221   7.179   0.717
 5547TIP3    H216585   4.126   7.061   0.709
 5548TIP3   OH216586   8.037   1.624   6.469
 5548TIP3    H116587   8.006   1.536   6.490
 5548TIP3    H216588   7.973   1.656   6.404
 5549TIP3   OH216589   4.934   7.155   3.715
 5549TIP3    H116590   4.860   7.216   3.704
 5549TIP3    H216591   4.920   7.088   3.649
 5550TIP3   OH216592   3.600   1.194   2.601
 5550TIP3    H116593   3.563   1.279   2.581
 5550TIP3    H216594   3.662   1.177   2.531
 5551TIP3   OH216595   3.294   6.451   4.428
 5551TIP3    H116596   3.334   6.365   4.439
 5551TIP3    H216597   3.346   6.494   4.360
 5552TIP3   OH216598   3.043   7.419   5.273
 5552TIP3    H116599   3.021   7.492   5.214
 5552TIP3    H216600   3.125   7.446   5.314
 5553TIP3   OH216601   7.650   1.349   5.603
 5553TIP3    H116602   7.721   1.329   5.542
 5553TIP3    H216603   7.601   1.267   5.611
 5554TIP3   OH216604   7.758   0.667   5.618
 5554TIP3    H116605   7.816   0.665   5.542
 5554TIP3    H216606   7.801   0.612   5.684
 5555TIP3   OH216607   6.381   2.291   5.983
 5555TIP3    H116608   6.306   2.325   5.934
 5555TIP3    H216609   6.456   2.340   5.948
 5556TIP3   OH216610   6.809   3.144   0.535
 5556TIP3    H116611   6.725   3.188   0.546
 5556TIP3    H216612   6.873   3.204   0.575
 5557TIP3   OH216613   6.039   7.613   5.323
 5557TIP3    H116614   5.951   7.624   5.359
 5557TIP3    H216615   6.087   7.690   5.353
 5558TIP3   OH216616   5.280   6.979   2.085
 5558TIP3    H116617   5.251   6.909   2.142
 5558TIP3    H216618   5.358   6.945   2.041
 5559TIP3   OH216619   6.738   3.898   1.165
 5559TIP3    H116620   6.761   3.912   1.073
 5559TIP3    H216621   6.649   3.932   1.173
 5560TIP3   OH216622   1.442   6.186   3.127
 5560TIP3    H116623   1.366   6.229   3.166
 5560TIP3    H216624   1.407   6.105   3.089
 5561TIP3   OH216625   6.288   4.328   5.423
 5561TIP3    H116626   6.255   4.394   5.361
 5561TIP3    H216627   6.382   4.344   5.426
 5562TIP3   OH216628   2.271   3.719   1.602
 5562TIP3    H116629   2.204   3.786   1.590
 5562TIP3    H216630   2.346   3.750   1.551
 5563TIP3   OH216631   7.055   2.212   3.423
 5563TIP3    H116632   6.969   2.254   3.426
 5563TIP3    H216633   7.076   2.196   3.515
 5564TIP3   OH216634   0.064   0.173   5.863
 5564TIP3    H116635   0.088   0.094   5.912
 5564TIP3    H216636   0.138   0.189   5.804
 5565TIP3   OH216637   7.019   5.670   5.204
 5565TIP3    H116638   6.975   5.754   5.214
 5565TIP3    H216639   6.964   5.608   5.252
 5566TIP3   OH216640   7.676   5.873   1.448
 5566TIP3    H116641   7.638   5.959   1.463
 5566TIP3    H216642   7.631   5.840   1.370
 5567TIP3   OH216643   2.357   5.639   2.764
 5567TIP3    H116644   2.277   5.586   2.763
 5567TIP3    H216645   2.364   5.671   2.854
 5568TIP3   OH216646   6.687   2.033   6.222
 5568TIP3    H116647   6.729   2.042   6.136
 5568TIP3    H216648   6.612   2.092   6.219
 5569TIP3   OH216649   1.048   6.491   6.249
 5569TIP3    H116650   0.988   6.503   6.176
 5569TIP3    H216651   1.035   6.570   6.303
 5570TIP3   OH216652   6.597   3.421   4.867
 5570TIP3    H116653   6.611   3.415   4.961
 5570TIP3    H216654   6.547   3.342   4.846
 5571TIP3   OH216655   2.242   2.040   3.073
 5571TIP3    H116656   2.164   2.003   3.115
 5571TIP3    H216657   2.259   1.983   2.999
 5572TIP3   OH216658   4.503   2.010   1.443
 5572TIP3    H116659   4.539   1.926   1.474
 5572TIP3    H216660   4.579   2.067   1.436
 5573TIP3   OH216661   4.192   1.154   1.156
 5573TIP3    H116662   4.164   1.125   1.243
 5573TIP3    H216663   4.287   1.138   1.155
 5574TIP3   OH216664   7.916   3.431   5.357
 5574TIP3    H116665   7.980   3.400   5.421
 5574TIP3    H216666   7.897   3.354   5.303
 5575TIP3   OH216667   5.939   3.662   2.724
 5575TIP3    H116668   6.011   3.682   2.785
 5575TIP3    H216669   5.863   3.649   2.780
 5576TIP3   OH216670   6.771   4.814   3.389
 5576TIP3    H116671   6.684   4.836   3.423
 5576TIP3    H216672   6.754   4.774   3.304
 5577TIP3   OH216673   7.935   3.405   1.046
 5577TIP3    H116674   7.853   3.446   1.073
 5577TIP3    H216675   7.919   3.374   0.957
 5578TIP3   OH216676   2.906   5.369   3.624
 5578TIP3    H116677   2.884   5.404   3.538
 5578TIP3    H216678   2.831   5.315   3.648
 5579TIP3   OH216679   3.992   4.860   4.433
 5579TIP3    H116680   3.900   4.845   4.457
 5579TIP3    H216681   4.038   4.784   4.468
 5580TIP3   OH216682   1.180   0.549   2.973
 5580TIP3    H116683   1.237   0.496   2.917
 5580TIP3    H216684   1.223   0.634   2.977
 5581TIP3   OH216685   2.941   7.779   2.615
 5581TIP3    H116686   2.974   7.804   2.702
 5581TIP3    H216687   2.966   7.687   2.605
 5582TIP3   OH216688   7.687   6.910   1.450
 5582TIP3    H116689   7.637   6.938   1.527
 5582TIP3    H216690   7.628   6.849   1.405
 5583TIP3   OH216691   1.565   0.395   5.215
 5583TIP3    H116692   1.629   0.462   5.237
 5583TIP3    H216693   1.480   0.436   5.235
 5584TIP3   OH216694   0.488   4.867   3.649
 5584TIP3    H116695   0.493   4.934   3.580
 5584TIP3    H216696   0.545   4.797   3.618
 5585TIP3   OH216697   2.959   6.160   2.577
 5585TIP3    H116698   2.937   6.192   2.490
 5585TIP3    H216699   2.874   6.139   2.617
 5586TIP3   OH216700   4.886   6.590   5.343
 5586TIP3    H116701   4.805   6.631   5.313
 5586TIP3    H216702   4.927   6.655   5.399
 5587TIP3   OH216703   6.686   4.597   4.507
 5587TIP3    H116704   6.679   4.502   4.518
 5587TIP3    H216705   6.660   4.632   4.593
 5588TIP3   OH216706   6.511   6.622   5.816
 5588TIP3    H116707   6.488   6.529   5.819
 5588TIP3    H216708   6.598   6.627   5.856
 5589TIP3   OH216709   6.551   2.117   4.831
 5589TIP3    H116710   6.463   2.151   4.851
 5589TIP3    H216711   6.593   2.187   4.780
 5590TIP3   OH216712   2.868   5.647   3.506
 5590TIP3    H116713   2.886   5.619   3.596
 5590TIP3    H216714   2.805   5.718   3.515
 5591TIP3   OH216715   7.034   2.410   1.510
 5591TIP3    H116716   6.963   2.390   1.571
 5591TIP3    H216717   6.999   2.481   1.456
 5592TIP3   OH216718   7.975   7.609   2.427
 5592TIP3    H116719   8.003   7.517   2.425
 5592TIP3    H216720   7.932   7.622   2.343
 5593TIP3   OH216721   1.698   3.647   0.864
 5593TIP3    H116722   1.712   3.652   0.958
 5593TIP3    H216723   1.603   3.642   0.855
 5594TIP3   OH216724   5.882   0.941   2.214
 5594TIP3    H116725   5.972   0.910   2.204
 5594TIP3    H216726   5.838   0.872   2.263
 5595TIP3   OH216727   1.985   5.114   0.126
 5595TIP3    H116728   2.001   5.203   0.157
 5595TIP3    H216729   2.052   5.100   0.058
 5596TIP3   OH216730   4.442   6.834   0.662
 5596TIP3    H116731   4.375   6.813   0.727
 5596TIP3    H216732   4.397   6.825   0.577
 5597TIP3   OH216733   4.478   1.594   6.387
 5597TIP3    H116734   4.545   1.550   6.335
 5597TIP3    H216735   4.443   1.524   6.444
 5598TIP3   OH216736   1.893   5.003   6.261
 5598TIP3    H116737   1.849   4.939   6.206
 5598TIP3    H216738   1.900   5.081   6.206
 5599TIP3   OH216739   3.358   6.266   3.751
 5599TIP3    H116740   3.334   6.335   3.812
 5599TIP3    H216741   3.285   6.206   3.752
 5600TIP3   OH216742   4.767   3.241   5.282
 5600TIP3    H116743   4.765   3.298   5.359
 5600TIP3    H216744   4.860   3.235   5.259
 5601TIP3   OH216745   0.577   7.796   4.545
 5601TIP3    H116746   0.571   7.861   4.475
 5601TIP3    H216747   0.587   7.848   4.625
 5602TIP3   OH216748   0.480   2.002   2.816
 5602TIP3    H116749   0.437   2.052   2.746
 5602TIP3    H216750   0.519   2.069   2.873
 5603TIP3   OH216751   0.037   6.454   4.980
 5603TIP3    H116752   0.113   6.397   4.990
 5603TIP3    H216753   0.053   6.527   5.040
 5604TIP3   OH216754   3.956   2.300   2.104
 5604TIP3    H116755   4.040   2.270   2.140
 5604TIP3    H216756   3.909   2.220   2.081
 5605TIP3   OH216757   5.861   2.072   2.835
 5605TIP3    H116758   5.825   1.986   2.814
 5605TIP3    H216759   5.938   2.053   2.888
 5606TIP3   OH216760   7.114   2.404   3.904
 5606TIP3    H116761   7.037   2.461   3.899
 5606TIP3    H216762   7.089   2.334   3.964
 5607TIP3   OH216763   0.852   2.592   0.947
 5607TIP3    H116764   0.923   2.536   0.979
 5607TIP3    H216765   0.844   2.661   1.013
 5608TIP3   OH216766   2.433   0.672   0.169
 5608TIP3    H116767   2.378   0.697   0.244
 5608TIP3    H216768   2.507   0.733   0.172
 5609TIP3   OH216769   6.655   0.001   4.420
 5609TIP3    H116770   6.685  -0.028   4.507
 5609TIP3    H216771   6.655   0.097   4.426
 5610TIP3   OH216772   0.856   1.975   0.942
 5610TIP3    H116773   0.810   2.041   0.994
 5610TIP3    H216774   0.858   2.011   0.854
 5611TIP3   OH216775   0.443   1.028   3.075
 5611TIP3    H116776   0.508   1.050   3.008
 5611TIP3    H216777   0.478   0.951   3.118
 5612TIP3   OH216778   5.671   7.320   1.304
 5612TIP3    H116779   5.580   7.347   1.290
 5612TIP3    H216780   5.723   7.380   1.250
 5613TIP3   OH216781   7.172   6.844   6.771
 5613TIP3    H116782   7.117   6.839   6.692
 5613TIP3    H216783   7.247   6.897   6.745
 5614TIP3   OH216784   5.309   4.803   1.539
 5614TIP3    H116785   5.285   4.714   1.513
 5614TIP3    H216786   5.225   4.846   1.554
 5615TIP3   OH216787   3.049   5.217   6.682
 5615TIP3    H116788   3.042   5.139   6.628
 5615TIP3    H216789   2.959   5.238   6.707
 5616TIP3   OH216790   0.360   1.705   0.747
 5616TIP3    H116791   0.372   1.750   0.664
 5616TIP3    H216792   0.437   1.648   0.754
 5617TIP3   OH216793   0.232   0.800   3.839
 5617TIP3    H116794   0.222   0.803   3.934
 5617TIP3    H216795   0.257   0.889   3.814
 5618TIP3   OH216796   1.627   0.131   0.101
 5618TIP3    H116797   1.591   0.219   0.085
 5618TIP3    H216798   1.559   0.071   0.070
 5619TIP3   OH216799   1.664   1.470   3.976
 5619TIP3    H116800   1.701   1.383   3.986
 5619TIP3    H216801   1.619   1.487   4.059
 5620TIP3   OH216802   3.843   6.436   4.655
 5620TIP3    H116803   3.809   6.417   4.568
 5620TIP3    H216804   3.765   6.455   4.708
 5621TIP3   OH216805   7.675   1.353   3.973
 5621TIP3    H116806   7.690   1.447   3.980
 5621TIP3    H216807   7.759   1.318   3.943
 5622TIP3   OH216808   6.714   1.265   2.261
 5622TIP3    H116809   6.724   1.280   2.168
 5622TIP3    H216810   6.648   1.195   2.267
 5623TIP3   OH216811   7.518   1.147   5.467
 5623TIP3    H116812   7.521   1.160   5.372
 5623TIP3    H216813   7.562   1.063   5.481
 5624TIP3   OH216814   7.905   4.324   2.222
 5624TIP3    H116815   7.934   4.404   2.177
 5624TIP3    H216816   7.872   4.354   2.306
 5625TIP3   OH216817   2.150   1.527   0.071
 5625TIP3    H116818   2.137   1.608   0.023
 5625TIP3    H216819   2.226   1.486   0.029
 5626TIP3   OH216820   4.849   5.567   0.020
 5626TIP3    H116821   4.825   5.502   0.086
 5626TIP3    H216822   4.767   5.588  -0.024
 5627TIP3   OH216823   4.911   1.717   0.053
 5627TIP3    H116824   4.944   1.707  -0.036
 5627TIP3    H216825   4.985   1.752   0.103
 5628TIP3   OH216826   7.595   0.561   1.495
 5628TIP3    H116827   7.666   0.561   1.431
 5628TIP3    H216828   7.521   0.520   1.449
 5629TIP3   OH216829   0.076   6.954   1.249
 5629TIP3    H116830   0.081   7.049   1.263
 5629TIP3    H216831   0.144   6.918   1.306
 5630TIP3   OH216832   0.797   2.168   4.240
 5630TIP3    H116833   0.846   2.180   4.159
 5630TIP3    H216834   0.755   2.253   4.255
 5631TIP3   OH216835   0.515   4.562   3.972
 5631TIP3    H116836   0.541   4.583   4.062
 5631TIP3    H216837   0.420   4.562   3.974
 5632TIP3   OH216838   1.103   3.671   1.812
 5632TIP3    H116839   1.019   3.708   1.838
 5632TIP3    H216840   1.164   3.745   1.815
 5633TIP3   OH216841   6.419   3.397   5.547
 5633TIP3    H116842   6.506   3.429   5.524
 5633TIP3    H216843   6.432   3.303   5.561
 5634TIP3   OH216844   7.700   4.863   2.192
 5634TIP3    H116845   7.737   4.778   2.170
 5634TIP3    H216846   7.768   4.908   2.241
 5635TIP3   OH216847   5.861   2.546   3.405
 5635TIP3    H116848   5.945   2.502   3.419
 5635TIP3    H216849   5.859   2.615   3.471
 5636TIP3   OH216850   2.751   1.964   5.464
 5636TIP3    H116851   2.822   2.021   5.433
 5636TIP3    H216852   2.674   2.019   5.464
 5637TIP3   OH216853   4.908   5.376   4.160
 5637TIP3    H116854   4.887   5.467   4.141
 5637TIP3    H216855   4.830   5.327   4.137
 5638TIP3   OH216856   5.700   3.073   6.231
 5638TIP3    H116857   5.712   3.138   6.300
 5638TIP3    H216858   5.674   2.993   6.276
 5639TIP3   OH216859   7.584   3.105   0.243
 5639TIP3    H116860   7.537   3.068   0.169
 5639TIP3    H216861   7.570   3.042   0.314
 5640TIP3   OH216862   1.432   3.629   2.072
 5640TIP3    H116863   1.416   3.721   2.094
 5640TIP3    H216864   1.418   3.624   1.977
 5641TIP3   OH216865   0.295   2.892   6.166
 5641TIP3    H116866   0.367   2.953   6.177
 5641TIP3    H216867   0.336   2.810   6.138
 5642TIP3   OH216868   4.215   4.874   0.805
 5642TIP3    H116869   4.153   4.823   0.753
 5642TIP3    H216870   4.173   4.959   0.817
 5643TIP3   OH216871   1.771   7.189   2.964
 5643TIP3    H116872   1.724   7.209   2.883
 5643TIP3    H216873   1.831   7.262   2.976
 5644TIP3   OH216874   3.683   4.009   5.244
 5644TIP3    H116875   3.738   3.932   5.236
 5644TIP3    H216876   3.601   3.977   5.282
 5645TIP3   OH216877   6.229   7.751   2.625
 5645TIP3    H116878   6.150   7.794   2.659
 5645TIP3    H216879   6.248   7.682   2.689
 5646TIP3   OH216880   2.927   4.666   3.530
 5646TIP3    H116881   2.975   4.714   3.598
 5646TIP3    H216882   2.891   4.590   3.576
 5647TIP3   OH216883   1.582   7.557   4.310
 5647TIP3    H116884   1.663   7.526   4.271
 5647TIP3    H216885   1.540   7.610   4.242
 5648TIP3   OH216886   7.773   4.338   6.214
 5648TIP3    H116887   7.775   4.278   6.288
 5648TIP3    H216888   7.680   4.362   6.205
 5649TIP3   OH216889   4.288   6.785   2.452
 5649TIP3    H116890   4.250   6.825   2.374
 5649TIP3    H216891   4.289   6.691   2.433
 5650TIP3   OH216892   4.267   2.098   2.922
 5650TIP3    H116893   4.246   2.185   2.888
 5650TIP3    H216894   4.347   2.110   2.972
 5651TIP3   OH216895   4.459   0.068   5.813
 5651TIP3    H116896   4.428  -0.006   5.866
 5651TIP3    H216897   4.550   0.047   5.794
 5652TIP3   OH216898   1.809   7.772   4.578
 5652TIP3    H116899   1.747   7.838   4.608
 5652TIP3    H216900   1.758   7.691   4.574
 5653TIP3   OH216901   4.642   3.706   5.381
 5653TIP3    H116902   4.620   3.641   5.448
 5653TIP3    H216903   4.738   3.705   5.377
 5654TIP3   OH216904   1.625   3.901   2.027
 5654TIP3    H116905   1.710   3.946   2.032
 5654TIP3    H216906   1.598   3.913   1.936
 5655TIP3   OH216907   0.115   2.295   4.456
 5655TIP3    H116908   0.179   2.346   4.505
 5655TIP3    H216909   0.120   2.207   4.494
 5656TIP3   OH216910   8.064   2.415   3.029
 5656TIP3    H116911   8.093   2.374   3.111
 5656TIP3    H216912   8.060   2.342   2.967
 5657TIP3   OH216913   0.958   6.423   3.490
 5657TIP3    H116914   0.975   6.514   3.467
 5657TIP3    H216915   0.863   6.419   3.502
 5658TIP3   OH216916   0.319   3.167   0.026
 5658TIP3    H116917   0.300   3.225   0.100
 5658TIP3    H216918   0.319   3.224  -0.051
 5659TIP3   OH216919   7.089   6.325   6.497
 5659TIP3    H116920   7.097   6.380   6.419
 5659TIP3    H216921   7.023   6.259   6.473
 5660TIP3   OH216922   8.296   5.093   5.430
 5660TIP3    H116923   8.335   5.160   5.373
 5660TIP3    H216924   8.216   5.133   5.463
 5661TIP3   OH216925   0.170   4.047   2.339
 5661TIP3    H116926   0.080   4.014   2.341
 5661TIP3    H216927   0.221   3.980   2.385
 5662TIP3   OH216928   7.043   4.629   1.452
 5662TIP3    H116929   7.056   4.534   1.450
 5662TIP3    H216930   7.126   4.665   1.418
 5663TIP3   OH216931   5.290   1.687   3.696
 5663TIP3    H116932   5.378   1.683   3.658
 5663TIP3    H216933   5.296   1.635   3.776
 5664TIP3   OH216934   3.681   6.064   6.760
 5664TIP3    H116935   3.626   6.122   6.707
 5664TIP3    H216936   3.627   5.987   6.777
 5665TIP3   OH216937   6.928   4.199   4.405
 5665TIP3    H116938   6.880   4.244   4.336
 5665TIP3    H216939   6.939   4.265   4.473
 5666TIP3   OH216940   4.328   0.082   2.752
 5666TIP3    H116941   4.326   0.153   2.688
 5666TIP3    H216942   4.275   0.013   2.713
 5667TIP3   OH216943   0.748   3.833   6.491
 5667TIP3    H116944   0.673   3.814   6.435
 5667TIP3    H216945   0.824   3.806   6.439
 5668TIP3   OH216946   7.726   3.484   1.177
 5668TIP3    H116947   7.755   3.468   1.266
 5668TIP3    H216948   7.637   3.449   1.173
 5669TIP3   OH216949   3.463   5.713   5.336
 5669TIP3    H116950   3.490   5.800   5.366
 5669TIP3    H216951   3.374   5.724   5.303
 5670TIP3   OH216952   7.434   1.992   0.115
 5670TIP3    H116953   7.439   2.048   0.038
 5670TIP3    H216954   7.447   2.052   0.189
 5671TIP3   OH216955   2.462   6.095   3.081
 5671TIP3    H116956   2.384   6.148   3.097
 5671TIP3    H216957   2.490   6.119   2.992
 5672TIP3   OH216958   5.120   6.960   4.920
 5672TIP3    H116959   5.132   6.870   4.890
 5672TIP3    H216960   5.090   7.008   4.842
 5673TIP3   OH216961   1.361   0.129   2.403
 5673TIP3    H116962   1.266   0.127   2.410
 5673TIP3    H216963   1.378   0.191   2.331
 5674TIP3   OH216964   2.575   5.574   2.607
 5674TIP3    H116965   2.513   5.608   2.671
 5674TIP3    H216966   2.544   5.485   2.589
 5675TIP3   OH216967   5.370   5.903   0.346
 5675TIP3    H116968   5.457   5.936   0.324
 5675TIP3    H216969   5.316   5.982   0.352
 5676TIP3   OH216970   8.072   4.264   2.425
 5676TIP3    H116971   8.012   4.244   2.353
 5676TIP3    H216972   8.067   4.187   2.482
 5677TIP3   OH216973   3.028   1.750   0.989
 5677TIP3    H116974   3.110   1.733   0.942
 5677TIP3    H216975   2.961   1.750   0.921
 5678TIP3   OH216976   4.703   2.895   2.667
 5678TIP3    H116977   4.702   2.809   2.625
 5678TIP3    H216978   4.627   2.894   2.726
 5679TIP3   OH216979   1.918   2.657   0.473
 5679TIP3    H116980   1.970   2.601   0.415
 5679TIP3    H216981   1.828   2.628   0.461
 5680TIP3   OH216982   2.644   2.276   4.039
 5680TIP3    H116983   2.549   2.269   4.042
 5680TIP3    H216984   2.662   2.369   4.031
 5681TIP3   OH216985   1.234   4.545   4.149
 5681TIP3    H116986   1.150   4.558   4.193
 5681TIP3    H216987   1.267   4.462   4.184
 5682TIP3   OH216988   3.841   7.625   0.254
 5682TIP3    H116989   3.918   7.671   0.219
 5682TIP3    H216990   3.864   7.610   0.346
 5683TIP3   OH216991   0.385   6.201   3.902
 5683TIP3    H116992   0.379   6.140   3.976
 5683TIP3    H216993   0.351   6.283   3.937
 5684TIP3   OH216994   2.840   3.475   5.060
 5684TIP3    H116995   2.873   3.564   5.053
 5684TIP3    H216996   2.906   3.428   5.110
 5685TIP3   OH216997   1.371   6.388   2.650
 5685TIP3    H116998   1.378   6.294   2.634
 5685TIP3    H216999   1.459   6.414   2.679
 5686TIP3   OH217000   1.480   6.487   3.758
 5686TIP3    H117001   1.385   6.481   3.757
 5686TIP3    H217002   1.505   6.473   3.850
 5687TIP3   OH217003   0.182   0.056   0.893
 5687TIP3    H117004   0.222   0.141   0.873
 5687TIP3    H217005   0.257  -0.001   0.912
 5688TIP3   OH217006   1.678   0.702   1.521
 5688TIP3    H117007   1.709   0.742   1.440
 5688TIP3    H217008   1.656   0.612   1.497
 5689TIP3   OH217009   5.752   5.662   1.808
 5689TIP3    H117010   5.757   5.751   1.842
 5689TIP3    H217011   5.825   5.616   1.850
 5690TIP3   OH217012   0.678   1.164   2.829
 5690TIP3    H117013   0.686   1.069   2.824
 5690TIP3    H217014   0.590   1.182   2.794
 5691TIP3   OH217015   2.064   7.286   0.671
 5691TIP3    H117016   2.144   7.233   0.670
 5691TIP3    H217017   2.073   7.341   0.749
 5692TIP3   OH217018   1.967   0.687   0.445
 5692TIP3    H117019   1.910   0.674   0.520
 5692TIP3    H217020   1.958   0.780   0.424
 5693TIP3   OH217021   6.872   2.013   0.199
 5693TIP3    H117022   6.823   1.935   0.225
 5693TIP3    H217023   6.937   1.981   0.136
 5694TIP3   OH217024   4.947   0.279   0.614
 5694TIP3    H117025   4.928   0.186   0.616
 5694TIP3    H217026   4.863   0.322   0.628
 5695TIP3   OH217027   5.351   2.644   2.275
 5695TIP3    H117028   5.350   2.563   2.326
 5695TIP3    H217029   5.402   2.705   2.328
 5696TIP3   OH217030   0.349   3.639   4.867
 5696TIP3    H117031   0.430   3.628   4.818
 5696TIP3    H217032   0.374   3.630   4.959
 5697TIP3   OH217033   7.345   4.918   3.996
 5697TIP3    H117034   7.265   4.896   3.948
 5697TIP3    H217035   7.314   4.943   4.083
 5698TIP3   OH217036   7.640   0.112   1.512
 5698TIP3    H117037   7.568   0.048   1.513
 5698TIP3    H217038   7.634   0.153   1.426
 5699TIP3   OH217039   6.876   0.660   6.489
 5699TIP3    H117040   6.824   0.720   6.542
 5699TIP3    H217041   6.953   0.712   6.463
 5700TIP3   OH217042   6.972   2.266   2.230
 5700TIP3    H117043   7.003   2.226   2.311
 5700TIP3    H217044   7.004   2.356   2.234
 5701TIP3   OH217045   3.263   4.379   2.765
 5701TIP3    H117046   3.304   4.458   2.800
 5701TIP3    H217047   3.277   4.313   2.833
 5702TIP3   OH217048   5.351   1.317   2.390
 5702TIP3    H117049   5.262   1.334   2.420
 5702TIP3    H217050   5.351   1.225   2.364
 5703TIP3   OH217051   6.085   5.270   0.625
 5703TIP3    H117052   6.080   5.303   0.535
 5703TIP3    H217053   6.084   5.349   0.679
 5704TIP3   OH217054   7.659   3.762   0.266
 5704TIP3    H117055   7.586   3.819   0.239
 5704TIP3    H217056   7.637   3.676   0.231
 5705TIP3   OH217057   1.979   3.634   5.171
 5705TIP3    H117058   1.965   3.728   5.172
 5705TIP3    H217059   1.937   3.602   5.252
 5706TIP3   OH217060   6.442   4.387   2.441
 5706TIP3    H117061   6.386   4.426   2.509
 5706TIP3    H217062   6.481   4.462   2.397
 5707TIP3   OH217063   3.988   5.375   4.871
 5707TIP3    H117064   3.949   5.288   4.880
 5707TIP3    H217065   3.926   5.434   4.913
 5708TIP3   OH217066   3.357   6.965   4.156
 5708TIP3    H117067   3.370   6.980   4.249
 5708TIP3    H217068   3.385   6.874   4.143
 5709TIP3   OH217069   5.557   4.100   6.405
 5709TIP3    H117070   5.630   4.117   6.464
 5709TIP3    H217071   5.598   4.066   6.325
 5710TIP3   OH217072   6.864   4.678   0.977
 5710TIP3    H117073   6.914   4.756   1.000
 5710TIP3    H217074   6.884   4.616   1.047
 5711TIP3   OH217075   5.024   2.382   0.563
 5711TIP3    H117076   4.952   2.351   0.509
 5711TIP3    H217077   5.013   2.337   0.646
 5712TIP3   OH217078   3.444   5.135   1.309
 5712TIP3    H117079   3.437   5.196   1.235
 5712TIP3    H217080   3.355   5.129   1.343
 5713TIP3   OH217081   4.387   1.361   6.495
 5713TIP3    H117082   4.466   1.371   6.548
 5713TIP3    H217083   4.361   1.269   6.507
 5714TIP3   OH217084   0.901   4.154   5.927
 5714TIP3    H117085   0.928   4.227   5.873
 5714TIP3    H217086   0.814   4.178   5.959
 5715TIP3   OH217087   6.031   4.095   3.934
 5715TIP3    H117088   6.015   4.165   3.871
 5715TIP3    H217089   6.075   4.027   3.884
 5716TIP3   OH217090   0.115   5.615   1.642
 5716TIP3    H117091   0.068   5.558   1.702
 5716TIP3    H217092   0.205   5.583   1.643
 5717TIP3   OH217093   3.729   1.363   1.874
 5717TIP3    H117094   3.684   1.307   1.811
 5717TIP3    H217095   3.697   1.333   1.959
 5718TIP3   OH217096   0.656   4.660   3.541
 5718TIP3    H117097   0.726   4.615   3.494
 5718TIP3    H217098   0.668   4.634   3.633
 5719TIP3   OH217099   1.103   3.705   2.519
 5719TIP3    H117100   1.140   3.657   2.593
 5719TIP3    H217101   1.032   3.757   2.557
 5720TIP3   OH217102   7.303   0.678   5.867
 5720TIP3    H117103   7.366   0.675   5.795
 5720TIP3    H217104   7.258   0.762   5.857
 5721TIP3   OH217105   0.648   7.664   5.232
 5721TIP3    H117106   0.574   7.606   5.254
 5721TIP3    H217107   0.705   7.659   5.309
 5722TIP3   OH217108   1.128   0.357   6.635
 5722TIP3    H117109   1.068   0.311   6.575
 5722TIP3    H217110   1.185   0.288   6.669
 5723TIP3   OH217111   5.029   3.836   5.867
 5723TIP3    H117112   5.117   3.848   5.901
 5723TIP3    H217113   5.038   3.767   5.800
 5724TIP3   OH217114   6.823   2.657   5.609
 5724TIP3    H117115   6.759   2.604   5.656
 5724TIP3    H217116   6.844   2.728   5.670
 5725TIP3   OH217117   5.724   6.519   3.434
 5725TIP3    H117118   5.803   6.472   3.408
 5725TIP3    H217119   5.739   6.609   3.406
 5726TIP3   OH217120   6.433   2.193   6.247
 5726TIP3    H117121   6.418   2.229   6.159
 5726TIP3    H217122   6.438   2.270   6.303
 5727TIP3   OH217123   5.861   5.492   2.579
 5727TIP3    H117124   5.850   5.427   2.649
 5727TIP3    H217125   5.776   5.534   2.572
 5728TIP3   OH217126   7.895   3.054   1.976
 5728TIP3    H117127   7.902   3.071   1.882
 5728TIP3    H217128   7.837   3.122   2.009
 5729TIP3   OH217129   7.009   0.846   0.477
 5729TIP3    H117130   7.089   0.880   0.438
 5729TIP3    H217131   7.039   0.795   0.552
 5730TIP3   OH217132   4.440   0.291   4.785
 5730TIP3    H117133   4.368   0.330   4.737
 5730TIP3    H217134   4.433   0.327   4.874
 5731TIP3   OH217135   0.265   1.547   6.453
 5731TIP3    H117136   0.266   1.533   6.359
 5731TIP3    H217137   0.183   1.507   6.482
 5732TIP3   OH217138   0.573   0.817   0.083
 5732TIP3    H117139   0.533   0.900   0.109
 5732TIP3    H217140   0.503   0.753   0.088
 5733TIP3   OH217141   7.518   3.524   4.312
 5733TIP3    H117142   7.556   3.563   4.233
 5733TIP3    H217143   7.580   3.457   4.338
 5734TIP3   OH217144   4.107   3.402   3.005
 5734TIP3    H117145   4.152   3.485   2.992
 5734TIP3    H217146   4.135   3.374   3.093
 5735TIP3   OH217147   1.905   2.389   6.027
 5735TIP3    H117148   1.933   2.472   6.067
 5735TIP3    H217149   1.838   2.415   5.963
 5736TIP3   OH217150   5.767   2.633   1.331
 5736TIP3    H117151   5.747   2.723   1.353
 5736TIP3    H217152   5.726   2.581   1.400
 5737TIP3   OH217153   2.322   6.594   2.828
 5737TIP3    H117154   2.243   6.648   2.831
 5737TIP3    H217155   2.333   6.573   2.735
 5738TIP3   OH217156   2.641   2.506   3.679
 5738TIP3    H117157   2.728   2.468   3.666
 5738TIP3    H217158   2.603   2.454   3.750
 5739TIP3   OH217159   5.138   4.003   2.694
 5739TIP3    H117160   5.053   4.014   2.651
 5739TIP3    H217161   5.128   3.923   2.745
 5740TIP3   OH217162   2.257   5.459   5.980
 5740TIP3    H117163   2.286   5.383   5.928
 5740TIP3    H217164   2.214   5.516   5.917
 5741TIP3   OH217165   7.943   1.320   3.959
 5741TIP3    H117166   8.033   1.290   3.971
 5741TIP3    H217167   7.942   1.357   3.870
 5742TIP3   OH217168   3.015   7.622   3.309
 5742TIP3    H117169   2.980   7.533   3.309
 5742TIP3    H217170   3.108   7.612   3.331
 5743TIP3   OH217171   3.295   5.643   6.750
 5743TIP3    H117172   3.204   5.626   6.726
 5743TIP3    H217173   3.343   5.642   6.667
 5744TIP3   OH217174   8.182   3.797   5.397
 5744TIP3    H117175   8.221   3.778   5.312
 5744TIP3    H217176   8.149   3.886   5.389
 5745TIP3   OH217177   4.515   6.092   0.204
 5745TIP3    H117178   4.602   6.115   0.238
 5745TIP3    H217179   4.498   6.157   0.136
 5746TIP3   OH217180   6.343   1.236   5.044
 5746TIP3    H117181   6.304   1.206   5.126
 5746TIP3    H217182   6.424   1.185   5.036
 5747TIP3   OH217183   1.899   0.192   6.335
 5747TIP3    H117184   1.861   0.276   6.308
 5747TIP3    H217185   1.868   0.180   6.425
 5748TIP3   OH217186   4.876   4.057   5.031
 5748TIP3    H117187   4.877   4.136   4.977
 5748TIP3    H217188   4.935   3.997   4.987
 5749TIP3   OH217189   2.061   6.482   5.415
 5749TIP3    H117190   2.121   6.542   5.459
 5749TIP3    H217191   1.974   6.518   5.432
 5750TIP3   OH217192   2.383   2.724   1.602
 5750TIP3    H117193   2.361   2.760   1.516
 5750TIP3    H217194   2.355   2.633   1.598
 5751TIP3   OH217195   3.185   5.959   6.774
 5751TIP3    H117196   3.096   5.949   6.741
 5751TIP3    H217197   3.211   6.047   6.748
 5752TIP3   OH217198   1.758   4.494   5.550
 5752TIP3    H117199   1.692   4.538   5.497
 5752TIP3    H217200   1.708   4.446   5.616
 5753TIP3   OH217201   0.240   7.098   5.212
 5753TIP3    H117202   0.284   7.154   5.276
 5753TIP3    H217203   0.226   7.015   5.258
 5754TIP3   OH217204   1.058   3.522   2.294
 5754TIP3    H117205   1.080   3.576   2.370
 5754TIP3    H217206   0.982   3.564   2.255
 5755TIP3   OH217207   1.302   0.792   4.485
 5755TIP3    H117208   1.245   0.863   4.515
 5755TIP3    H217209   1.363   0.778   4.557
 5756TIP3   OH217210   4.008   0.460   3.649
 5756TIP3    H117211   3.929   0.452   3.595
 5756TIP3    H217212   4.013   0.376   3.695
 5757TIP3   OH217213   0.108   0.731   2.273
 5757TIP3    H117214   0.013   0.736   2.277
 5757TIP3    H217215   0.129   0.643   2.306
 5758TIP3   OH217216   2.207   7.440   2.722
 5758TIP3    H117217   2.192   7.525   2.681
 5758TIP3    H217218   2.130   7.388   2.700
 5759TIP3   OH217219   6.858   5.752   0.502
 5759TIP3    H117220   6.781   5.734   0.557
 5759TIP3    H217221   6.879   5.844   0.519
 5760TIP3   OH217222   5.102   4.826   6.023
 5760TIP3    H117223   5.073   4.768   6.094
 5760TIP3    H217224   5.021   4.859   5.984
 5761TIP3   OH217225   0.035   5.995   2.118
 5761TIP3    H117226  -0.022   5.963   2.048
 5761TIP3    H217227   0.121   5.957   2.099
 5762TIP3   OH217228   6.350   0.905   5.798
 5762TIP3    H117229   6.407   0.938   5.867
 5762TIP3    H217230   6.397   0.922   5.717
 5763TIP3   OH217231   0.316   1.946   3.282
 5763TIP3    H117232   0.274   1.864   3.309
 5763TIP3    H217233   0.354   1.926   3.196
 5764TIP3   OH217234   1.712   6.117   3.661
 5764TIP3    H117235   1.698   6.032   3.619
 5764TIP3    H217236   1.650   6.176   3.618
 5765TIP3   OH217237   5.005   1.978   2.465
 5765TIP3    H117238   4.947   1.976   2.541
 5765TIP3    H217239   4.961   2.036   2.403
 5766TIP3   OH217240   3.723   3.165   5.333
 5766TIP3    H117241   3.647   3.208   5.294
 5766TIP3    H217242   3.686   3.099   5.391
 5767TIP3   OH217243   5.572   6.641   1.376
 5767TIP3    H117244   5.546   6.551   1.397
 5767TIP3    H217245   5.613   6.635   1.290
 5768TIP3   OH217246   2.359   2.739   6.561
 5768TIP3    H117247   2.431   2.679   6.584
 5768TIP3    H217248   2.386   2.823   6.597
 5769TIP3   OH217249   1.871   4.132   3.792
 5769TIP3    H117250   1.815   4.205   3.764
 5769TIP3    H217251   1.882   4.146   3.886
 5770TIP3   OH217252   2.232   4.130   3.132
 5770TIP3    H117253   2.168   4.199   3.112
 5770TIP3    H217254   2.222   4.115   3.226
 5771TIP3   OH217255   3.582   3.068   2.244
 5771TIP3    H117256   3.512   3.126   2.215
 5771TIP3    H217257   3.635   3.121   2.302
 5772TIP3   OH217258   1.317   7.736   0.647
 5772TIP3    H117259   1.330   7.831   0.656
 5772TIP3    H217260   1.224   7.726   0.627
 5773TIP3   OH217261   3.876   3.966   3.217
 5773TIP3    H117262   3.790   4.003   3.194
 5773TIP3    H217263   3.867   3.938   3.308
 5774TIP3   OH217264   5.348   0.134   0.071
 5774TIP3    H117265   5.415   0.120   0.005
 5774TIP3    H217266   5.310   0.220   0.050
 5775TIP3   OH217267   5.503   2.851   3.999
 5775TIP3    H117268   5.511   2.809   3.913
 5775TIP3    H217269   5.564   2.925   3.995
 5776TIP3   OH217270   0.237   0.606   2.664
 5776TIP3    H117271   0.160   0.599   2.720
 5776TIP3    H217272   0.203   0.596   2.575
 5777TIP3   OH217273   2.458   4.785   3.981
 5777TIP3    H117274   2.540   4.759   4.024
 5777TIP3    H217275   2.481   4.795   3.889
 5778TIP3   OH217276   2.984   2.518   5.546
 5778TIP3    H117277   2.912   2.479   5.596
 5778TIP3    H217278   2.955   2.513   5.455
 5779TIP3   OH217279   0.126   7.685   3.814
 5779TIP3    H117280   0.164   7.687   3.901
 5779TIP3    H217281   0.052   7.624   3.822
 5780TIP3   OH217282   6.233   0.778   2.586
 5780TIP3    H117283   6.227   0.851   2.524
 5780TIP3    H217284   6.319   0.740   2.569
 5781TIP3   OH217285   4.973   5.968   2.874
 5781TIP3    H117286   5.021   5.890   2.847
 5781TIP3    H217287   4.929   5.942   2.955
 5782TIP3   OH217288   4.840   7.479   6.513
 5782TIP3    H117289   4.859   7.559   6.562
 5782TIP3    H217290   4.747   7.485   6.493
 5783TIP3   OH217291   6.601   2.066   1.973
 5783TIP3    H117292   6.515   2.035   2.000
 5783TIP3    H217293   6.632   2.118   2.048
 5784TIP3   OH217294   5.516   2.464   0.231
 5784TIP3    H117295   5.457   2.390   0.218
 5784TIP3    H217296   5.515   2.511   0.147
 5785TIP3   OH217297   2.888   6.328   2.339
 5785TIP3    H117298   2.896   6.291   2.251
 5785TIP3    H217299   2.794   6.331   2.355
 5786TIP3   OH217300   7.122   6.621   5.529
 5786TIP3    H117301   7.092   6.530   5.538
 5786TIP3    H217302   7.160   6.625   5.442
 5787TIP3   OH217303   3.477   6.070   2.633
 5787TIP3    H117304   3.388   6.079   2.666
 5787TIP3    H217305   3.485   6.140   2.568
 5788TIP3   OH217306   4.940   6.179   1.130
 5788TIP3    H117307   5.017   6.230   1.104
 5788TIP3    H217308   4.971   6.088   1.128
 5789TIP3   OH217309   8.254   7.307   3.516
 5789TIP3    H117310   8.244   7.394   3.478
 5789TIP3    H217311   8.345   7.284   3.498
 5790TIP3   OH217312   3.555   2.853   4.238
 5790TIP3    H117313   3.465   2.834   4.264
 5790TIP3    H217314   3.587   2.912   4.306
 5791TIP3   OH217315   6.597   2.344   3.437
 5791TIP3    H117316   6.643   2.295   3.369
 5791TIP3    H217317   6.665   2.391   3.485
 5792TIP3   OH217318   7.435   3.501   1.098
 5792TIP3    H117319   7.362   3.559   1.079
 5792TIP3    H217320   7.504   3.528   1.037
 5793TIP3   OH217321   3.196   4.971   2.111
 5793TIP3    H117322   3.117   4.922   2.089
 5793TIP3    H217323   3.242   4.982   2.028
 5794TIP3   OH217324   5.764   0.500   6.569
 5794TIP3    H117325   5.758   0.528   6.660
 5794TIP3    H217326   5.853   0.466   6.560
 5795TIP3   OH217327   3.311   0.926   3.559
 5795TIP3    H117328   3.296   0.859   3.492
 5795TIP3    H217329   3.245   0.993   3.541
 5796TIP3   OH217330   0.721   5.601   4.663
 5796TIP3    H117331   0.664   5.526   4.647
 5796TIP3    H217332   0.682   5.672   4.611
 5797TIP3   OH217333   4.981   4.115   1.296
 5797TIP3    H117334   5.073   4.128   1.318
 5797TIP3    H217335   4.967   4.170   1.218
 5798TIP3   OH217336   6.478   4.124   4.153
 5798TIP3    H117337   6.454   4.171   4.074
 5798TIP3    H217338   6.461   4.186   4.224
 5799TIP3   OH217339   0.660   0.229   4.609
 5799TIP3    H117340   0.677   0.234   4.703
 5799TIP3    H217341   0.725   0.167   4.576
 5800TIP3   OH217342   6.491   2.985   0.124
 5800TIP3    H117343   6.580   3.009   0.101
 5800TIP3    H217344   6.496   2.892   0.147
 5801TIP3   OH217345   2.625   0.102   3.249
 5801TIP3    H117346   2.564   0.055   3.306
 5801TIP3    H217347   2.572   0.171   3.209
 5802TIP3   OH217348   2.389   0.532   2.413
 5802TIP3    H117349   2.329   0.482   2.469
 5802TIP3    H217350   2.344   0.615   2.399
 5803TIP3   OH217351   5.024   3.938   1.523
 5803TIP3    H117352   4.963   4.002   1.485
 5803TIP3    H217353   5.111   3.970   1.499
 5804TIP3   OH217354   7.025   7.298   2.553
 5804TIP3    H117355   7.108   7.340   2.578
 5804TIP3    H217356   6.978   7.366   2.504
 5805TIP3   OH217357   3.410   2.412   3.087
 5805TIP3    H117358   3.448   2.413   2.999
 5805TIP3    H217359   3.480   2.380   3.143
 5806TIP3   OH217360   1.488   1.919   2.663
 5806TIP3    H117361   1.544   1.991   2.633
 5806TIP3    H217362   1.495   1.853   2.593
 5807TIP3   OH217363   6.213   3.498   5.416
 5807TIP3    H117364   6.297   3.466   5.448
 5807TIP3    H217365   6.166   3.419   5.389
 5808TIP3   OH217366   8.181   3.590   5.562
 5808TIP3    H117367   8.129   3.633   5.630
 5808TIP3    H217368   8.181   3.652   5.489
 5809TIP3   OH217369   2.335   2.139   2.634
 5809TIP3    H117370   2.426   2.161   2.655
 5809TIP3    H217371   2.318   2.185   2.552
 5810TIP3   OH217372   2.297   1.224   4.610
 5810TIP3    H117373   2.336   1.211   4.523
 5810TIP3    H217374   2.290   1.136   4.646
 5811TIP3   OH217375   6.348   7.111   1.272
 5811TIP3    H117376   6.439   7.124   1.244
 5811TIP3    H217377   6.295   7.139   1.197
 5812TIP3   OH217378   3.214   2.784   3.184
 5812TIP3    H117379   3.234   2.868   3.224
 5812TIP3    H217380   3.204   2.724   3.258
 5813TIP3   OH217381   5.284   2.942   3.770
 5813TIP3    H117382   5.311   2.850   3.762
 5813TIP3    H217383   5.202   2.939   3.819
 5814TIP3   OH217384   4.174   7.357   0.973
 5814TIP3    H117385   4.189   7.313   0.889
 5814TIP3    H217386   4.089   7.324   1.002
 5815TIP3   OH217387   3.747   0.935   0.366
 5815TIP3    H117388   3.666   0.910   0.412
 5815TIP3    H217389   3.774   1.017   0.407
 5816TIP3   OH217390   0.373   5.812   2.421
 5816TIP3    H117391   0.452   5.777   2.379
 5816TIP3    H217392   0.403   5.845   2.505
 5817TIP3   OH217393   5.599   6.062   2.144
 5817TIP3    H117394   5.546   5.991   2.107
 5817TIP3    H217395   5.641   6.101   2.068
 5818TIP3   OH217396   0.000   0.051   5.318
 5818TIP3    H117397   0.008   0.088   5.230
 5818TIP3    H217398   0.013  -0.043   5.305
 5819TIP3   OH217399   1.268   1.443   0.313
 5819TIP3    H117400   1.195   1.503   0.330
 5819TIP3    H217401   1.345   1.489   0.345
 5820TIP3   OH217402   4.024   1.129   6.748
 5820TIP3    H117403   3.958   1.166   6.807
 5820TIP3    H217404   4.091   1.094   6.807
 5821TIP3   OH217405   1.931   1.843   1.405
 5821TIP3    H117406   1.975   1.829   1.489
 5821TIP3    H217407   1.965   1.927   1.374
 5822TIP3   OH217408   6.371   0.129   4.714
 5822TIP3    H117409   6.379   0.043   4.754
 5822TIP3    H217410   6.404   0.190   4.781
 5823TIP3   OH217411   5.674   4.742   6.436
 5823TIP3    H117412   5.580   4.759   6.428
 5823TIP3    H217413   5.680   4.660   6.484
 5824TIP3   OH217414   0.402   6.589   1.407
 5824TIP3    H117415   0.336   6.655   1.385
 5824TIP3    H217416   0.446   6.571   1.325
 5825TIP3   OH217417   1.361   4.326   0.318
 5825TIP3    H117418   1.452   4.318   0.345
 5825TIP3    H217419   1.331   4.406   0.361
 5826TIP3   OH217420   3.523   3.874   1.727
 5826TIP3    H117421   3.466   3.868   1.804
 5826TIP3    H217422   3.600   3.822   1.750
 5827TIP3   OH217423   0.443   7.449   0.658
 5827TIP3    H117424   0.489   7.384   0.712
 5827TIP3    H217425   0.422   7.403   0.577
 5828TIP3   OH217426   4.416   1.229   1.642
 5828TIP3    H117427   4.382   1.218   1.731
 5828TIP3    H217428   4.378   1.312   1.612
 5829TIP3   OH217429   1.140   2.469   0.109
 5829TIP3    H117430   1.047   2.449   0.122
 5829TIP3    H217431   1.144   2.565   0.114
 5830TIP3   OH217432   7.847   1.312   5.426
 5830TIP3    H117433   7.909   1.251   5.388
 5830TIP3    H217434   7.863   1.395   5.380
 5831TIP3   OH217435   6.682   1.922   2.469
 5831TIP3    H117436   6.720   1.872   2.397
 5831TIP3    H217437   6.743   1.995   2.482
 5832TIP3   OH217438   6.945   5.762   4.402
 5832TIP3    H117439   6.937   5.667   4.396
 5832TIP3    H217440   6.903   5.795   4.322
 5833TIP3   OH217441   4.951   6.035   0.458
 5833TIP3    H117442   5.039   6.069   0.475
 5833TIP3    H217443   4.899   6.064   0.533
 5834TIP3   OH217444   7.866   7.049   4.343
 5834TIP3    H117445   7.953   7.008   4.344
 5834TIP3    H217446   7.810   6.985   4.298
 5835TIP3   OH217447   6.666   5.777   5.771
 5835TIP3    H117448   6.755   5.811   5.765
 5835TIP3    H217449   6.628   5.824   5.846
 5836TIP3   OH217450   0.438   2.300   1.635
 5836TIP3    H117451   0.441   2.236   1.706
 5836TIP3    H217452   0.528   2.331   1.627
 5837TIP3   OH217453   5.028   1.773   3.466
 5837TIP3    H117454   4.941   1.809   3.448
 5837TIP3    H217455   5.012   1.686   3.502
 5838TIP3   OH217456   5.391   1.328   2.021
 5838TIP3    H117457   5.354   1.309   1.935
 5838TIP3    H217458   5.460   1.262   2.032
 5839TIP3   OH217459   5.515   7.766   4.119
 5839TIP3    H117460   5.479   7.795   4.036
 5839TIP3    H217461   5.555   7.845   4.157
 5840TIP3   OH217462   7.672   0.186   3.648
 5840TIP3    H117463   7.711   0.127   3.713
 5840TIP3    H217464   7.642   0.128   3.578
 5841TIP3   OH217465   7.553   6.936   1.018
 5841TIP3    H117466   7.509   6.881   0.954
 5841TIP3    H217467   7.485   6.995   1.050
 5842TIP3   OH217468   2.481   2.469   2.148
 5842TIP3    H117469   2.400   2.471   2.098
 5842TIP3    H217470   2.495   2.559   2.176
 5843TIP3   OH217471   4.409   7.179   5.464
 5843TIP3    H117472   4.352   7.102   5.459
 5843TIP3    H217473   4.360   7.241   5.518
 5844TIP3   OH217474   7.646   3.757   6.133
 5844TIP3    H117475   7.702   3.795   6.201
 5844TIP3    H217476   7.565   3.809   6.137
 5845TIP3   OH217477   0.884   1.514   5.447
 5845TIP3    H117478   0.838   1.521   5.531
 5845TIP3    H217479   0.896   1.605   5.420
 5846TIP3   OH217480   6.800   7.300   6.687
 5846TIP3    H117481   6.845   7.258   6.613
 5846TIP3    H217482   6.708   7.297   6.664
 5847TIP3   OH217483   7.345   1.770   0.251
 5847TIP3    H117484   7.384   1.858   0.249
 5847TIP3    H217485   7.418   1.712   0.270
 5848TIP3   OH217486   5.157   4.749   2.718
 5848TIP3    H117487   5.189   4.662   2.695
 5848TIP3    H217488   5.062   4.741   2.716
 5849TIP3   OH217489   0.017   1.439   5.401
 5849TIP3    H117490  -0.056   1.485   5.443
 5849TIP3    H217491   0.080   1.425   5.472
 5850TIP3   OH217492   1.497   1.148   6.734
 5850TIP3    H117493   1.406   1.144   6.706
 5850TIP3    H217494   1.493   1.183   6.823
 5851TIP3   OH217495   5.623   7.636   0.655
 5851TIP3    H117496   5.570   7.696   0.707
 5851TIP3    H217497   5.643   7.564   0.715
 5852TIP3   OH217498   5.503   2.329   1.733
 5852TIP3    H117499   5.517   2.356   1.642
 5852TIP3    H217500   5.426   2.380   1.761
 5853TIP3   OH217501   1.068   1.855   5.608
 5853TIP3    H117502   1.149   1.896   5.579
 5853TIP3    H217503   1.042   1.905   5.686
 5854TIP3   OH217504   0.654   5.975   2.045
 5854TIP3    H117505   0.740   6.009   2.023
 5854TIP3    H217506   0.664   5.879   2.044
 5855TIP3   OH217507   3.260   0.159   0.236
 5855TIP3    H117508   3.315   0.222   0.192
 5855TIP3    H217509   3.235   0.202   0.318
 5856TIP3   OH217510   3.297   4.541   2.485
 5856TIP3    H117511   3.210   4.543   2.526
 5856TIP3    H217512   3.346   4.476   2.537
 5857TIP3   OH217513   5.422   0.065   5.179
 5857TIP3    H117514   5.444   0.088   5.269
 5857TIP3    H217515   5.349   0.004   5.187
 5858TIP3   OH217516   4.100   7.454   3.459
 5858TIP3    H117517   4.179   7.401   3.474
 5858TIP3    H217518   4.035   7.414   3.517
 5859TIP3   OH217519   4.081   4.875   5.339
 5859TIP3    H117520   4.125   4.815   5.400
 5859TIP3    H217521   4.140   4.950   5.333
 5860TIP3   OH217522   4.095   5.956   0.007
 5860TIP3    H117523   4.148   5.885  -0.029
 5860TIP3    H217524   4.005   5.928  -0.008
 5861TIP3   OH217525   1.861   3.141   5.375
 5861TIP3    H117526   1.879   3.204   5.306
 5861TIP3    H217527   1.783   3.175   5.419
 5862TIP3   OH217528   1.686   5.378   2.530
 5862TIP3    H117529   1.701   5.469   2.555
 5862TIP3    H217530   1.702   5.328   2.610
 5863TIP3   OH217531   6.275   4.340   6.224
 5863TIP3    H117532   6.256   4.352   6.317
 5863TIP3    H217533   6.203   4.384   6.179
 5864TIP3   OH217534   2.876   6.227   1.615
 5864TIP3    H117535   2.841   6.270   1.693
 5864TIP3    H217536   2.930   6.293   1.573
 5865TIP3   OH217537   5.768   2.374   1.789
 5865TIP3    H117538   5.673   2.363   1.780
 5865TIP3    H217539   5.805   2.298   1.744
 5866TIP3   OH217540   4.447   1.664   5.261
 5866TIP3    H117541   4.509   1.592   5.249
 5866TIP3    H217542   4.496   1.731   5.309
 5867TIP3   OH217543   1.905   1.834   4.495
 5867TIP3    H117544   1.949   1.845   4.410
 5867TIP3    H217545   1.831   1.895   4.491
 5868TIP3   OH217546   6.419   5.825   5.313
 5868TIP3    H117547   6.347   5.765   5.331
 5868TIP3    H217548   6.458   5.843   5.398
 5869TIP3   OH217549   1.485   5.638   2.455
 5869TIP3    H117550   1.528   5.695   2.391
 5869TIP3    H217551   1.554   5.619   2.519
 5870TIP3   OH217552   5.640   3.455   3.118
 5870TIP3    H117553   5.590   3.391   3.169
 5870TIP3    H217554   5.583   3.532   3.114
 5871TIP3   OH217555   7.199   0.570   5.386
 5871TIP3    H117556   7.291   0.583   5.408
 5871TIP3    H217557   7.177   0.646   5.331
 5872TIP3   OH217558   7.577   5.132   2.927
 5872TIP3    H117559   7.544   5.056   2.878
 5872TIP3    H217560   7.651   5.163   2.875
 5873TIP3   OH217561   6.022   3.778   1.043
 5873TIP3    H117562   6.108   3.819   1.029
 5873TIP3    H217563   5.982   3.830   1.112
 5874TIP3   OH217564   0.971   4.637   5.539
 5874TIP3    H117565   1.019   4.564   5.498
 5874TIP3    H217566   0.992   4.630   5.632
 5875TIP3   OH217567   4.331   6.491   5.974
 5875TIP3    H117568   4.315   6.553   5.903
 5875TIP3    H217569   4.426   6.489   5.984
 5876TIP3   OH217570   1.676   0.070   1.854
 5876TIP3    H117571   1.638   0.145   1.808
 5876TIP3    H217572   1.690   0.101   1.943
 5877TIP3   OH217573   2.467   4.178   1.928
 5877TIP3    H117574   2.382   4.189   1.971
 5877TIP3    H217575   2.491   4.087   1.946
 5878TIP3   OH217576   4.824   6.607   4.739
 5878TIP3    H117577   4.871   6.602   4.655
 5878TIP3    H217578   4.735   6.580   4.718
 5879TIP3   OH217579   0.190   0.681   3.595
 5879TIP3    H117580   0.197   0.687   3.690
 5879TIP3    H217581   0.096   0.682   3.577
 5880TIP3   OH217582   4.132   4.801   2.421
 5880TIP3    H117583   4.135   4.827   2.513
 5880TIP3    H217584   4.203   4.851   2.379
 5881TIP3   OH217585   2.320   6.642   0.057
 5881TIP3    H117586   2.346   6.731   0.079
 5881TIP3    H217587   2.335   6.592   0.137
 5882TIP3   OH217588   4.648   0.447   3.323
 5882TIP3    H117589   4.565   0.414   3.356
 5882TIP3    H217590   4.645   0.432   3.229
 5883TIP3   OH217591   5.069   1.028   4.150
 5883TIP3    H117592   5.159   1.008   4.126
 5883TIP3    H217593   5.076   1.102   4.210
 5884TIP3   OH217594   6.243   6.199   3.372
 5884TIP3    H117595   6.237   6.152   3.288
 5884TIP3    H217596   6.283   6.283   3.349
 5885TIP3   OH217597   5.978   3.301   0.976
 5885TIP3    H117598   5.913   3.371   0.971
 5885TIP3    H217599   6.036   3.327   1.048
 5886TIP3   OH217600   1.764   0.082   5.845
 5886TIP3    H117601   1.671   0.064   5.828
 5886TIP3    H217602   1.811   0.034   5.776
 5887TIP3   OH217603   1.345   3.906   3.932
 5887TIP3    H117604   1.359   3.811   3.940
 5887TIP3    H217605   1.415   3.936   3.875
 5888TIP3   OH217606   0.182   3.381   3.298
 5888TIP3    H117607   0.192   3.316   3.228
 5888TIP3    H217608   0.122   3.340   3.360
 5889TIP3   OH217609   3.496   0.777   1.373
 5889TIP3    H117610   3.554   0.846   1.404
 5889TIP3    H217611   3.532   0.697   1.411
 5890TIP3   OH217612   5.196   5.699   4.549
 5890TIP3    H117613   5.285   5.727   4.527
 5890TIP3    H217614   5.185   5.617   4.500
 5891TIP3   OH217615   7.988   5.058   1.697
 5891TIP3    H117616   8.063   5.098   1.741
 5891TIP3    H217617   7.915   5.119   1.716
 5892TIP3   OH217618   7.910   6.387   4.078
 5892TIP3    H117619   7.898   6.340   4.161
 5892TIP3    H217620   7.974   6.333   4.031
 5893TIP3   OH217621   0.277   5.699   3.512
 5893TIP3    H117622   0.215   5.748   3.458
 5893TIP3    H217623   0.310   5.630   3.455
 5894TIP3   OH217624   6.325   4.868   6.523
 5894TIP3    H117625   6.291   4.874   6.433
 5894TIP3    H217626   6.271   4.800   6.564
 5895TIP3   OH217627   1.698   3.646   4.372
 5895TIP3    H117628   1.793   3.661   4.369
 5895TIP3    H217629   1.676   3.654   4.465
 5896TIP3   OH217630   4.701   1.423   1.337
 5896TIP3    H117631   4.765   1.494   1.332
 5896TIP3    H217632   4.617   1.467   1.349
 5897TIP3   OH217633   8.257   2.715   3.746
 5897TIP3    H117634   8.222   2.782   3.805
 5897TIP3    H217635   8.328   2.760   3.700
 5898TIP3   OH217636   6.308   4.707   0.708
 5898TIP3    H117637   6.335   4.618   0.728
 5898TIP3    H217638   6.308   4.711   0.612
 5899TIP3   OH217639   4.502   2.847   0.451
 5899TIP3    H117640   4.467   2.932   0.427
 5899TIP3    H217641   4.437   2.784   0.421
 5900TIP3   OH217642   4.326   6.161   4.777
 5900TIP3    H117643   4.290   6.230   4.833
 5900TIP3    H217644   4.276   6.083   4.799
 5901TIP3   OH217645   7.880   2.474   1.923
 5901TIP3    H117646   7.830   2.525   1.860
 5901TIP3    H217647   7.858   2.513   2.008
 5902TIP3   OH217648   3.127   6.457   5.364
 5902TIP3    H117649   3.065   6.501   5.305
 5902TIP3    H217650   3.211   6.498   5.345
 5903TIP3   OH217651   2.964   1.536   5.472
 5903TIP3    H117652   2.912   1.610   5.502
 5903TIP3    H217653   2.904   1.461   5.476
 5904TIP3   OH217654   7.868   3.137   2.987
 5904TIP3    H117655   7.931   3.184   3.042
 5904TIP3    H217656   7.920   3.106   2.913
 5905TIP3   OH217657   4.849   3.704   0.086
 5905TIP3    H117658   4.917   3.743   0.141
 5905TIP3    H217659   4.781   3.770   0.081
 5906TIP3   OH217660   1.764   1.214   0.388
 5906TIP3    H117661   1.767   1.253   0.475
 5906TIP3    H217662   1.700   1.268   0.340
 5907TIP3   OH217663   4.499   2.901   2.846
 5907TIP3    H117664   4.506   2.857   2.931
 5907TIP3    H217665   4.405   2.918   2.835
 5908TIP3   OH217666   3.048   2.784   5.577
 5908TIP3    H117667   3.006   2.699   5.566
 5908TIP3    H217668   2.989   2.832   5.635
 5909TIP3   OH217669   1.730   4.041   0.980
 5909TIP3    H117670   1.673   4.075   0.911
 5909TIP3    H217671   1.673   3.986   1.034
 5910TIP3   OH217672   0.503   7.117   3.002
 5910TIP3    H117673   0.566   7.074   2.944
 5910TIP3    H217674   0.545   7.115   3.089
 5911TIP3   OH217675   0.094   4.911   6.280
 5911TIP3    H117676   0.083   4.871   6.194
 5911TIP3    H217677   0.162   4.859   6.323
 5912TIP3   OH217678   5.810   1.261   4.231
 5912TIP3    H117679   5.870   1.193   4.260
 5912TIP3    H217680   5.753   1.216   4.168
 5913TIP3   OH217681   6.951   3.382   0.159
 5913TIP3    H117682   6.973   3.395   0.251
 5913TIP3    H217683   6.974   3.291   0.142
 5914TIP3   OH217684   0.380   6.006   3.003
 5914TIP3    H117685   0.394   6.045   2.917
 5914TIP3    H217686   0.438   6.055   3.062
 5915TIP3   OH217687   1.830   5.036   2.001
 5915TIP3    H117688   1.885   4.957   1.998
 5915TIP3    H217689   1.828   5.060   2.094
 5916TIP3   OH217690   8.255   0.590   1.751
 5916TIP3    H117691   8.304   0.666   1.718
 5916TIP3    H217692   8.186   0.576   1.685
 5917TIP3   OH217693   3.631   5.564   4.148
 5917TIP3    H117694   3.673   5.651   4.148
 5917TIP3    H217695   3.537   5.583   4.157
 5918TIP3   OH217696   3.803   0.964   0.906
 5918TIP3    H117697   3.896   0.941   0.915
 5918TIP3    H217698   3.759   0.907   0.969
 5919TIP3   OH217699   3.407   6.722   1.531
 5919TIP3    H117700   3.496   6.685   1.537
 5919TIP3    H217701   3.351   6.657   1.574
 5920TIP3   OH217702   4.954   2.512   0.882
 5920TIP3    H117703   4.937   2.591   0.932
 5920TIP3    H217704   5.045   2.520   0.854
 5921TIP3   OH217705   0.875   7.087   5.314
 5921TIP3    H117706   0.965   7.057   5.305
 5921TIP3    H217707   0.826   7.009   5.342
 5922TIP3   OH217708   5.830   1.403   3.456
 5922TIP3    H117709   5.843   1.407   3.362
 5922TIP3    H217710   5.880   1.325   3.484
 5923TIP3   OH217711   4.690   6.700   2.128
 5923TIP3    H117712   4.642   6.638   2.074
 5923TIP3    H217713   4.774   6.711   2.084
 5924TIP3   OH217714   0.982   7.462   1.858
 5924TIP3    H117715   0.915   7.500   1.801
 5924TIP3    H217716   0.994   7.373   1.824
 5925TIP3   OH217717   4.897   6.892   0.514
 5925TIP3    H117718   4.908   6.861   0.603
 5925TIP3    H217719   4.962   6.844   0.463
 5926TIP3   OH217720   6.756   6.616   4.936
 5926TIP3    H117721   6.701   6.542   4.906
 5926TIP3    H217722   6.821   6.626   4.867
 5927TIP3   OH217723   1.278   7.424   6.156
 5927TIP3    H117724   1.253   7.457   6.243
 5927TIP3    H217725   1.343   7.487   6.125
 5928TIP3   OH217726   6.037   7.507   4.812
 5928TIP3    H117727   6.060   7.513   4.905
 5928TIP3    H217728   5.973   7.436   4.808
 5929TIP3   OH217729   0.451   7.067   3.894
 5929TIP3    H117730   0.433   7.160   3.900
 5929TIP3    H217731   0.547   7.060   3.892
 5930TIP3   OH217732   8.113   3.070   3.728
 5930TIP3    H117733   8.166   3.148   3.745
 5930TIP3    H217734   8.157   3.025   3.656
 5931TIP3   OH217735   2.419   2.730   2.249
 5931TIP3    H117736   2.335   2.767   2.276
 5931TIP3    H217737   2.482   2.763   2.313
 5932TIP3   OH217738   0.135   7.639   4.357
 5932TIP3    H117739   0.175   7.647   4.444
 5932TIP3    H217740   0.100   7.550   4.355
 5933TIP3   OH217741   4.371   3.442   4.496
 5933TIP3    H117742   4.398   3.477   4.410
 5933TIP3    H217743   4.277   3.460   4.500
 5934TIP3   OH217744   4.181   3.790   6.234
 5934TIP3    H117745   4.197   3.780   6.328
 5934TIP3    H217746   4.268   3.790   6.194
 5935TIP3   OH217747   5.715   7.587   4.071
 5935TIP3    H117748   5.637   7.642   4.081
 5935TIP3    H217749   5.788   7.643   4.096
 5936TIP3   OH217750   4.077   5.070   1.645
 5936TIP3    H117751   4.101   5.129   1.716
 5936TIP3    H217752   4.012   5.011   1.684
 5937TIP3   OH217753   7.898   0.799   1.889
 5937TIP3    H117754   7.826   0.774   1.831
 5937TIP3    H217755   7.857   0.851   1.958
 5938TIP3   OH217756   5.124   7.526   6.178
 5938TIP3    H117757   5.188   7.481   6.233
 5938TIP3    H217758   5.175   7.561   6.105
 5939TIP3   OH217759   7.686   6.590   4.990
 5939TIP3    H117760   7.781   6.593   4.996
 5939TIP3    H217761   7.668   6.564   4.900
 5940TIP3   OH217762   2.039   6.282   4.828
 5940TIP3    H117763   2.030   6.198   4.875
 5940TIP3    H217764   2.133   6.302   4.834
 5941TIP3   OH217765   3.350   0.716   2.575
 5941TIP3    H117766   3.422   0.769   2.541
 5941TIP3    H217767   3.304   0.685   2.497
 5942TIP3   OH217768   5.201   2.251   0.984
 5942TIP3    H117769   5.158   2.232   1.068
 5942TIP3    H217770   5.258   2.326   1.003
 5943TIP3   OH217771   4.552   3.925   4.006
 5943TIP3    H117772   4.496   3.994   4.042
 5943TIP3    H217773   4.511   3.843   4.035
 5944TIP3   OH217774   3.396   7.503   6.742
 5944TIP3    H117775   3.355   7.478   6.825
 5944TIP3    H217776   3.334   7.565   6.703
 5945TIP3   OH217777   1.127   2.905   4.606
 5945TIP3    H117778   1.151   2.893   4.514
 5945TIP3    H217779   1.209   2.897   4.653
 5946TIP3   OH217780   8.089   5.150   5.937
 5946TIP3    H117781   8.019   5.164   6.000
 5946TIP3    H217782   8.114   5.238   5.910
 5947TIP3   OH217783   3.444   5.542   1.078
 5947TIP3    H117784   3.533   5.538   1.113
 5947TIP3    H217785   3.438   5.629   1.039
 5948TIP3   OH217786   0.867   6.970   6.626
 5948TIP3    H117787   0.843   7.057   6.658
 5948TIP3    H217788   0.936   6.942   6.686
 5949TIP3   OH217789   1.751   4.404   3.697
 5949TIP3    H117790   1.725   4.412   3.789
 5949TIP3    H217791   1.820   4.470   3.686
 5950TIP3   OH217792   7.415   1.455   2.840
 5950TIP3    H117793   7.323   1.429   2.848
 5950TIP3    H217794   7.455   1.423   2.921
 5951TIP3   OH217795   6.065   1.145   4.086
 5951TIP3    H117796   6.058   1.128   4.180
 5951TIP3    H217797   6.019   1.228   4.074
 5952TIP3   OH217798   3.148   5.786   3.555
 5952TIP3    H117799   3.169   5.743   3.472
 5952TIP3    H217800   3.216   5.852   3.567
 5953TIP3   OH217801   6.776   6.082   1.176
 5953TIP3    H117802   6.766   6.135   1.096
 5953TIP3    H217803   6.863   6.043   1.168
 5954TIP3   OH217804   6.808   1.454   6.134
 5954TIP3    H117805   6.817   1.405   6.053
 5954TIP3    H217806   6.887   1.508   6.140
 5955TIP3   OH217807   2.913   6.577   1.897
 5955TIP3    H117808   2.939   6.650   1.841
 5955TIP3    H217809   2.896   6.617   1.982
 5956TIP3   OH217810   4.609   6.484   2.468
 5956TIP3    H117811   4.565   6.469   2.384
 5956TIP3    H217812   4.683   6.423   2.468
 5957TIP3   OH217813   6.042   4.950   1.400
 5957TIP3    H117814   6.010   5.035   1.371
 5957TIP3    H217815   5.979   4.922   1.466
 5958TIP3   OH217816   7.585   3.390   6.508
 5958TIP3    H117817   7.517   3.440   6.466
 5958TIP3    H217818   7.558   3.384   6.600
 5959TIP3   OH217819   5.587   5.455   1.493
 5959TIP3    H117820   5.561   5.375   1.447
 5959TIP3    H217821   5.682   5.447   1.504
 5960TIP3   OH217822   3.463   5.522   3.900
 5960TIP3    H117823   3.371   5.504   3.919
 5960TIP3    H217824   3.491   5.447   3.848
 5961TIP3   OH217825   4.062   4.414   2.328
 5961TIP3    H117826   3.975   4.375   2.318
 5961TIP3    H217827   4.090   4.389   2.417
 5962TIP3   OH217828   4.175   7.618   6.486
 5962TIP3    H117829   4.144   7.555   6.421
 5962TIP3    H217830   4.098   7.672   6.505
 5963TIP3   OH217831   8.189   2.493   2.273
 5963TIP3    H117832   8.268   2.544   2.253
 5963TIP3    H217833   8.206   2.407   2.236
 5964TIP3   OH217834   1.998   0.159   6.682
 5964TIP3    H117835   2.094   0.159   6.690
 5964TIP3    H217836   1.975   0.252   6.675
 5965TIP3   OH217837   0.383   2.725   5.751
 5965TIP3    H117838   0.465   2.689   5.717
 5965TIP3    H217839   0.316   2.663   5.723
 5966TIP3   OH217840   0.254   4.723   2.273
 5966TIP3    H117841   0.329   4.707   2.330
 5966TIP3    H217842   0.292   4.749   2.189
 5967TIP3   OH217843   8.038   4.819   1.616
 5967TIP3    H117844   8.032   4.905   1.659
 5967TIP3    H217845   8.065   4.759   1.686
 5968TIP3   OH217846   3.672   7.173   1.487
 5968TIP3    H117847   3.693   7.080   1.482
 5968TIP3    H217848   3.581   7.179   1.457
 5969TIP3   OH217849   0.585   6.059   6.708
 5969TIP3    H117850   0.516   6.123   6.727
 5969TIP3    H217851   0.549   5.976   6.740
 5970TIP3   OH217852   1.457   3.309   6.523
 5970TIP3    H117853   1.495   3.257   6.594
 5970TIP3    H217854   1.528   3.320   6.460
 5971TIP3   OH217855   0.538   4.928   0.468
 5971TIP3    H117856   0.532   4.968   0.554
 5971TIP3    H217857   0.530   5.002   0.407
 5972TIP3   OH217858   5.947   0.111   1.326
 5972TIP3    H117859   6.020   0.153   1.279
 5972TIP3    H217860   5.870   0.130   1.272
 5973TIP3   OH217861   5.279   7.128   6.719
 5973TIP3    H117862   5.188   7.144   6.695
 5973TIP3    H217863   5.324   7.112   6.636
 5974TIP3   OH217864   8.289   6.799   6.533
 5974TIP3    H117865   8.291   6.886   6.493
 5974TIP3    H217866   8.376   6.789   6.573
 5975TIP3   OH217867   5.826   5.628   6.508
 5975TIP3    H117868   5.888   5.557   6.523
 5975TIP3    H217869   5.751   5.606   6.562
 5976TIP3   OH217870   4.811   1.612   1.642
 5976TIP3    H117871   4.845   1.552   1.575
 5976TIP3    H217872   4.880   1.615   1.708
 5977TIP3   OH217873   7.489   4.136   6.262
 5977TIP3    H117874   7.449   4.053   6.235
 5977TIP3    H217875   7.500   4.184   6.180
 5978TIP3   OH217876   8.208   3.219   1.687
 5978TIP3    H117877   8.275   3.170   1.639
 5978TIP3    H217878   8.148   3.152   1.719
 5979TIP3   OH217879   2.004   6.166   0.416
 5979TIP3    H117880   2.045   6.253   0.418
 5979TIP3    H217881   1.963   6.161   0.330
 5980TIP3   OH217882   7.016   4.736   0.513
 5980TIP3    H117883   7.101   4.771   0.485
 5980TIP3    H217884   6.999   4.781   0.596
 5981TIP3   OH217885   3.043   1.229   5.503
 5981TIP3    H117886   3.036   1.168   5.429
 5981TIP3    H217887   2.953   1.239   5.534
 5982TIP3   OH217888   1.679   1.213   6.293
 5982TIP3    H117889   1.586   1.209   6.313
 5982TIP3    H217890   1.691   1.294   6.244
 5983TIP3   OH217891   2.775   3.650   3.838
 5983TIP3    H117892   2.819   3.571   3.868
 5983TIP3    H217893   2.839   3.692   3.781
 5984TIP3   OH217894   2.050   4.075   0.541
 5984TIP3    H117895   2.100   4.133   0.484
 5984TIP3    H217896   2.114   4.041   0.603
 5985TIP3   OH217897   2.976   6.803   1.756
 5985TIP3    H117898   2.958   6.832   1.667
 5985TIP3    H217899   2.992   6.884   1.805
 5986TIP3   OH217900   3.283   2.312   2.774
 5986TIP3    H117901   3.341   2.247   2.814
 5986TIP3    H217902   3.339   2.389   2.762
 5987TIP3   OH217903   2.495   7.571   6.137
 5987TIP3    H117904   2.462   7.656   6.165
 5987TIP3    H217905   2.436   7.544   6.067
 5988TIP3   OH217906   3.194   1.653   6.678
 5988TIP3    H117907   3.152   1.739   6.681
 5988TIP3    H217908   3.146   1.601   6.743
 5989TIP3   OH217909   5.922   6.059   1.693
 5989TIP3    H117910   5.860   5.996   1.728
 5989TIP3    H217911   5.884   6.144   1.714
 5990TIP3   OH217912   7.474   1.188   2.119
 5990TIP3    H117913   7.475   1.234   2.203
 5990TIP3    H217914   7.515   1.249   2.058
 5991TIP3   OH217915   5.298   5.636   1.607
 5991TIP3    H117916   5.334   5.620   1.520
 5991TIP3    H217917   5.264   5.552   1.636
 5992TIP3   OH217918   4.293   3.684   1.715
 5992TIP3    H117919   4.269   3.745   1.785
 5992TIP3    H217920   4.369   3.725   1.673
 5993TIP3   OH217921   1.194   0.473   2.122
 5993TIP3    H117922   1.132   0.530   2.076
 5993TIP3    H217923   1.274   0.525   2.129
 5994TIP3   OH217924   6.734   4.844   5.916
 5994TIP3    H117925   6.720   4.871   5.825
 5994TIP3    H217926   6.801   4.903   5.948
 5995TIP3   OH217927   3.155   4.676   3.780
 5995TIP3    H117928   3.122   4.612   3.843
 5995TIP3    H217929   3.220   4.627   3.729
 5996TIP3   OH217930   6.384   4.256   0.348
 5996TIP3    H117931   6.365   4.171   0.310
 5996TIP3    H217932   6.480   4.261   0.351
 5997TIP3   OH217933   4.269   0.414   4.607
 5997TIP3    H117934   4.184   0.439   4.645
 5997TIP3    H217935   4.259   0.431   4.513
 5998TIP3   OH217936   2.332   7.812   4.500
 5998TIP3    H117937   2.352   7.901   4.474
 5998TIP3    H217938   2.286   7.821   4.584
 5999TIP3   OH217939   7.406   4.953   2.787
 5999TIP3    H117940   7.378   5.005   2.712
 5999TIP3    H217941   7.329   4.951   2.845
 6000TIP3   OH217942   5.077   4.798   4.251
 6000TIP3    H117943   5.134   4.875   4.243
 6000TIP3    H217944   5.013   4.822   4.318
 6001TIP3   OH217945   4.920   3.476   5.222
 6001TIP3    H117946   4.866   3.464   5.144
 6001TIP3    H217947   4.940   3.569   5.224
 6002TIP3   OH217948   6.943   4.794   4.396
 6002TIP3    H117949   6.934   4.699   4.385
 6002TIP3    H217950   6.899   4.812   4.479
 6003TIP3   OH217951   2.763   2.502   0.015
 6003TIP3    H117952   2.839   2.461  -0.026
 6003TIP3    H217953   2.790   2.593   0.028
 6004TIP3   OH217954   6.815   2.290   0.845
 6004TIP3    H117955   6.824   2.262   0.936
 6004TIP3    H217956   6.896   2.261   0.803
 6005TIP3   OH217957   1.886   3.221   6.071
 6005TIP3    H117958   1.814   3.227   6.133
 6005TIP3    H217959   1.850   3.172   5.997
 6006TIP3   OH217960   0.835   3.452   4.806
 6006TIP3    H117961   0.863   3.400   4.731
 6006TIP3    H217962   0.841   3.392   4.881
 6007TIP3   OH217963   3.528   2.016   6.126
 6007TIP3    H117964   3.609   2.021   6.177
 6007TIP3    H217965   3.557   1.992   6.038
 6008TIP3   OH217966   3.996   3.226   1.301
 6008TIP3    H117967   4.030   3.282   1.232
 6008TIP3    H217968   4.001   3.137   1.264
 6009TIP3   OH217969   5.460   7.208   4.382
 6009TIP3    H117970   5.398   7.145   4.347
 6009TIP3    H217971   5.453   7.284   4.324
 6010TIP3   OH217972   4.146   2.550   2.456
 6010TIP3    H117973   4.138   2.466   2.502
 6010TIP3    H217974   4.157   2.615   2.526
 6011TIP3   OH217975   3.014   4.599   4.178
 6011TIP3    H117976   2.969   4.568   4.256
 6011TIP3    H217977   3.070   4.670   4.209
 6012TIP3   OH217978   0.494   0.532   4.092
 6012TIP3    H117979   0.574   0.550   4.044
 6012TIP3    H217980   0.500   0.584   4.171
 6013TIP3   OH217981   5.118   1.775   1.558
 6013TIP3    H117982   5.090   1.690   1.590
 6013TIP3    H217983   5.074   1.838   1.616
 6014TIP3   OH217984   6.586   4.678   0.900
 6014TIP3    H117985   6.546   4.594   0.919
 6014TIP3    H217986   6.675   4.670   0.934
 6015TIP3   OH217987   5.906   7.226   3.763
 6015TIP3    H117988   5.943   7.251   3.848
 6015TIP3    H217989   5.945   7.141   3.744
 6016TIP3   OH217990   3.769   0.271   3.584
 6016TIP3    H117991   3.742   0.257   3.493
 6016TIP3    H217992   3.809   0.189   3.611
 6017TIP3   OH217993   6.734   1.363   3.029
 6017TIP3    H117994   6.683   1.282   3.030
 6017TIP3    H217995   6.701   1.412   2.953
 6018TIP3   OH217996   8.013   3.810   4.794
 6018TIP3    H117997   8.033   3.728   4.839
 6018TIP3    H217998   7.997   3.872   4.864
 6019TIP3   OH217999   4.347   0.725   2.711
 6019TIP3    H118000   4.430   0.727   2.758
 6019TIP3    H218001   4.306   0.809   2.733
 6020TIP3   OH218002   1.896   4.071   1.219
 6020TIP3    H118003   1.900   4.167   1.225
 6020TIP3    H218004   1.825   4.055   1.157
 6021TIP3   OH218005   4.519   5.655   6.705
 6021TIP3    H118006   4.427   5.656   6.731
 6021TIP3    H218007   4.545   5.747   6.704
 6022TIP3   OH218008   7.484   4.742   6.400
 6022TIP3    H118009   7.488   4.648   6.414
 6022TIP3    H218010   7.576   4.768   6.388
 6023TIP3   OH218011   4.575   4.761   2.269
 6023TIP3    H118012   4.542   4.845   2.299
 6023TIP3    H218013   4.581   4.708   2.349
 6024TIP3   OH218014   2.443   3.075   4.014
 6024TIP3    H118015   2.396   3.078   3.930
 6024TIP3    H218016   2.502   3.000   4.005
 6025TIP3   OH218017   1.641   3.672   2.520
 6025TIP3    H118018   1.616   3.716   2.438
 6025TIP3    H218019   1.704   3.732   2.560
 6026TIP3   OH218020   3.952   6.830   4.237
 6026TIP3    H118021   4.034   6.789   4.264
 6026TIP3    H218022   3.950   6.819   4.142
 6027TIP3   OH218023   1.915   3.705   3.452
 6027TIP3    H118024   1.883   3.766   3.386
 6027TIP3    H218025   1.940   3.627   3.403
 6028TIP3   OH218026   3.054   3.714   4.212
 6028TIP3    H118027   3.093   3.701   4.126
 6028TIP3    H218028   2.990   3.643   4.220
 6029TIP3   OH218029   6.548   1.083   0.324
 6029TIP3    H118030   6.498   1.114   0.399
 6029TIP3    H218031   6.620   1.032   0.362
 6030TIP3   OH218032   6.060   4.783   6.752
 6030TIP3    H118033   6.057   4.877   6.736
 6030TIP3    H218034   6.027   4.772   6.841
 6031TIP3   OH218035   4.177   5.733   1.108
 6031TIP3    H118036   4.165   5.824   1.137
 6031TIP3    H218037   4.154   5.734   1.015
 6032TIP3   OH218038   5.152   0.118   2.420
 6032TIP3    H118039   5.244   0.145   2.422
 6032TIP3    H218040   5.146   0.060   2.344
 6033TIP3   OH218041   2.330   6.162   3.816
 6033TIP3    H118042   2.301   6.113   3.893
 6033TIP3    H218043   2.425   6.171   3.827
 6034TIP3   OH218044   0.976   4.333   0.256
 6034TIP3    H118045   0.931   4.398   0.310
 6034TIP3    H218046   0.931   4.251   0.275
 6035TIP3   OH218047   1.720   7.240   2.702
 6035TIP3    H118048   1.643   7.272   2.656
 6035TIP3    H218049   1.739   7.155   2.662
 6036TIP3   OH218050   1.246   2.600   4.762
 6036TIP3    H118051   1.160   2.590   4.722
 6036TIP3    H218052   1.227   2.622   4.853
 6037TIP3   OH218053   1.823   7.629   5.260
 6037TIP3    H118054   1.888   7.659   5.197
 6037TIP3    H218055   1.792   7.709   5.302
 6038TIP3   OH218056   7.178   4.786   5.278
 6038TIP3    H118057   7.221   4.704   5.254
 6038TIP3    H218058   7.145   4.821   5.195
 6039TIP3   OH218059   6.857   3.780   5.543
 6039TIP3    H118060   6.881   3.723   5.470
 6039TIP3    H218061   6.813   3.854   5.502
 6040TIP3   OH218062   7.313   2.604   5.841
 6040TIP3    H118063   7.387   2.587   5.782
 6040TIP3    H218064   7.236   2.580   5.791
 6041TIP3   OH218065   7.463   6.086   4.454
 6041TIP3    H118066   7.395   6.111   4.517
 6041TIP3    H218067   7.545   6.110   4.496
 6042TIP3   OH218068   7.055   6.356   0.329
 6042TIP3    H118069   6.999   6.424   0.366
 6042TIP3    H218070   6.995   6.284   0.309
 6043TIP3   OH218071   3.419   5.058   5.312
 6043TIP3    H118072   3.425   5.012   5.395
 6043TIP3    H218073   3.394   4.991   5.249
 6044TIP3   OH218074   5.642   4.463   6.550
 6044TIP3    H118075   5.561   4.447   6.599
 6044TIP3    H218076   5.711   4.457   6.616
 6045TIP3   OH218077   5.827   2.953   3.384
 6045TIP3    H118078   5.898   2.999   3.428
 6045TIP3    H218079   5.786   3.019   3.328
 6046TIP3   OH218080   6.105   2.247   4.645
 6046TIP3    H118081   6.061   2.307   4.585
 6046TIP3    H218082   6.034   2.203   4.691
 6047TIP3   OH218083   0.644   2.479   6.753
 6047TIP3    H118084   0.578   2.410   6.763
 6047TIP3    H218085   0.611   2.551   6.807
 6048TIP3   OH218086   6.149   6.126   2.362
 6048TIP3    H118087   6.143   6.221   2.367
 6048TIP3    H218088   6.212   6.102   2.430
 6049TIP3   OH218089   0.439   4.895   1.381
 6049TIP3    H118090   0.414   4.803   1.381
 6049TIP3    H218091   0.457   4.916   1.472
 6050TIP3   OH218092   0.999   1.386   5.915
 6050TIP3    H118093   0.971   1.474   5.890
 6050TIP3    H218094   1.000   1.389   6.011
 6051TIP3   OH218095   8.244   7.084   3.089
 6051TIP3    H118096   8.325   7.033   3.094
 6051TIP3    H218097   8.226   7.111   3.179
 6052TIP3   OH218098   6.621   0.773   2.055
 6052TIP3    H118099   6.631   0.695   2.109
 6052TIP3    H218100   6.565   0.744   1.982
 6053TIP3   OH218101   3.526   7.331   5.817
 6053TIP3    H118102   3.555   7.319   5.907
 6053TIP3    H218103   3.601   7.374   5.774
 6054TIP3   OH218104   0.346   6.015   0.891
 6054TIP3    H118105   0.267   5.977   0.930
 6054TIP3    H218106   0.313   6.066   0.817
 6055TIP3   OH218107   3.498   6.303   1.013
 6055TIP3    H118108   3.521   6.217   0.979
 6055TIP3    H218109   3.582   6.348   1.023
 6056TIP3   OH218110   0.870   3.769   1.319
 6056TIP3    H118111   0.854   3.677   1.303
 6056TIP3    H218112   0.901   3.804   1.235
 6057TIP3   OH218113   6.364   3.607   4.711
 6057TIP3    H118114   6.273   3.636   4.702
 6057TIP3    H218115   6.385   3.621   4.803
 6058TIP3   OH218116   1.020   3.519   1.481
 6058TIP3    H118117   0.994   3.589   1.540
 6058TIP3    H218118   0.938   3.475   1.459
 6059TIP3   OH218119   2.338   2.619   2.558
 6059TIP3    H118120   2.345   2.563   2.481
 6059TIP3    H218121   2.413   2.594   2.613
 6060TIP3   OH218122   6.752   5.826   3.060
 6060TIP3    H118123   6.806   5.891   3.105
 6060TIP3    H218124   6.814   5.763   3.024
 6061TIP3   OH218125   5.636   6.338   0.596
 6061TIP3    H118126   5.707   6.331   0.660
 6061TIP3    H218127   5.676   6.380   0.520
 6062TIP3   OH218128   3.938   5.913   1.660
 6062TIP3    H118129   3.903   5.899   1.748
 6062TIP3    H218130   3.929   5.828   1.617
 6063TIP3   OH218131   2.540   5.981   6.177
 6063TIP3    H118132   2.610   6.043   6.200
 6063TIP3    H218133   2.461   6.019   6.216
 6064TIP3   OH218134   8.108   7.198   0.973
 6064TIP3    H118135   8.168   7.125   0.955
 6064TIP3    H218136   8.149   7.246   1.045
 6065TIP3   OH218137   3.681   1.196   0.427
 6065TIP3    H118138   3.732   1.221   0.351
 6065TIP3    H218139   3.594   1.232   0.411
 6066TIP3   OH218140   7.899   7.213   6.636
 6066TIP3    H118141   7.903   7.288   6.696
 6066TIP3    H218142   7.942   7.245   6.556
 6067TIP3   OH218143   0.312   3.310   4.355
 6067TIP3    H118144   0.365   3.325   4.277
 6067TIP3    H218145   0.355   3.361   4.424
 6068TIP3   OH218146   1.008   6.268   2.883
 6068TIP3    H118147   1.043   6.357   2.880
 6068TIP3    H218148   0.915   6.277   2.862
 6069TIP3   OH218149   8.021   0.973   1.372
 6069TIP3    H118150   7.946   1.031   1.359
 6069TIP3    H218151   8.092   1.016   1.324
 6070TIP3   OH218152   3.103   1.933   5.396
 6070TIP3    H118153   3.133   1.910   5.484
 6070TIP3    H218154   3.057   2.016   5.407
 6071TIP3   OH218155   4.937   6.971   1.740
 6071TIP3    H118156   4.979   6.992   1.656
 6071TIP3    H218157   4.981   7.027   1.804
 6072TIP3   OH218158   4.105   4.913   4.748
 6072TIP3    H118159   4.182   4.963   4.719
 6072TIP3    H218160   4.078   4.865   4.669
 6073TIP3   OH218161   0.015   3.468   0.465
 6073TIP3    H118162   0.013   3.401   0.397
 6073TIP3    H218163  -0.041   3.538   0.432
 6074TIP3   OH218164   4.059   4.859   1.205
 6074TIP3    H118165   4.021   4.921   1.143
 6074TIP3    H218166   4.153   4.861   1.187
 6075TIP3   OH218167   7.722   2.632   6.148
 6075TIP3    H118168   7.805   2.660   6.188
 6075TIP3    H218169   7.745   2.609   6.058
 6076TIP3   OH218170   5.896   5.989   3.050
 6076TIP3    H118171   5.841   5.913   3.066
 6076TIP3    H218172   5.982   5.964   3.083
 6077TIP3   OH218173   5.284   6.086   3.480
 6077TIP3    H118174   5.331   6.003   3.469
 6077TIP3    H218175   5.315   6.141   3.408
 6078TIP3   OH218176   4.204   0.710   5.119
 6078TIP3    H118177   4.243   0.797   5.104
 6078TIP3    H218178   4.177   0.712   5.211
 6079TIP3   OH218179   1.440   3.289   5.291
 6079TIP3    H118180   1.393   3.314   5.371
 6079TIP3    H218181   1.397   3.339   5.221
 6080TIP3   OH218182   8.183   5.368   4.536
 6080TIP3    H118183   8.186   5.464   4.530
 6080TIP3    H218184   8.143   5.351   4.622
 6081TIP3   OH218185   0.208   2.758   2.417
 6081TIP3    H118186   0.296   2.759   2.454
 6081TIP3    H218187   0.194   2.848   2.387
 6082TIP3   OH218188   5.727   0.975   2.896
 6082TIP3    H118189   5.647   0.959   2.945
 6082TIP3    H218190   5.752   0.889   2.861
 6083TIP3   OH218191   0.564   0.928   3.429
 6083TIP3    H118192   0.474   0.898   3.414
 6083TIP3    H218193   0.606   0.853   3.471
 6084TIP3   OH218194   1.893   5.013   5.763
 6084TIP3    H118195   1.893   4.929   5.716
 6084TIP3    H218196   1.972   5.010   5.817
 6085TIP3   OH218197   4.297   5.995   2.754
 6085TIP3    H118198   4.222   5.967   2.806
 6085TIP3    H218199   4.325   6.077   2.795
 6086TIP3   OH218200   5.868   5.668   3.295
 6086TIP3    H118201   5.827   5.601   3.241
 6086TIP3    H218202   5.962   5.659   3.277
 6087TIP3   OH218203   6.469   3.274   3.538
 6087TIP3    H118204   6.462   3.211   3.609
 6087TIP3    H218205   6.549   3.250   3.491
 6088TIP3   OH218206   4.101   1.083   4.447
 6088TIP3    H118207   4.053   1.004   4.424
 6088TIP3    H218208   4.188   1.052   4.472
 6089TIP3   OH218209   7.473   5.725   4.767
 6089TIP3    H118210   7.451   5.659   4.701
 6089TIP3    H218211   7.416   5.799   4.747
 6090TIP3   OH218212   6.910   4.832   1.782
 6090TIP3    H118213   6.922   4.740   1.762
 6090TIP3    H218214   6.999   4.868   1.789
 6091TIP3   OH218215   1.356   5.046   5.029
 6091TIP3    H118216   1.261   5.033   5.028
 6091TIP3    H218217   1.379   5.064   4.938
 6092TIP3   OH218218   0.801   4.775   1.969
 6092TIP3    H118219   0.728   4.746   1.914
 6092TIP3    H218220   0.859   4.822   1.908
 6093TIP3   OH218221   6.840   0.693   4.841
 6093TIP3    H118222   6.849   0.756   4.913
 6093TIP3    H218223   6.811   0.746   4.767
 6094TIP3   OH218224   5.166   4.469   2.196
 6094TIP3    H118225   5.222   4.499   2.125
 6094TIP3    H218226   5.174   4.536   2.264
 6095TIP3   OH218227   1.658   3.375   1.532
 6095TIP3    H118228   1.600   3.383   1.457
 6095TIP3    H218229   1.700   3.290   1.522
 6096TIP3   OH218230   2.049   5.383   1.775
 6096TIP3    H118231   2.123   5.396   1.835
 6096TIP3    H218232   2.044   5.288   1.763
 6097TIP3   OH218233   3.868   0.514   5.807
 6097TIP3    H118234   3.911   0.580   5.751
 6097TIP3    H218235   3.882   0.546   5.896
 6098TIP3   OH218236   1.558   6.848   0.965
 6098TIP3    H118237   1.619   6.818   0.897
 6098TIP3    H218238   1.513   6.922   0.926
 6099TIP3   OH218239   2.017   0.833   5.865
 6099TIP3    H118240   2.094   0.819   5.920
 6099TIP3    H218241   2.035   0.782   5.786
 6100TIP3   OH218242   1.788   0.793   4.103
 6100TIP3    H118243   1.804   0.804   4.010
 6100TIP3    H218244   1.836   0.865   4.144
 6101TIP3   OH218245   6.317   5.981   3.187
 6101TIP3    H118246   6.261   6.048   3.147
 6101TIP3    H218247   6.316   5.909   3.124
 6102TIP3   OH218248   0.792   5.024   3.663
 6102TIP3    H118249   0.753   5.101   3.704
 6102TIP3    H218250   0.719   4.961   3.657
 6103TIP3   OH218251   1.667   6.162   5.012
 6103TIP3    H118252   1.667   6.190   4.920
 6103TIP3    H218253   1.575   6.155   5.035
 6104TIP3   OH218254   0.388   0.488   1.374
 6104TIP3    H118255   0.339   0.461   1.451
 6104TIP3    H218256   0.422   0.407   1.337
 6105TIP3   OH218257   8.271   7.554   5.506
 6105TIP3    H118258   8.190   7.507   5.527
 6105TIP3    H218259   8.332   7.485   5.478
 6106TIP3   OH218260   1.913   6.078   4.971
 6106TIP3    H118261   1.957   6.021   5.034
 6106TIP3    H218262   1.830   6.101   5.013
 6107TIP3   OH218263   3.813   2.112   3.861
 6107TIP3    H118264   3.857   2.141   3.781
 6107TIP3    H218265   3.883   2.098   3.924
 6108TIP3   OH218266   6.517   5.153   3.424
 6108TIP3    H118267   6.496   5.131   3.515
 6108TIP3    H218268   6.503   5.247   3.418
 6109TIP3   OH218269   0.283   7.670   3.008
 6109TIP3    H118270   0.311   7.587   2.969
 6109TIP3    H218271   0.318   7.737   2.949
 6110TIP3   OH218272   4.996   1.669   3.918
 6110TIP3    H118273   5.071   1.711   3.959
 6110TIP3    H218274   4.930   1.738   3.910
 6111TIP3   OH218275   4.666   6.765   1.269
 6111TIP3    H118276   4.745   6.736   1.224
 6111TIP3    H218277   4.669   6.861   1.262
 6112TIP3   OH218278   4.718   2.376   6.591
 6112TIP3    H118279   4.669   2.444   6.638
 6112TIP3    H218280   4.810   2.404   6.598
 6113TIP3   OH218281   5.372   0.210   4.345
 6113TIP3    H118282   5.444   0.262   4.308
 6113TIP3    H218283   5.329   0.171   4.269
 6114TIP3   OH218284   7.632   7.177   0.217
 6114TIP3    H118285   7.635   7.110   0.148
 6114TIP3    H218286   7.552   7.227   0.198
 6115TIP3   OH218287   7.081   3.378   2.998
 6115TIP3    H118288   7.131   3.364   2.917
 6115TIP3    H218289   7.121   3.319   3.062
 6116TIP3   OH218290   5.910   0.678   2.314
 6116TIP3    H118291   5.894   0.585   2.300
 6116TIP3    H218292   5.921   0.686   2.409
 6117TIP3   OH218293   1.922   3.510   6.023
 6117TIP3    H118294   1.841   3.527   6.070
 6117TIP3    H218295   1.927   3.414   6.017
 6118TIP3   OH218296   1.173   1.219   4.549
 6118TIP3    H118297   1.136   1.163   4.482
 6118TIP3    H218298   1.267   1.201   4.546
 6119TIP3   OH218299   4.981   6.890   5.142
 6119TIP3    H118300   5.024   6.918   5.061
 6119TIP3    H218301   4.901   6.847   5.113
 6120TIP3   OH218302   4.653   3.805   2.555
 6120TIP3    H118303   4.656   3.871   2.486
 6120TIP3    H218304   4.567   3.765   2.547
 6121TIP3   OH218305   4.660   5.957   3.002
 6121TIP3    H118306   4.721   5.885   3.014
 6121TIP3    H218307   4.678   6.016   3.075
 6122TIP3   OH218308   1.739   0.873   1.210
 6122TIP3    H118309   1.652   0.884   1.248
 6122TIP3    H218310   1.729   0.803   1.146
 6123TIP3   OH218311   1.150   5.685   6.393
 6123TIP3    H118312   1.241   5.686   6.364
 6123TIP3    H218313   1.149   5.741   6.471
 6124TIP3   OH218314   2.695   6.603   1.627
 6124TIP3    H118315   2.635   6.674   1.652
 6124TIP3    H218316   2.779   6.629   1.665
 6125TIP3   OH218317   5.802   2.260   6.276
 6125TIP3    H118318   5.757   2.234   6.195
 6125TIP3    H218319   5.806   2.355   6.271
 6126TIP3   OH218320   1.759   0.236   5.082
 6126TIP3    H118321   1.681   0.275   5.121
 6126TIP3    H218322   1.782   0.164   5.140
 6127TIP3   OH218323   7.508   6.783   1.273
 6127TIP3    H118324   7.530   6.697   1.310
 6127TIP3    H218325   7.444   6.763   1.204
 6128TIP3   OH218326   0.594   4.821   1.171
 6128TIP3    H118327   0.632   4.760   1.233
 6128TIP3    H218328   0.536   4.876   1.223
 6129TIP3   OH218329   2.813   1.159   4.497
 6129TIP3    H118330   2.840   1.163   4.589
 6129TIP3    H218331   2.857   1.081   4.463
 6130TIP3   OH218332   4.542   3.815   0.786
 6130TIP3    H118333   4.507   3.727   0.802
 6130TIP3    H218334   4.605   3.803   0.714
 6131TIP3   OH218335   2.792   4.128   1.713
 6131TIP3    H118336   2.876   4.142   1.669
 6131TIP3    H218337   2.733   4.098   1.644
 6132TIP3   OH218338   8.093   4.556   4.598
 6132TIP3    H118339   8.069   4.514   4.516
 6132TIP3    H218340   8.145   4.490   4.645
 6133TIP3   OH218341   4.875   2.556   6.268
 6133TIP3    H118342   4.882   2.503   6.347
 6133TIP3    H218343   4.912   2.501   6.199
 6134TIP3   OH218344   3.221   6.411   5.661
 6134TIP3    H118345   3.166   6.415   5.583
 6134TIP3    H218346   3.306   6.446   5.633
 6135TIP3   OH218347   1.704   6.116   1.263
 6135TIP3    H118348   1.778   6.150   1.313
 6135TIP3    H218349   1.682   6.033   1.307
 6136TIP3   OH218350   2.850   4.444   0.917
 6136TIP3    H118351   2.908   4.465   0.989
 6136TIP3    H218352   2.816   4.357   0.938
 6137TIP3   OH218353   1.289   6.186   2.109
 6137TIP3    H118354   1.258   6.271   2.079
 6137TIP3    H218355   1.271   6.126   2.037
 6138TIP3   OH218356   5.371   4.946   0.792
 6138TIP3    H118357   5.435   5.017   0.791
 6138TIP3    H218358   5.289   4.987   0.764
 6139TIP3   OH218359   4.917   3.251   3.396
 6139TIP3    H118360   4.943   3.342   3.384
 6139TIP3    H218361   4.871   3.228   3.315
 6140TIP3   OH218362   1.848   0.248   4.261
 6140TIP3    H118363   1.799   0.322   4.225
 6140TIP3    H218364   1.852   0.184   4.189
 6141TIP3   OH218365   7.580   2.976   2.357
 6141TIP3    H118366   7.602   2.886   2.381
 6141TIP3    H218367   7.578   2.976   2.262
 6142TIP3   OH218368   7.892   5.685   3.932
 6142TIP3    H118369   7.798   5.687   3.949
 6142TIP3    H218370   7.915   5.592   3.932
 6143TIP3   OH218371   6.130   2.369   0.128
 6143TIP3    H118372   6.057   2.359   0.189
 6143TIP3    H218373   6.183   2.290   0.141
 6144TIP3   OH218374   5.872   3.254   6.413
 6144TIP3    H118375   5.946   3.313   6.397
 6144TIP3    H218376   5.825   3.294   6.485
 6145TIP3   OH218377   7.335   6.677   5.673
 6145TIP3    H118378   7.392   6.709   5.604
 6145TIP3    H218379   7.249   6.670   5.632
 6146TIP3   OH218380   2.993   5.969   3.252
 6146TIP3    H118381   3.060   5.905   3.279
 6146TIP3    H218382   2.912   5.918   3.249
 6147TIP3   OH218383   8.022   2.051   6.404
 6147TIP3    H118384   8.071   2.019   6.328
 6147TIP3    H218385   8.035   2.146   6.403
 6148TIP3   OH218386   4.124   2.366   4.353
 6148TIP3    H118387   4.145   2.283   4.311
 6148TIP3    H218388   4.201   2.385   4.408
 6149TIP3   OH218389   0.772   3.286   6.192
 6149TIP3    H118390   0.743   3.196   6.209
 6149TIP3    H218391   0.766   3.296   6.097
 6150TIP3   OH218392   3.827   2.391   5.450
 6150TIP3    H118393   3.863   2.479   5.441
 6150TIP3    H218394   3.815   2.379   5.544
 6151TIP3   OH218395   0.477   6.723   4.363
 6151TIP3    H118396   0.443   6.719   4.274
 6151TIP3    H218397   0.559   6.773   4.356
 6152TIP3   OH218398   7.625   2.765   5.423
 6152TIP3    H118399   7.697   2.825   5.408
 6152TIP3    H218400   7.615   2.718   5.340
 6153TIP3   OH218401   7.449   6.352   0.970
 6153TIP3    H118402   7.483   6.376   1.056
 6153TIP3    H218403   7.481   6.263   0.955
 6154TIP3   OH218404   4.956   2.386   6.063
 6154TIP3    H118405   4.900   2.388   5.986
 6154TIP3    H218406   5.003   2.303   6.056
 6155TIP3   OH218407   4.816   4.715   5.097
 6155TIP3    H118408   4.833   4.623   5.075
 6155TIP3    H218409   4.849   4.725   5.186
 6156TIP3   OH218410   7.584   3.108   5.396
 6156TIP3    H118411   7.583   3.191   5.445
 6156TIP3    H218412   7.515   3.055   5.437
 6157TIP3   OH218413   6.828   6.485   4.288
 6157TIP3    H118414   6.853   6.439   4.368
 6157TIP3    H218415   6.743   6.524   4.309
 6158TIP3   OH218416   6.461   3.787   1.110
 6158TIP3    H118417   6.424   3.771   1.197
 6158TIP3    H218418   6.546   3.744   1.111
 6159TIP3   OH218419   5.698   0.545   3.825
 6159TIP3    H118420   5.665   0.499   3.902
 6159TIP3    H218421   5.627   0.603   3.799
 6160TIP3   OH218422   8.242   3.191   6.428
 6160TIP3    H118423   8.147   3.181   6.421
 6160TIP3    H218424   8.258   3.282   6.402
 6161TIP3   OH218425   7.376   7.064   1.466
 6161TIP3    H118426   7.385   6.977   1.504
 6161TIP3    H218427   7.339   7.117   1.536
 6162TIP3   OH218428   3.374   6.096   4.919
 6162TIP3    H118429   3.307   6.056   4.974
 6162TIP3    H218430   3.436   6.136   4.981
 6163TIP3   OH218431   0.059   1.275   4.690
 6163TIP3    H118432   0.012   1.357   4.674
 6163TIP3    H218433  -0.003   1.221   4.739
 6164TIP3   OH218434   0.548   7.245   2.032
 6164TIP3    H118435   0.606   7.234   2.107
 6164TIP3    H218436   0.535   7.339   2.024
 6165TIP3   OH218437   5.749   4.721   2.949
 6165TIP3    H118438   5.676   4.771   2.985
 6165TIP3    H218439   5.804   4.701   3.025
 6166TIP3   OH218440   4.713   0.508   5.381
 6166TIP3    H118441   4.782   0.513   5.315
 6166TIP3    H218442   4.631   0.509   5.330
 6167TIP3   OH218443   1.409   7.028   5.315
 6167TIP3    H118444   1.487   7.051   5.265
 6167TIP3    H218445   1.421   6.935   5.337
 6168TIP3   OH218446   5.056   6.815   3.535
 6168TIP3    H118447   5.032   6.802   3.443
 6168TIP3    H218448   5.104   6.898   3.536
 6169TIP3   OH218449   0.579   2.481   4.831
 6169TIP3    H118450   0.595   2.557   4.888
 6169TIP3    H218451   0.649   2.420   4.854
 6170TIP3   OH218452   3.818   6.464   5.416
 6170TIP3    H118453   3.798   6.552   5.381
 6170TIP3    H218454   3.813   6.407   5.340
 6171TIP3   OH218455   0.977   0.545   4.875
 6171TIP3    H118456   1.028   0.467   4.852
 6171TIP3    H218457   1.042   0.612   4.893
 6172TIP3   OH218458   0.568   1.889   1.684
 6172TIP3    H118459   0.663   1.898   1.684
 6172TIP3    H218460   0.539   1.941   1.609
 6173TIP3   OH218461   3.457   7.740   6.176
 6173TIP3    H118462   3.456   7.764   6.269
 6173TIP3    H218463   3.425   7.650   6.173
 6174TIP3   OH218464   4.653   3.918   3.762
 6174TIP3    H118465   4.586   3.927   3.830
 6174TIP3    H218466   4.614   3.961   3.685
 6175TIP3   OH218467   5.729   6.917   1.564
 6175TIP3    H118468   5.748   6.895   1.472
 6175TIP3    H218469   5.750   7.010   1.570
 6176TIP3   OH218470   4.930   7.327   6.117
 6176TIP3    H118471   4.993   7.399   6.107
 6176TIP3    H218472   4.854   7.367   6.159
 6177TIP3   OH218473   0.718   7.350   5.404
 6177TIP3    H118474   0.754   7.283   5.346
 6177TIP3    H218475   0.626   7.359   5.376
 6178TIP3   OH218476   7.569   3.102   1.844
 6178TIP3    H118477   7.487   3.147   1.820
 6178TIP3    H218478   7.638   3.154   1.803
 6179TIP3   OH218479   0.983   6.649   5.582
 6179TIP3    H118480   1.051   6.625   5.519
 6179TIP3    H218481   0.983   6.578   5.646
 6180TIP3   OH218482   5.722   5.159   4.758
 6180TIP3    H118483   5.631   5.185   4.765
 6180TIP3    H218484   5.771   5.233   4.795
 6181TIP3   OH218485   1.656   6.828   3.462
 6181TIP3    H118486   1.746   6.855   3.476
 6181TIP3    H218487   1.620   6.815   3.550
 6182TIP3   OH218488   6.056   6.735   2.546
 6182TIP3    H118489   6.029   6.643   2.545
 6182TIP3    H218490   5.987   6.781   2.498
 6183TIP3   OH218491   1.060   0.777   1.997
 6183TIP3    H118492   0.993   0.741   2.054
 6183TIP3    H218493   1.017   0.847   1.948
 6184TIP3   OH218494   1.543   2.797   4.091
 6184TIP3    H118495   1.603   2.846   4.034
 6184TIP3    H218496   1.576   2.707   4.088
 6185TIP3   OH218497   3.070   5.782   4.795
 6185TIP3    H118498   3.132   5.710   4.807
 6185TIP3    H218499   3.096   5.823   4.712
 6186TIP3   OH218500   4.186   3.105   3.820
 6186TIP3    H118501   4.248   3.105   3.748
 6186TIP3    H218502   4.239   3.090   3.898
 6187TIP3   OH218503   2.245   4.061   2.457
 6187TIP3    H118504   2.308   4.105   2.514
 6187TIP3    H218505   2.246   3.970   2.486
 6188TIP3   OH218506   3.473   5.844   0.225
 6188TIP3    H118507   3.456   5.821   0.316
 6188TIP3    H218508   3.555   5.800   0.204
 6189TIP3   OH218509   7.288   4.101   2.592
 6189TIP3    H118510   7.304   4.020   2.640
 6189TIP3    H218511   7.199   4.127   2.617
 6190TIP3   OH218512   0.660   0.497   6.556
 6190TIP3    H118513   0.616   0.576   6.527
 6190TIP3    H218514   0.753   0.519   6.556
 6191TIP3   OH218515   2.896   6.633   5.280
 6191TIP3    H118516   2.886   6.572   5.353
 6191TIP3    H218517   2.808   6.644   5.246
 6192TIP3   OH218518   4.019   1.420   4.810
 6192TIP3    H118519   3.988   1.358   4.745
 6192TIP3    H218520   3.985   1.505   4.781
 6193TIP3   OH218521   8.037   2.617   0.704
 6193TIP3    H118522   8.067   2.697   0.662
 6193TIP3    H218523   7.955   2.595   0.659
 6194TIP3   OH218524   3.215   7.283   4.264
 6194TIP3    H118525   3.174   7.324   4.187
 6194TIP3    H218526   3.166   7.202   4.275
 6195TIP3   OH218527   0.904   3.044   4.949
 6195TIP3    H118528   0.901   3.125   5.001
 6195TIP3    H218529   0.997   3.032   4.928
 6196TIP3   OH218530   7.315   1.735   1.360
 6196TIP3    H118531   7.295   1.643   1.378
 6196TIP3    H218532   7.254   1.784   1.414
 6197TIP3   OH218533   5.088   0.747   4.642
 6197TIP3    H118534   5.098   0.800   4.563
 6197TIP3    H218535   5.073   0.811   4.712
 6198TIP3   OH218536   4.135   3.361   1.096
 6198TIP3    H118537   4.151   3.390   1.006
 6198TIP3    H218538   4.213   3.389   1.144
 6199TIP3   OH218539   7.729   5.514   0.127
 6199TIP3    H118540   7.705   5.561   0.048
 6199TIP3    H218541   7.677   5.433   0.123
 6200TIP3   OH218542   1.596   7.773   2.117
 6200TIP3    H118543   1.663   7.768   2.186
 6200TIP3    H218544   1.521   7.726   2.153
 6201TIP3   OH218545   3.335   2.929   1.276
 6201TIP3    H118546   3.242   2.948   1.263
 6201TIP3    H218547   3.336   2.841   1.314
 6202TIP3   OH218548   6.297   4.695   0.416
 6202TIP3    H118549   6.363   4.764   0.410
 6202TIP3    H218550   6.225   4.725   0.361
 6203TIP3   OH218551   5.301   4.095   3.244
 6203TIP3    H118552   5.314   4.066   3.154
 6203TIP3    H218553   5.206   4.094   3.257
 6204TIP3   OH218554   0.783   0.032   6.092
 6204TIP3    H118555   0.722   0.026   6.165
 6204TIP3    H218556   0.770  -0.049   6.043
 6205TIP3   OH218557   5.293   3.864   3.402
 6205TIP3    H118558   5.207   3.847   3.363
 6205TIP3    H218559   5.324   3.942   3.358
 6206TIP3   OH218560   4.601   3.768   2.161
 6206TIP3    H118561   4.608   3.795   2.069
 6206TIP3    H218562   4.589   3.674   2.157
 6207TIP3   OH218563   8.221   7.503   0.378
 6207TIP3    H118564   8.313   7.500   0.350
 6207TIP3    H218565   8.171   7.508   0.297
 6208TIP3   OH218566   3.897   0.621   6.079
 6208TIP3    H118567   3.900   0.535   6.122
 6208TIP3    H218568   3.927   0.682   6.146
 6209TIP3   OH218569   5.883   6.032   4.197
 6209TIP3    H118570   5.850   5.993   4.116
 6209TIP3    H218571   5.833   6.113   4.207
 6210TIP3   OH218572   3.292   6.335   5.913
 6210TIP3    H118573   3.269   6.362   5.824
 6210TIP3    H218574   3.360   6.269   5.901
 6211TIP3   OH218575   3.784   6.655   2.269
 6211TIP3    H118576   3.842   6.594   2.314
 6211TIP3    H218577   3.757   6.609   2.190
 6212TIP3   OH218578   0.923   4.641   2.319
 6212TIP3    H118579   0.958   4.724   2.351
 6212TIP3    H218580   0.988   4.576   2.344
 6213TIP3   OH218581   6.433   0.977   0.089
 6213TIP3    H118582   6.470   1.009   0.171
 6213TIP3    H218583   6.424   0.883   0.102
 6214TIP3   OH218584   5.221   7.425   1.976
 6214TIP3    H118585   5.163   7.489   1.934
 6214TIP3    H218586   5.163   7.372   2.031
 6215TIP3   OH218587   0.309   2.994   0.524
 6215TIP3    H118588   0.365   2.927   0.485
 6215TIP3    H218589   0.258   3.028   0.450
 6216TIP3   OH218590   6.067   5.188   4.151
 6216TIP3    H118591   6.146   5.184   4.096
 6216TIP3    H218592   6.097   5.230   4.232
 6217TIP3   OH218593   5.532   4.766   6.732
 6217TIP3    H118594   5.606   4.716   6.699
 6217TIP3    H218595   5.532   4.847   6.679
 6218TIP3   OH218596   2.265   3.836   4.434
 6218TIP3    H118597   2.323   3.896   4.480
 6218TIP3    H218598   2.206   3.802   4.502
 6219TIP3   OH218599   1.078   1.901   0.092
 6219TIP3    H118600   1.018   1.953   0.145
 6219TIP3    H218601   1.142   1.867   0.154
 6220TIP3   OH218602   1.176   1.809   1.812
 6220TIP3    H118603   1.249   1.776   1.760
 6220TIP3    H218604   1.122   1.856   1.749
 6221TIP3   OH218605   6.614   4.016   3.840
 6221TIP3    H118606   6.700   4.052   3.815
 6221TIP3    H218607   6.561   4.025   3.761
 6222TIP3   OH218608   5.888   1.538   4.243
 6222TIP3    H118609   5.811   1.591   4.223
 6222TIP3    H218610   5.854   1.449   4.253
 6223TIP3   OH218611   2.269   3.737   0.615
 6223TIP3    H118612   2.299   3.770   0.531
 6223TIP3    H218613   2.225   3.812   0.656
 6224TIP3   OH218614   7.790   7.126   1.013
 6224TIP3    H118615   7.792   7.209   0.966
 6224TIP3    H218616   7.701   7.093   1.001
 6225TIP3   OH218617   2.279   3.861   6.735
 6225TIP3    H118618   2.225   3.798   6.687
 6225TIP3    H218619   2.333   3.808   6.793
 6226TIP3   OH218620   5.186   5.572   1.155
 6226TIP3    H118621   5.279   5.566   1.176
 6226TIP3    H218622   5.178   5.531   1.069
 6227TIP3   OH218623   5.556   1.346   3.438
 6227TIP3    H118624   5.651   1.363   3.439
 6227TIP3    H218625   5.517   1.432   3.423
 6228TIP3   OH218626   4.664   3.247   3.538
 6228TIP3    H118627   4.656   3.161   3.498
 6228TIP3    H218628   4.744   3.283   3.500
 6229TIP3   OH218629   2.501   1.429   0.788
 6229TIP3    H118630   2.438   1.501   0.796
 6229TIP3    H218631   2.556   1.453   0.714
 6230TIP3   OH218632   3.088   1.069   3.557
 6230TIP3    H118633   3.079   1.116   3.474
 6230TIP3    H218634   3.046   0.984   3.541
 6231TIP3   OH218635   5.012   7.695   3.310
 6231TIP3    H118636   4.986   7.605   3.332
 6231TIP3    H218637   4.956   7.718   3.236
 6232TIP3   OH218638   5.901   5.736   2.403
 6232TIP3    H118639   5.915   5.815   2.351
 6232TIP3    H218640   5.951   5.668   2.358
 6233TIP3   OH218641   5.912   2.735   5.744
 6233TIP3    H118642   5.910   2.685   5.662
 6233TIP3    H218643   5.821   2.738   5.772
 6234TIP3   OH218644   0.259   4.933   3.385
 6234TIP3    H118645   0.287   4.842   3.388
 6234TIP3    H218646   0.208   4.945   3.466
 6235TIP3   OH218647   0.438   0.289   4.455
 6235TIP3    H118648   0.527   0.280   4.491
 6235TIP3    H218649   0.416   0.381   4.469
 6236TIP3   OH218650   0.116   4.097   2.691
 6236TIP3    H118651   0.022   4.103   2.674
 6236TIP3    H218652   0.150   4.185   2.673
 6237TIP3   OH218653   7.058   3.361   4.612
 6237TIP3    H118654   7.101   3.437   4.572
 6237TIP3    H218655   7.129   3.299   4.627
 6238TIP3   OH218656   3.883   7.392   6.461
 6238TIP3    H118657   3.973   7.401   6.428
 6238TIP3    H218658   3.889   7.418   6.552
 6239TIP3   OH218659   7.070   1.188   2.253
 6239TIP3    H118660   7.017   1.220   2.180
 6239TIP3    H218661   7.006   1.153   2.315
 6240TIP3   OH218662   0.228   1.506   2.162
 6240TIP3    H118663   0.211   1.416   2.189
 6240TIP3    H218664   0.239   1.501   2.067
 6241TIP3   OH218665   6.407   2.384   4.246
 6241TIP3    H118666   6.383   2.343   4.163
 6241TIP3    H218667   6.330   2.434   4.272
 6242TIP3   OH218668   7.496   6.598   1.553
 6242TIP3    H118669   7.575   6.585   1.501
 6242TIP3    H218670   7.490   6.519   1.607
 6243TIP3   OH218671   5.504   2.186   2.691
 6243TIP3    H118672   5.452   2.143   2.623
 6243TIP3    H218673   5.528   2.271   2.653
 6244TIP3   OH218674   5.653   7.779   2.701
 6244TIP3    H118675   5.635   7.733   2.619
 6244TIP3    H218676   5.576   7.762   2.755
 6245TIP3   OH218677   1.126   3.748   5.117
 6245TIP3    H118678   1.198   3.753   5.055
 6245TIP3    H218679   1.098   3.839   5.128
 6246TIP3   OH218680   7.220   4.203   0.681
 6246TIP3    H118681   7.158   4.209   0.754
 6246TIP3    H218682   7.217   4.290   0.641
 6247TIP3   OH218683   6.903   0.893   5.431
 6247TIP3    H118684   6.893   0.813   5.483
 6247TIP3    H218685   6.988   0.928   5.458
 6248TIP3   OH218686   0.006   3.112   6.016
 6248TIP3    H118687  -0.028   3.193   5.977
 6248TIP3    H218688   0.087   3.138   6.058
 6249TIP3   OH218689   7.383   7.188   0.656
 6249TIP3    H118690   7.451   7.165   0.719
 6249TIP3    H218691   7.325   7.247   0.704
 6250TIP3   OH218692   6.256   2.283   1.782
 6250TIP3    H118693   6.289   2.312   1.868
 6250TIP3    H218694   6.250   2.364   1.731
 6251TIP3   OH218695   7.140   6.575   3.218
 6251TIP3    H118696   7.215   6.583   3.159
 6251TIP3    H218697   7.117   6.666   3.240
 6252TIP3   OH218698   3.168   2.552   0.278
 6252TIP3    H118699   3.203   2.517   0.360
 6252TIP3    H218700   3.205   2.641   0.273
 6253TIP3   OH218701   5.149   6.770   0.420
 6253TIP3    H118702   5.231   6.721   0.409
 6253TIP3    H218703   5.176   6.853   0.460
 6254TIP3   OH218704   3.254   7.188   3.450
 6254TIP3    H118705   3.339   7.159   3.417
 6254TIP3    H218706   3.196   7.113   3.437
 6255TIP3   OH218707   2.219   5.120   3.905
 6255TIP3    H118708   2.216   5.215   3.899
 6255TIP3    H218709   2.311   5.098   3.890
 6256TIP3   OH218710   8.168   2.624   4.980
 6256TIP3    H118711   8.163   2.539   4.936
 6256TIP3    H218712   8.165   2.603   5.074
 6257TIP3   OH218713   1.035   4.540   4.342
 6257TIP3    H118714   1.020   4.499   4.428
 6257TIP3    H218715   0.996   4.627   4.350
 6258TIP3   OH218716   4.885   5.841   4.757
 6258TIP3    H118717   4.967   5.888   4.741
 6258TIP3    H218718   4.825   5.874   4.690
 6259TIP3   OH218719   7.122   7.178   3.546
 6259TIP3    H118720   7.126   7.100   3.602
 6259TIP3    H218721   7.157   7.149   3.462
 6260TIP3   OH218722   7.792   4.769   6.757
 6260TIP3    H118723   7.759   4.693   6.709
 6260TIP3    H218724   7.845   4.732   6.827
 6261TIP3   OH218725   1.791   0.665   4.720
 6261TIP3    H118726   1.760   0.641   4.632
 6261TIP3    H218727   1.740   0.743   4.742
 6262TIP3   OH218728   7.935   1.265   3.442
 6262TIP3    H118729   7.867   1.256   3.509
 6262TIP3    H218730   7.893   1.313   3.371
 6263TIP3   OH218731   0.220   0.940   1.249
 6263TIP3    H118732   0.161   0.887   1.196
 6263TIP3    H218733   0.179   0.941   1.336
 6264TIP3   OH218734   1.912   0.587   6.412
 6264TIP3    H118735   1.879   0.523   6.475
 6264TIP3    H218736   1.869   0.669   6.437
 6265TIP3   OH218737   2.920   0.006   1.029
 6265TIP3    H118738   2.947   0.092   1.062
 6265TIP3    H218739   2.849  -0.021   1.087
 6266TIP3   OH218740   5.834   4.483   1.798
 6266TIP3    H118741   5.815   4.557   1.856
 6266TIP3    H218742   5.922   4.454   1.824
 6267TIP3   OH218743   2.525   3.484   1.379
 6267TIP3    H118744   2.526   3.558   1.439
 6267TIP3    H218745   2.552   3.409   1.432
 6268TIP3   OH218746   6.397   7.761   0.364
 6268TIP3    H118747   6.323   7.820   0.378
 6268TIP3    H218748   6.433   7.746   0.452
 6269TIP3   OH218749   2.754   5.134   4.139
 6269TIP3    H118750   2.748   5.229   4.125
 6269TIP3    H218751   2.761   5.097   4.051
 6270TIP3   OH218752   3.095   4.878   0.102
 6270TIP3    H118753   3.010   4.878   0.057
 6270TIP3    H218754   3.141   4.954   0.068
 6271TIP3   OH218755   6.630   6.567   3.876
 6271TIP3    H118756   6.622   6.663   3.872
 6271TIP3    H218757   6.666   6.543   3.791
 6272TIP3   OH218758   7.173   3.995   4.903
 6272TIP3    H118759   7.237   3.933   4.867
 6272TIP3    H218760   7.167   4.064   4.837
 6273TIP3   OH218761   1.444   5.164   3.333
 6273TIP3    H118762   1.419   5.074   3.355
 6273TIP3    H218763   1.370   5.197   3.282
 6274TIP3   OH218764   0.604   0.166   2.791
 6274TIP3    H118765   0.652   0.155   2.872
 6274TIP3    H218766   0.518   0.127   2.807
 6275TIP3   OH218767   2.115   3.031   3.342
 6275TIP3    H118768   2.067   3.090   3.284
 6275TIP3    H218769   2.077   3.045   3.428
 6276TIP3   OH218770   3.429   2.862   2.714
 6276TIP3    H118771   3.343   2.887   2.678
 6276TIP3    H218772   3.419   2.770   2.739
 6277TIP3   OH218773   7.696   2.128   0.556
 6277TIP3    H118774   7.653   2.183   0.621
 6277TIP3    H218775   7.788   2.156   0.559
 6278TIP3   OH218776   0.789   3.961   2.101
 6278TIP3    H118777   0.877   3.999   2.106
 6278TIP3    H218778   0.747   3.987   2.182
 6279TIP3   OH218779   1.087   5.820   0.361
 6279TIP3    H118780   1.059   5.734   0.329
 6279TIP3    H218781   1.011   5.855   0.408
 6280TIP3   OH218782   2.528   5.338   4.112
 6280TIP3    H118783   2.556   5.384   4.191
 6280TIP3    H218784   2.498   5.253   4.142
 6281TIP3   OH218785   4.692   3.094   1.888
 6281TIP3    H118786   4.693   3.091   1.984
 6281TIP3    H218787   4.781   3.121   1.864
 6282TIP3   OH218788   0.188   4.084   0.503
 6282TIP3    H118789   0.106   4.133   0.505
 6282TIP3    H218790   0.241   4.123   0.572
 6283TIP3   OH218791   3.119   1.704   1.922
 6283TIP3    H118792   3.196   1.685   1.868
 6283TIP3    H218793   3.132   1.652   2.001
 6284TIP3   OH218794   4.070   7.492   4.942
 6284TIP3    H118795   4.113   7.574   4.966
 6284TIP3    H218796   4.013   7.472   5.016
 6285TIP3   OH218797   4.593   2.855   5.573
 6285TIP3    H118798   4.578   2.928   5.512
 6285TIP3    H218799   4.612   2.780   5.516
 6286TIP3   OH218800   6.203   0.620   3.380
 6286TIP3    H118801   6.110   0.603   3.367
 6286TIP3    H218802   6.246   0.538   3.355
 6287TIP3   OH218803   8.206   5.145   0.684
 6287TIP3    H118804   8.176   5.235   0.698
 6287TIP3    H218805   8.296   5.155   0.654
 6288TIP3   OH218806   4.118   5.988   1.185
 6288TIP3    H118807   4.031   5.951   1.169
 6288TIP3    H218808   4.111   6.025   1.273
 6289TIP3   OH218809   4.609   2.557   1.205
 6289TIP3    H118810   4.669   2.594   1.140
 6289TIP3    H218811   4.599   2.465   1.179
 6290TIP3   OH218812   0.653   6.785   4.847
 6290TIP3    H118813   0.654   6.731   4.769
 6290TIP3    H218814   0.744   6.792   4.874
 6291TIP3   OH218815   3.890   7.600   5.153
 6291TIP3    H118816   3.915   7.624   5.242
 6291TIP3    H218817   3.833   7.670   5.123
 6292TIP3   OH218818   8.273   1.360   2.838
 6292TIP3    H118819   8.295   1.417   2.911
 6292TIP3    H218820   8.318   1.278   2.857
 6293TIP3   OH218821   1.862   1.110   5.817
 6293TIP3    H118822   1.885   1.161   5.740
 6293TIP3    H218823   1.926   1.039   5.820
 6294TIP3   OH218824   6.032   1.809   1.410
 6294TIP3    H118825   6.054   1.720   1.383
 6294TIP3    H218826   5.964   1.797   1.477
 6295TIP3   OH218827   2.390   5.729   1.436
 6295TIP3    H118828   2.462   5.681   1.477
 6295TIP3    H218829   2.406   5.720   1.342
 6296TIP3   OH218830   6.019   1.775   3.567
 6296TIP3    H118831   6.007   1.771   3.472
 6296TIP3    H218832   6.106   1.737   3.581
 6297TIP3   OH218833   5.568   5.886   3.719
 6297TIP3    H118834   5.626   5.961   3.702
 6297TIP3    H218835   5.626   5.810   3.714
 6298TIP3   OH218836   4.175   1.411   1.256
 6298TIP3    H118837   4.225   1.489   1.282
 6298TIP3    H218838   4.139   1.377   1.338
 6299TIP3   OH218839   1.771   7.818   4.190
 6299TIP3    H118840   1.837   7.773   4.242
 6299TIP3    H218841   1.788   7.790   4.100
 6300TIP3   OH218842   1.853   5.754   0.968
 6300TIP3    H118843   1.936   5.716   0.998
 6300TIP3    H218844   1.873   5.845   0.949
 6301TIP3   OH218845   2.853   6.426   0.477
 6301TIP3    H118846   2.937   6.441   0.520
 6301TIP3    H218847   2.853   6.488   0.404
 6302TIP3   OH218848   4.697   1.229   4.453
 6302TIP3    H118849   4.601   1.228   4.448
 6302TIP3    H218850   4.725   1.260   4.367
 6303TIP3   OH218851   0.645   0.570   4.963
 6303TIP3    H118852   0.607   0.532   4.884
 6303TIP3    H218853   0.590   0.537   5.034
 6304TIP3   OH218854   7.385   6.372   5.990
 6304TIP3    H118855   7.300   6.375   6.032
 6304TIP3    H218856   7.369   6.330   5.906
 6305TIP3   OH218857   0.049   6.951   6.774
 6305TIP3    H118858   0.038   7.019   6.707
 6305TIP3    H218859   0.000   6.876   6.740
 6306TIP3   OH218860   4.584   7.132   4.363
 6306TIP3    H118861   4.586   7.052   4.414
 6306TIP3    H218862   4.496   7.166   4.373
 6307TIP3   OH218863   1.125   2.960   5.205
 6307TIP3    H118864   1.160   2.995   5.123
 6307TIP3    H218865   1.196   2.907   5.241
 6308TIP3   OH218866   0.574   1.958   0.725
 6308TIP3    H118867   0.637   1.888   0.709
 6308TIP3    H218868   0.504   1.943   0.661
 6309TIP3   OH218869   2.838   2.905   4.892
 6309TIP3    H118870   2.912   2.859   4.853
 6309TIP3    H218871   2.761   2.859   4.858
 6310TIP3   OH218872   2.927   7.487   6.448
 6310TIP3    H118873   2.837   7.480   6.415
 6310TIP3    H218874   2.966   7.557   6.396
 6311TIP3   OH218875   4.053   7.047   6.640
 6311TIP3    H118876   4.092   7.130   6.612
 6311TIP3    H218877   4.128   6.992   6.662
 6312TIP3   OH218878   7.658   5.329   1.877
 6312TIP3    H118879   7.642   5.242   1.842
 6312TIP3    H218880   7.749   5.347   1.855
 6313TIP3   OH218881   4.835   3.149   4.353
 6313TIP3    H118882   4.890   3.130   4.428
 6313TIP3    H218883   4.748   3.167   4.390
 6314TIP3   OH218884   1.254   3.594   5.427
 6314TIP3    H118885   1.258   3.502   5.400
 6314TIP3    H218886   1.208   3.593   5.510
 6315TIP3   OH218887   3.589   5.376   4.555
 6315TIP3    H118888   3.661   5.405   4.611
 6315TIP3    H218889   3.581   5.282   4.572
 6316TIP3   OH218890   6.251   2.841   1.834
 6316TIP3    H118891   6.308   2.823   1.759
 6316TIP3    H218892   6.277   2.778   1.900
 6317TIP3   OH218893   0.351   3.244   5.929
 6317TIP3    H118894   0.395   3.171   5.884
 6317TIP3    H218895   0.371   3.230   6.021
 6318TIP3   OH218896   6.583   1.977   5.172
 6318TIP3    H118897   6.610   2.068   5.161
 6318TIP3    H218898   6.571   1.967   5.266
 6319TIP3   OH218899   2.018   4.829   3.929
 6319TIP3    H118900   2.096   4.828   3.874
 6319TIP3    H218901   2.016   4.742   3.971
 6320TIP3   OH218902   6.255   7.004   3.548
 6320TIP3    H118903   6.336   6.954   3.557
 6320TIP3    H218904   6.275   7.069   3.480
 6321TIP3   OH218905   2.508   0.339   1.856
 6321TIP3    H118906   2.415   0.349   1.835
 6321TIP3    H218907   2.551   0.342   1.770
 6322TIP3   OH218908   7.121   6.976   5.896
 6322TIP3    H118909   7.064   6.986   5.820
 6322TIP3    H218910   7.206   7.008   5.866
 6323TIP3   OH218911   5.619   5.492   0.268
 6323TIP3    H118912   5.685   5.533   0.323
 6323TIP3    H218913   5.537   5.533   0.293
 6324TIP3   OH218914   3.661   4.508   3.626
 6324TIP3    H118915   3.645   4.519   3.533
 6324TIP3    H218916   3.709   4.425   3.633
 6325TIP3   OH218917   6.268   7.021   1.915
 6325TIP3    H118918   6.345   7.050   1.866
 6325TIP3    H218919   6.278   6.926   1.920
 6326TIP3   OH218920   7.783   5.835   5.199
 6326TIP3    H118921   7.861   5.863   5.152
 6326TIP3    H218922   7.771   5.902   5.266
 6327TIP3   OH218923   4.909   7.781   1.943
 6327TIP3    H118924   5.003   7.763   1.934
 6327TIP3    H218925   4.896   7.866   1.901
 6328TIP3   OH218926   3.066   2.406   1.807
 6328TIP3    H118927   3.159   2.386   1.795
 6328TIP3    H218928   3.025   2.321   1.821
 6329TIP3   OH218929   3.995   1.849   5.382
 6329TIP3    H118930   3.968   1.924   5.328
 6329TIP3    H218931   4.072   1.815   5.337
 6330TIP3   OH218932   1.854   4.018   5.765
 6330TIP3    H118933   1.808   4.047   5.844
 6330TIP3    H218934   1.944   4.001   5.794
 6331TIP3   OH218935   5.998   2.495   5.150
 6331TIP3    H118936   5.926   2.557   5.142
 6331TIP3    H218937   6.058   2.519   5.079
 6332TIP3   OH218938   0.949   7.682   3.273
 6332TIP3    H118939   0.987   7.770   3.282
 6332TIP3    H218940   0.997   7.643   3.200
 6333TIP3   OH218941   4.434   3.555   6.471
 6333TIP3    H118942   4.458   3.622   6.407
 6333TIP3    H218943   4.424   3.475   6.418
 6334TIP3   OH218944   3.152   1.405   2.994
 6334TIP3    H118945   3.212   1.335   2.972
 6334TIP3    H218946   3.197   1.455   3.063
 6335TIP3   OH218947   6.586   0.715   1.438
 6335TIP3    H118948   6.570   0.649   1.370
 6335TIP3    H218949   6.682   0.724   1.440
 6336TIP3   OH218950   2.899   6.814   0.267
 6336TIP3    H118951   2.993   6.829   0.258
 6336TIP3    H218952   2.883   6.816   0.362
 6337TIP3   OH218953   1.356   4.454   4.653
 6337TIP3    H118954   1.269   4.474   4.688
 6337TIP3    H218955   1.389   4.385   4.710
 6338TIP3   OH218956   5.025   0.276   3.678
 6338TIP3    H118957   5.066   0.191   3.692
 6338TIP3    H218958   5.061   0.306   3.594
 6339TIP3   OH218959   4.585   2.836   4.145
 6339TIP3    H118960   4.548   2.822   4.057
 6339TIP3    H218961   4.663   2.890   4.130
 6340TIP3   OH218962   5.002   2.344   5.427
 6340TIP3    H118963   5.090   2.371   5.453
 6340TIP3    H218964   4.948   2.359   5.505
 6341TIP3   OH218965   6.674   6.751   0.831
 6341TIP3    H118966   6.750   6.722   0.782
 6341TIP3    H218967   6.604   6.756   0.766
 6342TIP3   OH218968   4.643   5.898   4.109
 6342TIP3    H118969   4.638   5.946   4.027
 6342TIP3    H218970   4.714   5.941   4.157
 6343TIP3   OH218971   0.556   3.302   2.013
 6343TIP3    H118972   0.522   3.250   2.086
 6343TIP3    H218973   0.639   3.338   2.045
 6344TIP3   OH218974   0.771   7.172   2.736
 6344TIP3    H118975   0.690   7.213   2.705
 6344TIP3    H218976   0.747   7.081   2.750
 6345TIP3   OH218977   3.333   6.384   4.118
 6345TIP3    H118978   3.290   6.315   4.068
 6345TIP3    H218979   3.342   6.456   4.055
 6346TIP3   OH218980   3.547   2.916   3.422
 6346TIP3    H118981   3.482   2.974   3.461
 6346TIP3    H218982   3.582   2.965   3.349
 6347TIP3   OH218983   7.709   4.918   0.802
 6347TIP3    H118984   7.634   4.931   0.860
 6347TIP3    H218985   7.672   4.922   0.714
 6348TIP3   OH218986   8.005   2.597   3.766
 6348TIP3    H118987   8.078   2.657   3.750
 6348TIP3    H218988   7.956   2.596   3.683
 6349TIP3   OH218989   6.411   7.038   6.361
 6349TIP3    H118990   6.495   7.018   6.319
 6349TIP3    H218991   6.422   7.126   6.397
 6350TIP3   OH218992   5.080   6.001   0.028
 6350TIP3    H118993   5.036   6.072   0.076
 6350TIP3    H218994   5.079   5.927   0.088
 6351TIP3   OH218995   5.381   3.620   6.578
 6351TIP3    H118996   5.304   3.677   6.581
 6351TIP3    H218997   5.453   3.676   6.608
 6352TIP3   OH218998   0.567   6.474   3.163
 6352TIP3    H118999   0.505   6.479   3.236
 6352TIP3    H219000   0.596   6.383   3.162
 6353TIP3   OH219001   4.920   5.120   6.565
 6353TIP3    H119002   4.856   5.064   6.609
 6353TIP3    H219003   4.919   5.091   6.474
 6354TIP3   OH219004   1.648   3.173   5.553
 6354TIP3    H119005   1.667   3.081   5.539
 6354TIP3    H219006   1.553   3.179   5.555
 6355TIP3   OH219007   5.599   1.047   5.135
 6355TIP3    H119008   5.641   0.962   5.152
 6355TIP3    H219009   5.670   1.110   5.143
 6356TIP3   OH219010   4.262   1.893   3.968
 6356TIP3    H119011   4.192   1.852   3.918
 6356TIP3    H219012   4.341   1.845   3.944
 6357TIP3   OH219013   0.487   1.066   1.499
 6357TIP3    H119014   0.561   1.059   1.440
 6357TIP3    H219015   0.446   0.980   1.497
 6358TIP3   OH219016   0.126   0.536   1.945
 6358TIP3    H119017   0.053   0.542   1.882
 6358TIP3    H219018   0.104   0.460   1.999
 6359TIP3   OH219019   3.949   1.254   2.574
 6359TIP3    H119020   3.912   1.263   2.662
 6359TIP3    H219021   3.940   1.161   2.553
 6360TIP3   OH219022   4.576   1.537   4.069
 6360TIP3    H119023   4.507   1.602   4.081
 6360TIP3    H219024   4.624   1.536   4.152
 6361TIP3   OH219025   7.303   4.807   1.332
 6361TIP3    H119026   7.346   4.800   1.247
 6361TIP3    H219027   7.306   4.901   1.353
 6362TIP3   OH219028   4.151   3.640   2.197
 6362TIP3    H119029   4.199   3.568   2.157
 6362TIP3    H219030   4.126   3.608   2.283
 6363TIP3   OH219031   4.201   1.833   3.372
 6363TIP3    H119032   4.113   1.819   3.337
 6363TIP3    H219033   4.259   1.790   3.309
 6364TIP3   OH219034   1.220   7.694   4.774
 6364TIP3    H119035   1.134   7.658   4.749
 6364TIP3    H219036   1.277   7.672   4.700
 6365TIP3   OH219037   2.099   4.285   2.506
 6365TIP3    H119038   2.155   4.208   2.507
 6365TIP3    H219039   2.018   4.256   2.465
 6366TIP3   OH219040   3.122   3.702   3.935
 6366TIP3    H119041   3.151   3.624   3.887
 6366TIP3    H219042   3.190   3.767   3.920
 6367TIP3   OH219043   3.646   1.619   1.713
 6367TIP3    H119044   3.645   1.541   1.768
 6367TIP3    H219045   3.739   1.637   1.698
 6368TIP3   OH219046   2.984   2.157   4.504
 6368TIP3    H119047   2.928   2.140   4.428
 6368TIP3    H219048   2.965   2.085   4.564
 6369TIP3   OH219049   1.742   7.155   5.823
 6369TIP3    H119050   1.756   7.070   5.780
 6369TIP3    H219051   1.725   7.215   5.751
 6370TIP3   OH219052   3.126   4.722   2.756
 6370TIP3    H119053   3.094   4.771   2.832
 6370TIP3    H219054   3.214   4.757   2.740
 6371TIP3   OH219055   2.163   5.662   2.366
 6371TIP3    H119056   2.126   5.638   2.280
 6371TIP3    H219057   2.169   5.580   2.413
 6372TIP3   OH219058   7.558   0.359   2.909
 6372TIP3    H119059   7.542   0.265   2.916
 6372TIP3    H219060   7.477   0.400   2.937
 6373TIP3   OH219061   7.123   5.448   4.718
 6373TIP3    H119062   7.082   5.392   4.653
 6373TIP3    H219063   7.181   5.506   4.667
 6374TIP3   OH219064   7.748   0.387   4.487
 6374TIP3    H119065   7.770   0.305   4.443
 6374TIP3    H219066   7.767   0.455   4.422
 6375TIP3   OH219067   2.838   0.155   3.500
 6375TIP3    H119068   2.792   0.072   3.487
 6375TIP3    H219069   2.768   0.218   3.518
 6376TIP3   OH219070   0.941   7.619   0.643
 6376TIP3    H119071   0.851   7.597   0.619
 6376TIP3    H219072   0.959   7.701   0.597
 6377TIP3   OH219073   5.915   1.897   6.097
 6377TIP3    H119074   5.947   1.957   6.029
 6377TIP3    H219075   5.993   1.872   6.146
 6378TIP3   OH219076   6.719   1.139   3.767
 6378TIP3    H119077   6.659   1.180   3.829
 6378TIP3    H219078   6.772   1.080   3.820
 6379TIP3   OH219079   7.580   0.714   0.824
 6379TIP3    H119080   7.602   0.807   0.832
 6379TIP3    H219081   7.577   0.698   0.730
 6380TIP3   OH219082   4.612   4.505   5.812
 6380TIP3    H119083   4.537   4.543   5.857
 6380TIP3    H219084   4.626   4.563   5.737
 6381TIP3   OH219085   7.375   1.677   2.696
 6381TIP3    H119086   7.303   1.725   2.736
 6381TIP3    H219087   7.385   1.599   2.750
 6382TIP3   OH219088   7.073   2.094   4.291
 6382TIP3    H119089   6.986   2.089   4.330
 6382TIP3    H219090   7.118   2.015   4.323
 6383TIP3   OH219091   1.283   1.856   3.366
 6383TIP3    H119092   1.343   1.860   3.440
 6383TIP3    H219093   1.198   1.881   3.403
 6384TIP3   OH219094   0.006   1.469   0.006
 6384TIP3    H119095  -0.085   1.474   0.034
 6384TIP3    H219096   0.056   1.497   0.083
 6385TIP3   OH219097   0.447   4.488   0.677
 6385TIP3    H119098   0.434   4.556   0.611
 6385TIP3    H219099   0.404   4.523   0.756
 6386TIP3   OH219100   6.185   1.273   0.534
 6386TIP3    H119101   6.140   1.278   0.619
 6386TIP3    H219102   6.278   1.267   0.558
 6387TIP3   OH219103   6.019   3.271   4.226
 6387TIP3    H119104   6.044   3.350   4.274
 6387TIP3    H219105   6.091   3.256   4.165
 6388TIP3   OH219106   7.780   7.682   4.145
 6388TIP3    H119107   7.720   7.738   4.095
 6388TIP3    H219108   7.722   7.618   4.188
 6389TIP3   OH219109   3.473   6.259   2.005
 6389TIP3    H119110   3.525   6.258   1.924
 6389TIP3    H219111   3.404   6.195   1.989
 6390TIP3   OH219112   0.683   4.220   3.575
 6390TIP3    H119113   0.593   4.251   3.572
 6390TIP3    H219114   0.710   4.234   3.665
 6391TIP3   OH219115   7.555   0.736   2.400
 6391TIP3    H119116   7.596   0.658   2.365
 6391TIP3    H219117   7.461   0.721   2.389
 6392TIP3   OH219118   2.032   2.699   2.465
 6392TIP3    H119119   1.954   2.747   2.493
 6392TIP3    H219120   2.018   2.611   2.499
 6393TIP3   OH219121   1.504   6.093   2.224
 6393TIP3    H119122   1.414   6.113   2.197
 6393TIP3    H219123   1.558   6.114   2.148
 6394TIP3   OH219124   2.079   1.101   1.787
 6394TIP3    H119125   2.114   1.100   1.698
 6394TIP3    H219126   2.116   1.180   1.826
 6395TIP3   OH219127   3.835   5.550   2.948
 6395TIP3    H119128   3.836   5.501   3.030
 6395TIP3    H219129   3.926   5.554   2.921
 6396TIP3   OH219130   7.650   2.335   5.072
 6396TIP3    H119131   7.606   2.312   4.991
 6396TIP3    H219132   7.619   2.270   5.136
 6397TIP3   OH219133   6.712   1.711   5.138
 6397TIP3    H119134   6.702   1.676   5.227
 6397TIP3    H219135   6.672   1.798   5.142
 6398TIP3   OH219136   3.768   7.348   1.312
 6398TIP3    H119137   3.690   7.391   1.279
 6398TIP3    H219138   3.734   7.279   1.370
 6399TIP3   OH219139   8.072   7.357   0.597
 6399TIP3    H119140   8.088   7.412   0.520
 6399TIP3    H219141   8.157   7.351   0.640
 6400TIP3   OH219142   7.794   2.745   0.673
 6400TIP3    H119143   7.795   2.710   0.584
 6400TIP3    H219144   7.701   2.756   0.693
 6401TIP3   OH219145   5.398   4.012   3.004
 6401TIP3    H119146   5.365   3.923   2.999
 6401TIP3    H219147   5.428   4.031   2.915
 6402TIP3   OH219148   7.670   7.186   3.672
 6402TIP3    H119149   7.765   7.191   3.678
 6402TIP3    H219150   7.647   7.249   3.603
 6403TIP3   OH219151   1.368   1.904   6.042
 6403TIP3    H119152   1.296   1.863   6.091
 6403TIP3    H219153   1.342   1.896   5.950
 6404TIP3   OH219154   6.566   1.497   4.883
 6404TIP3    H119155   6.609   1.510   4.967
 6404TIP3    H219156   6.473   1.494   4.903
 6405TIP3   OH219157   6.781   7.425   3.407
 6405TIP3    H119158   6.789   7.390   3.319
 6405TIP3    H219159   6.687   7.429   3.423
 6406TIP3   OH219160   5.853   5.292   2.764
 6406TIP3    H119161   5.898   5.355   2.821
 6406TIP3    H219162   5.792   5.247   2.822
 6407TIP3   OH219163   1.665   2.567   5.559
 6407TIP3    H119164   1.601   2.541   5.493
 6407TIP3    H219165   1.743   2.591   5.508
 6408TIP3   OH219166   7.153   5.507   4.989
 6408TIP3    H119167   7.090   5.563   5.034
 6408TIP3    H219168   7.108   5.480   4.909
 6409TIP3   OH219169   2.436   2.772   3.407
 6409TIP3    H119170   2.399   2.802   3.324
 6409TIP3    H219171   2.360   2.757   3.463
 6410TIP3   OH219172   2.771   0.740   0.343
 6410TIP3    H119173   2.709   0.800   0.302
 6410TIP3    H219174   2.857   0.777   0.323
 6411TIP3   OH219175   5.378   1.891   1.329
 6411TIP3    H119176   5.390   1.984   1.348
 6411TIP3    H219177   5.447   1.870   1.266
 6412TIP3   OH219178   0.916   1.109   3.932
 6412TIP3    H119179   0.880   1.169   3.998
 6412TIP3    H219180   0.882   1.023   3.957
 6413TIP3   OH219181   7.846   2.338   6.222
 6413TIP3    H119182   7.931   2.364   6.260
 6413TIP3    H219183   7.781   2.385   6.274
 6414TIP3   OH219184   5.091   6.710   4.828
 6414TIP3    H119185   5.099   6.625   4.785
 6414TIP3    H219186   4.997   6.723   4.839
 6415TIP3   OH219187   3.891   3.714   1.814
 6415TIP3    H119188   3.968   3.675   1.772
 6415TIP3    H219189   3.927   3.769   1.884
 6416TIP3   OH219190   7.746   5.199   1.407
 6416TIP3    H119191   7.717   5.213   1.317
 6416TIP3    H219192   7.731   5.284   1.450
 6417TIP3   OH219193   3.886   5.659   2.159
 6417TIP3    H119194   3.914   5.603   2.232
 6417TIP3    H219195   3.929   5.743   2.176
 6418TIP3   OH219196   4.076   7.765   2.107
 6418TIP3    H119197   4.032   7.751   2.023
 6418TIP3    H219198   4.005   7.782   2.169
 6419TIP3   OH219199   3.463   5.902   6.689
 6419TIP3    H119200   3.449   5.942   6.603
 6419TIP3    H219201   3.374   5.889   6.723
 6420TIP3   OH219202   2.854   0.487   3.710
 6420TIP3    H119203   2.866   0.398   3.742
 6420TIP3    H219204   2.907   0.492   3.631
 6421TIP3   OH219205   2.281   4.177   0.981
 6421TIP3    H119206   2.334   4.254   0.962
 6421TIP3    H219207   2.191   4.210   0.980
 6422TIP3   OH219208   5.411   3.974   0.724
 6422TIP3    H119209   5.482   4.035   0.742
 6422TIP3    H219210   5.394   3.931   0.808
 6423TIP3   OH219211   6.994   0.250   2.948
 6423TIP3    H119212   7.032   0.320   3.001
 6423TIP3    H219213   6.995   0.174   3.006
 6424TIP3   OH219214   1.334   0.629   1.395
 6424TIP3    H119215   1.369   0.592   1.477
 6424TIP3    H219216   1.291   0.711   1.423
 6425TIP3   OH219217   0.920   1.185   0.050
 6425TIP3    H119218   0.884   1.272   0.036
 6425TIP3    H219219   0.933   1.179   0.145
 6426TIP3   OH219220   7.067   6.017   2.061
 6426TIP3    H119221   7.155   6.053   2.072
 6426TIP3    H219222   7.070   5.969   1.978
 6427TIP3   OH219223   2.397   6.448   1.526
 6427TIP3    H119224   2.370   6.388   1.596
 6427TIP3    H219225   2.334   6.519   1.530
 6428TIP3   OH219226   7.100   7.596   5.788
 6428TIP3    H119227   7.115   7.575   5.880
 6428TIP3    H219228   7.047   7.676   5.790
 6429TIP3   OH219229   0.911   5.677   0.131
 6429TIP3    H119230   0.871   5.745   0.078
 6429TIP3    H219231   0.947   5.614   0.068
 6430TIP3   OH219232   2.142   3.905   5.390
 6430TIP3    H119233   2.137   3.840   5.460
 6430TIP3    H219234   2.129   3.989   5.434
 6431TIP3   OH219235   7.057   3.042   3.989
 6431TIP3    H119236   7.080   3.133   4.007
 6431TIP3    H219237   7.037   3.040   3.896
 6432TIP3   OH219238   3.783   3.169   4.596
 6432TIP3    H119239   3.876   3.153   4.582
 6432TIP3    H219240   3.748   3.087   4.630
 6433TIP3   OH219241   1.625   5.572   0.903
 6433TIP3    H119242   1.602   5.584   0.811
 6433TIP3    H219243   1.711   5.614   0.913
 6434TIP3   OH219244   3.313   1.206   4.008
 6434TIP3    H119245   3.381   1.267   3.981
 6434TIP3    H219246   3.256   1.199   3.931
 6435TIP3   OH219247   0.280   5.268   4.043
 6435TIP3    H119248   0.246   5.357   4.037
 6435TIP3    H219249   0.375   5.279   4.050
 6436TIP3   OH219250   6.889   4.331   4.718
 6436TIP3    H119251   6.885   4.298   4.807
 6436TIP3    H219252   6.935   4.414   4.725
 6437TIP3   OH219253   1.662   3.057   0.871
 6437TIP3    H119254   1.693   2.967   0.868
 6437TIP3    H219255   1.595   3.062   0.803
 6438TIP3   OH219256   6.610   6.326   4.462
 6438TIP3    H119257   6.546   6.378   4.413
 6438TIP3    H219258   6.651   6.270   4.396
 6439TIP3   OH219259   3.467   0.750   4.585
 6439TIP3    H119260   3.504   0.802   4.513
 6439TIP3    H219261   3.543   0.718   4.633
 6440TIP3   OH219262   6.238   0.154   1.527
 6440TIP3    H119263   6.178   0.138   1.600
 6440TIP3    H219264   6.287   0.073   1.517
 6441TIP3   OH219265   2.665   0.670   3.852
 6441TIP3    H119266   2.733   0.626   3.802
 6441TIP3    H219267   2.592   0.679   3.791
 6442TIP3   OH219268   5.630   2.130   1.607
 6442TIP3    H119269   5.549   2.177   1.626
 6442TIP3    H219270   5.639   2.135   1.512
 6443TIP3   OH219271   0.935   3.347   0.119
 6443TIP3    H119272   0.977   3.332   0.034
 6443TIP3    H219273   0.853   3.391   0.098
 6444TIP3   OH219274   7.695   0.921   5.547
 6444TIP3    H119275   7.786   0.937   5.523
 6444TIP3    H219276   7.695   0.834   5.587
 6445TIP3   OH219277   1.984   5.910   3.698
 6445TIP3    H119278   1.927   5.867   3.634
 6445TIP3    H219279   1.929   5.978   3.738
 6446TIP3   OH219280   1.722   1.489   5.676
 6446TIP3    H119281   1.816   1.509   5.678
 6446TIP3    H219282   1.693   1.517   5.589
 6447TIP3   OH219283   3.853   0.794   4.633
 6447TIP3    H119284   3.921   0.803   4.699
 6447TIP3    H219285   3.896   0.750   4.559
 6448TIP3   OH219286   2.943   2.167   0.176
 6448TIP3    H119287   2.938   2.263   0.179
 6448TIP3    H219288   2.901   2.139   0.257
 6449TIP3   OH219289   0.760   4.072   0.558
 6449TIP3    H119290   0.807   4.030   0.630
 6449TIP3    H219291   0.711   4.001   0.516
 6450TIP3   OH219292   0.490   5.288   1.062
 6450TIP3    H119293   0.405   5.315   1.027
 6450TIP3    H219294   0.554   5.337   1.010
 6451TIP3   OH219295   2.797   7.292   0.885
 6451TIP3    H119296   2.708   7.289   0.921
 6451TIP3    H219297   2.786   7.325   0.796
 6452TIP3   OH219298   8.238   1.176   2.251
 6452TIP3    H119299   8.242   1.176   2.346
 6452TIP3    H219300   8.183   1.100   2.229
 6453TIP3   OH219301   7.014   1.625   6.199
 6453TIP3    H119302   7.003   1.717   6.174
 6453TIP3    H219303   7.041   1.628   6.291
 6454TIP3   OH219304   8.121   4.421   1.407
 6454TIP3    H119305   8.185   4.423   1.479
 6454TIP3    H219306   8.163   4.368   1.339
 6455TIP3   OH219307   7.307   0.826   0.764
 6455TIP3    H119308   7.395   0.789   0.757
 6455TIP3    H219309   7.252   0.767   0.713
 6456TIP3   OH219310   4.685   5.756   0.433
 6456TIP3    H119311   4.616   5.693   0.412
 6456TIP3    H219312   4.638   5.831   0.469
 6457TIP3   OH219313   3.151   6.094   1.439
 6457TIP3    H119314   3.134   6.162   1.504
 6457TIP3    H219315   3.107   6.126   1.360
 6458TIP3   OH219316   2.495   1.050   4.814
 6458TIP3    H119317   2.415   1.012   4.778
 6458TIP3    H219318   2.563   0.984   4.798
 6459TIP3   OH219319   1.292   4.260   5.982
 6459TIP3    H119320   1.216   4.314   5.959
 6459TIP3    H219321   1.352   4.320   6.026
 6460TIP3   OH219322   4.926   0.234   2.941
 6460TIP3    H119323   5.006   0.254   2.989
 6460TIP3    H219324   4.905   0.314   2.894
 6461TIP3   OH219325   7.311   5.636   2.456
 6461TIP3    H119326   7.279   5.629   2.546
 6461TIP3    H219327   7.256   5.575   2.406
 6462TIP3   OH219328   3.291   4.494   1.095
 6462TIP3    H119329   3.289   4.455   1.182
 6462TIP3    H219330   3.333   4.579   1.108
 6463TIP3   OH219331   5.685   5.650   3.981
 6463TIP3    H119332   5.758   5.589   3.975
 6463TIP3    H219333   5.610   5.601   3.950
 6464TIP3   OH219334   1.787   2.279   6.683
 6464TIP3    H119335   1.722   2.294   6.614
 6464TIP3    H219336   1.812   2.187   6.673
 6465TIP3   OH219337   7.342   7.261   1.082
 6465TIP3    H119338   7.360   7.336   1.025
 6465TIP3    H219339   7.394   7.278   1.161
 6466TIP3   OH219340   2.682   1.355   2.918
 6466TIP3    H119341   2.631   1.352   2.837
 6466TIP3    H219342   2.686   1.263   2.946
 6467TIP3   OH219343   5.579   6.849   2.637
 6467TIP3    H119344   5.610   6.778   2.693
 6467TIP3    H219345   5.654   6.908   2.630
 6468TIP3   OH219346   7.053   4.496   0.006
 6468TIP3    H119347   7.094   4.465  -0.074
 6468TIP3    H219348   6.979   4.549  -0.024
 6469TIP3   OH219349   5.760   6.041   5.916
 6469TIP3    H119350   5.824   6.010   5.981
 6469TIP3    H219351   5.806   6.108   5.866
 6470TIP3   OH219352   5.403   6.137   6.472
 6470TIP3    H119353   5.354   6.218   6.474
 6470TIP3    H219354   5.493   6.164   6.453
 6471TIP3   OH219355   6.891   5.326   5.760
 6471TIP3    H119356   6.967   5.368   5.800
 6471TIP3    H219357   6.829   5.397   5.744
 6472TIP3   OH219358   5.106   0.693   1.703
 6472TIP3    H119359   5.137   0.622   1.646
 6472TIP3    H219360   5.034   0.733   1.654
 6473TIP3   OH219361   1.945   1.582   5.384
 6473TIP3    H119362   1.952   1.486   5.384
 6473TIP3    H219363   1.851   1.599   5.394
 6474TIP3   OH219364   5.680   3.331   2.683
 6474TIP3    H119365   5.650   3.241   2.672
 6474TIP3    H219366   5.657   3.374   2.601
 6475TIP3   OH219367   7.378   4.156   0.449
 6475TIP3    H119368   7.337   4.210   0.517
 6475TIP3    H219369   7.470   4.184   0.448
 6476TIP3   OH219370   5.188   4.875   0.487
 6476TIP3    H119371   5.280   4.900   0.497
 6476TIP3    H219372   5.162   4.843   0.573
 6477TIP3   OH219373   6.089   3.442   2.595
 6477TIP3    H119374   6.022   3.390   2.550
 6477TIP3    H219375   6.040   3.513   2.637
 6478TIP3   OH219376   1.724   1.583   4.560
 6478TIP3    H119377   1.754   1.570   4.651
 6478TIP3    H219378   1.731   1.677   4.546
 6479TIP3   OH219379   7.372   6.279   3.566
 6479TIP3    H119380   7.388   6.238   3.651
 6479TIP3    H219381   7.318   6.355   3.586
 6480TIP3   OH219382   5.864   6.362   0.739
 6480TIP3    H119383   5.902   6.449   0.752
 6480TIP3    H219384   5.934   6.301   0.763
 6481TIP3   OH219385   2.483   3.046   6.185
 6481TIP3    H119386   2.440   3.016   6.265
 6481TIP3    H219387   2.413   3.089   6.136
 6482TIP3   OH219388   3.366   0.726   5.623
 6482TIP3    H119389   3.311   0.687   5.554
 6482TIP3    H219390   3.320   0.705   5.704
 6483TIP3   OH219391   4.497   5.768   2.223
 6483TIP3    H119392   4.572   5.716   2.253
 6483TIP3    H219393   4.475   5.823   2.298
 6484TIP3   OH219394   2.600   2.112   0.195
 6484TIP3    H119395   2.586   2.206   0.199
 6484TIP3    H219396   2.651   2.092   0.274
 6485TIP3   OH219397   3.291   1.606   3.107
 6485TIP3    H119398   3.341   1.627   3.186
 6485TIP3    H219399   3.202   1.634   3.126
 6486TIP3   OH219400   4.226   2.467   5.762
 6486TIP3    H119401   4.314   2.481   5.727
 6486TIP3    H219402   4.194   2.555   5.783
 6487TIP3   OH219403   5.943   4.673   6.390
 6487TIP3    H119404   5.946   4.717   6.305
 6487TIP3    H219405   5.868   4.714   6.436
 6488TIP3   OH219406   0.919   5.406   5.782
 6488TIP3    H119407   0.891   5.331   5.834
 6488TIP3    H219408   1.015   5.400   5.781
 6489TIP3   OH219409   3.825   1.749   3.773
 6489TIP3    H119410   3.755   1.802   3.736
 6489TIP3    H219411   3.798   1.734   3.864
 6490TIP3   OH219412   7.649   1.510   5.881
 6490TIP3    H119413   7.721   1.570   5.862
 6490TIP3    H219414   7.615   1.485   5.795
 6491TIP3   OH219415   7.295   1.518   2.451
 6491TIP3    H119416   7.332   1.570   2.523
 6491TIP3    H219417   7.200   1.530   2.460
 6492TIP3   OH219418   6.258   2.942   0.743
 6492TIP3    H119419   6.350   2.964   0.724
 6492TIP3    H219420   6.263   2.876   0.812
 6493TIP3   OH219421   2.188   3.128   1.862
 6493TIP3    H119422   2.104   3.136   1.906
 6493TIP3    H219423   2.236   3.062   1.913
 6494TIP3   OH219424   4.019   4.249   0.376
 6494TIP3    H119425   4.087   4.232   0.310
 6494TIP3    H219426   3.938   4.260   0.325
 6495TIP3   OH219427   4.195   2.233   2.226
 6495TIP3    H119428   4.212   2.193   2.311
 6495TIP3    H219429   4.274   2.283   2.206
 6496TIP3   OH219430   6.842   1.145   3.323
 6496TIP3    H119431   6.759   1.109   3.290
 6496TIP3    H219432   6.843   1.235   3.291
 6497TIP3   OH219433   0.186   7.118   2.096
 6497TIP3    H119434   0.189   7.155   2.008
 6497TIP3    H219435   0.122   7.047   2.091
 6498TIP3   OH219436   6.506   5.561   6.413
 6498TIP3    H119437   6.455   5.601   6.343
 6498TIP3    H219438   6.521   5.632   6.475
 6499TIP3   OH219439   4.011   0.568   0.353
 6499TIP3    H119440   4.040   0.643   0.406
 6499TIP3    H219441   3.918   0.585   0.337
 6500TIP3   OH219442   1.579   7.135   5.114
 6500TIP3    H119443   1.663   7.091   5.104
 6500TIP3    H219444   1.539   7.131   5.027
 6501TIP3   OH219445   1.603   0.704   6.063
 6501TIP3    H119446   1.624   0.783   6.112
 6501TIP3    H219447   1.685   0.678   6.022
 6502TIP3   OH219448   5.061   2.025   2.027
 6502TIP3    H119449   5.017   2.038   2.110
 6502TIP3    H219450   5.052   1.931   2.010
 6503TIP3   OH219451   5.163   3.327   1.745
 6503TIP3    H119452   5.240   3.383   1.746
 6503TIP3    H219453   5.095   3.378   1.790
 6504TIP3   OH219454   4.456   1.889   5.070
 6504TIP3    H119455   4.477   1.814   5.126
 6504TIP3    H219456   4.502   1.963   5.110
 6505TIP3   OH219457   2.902   4.838   3.205
 6505TIP3    H119458   2.818   4.877   3.229
 6505TIP3    H219459   2.966   4.883   3.261
 6506TIP3   OH219460   5.415   4.398   5.505
 6506TIP3    H119461   5.420   4.314   5.550
 6506TIP3    H219462   5.452   4.381   5.418
 6507TIP3   OH219463   6.846   4.750   0.251
 6507TIP3    H119464   6.886   4.740   0.338
 6507TIP3    H219465   6.760   4.788   0.269
 6508TIP3   OH219466   5.908   7.103   1.899
 6508TIP3    H119467   5.818   7.096   1.869
 6508TIP3    H219468   5.960   7.058   1.832
 6509TIP3   OH219469   7.496   0.679   0.553
 6509TIP3    H119470   7.513   0.745   0.486
 6509TIP3    H219471   7.437   0.617   0.511
 6510TIP3   OH219472   3.751   5.847   4.677
 6510TIP3    H119473   3.783   5.786   4.611
 6510TIP3    H219474   3.808   5.923   4.669
 6511TIP3   OH219475   5.578   4.529   3.446
 6511TIP3    H119476   5.487   4.550   3.424
 6511TIP3    H219477   5.630   4.590   3.394
 6512TIP3   OH219478   5.016   6.550   4.164
 6512TIP3    H119479   5.049   6.628   4.209
 6512TIP3    H219480   5.069   6.545   4.084
 6513TIP3   OH219481   0.839   1.555   3.219
 6513TIP3    H119482   0.903   1.617   3.254
 6513TIP3    H219483   0.870   1.469   3.250
 6514TIP3   OH219484   8.281   3.409   4.722
 6514TIP3    H119485   8.307   3.413   4.814
 6514TIP3    H219486   8.186   3.408   4.723
 6515TIP3   OH219487   4.758   6.975   5.439
 6515TIP3    H119488   4.705   6.911   5.391
 6515TIP3    H219489   4.802   6.924   5.507
 6516TIP3   OH219490   0.842   3.336   5.063
 6516TIP3    H119491   0.766   3.361   5.115
 6516TIP3    H219492   0.917   3.367   5.113
 6517TIP3   OH219493   1.319   0.125   6.478
 6517TIP3    H119494   1.357   0.201   6.522
 6517TIP3    H219495   1.298   0.064   6.549
 6518TIP3   OH219496   6.215   1.180   5.265
 6518TIP3    H119497   6.122   1.162   5.278
 6518TIP3    H219498   6.256   1.156   5.348
 6519TIP3   OH219499   1.549   6.326   1.009
 6519TIP3    H119500   1.513   6.414   1.012
 6519TIP3    H219501   1.533   6.291   1.097
 6520TIP3   OH219502   1.979   5.813   4.134
 6520TIP3    H119503   1.888   5.787   4.149
 6520TIP3    H219504   2.024   5.788   4.214
 6521TIP3   OH219505   3.311   2.765   0.141
 6521TIP3    H119506   3.310   2.858   0.117
 6521TIP3    H219507   3.378   2.726   0.083
 6522TIP3   OH219508   2.768   4.919   0.147
 6522TIP3    H119509   2.826   4.966   0.208
 6522TIP3    H219510   2.717   4.988   0.105
 6523TIP3   OH219511   1.637   3.259   5.053
 6523TIP3    H119512   1.631   3.307   5.135
 6523TIP3    H219513   1.614   3.322   4.986
 6524TIP3   OH219514   0.295   7.313   4.938
 6524TIP3    H119515   0.225   7.375   4.917
 6524TIP3    H219516   0.285   7.243   4.874
 6525TIP3   OH219517   4.907   7.088   2.195
 6525TIP3    H119518   4.971   7.019   2.215
 6525TIP3    H219519   4.822   7.045   2.203
 6526TIP3   OH219520   5.486   0.675   4.182
 6526TIP3    H119521   5.435   0.603   4.144
 6526TIP3    H219522   5.442   0.695   4.264
 6527TIP3   OH219523   0.468   1.976   5.466
 6527TIP3    H119524   0.511   1.957   5.550
 6527TIP3    H219525   0.377   1.997   5.490
 6528TIP3   OH219526   5.378   7.570   1.791
 6528TIP3    H119527   5.354   7.487   1.833
 6528TIP3    H219528   5.396   7.547   1.700
 6529TIP3   OH219529   6.588   0.096   1.711
 6529TIP3    H119530   6.679   0.105   1.685
 6529TIP3    H219531   6.579   0.151   1.789
 6530TIP3   OH219532   1.454   5.939   6.177
 6530TIP3    H119533   1.477   5.880   6.106
 6530TIP3    H219534   1.450   6.025   6.137
 6531TIP3   OH219535   5.000   5.856   2.556
 6531TIP3    H119536   4.994   5.951   2.546
 6531TIP3    H219537   4.942   5.821   2.489
 6532TIP3   OH219538   7.983   4.281   1.708
 6532TIP3    H119539   7.889   4.282   1.727
 6532TIP3    H219540   7.989   4.309   1.616
 6533TIP3   OH219541   3.795   2.531   4.047
 6533TIP3    H119542   3.770   2.538   3.955
 6533TIP3    H219543   3.713   2.515   4.093
 6534TIP3   OH219544   2.723   7.669   3.223
 6534TIP3    H119545   2.677   7.681   3.140
 6534TIP3    H219546   2.807   7.631   3.199
 6535TIP3   OH219547   3.171   5.045   1.464
 6535TIP3    H119548   3.151   5.130   1.424
 6535TIP3    H219549   3.086   5.001   1.470
 6536TIP3   OH219550   6.434   1.021   6.452
 6536TIP3    H119551   6.344   1.051   6.442
 6536TIP3    H219552   6.447   1.018   6.547
 6537TIP3   OH219553   0.409   3.526   2.828
 6537TIP3    H119554   0.503   3.521   2.849
 6537TIP3    H219555   0.383   3.435   2.815
 6538TIP3   OH219556   2.654   2.263   3.339
 6538TIP3    H119557   2.624   2.325   3.272
 6538TIP3    H219558   2.749   2.275   3.342
 6539TIP3   OH219559   1.829   3.204   0.599
 6539TIP3    H119560   1.892   3.207   0.526
 6539TIP3    H219561   1.865   3.138   0.658
 6540TIP3   OH219562   0.773   7.536   3.011
 6540TIP3    H119563   0.837   7.464   3.016
 6540TIP3    H219564   0.767   7.569   3.101
 6541TIP3   OH219565   7.679   0.790   5.278
 6541TIP3    H119566   7.767   0.763   5.252
 6541TIP3    H219567   7.693   0.851   5.350
 6542TIP3   OH219568   3.340   5.182   0.617
 6542TIP3    H119569   3.302   5.124   0.683
 6542TIP3    H219570   3.371   5.123   0.548
 6543TIP3   OH219571   8.234   0.603   4.881
 6543TIP3    H119572   8.287   0.575   4.806
 6543TIP3    H219573   8.164   0.537   4.886
 6544TIP3   OH219574   7.193   1.851   2.816
 6544TIP3    H119575   7.209   1.939   2.850
 6544TIP3    H219576   7.109   1.859   2.771
 6545TIP3   OH219577   4.883   3.806   4.583
 6545TIP3    H119578   4.956   3.866   4.567
 6545TIP3    H219579   4.889   3.741   4.513
 6546TIP3   OH219580   2.449   5.025   4.145
 6546TIP3    H119581   2.472   4.977   4.066
 6546TIP3    H219582   2.520   5.007   4.206
 6547TIP3   OH219583   0.835   5.051   4.003
 6547TIP3    H119584   0.863   5.006   4.083
 6547TIP3    H219585   0.766   4.995   3.968
 6548TIP3   OH219586   4.750   2.778   0.685
 6548TIP3    H119587   4.782   2.776   0.775
 6548TIP3    H219588   4.657   2.758   0.692
 6549TIP3   OH219589   7.593   2.924   2.038
 6549TIP3    H119590   7.502   2.895   2.040
 6549TIP3    H219591   7.593   2.998   1.977
 6550TIP3   OH219592   6.628   1.229   5.085
 6550TIP3    H119593   6.681   1.309   5.086
 6550TIP3    H219594   6.677   1.168   5.030
 6551TIP3   OH219595   0.224   1.482   0.665
 6551TIP3    H119596   0.243   1.567   0.704
 6551TIP3    H219597   0.243   1.492   0.572
 6552TIP3   OH219598   3.962   4.387   6.665
 6552TIP3    H119599   4.051   4.418   6.649
 6552TIP3    H219600   3.950   4.394   6.759
 6553TIP3   OH219601   0.625   0.271   3.159
 6553TIP3    H119602   0.637   0.366   3.163
 6553TIP3    H219603   0.535   0.256   3.189
 6554TIP3   OH219604   7.349   1.691   3.374
 6554TIP3    H119605   7.377   1.691   3.282
 6554TIP3    H219606   7.303   1.774   3.384
 6555TIP3   OH219607   7.724   4.813   5.429
 6555TIP3    H119608   7.684   4.900   5.436
 6555TIP3    H219609   7.714   4.775   5.516
 6556TIP3   OH219610   6.349   5.898   0.710
 6556TIP3    H119611   6.356   5.836   0.638
 6556TIP3    H219612   6.440   5.917   0.733
 6557TIP3   OH219613   1.989   6.738   4.032
 6557TIP3    H119614   1.971   6.644   4.023
 6557TIP3    H219615   1.996   6.752   4.126
 6558TIP3   OH219616   3.843   4.607   2.961
 6558TIP3    H119617   3.801   4.614   3.047
 6558TIP3    H219618   3.808   4.682   2.912
 6559TIP3   OH219619   1.513   1.011   2.349
 6559TIP3    H119620   1.561   0.931   2.328
 6559TIP3    H219621   1.461   1.029   2.271
 6560TIP3   OH219622   2.592   3.263   5.011
 6560TIP3    H119623   2.669   3.207   5.010
 6560TIP3    H219624   2.624   3.347   5.046
 6561TIP3   OH219625   6.299   6.500   5.964
 6561TIP3    H119626   6.264   6.539   6.045
 6561TIP3    H219627   6.287   6.568   5.898
 6562TIP3   OH219628   2.639   7.823   1.661
 6562TIP3    H119629   2.662   7.776   1.741
 6562TIP3    H219630   2.543   7.817   1.656
 6563TIP3   OH219631   7.132   5.479   3.828
 6563TIP3    H119632   7.170   5.433   3.903
 6563TIP3    H219633   7.132   5.414   3.757
 6564TIP3   OH219634   2.341   3.554   6.686
 6564TIP3    H119635   2.369   3.530   6.775
 6564TIP3    H219636   2.271   3.492   6.666
 6565TIP3   OH219637   6.910   5.919   5.226
 6565TIP3    H119638   6.977   5.985   5.206
 6565TIP3    H219639   6.837   5.969   5.262
 6566TIP3   OH219640   6.877   5.364   2.241
 6566TIP3    H119641   6.874   5.275   2.276
 6566TIP3    H219642   6.882   5.352   2.146
 6567TIP3   OH219643   5.685   6.211   3.932
 6567TIP3    H119644   5.652   6.228   3.844
 6567TIP3    H219645   5.638   6.132   3.961
 6568TIP3   OH219646   0.913   4.776   3.726
 6568TIP3    H119647   0.896   4.870   3.740
 6568TIP3    H219648   0.838   4.733   3.767
 6569TIP3   OH219649   2.619   7.092   5.781
 6569TIP3    H119650   2.591   7.065   5.868
 6569TIP3    H219651   2.623   7.011   5.730
 6570TIP3   OH219652   0.582   0.176   1.046
 6570TIP3    H119653   0.534   0.210   1.121
 6570TIP3    H219654   0.534   0.098   1.020
 6571TIP3   OH219655   3.044   5.509   0.199
 6571TIP3    H119656   3.095   5.572   0.148
 6571TIP3    H219657   3.050   5.427   0.149
 6572TIP3   OH219658   1.691   7.684   3.934
 6572TIP3    H119659   1.704   7.614   3.871
 6572TIP3    H219660   1.758   7.749   3.911
 6573TIP3   OH219661   6.803   2.137   5.981
 6573TIP3    H119662   6.892   2.106   5.963
 6573TIP3    H219663   6.761   2.142   5.896
 6574TIP3   OH219664   0.795   6.423   2.218
 6574TIP3    H119665   0.820   6.374   2.296
 6574TIP3    H219666   0.725   6.370   2.178
 6575TIP3   OH219667   0.036   3.588   3.695
 6575TIP3    H119668  -0.012   3.513   3.659
 6575TIP3    H219669   0.028   3.579   3.790
 6576TIP3   OH219670   0.897   4.142   6.458
 6576TIP3    H119671   0.812   4.183   6.470
 6576TIP3    H219672   0.877   4.052   6.433
 6577TIP3   OH219673   5.944   2.574   1.865
 6577TIP3    H119674   5.997   2.511   1.913
 6577TIP3    H219675   5.874   2.522   1.826
 6578TIP3   OH219676   5.864   6.528   4.592
 6578TIP3    H119677   5.857   6.567   4.504
 6578TIP3    H219678   5.869   6.434   4.576
 6579TIP3   OH219679   6.567   2.212   1.119
 6579TIP3    H119680   6.658   2.185   1.104
 6579TIP3    H219681   6.528   2.213   1.032
 6580TIP3   OH219682   2.900   2.745   3.957
 6580TIP3    H119683   2.993   2.722   3.968
 6580TIP3    H219684   2.902   2.837   3.928
 6581TIP3   OH219685   4.575   4.573   4.945
 6581TIP3    H119686   4.572   4.645   4.882
 6581TIP3    H219687   4.483   4.549   4.959
 6582TIP3   OH219688   7.474   4.778   3.466
 6582TIP3    H119689   7.516   4.736   3.391
 6582TIP3    H219690   7.545   4.797   3.527
 6583TIP3   OH219691   4.208   5.907   0.483
 6583TIP3    H119692   4.206   5.812   0.490
 6583TIP3    H219693   4.123   5.931   0.445
 6584TIP3   OH219694   0.247   3.079   5.316
 6584TIP3    H119695   0.255   3.124   5.400
 6584TIP3    H219696   0.330   3.098   5.271
 6585TIP3   OH219697   0.430   1.849   3.040
 6585TIP3    H119698   0.509   1.810   3.003
 6585TIP3    H219699   0.390   1.897   2.968
 6586TIP3   OH219700   3.171   1.173   0.229
 6586TIP3    H119701   3.140   1.247   0.280
 6586TIP3    H219702   3.266   1.179   0.233
 6587TIP3   OH219703   7.327   5.157   0.100
 6587TIP3    H119704   7.352   5.123   0.014
 6587TIP3    H219705   7.339   5.083   0.159
 6588TIP3   OH219706   3.191   3.996   6.467
 6588TIP3    H119707   3.234   4.075   6.500
 6588TIP3    H219708   3.159   4.020   6.380
 6589TIP3   OH219709   3.850   2.767   0.929
 6589TIP3    H119710   3.938   2.729   0.932
 6589TIP3    H219711   3.864   2.860   0.910
 6590TIP3   OH219712   3.123   0.883   5.940
 6590TIP3    H119713   3.120   0.976   5.963
 6590TIP3    H219714   3.048   0.869   5.884
 6591TIP3   OH219715   7.070   6.264   0.587
 6591TIP3    H119716   7.151   6.305   0.618
 6591TIP3    H219717   7.084   6.253   0.493
 6592TIP3   OH219718   1.346   0.876   6.677
 6592TIP3    H119719   1.302   0.800   6.715
 6592TIP3    H219720   1.279   0.918   6.623
 6593TIP3   OH219721   5.063   7.054   1.502
 6593TIP3    H119722   5.152   7.082   1.524
 6593TIP3    H219723   5.028   7.126   1.449
 6594TIP3   OH219724   2.025   4.809   6.461
 6594TIP3    H119725   1.965   4.738   6.438
 6594TIP3    H219726   1.980   4.888   6.431
 6595TIP3   OH219727   3.907   1.667   2.229
 6595TIP3    H119728   3.868   1.631   2.308
 6595TIP3    H219729   3.908   1.762   2.243
 6596TIP3   OH219730   0.901   5.862   1.683
 6596TIP3    H119731   0.835   5.925   1.712
 6596TIP3    H219732   0.905   5.872   1.588
 6597TIP3   OH219733   1.675   6.732   2.672
 6597TIP3    H119734   1.663   6.741   2.577
 6597TIP3    H219735   1.651   6.641   2.690
 6598TIP3   OH219736   3.474   0.468   4.109
 6598TIP3    H119737   3.510   0.488   4.023
 6598TIP3    H219738   3.388   0.510   4.110
 6599TIP3   OH219739   5.217   3.872   6.524
 6599TIP3    H119740   5.127   3.900   6.543
 6599TIP3    H219741   5.263   3.954   6.502
 6600TIP3   OH219742   3.195   1.900   2.130
 6600TIP3    H119743   3.113   1.861   2.099
 6600TIP3    H219744   3.210   1.973   2.070
 6601TIP3   OH219745   0.175   0.232   0.576
 6601TIP3    H119746   0.224   0.176   0.637
 6601TIP3    H219747   0.089   0.242   0.616
 6602TIP3   OH219748   4.769   5.122   3.353
 6602TIP3    H119749   4.697   5.169   3.397
 6602TIP3    H219750   4.729   5.040   3.324
 6603TIP3   OH219751   2.021   1.584   6.363
 6603TIP3    H119752   1.931   1.616   6.371
 6603TIP3    H219753   2.046   1.603   6.273
 6604TIP3   OH219754   5.336   1.964   5.832
 6604TIP3    H119755   5.309   2.026   5.764
 6604TIP3    H219756   5.297   1.998   5.912
 6605TIP3   OH219757   0.165   4.190   6.563
 6605TIP3    H119758   0.260   4.174   6.568
 6605TIP3    H219759   0.138   4.202   6.654
 6606TIP3   OH219760   8.234   5.405   5.941
 6606TIP3    H119761   8.293   5.337   5.973
 6606TIP3    H219762   8.291   5.465   5.893
 6607TIP3   OH219763   6.078   3.935   2.412
 6607TIP3    H119764   5.993   3.890   2.415
 6607TIP3    H219765   6.125   3.891   2.341
 6608TIP3   OH219766   2.685   0.333   4.863
 6608TIP3    H119767   2.640   0.317   4.946
 6608TIP3    H219768   2.769   0.371   4.889
 6609TIP3   OH219769   7.031   6.575   4.651
 6609TIP3    H119770   7.062   6.570   4.741
 6609TIP3    H219771   6.981   6.656   4.647
 6610TIP3   OH219772   5.108   2.499   2.149
 6610TIP3    H119773   5.182   2.552   2.178
 6610TIP3    H219774   5.144   2.411   2.136
 6611TIP3   OH219775   3.270   6.257   0.425
 6611TIP3    H119776   3.329   6.185   0.444
 6611TIP3    H219777   3.184   6.217   0.419
 6612TIP3   OH219778   4.774   2.762   3.318
 6612TIP3    H119779   4.824   2.784   3.397
 6612TIP3    H219780   4.830   2.788   3.245
 6613TIP3   OH219781   5.429   0.063   2.685
 6613TIP3    H119782   5.348   0.014   2.693
 6613TIP3    H219783   5.485   0.009   2.629
 6614TIP3   OH219784   0.754   7.105   3.624
 6614TIP3    H119785   0.839   7.104   3.581
 6614TIP3    H219786   0.720   7.193   3.608
 6615TIP3   OH219787   7.346   5.561   3.060
 6615TIP3    H119788   7.291   5.636   3.082
 6615TIP3    H219789   7.312   5.489   3.114
 6616TIP3   OH219790   6.406   0.121   2.480
 6616TIP3    H119791   6.317   0.156   2.491
 6616TIP3    H219792   6.416   0.113   2.385
 6617TIP3   OH219793   3.688   7.767   4.240
 6617TIP3    H119794   3.761   7.773   4.301
 6617TIP3    H219795   3.616   7.813   4.284
 6618TIP3   OH219796   3.730   0.052   5.091
 6618TIP3    H119797   3.808   0.047   5.036
 6618TIP3    H219798   3.690   0.136   5.067
 6619TIP3   OH219799   7.009   0.395   1.683
 6619TIP3    H119800   7.021   0.441   1.600
 6619TIP3    H219801   7.075   0.326   1.682
 6620TIP3   OH219802   4.281   6.606   1.570
 6620TIP3    H119803   4.259   6.656   1.649
 6620TIP3    H219804   4.238   6.653   1.499
 6621TIP3   OH219805   0.211   5.560   0.121
 6621TIP3    H119806   0.173   5.589   0.038
 6621TIP3    H219807   0.291   5.612   0.131
 6622TIP3   OH219808   2.210   4.881   0.657
 6622TIP3    H119809   2.202   4.875   0.561
 6622TIP3    H219810   2.283   4.942   0.670
 6623TIP3   OH219811   2.848   2.244   5.160
 6623TIP3    H119812   2.907   2.203   5.096
 6623TIP3    H219813   2.764   2.250   5.114
 6624TIP3   OH219814   0.807   3.213   1.791
 6624TIP3    H119815   0.712   3.212   1.806
 6624TIP3    H219816   0.828   3.306   1.780
 6625TIP3   OH219817   0.012   0.332   6.227
 6625TIP3    H119818  -0.070   0.357   6.270
 6625TIP3    H219819   0.010   0.378   6.143
 6626TIP3   OH219820   5.904   3.998   3.125
 6626TIP3    H119821   5.955   4.012   3.045
 6626TIP3    H219822   5.864   3.912   3.112
 6627TIP3   OH219823   0.234   2.904   0.041
 6627TIP3    H119824   0.218   2.996   0.061
 6627TIP3    H219825   0.328   2.893   0.052
 6628TIP3   OH219826   3.788   4.211   5.397
 6628TIP3    H119827   3.745   4.153   5.333
 6628TIP3    H219828   3.753   4.182   5.481
 6629TIP3   OH219829   4.280   4.240   0.239
 6629TIP3    H119830   4.369   4.227   0.272
 6629TIP3    H219831   4.265   4.167   0.180
 6630TIP3   OH219832   2.810   6.208   5.639
 6630TIP3    H119833   2.894   6.180   5.603
 6630TIP3    H219834   2.819   6.303   5.650
 6631TIP3   OH219835   4.858   0.285   6.519
 6631TIP3    H119836   4.883   0.352   6.456
 6631TIP3    H219837   4.941   0.261   6.561
 6632TIP3   OH219838   3.787   3.931   1.225
 6632TIP3    H119839   3.738   3.916   1.306
 6632TIP3    H219840   3.820   3.845   1.201
 6633TIP3   OH219841   6.256   7.544   0.047
 6633TIP3    H119842   6.183   7.604   0.029
 6633TIP3    H219843   6.330   7.583   0.001
 6634TIP3   OH219844   3.007   6.279   6.197
 6634TIP3    H119845   2.983   6.332   6.120
 6634TIP3    H219846   3.087   6.321   6.230
 6635TIP3   OH219847   2.313   7.181   4.852
 6635TIP3    H119848   2.236   7.234   4.831
 6635TIP3    H219849   2.285   7.126   4.924
 6636TIP3   OH219850   5.861   0.988   2.582
 6636TIP3    H119851   5.855   0.893   2.578
 6636TIP3    H219852   5.771   1.019   2.575
 6637TIP3   OH219853   2.093   1.795   3.800
 6637TIP3    H119854   2.064   1.707   3.825
 6637TIP3    H219855   2.097   1.793   3.704
 6638TIP3   OH219856   3.510   0.750   4.261
 6638TIP3    H119857   3.440   0.709   4.210
 6638TIP3    H219858   3.526   0.833   4.215
 6639TIP3   OH219859   1.677   2.213   5.348
 6639TIP3    H119860   1.701   2.304   5.362
 6639TIP3    H219861   1.675   2.202   5.253
 6640TIP3   OH219862   4.472   2.081   4.278
 6640TIP3    H119863   4.537   2.048   4.215
 6640TIP3    H219864   4.507   2.055   4.363
 6641TIP3   OH219865   0.710   6.997   0.059
 6641TIP3    H119866   0.658   7.026  -0.016
 6641TIP3    H219867   0.645   6.958   0.118
 6642TIP3   OH219868   4.620   7.119   2.720
 6642TIP3    H119869   4.711   7.148   2.707
 6642TIP3    H219870   4.610   7.046   2.659
 6643TIP3   OH219871   4.978   0.966   3.887
 6643TIP3    H119872   4.976   0.986   3.980
 6643TIP3    H219873   4.914   0.896   3.875
 6644TIP3   OH219874   5.185   6.700   5.959
 6644TIP3    H119875   5.200   6.769   5.895
 6644TIP3    H219876   5.237   6.626   5.926
 6645TIP3   OH219877   7.492   0.411   0.793
 6645TIP3    H119878   7.513   0.488   0.741
 6645TIP3    H219879   7.427   0.364   0.740
 6646TIP3   OH219880   2.960   3.514   3.330
 6646TIP3    H119881   2.923   3.599   3.356
 6646TIP3    H219882   3.053   3.522   3.349
 6647TIP3   OH219883   6.180   0.392   2.188
 6647TIP3    H119884   6.090   0.364   2.172
 6647TIP3    H219885   6.198   0.368   2.279
 6648TIP3   OH219886   5.729   2.046   2.352
 6648TIP3    H119887   5.650   2.033   2.299
 6648TIP3    H219888   5.745   2.140   2.348
 6649TIP3   OH219889   2.252   3.335   2.702
 6649TIP3    H119890   2.205   3.369   2.626
 6649TIP3    H219891   2.255   3.241   2.689
 6650TIP3   OH219892   3.801   6.405   0.510
 6650TIP3    H119893   3.807   6.322   0.558
 6650TIP3    H219894   3.882   6.451   0.533
 6651TIP3   OH219895   3.028   1.312   0.607
 6651TIP3    H119896   2.981   1.228   0.603
 6651TIP3    H219897   2.959   1.377   0.622
 6652TIP3   OH219898   4.790   4.986   0.196
 6652TIP3    H119899   4.826   5.022   0.116
 6652TIP3    H219900   4.866   4.957   0.246
 6653TIP3   OH219901   3.254   6.028   5.929
 6653TIP3    H119902   3.269   5.941   5.892
 6653TIP3    H219903   3.341   6.067   5.934
 6654TIP3   OH219904   1.664   6.844   4.390
 6654TIP3    H119905   1.702   6.830   4.303
 6654TIP3    H219906   1.570   6.852   4.375
 6655TIP3   OH219907   7.949   0.641   4.152
 6655TIP3    H119908   8.004   0.562   4.150
 6655TIP3    H219909   7.983   0.696   4.081
 6656TIP3   OH219910   1.665   5.438   6.643
 6656TIP3    H119911   1.755   5.425   6.613
 6656TIP3    H219912   1.611   5.399   6.574
 6657TIP3   OH219913   3.598   4.647   6.753
 6657TIP3    H119914   3.528   4.696   6.796
 6657TIP3    H219915   3.630   4.706   6.684
 6658TIP3   OH219916   1.783   0.661   0.642
 6658TIP3    H119917   1.718   0.732   0.640
 6658TIP3    H219918   1.753   0.604   0.714
 6659TIP3   OH219919   7.517   5.874   3.077
 6659TIP3    H119920   7.577   5.896   3.149
 6659TIP3    H219921   7.495   5.782   3.091
 6660TIP3   OH219922   5.373   4.432   1.762
 6660TIP3    H119923   5.330   4.478   1.834
 6660TIP3    H219924   5.394   4.346   1.798
 6661TIP3   OH219925   4.292   1.614   4.713
 6661TIP3    H119926   4.299   1.518   4.713
 6661TIP3    H219927   4.347   1.642   4.640
 6662TIP3   OH219928   2.310   6.687   4.592
 6662TIP3    H119929   2.394   6.718   4.560
 6662TIP3    H219930   2.298   6.602   4.549
 6663TIP3   OH219931   8.188   4.000   2.346
 6663TIP3    H119932   8.202   4.075   2.404
 6663TIP3    H219933   8.177   3.925   2.404
 6664TIP3   OH219934   4.675   6.190   0.439
 6664TIP3    H119935   4.734   6.197   0.515
 6664TIP3    H219936   4.676   6.277   0.400
 6665TIP3   OH219937   0.242   6.080   0.050
 6665TIP3    H119938   0.303   6.134   0.101
 6665TIP3    H219939   0.294   6.005   0.022
 6666TIP3   OH219940   3.062   2.626   4.963
 6666TIP3    H119941   3.064   2.541   4.920
 6666TIP3    H219942   3.149   2.663   4.948
 6667TIP3   OH219943   8.192   4.897   2.780
 6667TIP3    H119944   8.153   4.839   2.715
 6667TIP3    H219945   8.250   4.841   2.831
 6668TIP3   OH219946   6.766   0.517   3.469
 6668TIP3    H119947   6.778   0.431   3.510
 6668TIP3    H219948   6.767   0.499   3.375
 6669TIP3   OH219949   5.853   0.118   5.207
 6669TIP3    H119950   5.786   0.073   5.156
 6669TIP3    H219951   5.852   0.208   5.175
 6670TIP3   OH219952   0.653   7.334   0.454
 6670TIP3    H119953   0.724   7.383   0.412
 6670TIP3    H219954   0.693   7.250   0.476
 6671TIP3   OH219955   1.499   7.620   0.823
 6671TIP3    H119956   1.581   7.666   0.804
 6671TIP3    H219957   1.435   7.660   0.765
 6672TIP3   OH219958   2.071   0.292   4.559
 6672TIP3    H119959   2.151   0.341   4.539
 6672TIP3    H219960   2.001   0.356   4.550
 6673TIP3   OH219961   6.257   0.504   0.048
 6673TIP3    H119962   6.286   0.419   0.082
 6673TIP3    H219963   6.169   0.487   0.012
 6674TIP3   OH219964   2.490   5.206   4.407
 6674TIP3    H119965   2.404   5.239   4.379
 6674TIP3    H219966   2.549   5.281   4.394
 6675TIP3   OH219967   2.469   4.021   1.211
 6675TIP3    H119968   2.432   4.091   1.265
 6675TIP3    H219969   2.397   3.959   1.200
 6676TIP3   OH219970   0.560   3.826   5.227
 6676TIP3    H119971   0.535   3.892   5.164
 6676TIP3    H219972   0.616   3.766   5.178
 6677TIP3   OH219973   1.383   6.758   5.569
 6677TIP3    H119974   1.336   6.764   5.486
 6677TIP3    H219975   1.342   6.824   5.625
 6678TIP3   OH219976   2.233   3.684   3.260
 6678TIP3    H119977   2.150   3.728   3.244
 6678TIP3    H219978   2.295   3.728   3.203
 6679TIP3   OH219979   4.089   0.200   5.948
 6679TIP3    H119980   4.000   0.187   5.913
 6679TIP3    H219981   4.139   0.232   5.873
 6680TIP3   OH219982   0.883   2.985   0.703
 6680TIP3    H119983   0.969   3.019   0.675
 6680TIP3    H219984   0.862   3.036   0.781
 6681TIP3   OH219985   6.848   1.538   3.504
 6681TIP3    H119986   6.799   1.513   3.426
 6681TIP3    H219987   6.937   1.553   3.473
 6682TIP3   OH219988   1.253   6.455   2.096
 6682TIP3    H119989   1.172   6.503   2.115
 6682TIP3    H219990   1.291   6.437   2.182
 6683TIP3   OH219991   2.893   4.819   5.347
 6683TIP3    H119992   2.877   4.783   5.260
 6683TIP3    H219993   2.901   4.742   5.403
 6684TIP3   OH219994   5.183   4.224   5.391
 6684TIP3    H119995   5.265   4.254   5.351
 6684TIP3    H219996   5.120   4.220   5.320
 6685TIP3   OH219997   1.952   6.415   3.624
 6685TIP3    H119998   1.951   6.322   3.600
 6685TIP3    H219999   2.034   6.426   3.672
 6686TIP3   OH220000   7.721   1.766   0.644
 6686TIP3    H120001   7.801   1.715   0.631
 6686TIP3    H220002   7.747   1.837   0.702
 6687TIP3   OH220003   3.584   4.852   0.217
 6687TIP3    H120004   3.596   4.839   0.311
 6687TIP3    H220005   3.491   4.832   0.201
 6688TIP3   OH220006   1.788   2.741   3.348
 6688TIP3    H120007   1.838   2.802   3.401
 6688TIP3    H220008   1.784   2.782   3.261
 6689TIP3   OH220009   6.260   1.174   5.637
 6689TIP3    H120010   6.200   1.101   5.621
 6689TIP3    H220011   6.203   1.249   5.650
 6690TIP3   OH220012   1.411   5.553   6.091
 6690TIP3    H120013   1.366   5.627   6.132
 6690TIP3    H220014   1.500   5.557   6.125
 6691TIP3   OH220015   6.430   3.141   0.420
 6691TIP3    H120016   6.425   3.046   0.411
 6691TIP3    H220017   6.438   3.174   0.331
 6692TIP3   OH220018   2.272   1.008   6.489
 6692TIP3    H120019   2.177   1.001   6.494
 6692TIP3    H220020   2.292   1.095   6.524
 6693TIP3   OH220021   1.891   7.625   5.629
 6693TIP3    H120022   1.929   7.639   5.542
 6693TIP3    H220023   1.959   7.655   5.689
 6694TIP3   OH220024   3.979   7.209   5.009
 6694TIP3    H120025   3.965   7.274   4.940
 6694TIP3    H220026   4.061   7.166   4.984
 6695TIP3   OH220027   7.553   1.168   5.849
 6695TIP3    H120028   7.560   1.217   5.931
 6695TIP3    H220029   7.501   1.224   5.791
 6696TIP3   OH220030   4.550   2.172   5.189
 6696TIP3    H120031   4.613   2.244   5.197
 6696TIP3    H220032   4.482   2.191   5.254
 6697TIP3   OH220033   2.702   1.882   1.313
 6697TIP3    H120034   2.636   1.845   1.254
 6697TIP3    H220035   2.655   1.898   1.395
 6698TIP3   OH220036   7.243   3.359   5.019
 6698TIP3    H120037   7.159   3.322   5.047
 6698TIP3    H220038   7.220   3.413   4.943
 6699TIP3   OH220039   7.850   5.789   6.402
 6699TIP3    H120040   7.870   5.880   6.379
 6699TIP3    H220041   7.935   5.747   6.409
 6700TIP3   OH220042   2.975   5.497   4.977
 6700TIP3    H120043   3.006   5.553   4.906
 6700TIP3    H220044   2.931   5.424   4.933
 6701TIP3   OH220045   5.529   4.684   0.159
 6701TIP3    H120046   5.557   4.628   0.231
 6701TIP3    H220047   5.541   4.773   0.192
 6702TIP3   OH220048   5.404   7.068   1.386
 6702TIP3    H120049   5.345   6.993   1.395
 6702TIP3    H220050   5.470   7.040   1.322
 6703TIP3   OH220051   2.562   5.315   6.438
 6703TIP3    H120052   2.470   5.327   6.463
 6703TIP3    H220053   2.571   5.361   6.355
 6704TIP3   OH220054   3.991   1.624   5.706
 6704TIP3    H120055   3.923   1.652   5.645
 6704TIP3    H220056   3.948   1.625   5.791
 6705TIP3   OH220057   3.824   6.429   0.020
 6705TIP3    H120058   3.810   6.507  -0.034
 6705TIP3    H220059   3.774   6.360  -0.023
 6706TIP3   OH220060   3.766   1.194   1.129
 6706TIP3    H120061   3.753   1.115   1.077
 6706TIP3    H220062   3.679   1.214   1.164
 6707TIP3   OH220063   7.020   3.027   2.642
 6707TIP3    H120064   6.984   3.114   2.659
 6707TIP3    H220065   6.958   2.987   2.582
 6708TIP3   OH220066   3.946   4.560   1.565
 6708TIP3    H120067   3.954   4.582   1.472
 6708TIP3    H220068   3.955   4.465   1.569
 6709TIP3   OH220069   6.997   5.814   2.446
 6709TIP3    H120070   7.047   5.856   2.376
 6709TIP3    H220071   6.953   5.740   2.403
 6710TIP3   OH220072   2.121   6.302   4.110
 6710TIP3    H120073   2.050   6.238   4.111
 6710TIP3    H220074   2.161   6.293   4.023
 6711TIP3   OH220075   6.912   1.898   3.478
 6711TIP3    H120076   6.941   1.882   3.568
 6711TIP3    H220077   6.848   1.969   3.486
 6712TIP3   OH220078   0.862   7.278   3.271
 6712TIP3    H120079   0.950   7.285   3.307
 6712TIP3    H220080   0.807   7.326   3.333
 6713TIP3   OH220081   8.149   1.572   3.863
 6713TIP3    H120082   8.107   1.516   3.797
 6713TIP3    H220083   8.206   1.513   3.911
 6714TIP3   OH220084   5.289   6.267   3.219
 6714TIP3    H120085   5.266   6.282   3.127
 6714TIP3    H220086   5.211   6.226   3.256
 6715TIP3   OH220087   4.102   4.376   6.386
 6715TIP3    H120088   4.071   4.382   6.296
 6715TIP3    H220089   4.178   4.435   6.390
 6716TIP3   OH220090   2.013   7.090   2.134
 6716TIP3    H120091   2.090   7.054   2.178
 6716TIP3    H220092   2.048   7.151   2.069
 6717TIP3   OH220093   6.191   7.044   4.073
 6717TIP3    H120094   6.130   6.970   4.075
 6717TIP3    H220095   6.274   7.006   4.045
 6718TIP3   OH220096   6.661   6.190   5.762
 6718TIP3    H120097   6.580   6.140   5.752
 6718TIP3    H220098   6.632   6.277   5.790
 6719TIP3   OH220099   3.314   5.332   4.346
 6719TIP3    H120100   3.385   5.311   4.286
 6719TIP3    H220101   3.342   5.412   4.390
 6720TIP3   OH220102   3.554   0.491   4.819
 6720TIP3    H120103   3.459   0.493   4.816
 6720TIP3    H220104   3.580   0.582   4.829
 6721TIP3   OH220105   5.880   2.549   6.578
 6721TIP3    H120106   5.834   2.619   6.624
 6721TIP3    H220107   5.963   2.541   6.625
 6722TIP3   OH220108   4.266   0.265   5.734
 6722TIP3    H120109   4.313   0.186   5.761
 6722TIP3    H220110   4.246   0.250   5.641
 6723TIP3   OH220111   5.143   5.716   0.761
 6723TIP3    H120112   5.094   5.691   0.682
 6723TIP3    H220113   5.090   5.683   0.833
 6724TIP3   OH220114   2.684   1.491   2.484
 6724TIP3    H120115   2.647   1.516   2.399
 6724TIP3    H220116   2.723   1.572   2.517
 6725TIP3   OH220117   7.509   1.402   3.360
 6725TIP3    H120118   7.517   1.313   3.396
 6725TIP3    H220119   7.422   1.431   3.387
 6726TIP3   OH220120   7.459   5.039   6.751
 6726TIP3    H120121   7.409   4.958   6.746
 6726TIP3    H220122   7.394   5.108   6.738
 6727TIP3   OH220123   1.860   6.147   5.734
 6727TIP3    H120124   1.809   6.227   5.747
 6727TIP3    H220125   1.795   6.078   5.723
 6728TIP3   OH220126   3.984   7.753   3.057
 6728TIP3    H120127   3.907   7.700   3.033
 6728TIP3    H220128   4.056   7.715   3.006
 6729TIP3   OH220129   5.218   6.705   0.735
 6729TIP3    H120130   5.253   6.740   0.653
 6729TIP3    H220131   5.129   6.739   0.741
 6730TIP3   OH220132   5.856   6.359   5.032
 6730TIP3    H120133   5.826   6.439   4.989
 6730TIP3    H220134   5.950   6.355   5.010
 6731TIP3   OH220135   7.001   3.777   1.670
 6731TIP3    H120136   7.006   3.732   1.585
 6731TIP3    H220137   6.949   3.855   1.652
 6732TIP3   OH220138   3.111   2.895   5.340
 6732TIP3    H120139   3.084   2.886   5.432
 6732TIP3    H220140   3.043   2.849   5.291
 6733TIP3   OH220141   6.207   0.055   4.086
 6733TIP3    H120142   6.202  -0.040   4.091
 6733TIP3    H220143   6.127   0.086   4.130
 6734TIP3   OH220144   2.242   5.406   0.013
 6734TIP3    H120145   2.175   5.420   0.079
 6734TIP3    H220146   2.325   5.408   0.061
 6735TIP3   OH220147   5.497   7.270   5.643
 6735TIP3    H120148   5.556   7.197   5.662
 6735TIP3    H220149   5.409   7.233   5.654
 6736TIP3   OH220150   1.565   1.941   2.930
 6736TIP3    H120151   1.608   1.855   2.930
 6736TIP3    H220152   1.510   1.940   2.851
 6737TIP3   OH220153   2.475   7.531   1.848
 6737TIP3    H120154   2.532   7.602   1.879
 6737TIP3    H220155   2.533   7.474   1.798
 6738TIP3   OH220156   2.561   3.548   3.010
 6738TIP3    H120157   2.540   3.528   2.919
 6738TIP3    H220158   2.654   3.571   3.009
 6739TIP3   OH220159   5.814   1.555   5.924
 6739TIP3    H120160   5.896   1.602   5.910
 6739TIP3    H220161   5.829   1.468   5.887
 6740TIP3   OH220162   2.382   2.047   4.189
 6740TIP3    H120163   2.399   2.002   4.272
 6740TIP3    H220164   2.317   1.993   4.144
 6741TIP3   OH220165   4.114   6.233   5.428
 6741TIP3    H120166   4.060   6.197   5.357
 6741TIP3    H220167   4.122   6.326   5.408
 6742TIP3   OH220168   0.130   2.610   2.189
 6742TIP3    H120169   0.207   2.624   2.245
 6742TIP3    H220170   0.164   2.569   2.110
 6743TIP3   OH220171   7.131   6.480   1.724
 6743TIP3    H120172   7.192   6.437   1.664
 6743TIP3    H220173   7.157   6.572   1.722
 6744TIP3   OH220174   6.104   5.111   2.698
 6744TIP3    H120175   6.084   5.071   2.783
 6744TIP3    H220176   6.020   5.145   2.668
 6745TIP3   OH220177   3.787   7.175   6.633
 6745TIP3    H120178   3.802   7.241   6.565
 6745TIP3    H220179   3.874   7.136   6.647
 6746TIP3   OH220180   2.964   7.726   2.134
 6746TIP3    H120181   3.034   7.696   2.192
 6746TIP3    H220182   2.889   7.739   2.193
 6747TIP3   OH220183   2.824   2.412   6.131
 6747TIP3    H120184   2.775   2.469   6.190
 6747TIP3    H220185   2.871   2.472   6.073
 6748TIP3   OH220186   2.573   2.318   0.491
 6748TIP3    H120187   2.572   2.373   0.413
 6748TIP3    H220188   2.639   2.251   0.472
 6749TIP3   OH220189   1.953   3.800   0.783
 6749TIP3    H120190   1.893   3.871   0.760
 6749TIP3    H220191   1.993   3.828   0.865
 6750TIP3   OH220192   6.548   4.634   2.336
 6750TIP3    H120193   6.604   4.707   2.309
 6750TIP3    H220194   6.472   4.640   2.278
 6751TIP3   OH220195   5.495   3.668   1.913
 6751TIP3    H120196   5.427   3.702   1.971
 6751TIP3    H220197   5.446   3.628   1.841
 6752TIP3   OH220198   0.764   5.929   2.930
 6752TIP3    H120199   0.758   5.857   2.868
 6752TIP3    H220200   0.854   5.924   2.964
 6753TIP3   OH220201   6.358   3.270   1.134
 6753TIP3    H120202   6.354   3.353   1.087
 6753TIP3    H220203   6.376   3.295   1.225
 6754TIP3   OH220204   7.213   7.613   4.480
 6754TIP3    H120205   7.291   7.604   4.536
 6754TIP3    H220206   7.173   7.696   4.507
 6755TIP3   OH220207   1.090   7.757   4.369
 6755TIP3    H120208   1.048   7.812   4.303
 6755TIP3    H220209   1.018   7.709   4.410
 6756TIP3   OH220210   5.347   2.512   4.133
 6756TIP3    H120211   5.409   2.555   4.075
 6756TIP3    H220212   5.397   2.443   4.176
 6757TIP3   OH220213   4.647   3.854   4.369
 6757TIP3    H120214   4.668   3.777   4.422
 6757TIP3    H220215   4.684   3.833   4.282
 6758TIP3   OH220216   1.165   7.452   5.893
 6758TIP3    H120217   1.200   7.439   5.981
 6758TIP3    H220218   1.085   7.502   5.906
 6759TIP3   OH220219   4.371   7.638   1.535
 6759TIP3    H120220   4.346   7.718   1.489
 6759TIP3    H220221   4.354   7.568   1.472
 6760TIP3   OH220222   3.640   0.034   5.417
 6760TIP3    H120223   3.729   0.035   5.382
 6760TIP3    H220224   3.626  -0.056   5.446
 6761TIP3   OH220225   2.802   1.657   2.642
 6761TIP3    H120226   2.876   1.597   2.641
 6761TIP3    H220227   2.836   1.738   2.605
 6762TIP3   OH220228   3.727   1.516   2.704
 6762TIP3    H120229   3.786   1.571   2.757
 6762TIP3    H220230   3.698   1.448   2.765
 6763TIP3   OH220231   4.795   1.033   1.253
 6763TIP3    H120232   4.749   1.005   1.174
 6763TIP3    H220233   4.875   1.074   1.222
 6764TIP3   OH220234   1.899   2.908   3.565
 6764TIP3    H120235   1.942   2.846   3.623
 6764TIP3    H220236   1.936   2.993   3.588
 6765TIP3   OH220237   6.080   1.954   2.968
 6765TIP3    H120238   6.152   2.012   2.992
 6765TIP3    H220239   6.115   1.901   2.896
 6766TIP3   OH220240   2.613   0.335   5.701
 6766TIP3    H120241   2.620   0.400   5.631
 6766TIP3    H220242   2.594   0.253   5.656
 6767TIP3   OH220243   0.909   1.283   4.558
 6767TIP3    H120244   0.994   1.251   4.588
 6767TIP3    H220245   0.916   1.284   4.462
 6768TIP3   OH220246   2.936   1.874   4.015
 6768TIP3    H120247   2.989   1.954   4.023
 6768TIP3    H220248   2.848   1.902   4.042
 6769TIP3   OH220249   1.244   2.783   6.469
 6769TIP3    H120250   1.323   2.806   6.518
 6769TIP3    H220251   1.180   2.758   6.537
 6770TIP3   OH220252   1.313   2.022   1.455
 6770TIP3    H120253   1.385   2.051   1.512
 6770TIP3    H220254   1.351   2.022   1.367
 6771TIP3   OH220255   2.626   5.079   1.413
 6771TIP3    H120256   2.701   5.094   1.355
 6771TIP3    H220257   2.566   5.025   1.362
 6772TIP3   OH220258   3.733   1.876   4.228
 6772TIP3    H120259   3.679   1.941   4.273
 6772TIP3    H220260   3.822   1.910   4.236
 6773TIP3   OH220261   7.536   3.722   1.312
 6773TIP3    H120262   7.511   3.734   1.220
 6773TIP3    H220263   7.616   3.775   1.321
 6774TIP3   OH220264   3.834   6.757   4.466
 6774TIP3    H120265   3.867   6.792   4.384
 6774TIP3    H220266   3.796   6.672   4.442
 6775TIP3   OH220267   3.962   4.269   1.819
 6775TIP3    H120268   4.012   4.347   1.841
 6775TIP3    H220269   3.911   4.293   1.742
 6776TIP3   OH220270   7.252   4.470   6.747
 6776TIP3    H120271   7.325   4.527   6.724
 6776TIP3    H220272   7.213   4.512   6.825
 6777TIP3   OH220273   5.152   6.211   4.330
 6777TIP3    H120274   5.139   6.117   4.341
 6777TIP3    H220275   5.070   6.251   4.359
 6778TIP3   OH220276   2.944   2.155   1.771
 6778TIP3    H120277   2.957   2.077   1.718
 6778TIP3    H220278   2.875   2.204   1.727
 6779TIP3   OH220279   8.186   5.122   4.406
 6779TIP3    H120280   8.180   5.213   4.433
 6779TIP3    H220281   8.216   5.125   4.315
 6780TIP3   OH220282   4.251   5.443   6.387
 6780TIP3    H120283   4.219   5.354   6.403
 6780TIP3    H220284   4.282   5.442   6.297
 6781TIP3   OH220285   2.299   6.216   1.261
 6781TIP3    H120286   2.340   6.297   1.231
 6781TIP3    H220287   2.373   6.157   1.280
 6782TIP3   OH220288   4.535   2.134   6.632
 6782TIP3    H120289   4.568   2.216   6.593
 6782TIP3    H220290   4.514   2.158   6.722
 6783TIP3   OH220291   5.629   4.995   2.787
 6783TIP3    H120292   5.598   4.907   2.805
 6783TIP3    H220293   5.562   5.033   2.729
 6784TIP3   OH220294   4.799   7.162   0.641
 6784TIP3    H120295   4.821   7.075   0.608
 6784TIP3    H220296   4.704   7.163   0.648
 6785TIP3   OH220297   3.571   2.154   2.878
 6785TIP3    H120298   3.503   2.087   2.885
 6785TIP3    H220299   3.650   2.113   2.914
 6786TIP3   OH220300   5.615   5.614   3.602
 6786TIP3    H120301   5.710   5.619   3.601
 6786TIP3    H220302   5.595   5.555   3.675
 6787TIP3   OH220303   5.646   7.391   5.872
 6787TIP3    H120304   5.656   7.323   5.939
 6787TIP3    H220305   5.575   7.359   5.816
 6788TIP3   OH220306   5.884   3.023   2.014
 6788TIP3    H120307   5.837   2.940   2.005
 6788TIP3    H220308   5.976   3.000   2.004
 6789TIP3   OH220309   6.168   1.450   4.205
 6789TIP3    H120310   6.194   1.446   4.113
 6789TIP3    H220311   6.074   1.470   4.202
 6790TIP3   OH220312   3.363   4.165   5.639
 6790TIP3    H120313   3.357   4.124   5.725
 6790TIP3    H220314   3.273   4.164   5.606
 6791TIP3   OH220315   3.954   1.279   3.605
 6791TIP3    H120316   3.862   1.255   3.592
 6791TIP3    H220317   4.000   1.238   3.532
 6792TIP3   OH220318   5.133   2.955   4.284
 6792TIP3    H120319   5.176   3.009   4.218
 6792TIP3    H220320   5.139   2.866   4.250
 6793TIP3   OH220321   2.176   5.659   5.799
 6793TIP3    H120322   2.147   5.750   5.812
 6793TIP3    H220323   2.252   5.666   5.742
 6794TIP3   OH220324   4.052   0.222   1.999
 6794TIP3    H120325   4.012   0.187   2.078
 6794TIP3    H220326   4.043   0.317   2.007
 6795TIP3   OH220327   5.786   0.143   0.106
 6795TIP3    H120328   5.881   0.152   0.108
 6795TIP3    H220329   5.763   0.113   0.194
 6796TIP3   OH220330   0.679   0.216   6.506
 6796TIP3    H120331   0.669   0.311   6.514
 6796TIP3    H220332   0.615   0.180   6.566
 6797TIP3   OH220333   1.343   3.123   4.717
 6797TIP3    H120334   1.376   3.034   4.731
 6797TIP3    H220335   1.413   3.180   4.750
 6798TIP3   OH220336   1.516   7.212   2.101
 6798TIP3    H120337   1.549   7.216   2.190
 6798TIP3    H220338   1.552   7.130   2.066
 6799TIP3   OH220339   0.830   1.540   1.675
 6799TIP3    H120340   0.814   1.589   1.756
 6799TIP3    H220341   0.925   1.533   1.669
 6800TIP3   OH220342   7.799   5.250   2.792
 6800TIP3    H120343   7.864   5.180   2.805
 6800TIP3    H220344   7.820   5.315   2.859
 6801TIP3   OH220345   4.821   7.022   2.515
 6801TIP3    H120346   4.854   6.960   2.579
 6801TIP3    H220347   4.890   7.088   2.508
 6802TIP3   OH220348   5.915   6.362   1.427
 6802TIP3    H120349   6.011   6.369   1.429
 6802TIP3    H220350   5.892   6.373   1.335
 6803TIP3   OH220351   7.559   3.635   0.857
 6803TIP3    H120352   7.527   3.724   0.868
 6803TIP3    H220353   7.557   3.620   0.762
 6804TIP3   OH220354   3.972   1.139   5.997
 6804TIP3    H120355   4.000   1.224   5.966
 6804TIP3    H220356   4.034   1.077   5.958
 6805TIP3   OH220357   3.084   4.053   2.810
 6805TIP3    H120358   3.025   4.125   2.786
 6805TIP3    H220359   3.138   4.089   2.880
 6806TIP3   OH220360   7.857   1.278   1.270
 6806TIP3    H120361   7.896   1.362   1.293
 6806TIP3    H220362   7.828   1.289   1.180
 6807TIP3   OH220363   3.913   4.675   0.184
 6807TIP3    H120364   3.838   4.682   0.243
 6807TIP3    H220365   3.972   4.745   0.212
 6808TIP3   OH220366   5.338   0.545   1.586
 6808TIP3    H120367   5.418   0.590   1.613
 6808TIP3    H220368   5.358   0.452   1.596
 6809TIP3   OH220369   1.218   5.946   1.469
 6809TIP3    H120370   1.238   5.917   1.380
 6809TIP3    H220371   1.304   5.953   1.511
 6810TIP3   OH220372   4.145   2.297   2.561
 6810TIP3    H120373   4.174   2.302   2.652
 6810TIP3    H220374   4.209   2.240   2.518
 6811TIP3   OH220375   2.542   2.453   0.755
 6811TIP3    H120376   2.612   2.475   0.694
 6811TIP3    H220377   2.563   2.502   0.834
 6812TIP3   OH220378   3.819   4.171   6.578
 6812TIP3    H120379   3.880   4.101   6.555
 6812TIP3    H220380   3.875   4.245   6.601
 6813TIP3   OH220381   6.381   7.048   3.781
 6813TIP3    H120382   6.438   7.101   3.726
 6813TIP3    H220383   6.303   7.034   3.727
 6814TIP3   OH220384   6.072   6.644   2.169
 6814TIP3    H120385   6.095   6.727   2.212
 6814TIP3    H220386   5.982   6.627   2.197
 6815TIP3   OH220387   6.390   7.355   2.470
 6815TIP3    H120388   6.381   7.354   2.566
 6815TIP3    H220389   6.316   7.407   2.440
 6816TIP3   OH220390   5.386   7.775   5.816
 6816TIP3    H120391   5.353   7.715   5.749
 6816TIP3    H220392   5.467   7.735   5.846
 6817TIP3   OH220393   7.850   1.643   5.748
 6817TIP3    H120394   7.849   1.732   5.712
 6817TIP3    H220395   7.902   1.593   5.685
 6818TIP3   OH220396   1.722   4.890   3.333
 6818TIP3    H120397   1.694   4.856   3.418
 6818TIP3    H220398   1.643   4.889   3.279
 6819TIP3   OH220399   2.788   1.404   5.766
 6819TIP3    H120400   2.746   1.487   5.790
 6819TIP3    H220401   2.805   1.412   5.672
 6820TIP3   OH220402   4.647   6.632   3.277
 6820TIP3    H120403   4.581   6.582   3.325
 6820TIP3    H220404   4.727   6.580   3.284
 6821TIP3   OH220405   6.393   3.488   4.334
 6821TIP3    H120406   6.433   3.575   4.338
 6821TIP3    H220407   6.461   3.429   4.369
 6822TIP3   OH220408   3.132   3.914   2.567
 6822TIP3    H120409   3.221   3.947   2.549
 6822TIP3    H220410   3.102   3.967   2.641
 6823TIP3   OH220411   4.658   4.257   5.920
 6823TIP3    H120412   4.655   4.338   5.869
 6823TIP3    H220413   4.590   4.201   5.881
 6824TIP3   OH220414   6.388   1.971   1.083
 6824TIP3    H120415   6.398   1.911   1.156
 6824TIP3    H220416   6.377   2.057   1.123
 6825TIP3   OH220417   5.287   3.211   5.955
 6825TIP3    H120418   5.318   3.302   5.956
 6825TIP3    H220419   5.363   3.160   5.985
 6826TIP3   OH220420   1.757   2.562   1.676
 6826TIP3    H120421   1.775   2.514   1.595
 6826TIP3    H220422   1.676   2.522   1.709
 6827TIP3   OH220423   0.615   7.509   2.789
 6827TIP3    H120424   0.651   7.506   2.877
 6827TIP3    H220425   0.607   7.602   2.769
 6828TIP3   OH220426   4.485   4.150   0.413
 6828TIP3    H120427   4.460   4.061   0.390
 6828TIP3    H220428   4.569   4.141   0.459
 6829TIP3   OH220429   3.909   3.236   1.696
 6829TIP3    H120430   3.839   3.221   1.759
 6829TIP3    H220431   3.873   3.302   1.637
 6830TIP3   OH220432   0.696   5.400   6.268
 6830TIP3    H120433   0.681   5.327   6.208
 6830TIP3    H220434   0.780   5.379   6.310
 6831TIP3   OH220435   0.021   3.877   1.576
 6831TIP3    H120436   0.097   3.832   1.539
 6831TIP3    H220437   0.055   3.915   1.658
 6832TIP3   OH220438   0.625   6.408   5.707
 6832TIP3    H120439   0.629   6.480   5.770
 6832TIP3    H220440   0.690   6.430   5.641
 6833TIP3   OH220441   5.332   3.773   2.898
 6833TIP3    H120442   5.273   3.819   2.838
 6833TIP3    H220443   5.356   3.693   2.852
 6834TIP3   OH220444   6.491   4.832   3.451
 6834TIP3    H120445   6.469   4.795   3.536
 6834TIP3    H220446   6.464   4.924   3.456
 6835TIP3   OH220447   4.218   2.542   6.708
 6835TIP3    H120448   4.175   2.559   6.624
 6835TIP3    H220449   4.146   2.538   6.771
 6836TIP3   OH220450   1.051   6.590   4.334
 6836TIP3    H120451   1.013   6.656   4.275
 6836TIP3    H220452   1.005   6.509   4.313
 6837TIP3   OH220453   3.775   2.195   6.030
 6837TIP3    H120454   3.733   2.142   5.963
 6837TIP3    H220455   3.867   2.171   6.025
 6838TIP3   OH220456   6.611   3.035   5.385
 6838TIP3    H120457   6.643   3.050   5.474
 6838TIP3    H220458   6.647   2.950   5.360
 6839TIP3   OH220459   2.917   2.624   1.880
 6839TIP3    H120460   2.961   2.542   1.854
 6839TIP3    H220461   2.914   2.621   1.975
 6840TIP3   OH220462   7.190   2.329   3.046
 6840TIP3    H120463   7.244   2.370   3.113
 6840TIP3    H220464   7.230   2.354   2.963
 6841TIP3   OH220465   2.349   1.244   5.609
 6841TIP3    H120466   2.408   1.218   5.680
 6841TIP3    H220467   2.281   1.295   5.652
 6842TIP3   OH220468   0.234   6.606   0.426
 6842TIP3    H120469   0.327   6.594   0.445
 6842TIP3    H220470   0.220   6.557   0.344
 6843TIP3   OH220471   6.337   2.194   6.690
 6843TIP3    H120472   6.272   2.229   6.751
 6843TIP3    H220473   6.350   2.263   6.625
 6844TIP3   OH220474   1.510   1.848   0.025
 6844TIP3    H120475   1.434   1.891  -0.015
 6844TIP3    H220476   1.575   1.918   0.033
 6845TIP3   OH220477   4.143   7.750   1.745
 6845TIP3    H120478   4.182   7.734   1.659
 6845TIP3    H220479   4.057   7.789   1.725
 6846TIP3   OH220480   1.952   1.222   5.066
 6846TIP3    H120481   1.941   1.134   5.031
 6846TIP3    H220482   2.044   1.244   5.047
 6847TIP3   OH220483   2.752   0.861   5.047
 6847TIP3    H120484   2.838   0.895   5.023
 6847TIP3    H220485   2.721   0.920   5.115
 6848TIP3   OH220486   7.829   4.656   4.568
 6848TIP3    H120487   7.805   4.749   4.563
 6848TIP3    H220488   7.923   4.656   4.584
 6849TIP3   OH220489   0.419   0.473   1.864
 6849TIP3    H120490   0.324   0.481   1.861
 6849TIP3    H220491   0.443   0.441   1.777
 6850TIP3   OH220492   5.197   2.234   2.119
 6850TIP3    H120493   5.138   2.189   2.059
 6850TIP3    H220494   5.252   2.164   2.156
 6851TIP3   OH220495   0.511   7.550   1.346
 6851TIP3    H120496   0.435   7.509   1.306
 6851TIP3    H220497   0.583   7.531   1.287
 6852TIP3   OH220498   7.505   4.650   0.447
 6852TIP3    H120499   7.533   4.601   0.525
 6852TIP3    H220500   7.463   4.585   0.391
 6853TIP3   OH220501   7.874   7.631   1.715
 6853TIP3    H120502   7.908   7.719   1.728
 6853TIP3    H220503   7.827   7.611   1.796
 6854TIP3   OH220504   3.978   2.678   2.298
 6854TIP3    H120505   4.033   2.608   2.331
 6854TIP3    H220506   3.889   2.642   2.299
 6855TIP3   OH220507   3.508   3.056   4.654
 6855TIP3    H120508   3.482   3.012   4.735
 6855TIP3    H220509   3.504   3.149   4.675
 6856TIP3   OH220510   7.394   4.011   1.391
 6856TIP3    H120511   7.447   4.077   1.346
 6856TIP3    H220512   7.397   3.935   1.333
 6857TIP3   OH220513   6.613   6.914   1.551
 6857TIP3    H120514   6.687   6.961   1.589
 6857TIP3    H220515   6.653   6.854   1.489
 6858TIP3   OH220516   0.778   6.501   5.496
 6858TIP3    H120517   0.819   6.477   5.414
 6858TIP3    H220518   0.835   6.568   5.534
 6859TIP3   OH220519   7.571   0.165   2.442
 6859TIP3    H120520   7.504   0.214   2.393
 6859TIP3    H220521   7.525   0.089   2.476
 6860TIP3   OH220522   3.072   3.451   0.549
 6860TIP3    H120523   3.030   3.405   0.476
 6860TIP3    H220524   3.166   3.444   0.531
 6861TIP3   OH220525   1.366   5.091   5.855
 6861TIP3    H120526   1.380   5.179   5.821
 6861TIP3    H220527   1.454   5.054   5.863
 6862TIP3   OH220528   7.372   7.671   4.264
 6862TIP3    H120529   7.420   7.747   4.297
 6862TIP3    H220530   7.328   7.634   4.341
 6863TIP3   OH220531   1.218   3.145   2.549
 6863TIP3    H120532   1.242   3.064   2.505
 6863TIP3    H220533   1.193   3.204   2.479
 6864TIP3   OH220534   2.331   0.919   0.897
 6864TIP3    H120535   2.249   0.922   0.946
 6864TIP3    H220536   2.319   0.847   0.835
 6865TIP3   OH220537   4.295   5.183   2.318
 6865TIP3    H120538   4.265   5.274   2.316
 6865TIP3    H220539   4.377   5.185   2.367
 6866TIP3   OH220540   6.665   7.069   3.180
 6866TIP3    H120541   6.640   7.162   3.178
 6866TIP3    H220542   6.746   7.068   3.231
 6867TIP3   OH220543   8.092   6.568   1.727
 6867TIP3    H120544   8.104   6.503   1.658
 6867TIP3    H220545   8.033   6.633   1.688
 6868TIP3   OH220546   4.517   2.741   4.865
 6868TIP3    H120547   4.591   2.715   4.920
 6868TIP3    H220548   4.557   2.784   4.789
 6869TIP3   OH220549   2.979   4.716   1.137
 6869TIP3    H120550   3.000   4.747   1.049
 6869TIP3    H220551   3.012   4.784   1.196
 6870TIP3   OH220552   6.169   0.831   6.326
 6870TIP3    H120553   6.264   0.834   6.340
 6870TIP3    H220554   6.159   0.775   6.249
 6871TIP3   OH220555   2.543   0.683   1.594
 6871TIP3    H120556   2.558   0.598   1.635
 6871TIP3    H220557   2.629   0.725   1.594
 6872TIP3   OH220558   2.815   2.779   0.044
 6872TIP3    H120559   2.740   2.809  -0.008
 6872TIP3    H220560   2.804   2.822   0.129
 6873TIP3   OH220561   4.061   2.802   2.064
 6873TIP3    H120562   4.023   2.755   2.138
 6873TIP3    H220563   4.024   2.759   1.987
 6874TIP3   OH220564   1.412   1.200   3.235
 6874TIP3    H120565   1.416   1.281   3.184
 6874TIP3    H220566   1.350   1.144   3.188
 6875TIP3   OH220567   2.964   6.226   0.184
 6875TIP3    H120568   2.983   6.320   0.176
 6875TIP3    H220569   2.869   6.221   0.194
 6876TIP3   OH220570   6.443   0.762   6.212
 6876TIP3    H120571   6.435   0.674   6.176
 6876TIP3    H220572   6.537   0.772   6.229
 6877TIP3   OH220573   4.012   7.242   2.909
 6877TIP3    H120574   4.062   7.171   2.948
 6877TIP3    H220575   4.019   7.227   2.814
 6878TIP3   OH220576   7.639   0.442   2.652
 6878TIP3    H120577   7.607   0.411   2.737
 6878TIP3    H220578   7.559   0.458   2.601
 6879TIP3   OH220579   7.234   6.783   0.318
 6879TIP3    H120580   7.300   6.723   0.353
 6879TIP3    H220581   7.268   6.870   0.341
 6880TIP3   OH220582   2.409   1.764   6.188
 6880TIP3    H120583   2.450   1.850   6.184
 6880TIP3    H220584   2.366   1.761   6.274
 6881TIP3   OH220585   5.786   4.841   5.400
 6881TIP3    H120586   5.757   4.760   5.441
 6881TIP3    H220587   5.705   4.889   5.382
 6882TIP3   OH220588   6.689   7.040   6.512
 6882TIP3    H120589   6.671   7.032   6.419
 6882TIP3    H220590   6.638   7.116   6.540
 6883TIP3   OH220591   7.164   5.164   6.562
 6883TIP3    H120592   7.205   5.079   6.577
 6883TIP3    H220593   7.236   5.225   6.553
 6884TIP3   OH220594   1.079   6.882   5.506
 6884TIP3    H120595   1.102   6.904   5.597
 6884TIP3    H220596   1.011   6.815   5.515
 6885TIP3   OH220597   3.954   0.530   6.384
 6885TIP3    H120598   3.975   0.482   6.305
 6885TIP3    H220599   3.954   0.622   6.358
 6886TIP3   OH220600   1.916   3.464   0.849
 6886TIP3    H120601   1.997   3.464   0.798
 6886TIP3    H220602   1.901   3.372   0.870
 6887TIP3   OH220603   7.140   4.059   4.284
 6887TIP3    H120604   7.213   4.102   4.242
 6887TIP3    H220605   7.099   4.127   4.337
 6888TIP3   OH220606   6.288   6.760   2.019
 6888TIP3    H120607   6.224   6.694   2.045
 6888TIP3    H220608   6.336   6.720   1.946
 6889TIP3   OH220609   8.083   5.488   6.396
 6889TIP3    H120610   8.124   5.558   6.447
 6889TIP3    H220611   8.074   5.416   6.458
 6890TIP3   OH220612   6.239   2.613   3.073
 6890TIP3    H120613   6.239   2.603   3.168
 6890TIP3    H220614   6.331   2.606   3.049
 6891TIP3   OH220615   3.938   2.037   0.356
 6891TIP3    H120616   3.994   1.962   0.375
 6891TIP3    H220617   3.914   2.027   0.264
 6892TIP3   OH220618   6.390   5.476   3.186
 6892TIP3    H120619   6.386   5.450   3.278
 6892TIP3    H220620   6.472   5.526   3.179
 6893TIP3   OH220621   2.202   6.522   4.245
 6893TIP3    H120622   2.183   6.443   4.194
 6893TIP3    H220623   2.186   6.496   4.336
 6894TIP3   OH220624   7.987   4.616   6.426
 6894TIP3    H120625   7.942   4.642   6.346
 6894TIP3    H220626   8.072   4.660   6.421
 6895TIP3   OH220627   4.753   1.738   3.216
 6895TIP3    H120628   4.678   1.682   3.235
 6895TIP3    H220629   4.748   1.808   3.281
 6896TIP3   OH220630   2.603   0.970   3.481
 6896TIP3    H120631   2.691   0.990   3.513
 6896TIP3    H220632   2.606   0.877   3.457
 6897TIP3   OH220633   1.335   5.982   2.417
 6897TIP3    H120634   1.405   6.003   2.480
 6897TIP3    H220635   1.277   6.058   2.420
 6898TIP3   OH220636   1.451   5.186   1.528
 6898TIP3    H120637   1.398   5.205   1.605
 6898TIP3    H220638   1.481   5.272   1.498
 6899TIP3   OH220639   0.366   0.846   2.677
 6899TIP3    H120640   0.354   0.751   2.672
 6899TIP3    H220641   0.283   0.882   2.646
 6900TIP3   OH220642   5.776   2.005   0.162
 6900TIP3    H120643   5.766   2.035   0.072
 6900TIP3    H220644   5.711   1.935   0.172
 6901TIP3   OH220645   1.001   2.463   2.050
 6901TIP3    H120646   1.083   2.511   2.061
 6901TIP3    H220647   1.026   2.371   2.054
 6902TIP3   OH220648   4.204   6.352   2.582
 6902TIP3    H120649   4.223   6.397   2.664
 6902TIP3    H220650   4.283   6.302   2.563
 6903TIP3   OH220651   4.816   0.937   2.130
 6903TIP3    H120652   4.884   0.892   2.081
 6903TIP3    H220653   4.861   0.976   2.205
 6904TIP3   OH220654   4.012   1.698   6.418
 6904TIP3    H120655   4.093   1.708   6.368
 6904TIP3    H220656   3.992   1.605   6.413
 6905TIP3   OH220657   4.177   3.800   3.828
 6905TIP3    H120658   4.160   3.884   3.784
 6905TIP3    H220659   4.191   3.738   3.757
 6906TIP3   OH220660   2.842   0.709   5.821
 6906TIP3    H120661   2.867   0.799   5.798
 6906TIP3    H220662   2.827   0.666   5.737
 6907TIP3   OH220663   6.874   2.632   2.111
 6907TIP3    H120664   6.939   2.680   2.162
 6907TIP3    H220665   6.863   2.683   2.031
 6908TIP3   OH220666   3.277   5.093   2.579
 6908TIP3    H120667   3.340   5.162   2.558
 6908TIP3    H220668   3.264   5.046   2.497
 6909TIP3   OH220669   3.548   7.677   0.231
 6909TIP3    H120670   3.525   7.652   0.320
 6909TIP3    H220671   3.643   7.686   0.232
 6910TIP3   OH220672   5.932   5.527   1.966
 6910TIP3    H120673   5.949   5.446   2.014
 6910TIP3    H220674   6.014   5.576   1.972
 6911TIP3   OH220675   2.133   5.407   3.751
 6911TIP3    H120676   2.094   5.393   3.665
 6911TIP3    H220677   2.101   5.493   3.779
 6912TIP3   OH220678   5.582   5.076   0.019
 6912TIP3    H120679   5.581   5.172   0.019
 6912TIP3    H220680   5.645   5.053   0.088
 6913TIP3   OH220681   1.190   3.505   2.731
 6913TIP3    H120682   1.269   3.498   2.677
 6913TIP3    H220683   1.195   3.593   2.768
 6914TIP3   OH220684   4.347   5.569   0.686
 6914TIP3    H120685   4.378   5.638   0.745
 6914TIP3    H220686   4.267   5.604   0.648
 6915TIP3   OH220687   5.742   4.776   2.129
 6915TIP3    H120688   5.779   4.695   2.093
 6915TIP3    H220689   5.785   4.786   2.214
 6916TIP3   OH220690   5.935   2.291   2.179
 6916TIP3    H120691   5.919   2.228   2.109
 6916TIP3    H220692   5.865   2.356   2.169
 6917TIP3   OH220693   5.416   4.085   2.746
 6917TIP3    H120694   5.464   4.142   2.685
 6917TIP3    H220695   5.332   4.069   2.703
 6918TIP3   OH220696   1.449   6.744   6.284
 6918TIP3    H120697   1.376   6.682   6.297
 6918TIP3    H220698   1.496   6.743   6.368
 6919TIP3   OH220699   3.462   2.624   1.753
 6919TIP3    H120700   3.497   2.535   1.748
 6919TIP3    H220701   3.369   2.615   1.731
 6920TIP3   OH220702   2.631   7.088   1.520
 6920TIP3    H120703   2.613   7.158   1.583
 6920TIP3    H220704   2.555   7.030   1.527
 6921TIP3   OH220705   1.175   0.941   4.224
 6921TIP3    H120706   1.171   0.935   4.129
 6921TIP3    H220707   1.140   0.857   4.255
 6922TIP3   OH220708   8.120   0.396   0.311
 6922TIP3    H120709   8.141   0.459   0.379
 6922TIP3    H220710   8.052   0.341   0.349
 6923TIP3   OH220711   4.555   3.207   0.737
 6923TIP3    H120712   4.488   3.169   0.794
 6923TIP3    H220713   4.638   3.173   0.771
 6924TIP3   OH220714   5.437   2.660   6.163
 6924TIP3    H120715   5.425   2.595   6.094
 6924TIP3    H220716   5.497   2.619   6.225
 6925TIP3   OH220717   6.337   0.937   3.931
 6925TIP3    H120718   6.268   0.879   3.963
 6925TIP3    H220719   6.383   0.966   4.010
 6926TIP3   OH220720   3.710   6.510   4.387
 6926TIP3    H120721   3.658   6.431   4.378
 6926TIP3    H220722   3.690   6.561   4.309
 6927TIP3   OH220723   3.300   7.436   4.856
 6927TIP3    H120724   3.390   7.410   4.871
 6927TIP3    H220725   3.251   7.397   4.929
 6928TIP3   OH220726   1.451   0.337   6.654
 6928TIP3    H120727   1.542   0.331   6.625
 6928TIP3    H220728   1.446   0.417   6.706
 6929TIP3   OH220729   7.604   2.434   1.165
 6929TIP3    H120730   7.689   2.477   1.176
 6929TIP3    H220731   7.545   2.485   1.221
 6930TIP3   OH220732   2.327   6.801   0.431
 6930TIP3    H120733   2.358   6.711   0.440
 6930TIP3    H220734   2.243   6.802   0.478
 6931TIP3   OH220735   4.396   6.781   4.029
 6931TIP3    H120736   4.428   6.738   4.108
 6931TIP3    H220737   4.303   6.758   4.026
 6932TIP3   OH220738   1.225   2.613   2.562
 6932TIP3    H120739   1.136   2.575   2.561
 6932TIP3    H220740   1.229   2.660   2.645
 6933TIP3   OH220741   0.480   3.807   6.662
 6933TIP3    H120742   0.570   3.774   6.657
 6933TIP3    H220743   0.467   3.827   6.755
 6934TIP3   OH220744   1.763   3.720   6.604
 6934TIP3    H120745   1.675   3.747   6.628
 6934TIP3    H220746   1.775   3.752   6.515
 6935TIP3   OH220747   8.269   2.942   0.823
 6935TIP3    H120748   8.356   2.977   0.804
 6935TIP3    H220749   8.286   2.866   0.879
 6936TIP3   OH220750   6.736   3.954   4.156
 6936TIP3    H120751   6.655   4.001   4.135
 6936TIP3    H220752   6.753   3.900   4.079
 6937TIP3   OH220753   7.954   0.765   3.380
 6937TIP3    H120754   7.950   0.813   3.298
 6937TIP3    H220755   7.900   0.688   3.366
 6938TIP3   OH220756   2.231   0.524   6.419
 6938TIP3    H120757   2.141   0.510   6.390
 6938TIP3    H220758   2.266   0.590   6.358
 6939TIP3   OH220759   2.483   1.139   2.677
 6939TIP3    H120760   2.512   1.123   2.587
 6939TIP3    H220761   2.499   1.232   2.690
 6940TIP3   OH220762   3.775   3.119   6.146
 6940TIP3    H120763   3.830   3.130   6.224
 6940TIP3    H220764   3.739   3.206   6.131
 6941TIP3   OH220765   7.888   3.267   0.821
 6941TIP3    H120766   7.794   3.288   0.820
 6941TIP3    H220767   7.891   3.173   0.805
 6942TIP3   OH220768   0.984   1.245   3.641
 6942TIP3    H120769   1.014   1.333   3.619
 6942TIP3    H220770   0.924   1.257   3.714
 6943TIP3   OH220771   1.357   3.897   2.173
 6943TIP3    H120772   1.262   3.886   2.165
 6943TIP3    H220773   1.369   3.991   2.187
 6944TIP3   OH220774   5.438   1.170   1.218
 6944TIP3    H120775   5.440   1.222   1.299
 6944TIP3    H220776   5.530   1.145   1.204
 6945TIP3   OH220777   6.088   3.302   0.702
 6945TIP3    H120778   6.075   3.209   0.722
 6945TIP3    H220779   6.059   3.347   0.781
 6946TIP3   OH220780   3.774   5.598   5.391
 6946TIP3    H120781   3.767   5.507   5.421
 6946TIP3    H220782   3.684   5.629   5.387
 6947TIP3   OH220783   7.746   4.216   0.853
 6947TIP3    H120784   7.663   4.262   0.863
 6947TIP3    H220785   7.812   4.283   0.872
 6948TIP3   OH220786   1.327   5.703   4.688
 6948TIP3    H120787   1.374   5.690   4.770
 6948TIP3    H220788   1.263   5.771   4.708
 6949TIP3   OH220789   4.536   6.690   6.455
 6949TIP3    H120790   4.591   6.698   6.376
 6949TIP3    H220791   4.467   6.755   6.442
 6950TIP3   OH220792   2.811   2.995   6.540
 6950TIP3    H120793   2.762   3.072   6.512
 6950TIP3    H220794   2.898   3.028   6.562
 6951TIP3   OH220795   0.298   6.856   1.354
 6951TIP3    H120796   0.318   6.893   1.440
 6951TIP3    H220797   0.324   6.925   1.292
 6952TIP3   OH220798   2.968   4.103   4.115
 6952TIP3    H120799   3.064   4.108   4.113
 6952TIP3    H220800   2.946   4.034   4.052
 6953TIP3   OH220801   1.504   2.498   4.728
 6953TIP3    H120802   1.416   2.532   4.747
 6953TIP3    H220803   1.489   2.430   4.663
 6954TIP3   OH220804   1.578   4.231   5.465
 6954TIP3    H120805   1.664   4.188   5.467
 6954TIP3    H220806   1.598   4.325   5.466
 6955TIP3   OH220807   4.506   6.372   1.148
 6955TIP3    H120808   4.498   6.444   1.211
 6955TIP3    H220809   4.421   6.329   1.151
 6956TIP3   OH220810   2.173   5.947   5.466
 6956TIP3    H120811   2.219   5.950   5.550
 6956TIP3    H220812   2.242   5.929   5.402
 6957TIP3   OH220813   1.057   1.374   1.343
 6957TIP3    H120814   0.992   1.421   1.290
 6957TIP3    H220815   1.047   1.282   1.318
 6958TIP3   OH220816   6.628   4.332   4.604
 6958TIP3    H120817   6.710   4.321   4.653
 6958TIP3    H220818   6.587   4.246   4.604
 6959TIP3   OH220819   6.666   6.299   4.050
 6959TIP3    H120820   6.615   6.357   3.993
 6959TIP3    H220821   6.664   6.341   4.136
 6960TIP3   OH220822   0.102   4.674   1.248
 6960TIP3    H120823   0.098   4.765   1.217
 6960TIP3    H220824   0.059   4.675   1.333
 6961TIP3   OH220825   8.075   3.393   1.302
 6961TIP3    H120826   8.063   3.411   1.209
 6961TIP3    H220827   8.167   3.412   1.318
 6962TIP3   OH220828   5.633   5.162   2.296
 6962TIP3    H120829   5.656   5.175   2.388
 6962TIP3    H220830   5.709   5.118   2.258
 6963TIP3   OH220831   1.176   6.858   6.497
 6963TIP3    H120832   1.102   6.907   6.462
 6963TIP3    H220833   1.143   6.769   6.509
 6964TIP3   OH220834   6.846   6.348   0.754
 6964TIP3    H120835   6.914   6.332   0.688
 6964TIP3    H220836   6.875   6.298   0.830
 6965TIP3   OH220837   5.464   5.680   3.218
 6965TIP3    H120838   5.396   5.669   3.152
 6965TIP3    H220839   5.424   5.736   3.285
 6966TIP3   OH220840   5.628   0.070   0.502
 6966TIP3    H120841   5.671  -0.002   0.455
 6966TIP3    H220842   5.627   0.041   0.593
 6967TIP3   OH220843   1.296   4.254   4.882
 6967TIP3    H120844   1.292   4.174   4.830
 6967TIP3    H220845   1.238   4.236   4.957
 6968TIP3   OH220846   4.792   0.130   6.185
 6968TIP3    H120847   4.789   0.052   6.240
 6968TIP3    H220848   4.715   0.181   6.212
 6969TIP3   OH220849   2.797   0.438   0.658
 6969TIP3    H120850   2.811   0.373   0.590
 6969TIP3    H220851   2.774   0.387   0.736
 6970TIP3   OH220852   7.635   5.226   1.104
 6970TIP3    H120853   7.608   5.297   1.163
 6970TIP3    H220854   7.626   5.264   1.016
 6971TIP3   OH220855   0.316   0.269   4.782
 6971TIP3    H120856   0.311   0.258   4.877
 6971TIP3    H220857   0.225   0.260   4.752
 6972TIP3   OH220858   3.215   2.168   5.601
 6972TIP3    H120859   3.188   2.162   5.692
 6972TIP3    H220860   3.133   2.182   5.553
 6973TIP3   OH220861   6.617   2.620   6.067
 6973TIP3    H120862   6.670   2.676   6.125
 6973TIP3    H220863   6.539   2.672   6.050
 6974TIP3   OH220864   3.933   1.943   0.097
 6974TIP3    H120865   3.874   1.870   0.078
 6974TIP3    H220866   3.959   1.976   0.011
 6975TIP3   OH220867   6.008   1.420   6.681
 6975TIP3    H120868   6.080   1.408   6.743
 6975TIP3    H220869   6.050   1.448   6.600
 6976TIP3   OH220870   2.394   2.554   5.801
 6976TIP3    H120871   2.318   2.521   5.850
 6976TIP3    H220872   2.356   2.615   5.738
 6977TIP3   OH220873   0.945   0.945   4.604
 6977TIP3    H120874   0.942   0.851   4.587
 6977TIP3    H220875   0.875   0.982   4.551
 6978TIP3   OH220876   8.286   1.826   0.747
 6978TIP3    H120877   8.343   1.822   0.670
 6978TIP3    H220878   8.343   1.857   0.817
 6979TIP3   OH220879   2.444   1.207   0.629
 6979TIP3    H120880   2.498   1.156   0.690
 6979TIP3    H220881   2.485   1.294   0.629
 6980TIP3   OH220882   2.854   1.549   1.096
 6980TIP3    H120883   2.924   1.613   1.081
 6980TIP3    H220884   2.775   1.592   1.063
 6981TIP3   OH220885   2.685   7.193   0.073
 6981TIP3    H120886   2.714   7.223  -0.013
 6981TIP3    H220887   2.605   7.243   0.091
 6982TIP3   OH220888   7.289   3.167   6.653
 6982TIP3    H120889   7.266   3.174   6.561
 6982TIP3    H220890   7.263   3.079   6.678
 6983TIP3   OH220891   0.120   4.870   4.475
 6983TIP3    H120892   0.145   4.962   4.482
 6983TIP3    H220893   0.024   4.871   4.475
 6984TIP3   OH220894   1.293   7.647   5.526
 6984TIP3    H120895   1.231   7.597   5.579
 6984TIP3    H220896   1.244   7.669   5.447
 6985TIP3   OH220897   3.997   5.320   5.644
 6985TIP3    H120898   4.052   5.250   5.679
 6985TIP3    H220899   3.963   5.285   5.561
 6986TIP3   OH220900   1.899   2.799   6.341
 6986TIP3    H120901   1.958   2.734   6.377
 6986TIP3    H220902   1.924   2.807   6.249
 6987TIP3   OH220903   2.208   2.735   3.544
 6987TIP3    H120904   2.162   2.754   3.626
 6987TIP3    H220905   2.141   2.698   3.487
 6988TIP3   OH220906   6.656   3.832   2.674
 6988TIP3    H120907   6.639   3.779   2.596
 6988TIP3    H220908   6.601   3.910   2.662
 6989TIP3   OH220909   2.707   7.576   4.160
 6989TIP3    H120910   2.621   7.607   4.188
 6989TIP3    H220911   2.692   7.538   4.074
 6990TIP3   OH220912   4.987   7.608   0.423
 6990TIP3    H120913   4.943   7.644   0.345
 6990TIP3    H220914   4.944   7.523   0.437
 6991TIP3   OH220915   1.655   3.324   3.025
 6991TIP3    H120916   1.591   3.291   3.088
 6991TIP3    H220917   1.672   3.414   3.053
 6992TIP3   OH220918   3.418   1.956   0.017
 6992TIP3    H120919   3.392   1.864   0.007
 6992TIP3    H220920   3.379   2.000  -0.058
 6993TIP3   OH220921   5.023   5.609   3.239
 6993TIP3    H120922   5.040   5.571   3.326
 6993TIP3    H220923   4.941   5.569   3.210
 6994TIP3   OH220924   3.224   7.405   2.390
 6994TIP3    H120925   3.223   7.324   2.338
 6994TIP3    H220926   3.288   7.460   2.345
 6995TIP3   OH220927   7.232   2.679   1.400
 6995TIP3    H120928   7.279   2.697   1.481
 6995TIP3    H220929   7.276   2.602   1.363
 6996TIP3   OH220930   4.299   0.474   5.533
 6996TIP3    H120931   4.205   0.489   5.543
 6996TIP3    H220932   4.335   0.489   5.621
 6997TIP3   OH220933   2.563   1.105   5.489
 6997TIP3    H120934   2.484   1.156   5.506
 6997TIP3    H220935   2.550   1.023   5.538
 6998TIP3   OH220936   6.117   1.306   2.998
 6998TIP3    H120937   6.097   1.383   2.944
 6998TIP3    H220938   6.036   1.255   2.999
 6999TIP3   OH220939   6.398   3.522   6.386
 6999TIP3    H120940   6.475   3.559   6.428
 6999TIP3    H220941   6.433   3.462   6.320
 7000TIP3   OH220942   0.267   1.380   1.095
 7000TIP3    H120943   0.215   1.334   1.029
 7000TIP3    H220944   0.251   1.472   1.078
 7001TIP3   OH220945   1.524   1.822   4.470
 7001TIP3    H120946   1.479   1.772   4.538
 7001TIP3    H220947   1.537   1.759   4.399
 7002TIP3   OH220948   7.933   4.000   0.919
 7002TIP3    H120949   7.873   4.073   0.907
 7002TIP3    H220950   7.889   3.943   0.983
 7003TIP3   OH220951   5.871   0.057   1.951
 7003TIP3    H120952   5.837  -0.005   2.015
 7003TIP3    H220953   5.813   0.049   1.876
 7004TIP3   OH220954   4.864   0.921   5.342
 7004TIP3    H120955   4.878   0.833   5.306
 7004TIP3    H220956   4.769   0.934   5.336
 7005TIP3   OH220957   3.269   1.692   0.898
 7005TIP3    H120958   3.253   1.705   0.805
 7005TIP3    H220959   3.364   1.701   0.907
 7006TIP3   OH220960   2.505   5.415   5.581
 7006TIP3    H120961   2.572   5.390   5.645
 7006TIP3    H220962   2.545   5.397   5.496
 7007TIP3   OH220963   5.753   5.292   1.832
 7007TIP3    H120964   5.801   5.346   1.769
 7007TIP3    H220965   5.813   5.283   1.906
 7008TIP3   OH220966   3.040   7.700   6.304
 7008TIP3    H120967   2.958   7.697   6.253
 7008TIP3    H220968   3.029   7.775   6.362
 7009TIP3   OH220969   0.182   0.611   6.154
 7009TIP3    H120970   0.191   0.604   6.059
 7009TIP3    H220971   0.253   0.557   6.188
 7010TIP3   OH220972   4.457   1.285   0.118
 7010TIP3    H120973   4.368   1.306   0.092
 7010TIP3    H220974   4.493   1.366   0.153
 7011TIP3   OH220975   3.549   1.581   6.337
 7011TIP3    H120976   3.471   1.623   6.372
 7011TIP3    H220977   3.565   1.507   6.397
 7012TIP3   OH220978   4.363   5.892   1.783
 7012TIP3    H120979   4.313   5.889   1.702
 7012TIP3    H220980   4.419   5.970   1.774
 7013TIP3   OH220981   1.356   4.773   3.272
 7013TIP3    H120982   1.417   4.752   3.343
 7013TIP3    H220983   1.410   4.819   3.208
 7014TIP3   OH220984   4.440   4.753   5.389
 7014TIP3    H120985   4.465   4.832   5.341
 7014TIP3    H220986   4.522   4.708   5.406
 7015TIP3   OH220987   2.022   7.477   0.859
 7015TIP3    H120988   2.057   7.564   0.878
 7015TIP3    H220989   1.965   7.457   0.933
 7016TIP3   OH220990   4.558   6.136   5.191
 7016TIP3    H120991   4.493   6.070   5.166
 7016TIP3    H220992   4.507   6.207   5.230
 7017TIP3   OH220993   1.860   0.123   1.483
 7017TIP3    H120994   1.767   0.141   1.471
 7017TIP3    H220995   1.903   0.206   1.462
 7018TIP3   OH220996   6.849   5.506   4.451
 7018TIP3    H120997   6.787   5.494   4.524
 7018TIP3    H220998   6.916   5.439   4.466
 7019TIP3   OH220999   2.038   7.643   1.414
 7019TIP3    H121000   2.000   7.730   1.426
 7019TIP3    H221001   1.982   7.601   1.349
 7020TIP3   OH221002   7.430   5.350   5.777
 7020TIP3    H121003   7.525   5.353   5.782
 7020TIP3    H221004   7.407   5.427   5.725
 7021TIP3   OH221005   8.101   5.386   0.712
 7021TIP3    H121006   8.057   5.403   0.629
 7021TIP3    H221007   8.030   5.366   0.773
 7022TIP3   OH221008   7.334   5.091   6.058
 7022TIP3    H121009   7.293   5.086   6.144
 7022TIP3    H221010   7.343   5.000   6.030
 7023TIP3   OH221011   1.528   2.495   6.656
 7023TIP3    H121012   1.524   2.571   6.598
 7023TIP3    H221013   1.554   2.422   6.600
 7024TIP3   OH221014   5.466   2.049   6.219
 7024TIP3    H121015   5.389   2.079   6.171
 7024TIP3    H221016   5.537   2.104   6.188
 7025TIP3   OH221017   3.482   2.209   4.524
 7025TIP3    H121018   3.394   2.190   4.493
 7025TIP3    H221019   3.470   2.278   4.589
 7026TIP3   OH221020   5.329   4.570   4.826
 7026TIP3    H121021   5.296   4.546   4.913
 7026TIP3    H221022   5.374   4.491   4.795
 7027TIP3   OH221023   5.639   3.900   1.884
 7027TIP3    H121024   5.580   3.824   1.881
 7027TIP3    H221025   5.658   3.912   1.977
 7028TIP3   OH221026   6.441   2.903   2.736
 7028TIP3    H121027   6.524   2.926   2.694
 7028TIP3    H221028   6.466   2.870   2.822
 7029TIP3   OH221029   4.278   2.399   6.379
 7029TIP3    H121030   4.211   2.434   6.319
 7029TIP3    H221031   4.237   2.403   6.465
 7030TIP3   OH221032   3.230   1.856   2.532
 7030TIP3    H121033   3.307   1.846   2.588
 7030TIP3    H221034   3.222   1.772   2.488
 7031TIP3   OH221035   1.135   3.103   0.580
 7031TIP3    H121036   1.093   3.148   0.507
 7031TIP3    H221037   1.227   3.097   0.557
 7032TIP3   OH221038   7.789   6.455   3.343
 7032TIP3    H121039   7.775   6.477   3.435
 7032TIP3    H221040   7.724   6.387   3.325
 7033TIP3   OH221041   4.080   1.415   5.891
 7033TIP3    H121042   4.065   1.451   5.978
 7033TIP3    H221043   4.057   1.486   5.831
 7034TIP3   OH221044   8.162   0.577   0.896
 7034TIP3    H121045   8.080   0.562   0.943
 7034TIP3    H221046   8.224   0.515   0.933
 7035TIP3   OH221047   0.789   7.553   1.662
 7035TIP3    H121048   0.766   7.611   1.590
 7035TIP3    H221049   0.763   7.466   1.631
 7036TIP3   OH221050   0.233   6.118   1.617
 7036TIP3    H121051   0.264   6.178   1.549
 7036TIP3    H221052   0.263   6.158   1.699
 7037TIP3   OH221053   2.146   6.132   3.248
 7037TIP3    H121054   2.157   6.218   3.207
 7037TIP3    H221055   2.051   6.124   3.261
 7038TIP3   OH221056   7.353   1.522   3.785
 7038TIP3    H121057   7.351   1.602   3.838
 7038TIP3    H221058   7.276   1.528   3.729
 7039TIP3   OH221059   6.645   3.594   0.283
 7039TIP3    H121060   6.634   3.667   0.221
 7039TIP3    H221061   6.673   3.521   0.229
 7040TIP3   OH221062   2.251   2.414   0.728
 7040TIP3    H121063   2.346   2.421   0.740
 7040TIP3    H221064   2.222   2.504   0.716
 7041TIP3   OH221065   2.687   1.890   3.452
 7041TIP3    H121066   2.745   1.820   3.483
 7041TIP3    H221067   2.734   1.930   3.379
 7042TIP3   OH221068   7.204   1.954   6.633
 7042TIP3    H121069   7.238   1.984   6.549
 7042TIP3    H221070   7.276   1.905   6.672
 7043TIP3   OH221071   3.841   3.193   4.283
 7043TIP3    H121072   3.773   3.259   4.290
 7043TIP3    H221073   3.923   3.242   4.288
 7044TIP3   OH221074   3.530   5.160   6.459
 7044TIP3    H121075   3.624   5.163   6.442
 7044TIP3    H221076   3.523   5.126   6.548
 7045TIP3   OH221077   1.816   6.815   3.826
 7045TIP3    H121078   1.798   6.727   3.795
 7045TIP3    H221079   1.904   6.808   3.865
 7046TIP3   OH221080   3.673   3.228   3.927
 7046TIP3    H121081   3.760   3.266   3.936
 7046TIP3    H221082   3.632   3.241   4.013
 7047TIP3   OH221083   2.646   1.389   4.134
 7047TIP3    H121084   2.719   1.350   4.180
 7047TIP3    H221085   2.686   1.444   4.067
 7048TIP3   OH221086   2.093   7.770   2.386
 7048TIP3    H121087   2.165   7.812   2.433
 7048TIP3    H221088   2.079   7.825   2.309
 7049TIP3   OH221089   6.225   4.238   1.095
 7049TIP3    H121090   6.200   4.325   1.066
 7049TIP3    H221091   6.160   4.215   1.163
 7050TIP3   OH221092   6.700   1.354   4.452
 7050TIP3    H121093   6.678   1.418   4.519
 7050TIP3    H221094   6.777   1.309   4.486
 7051TIP3   OH221095   4.353   6.704   4.509
 7051TIP3    H121096   4.275   6.711   4.565
 7051TIP3    H221097   4.403   6.784   4.528
 7052TIP3   OH221098   0.079   5.491   3.577
 7052TIP3    H121099   0.163   5.536   3.580
 7052TIP3    H221100   0.094   5.410   3.627
 7053TIP3   OH221101   7.089   4.465   0.596
 7053TIP3    H121102   7.093   4.544   0.542
 7053TIP3    H221103   7.012   4.477   0.652
 7054TIP3   OH221104   0.838   1.202   1.211
 7054TIP3    H121105   0.841   1.281   1.158
 7054TIP3    H221106   0.816   1.233   1.299
 7055TIP3   OH221107   4.984   6.138   6.743
 7055TIP3    H121108   4.974   6.166   6.652
 7055TIP3    H221109   4.972   6.218   6.794
 7056TIP3   OH221110   0.014   3.238   3.013
 7056TIP3    H121111   0.006   3.248   2.918
 7056TIP3    H221112  -0.035   3.312   3.049
 7057TIP3   OH221113   2.740   2.943   5.277
 7057TIP3    H121114   2.674   2.909   5.338
 7057TIP3    H221115   2.798   2.869   5.261
 7058TIP3   OH221116   2.614   4.821   0.344
 7058TIP3    H121117   2.668   4.751   0.380
 7058TIP3    H221118   2.672   4.867   0.283
 7059TIP3   OH221119   4.837   6.782   2.652
 7059TIP3    H121120   4.783   6.801   2.575
 7059TIP3    H221121   4.871   6.694   2.636
 7060TIP3   OH221122   3.339   6.333   1.488
 7060TIP3    H121123   3.348   6.319   1.394
 7060TIP3    H221124   3.259   6.385   1.498
 7061TIP3   OH221125   3.360   1.880   6.479
 7061TIP3    H121126   3.445   1.882   6.523
 7061TIP3    H221127   3.296   1.892   6.550
 7062TIP3   OH221128   6.365   5.651   0.121
 7062TIP3    H121129   6.275   5.646   0.154
 7062TIP3    H221130   6.359   5.710   0.046
 7063TIP3   OH221131   0.019   7.386   2.626
 7063TIP3    H121132   0.109   7.420   2.633
 7063TIP3    H221133   0.021   7.304   2.676
 7064TIP3   OH221134   3.431   0.881   3.992
 7064TIP3    H121135   3.344   0.882   3.952
 7064TIP3    H221136   3.462   0.971   3.984
 7065TIP3   OH221137   6.883   3.650   5.009
 7065TIP3    H121138   6.794   3.682   4.995
 7065TIP3    H221139   6.906   3.605   4.928
 7066TIP3   OH221140   3.096   6.932   3.274
 7066TIP3    H121141   3.030   6.989   3.234
 7066TIP3    H221142   3.048   6.882   3.339
 7067TIP3   OH221143   2.323   6.635   6.569
 7067TIP3    H121144   2.345   6.681   6.650
 7067TIP3    H221145   2.289   6.551   6.598
 7068TIP3   OH221146   1.087   0.436   6.018
 7068TIP3    H121147   1.060   0.345   6.025
 7068TIP3    H221148   1.130   0.455   6.102
 7069TIP3   OH221149   2.778   4.928   4.796
 7069TIP3    H121150   2.759   4.994   4.730
 7069TIP3    H221151   2.871   4.908   4.784
 7070TIP3   OH221152   5.451   5.202   4.751
 7070TIP3    H121153   5.364   5.204   4.792
 7070TIP3    H221154   5.433   5.197   4.657
 7071TIP3   OH221155   1.018   0.921   5.861
 7071TIP3    H121156   0.945   0.934   5.921
 7071TIP3    H221157   1.028   0.826   5.856
 7072TIP3   OH221158   3.890   0.841   5.419
 7072TIP3    H121159   3.808   0.860   5.464
 7072TIP3    H221160   3.944   0.918   5.433
 7073TIP3   OH221161   0.117   2.495   3.691
 7073TIP3    H121162   0.180   2.477   3.761
 7073TIP3    H221163   0.067   2.570   3.724
 7074TIP3   OH221164   5.876   5.751   6.271
 7074TIP3    H121165   5.936   5.695   6.221
 7074TIP3    H221166   5.860   5.703   6.352
 7075TIP3   OH221167   2.422   2.130   1.145
 7075TIP3    H121168   2.327   2.129   1.142
 7075TIP3    H221169   2.448   2.196   1.080
 7076TIP3   OH221170   0.244   4.928   0.606
 7076TIP3    H121171   0.205   5.013   0.630
 7076TIP3    H221172   0.266   4.887   0.689
 7077TIP3   OH221173   4.297   1.824   2.776
 7077TIP3    H121174   4.325   1.914   2.796
 7077TIP3    H221175   4.234   1.834   2.704
 7078TIP3   OH221176   7.166   6.306   2.409
 7078TIP3    H121177   7.241   6.350   2.450
 7078TIP3    H221178   7.099   6.304   2.477
 7079TIP3   OH221179   5.045   0.734   1.269
 7079TIP3    H121180   4.978   0.666   1.262
 7079TIP3    H221181   5.048   0.774   1.182
 7080TIP3   OH221182   0.944   2.064   0.700
 7080TIP3    H121183   0.991   2.130   0.650
 7080TIP3    H221184   0.939   1.989   0.640
 7081TIP3   OH221185   4.472   7.314   3.110
 7081TIP3    H121186   4.485   7.229   3.153
 7081TIP3    H221187   4.382   7.338   3.135
 7082TIP3   OH221188   5.230   6.308   2.922
 7082TIP3    H121189   5.138   6.325   2.943
 7082TIP3    H221190   5.232   6.215   2.899
 7083TIP3   OH221191   1.126   0.809   1.551
 7083TIP3    H121192   1.183   0.838   1.623
 7083TIP3    H221193   1.153   0.864   1.477
 7084TIP3   OH221194   3.276   1.014   3.243
 7084TIP3    H121195   3.244   1.085   3.189
 7084TIP3    H221196   3.371   1.018   3.234
 7085TIP3   OH221197   7.165   4.873   4.805
 7085TIP3    H121198   7.220   4.943   4.840
 7085TIP3    H221199   7.201   4.793   4.842
 7086TIP3   OH221200   5.964   5.999   6.109
 7086TIP3    H121201   5.948   5.935   6.178
 7086TIP3    H221202   6.039   5.963   6.061
 7087TIP3   OH221203   1.033   6.926   3.980
 7087TIP3    H121204   0.948   6.951   3.945
 7087TIP3    H221205   1.094   6.988   3.939
 7088TIP3   OH221206   2.348   1.006   4.070
 7088TIP3    H121207   2.424   0.948   4.058
 7088TIP3    H221208   2.382   1.094   4.054
 7089TIP3   OH221209   7.820   0.547   5.859
 7089TIP3    H121210   7.845   0.458   5.883
 7089TIP3    H221211   7.738   0.562   5.905
 7090TIP3   OH221212   1.251   2.858   2.427
 7090TIP3    H121213   1.291   2.777   2.459
 7090TIP3    H221214   1.157   2.845   2.438
 7091TIP3   OH221215   6.140   3.606   6.273
 7091TIP3    H121216   6.211   3.574   6.328
 7091TIP3    H221217   6.162   3.575   6.185
 7092TIP3   OH221218   4.165   4.873   3.555
 7092TIP3    H121219   4.142   4.914   3.471
 7092TIP3    H221220   4.234   4.811   3.533
 7093TIP3   OH221221   5.465   0.514   4.472
 7093TIP3    H121222   5.475   0.608   4.455
 7093TIP3    H221223   5.371   0.502   4.484
 7094TIP3   OH221224   5.430   3.446   3.522
 7094TIP3    H121225   5.368   3.383   3.559
 7094TIP3    H221226   5.516   3.413   3.549
 7095TIP3   OH221227   8.280   2.029   3.403
 7095TIP3    H121228   8.244   1.970   3.336
 7095TIP3    H221229   8.212   2.033   3.471
 7096TIP3   OH221230   1.590   5.755   3.109
 7096TIP3    H121231   1.641   5.675   3.120
 7096TIP3    H221232   1.654   5.823   3.091
 7097TIP3   OH221233   7.061   2.040   0.823
 7097TIP3    H121234   6.998   1.968   0.816
 7097TIP3    H221235   7.116   2.017   0.898
 7098TIP3   OH221236   5.707   0.896   1.961
 7098TIP3    H121237   5.750   0.857   2.038
 7098TIP3    H221238   5.671   0.821   1.913
 7099TIP3   OH221239   4.476   7.279   0.308
 7099TIP3    H121240   4.472   7.308   0.217
 7099TIP3    H221241   4.549   7.218   0.311
 7100TIP3   OH221242   4.064   7.767   4.667
 7100TIP3    H121243   4.126   7.814   4.611
 7100TIP3    H221244   4.065   7.814   4.750
 7101TIP3   OH221245   4.184   1.015   3.606
 7101TIP3    H121246   4.223   0.928   3.608
 7101TIP3    H221247   4.158   1.032   3.696
 7102TIP3   OH221248   4.644   6.332   4.167
 7102TIP3    H121249   4.615   6.241   4.159
 7102TIP3    H221250   4.599   6.378   4.096
 7103TIP3   OH221251   7.964   1.285   1.933
 7103TIP3    H121252   7.905   1.274   2.007
 7103TIP3    H221253   7.999   1.198   1.916
 7104TIP3   OH221254   3.476   6.146   5.860
 7104TIP3    H121255   3.556   6.184   5.896
 7104TIP3    H221256   3.488   6.151   5.765
 7105TIP3   OH221257   3.643   0.740   6.026
 7105TIP3    H121258   3.719   0.684   6.041
 7105TIP3    H221259   3.675   0.808   5.967
 7106TIP3   OH221260   1.507   2.891   5.537
 7106TIP3    H121261   1.445   2.849   5.597
 7106TIP3    H221262   1.591   2.886   5.583
 7107TIP3   OH221263   8.224   1.092   4.901
 7107TIP3    H121264   8.308   1.049   4.918
 7107TIP3    H221265   8.162   1.020   4.891
 7108TIP3   OH221266   1.678   6.269   4.762
 7108TIP3    H121267   1.674   6.365   4.771
 7108TIP3    H221268   1.764   6.252   4.726
 7109TIP3   OH221269   2.604   4.741   6.614
 7109TIP3    H121270   2.610   4.645   6.623
 7109TIP3    H221271   2.576   4.755   6.524
 7110TIP3   OH221272   3.245   2.093   4.458
 7110TIP3    H121273   3.155   2.121   4.472
 7110TIP3    H221274   3.263   2.032   4.529
 7111TIP3   OH221275   4.004   4.864   3.854
 7111TIP3    H121276   4.016   4.897   3.943
 7111TIP3    H221277   3.935   4.798   3.862
 7112TIP3   OH221278   6.424   6.820   1.302
 7112TIP3    H121279   6.405   6.895   1.246
 7112TIP3    H221280   6.497   6.848   1.358
 7113TIP3   OH221281   5.416   5.745   0.024
 7113TIP3    H121282   5.390   5.796  -0.052
 7113TIP3    H221283   5.334   5.711   0.059
 7114TIP3   OH221284   2.285   4.488   0.559
 7114TIP3    H121285   2.372   4.473   0.596
 7114TIP3    H221286   2.279   4.584   0.551
 7115TIP3   OH221287   2.259   1.042   2.516
 7115TIP3    H121288   2.173   1.059   2.479
 7115TIP3    H221289   2.274   1.114   2.577
 7116TIP3   OH221290   6.658   5.584   1.054
 7116TIP3    H121291   6.637   5.526   0.980
 7116TIP3    H221292   6.746   5.556   1.082
 7117TIP3   OH221293   4.036   6.144   1.822
 7117TIP3    H121294   4.018   6.077   1.757
 7117TIP3    H221295   4.088   6.099   1.889
 7118TIP3   OH221296   4.898   3.563   6.623
 7118TIP3    H121297   4.967   3.553   6.558
 7118TIP3    H221298   4.938   3.535   6.706
 7119TIP3   OH221299   0.707   2.574   0.442
 7119TIP3    H121300   0.650   2.537   0.509
 7119TIP3    H221301   0.775   2.621   0.491
 7120TIP3   OH221302   5.555   2.519   6.380
 7120TIP3    H121303   5.620   2.589   6.376
 7120TIP3    H221304   5.539   2.506   6.473
 7121TIP3   OH221305   7.552   4.662   0.830
 7121TIP3    H121306   7.624   4.725   0.819
 7121TIP3    H221307   7.578   4.609   0.906
 7122TIP3   OH221308   4.212   3.008   6.400
 7122TIP3    H121309   4.163   3.082   6.435
 7122TIP3    H221310   4.260   2.974   6.476
 7123TIP3   OH221311   1.249   0.229   4.454
 7123TIP3    H121312   1.262   0.282   4.375
 7123TIP3    H221313   1.302   0.151   4.438
 7124TIP3   OH221314   0.754   1.806   0.288
 7124TIP3    H121315   0.810   1.883   0.293
 7124TIP3    H221316   0.812   1.733   0.312
 7125TIP3   OH221317   3.996   2.075   5.830
 7125TIP3    H121318   3.919   2.063   5.776
 7125TIP3    H221319   4.034   1.987   5.838
 7126TIP3   OH221320   8.127   0.683   2.249
 7126TIP3    H121321   8.097   0.592   2.261
 7126TIP3    H221322   8.119   0.698   2.155
 7127TIP3   OH221323   5.353   3.835   2.542
 7127TIP3    H121324   5.355   3.909   2.603
 7127TIP3    H221325   5.308   3.870   2.465
 7128TIP3   OH221326   4.103   1.920   1.275
 7128TIP3    H121327   4.094   1.961   1.361
 7128TIP3    H221328   4.018   1.935   1.233
 7129TIP3   OH221329   6.278   7.332   1.647
 7129TIP3    H121330   6.295   7.385   1.569
 7129TIP3    H221331   6.290   7.242   1.619
 7130TIP3   OH221332   3.605   1.833   4.834
 7130TIP3    H121333   3.539   1.829   4.904
 7130TIP3    H221334   3.688   1.817   4.879
 7131TIP3   OH221335   1.609   3.437   2.236
 7131TIP3    H121336   1.548   3.389   2.291
 7131TIP3    H221337   1.554   3.502   2.191
 7132TIP3   OH221338   7.091   2.761   3.961
 7132TIP3    H121339   7.028   2.833   3.966
 7132TIP3    H221340   7.106   2.750   3.867
 7133TIP3   OH221341   2.686   2.528   1.348
 7133TIP3    H121342   2.652   2.615   1.370
 7133TIP3    H221343   2.640   2.468   1.406
 7134TIP3   OH221344   2.621   5.097   3.343
 7134TIP3    H121345   2.529   5.109   3.363
 7134TIP3    H221346   2.627   5.006   3.312
 7135TIP3   OH221347   0.623   3.945   1.358
 7135TIP3    H121348   0.565   4.009   1.317
 7135TIP3    H221349   0.568   3.902   1.424
 7136TIP3   OH221350   3.704   6.076   1.419
 7136TIP3    H121351   3.756   6.004   1.382
 7136TIP3    H221352   3.742   6.155   1.381
 7137TIP3   OH221353   0.180   6.775   2.745
 7137TIP3    H121354   0.207   6.737   2.661
 7137TIP3    H221355   0.255   6.762   2.803
 7138TIP3   OH221356   7.218   3.242   3.202
 7138TIP3    H121357   7.277   3.182   3.156
 7138TIP3    H221358   7.271   3.276   3.274
 7139TIP3   OH221359   4.442   0.063   2.453
 7139TIP3    H121360   4.488  -0.020   2.465
 7139TIP3    H221361   4.356   0.038   2.421
 7140TIP3   OH221362   6.430   1.885   6.140
 7140TIP3    H121363   6.456   1.805   6.095
 7140TIP3    H221364   6.507   1.911   6.191
 7141TIP3   OH221365   1.707   7.538   2.806
 7141TIP3    H121366   1.746   7.454   2.782
 7141TIP3    H221367   1.636   7.550   2.742
 7142TIP3   OH221368   1.421   6.687   6.667
 7142TIP3    H121369   1.331   6.704   6.640
 7142TIP3    H221370   1.422   6.701   6.761
 7143TIP3   OH221371   0.431   0.149   6.635
 7143TIP3    H121372   0.403   0.229   6.590
 7143TIP3    H221373   0.428   0.171   6.728
 7144TIP3   OH221374   6.073   7.217   2.378
 7144TIP3    H121375   6.148   7.209   2.438
 7144TIP3    H221376   6.092   7.154   2.308
 7145TIP3   OH221377   3.989   6.497   4.419
 7145TIP3    H121378   4.021   6.421   4.371
 7145TIP3    H221379   3.894   6.486   4.422
 7146TIP3   OH221380   6.190   7.284   4.269
 7146TIP3    H121381   6.170   7.374   4.294
 7146TIP3    H221382   6.254   7.255   4.335
 7147TIP3   OH221383   2.461   3.830   0.842
 7147TIP3    H121384   2.382   3.795   0.882
 7147TIP3    H221385   2.494   3.758   0.788
 7148TIP3   OH221386   7.239   4.218   2.058
 7148TIP3    H121387   7.203   4.292   2.108
 7148TIP3    H221388   7.210   4.233   1.968
 7149TIP3   OH221389   5.035   1.732   1.967
 7149TIP3    H121390   5.028   1.685   1.884
 7149TIP3    H221391   5.127   1.722   1.993
 7150TIP3   OH221392   7.407   7.554   5.045
 7150TIP3    H121393   7.439   7.520   5.129
 7150TIP3    H221394   7.391   7.476   4.992
 7151TIP3   OH221395   6.674   7.445   1.677
 7151TIP3    H121396   6.658   7.375   1.614
 7151TIP3    H221397   6.741   7.500   1.637
 7152TIP3   OH221398   5.070   3.317   5.406
 7152TIP3    H121399   5.001   3.298   5.471
 7152TIP3    H221400   5.038   3.393   5.359
 7153TIP3   OH221401   1.271   2.114   2.479
 7153TIP3    H121402   1.293   2.023   2.497
 7153TIP3    H221403   1.299   2.129   2.389
 7154TIP3   OH221404   7.433   7.049   3.709
 7154TIP3    H121405   7.446   6.954   3.720
 7154TIP3    H221406   7.521   7.084   3.698
 7155TIP3   OH221407   5.340   3.696   5.088
 7155TIP3    H121408   5.322   3.768   5.028
 7155TIP3    H221409   5.301   3.619   5.046
 7156TIP3   OH221410   6.729   3.963   0.890
 7156TIP3    H121411   6.752   4.044   0.936
 7156TIP3    H221412   6.671   3.991   0.819
 7157TIP3   OH221413   7.765   2.841   6.558
 7157TIP3    H121414   7.843   2.880   6.598
 7157TIP3    H221415   7.760   2.753   6.596
 7158TIP3   OH221416   2.623   6.579   0.526
 7158TIP3    H121417   2.673   6.660   0.532
 7158TIP3    H221418   2.682   6.512   0.560
 7159TIP3   OH221419   7.604   3.663   2.262
 7159TIP3    H121420   7.600   3.583   2.315
 7159TIP3    H221421   7.691   3.662   2.223
 7160TIP3   OH221422   8.077   6.965   4.068
 7160TIP3    H121423   7.988   6.967   4.032
 7160TIP3    H221424   8.082   6.881   4.113
 7161TIP3   OH221425   4.560   4.206   5.229
 7161TIP3    H121426   4.563   4.112   5.244
 7161TIP3    H221427   4.526   4.243   5.310
 7162TIP3   OH221428   6.161   5.732   6.351
 7162TIP3    H121429   6.113   5.814   6.364
 7162TIP3    H221430   6.208   5.718   6.433
 7163TIP3   OH221431   3.171   6.456   0.579
 7163TIP3    H121432   3.201   6.406   0.503
 7163TIP3    H221433   3.231   6.432   0.649
 7164TIP3   OH221434   0.318   4.939   0.144
 7164TIP3    H121435   0.388   4.913   0.203
 7164TIP3    H221436   0.344   5.025   0.111
 7165TIP3   OH221437   8.156   4.858   4.427
 7165TIP3    H121438   8.142   4.952   4.441
 7165TIP3    H221439   8.124   4.842   4.338
 7166TIP3   OH221440   1.472   6.862   3.268
 7166TIP3    H121441   1.518   6.857   3.352
 7166TIP3    H221442   1.538   6.892   3.206
 7167TIP3   OH221443   0.882   3.796   1.915
 7167TIP3    H121444   0.860   3.819   1.824
 7167TIP3    H221445   0.843   3.866   1.967
 7168TIP3   OH221446   0.947   6.983   1.790
 7168TIP3    H121447   0.971   7.069   1.755
 7168TIP3    H221448   0.870   7.000   1.845
 7169TIP3   OH221449   8.106   2.145   0.354
 7169TIP3    H121450   8.139   2.118   0.439
 7169TIP3    H221451   8.166   2.106   0.291
 7170TIP3   OH221452   2.023   0.087   1.727
 7170TIP3    H121453   1.934   0.053   1.726
 7170TIP3    H221454   2.042   0.106   1.635
 7171TIP3   OH221455   1.522   1.429   1.966
 7171TIP3    H121456   1.493   1.367   2.033
 7171TIP3    H221457   1.611   1.401   1.945
 7172TIP3   OH221458   5.594   3.802   0.857
 7172TIP3    H121459   5.565   3.741   0.925
 7172TIP3    H221460   5.667   3.849   0.897
 7173TIP3   OH221461   4.377   6.397   3.074
 7173TIP3    H121462   4.405   6.376   3.163
 7173TIP3    H221463   4.431   6.473   3.049
 7174TIP3   OH221464   2.581   3.586   0.718
 7174TIP3    H121465   2.587   3.600   0.623
 7174TIP3    H221466   2.659   3.535   0.739
 7175TIP3   OH221467   8.002   7.133   0.712
 7175TIP3    H121468   8.033   7.210   0.665
 7175TIP3    H221469   7.998   7.161   0.804
 7176TIP3   OH221470   5.598   0.970   4.375
 7176TIP3    H121471   5.640   1.047   4.414
 7176TIP3    H221472   5.661   0.899   4.389
 7177TIP3   OH221473   0.988   0.690   4.511
 7177TIP3    H121474   0.939   0.610   4.531
 7177TIP3    H221475   1.006   0.684   4.417
 7178TIP3   OH221476   5.180   2.592   0.441
 7178TIP3    H121477   5.170   2.683   0.468
 7178TIP3    H221478   5.126   2.542   0.502
 7179TIP3   OH221479   6.479   7.086   5.189
 7179TIP3    H121480   6.399   7.041   5.160
 7179TIP3    H221481   6.521   7.024   5.249
 7180TIP3   OH221482   7.081   7.553   1.616
 7180TIP3    H121483   7.097   7.459   1.629
 7180TIP3    H221484   7.160   7.585   1.573
 7181TIP3   OH221485   6.289   1.903   6.664
 7181TIP3    H121486   6.276   1.991   6.701
 7181TIP3    H221487   6.325   1.919   6.576
 7182TIP3   OH221488   3.297   0.535   4.897
 7182TIP3    H121489   3.319   0.545   4.990
 7182TIP3    H221490   3.228   0.468   4.895
 7183TIP3   OH221491   6.554   0.117   3.587
 7183TIP3    H121492   6.571   0.028   3.618
 7183TIP3    H221493   6.476   0.144   3.635
 7184TIP3   OH221494   4.613   5.833   4.398
 7184TIP3    H121495   4.608   5.884   4.479
 7184TIP3    H221496   4.583   5.894   4.330
 7185TIP3   OH221497   6.789   6.568   0.358
 7185TIP3    H121498   6.736   6.641   0.389
 7185TIP3    H221499   6.752   6.491   0.402
 7186TIP3   OH221500   3.603   6.219   3.863
 7186TIP3    H121501   3.513   6.223   3.831
 7186TIP3    H221502   3.648   6.291   3.818
 7187TIP3   OH221503   3.489   1.508   1.499
 7187TIP3    H121504   3.552   1.532   1.568
 7187TIP3    H221505   3.521   1.423   1.468
 7188TIP3   OH221506   6.860   3.394   4.251
 7188TIP3    H121507   6.904   3.442   4.180
 7188TIP3    H221508   6.825   3.462   4.308
 7189TIP3   OH221509   5.625   2.349   5.730
 7189TIP3    H121510   5.710   2.310   5.747
 7189TIP3    H221511   5.577   2.281   5.683
 7190TIP3   OH221512   2.390   4.360   5.013
 7190TIP3    H121513   2.423   4.286   4.964
 7190TIP3    H221514   2.295   4.347   5.017
 7191TIP3   OH221515   3.913   3.230   2.120
 7191TIP3    H121516   3.860   3.160   2.082
 7191TIP3    H221517   3.880   3.239   2.210
 7192TIP3   OH221518   5.514   5.454   5.112
 7192TIP3    H121519   5.591   5.441   5.057
 7192TIP3    H221520   5.511   5.376   5.168
 7193TIP3   OH221521   2.432   6.120   1.709
 7193TIP3    H121522   2.453   6.099   1.800
 7193TIP3    H221523   2.376   6.049   1.680
 7194TIP3   OH221524   1.187   5.293   1.952
 7194TIP3    H121525   1.112   5.310   1.895
 7194TIP3    H221526   1.149   5.283   2.039
 7195TIP3   OH221527   1.599   0.805   4.828
 7195TIP3    H121528   1.533   0.862   4.787
 7195TIP3    H221529   1.551   0.725   4.849
 7196TIP3   OH221530   1.976   6.362   6.703
 7196TIP3    H121531   2.062   6.386   6.739
 7196TIP3    H221532   1.915   6.378   6.774
 7197TIP3   OH221533   2.787   7.555   3.531
 7197TIP3    H121534   2.722   7.488   3.513
 7197TIP3    H221535   2.779   7.617   3.458
 7198TIP3   OH221536   4.291   7.730   1.953
 7198TIP3    H121537   4.239   7.727   2.033
 7198TIP3    H221538   4.227   7.740   1.882
 7199TIP3   OH221539   2.015   2.153   5.840
 7199TIP3    H121540   2.050   2.190   5.759
 7199TIP3    H221541   1.920   2.159   5.830
 7200TIP3   OH221542   0.144   7.425   5.329
 7200TIP3    H121543   0.165   7.471   5.247
 7200TIP3    H221544   0.202   7.349   5.329
 7201TIP3   OH221545   5.211   5.776   5.006
 7201TIP3    H121546   5.197   5.698   4.952
 7201TIP3    H221547   5.155   5.762   5.082
 7202TIP3   OH221548   5.239   5.435   0.894
 7202TIP3    H121549   5.322   5.417   0.849
 7202TIP3    H221550   5.200   5.506   0.844
 7203TIP3   OH221551   4.759   7.362   3.712
 7203TIP3    H121552   4.672   7.382   3.748
 7203TIP3    H221553   4.819   7.412   3.766
 7204TIP3   OH221554   0.514   1.353   1.721
 7204TIP3    H121555   0.499   1.285   1.786
 7204TIP3    H221556   0.580   1.316   1.662
 7205TIP3   OH221557   8.238   6.397   1.561
 7205TIP3    H121558   8.324   6.400   1.517
 7205TIP3    H221559   8.176   6.385   1.489
 7206TIP3   OH221560   5.388   6.712   6.184
 7206TIP3    H121561   5.352   6.749   6.103
 7206TIP3    H221562   5.313   6.702   6.242
 7207TIP3   OH221563   0.631   5.824   5.402
 7207TIP3    H121564   0.537   5.813   5.416
 7207TIP3    H221565   0.662   5.866   5.482
 7208TIP3   OH221566   6.226   6.635   1.384
 7208TIP3    H121567   6.264   6.575   1.321
 7208TIP3    H221568   6.297   6.698   1.402
 7209TIP3   OH221569   1.923   5.419   6.272
 7209TIP3    H121570   1.922   5.492   6.209
 7209TIP3    H221571   1.932   5.341   6.217
 7210TIP3   OH221572   3.274   3.822   4.352
 7210TIP3    H121573   3.243   3.912   4.365
 7210TIP3    H221574   3.199   3.775   4.317
 7211TIP3   OH221575   6.403   2.568   5.283
 7211TIP3    H121576   6.420   2.638   5.347
 7211TIP3    H221577   6.362   2.613   5.209
 7212TIP3   OH221578   7.097   7.244   4.253
 7212TIP3    H121579   7.131   7.309   4.192
 7212TIP3    H221580   7.100   7.288   4.338
 7213TIP3   OH221581   0.395   6.343   1.207
 7213TIP3    H121582   0.373   6.330   1.115
 7213TIP3    H221583   0.490   6.356   1.208
 7214TIP3   OH221584   7.120   1.916   6.264
 7214TIP3    H121585   7.140   1.834   6.307
 7214TIP3    H221586   7.198   1.970   6.275
 7215TIP3   OH221587   4.668   2.551   2.839
 7215TIP3    H121588   4.706   2.604   2.909
 7215TIP3    H221589   4.698   2.593   2.758
 7216TIP3   OH221590   4.740   1.739   2.639
 7216TIP3    H121591   4.835   1.727   2.641
 7216TIP3    H221592   4.704   1.651   2.628
 7217TIP3   OH221593   3.216   0.026   1.782
 7217TIP3    H121594   3.226  -0.045   1.720
 7217TIP3    H221595   3.264   0.099   1.742
 7218TIP3   OH221596   3.463   6.186   4.494
 7218TIP3    H121597   3.403   6.175   4.568
 7218TIP3    H221598   3.547   6.206   4.533
 7219TIP3   OH221599   1.770   5.371   1.736
 7219TIP3    H121600   1.791   5.285   1.698
 7219TIP3    H221601   1.854   5.403   1.770
 7220TIP3   OH221602   4.487   1.781   5.551
 7220TIP3    H121603   4.424   1.850   5.570
 7220TIP3    H221604   4.548   1.822   5.489
 7221TIP3   OH221605   7.042   7.584   3.500
 7221TIP3    H121606   6.949   7.607   3.504
 7221TIP3    H221607   7.088   7.667   3.511
 7222TIP3   OH221608   3.013   2.442   0.593
 7222TIP3    H121609   3.097   2.459   0.635
 7222TIP3    H221610   2.963   2.523   0.606
 7223TIP3   OH221611   5.890   7.286   4.773
 7223TIP3    H121612   5.892   7.232   4.852
 7223TIP3    H221613   5.931   7.232   4.706
 7224TIP3   OH221614   5.681   7.323   4.047
 7224TIP3    H121615   5.656   7.331   4.139
 7224TIP3    H221616   5.709   7.411   4.022
 7225TIP3   OH221617   0.344   6.076   2.711
 7225TIP3    H121618   0.265   6.086   2.659
 7225TIP3    H221619   0.384   5.995   2.680
 7226TIP3   OH221620   1.929   3.384   3.808
 7226TIP3    H121621   2.002   3.442   3.829
 7226TIP3    H221622   1.871   3.438   3.754
 7227TIP3   OH221623   4.668   2.669   5.876
 7227TIP3    H121624   4.661   2.754   5.832
 7227TIP3    H221625   4.623   2.682   5.960
 7228TIP3   OH221626   0.776   5.672   3.097
 7228TIP3    H121627   0.824   5.755   3.091
 7228TIP3    H221628   0.706   5.681   3.033
 7229TIP3   OH221629   3.266   0.828   0.747
 7229TIP3    H121630   3.215   0.818   0.667
 7229TIP3    H221631   3.202   0.823   0.818
 7230TIP3   OH221632   7.359   1.947   1.947
 7230TIP3    H121633   7.368   1.867   1.895
 7230TIP3    H221634   7.318   2.009   1.887
 7231TIP3   OH221635   6.798   1.100   6.329
 7231TIP3    H121636   6.724   1.040   6.337
 7231TIP3    H221637   6.856   1.075   6.401
 7232TIP3   OH221638   2.648   7.269   3.383
 7232TIP3    H121639   2.692   7.276   3.468
 7232TIP3    H221640   2.713   7.300   3.320
 7233TIP3   OH221641   3.471   6.963   1.693
 7233TIP3    H121642   3.468   6.884   1.639
 7233TIP3    H221643   3.555   6.959   1.738
 7234TIP3   OH221644   4.983   3.073   0.394
 7234TIP3    H121645   5.045   3.144   0.407
 7234TIP3    H221646   4.936   3.097   0.314
 7235TIP3   OH221647   7.416   0.479   2.488
 7235TIP3    H121648   7.363   0.557   2.502
 7235TIP3    H221649   7.361   0.421   2.435
 7236TIP3   OH221650   2.342   2.553   0.123
 7236TIP3    H121651   2.254   2.555   0.084
 7236TIP3    H221652   2.398   2.596   0.059
 7237TIP3   OH221653   7.374   7.601   3.234
 7237TIP3    H121654   7.407   7.557   3.155
 7237TIP3    H221655   7.280   7.582   3.233
 7238TIP3   OH221656   6.942   2.597   4.626
 7238TIP3    H121657   6.854   2.560   4.635
 7238TIP3    H221658   6.981   2.546   4.555
 7239TIP3   OH221659   2.542   3.502   2.505
 7239TIP3    H121660   2.556   3.588   2.464
 7239TIP3    H221661   2.549   3.440   2.433
 7240TIP3   OH221662   0.171   5.637   4.436
 7240TIP3    H121663   0.233   5.607   4.502
 7240TIP3    H221664   0.215   5.623   4.353
 7241TIP3   OH221665   3.801   1.949   2.965
 7241TIP3    H121666   3.894   1.947   2.945
 7241TIP3    H221667   3.758   1.918   2.886
 7242TIP3   OH221668   0.663   2.758   1.866
 7242TIP3    H121669   0.739   2.701   1.880
 7242TIP3    H221670   0.591   2.698   1.845
 7243TIP3   OH221671   7.073   6.310   1.996
 7243TIP3    H121672   7.030   6.319   2.081
 7243TIP3    H221673   7.005   6.329   1.932
 7244TIP3   OH221674   7.412   6.760   0.832
 7244TIP3    H121675   7.446   6.683   0.787
 7244TIP3    H221676   7.352   6.801   0.769
 7245TIP3   OH221677   0.998   1.330   6.646
 7245TIP3    H121678   1.086   1.293   6.637
 7245TIP3    H221679   1.002   1.381   6.727
 7246TIP3   OH221680   1.283   6.467   5.680
 7246TIP3    H121681   1.240   6.496   5.599
 7246TIP3    H221682   1.376   6.478   5.662
 7247TIP3   OH221683   5.611   1.405   5.426
 7247TIP3    H121684   5.604   1.465   5.500
 7247TIP3    H221685   5.522   1.403   5.390
 7248TIP3   OH221686   8.217   0.817   5.463
 7248TIP3    H121687   8.186   0.750   5.524
 7248TIP3    H221688   8.286   0.774   5.413
 7249TIP3   OH221689   3.330   3.790   1.161
 7249TIP3    H121690   3.375   3.720   1.207
 7249TIP3    H221691   3.243   3.794   1.202
 7250TIP3   OH221692   5.374   2.861   5.023
 7250TIP3    H121693   5.301   2.804   4.999
 7250TIP3    H221694   5.390   2.914   4.945
 7251TIP3   OH221695   1.033   1.985   4.624
 7251TIP3    H121696   1.027   2.078   4.644
 7251TIP3    H221697   0.981   1.942   4.692
 7252TIP3   OH221698   6.016   1.884   4.303
 7252TIP3    H121699   6.091   1.825   4.292
 7252TIP3    H221700   6.048   1.951   4.365
 7253TIP3   OH221701   6.795   0.377   2.035
 7253TIP3    H121702   6.736   0.425   2.094
 7253TIP3    H221703   6.737   0.344   1.966
 7254TIP3   OH221704   4.580   2.039   4.523
 7254TIP3    H121705   4.606   2.126   4.551
 7254TIP3    H221706   4.617   1.980   4.589
 7255TIP3   OH221707   4.222   2.048   5.018
 7255TIP3    H121708   4.287   2.118   5.007
 7255TIP3    H221709   4.274   1.968   5.020
 7256TIP3   OH221710   6.347   6.053   2.531
 7256TIP3    H121711   6.397   6.118   2.580
 7256TIP3    H221712   6.413   6.010   2.476
 7257TIP3   OH221713   4.922   4.517   0.106
 7257TIP3    H121714   4.908   4.611   0.094
 7257TIP3    H221715   4.835   4.483   0.129
 7258TIP3   OH221716   6.173   3.043   2.057
 7258TIP3    H121717   6.204   3.132   2.076
 7258TIP3    H221718   6.238   3.007   1.996
 7259TIP3   OH221719   7.163   6.124   4.151
 7259TIP3    H121720   7.084   6.171   4.124
 7259TIP3    H221721   7.187   6.072   4.074
 7260TIP3   OH221722   4.629   2.314   4.276
 7260TIP3    H121723   4.562   2.250   4.251
 7260TIP3    H221724   4.590   2.399   4.254
 7261TIP3   OH221725   4.659   6.487   1.949
 7261TIP3    H121726   4.638   6.522   1.862
 7261TIP3    H221727   4.656   6.392   1.939
 7262TIP3   OH221728   2.410   4.603   6.437
 7262TIP3    H121729   2.468   4.556   6.496
 7262TIP3    H221730   2.352   4.653   6.495
 7263TIP3   OH221731   2.163   5.055   5.000
 7263TIP3    H121732   2.140   4.982   4.942
 7263TIP3    H221733   2.200   5.012   5.077
 7264TIP3   OH221734   6.756   1.536   3.753
 7264TIP3    H121735   6.666   1.510   3.729
 7264TIP3    H221736   6.802   1.542   3.669
 7265TIP3   OH221737   2.162   4.624   5.106
 7265TIP3    H121738   2.152   4.556   5.039
 7265TIP3    H221739   2.088   4.611   5.165
 7266TIP3   OH221740   4.147   2.401   1.794
 7266TIP3    H121741   4.188   2.485   1.817
 7266TIP3    H221742   4.206   2.363   1.729
 7267TIP3   OH221743   2.957   3.119   1.150
 7267TIP3    H121744   2.967   3.047   1.213
 7267TIP3    H221745   3.018   3.187   1.180
 7268TIP3   OH221746   0.528   3.243   3.657
 7268TIP3    H121747   0.532   3.169   3.597
 7268TIP3    H221748   0.600   3.300   3.629
 7269TIP3   OH221749   5.225   5.419   4.478
 7269TIP3    H121750   5.272   5.335   4.480
 7269TIP3    H221751   5.204   5.433   4.386
 7270TIP3   OH221752   1.183   3.685   0.468
 7270TIP3    H121753   1.255   3.681   0.405
 7270TIP3    H221754   1.120   3.744   0.428
 7271TIP3   OH221755   4.996   2.127   5.259
 7271TIP3    H121756   5.004   2.198   5.322
 7271TIP3    H221757   4.987   2.171   5.174
 7272TIP3   OH221758   0.243   2.438   4.161
 7272TIP3    H121759   0.283   2.453   4.246
 7272TIP3    H221760   0.286   2.359   4.127
 7273TIP3   OH221761   7.562   4.796   1.862
 7273TIP3    H121762   7.639   4.764   1.908
 7273TIP3    H221763   7.528   4.720   1.816
 7274TIP3   OH221764   1.483   4.270   3.855
 7274TIP3    H121765   1.411   4.331   3.841
 7274TIP3    H221766   1.558   4.325   3.875
 7275TIP3   OH221767   5.484   6.621   4.060
 7275TIP3    H121768   5.470   6.527   4.072
 7275TIP3    H221769   5.406   6.662   4.097
 7276TIP3   OH221770   0.681   5.697   2.108
 7276TIP3    H121771   0.729   5.708   2.026
 7276TIP3    H221772   0.702   5.609   2.137
 7277TIP3   OH221773   4.303   5.645   5.023
 7277TIP3    H121774   4.233   5.698   4.985
 7277TIP3    H221775   4.310   5.569   4.965
 7278TIP3   OH221776   1.804   4.750   6.146
 7278TIP3    H121777   1.772   4.683   6.086
 7278TIP3    H221778   1.856   4.702   6.211
 7279TIP3   OH221779   4.429   1.055   0.986
 7279TIP3    H121780   4.502   1.053   0.924
 7279TIP3    H221781   4.353   1.028   0.934
 7280TIP3   OH221782   2.590   2.136   0.701
 7280TIP3    H121783   2.560   2.215   0.658
 7280TIP3    H221784   2.667   2.163   0.752
 7281TIP3   OH221785   7.647   0.843   0.161
 7281TIP3    H121786   7.648   0.934   0.131
 7281TIP3    H221787   7.725   0.835   0.216
 7282TIP3   OH221788   3.163   3.547   1.998
 7282TIP3    H121789   3.228   3.496   1.951
 7282TIP3    H221790   3.209   3.580   2.075
 7283TIP3   OH221791   1.170   1.152   5.912
 7283TIP3    H121792   1.144   1.060   5.916
 7283TIP3    H221793   1.092   1.201   5.937
 7284TIP3   OH221794   5.496   4.019   5.939
 7284TIP3    H121795   5.412   4.058   5.963
 7284TIP3    H221796   5.560   4.064   5.995
 7285TIP3   OH221797   5.078   0.490   2.615
 7285TIP3    H121798   5.009   0.553   2.635
 7285TIP3    H221799   5.060   0.462   2.526
 7286TIP3   OH221800   2.606   6.258   2.454
 7286TIP3    H121801   2.570   6.177   2.419
 7286TIP3    H221802   2.587   6.254   2.548
 7287TIP3   OH221803   2.572   0.065   4.343
 7287TIP3    H121804   2.511   0.121   4.296
 7287TIP3    H221805   2.524  -0.016   4.361
 7288TIP3   OH221806   6.135   2.054   1.680
 7288TIP3    H121807   6.184   2.054   1.598
 7288TIP3    H221808   6.126   2.147   1.703
 7289TIP3   OH221809   6.768   3.411   3.080
 7289TIP3    H121810   6.823   3.475   3.127
 7289TIP3    H221811   6.682   3.417   3.122
 7290TIP3   OH221812   2.588   2.616   6.660
 7290TIP3    H121813   2.643   2.538   6.670
 7290TIP3    H221814   2.638   2.686   6.703
 7291TIP3   OH221815   7.368   1.081   2.431
 7291TIP3    H121816   7.331   1.168   2.441
 7291TIP3    H221817   7.373   1.067   2.336
 7292TIP3   OH221818   1.007   3.790   3.226
 7292TIP3    H121819   1.028   3.705   3.189
 7292TIP3    H221820   0.929   3.774   3.280
 7293TIP3   OH221821   4.955   3.940   3.014
 7293TIP3    H121822   4.898   3.871   2.982
 7293TIP3    H221823   4.911   4.021   2.991
 7294TIP3   OH221824   2.704   5.842   0.691
 7294TIP3    H121825   2.616   5.872   0.668
 7294TIP3    H221826   2.701   5.747   0.683
 7295TIP3   OH221827   6.325   7.362   5.926
 7295TIP3    H121828   6.352   7.321   6.008
 7295TIP3    H221829   6.306   7.452   5.950
 7296TIP3   OH221830   5.521   2.351   3.661
 7296TIP3    H121831   5.432   2.385   3.669
 7296TIP3    H221832   5.514   2.258   3.685
 7297TIP3   OH221833   5.685   2.782   4.674
 7297TIP3    H121834   5.707   2.821   4.759
 7297TIP3    H221835   5.713   2.848   4.611
 7298TIP3   OH221836   1.315   7.300   5.725
 7298TIP3    H121837   1.339   7.230   5.785
 7298TIP3    H221838   1.246   7.349   5.770
 7299TIP3   OH221839   7.624   2.129   1.739
 7299TIP3    H121840   7.593   2.164   1.823
 7299TIP3    H221841   7.544   2.121   1.687
 7300TIP3   OH221842   0.244   5.053   2.207
 7300TIP3    H121843   0.225   5.083   2.118
 7300TIP3    H221844   0.160   5.023   2.241
 7301TIP3   OH221845   1.106   4.916   4.318
 7301TIP3    H121846   1.158   4.835   4.315
 7301TIP3    H221847   1.125   4.953   4.404
 7302TIP3   OH221848   1.069   7.036   2.071
 7302TIP3    H121849   1.001   6.984   2.114
 7302TIP3    H221850   1.047   7.127   2.091
 7303TIP3   OH221851   4.149   3.842   2.499
 7303TIP3    H121852   4.222   3.823   2.439
 7303TIP3    H221853   4.133   3.936   2.488
 7304TIP3   OH221854   0.334   3.588   1.024
 7304TIP3    H121855   0.390   3.665   1.035
 7304TIP3    H221856   0.391   3.513   1.041
 7305TIP3   OH221857   6.946   3.630   0.025
 7305TIP3    H121858   7.033   3.643   0.061
 7305TIP3    H221859   6.922   3.541   0.051
 7306TIP3   OH221860   2.688   3.953   6.159
 7306TIP3    H121861   2.686   4.019   6.228
 7306TIP3    H221862   2.708   3.871   6.205
 7307TIP3   OH221863   5.245   0.315   2.121
 7307TIP3    H121864   5.161   0.274   2.140
 7307TIP3    H221865   5.235   0.350   2.033
 7308TIP3   OH221866   6.352   0.404   1.467
 7308TIP3    H121867   6.299   0.325   1.484
 7308TIP3    H221868   6.318   0.439   1.385
 7309TIP3   OH221869   7.190   1.773   0.007
 7309TIP3    H121870   7.209   1.757   0.100
 7309TIP3    H221871   7.180   1.686  -0.030
 7310TIP3   OH221872   4.215   4.200   3.300
 7310TIP3    H121873   4.245   4.135   3.365
 7310TIP3    H221874   4.155   4.151   3.244
 7311TIP3   OH221875   4.228   3.060   5.715
 7311TIP3    H121876   4.289   3.127   5.685
 7311TIP3    H221877   4.144   3.083   5.674
 7312TIP3   OH221878   5.104   4.886   2.404
 7312TIP3    H121879   5.149   4.948   2.346
 7312TIP3    H221880   5.164   4.875   2.478
 7313TIP3   OH221881   6.321   4.257   1.396
 7313TIP3    H121882   6.300   4.321   1.329
 7313TIP3    H221883   6.289   4.174   1.361
 7314TIP3   OH221884   7.087   0.032   3.156
 7314TIP3    H121885   7.169   0.007   3.198
 7314TIP3    H221886   7.053  -0.049   3.119
 7315TIP3   OH221887   7.175   5.851   3.020
 7315TIP3    H121888   7.205   5.918   3.083
 7315TIP3    H221889   7.209   5.881   2.936
 7316TIP3   OH221890   4.232   5.251   5.940
 7316TIP3    H121891   4.199   5.195   5.869
 7316TIP3    H221892   4.324   5.228   5.947
 7317TIP3   OH221893   5.505   6.058   4.323
 7317TIP3    H121894   5.512   6.065   4.228
 7317TIP3    H221895   5.520   6.147   4.355
 7318TIP3   OH221896   1.622   4.299   0.414
 7318TIP3    H121897   1.709   4.314   0.376
 7318TIP3    H221898   1.622   4.352   0.493
 7319TIP3   OH221899   2.069   2.025   0.081
 7319TIP3    H121900   2.010   2.076   0.138
 7319TIP3    H221901   2.117   2.092   0.032
 7320TIP3   OH221902   6.652   3.905   6.740
 7320TIP3    H121903   6.593   3.839   6.705
 7320TIP3    H221904   6.739   3.863   6.737
 7321TIP3   OH221905   2.301   2.044   0.851
 7321TIP3    H121906   2.354   1.966   0.840
 7321TIP3    H221907   2.361   2.110   0.885
 7322TIP3   OH221908   1.613   6.456   2.757
 7322TIP3    H121909   1.622   6.361   2.745
 7322TIP3    H221910   1.695   6.482   2.801
 7323TIP3   OH221911   6.578   6.142   2.122
 7323TIP3    H121912   6.648   6.130   2.057
 7323TIP3    H221913   6.619   6.192   2.192
 7324TIP3   OH221914   2.535   6.827   6.504
 7324TIP3    H121915   2.605   6.803   6.566
 7324TIP3    H221916   2.464   6.766   6.524
 7325TIP3   OH221917   1.313   2.292   1.881
 7325TIP3    H121918   1.298   2.206   1.921
 7325TIP3    H221919   1.232   2.312   1.835
 7326TIP3   OH221920   2.803   5.321   2.319
 7326TIP3    H121921   2.825   5.265   2.393
 7326TIP3    H221922   2.831   5.272   2.242
 7327TIP3   OH221923   2.833   6.889   1.481
 7327TIP3    H121924   2.778   6.880   1.403
 7327TIP3    H221925   2.786   6.951   1.537
 7328TIP3   OH221926   5.072   4.069   3.573
 7328TIP3    H121927   5.032   4.023   3.648
 7328TIP3    H221928   5.155   4.102   3.607
 7329TIP3   OH221929   0.462   2.381   3.653
 7329TIP3    H121930   0.490   2.463   3.692
 7329TIP3    H221931   0.387   2.353   3.706
 7330TIP3   OH221932   8.263   6.752   1.102
 7330TIP3    H121933   8.176   6.791   1.092
 7330TIP3    H221934   8.302   6.801   1.175
 7331TIP3   OH221935   7.824   7.533   3.142
 7331TIP3    H121936   7.847   7.441   3.130
 7331TIP3    H221937   7.729   7.536   3.129
 7332TIP3   OH221938   6.139   1.907   0.972
 7332TIP3    H121939   6.225   1.947   0.985
 7332TIP3    H221940   6.091   1.924   1.053
 7333TIP3   OH221941   0.784   5.805   3.742
 7333TIP3    H121942   0.704   5.754   3.731
 7333TIP3    H221943   0.805   5.798   3.835
 7334TIP3   OH221944   4.899   7.673   2.421
 7334TIP3    H121945   4.859   7.700   2.339
 7334TIP3    H221946   4.955   7.746   2.446
 7335TIP3   OH221947   7.572   3.328   5.562
 7335TIP3    H121948   7.551   3.345   5.654
 7335TIP3    H221949   7.588   3.415   5.525
 7336TIP3   OH221950   7.927   6.557   0.234
 7336TIP3    H121951   7.959   6.497   0.301
 7336TIP3    H221952   7.894   6.501   0.165
 7337TIP3   OH221953   5.349   0.460   2.600
 7337TIP3    H121954   5.384   0.528   2.542
 7337TIP3    H221955   5.259   0.489   2.619
 7338TIP3   OH221956   0.620   3.484   6.533
 7338TIP3    H121957   0.620   3.400   6.578
 7338TIP3    H221958   0.655   3.546   6.597
 7339TIP3   OH221959   4.284   0.849   6.623
 7339TIP3    H121960   4.342   0.794   6.675
 7339TIP3    H221961   4.198   0.837   6.662
 7340TIP3   OH221962   7.749   0.839   4.166
 7340TIP3    H121963   7.804   0.881   4.100
 7340TIP3    H221964   7.807   0.775   4.207
 7341TIP3   OH221965   7.274   0.515   1.439
 7341TIP3    H121966   7.328   0.508   1.361
 7341TIP3    H221967   7.221   0.594   1.426
 7342TIP3   OH221968   7.827   6.915   3.016
 7342TIP3    H121969   7.835   6.827   3.054
 7342TIP3    H221970   7.916   6.937   2.989
 7343TIP3   OH221971   4.419   7.520   0.668
 7343TIP3    H121972   4.349   7.463   0.635
 7343TIP3    H221973   4.402   7.605   0.628
 7344TIP3   OH221974   0.378   7.273   5.410
 7344TIP3    H121975   0.434   7.197   5.392
 7344TIP3    H221976   0.367   7.272   5.505
 7345TIP3   OH221977   7.004   7.022   0.783
 7345TIP3    H121978   6.930   7.081   0.773
 7345TIP3    H221979   7.064   7.069   0.841
 7346TIP3   OH221980   7.167   4.376   5.363
 7346TIP3    H121981   7.125   4.299   5.325
 7346TIP3    H221982   7.152   4.445   5.298
 7347TIP3   OH221983   4.480   7.767   3.974
 7347TIP3    H121984   4.434   7.713   3.910
 7347TIP3    H221985   4.538   7.706   4.019
 7348TIP3   OH221986   1.480   6.675   2.143
 7348TIP3    H121987   1.413   6.740   2.123
 7348TIP3    H221988   1.450   6.596   2.098
 7349TIP3   OH221989   4.354   1.005   4.464
 7349TIP3    H121990   4.392   1.093   4.469
 7349TIP3    H221991   4.369   0.977   4.374
 7350TIP3   OH221992   3.319   4.981   1.858
 7350TIP3    H121993   3.260   4.953   1.788
 7350TIP3    H221994   3.371   5.050   1.818
 7351TIP3   OH221995   4.636   1.924   6.484
 7351TIP3    H121996   4.592   2.001   6.521
 7351TIP3    H221997   4.617   1.929   6.390
 7352TIP3   OH221998   5.643   2.816   2.940
 7352TIP3    H121999   5.672   2.803   3.030
 7352TIP3    H222000   5.691   2.894   2.911
 7353TIP3   OH222001   6.146   5.953   5.337
 7353TIP3    H122002   6.234   5.917   5.332
 7353TIP3    H222003   6.145   6.024   5.273
 7354TIP3   OH222004   6.162   7.190   0.349
 7354TIP3    H122005   6.103   7.222   0.280
 7354TIP3    H222006   6.247   7.228   0.327
 7355TIP3   OH222007   5.560   5.609   0.579
 7355TIP3    H122008   5.614   5.683   0.551
 7355TIP3    H222009   5.485   5.610   0.519
 7356TIP3   OH222010   1.363   6.030   3.585
 7356TIP3    H122011   1.323   6.030   3.672
 7356TIP3    H222012   1.412   6.112   3.582
 7357TIP3   OH222013   2.412   4.092   4.926
 7357TIP3    H122014   2.374   4.034   4.992
 7357TIP3    H222015   2.347   4.096   4.856
 7358TIP3   OH222016   0.104   0.138   3.322
 7358TIP3    H122017   0.099   0.043   3.326
 7358TIP3    H222018   0.051   0.162   3.246
 7359TIP3   OH222019   7.587   5.002   0.566
 7359TIP3    H122020   7.579   4.937   0.496
 7359TIP3    H222021   7.656   5.061   0.537
 7360TIP3   OH222022   1.921   5.195   4.957
 7360TIP3    H122023   2.006   5.151   4.946
 7360TIP3    H222024   1.861   5.144   4.903
 7361TIP3   OH222025   4.857   7.358   0.434
 7361TIP3    H122026   4.840   7.319   0.348
 7361TIP3    H222027   4.832   7.289   0.496
 7362TIP3   OH222028   7.989   3.092   0.027
 7362TIP3    H122029   8.035   3.161  -0.021
 7362TIP3    H222030   7.912   3.134   0.063
 7363TIP3   OH222031   4.602   1.844   2.852
 7363TIP3    H122032   4.652   1.810   2.778
 7363TIP3    H222033   4.569   1.928   2.822
 7364TIP3   OH222034   1.729   5.464   2.291
 7364TIP3    H122035   1.712   5.431   2.379
 7364TIP3    H222036   1.693   5.397   2.233
 7365TIP3   OH222037   2.024   6.566   4.893
 7365TIP3    H122038   2.021   6.585   4.799
 7365TIP3    H222039   2.012   6.471   4.898
 7366TIP3   OH222040   6.436   1.724   0.334
 7366TIP3    H122041   6.441   1.628   0.330
 7366TIP3    H222042   6.511   1.754   0.283
 7367TIP3   OH222043   2.619   4.783   3.769
 7367TIP3    H122044   2.668   4.861   3.794
 7367TIP3    H222045   2.644   4.767   3.678
 7368TIP3   OH222046   4.314   3.416   2.118
 7368TIP3    H122047   4.240   3.409   2.058
 7368TIP3    H222048   4.300   3.348   2.183
 7369TIP3   OH222049   4.812   7.321   3.016
 7369TIP3    H122050   4.746   7.289   3.077
 7369TIP3    H222051   4.776   7.304   2.930
 7370TIP3   OH222052   6.312   2.590   0.674
 7370TIP3    H122053   6.290   2.500   0.651
 7370TIP3    H222054   6.228   2.636   0.669
 7371TIP3   OH222055   7.297   5.840   0.985
 7371TIP3    H122056   7.221   5.783   0.969
 7371TIP3    H222057   7.334   5.856   0.898
 7372TIP3   OH222058   2.848   3.458   0.712
 7372TIP3    H122059   2.863   3.481   0.803
 7372TIP3    H222060   2.929   3.482   0.667
 7373TIP3   OH222061   8.166   2.841   6.631
 7373TIP3    H122062   8.224   2.865   6.703
 7373TIP3    H222063   8.104   2.914   6.625
 7374TIP3   OH222064   0.797   3.995   1.693
 7374TIP3    H122065   0.859   4.026   1.627
 7374TIP3    H222066   0.786   4.070   1.752
 7375TIP3   OH222067   4.029   6.401   1.931
 7375TIP3    H122068   4.028   6.323   1.876
 7375TIP3    H222069   3.988   6.374   2.013
 7376TIP3   OH222070   7.884   6.593   6.532
 7376TIP3    H122071   7.952   6.594   6.598
 7376TIP3    H222072   7.810   6.638   6.573
 7377TIP3   OH222073   7.143   1.523   1.379
 7377TIP3    H122074   7.081   1.583   1.420
 7377TIP3    H222075   7.148   1.448   1.439
 7378TIP3   OH222076   6.443   4.058   2.879
 7378TIP3    H122077   6.501   4.058   2.802
 7378TIP3    H222078   6.375   4.122   2.858
 7379TIP3   OH222079   0.043   5.310   6.404
 7379TIP3    H122080   0.120   5.285   6.353
 7379TIP3    H222081  -0.020   5.240   6.390
 7380TIP3   OH222082   3.700   2.219   0.100
 7380TIP3    H122083   3.790   2.244   0.076
 7380TIP3    H222084   3.679   2.274   0.175
 7381TIP3   OH222085   6.925   1.764   4.952
 7381TIP3    H122086   6.839   1.752   4.991
 7381TIP3    H222087   6.925   1.853   4.918
 7382TIP3   OH222088   3.980   2.931   1.299
 7382TIP3    H122089   3.909   2.919   1.363
 7382TIP3    H222090   3.994   2.844   1.263
 7383TIP3   OH222091   8.277   5.932   4.866
 7383TIP3    H122092   8.282   5.871   4.793
 7383TIP3    H222093   8.320   6.012   4.835
 7384TIP3   OH222094   8.112   6.451   2.439
 7384TIP3    H122095   8.123   6.457   2.344
 7384TIP3    H222096   8.090   6.540   2.466
 7385TIP3   OH222097   6.149   2.532   4.263
 7385TIP3    H122098   6.109   2.600   4.317
 7385TIP3    H222099   6.078   2.501   4.207
 7386TIP3   OH222100   8.015   7.483   4.047
 7386TIP3    H122101   7.988   7.421   4.116
 7386TIP3    H222102   7.956   7.557   4.058
 7387TIP3   OH222103   2.906   2.614   0.996
 7387TIP3    H122104   2.996   2.585   0.979
 7387TIP3    H222105   2.907   2.646   1.086
 7388TIP3   OH222106   0.547   4.092   6.369
 7388TIP3    H122107   0.603   4.065   6.296
 7388TIP3    H222108   0.467   4.040   6.358
 7389TIP3   OH222109   1.205   3.771   0.022
 7389TIP3    H122110   1.175   3.682   0.001
 7389TIP3    H222111   1.170   3.788   0.110
 7390TIP3   OH222112   6.206   2.758   5.189
 7390TIP3    H122113   6.200   2.795   5.277
 7390TIP3    H222114   6.116   2.746   5.161
 7391TIP3   OH222115   7.044   4.093   5.350
 7391TIP3    H122116   7.020   4.051   5.268
 7391TIP3    H222117   7.092   4.026   5.399
 7392TIP3   OH222118   6.245   5.397   6.557
 7392TIP3    H122119   6.338   5.422   6.554
 7392TIP3    H222120   6.244   5.306   6.529
 7393TIP3   OH222121   5.629   1.002   4.811
 7393TIP3    H122122   5.620   0.970   4.901
 7393TIP3    H222123   5.709   1.055   4.812
 7394TIP3   OH222124   1.165   2.756   6.078
 7394TIP3    H122125   1.076   2.755   6.111
 7394TIP3    H222126   1.165   2.695   6.004
 7395TIP3   OH222127   4.505   7.810   4.346
 7395TIP3    H122128   4.567   7.883   4.356
 7395TIP3    H222129   4.425   7.842   4.387
 7396TIP3   OH222130   5.812   0.343   2.715
 7396TIP3    H122131   5.753   0.312   2.646
 7396TIP3    H222132   5.899   0.315   2.686
 7397TIP3   OH222133   6.162   2.416   2.099
 7397TIP3    H122134   6.198   2.420   2.187
 7397TIP3    H222135   6.072   2.384   2.112
 7398TIP3   OH222136   3.547   6.332   4.282
 7398TIP3    H122137   3.497   6.281   4.346
 7398TIP3    H222138   3.501   6.319   4.200
 7399TIP3   OH222139   3.385   2.907   0.969
 7399TIP3    H122140   3.303   2.861   0.955
 7399TIP3    H222141   3.372   2.956   1.050
 7400TIP3   OH222142   3.706   0.038   2.984
 7400TIP3    H122143   3.748  -0.026   3.041
 7400TIP3    H222144   3.732   0.013   2.896
 7401TIP3   OH222145   4.541   1.503   0.278
 7401TIP3    H122146   4.555   1.562   0.204
 7401TIP3    H222147   4.581   1.548   0.353
 7402TIP3   OH222148   5.310   1.825   0.399
 7402TIP3    H122149   5.341   1.769   0.470
 7402TIP3    H222150   5.275   1.902   0.443
 7403TIP3   OH222151   4.523   2.635   3.327
 7403TIP3    H122152   4.603   2.685   3.340
 7403TIP3    H222153   4.521   2.573   3.400
 7404TIP3   OH222154   6.501   2.765   2.468
 7404TIP3    H122155   6.421   2.798   2.509
 7404TIP3    H222156   6.553   2.844   2.451
 7405TIP3   OH222157   2.017   1.415   0.909
 7405TIP3    H122158   1.939   1.363   0.891
 7405TIP3    H222159   2.087   1.369   0.863
 7406TIP3   OH222160   7.714   1.704   2.904
 7406TIP3    H122161   7.770   1.628   2.919
 7406TIP3    H222162   7.704   1.710   2.809
 7407TIP3   OH222163   2.819   7.671   0.996
 7407TIP3    H122164   2.728   7.645   1.011
 7407TIP3    H222165   2.849   7.703   1.081
 7408TIP3   OH222166   7.001   3.203   6.230
 7408TIP3    H122167   7.027   3.239   6.146
 7408TIP3    H222168   6.926   3.257   6.257
 7409TIP3   OH222169   1.524   7.100   0.870
 7409TIP3    H122170   1.613   7.104   0.833
 7409TIP3    H222171   1.469   7.141   0.803
 7410TIP3   OH222172   6.796   4.913   4.182
 7410TIP3    H122173   6.740   4.842   4.150
 7410TIP3    H222174   6.843   4.874   4.256
 7411TIP3   OH222175   6.969   4.350   0.224
 7411TIP3    H122176   7.002   4.411   0.158
 7411TIP3    H222177   6.929   4.279   0.175
 7412TIP3   OH222178   4.922   1.969   6.508
 7412TIP3    H122179   4.907   2.048   6.456
 7412TIP3    H222180   4.835   1.932   6.521
 7413TIP3   OH222181   1.670   0.020   0.986
 7413TIP3    H122182   1.706  -0.063   1.018
 7413TIP3    H222183   1.673   0.079   1.062
 7414TIP3   OH222184   2.076   3.614   3.849
 7414TIP3    H122185   2.010   3.683   3.840
 7414TIP3    H222186   2.126   3.639   3.927
 7415TIP3   OH222187   0.858   7.709   1.182
 7415TIP3    H122188   0.921   7.734   1.114
 7415TIP3    H222189   0.774   7.707   1.138
 7416TIP3   OH222190   4.181   6.497   0.341
 7416TIP3    H122191   4.276   6.490   0.344
 7416TIP3    H222192   4.156   6.455   0.259
 7417TIP3   OH222193   6.742   3.471   1.742
 7417TIP3    H122194   6.774   3.492   1.654
 7417TIP3    H222195   6.801   3.402   1.773
 7418TIP3   OH222196   5.269   2.462   1.876
 7418TIP3    H122197   5.237   2.388   1.928
 7418TIP3    H222198   5.191   2.492   1.829
 7419TIP3   OH222199   4.439   1.399   2.548
 7419TIP3    H122200   4.353   1.390   2.509
 7419TIP3    H222201   4.450   1.320   2.602
 7420TIP3   OH222202   1.529   7.592   6.378
 7420TIP3    H122203   1.570   7.653   6.317
 7420TIP3    H222204   1.602   7.554   6.428
 7421TIP3   OH222205   5.776   0.210   1.113
 7421TIP3    H122206   5.787   0.301   1.140
 7421TIP3    H222207   5.751   0.215   1.020
 7422TIP3   OH222208   1.049   1.383   3.333
 7422TIP3    H122209   1.086   1.325   3.266
 7422TIP3    H222210   1.099   1.362   3.412
 7423TIP3   OH222211   0.448   0.063   5.838
 7423TIP3    H122212   0.453  -0.032   5.839
 7423TIP3    H222213   0.386   0.083   5.767
 7424TIP3   OH222214   0.343   1.101   6.549
 7424TIP3    H122215   0.260   1.106   6.597
 7424TIP3    H222216   0.339   1.017   6.502
 7425TIP3   OH222217   7.430   3.233   6.286
 7425TIP3    H122218   7.508   3.287   6.273
 7425TIP3    H222219   7.459   3.143   6.271
 7426TIP3   OH222220   1.906   0.531   4.935
 7426TIP3    H122221   1.867   0.582   4.864
 7426TIP3    H222222   1.905   0.441   4.902
 7427TIP3   OH222223   2.101   4.468   1.225
 7427TIP3    H122224   2.098   4.488   1.131
 7427TIP3    H222225   2.014   4.433   1.244
 7428TIP3   OH222226   0.723   2.079   2.447
 7428TIP3    H122227   0.741   1.999   2.397
 7428TIP3    H222228   0.725   2.149   2.381
 7429TIP3   OH222229   5.823   0.123   6.727
 7429TIP3    H122230   5.878   0.195   6.698
 7429TIP3    H222231   5.802   0.143   6.818
 7430TIP3   OH222232   6.977   1.895   4.019
 7430TIP3    H122233   7.058   1.849   4.044
 7430TIP3    H222234   6.913   1.825   4.004
 7431TIP3   OH222235   6.342   5.010   0.617
 7431TIP3    H122236   6.397   5.088   0.606
 7431TIP3    H222237   6.403   4.942   0.645
 7432TIP3   OH222238   7.016   1.877   2.386
 7432TIP3    H122239   7.087   1.883   2.322
 7432TIP3    H222240   6.945   1.834   2.338
 7433TIP3   OH222241   4.669   7.190   5.615
 7433TIP3    H122242   4.683   7.113   5.561
 7433TIP3    H222243   4.576   7.212   5.602
 7434TIP3   OH222244   0.238   1.470   3.966
 7434TIP3    H122245   0.274   1.486   3.879
 7434TIP3    H222246   0.236   1.557   4.007
 7435TIP3   OH222247   8.206   0.928   2.966
 7435TIP3    H122248   8.234   0.862   3.030
 7435TIP3    H222249   8.285   0.979   2.948
 7436TIP3   OH222250   5.084   7.301   5.102
 7436TIP3    H122251   4.997   7.308   5.062
 7436TIP3    H222252   5.138   7.363   5.054
 7437TIP3   OH222253   1.889   2.479   4.780
 7437TIP3    H122254   1.971   2.516   4.812
 7437TIP3    H222255   1.891   2.388   4.810
 7438TIP3   OH222256   6.270   3.885   5.604
 7438TIP3    H122257   6.231   3.970   5.585
 7438TIP3    H222258   6.204   3.841   5.659
 7439TIP3   OH222259   6.343   5.796   3.708
 7439TIP3    H122260   6.401   5.726   3.678
 7439TIP3    H222261   6.353   5.865   3.643
 7440TIP3   OH222262   1.583   3.011   5.297
 7440TIP3    H122263   1.572   3.106   5.303
 7440TIP3    H222264   1.525   2.976   5.363
 7441TIP3   OH222265   6.103   0.372   0.334
 7441TIP3    H122266   6.038   0.415   0.279
 7441TIP3    H222267   6.093   0.279   0.314
 7442TIP3   OH222268   4.804   0.986   2.783
 7442TIP3    H122269   4.778   1.019   2.870
 7442TIP3    H222270   4.873   1.046   2.755
 7443TIP3   OH222271   5.757   0.692   2.861
 7443TIP3    H122272   5.830   0.655   2.910
 7443TIP3    H222273   5.679   0.656   2.904
 7444TIP3   OH222274   5.022   1.176   2.667
 7444TIP3    H122275   4.982   1.238   2.605
 7444TIP3    H222276   5.073   1.117   2.612
 7445TIP3   OH222277   6.671   5.188   5.220
 7445TIP3    H122278   6.596   5.246   5.208
 7445TIP3    H222279   6.736   5.242   5.266
 7446TIP3   OH222280   4.672   3.732   0.509
 7446TIP3    H122281   4.759   3.772   0.510
 7446TIP3    H222282   4.688   3.639   0.524
 7447TIP3   OH222283   7.636   3.747   2.532
 7447TIP3    H122284   7.691   3.741   2.454
 7447TIP3    H222285   7.561   3.690   2.513
 7448TIP3   OH222286   5.309   5.015   3.425
 7448TIP3    H122287   5.366   5.092   3.419
 7448TIP3    H222288   5.353   4.948   3.374
 7449TIP3   OH222289   4.273   4.763   1.607
 7449TIP3    H122290   4.337   4.701   1.643
 7449TIP3    H222291   4.197   4.754   1.663
 7450TIP3   OH222292   6.787   7.249   6.294
 7450TIP3    H122293   6.830   7.202   6.365
 7450TIP3    H222294   6.797   7.191   6.218
 7451TIP3   OH222295   4.371   3.253   0.534
 7451TIP3    H122296   4.349   3.340   0.567
 7451TIP3    H222297   4.460   3.237   0.566
 7452TIP3   OH222298   0.111   2.989   3.946
 7452TIP3    H122299   0.019   2.987   3.976
 7452TIP3    H222300   0.146   2.904   3.972
 7453TIP3   OH222301   0.925   7.294   3.007
 7453TIP3    H122302   0.862   7.231   2.972
 7453TIP3    H222303   0.912   7.291   3.102
 7454TIP3   OH222304   6.037   1.534   2.848
 7454TIP3    H122305   5.971   1.508   2.783
 7454TIP3    H222306   6.097   1.591   2.800
 7455TIP3   OH222307   7.112   5.014   6.226
 7455TIP3    H122308   7.148   4.976   6.306
 7455TIP3    H222309   7.031   5.058   6.254
 7456TIP3   OH222310   5.807   5.886   6.628
 7456TIP3    H122311   5.820   5.792   6.615
 7456TIP3    H222312   5.778   5.894   6.719
 7457TIP3   OH222313   2.043   6.754   0.505
 7457TIP3    H122314   2.028   6.748   0.411
 7457TIP3    H222315   1.962   6.720   0.544
 7458TIP3   OH222316   3.998   5.777   6.308
 7458TIP3    H122317   4.092   5.766   6.322
 7458TIP3    H222318   3.970   5.696   6.265
 7459TIP3   OH222319   2.088   0.336   0.539
 7459TIP3    H122320   2.036   0.256   0.540
 7459TIP3    H222321   2.102   0.354   0.446
 7460TIP3   OH222322   3.333   1.967   5.234
 7460TIP3    H122323   3.277   1.944   5.308
 7460TIP3    H222324   3.369   2.053   5.256
 7461TIP3   OH222325   6.548   2.401   5.641
 7461TIP3    H122326   6.599   2.460   5.696
 7461TIP3    H222327   6.458   2.412   5.671
 7462TIP3   OH222328   0.766   1.584   5.695
 7462TIP3    H122329   0.699   1.653   5.701
 7462TIP3    H222330   0.836   1.614   5.753
 7463TIP3   OH222331   2.188   3.753   4.713
 7463TIP3    H122332   2.214   3.661   4.711
 7463TIP3    H222333   2.109   3.757   4.660
 7464TIP3   OH222334   2.281   3.054   1.356
 7464TIP3    H122335   2.253   3.026   1.443
 7464TIP3    H222336   2.199   3.071   1.309
 7465TIP3   OH222337   3.337   4.165   2.987
 7465TIP3    H122338   3.334   4.093   3.049
 7465TIP3    H222339   3.360   4.241   3.039
 7466TIP3   OH222340   7.499   1.783   4.768
 7466TIP3    H122341   7.460   1.868   4.786
 7466TIP3    H222342   7.458   1.723   4.830
 7467TIP3   OH222343   7.073   4.294   2.665
 7467TIP3    H122344   7.032   4.302   2.579
 7467TIP3    H222345   7.136   4.367   2.669
 7468TIP3   OH222346   2.218   0.151   5.125
 7468TIP3    H122347   2.242   0.226   5.070
 7468TIP3    H222348   2.295   0.135   5.179
 7469TIP3   OH222349   2.613   1.029   2.456
 7469TIP3    H122350   2.703   1.022   2.424
 7469TIP3    H222351   2.592   0.941   2.487
 7470TIP3   OH222352   3.654   2.629   0.498
 7470TIP3    H122353   3.643   2.631   0.593
 7470TIP3    H222354   3.594   2.559   0.469
 7471TIP3   OH222355   5.050   2.582   1.716
 7471TIP3    H122356   5.047   2.677   1.702
 7471TIP3    H222357   5.013   2.544   1.637
 7472TIP3   OH222358   0.063   1.995   6.057
 7472TIP3    H122359  -0.025   2.026   6.079
 7472TIP3    H222360   0.053   1.901   6.044
 7473TIP3   OH222361   7.983   1.243   5.006
 7473TIP3    H122362   8.066   1.215   4.969
 7473TIP3    H222363   7.944   1.299   4.939
 7474TIP3   OH222364   3.895   3.550   4.364
 7474TIP3    H122365   3.919   3.620   4.303
 7474TIP3    H222366   3.827   3.501   4.318
 7475TIP3   OH222367   4.568   4.741   4.695
 7475TIP3    H122368   4.517   4.805   4.646
 7475TIP3    H222369   4.633   4.793   4.742
 7476TIP3   OH222370   2.954   3.953   0.985
 7476TIP3    H122371   2.863   3.943   1.013
 7476TIP3    H222372   2.981   4.039   1.019
 7477TIP3   OH222373   1.373   5.279   2.761
 7477TIP3    H122374   1.441   5.311   2.820
 7477TIP3    H222375   1.349   5.356   2.709
 7478TIP3   OH222376   4.753   2.709   0.433
 7478TIP3    H122377   4.761   2.705   0.528
 7478TIP3    H222378   4.669   2.752   0.417
 7479TIP3   OH222379   7.581   6.768   0.422
 7479TIP3    H122380   7.604   6.848   0.470
 7479TIP3    H222381   7.639   6.768   0.347
 7480TIP3   OH222382   3.970   4.408   3.993
 7480TIP3    H122383   3.984   4.392   4.086
 7480TIP3    H222384   3.968   4.321   3.953
 7481TIP3   OH222385   3.428   7.580   1.737
 7481TIP3    H122386   3.412   7.672   1.759
 7481TIP3    H222387   3.523   7.570   1.746
 7482TIP3   OH222388   6.335   5.340   5.403
 7482TIP3    H122389   6.298   5.428   5.401
 7482TIP3    H222390   6.428   5.354   5.420
 7483TIP3   OH222391   5.830   0.794   4.705
 7483TIP3    H122392   5.742   0.807   4.670
 7483TIP3    H222393   5.831   0.846   4.786
 7484TIP3   OH222394   3.146   7.307   5.031
 7484TIP3    H122395   3.089   7.332   5.104
 7484TIP3    H222396   3.106   7.227   4.996
 7485TIP3   OH222397   7.339   0.726   2.202
 7485TIP3    H122398   7.288   0.725   2.121
 7485TIP3    H222399   7.393   0.805   2.195
 7486TIP3   OH222400   2.267   5.808   2.568
 7486TIP3    H122401   2.300   5.746   2.633
 7486TIP3    H222402   2.215   5.754   2.508
 7487TIP3   OH222403   2.373   4.172   5.764
 7487TIP3    H122404   2.408   4.165   5.676
 7487TIP3    H222405   2.367   4.082   5.796
 7488TIP3   OH222406   8.209   5.955   4.581
 7488TIP3    H122407   8.129   5.969   4.633
 7488TIP3    H222408   8.248   6.042   4.575
 7489TIP3   OH222409   7.024   1.086   6.117
 7489TIP3    H122410   7.006   1.087   6.211
 7489TIP3    H222411   7.115   1.115   6.110
 7490TIP3   OH222412   2.132   4.313   3.918
 7490TIP3    H122413   2.152   4.240   3.976
 7490TIP3    H222414   2.141   4.277   3.830
 7491TIP3   OH222415   2.792   4.242   2.943
 7491TIP3    H122416   2.773   4.152   2.971
 7491TIP3    H222417   2.790   4.238   2.848
 7492TIP3   OH222418   3.430   1.410   1.885
 7492TIP3    H122419   3.401   1.377   1.970
 7492TIP3    H222420   3.400   1.345   1.822
 7493TIP3   OH222421   5.314   2.284   0.197
 7493TIP3    H122422   5.338   2.191   0.195
 7493TIP3    H222423   5.220   2.284   0.177
 7494TIP3   OH222424   0.270   2.466   0.843
 7494TIP3    H122425   0.181   2.492   0.818
 7494TIP3    H222426   0.315   2.548   0.862
 7495TIP3   OH222427   2.098   3.961   4.258
 7495TIP3    H122428   2.004   3.966   4.276
 7495TIP3    H222429   2.134   3.910   4.330
 7496TIP3   OH222430   3.068   3.268   6.445
 7496TIP3    H122431   3.000   3.226   6.392
 7496TIP3    H222432   3.150   3.227   6.417
 7497TIP3   OH222433   7.050   4.339   1.438
 7497TIP3    H122434   7.068   4.312   1.347
 7497TIP3    H222435   6.963   4.305   1.456
 7498TIP3   OH222436   1.747   6.551   5.320
 7498TIP3    H122437   1.803   6.628   5.325
 7498TIP3    H222438   1.658   6.586   5.318
 7499TIP3   OH222439   0.876   6.689   0.994
 7499TIP3    H122440   0.884   6.650   1.080
 7499TIP3    H222441   0.952   6.748   0.987
 7500TIP3   OH222442   5.487   0.708   1.091
 7500TIP3    H122443   5.441   0.779   1.136
 7500TIP3    H222444   5.561   0.751   1.047
 7501TIP3   OH222445   0.662   5.152   5.039
 7501TIP3    H122446   0.649   5.238   5.077
 7501TIP3    H222447   0.640   5.091   5.109
 7502TIP3   OH222448   6.724   7.444   1.988
 7502TIP3    H122449   6.771   7.377   1.937
 7502TIP3    H222450   6.698   7.509   1.923
 7503TIP3   OH222451   6.169   6.701   3.444
 7503TIP3    H122452   6.256   6.667   3.464
 7503TIP3    H222453   6.161   6.779   3.499
 7504TIP3   OH222454   2.200   6.970   1.778
 7504TIP3    H122455   2.162   6.915   1.847
 7504TIP3    H222456   2.137   6.964   1.706
 7505TIP3   OH222457   5.724   3.032   3.738
 7505TIP3    H122458   5.760   2.951   3.775
 7505TIP3    H222459   5.772   3.102   3.782
 7506TIP3   OH222460   1.572   7.073   3.098
 7506TIP3    H122461   1.649   7.097   3.048
 7506TIP3    H222462   1.498   7.092   3.041
 7507TIP3   OH222463   2.536   0.498   4.294
 7507TIP3    H122464   2.470   0.560   4.323
 7507TIP3    H222465   2.544   0.436   4.366
 7508TIP3   OH222466   3.047   1.881   6.598
 7508TIP3    H122467   2.960   1.869   6.636
 7508TIP3    H222468   3.034   1.868   6.504
 7509TIP3   OH222469   5.159   1.604   6.198
 7509TIP3    H122470   5.118   1.647   6.123
 7509TIP3    H222471   5.173   1.514   6.169
 7510TIP3   OH222472   6.832   7.337   5.372
 7510TIP3    H122473   6.848   7.243   5.379
 7510TIP3    H222474   6.767   7.346   5.302
 7511TIP3   OH222475   5.562   1.573   4.345
 7511TIP3    H122476   5.599   1.658   4.320
 7511TIP3    H222477   5.603   1.554   4.430
 7512TIP3   OH222478   3.374   0.718   3.352
 7512TIP3    H122479   3.379   0.666   3.433
 7512TIP3    H222480   3.451   0.775   3.355
 7513TIP3   OH222481   3.321   2.578   1.172
 7513TIP3    H122482   3.313   2.600   1.265
 7513TIP3    H222483   3.415   2.582   1.154
 7514TIP3   OH222484   2.948   5.133   0.923
 7514TIP3    H122485   2.919   5.142   1.014
 7514TIP3    H222486   2.943   5.222   0.888
 7515TIP3   OH222487   7.998   5.264   0.959
 7515TIP3    H122488   7.961   5.178   0.940
 7515TIP3    H222489   7.927   5.313   1.000
 7516TIP3   OH222490   8.144   2.966   5.503
 7516TIP3    H122491   8.127   2.875   5.530
 7516TIP3    H222492   8.141   2.963   5.408
 7517TIP3   OH222493   2.417   5.305   2.849
 7517TIP3    H122494   2.463   5.368   2.904
 7517TIP3    H222495   2.403   5.230   2.905
 7518TIP3   OH222496   4.173   6.790   1.356
 7518TIP3    H122497   4.207   6.869   1.400
 7518TIP3    H222498   4.239   6.769   1.290
 7519TIP3   OH222499   2.681   2.980   2.018
 7519TIP3    H122500   2.715   2.940   2.098
 7519TIP3    H222501   2.732   3.060   2.008
 7520TIP3   OH222502   8.205   6.777   5.289
 7520TIP3    H122503   8.151   6.741   5.360
 7520TIP3    H222504   8.247   6.700   5.249
 7521TIP3   OH222505   0.289   6.241   1.854
 7521TIP3    H122506   0.381   6.227   1.874
 7521TIP3    H222507   0.244   6.233   1.938
 7522TIP3   OH222508   1.494   2.189   0.843
 7522TIP3    H122509   1.422   2.249   0.824
 7522TIP3    H222510   1.572   2.235   0.813
 7523TIP3   OH222511   0.136   7.096   2.471
 7523TIP3    H122512   0.197   7.078   2.400
 7523TIP3    H222513   0.192   7.116   2.546
 7524TIP3   OH222514   3.137   0.736   2.753
 7524TIP3    H122515   3.217   0.712   2.706
 7524TIP3    H222516   3.167   0.794   2.822
 7525TIP3   OH222517   0.467   1.663   2.377
 7525TIP3    H122518   0.448   1.746   2.421
 7525TIP3    H222519   0.468   1.685   2.283
 7526TIP3   OH222520   2.678   4.120   3.500
 7526TIP3    H122521   2.655   4.027   3.507
 7526TIP3    H222522   2.747   4.123   3.433
 7527TIP3   OH222523   1.179   1.019   0.937
 7527TIP3    H122524   1.164   1.068   1.018
 7527TIP3    H222525   1.238   1.074   0.886
 7528TIP3   OH222526   1.117   4.626   3.339
 7528TIP3    H122527   1.059   4.698   3.363
 7528TIP3    H222528   1.198   4.668   3.313
 7529TIP3   OH222529   4.500   7.633   5.995
 7529TIP3    H122530   4.545   7.637   6.079
 7529TIP3    H222531   4.502   7.540   5.971
 7530TIP3   OH222532   6.405   7.091   5.560
 7530TIP3    H122533   6.375   7.075   5.649
 7530TIP3    H222534   6.408   7.186   5.553
 7531TIP3   OH222535   5.547   6.521   5.462
 7531TIP3    H122536   5.544   6.613   5.433
 7531TIP3    H222537   5.619   6.483   5.413
 7532TIP3   OH222538   7.369   3.675   2.529
 7532TIP3    H122539   7.309   3.605   2.555
 7532TIP3    H222540   7.340   3.701   2.442
 7533TIP3   OH222541   2.085   0.432   5.857
 7533TIP3    H122542   2.082   0.438   5.952
 7533TIP3    H222543   2.179   0.426   5.836
 7534TIP3   OH222544   0.658   4.216   6.053
 7534TIP3    H122545   0.667   4.133   6.099
 7534TIP3    H222546   0.575   4.209   6.007
 7535TIP3   OH222547   5.131   2.718   5.421
 7535TIP3    H122548   5.211   2.684   5.382
 7535TIP3    H222549   5.147   2.812   5.432
 7536TIP3   OH222550   7.873   1.664   2.291
 7536TIP3    H122551   7.845   1.747   2.253
 7536TIP3    H222552   7.917   1.689   2.372
 7537TIP3   OH222553   0.276   3.805   5.283
 7537TIP3    H122554   0.271   3.728   5.228
 7537TIP3    H222555   0.364   3.840   5.270
 7538TIP3   OH222556   2.942   0.564   1.601
 7538TIP3    H122557   2.899   0.649   1.614
 7538TIP3    H222558   3.034   0.586   1.590
 7539TIP3   OH222559   1.128   4.437   6.652
 7539TIP3    H122560   1.035   4.451   6.637
 7539TIP3    H222561   1.169   4.520   6.625
 7540TIP3   OH222562   4.581   3.959   5.321
 7540TIP3    H122563   4.518   3.966   5.393
 7540TIP3    H222564   4.618   3.871   5.329
 7541TIP3   OH222565   6.524   5.240   0.617
 7541TIP3    H122566   6.607   5.286   0.600
 7541TIP3    H222567   6.458   5.291   0.569
 7542TIP3   OH222568   4.943   1.255   0.761
 7542TIP3    H122569   4.991   1.293   0.687
 7542TIP3    H222570   4.896   1.329   0.799
 7543TIP3   OH222571   6.926   0.304   2.454
 7543TIP3    H122572   6.977   0.318   2.534
 7543TIP3    H222573   6.968   0.359   2.388
 7544TIP3   OH222574   7.268   7.176   3.895
 7544TIP3    H122575   7.315   7.149   3.817
 7544TIP3    H222576   7.318   7.251   3.929
 7545TIP3   OH222577   5.449   1.667   2.684
 7545TIP3    H122578   5.491   1.728   2.624
 7545TIP3    H222579   5.402   1.723   2.745
 7546TIP3   OH222580   1.044   0.311   1.095
 7546TIP3    H122581   1.058   0.395   1.138
 7546TIP3    H222582   1.055   0.329   1.002
 7547TIP3   OH222583   6.386   7.495   1.246
 7547TIP3    H122584   6.474   7.529   1.230
 7547TIP3    H222585   6.366   7.523   1.336
 7548TIP3   OH222586   0.726   4.849   2.241
 7548TIP3    H122587   0.720   4.821   2.149
 7548TIP3    H222588   0.646   4.900   2.255
 7549TIP3   OH222589   4.620   7.249   4.014
 7549TIP3    H122590   4.566   7.287   3.944
 7549TIP3    H222591   4.602   7.302   4.091
 7550TIP3   OH222592   6.777   7.009   4.899
 7550TIP3    H122593   6.694   6.977   4.935
 7550TIP3    H222594   6.759   7.099   4.874
 7551TIP3   OH222595   5.675   7.767   6.379
 7551TIP3    H122596   5.590   7.756   6.421
 7551TIP3    H222597   5.701   7.856   6.400
 7552TIP3   OH222598   2.394   5.645   0.183
 7552TIP3    H122599   2.328   5.700   0.139
 7552TIP3    H222600   2.363   5.640   0.274
 7553TIP3   OH222601   1.345   4.836   3.698
 7553TIP3    H122602   1.366   4.847   3.790
 7553TIP3    H222603   1.269   4.777   3.698
 7554TIP3   OH222604   3.098   1.773   1.563
 7554TIP3    H122605   3.080   1.729   1.480
 7554TIP3    H222606   3.032   1.740   1.623
 7555TIP3   OH222607   2.900   3.109   0.297
 7555TIP3    H122608   2.868   3.186   0.343
 7555TIP3    H222609   2.823   3.055   0.284
 7556TIP3   OH222610   2.609   2.825   1.160
 7556TIP3    H122611   2.637   2.915   1.141
 7556TIP3    H222612   2.530   2.836   1.213
 7557TIP3   OH222613   4.339   2.960   5.267
 7557TIP3    H122614   4.388   2.957   5.184
 7557TIP3    H222615   4.381   3.030   5.317
 7558TIP3   OH222616   7.192   7.312   5.949
 7558TIP3    H122617   7.110   7.342   5.988
 7558TIP3    H222618   7.207   7.226   5.988
 7559TIP3   OH222619   6.456   3.658   3.027
 7559TIP3    H122620   6.456   3.640   2.933
 7559TIP3    H222621   6.421   3.747   3.034
 7560TIP3   OH222622   0.596   0.929   3.982
 7560TIP3    H122623   0.612   0.847   3.935
 7560TIP3    H222624   0.592   0.996   3.914
 7561TIP3   OH222625   8.070   1.425   5.637
 7561TIP3    H122626   8.026   1.375   5.569
 7561TIP3    H222627   8.075   1.365   5.712
 7562TIP3   OH222628   4.584   2.736   1.639
 7562TIP3    H122629   4.595   2.830   1.629
 7562TIP3    H222630   4.631   2.697   1.565
 7563TIP3   OH222631   7.643   6.511   4.744
 7563TIP3    H122632   7.631   6.534   4.652
 7563TIP3    H222633   7.581   6.439   4.759
 7564TIP3   OH222634   2.744   6.183   6.238
 7564TIP3    H122635   2.826   6.201   6.284
 7564TIP3    H222636   2.754   6.225   6.152
 7565TIP3   OH222637   6.398   5.419   3.461
 7565TIP3    H122638   6.317   5.380   3.493
 7565TIP3    H222639   6.407   5.500   3.510
 7566TIP3   OH222640   8.038   6.819   4.993
 7566TIP3    H122641   8.036   6.765   5.072
 7566TIP3    H222642   8.117   6.790   4.947
 7567TIP3   OH222643   7.200   3.643   0.129
 7567TIP3    H122644   7.160   3.676   0.209
 7567TIP3    H222645   7.221   3.552   0.149
 7568TIP3   OH222646   7.561   3.514   0.186
 7568TIP3    H122647   7.625   3.454   0.147
 7568TIP3    H222648   7.477   3.487   0.149
 7569TIP3   OH222649   1.434   7.692   3.723
 7569TIP3    H122650   1.482   7.609   3.713
 7569TIP3    H222651   1.481   7.753   3.667
 7570TIP3   OH222652   2.159   7.585   4.784
 7570TIP3    H122653   2.075   7.612   4.820
 7570TIP3    H222654   2.147   7.491   4.765
 7571TIP3   OH222655   6.413   7.601   3.538
 7571TIP3    H122656   6.440   7.553   3.460
 7571TIP3    H222657   6.433   7.692   3.519
 7572TIP3   OH222658   2.096   3.120   4.407
 7572TIP3    H122659   2.058   3.062   4.473
 7572TIP3    H222660   2.128   3.061   4.338
 7573TIP3   OH222661   2.412   5.968   1.241
 7573TIP3    H122662   2.411   5.988   1.148
 7573TIP3    H222663   2.504   5.978   1.267
 7574TIP3   OH222664   3.741   1.748   0.303
 7574TIP3    H122665   3.794   1.734   0.225
 7574TIP3    H222666   3.692   1.828   0.283
 7575TIP3   OH222667   4.494   5.564   5.198
 7575TIP3    H122668   4.419   5.597   5.149
 7575TIP3    H222669   4.455   5.506   5.264
 7576TIP3   OH222670   6.533   2.534   4.985
 7576TIP3    H122671   6.585   2.545   5.064
 7576TIP3    H222672   6.576   2.589   4.920
 7577TIP3   OH222673   3.745   2.576   5.190
 7577TIP3    H122674   3.778   2.503   5.242
 7577TIP3    H222675   3.822   2.629   5.171
 7578TIP3   OH222676   4.514   3.445   0.876
 7578TIP3    H122677   4.586   3.441   0.939
 7578TIP3    H222678   4.513   3.359   0.835
 7579TIP3   OH222679   0.838   6.662   2.411
 7579TIP3    H122680   0.822   6.592   2.347
 7579TIP3    H222681   0.776   6.645   2.482
 7580TIP3   OH222682   8.286   2.952   6.242
 7580TIP3    H122683   8.249   2.991   6.162
 7580TIP3    H222684   8.332   3.024   6.284
 7581TIP3   OH222685   1.671   4.012   0.327
 7581TIP3    H122686   1.628   3.942   0.278
 7581TIP3    H222687   1.758   3.978   0.346
 7582TIP3   OH222688   4.660   1.801   4.651
 7582TIP3    H122689   4.739   1.840   4.689
 7582TIP3    H222690   4.672   1.707   4.662
 7583TIP3   OH222691   5.847   7.428   2.191
 7583TIP3    H122692   5.924   7.412   2.136
 7583TIP3    H222693   5.881   7.473   2.267
 7584TIP3   OH222694   1.600   0.225   1.157
 7584TIP3    H122695   1.568   0.199   1.243
 7584TIP3    H222696   1.545   0.299   1.131
 7585TIP3   OH222697   5.609   0.880   5.708
 7585TIP3    H122698   5.676   0.828   5.663
 7585TIP3    H222699   5.584   0.827   5.783
 7586TIP3   OH222700   7.606   0.702   1.158
 7586TIP3    H122701   7.618   0.775   1.219
 7586TIP3    H222702   7.582   0.744   1.075
 7587TIP3   OH222703   4.554   2.389   6.348
 7587TIP3    H122704   4.596   2.452   6.407
 7587TIP3    H222705   4.461   2.396   6.368
 7588TIP3   OH222706   3.521   0.313   0.727
 7588TIP3    H122707   3.505   0.383   0.789
 7588TIP3    H222708   3.437   0.299   0.684
 7589TIP3   OH222709   0.752   2.270   5.537
 7589TIP3    H122710   0.747   2.175   5.541
 7589TIP3    H222711   0.787   2.288   5.449
 7590TIP3   OH222712   1.283   7.315   2.009
 7590TIP3    H122713   1.365   7.277   2.041
 7590TIP3    H222714   1.309   7.399   1.970
 7591TIP3   OH222715   6.559   6.373   5.955
 7591TIP3    H122716   6.466   6.388   5.975
 7591TIP3    H222717   6.606   6.411   6.030
 7592TIP3   OH222718   4.653   4.598   2.064
 7592TIP3    H122719   4.747   4.589   2.050
 7592TIP3    H222720   4.645   4.671   2.125
 7593TIP3   OH222721   1.482   4.133   2.993
 7593TIP3    H122722   1.394   4.156   2.964
 7593TIP3    H222723   1.524   4.218   3.011
 7594TIP3   OH222724   7.364   6.498   2.504
 7594TIP3    H122725   7.427   6.552   2.456
 7594TIP3    H222726   7.347   6.547   2.585
 7595TIP3   OH222727   7.102   0.077   3.704
 7595TIP3    H122728   7.064   0.019   3.770
 7595TIP3    H222729   7.196   0.073   3.719
 7596TIP3   OH222730   7.249   2.976   0.447
 7596TIP3    H122731   7.263   3.069   0.467
 7596TIP3    H222732   7.240   2.935   0.533
 7597TIP3   OH222733   0.560   2.144   3.829
 7597TIP3    H122734   0.503   2.170   3.756
 7597TIP3    H222735   0.643   2.123   3.787
 7598TIP3   OH222736   7.332   0.478   0.478
 7598TIP3    H122737   7.338   0.483   0.383
 7598TIP3    H222738   7.327   0.385   0.498
 7599TIP3   OH222739   2.951   0.310   5.585
 7599TIP3    H122740   3.038   0.272   5.580
 7599TIP3    H222741   2.949   0.355   5.669
 7600TIP3   OH222742   5.155   3.085   1.949
 7600TIP3    H122743   5.117   3.150   2.009
 7600TIP3    H222744   5.204   3.026   2.006
 7601TIP3   OH222745   4.351   0.084   3.018
 7601TIP3    H122746   4.400   0.004   3.038
 7601TIP3    H222747   4.350   0.088   2.922
 7602TIP3   OH222748   5.959   4.256   3.722
 7602TIP3    H122749   5.969   4.343   3.683
 7602TIP3    H222750   5.942   4.198   3.648
 7603TIP3   OH222751   5.255   4.199   0.005
 7603TIP3    H122752   5.254   4.179   0.099
 7603TIP3    H222753   5.174   4.248  -0.010
 7604TIP3   OH222754   7.224   0.242   1.659
 7604TIP3    H122755   7.273   0.245   1.741
 7604TIP3    H222756   7.291   0.229   1.592
 7605TIP3   OH222757   8.209   0.354   3.259
 7605TIP3    H122758   8.240   0.383   3.173
 7605TIP3    H222759   8.123   0.316   3.241
 7606TIP3   OH222760   5.238   6.847   5.728
 7606TIP3    H122761   5.267   6.772   5.677
 7606TIP3    H222762   5.253   6.923   5.670
 7607TIP3   OH222763   1.514   1.008   0.788
 7607TIP3    H122764   1.519   0.940   0.855
 7607TIP3    H222765   1.602   1.044   0.783
 7608TIP3   OH222766   3.361   2.504   2.108
 7608TIP3    H122767   3.360   2.420   2.152
 7608TIP3    H222768   3.424   2.557   2.157
 7609TIP3   OH222769   0.424   2.867   6.504
 7609TIP3    H122770   0.460   2.800   6.446
 7609TIP3    H222771   0.500   2.900   6.552
 7610TIP3   OH222772   3.734   7.536   5.730
 7610TIP3    H122773   3.809   7.484   5.702
 7610TIP3    H222774   3.678   7.542   5.652
 7611TIP3   OH222775   3.791   4.801   1.044
 7611TIP3    H122776   3.748   4.830   0.963
 7611TIP3    H222777   3.847   4.875   1.068
 7612TIP3   OH222778   2.861   0.067   3.135
 7612TIP3    H122779   2.794   0.097   3.197
 7612TIP3    H222780   2.862   0.134   3.067
 7613TIP3   OH222781   5.451   0.002   6.007
 7613TIP3    H122782   5.390  -0.017   5.936
 7613TIP3    H222783   5.515   0.062   5.969
 7614TIP3   OH222784   6.752   4.966   1.314
 7614TIP3    H122785   6.797   5.048   1.337
 7614TIP3    H222786   6.755   4.964   1.218
 7615TIP3   OH222787   5.950   7.166   4.530
 7615TIP3    H122788   6.016   7.101   4.509
 7615TIP3    H222789   5.867   7.123   4.510
 7616TIP3   OH222790   1.161   4.794   5.095
 7616TIP3    H122791   1.083   4.747   5.125
 7616TIP3    H222792   1.127   4.869   5.047
 7617TIP3   OH222793   5.163   3.793   4.210
 7617TIP3    H122794   5.166   3.710   4.162
 7617TIP3    H222795   5.229   3.782   4.279
 7618TIP3   OH222796   7.165   5.414   3.219
 7618TIP3    H122797   7.166   5.506   3.246
 7618TIP3    H222798   7.108   5.371   3.282
 7619TIP3   OH222799   4.384   6.728   1.189
 7619TIP3    H122800   4.470   6.756   1.221
 7619TIP3    H222801   4.395   6.719   1.094
 7620TIP3   OH222802   3.460   0.184   6.549
 7620TIP3    H122803   3.418   0.193   6.634
 7620TIP3    H222804   3.423   0.104   6.512
 7621TIP3   OH222805   0.298   6.405   5.364
 7621TIP3    H122806   0.335   6.330   5.410
 7621TIP3    H222807   0.374   6.456   5.335
 7622TIP3   OH222808   5.654   1.899   4.710
 7622TIP3    H122809   5.646   1.995   4.704
 7622TIP3    H222810   5.620   1.878   4.797
 7623TIP3   OH222811   5.932   1.048   4.314
 7623TIP3    H122812   6.001   1.052   4.380
 7623TIP3    H222813   5.890   0.963   4.329
 7624TIP3   OH222814   3.293   4.375   3.423
 7624TIP3    H122815   3.239   4.351   3.347
 7624TIP3    H222816   3.232   4.372   3.496
 7625TIP3   OH222817   6.199   6.343   4.485
 7625TIP3    H122818   6.160   6.350   4.572
 7625TIP3    H222819   6.259   6.269   4.491
 7626TIP3   OH222820   4.819   2.996   4.123
 7626TIP3    H122821   4.806   3.058   4.194
 7626TIP3    H222822   4.913   2.983   4.119
 7627TIP3   OH222823   6.080   4.016   4.852
 7627TIP3    H122824   6.159   3.970   4.881
 7627TIP3    H222825   6.096   4.037   4.760
 7628TIP3   OH222826   7.511   5.778   6.460
 7628TIP3    H122827   7.525   5.784   6.554
 7628TIP3    H222828   7.583   5.723   6.428
 7629TIP3   OH222829   6.197   7.312   1.141
 7629TIP3    H122830   6.258   7.369   1.187
 7629TIP3    H222831   6.168   7.364   1.066
 7630TIP3   OH222832   1.476   2.119   6.257
 7630TIP3    H122833   1.462   2.213   6.268
 7630TIP3    H222834   1.480   2.106   6.162
 7631TIP3   OH222835   7.033   5.962   0.050
 7631TIP3    H122836   6.981   5.882   0.040
 7631TIP3    H222837   7.116   5.932   0.086
 7632TIP3   OH222838   1.436   6.605   1.044
 7632TIP3    H122839   1.475   6.690   1.021
 7632TIP3    H222840   1.437   6.604   1.140
 7633TIP3   OH222841   2.808   4.938   1.808
 7633TIP3    H122842   2.726   4.897   1.781
 7633TIP3    H222843   2.806   5.024   1.767
 7634TIP3   OH222844   6.484   0.478   0.826
 7634TIP3    H122845   6.481   0.559   0.876
 7634TIP3    H222846   6.515   0.412   0.888
 7635TIP3   OH222847   2.680   1.423   3.513
 7635TIP3    H122848   2.744   1.467   3.457
 7635TIP3    H222849   2.603   1.411   3.457
 7636TIP3   OH222850   8.191   2.959   2.206
 7636TIP3    H122851   8.214   2.940   2.297
 7636TIP3    H222852   8.273   2.949   2.158
 7637TIP3   OH222853   2.241   6.262   2.444
 7637TIP3    H122854   2.293   6.198   2.492
 7637TIP3    H222855   2.176   6.210   2.397
 7638TIP3   OH222856   1.795   1.398   1.820
 7638TIP3    H122857   1.885   1.409   1.850
 7638TIP3    H222858   1.778   1.476   1.766
 7639TIP3   OH222859   4.166   4.075   3.039
 7639TIP3    H122860   4.103   4.106   2.974
 7639TIP3    H222861   4.127   3.995   3.075
 7640TIP3   OH222862   4.681   3.533   4.081
 7640TIP3    H122863   4.744   3.483   4.132
 7640TIP3    H222864   4.691   3.501   3.992
 7641TIP3   OH222865   7.284   2.100   1.133
 7641TIP3    H122866   7.268   2.010   1.106
 7641TIP3    H222867   7.269   2.153   1.055
 7642TIP3   OH222868   1.543   4.828   0.561
 7642TIP3    H122869   1.461   4.877   0.567
 7642TIP3    H222870   1.603   4.888   0.515
 7643TIP3   OH222871   5.668   3.109   5.270
 7643TIP3    H122872   5.579   3.082   5.250
 7643TIP3    H222873   5.668   3.122   5.365
 7644TIP3   OH222874   3.065   5.264   0.085
 7644TIP3    H122875   3.007   5.237   0.014
 7644TIP3    H222876   3.151   5.228   0.060
 7645TIP3   OH222877   2.423   5.022   6.216
 7645TIP3    H122878   2.357   4.963   6.251
 7645TIP3    H222879   2.373   5.095   6.179
 7646TIP3   OH222880   5.178   6.201   4.043
 7646TIP3    H122881   5.139   6.273   3.993
 7646TIP3    H222882   5.168   6.228   4.134
 7647TIP3   OH222883   8.286   7.082   6.498
 7647TIP3    H122884   8.357   7.130   6.455
 7647TIP3    H222885   8.206   7.121   6.462
 7648TIP3   OH222886   6.352   6.997   3.220
 7648TIP3    H122887   6.434   6.993   3.170
 7648TIP3    H222888   6.319   6.907   3.218
 7649TIP3   OH222889   2.897   1.499   4.053
 7649TIP3    H122890   2.909   1.413   4.093
 7649TIP3    H222891   2.904   1.561   4.126
 7650TIP3   OH222892   3.228   7.177   3.953
 7650TIP3    H122893   3.266   7.150   4.037
 7650TIP3    H222894   3.197   7.266   3.969
 7651TIP3   OH222895   6.261   2.515   1.622
 7651TIP3    H122896   6.174   2.500   1.584
 7651TIP3    H222897   6.314   2.545   1.548
 7652TIP3   OH222898   2.454   7.508   2.166
 7652TIP3    H122899   2.398   7.442   2.207
 7652TIP3    H222900   2.530   7.459   2.136
 7653TIP3   OH222901   1.204   5.992   4.042
 7653TIP3    H122902   1.181   5.933   3.971
 7653TIP3    H222903   1.299   5.998   4.039
 7654TIP3   OH222904   1.913   4.881   5.233
 7654TIP3    H122905   1.964   4.961   5.247
 7654TIP3    H222906   1.861   4.899   5.155
 7655TIP3   OH222907   0.954   0.027   4.571
 7655TIP3    H122908   0.997  -0.053   4.602
 7655TIP3    H222909   0.951   0.018   4.476
 7656TIP3   OH222910   2.501   6.025   0.091
 7656TIP3    H122911   2.489   5.971   0.013
 7656TIP3    H222912   2.459   5.974   0.161
 7657TIP3   OH222913   5.372   0.453   5.776
 7657TIP3    H122914   5.376   0.521   5.709
 7657TIP3    H222915   5.441   0.391   5.751
 7658TIP3   OH222916   1.110   0.925   3.960
 7658TIP3    H122917   1.081   1.016   3.955
 7658TIP3    H222918   1.062   0.880   3.891
 7659TIP3   OH222919   3.745   2.082   4.789
 7659TIP3    H122920   3.811   2.012   4.798
 7659TIP3    H222921   3.664   2.037   4.768
 7660TIP3   OH222922   6.408   5.522   5.656
 7660TIP3    H122923   6.327   5.550   5.614
 7660TIP3    H222924   6.380   5.481   5.738
 7661TIP3   OH222925   4.458   6.579   5.713
 7661TIP3    H122926   4.540   6.614   5.747
 7661TIP3    H222927   4.477   6.487   5.694
 7662TIP3   OH222928   2.286   2.940   0.772
 7662TIP3    H122929   2.339   2.875   0.726
 7662TIP3    H222930   2.345   3.014   0.786
 7663TIP3   OH222931   0.756   5.991   0.926
 7663TIP3    H122932   0.697   5.920   0.950
 7663TIP3    H222933   0.749   5.998   0.831
 7664TIP3   OH222934   6.484   6.732   0.642
 7664TIP3    H122935   6.481   6.816   0.597
 7664TIP3    H222936   6.451   6.669   0.577
 7665TIP3   OH222937   7.478   3.204   2.649
 7665TIP3    H122938   7.514   3.115   2.651
 7665TIP3    H222939   7.543   3.257   2.694
 7666TIP3   OH222940   6.739   5.380   6.568
 7666TIP3    H122941   6.816   5.360   6.515
 7666TIP3    H222942   6.693   5.448   6.518
 7667TIP3   OH222943   7.882   7.701   0.829
 7667TIP3    H122944   7.948   7.686   0.897
 7667TIP3    H222945   7.881   7.796   0.816
 7668TIP3   OH222946   4.269   6.805   0.435
 7668TIP3    H122947   4.330   6.764   0.373
 7668TIP3    H222948   4.185   6.804   0.389
 7669TIP3   OH222949   3.856   5.506   2.648
 7669TIP3    H122950   3.907   5.549   2.716
 7669TIP3    H222951   3.805   5.439   2.694
 7670TIP3   OH222952   1.291   2.570   6.292
 7670TIP3    H122953   1.265   2.630   6.222
 7670TIP3    H222954   1.286   2.623   6.372
 7671TIP3   OH222955   4.517   2.074   2.734
 7671TIP3    H122956   4.474   2.094   2.651
 7671TIP3    H222957   4.527   2.159   2.777
 7672TIP3   OH222958   1.597   2.228   2.217
 7672TIP3    H122959   1.649   2.254   2.293
 7672TIP3    H222960   1.633   2.279   2.144
 7673TIP3   OH222961   4.883   6.467   0.081
 7673TIP3    H122962   4.842   6.415   0.012
 7673TIP3    H222963   4.843   6.553   0.073
 7674TIP3   OH222964   2.821   4.957   3.719
 7674TIP3    H122965   2.852   4.954   3.810
 7674TIP3    H222966   2.899   4.942   3.666
 7675TIP3   OH222967   8.042   6.946   6.328
 7675TIP3    H122968   8.002   6.911   6.408
 7675TIP3    H222969   8.114   6.886   6.309
 7676TIP3   OH222970   6.693   3.862   6.146
 7676TIP3    H122971   6.620   3.808   6.116
 7676TIP3    H222972   6.672   3.950   6.115
 7677TIP3   OH222973   0.510   0.695   6.440
 7677TIP3    H122974   0.456   0.756   6.390
 7677TIP3    H222975   0.476   0.701   6.529
 7678TIP3   OH222976   1.597   3.216   6.014
 7678TIP3    H122977   1.534   3.263   5.960
 7678TIP3    H222978   1.607   3.270   6.092
 7679TIP3   OH222979   5.090   2.709   5.709
 7679TIP3    H122980   5.042   2.770   5.765
 7679TIP3    H222981   5.038   2.705   5.628
 7680TIP3   OH222982   1.938   7.115   0.087
 7680TIP3    H122983   2.017   7.111   0.033
 7680TIP3    H222984   1.866   7.108   0.025
 7681TIP3   OH222985   2.943   6.615   3.006
 7681TIP3    H122986   2.991   6.536   3.029
 7681TIP3    H222987   2.920   6.603   2.913
 7682TIP3   OH222988   7.701   5.098   3.826
 7682TIP3    H122989   7.787   5.080   3.787
 7682TIP3    H222990   7.680   5.187   3.798
 7683TIP3   OH222991   3.645   1.182   0.866
 7683TIP3    H122992   3.687   1.096   0.858
 7683TIP3    H222993   3.560   1.164   0.906
 7684TIP3   OH222994   4.439   5.654   5.502
 7684TIP3    H122995   4.522   5.608   5.501
 7684TIP3    H222996   4.460   5.743   5.530
 7685TIP3   OH222997   5.129   5.230   5.321
 7685TIP3    H122998   5.174   5.301   5.275
 7685TIP3    H222999   5.064   5.274   5.376
 7686TIP3   OH223000   7.141   2.307   6.404
 7686TIP3    H123001   7.060   2.257   6.394
 7686TIP3    H223002   7.123   2.366   6.477
 7687TIP3   OH223003   7.573   1.269   0.593
 7687TIP3    H123004   7.483   1.238   0.602
 7687TIP3    H223005   7.565   1.362   0.572
 7688TIP3   OH223006   3.867   4.797   3.466
 7688TIP3    H123007   3.808   4.833   3.400
 7688TIP3    H223008   3.898   4.874   3.515
 7689TIP3   OH223009   8.090   2.255   2.807
 7689TIP3    H123010   8.064   2.168   2.777
 7689TIP3    H223011   8.051   2.314   2.743
 7690TIP3   OH223012   0.105   6.062   2.556
 7690TIP3    H123013   0.058   6.011   2.490
 7690TIP3    H223014   0.084   6.019   2.639
 7691TIP3   OH223015   5.434   3.709   4.240
 7691TIP3    H123016   5.419   3.737   4.149
 7691TIP3    H223017   5.529   3.698   4.245
 7692TIP3   OH223018   7.241   6.156   4.588
 7692TIP3    H123019   7.148   6.173   4.603
 7692TIP3    H223020   7.266   6.094   4.657
 7693TIP3   OH223021   5.912   2.478   2.498
 7693TIP3    H123022   6.007   2.466   2.507
 7693TIP3    H223023   5.903   2.532   2.419
 7694TIP3   OH223024   1.905   0.011   5.164
 7694TIP3    H123025   1.950   0.035   5.083
 7694TIP3    H223026   1.962   0.045   5.234
 7695TIP3   OH223027   5.799   6.682   3.996
 7695TIP3    H123028   5.824   6.667   3.905
 7695TIP3    H223029   5.713   6.642   4.005
 7696TIP3   OH223030   7.096   3.960   0.552
 7696TIP3    H123031   7.009   3.997   0.562
 7696TIP3    H223032   7.156   4.031   0.572
 7697TIP3   OH223033   1.596   1.766   1.295
 7697TIP3    H123034   1.550   1.784   1.213
 7697TIP3    H223035   1.621   1.852   1.328
 7698TIP3   OH223036   3.393   4.950   3.343
 7698TIP3    H123037   3.448   4.872   3.343
 7698TIP3    H223038   3.446   5.017   3.301
 7699TIP3   OH223039   4.413   7.544   4.600
 7699TIP3    H123040   4.392   7.453   4.621
 7699TIP3    H223041   4.441   7.542   4.509
 7700TIP3   OH223042   8.192   4.763   5.002
 7700TIP3    H123043   8.111   4.744   4.955
 7700TIP3    H223044   8.257   4.776   4.932
 7701TIP3   OH223045   7.814   4.306   0.091
 7701TIP3    H123046   7.791   4.396   0.111
 7701TIP3    H223047   7.732   4.257   0.105
 7702TIP3   OH223048   0.071   4.992   3.638
 7702TIP3    H123049   0.022   4.911   3.653
 7702TIP3    H223050   0.076   5.033   3.725
 7703TIP3   OH223051   6.677   0.586   0.635
 7703TIP3    H123052   6.608   0.569   0.570
 7703TIP3    H223053   6.646   0.542   0.714
 7704TIP3   OH223054   1.512   0.943   3.485
 7704TIP3    H123055   1.573   1.014   3.501
 7704TIP3    H223056   1.477   0.960   3.398
 7705TIP3   OH223057   0.012   4.707   3.625
 7705TIP3    H123058   0.066   4.649   3.679
 7705TIP3    H223059   0.023   4.675   3.536
 7706TIP3   OH223060   0.346   2.544   4.425
 7706TIP3    H123061   0.415   2.479   4.411
 7706TIP3    H223062   0.366   2.582   4.511
 7707TIP3   OH223063   1.341   3.334   0.080
 7707TIP3    H123064   1.300   3.256   0.042
 7707TIP3    H223065   1.355   3.311   0.172
 7708TIP3   OH223066   3.555   7.225   4.678
 7708TIP3    H123067   3.619   7.271   4.623
 7708TIP3    H223068   3.478   7.216   4.622
 7709TIP3   OH223069   3.818   4.683   4.807
 7709TIP3    H123070   3.896   4.700   4.859
 7709TIP3    H223071   3.757   4.641   4.868
 7710TIP3   OH223072   6.910   7.581   6.744
 7710TIP3    H123073   6.918   7.487   6.727
 7710TIP3    H223074   6.867   7.616   6.666
 7711TIP3   OH223075   8.126   7.093   1.391
 7711TIP3    H123076   8.151   7.012   1.347
 7711TIP3    H223077   8.052   7.126   1.340
 7712TIP3   OH223078   5.754   7.643   5.091
 7712TIP3    H123079   5.764   7.559   5.046
 7712TIP3    H223080   5.689   7.627   5.158
 7713TIP3   OH223081   5.242   5.481   4.989
 7713TIP3    H123082   5.191   5.473   5.069
 7713TIP3    H223083   5.333   5.489   5.019
 7714TIP3   OH223084   5.585   5.153   0.969
 7714TIP3    H123085   5.607   5.211   1.041
 7714TIP3    H223086   5.641   5.077   0.982
 7715TIP3   OH223087   0.249   6.890   4.682
 7715TIP3    H123088   0.321   6.936   4.639
 7715TIP3    H223089   0.204   6.845   4.610
 7716TIP3   OH223090   3.842   6.057   5.448
 7716TIP3    H123091   3.868   5.977   5.493
 7716TIP3    H223092   3.824   6.029   5.358
 7717TIP3   OH223093   1.886   4.685   1.329
 7717TIP3    H123094   1.858   4.599   1.297
 7717TIP3    H223095   1.913   4.733   1.251
 7718TIP3   OH223096   0.837   5.512   1.818
 7718TIP3    H123097   0.904   5.551   1.763
 7718TIP3    H223098   0.875   5.511   1.906
 7719TIP3   OH223099   1.459   6.501   3.407
 7719TIP3    H123100   1.539   6.548   3.383
 7719TIP3    H223101   1.411   6.493   3.324
 7720TIP3   OH223102   2.530   3.623   1.148
 7720TIP3    H123103   2.521   3.584   1.235
 7720TIP3    H223104   2.612   3.673   1.153
 7721TIP3   OH223105   5.695   4.527   1.546
 7721TIP3    H123106   5.759   4.548   1.478
 7721TIP3    H223107   5.740   4.545   1.628
 7722TIP3   OH223108   1.398   2.215   0.497
 7722TIP3    H123109   1.418   2.136   0.446
 7722TIP3    H223110   1.362   2.276   0.432
 7723TIP3   OH223111   7.655   1.011   3.835
 7723TIP3    H123112   7.741   0.989   3.800
 7723TIP3    H223113   7.618   1.073   3.772
 7724TIP3   OH223114   2.289   4.463   2.726
 7724TIP3    H123115   2.348   4.498   2.659
 7724TIP3    H223116   2.215   4.523   2.726
 7725TIP3   OH223117   6.786   3.927   3.405
 7725TIP3    H123118   6.815   3.855   3.460
 7725TIP3    H223119   6.847   3.927   3.331
 7726TIP3   OH223120   6.882   4.805   6.183
 7726TIP3    H123121   6.872   4.733   6.121
 7726TIP3    H223122   6.973   4.798   6.214
 7727TIP3   OH223123   7.314   2.848   2.093
 7727TIP3    H123124   7.299   2.777   2.031
 7727TIP3    H223125   7.232   2.855   2.141
 7728TIP3   OH223126   5.353   6.417   2.417
 7728TIP3    H123127   5.421   6.363   2.376
 7728TIP3    H223128   5.393   6.504   2.425
 7729TIP3   OH223129   1.401   5.770   1.264
 7729TIP3    H123130   1.423   5.756   1.172
 7729TIP3    H223131   1.473   5.823   1.298
 7730TIP3   OH223132   5.759   1.569   2.674
 7730TIP3    H123133   5.669   1.586   2.704
 7730TIP3    H223134   5.753   1.484   2.630
 7731TIP3   OH223135   1.487   2.927   2.712
 7731TIP3    H123136   1.445   3.001   2.756
 7731TIP3    H223137   1.452   2.850   2.757
 7732TIP3   OH223138   7.293   3.090   4.360
 7732TIP3    H123139   7.228   3.115   4.425
 7732TIP3    H223140   7.276   3.149   4.286
 7733TIP3   OH223141   1.635   3.588   6.117
 7733TIP3    H123142   1.673   3.675   6.107
 7733TIP3    H223143   1.596   3.588   6.204
 7734TIP3   OH223144   6.645   6.073   2.842
 7734TIP3    H123145   6.697   5.997   2.816
 7734TIP3    H223146   6.653   6.077   2.937
 7735TIP3   OH223147   6.473   3.768   5.960
 7735TIP3    H123148   6.411   3.715   5.911
 7735TIP3    H223149   6.555   3.762   5.910
 7736TIP3   OH223150   5.552   0.369   3.384
 7736TIP3    H123151   5.621   0.435   3.389
 7736TIP3    H223152   5.474   0.418   3.356
 7737TIP3   OH223153   6.882   3.523   2.086
 7737TIP3    H123154   6.891   3.434   2.052
 7737TIP3    H223155   6.962   3.538   2.137
 7738TIP3   OH223156   0.017   6.570   3.163
 7738TIP3    H123157  -0.031   6.653   3.153
 7738TIP3    H223158   0.069   6.564   3.082
 7739TIP3   OH223159   7.749   6.888   6.127
 7739TIP3    H123160   7.713   6.901   6.215
 7739TIP3    H223161   7.811   6.816   6.137
 7740TIP3   OH223162   1.209   3.526   1.286
 7740TIP3    H123163   1.139   3.500   1.346
 7740TIP3    H223164   1.167   3.523   1.199
 7741TIP3   OH223165   0.774   2.869   1.020
 7741TIP3    H123166   0.720   2.888   1.096
 7741TIP3    H223167   0.863   2.861   1.054
 7742TIP3   OH223168   0.076   1.079   0.957
 7742TIP3    H123169   0.094   1.156   0.903
 7742TIP3    H223170  -0.019   1.067   0.951
 7743TIP3   OH223171   5.994   1.766   4.890
 7743TIP3    H123172   6.038   1.827   4.830
 7743TIP3    H223173   6.048   1.688   4.888
 7744TIP3   OH223174   1.611   6.021   0.876
 7744TIP3    H123175   1.628   6.009   0.969
 7744TIP3    H223176   1.697   6.017   0.835
 7745TIP3   OH223177   7.829   6.238   4.299
 7745TIP3    H123178   7.851   6.221   4.390
 7745TIP3    H223179   7.737   6.265   4.301
 7746TIP3   OH223180   0.929   5.764   0.759
 7746TIP3    H123181   1.010   5.714   0.758
 7746TIP3    H223182   0.951   5.847   0.717
 7747TIP3   OH223183   0.527   4.308   2.304
 7747TIP3    H123184   0.582   4.379   2.269
 7747TIP3    H223185   0.467   4.352   2.364
 7748TIP3   OH223186   6.606   7.284   1.467
 7748TIP3    H123187   6.616   7.281   1.372
 7748TIP3    H223188   6.608   7.193   1.495
 7749TIP3   OH223189   3.189   5.920   5.566
 7749TIP3    H123190   3.113   5.944   5.618
 7749TIP3    H223191   3.250   5.881   5.629
 7750TIP3   OH223192   1.766   6.681   4.948
 7750TIP3    H123193   1.723   6.597   4.963
 7750TIP3    H223194   1.859   6.659   4.942
 7751TIP3   OH223195   7.028   3.608   2.562
 7751TIP3    H123196   7.025   3.601   2.658
 7751TIP3    H223197   7.028   3.518   2.532
 7752TIP3   OH223198   1.259   0.987   5.223
 7752TIP3    H123199   1.300   0.910   5.183
 7752TIP3    H223200   1.170   0.959   5.243
 7753TIP3   OH223201   5.655   2.789   5.043
 7753TIP3    H123202   5.630   2.770   5.133
 7753TIP3    H223203   5.579   2.832   5.005
 7754TIP3   OH223204   3.464   3.628   4.513
 7754TIP3    H123205   3.381   3.587   4.490
 7754TIP3    H223206   3.505   3.568   4.575
 7755TIP3   OH223207   6.268   4.253   2.787
 7755TIP3    H123208   6.187   4.266   2.837
 7755TIP3    H223209   6.240   4.253   2.696
 7756TIP3   OH223210   6.101   5.878   2.219
 7756TIP3    H123211   6.094   5.950   2.282
 7756TIP3    H223212   6.174   5.904   2.163
 7757TIP3   OH223213   7.465   1.941   4.300
 7757TIP3    H123214   7.425   1.981   4.223
 7757TIP3    H223215   7.549   1.906   4.268
 7758TIP3   OH223216   4.775   3.378   0.957
 7758TIP3    H123217   4.814   3.291   0.949
 7758TIP3    H223218   4.842   3.438   0.926
 7759TIP3   OH223219   1.977   4.630   0.077
 7759TIP3    H123220   1.885   4.616   0.057
 7759TIP3    H223221   1.981   4.718   0.113
 7760TIP3   OH223222   4.255   4.507   2.163
 7760TIP3    H123223   4.189   4.474   2.224
 7760TIP3    H223224   4.291   4.584   2.206
 7761TIP3   OH223225   0.866   2.555   1.832
 7761TIP3    H123226   0.885   2.513   1.916
 7761TIP3    H223227   0.949   2.552   1.785
 7762TIP3   OH223228   5.144   6.601   6.287
 7762TIP3    H123229   5.074   6.539   6.308
 7762TIP3    H223230   5.144   6.606   6.191
 7763TIP3   OH223231   5.791   5.406   0.532
 7763TIP3    H123232   5.702   5.410   0.566
 7763TIP3    H223233   5.808   5.493   0.497
 7764TIP3   OH223234   2.012   0.641   4.349
 7764TIP3    H123235   2.000   0.596   4.266
 7764TIP3    H223236   1.933   0.620   4.400
 7765TIP3   OH223237   3.708   1.353   6.522
 7765TIP3    H123238   3.708   1.342   6.617
 7765TIP3    H223239   3.686   1.267   6.487
 7766TIP3   OH223240   6.677   3.761   0.034
 7766TIP3    H123241   6.728   3.829   0.078
 7766TIP3    H223242   6.742   3.699   0.001
 7767TIP3   OH223243   5.931   4.569   0.453
 7767TIP3    H123244   5.877   4.509   0.403
 7767TIP3    H223245   6.016   4.525   0.460
 7768TIP3   OH223246   5.400   1.950   3.484
 7768TIP3    H123247   5.347   1.923   3.408
 7768TIP3    H223248   5.484   1.906   3.472
 7769TIP3   OH223249   3.161   4.691   3.347
 7769TIP3    H123250   3.174   4.653   3.260
 7769TIP3    H223251   3.068   4.674   3.366
 7770TIP3   OH223252   3.686   5.046   0.671
 7770TIP3    H123253   3.739   5.031   0.593
 7770TIP3    H223254   3.675   5.141   0.674
 7771TIP3   OH223255   2.641   6.639   5.886
 7771TIP3    H123256   2.674   6.681   5.965
 7771TIP3    H223257   2.546   6.641   5.896
 7772TIP3   OH223258   4.010   1.939   4.718
 7772TIP3    H123259   4.068   1.896   4.782
 7772TIP3    H223260   4.063   1.946   4.639
 7773TIP3   OH223261   7.795   3.056   4.284
 7773TIP3    H123262   7.833   3.116   4.220
 7773TIP3    H223263   7.701   3.067   4.275
 7774TIP3   OH223264   3.432   6.576   3.886
 7774TIP3    H123265   3.497   6.546   3.822
 7774TIP3    H223266   3.473   6.650   3.930
 7775TIP3   OH223267   6.013   2.714   2.970
 7775TIP3    H123268   5.956   2.713   3.047
 7775TIP3    H223269   6.095   2.675   3.001
 7776TIP3   OH223270   1.715   5.787   6.080
 7776TIP3    H123271   1.750   5.773   5.992
 7776TIP3    H223272   1.624   5.813   6.066
 7777TIP3   OH223273   1.196   0.069   6.735
 7777TIP3    H123274   1.147  -0.004   6.697
 7777TIP3    H223275   1.232   0.034   6.816
 7778TIP3   OH223276   4.656   1.491   3.245
 7778TIP3    H123277   4.737   1.440   3.232
 7778TIP3    H223278   4.609   1.481   3.162
 7779TIP3   OH223279   6.606   1.505   2.805
 7779TIP3    H123280   6.675   1.525   2.743
 7779TIP3    H223281   6.544   1.451   2.756
 7780TIP3   OH223282   3.473   3.584   3.526
 7780TIP3    H123283   3.546   3.631   3.487
 7780TIP3    H223284   3.501   3.492   3.527
 7781TIP3   OH223285   0.470   6.513   4.796
 7781TIP3    H123286   0.540   6.578   4.791
 7781TIP3    H223287   0.514   6.428   4.791
 7782TIP3   OH223288   1.343   4.932   0.976
 7782TIP3    H123289   1.258   4.955   1.015
 7782TIP3    H223290   1.404   4.997   1.011
 7783TIP3   OH223291   1.688   1.388   1.357
 7783TIP3    H123292   1.731   1.469   1.387
 7783TIP3    H223293   1.737   1.318   1.400
 7784TIP3   OH223294   3.115   3.771   1.850
 7784TIP3    H123295   3.036   3.818   1.823
 7784TIP3    H223296   3.083   3.690   1.890
 7785TIP3   OH223297   0.042   6.030   0.502
 7785TIP3    H123298   0.056   6.027   0.408
 7785TIP3    H223299  -0.053   6.024   0.512
 7786TIP3   OH223300   3.753   3.999   3.678
 7786TIP3    H123301   3.795   4.068   3.730
 7786TIP3    H223302   3.697   3.953   3.740
 7787TIP3   OH223303   8.295   0.872   1.478
 7787TIP3    H123304   8.210   0.901   1.444
 7787TIP3    H223305   8.326   0.947   1.530
 7788TIP3   OH223306   4.493   3.721   1.130
 7788TIP3    H123307   4.445   3.712   1.048
 7788TIP3    H223308   4.585   3.728   1.103
 7789TIP3   OH223309   4.149   6.783   6.680
 7789TIP3    H123310   4.238   6.751   6.689
 7789TIP3    H223311   4.115   6.738   6.602
 7790TIP3   OH223312   2.920   1.112   1.512
 7790TIP3    H123313   2.944   1.197   1.549
 7790TIP3    H223314   2.852   1.133   1.448
 7791TIP3   OH223315   2.885   2.786   1.639
 7791TIP3    H123316   2.890   2.715   1.703
 7791TIP3    H223317   2.793   2.787   1.611
 7792TIP3   OH223318   3.508   7.101   3.403
 7792TIP3    H123319   3.569   7.084   3.332
 7792TIP3    H223320   3.557   7.082   3.483
 7793TIP3   OH223321   1.698   7.814   1.222
 7793TIP3    H123322   1.610   7.779   1.213
 7793TIP3    H223323   1.727   7.830   1.132
 7794TIP3   OH223324   5.357   1.042   6.642
 7794TIP3    H123325   5.419   1.091   6.588
 7794TIP3    H223326   5.398   1.038   6.728
 7795TIP3   OH223327   2.613   3.622   4.981
 7795TIP3    H123328   2.555   3.560   4.937
 7795TIP3    H223329   2.699   3.581   4.976
 7796TIP3   OH223330   6.929   4.039   6.059
 7796TIP3    H123331   6.862   4.104   6.080
 7796TIP3    H223332   6.890   3.984   5.991
 7797TIP3   OH223333   6.777   2.634   3.121
 7797TIP3    H123334   6.810   2.545   3.136
 7797TIP3    H223335   6.829   2.666   3.047
 7798TIP3   OH223336   2.436   7.719   0.783
 7798TIP3    H123337   2.381   7.795   0.802
 7798TIP3    H223338   2.428   7.707   0.688
 7799TIP3   OH223339   4.451   7.260   5.007
 7799TIP3    H123340   4.524   7.210   4.970
 7799TIP3    H223341   4.484   7.292   5.091
 7800TIP3   OH223342   0.395   5.218   0.382
 7800TIP3    H123343   0.459   5.177   0.324
 7800TIP3    H223344   0.424   5.309   0.389
 7801TIP3   OH223345   7.659   2.780   3.723
 7801TIP3    H123346   7.680   2.737   3.806
 7801TIP3    H223347   7.734   2.761   3.666
 7802TIP3   OH223348   3.616   4.617   4.508
 7802TIP3    H123349   3.668   4.540   4.485
 7802TIP3    H223350   3.563   4.634   4.431
 7803TIP3   OH223351   2.394   7.811   2.181
 7803TIP3    H123352   2.346   7.821   2.099
 7803TIP3    H223353   2.444   7.731   2.170
 7804TIP3   OH223354   7.250   0.231   4.589
 7804TIP3    H123355   7.317   0.176   4.630
 7804TIP3    H223356   7.279   0.321   4.607
 7805TIP3   OH223357   7.964   2.380   0.162
 7805TIP3    H123358   7.989   2.432   0.238
 7805TIP3    H223359   7.963   2.290   0.193
 7806TIP3   OH223360   6.456   1.060   6.732
 7806TIP3    H123361   6.550   1.073   6.746
 7806TIP3    H223362   6.432   0.990   6.792
 7807TIP3   OH223363   4.558   5.263   0.886
 7807TIP3    H123364   4.549   5.303   0.799
 7807TIP3    H223365   4.594   5.333   0.941
 7808TIP3   OH223366   2.753   5.763   0.011
 7808TIP3    H123367   2.821   5.830   0.017
 7808TIP3    H223368   2.744   5.747  -0.083
 7809TIP3   OH223369   6.017   4.613   4.550
 7809TIP3    H123370   6.032   4.643   4.639
 7809TIP3    H223371   5.925   4.633   4.533
 7810TIP3   OH223372   6.057   2.859   1.100
 7810TIP3    H123373   6.050   2.953   1.081
 7810TIP3    H223374   5.980   2.820   1.057
 7811TIP3   OH223375   7.784   2.630   3.912
 7811TIP3    H123376   7.785   2.564   3.981
 7811TIP3    H223377   7.867   2.619   3.866
 7812TIP3   OH223378   4.979   6.444   1.354
 7812TIP3    H123379   4.896   6.447   1.306
 7812TIP3    H223380   5.040   6.399   1.294
 7813TIP3   OH223381   1.116   7.685   3.073
 7813TIP3    H123382   1.139   7.636   2.994
 7813TIP3    H223383   1.199   7.725   3.101
 7814TIP3   OH223384   7.468   3.220   3.615
 7814TIP3    H123385   7.480   3.158   3.687
 7814TIP3    H223386   7.557   3.241   3.586
 7815TIP3   OH223387   0.630   7.501   4.315
 7815TIP3    H123388   0.640   7.490   4.221
 7815TIP3    H223389   0.677   7.582   4.335
 7816TIP3   OH223390   1.628   4.735   2.889
 7816TIP3    H123391   1.693   4.730   2.959
 7816TIP3    H223392   1.662   4.678   2.820
 7817TIP3   OH223393   5.142   1.234   3.062
 7817TIP3    H123394   5.173   1.208   2.975
 7817TIP3    H223395   5.214   1.211   3.120
 7818TIP3   OH223396   7.696   4.835   0.371
 7818TIP3    H123397   7.779   4.791   0.357
 7818TIP3    H223398   7.640   4.770   0.413
 7819TIP3   OH223399   1.722   2.558   0.087
 7819TIP3    H123400   1.657   2.569   0.018
 7819TIP3    H223401   1.752   2.647   0.106
 7820TIP3   OH223402   1.053   1.550   3.906
 7820TIP3    H123403   1.066   1.579   3.815
 7820TIP3    H223404   1.098   1.617   3.958
 7821TIP3   OH223405   5.612   0.353   4.293
 7821TIP3    H123406   5.704   0.361   4.319
 7821TIP3    H223407   5.566   0.416   4.348
 7822TIP3   OH223408   6.093   4.640   3.956
 7822TIP3    H123409   6.165   4.579   3.940
 7822TIP3    H223410   6.015   4.584   3.963
 7823TIP3   OH223411   1.058   4.916   1.846
 7823TIP3    H123412   1.148   4.885   1.848
 7823TIP3    H223413   1.030   4.916   1.938
 7824TIP3   OH223414   1.603   0.634   3.757
 7824TIP3    H123415   1.605   0.718   3.803
 7824TIP3    H223416   1.538   0.646   3.688
 7825TIP3   OH223417   1.636   3.507   5.181
 7825TIP3    H123418   1.701   3.523   5.250
 7825TIP3    H223419   1.555   3.545   5.216
 7826TIP3   OH223420   0.457   2.214   6.040
 7826TIP3    H123421   0.472   2.136   6.094
 7826TIP3    H223422   0.502   2.285   6.087
 7827TIP3   OH223423   6.405   1.462   1.505
 7827TIP3    H123424   6.393   1.385   1.448
 7827TIP3    H223425   6.353   1.442   1.583
 7828TIP3   OH223426   7.169   5.583   2.745
 7828TIP3    H123427   7.264   5.596   2.745
 7828TIP3    H223428   7.157   5.490   2.763
 7829TIP3   OH223429   3.703   6.490   1.084
 7829TIP3    H123430   3.616   6.529   1.087
 7829TIP3    H223431   3.759   6.552   1.128
 7830TIP3   OH223432   7.837   2.572   1.167
 7830TIP3    H123433   7.921   2.551   1.209
 7830TIP3    H223434   7.861   2.627   1.092
 7831TIP3   OH223435   3.498   3.412   0.326
 7831TIP3    H123436   3.507   3.352   0.252
 7831TIP3    H223437   3.425   3.376   0.377
 7832TIP3   OH223438   0.787   6.601   2.917
 7832TIP3    H123439   0.715   6.662   2.932
 7832TIP3    H223440   0.746   6.514   2.920
 7833TIP3   OH223441   3.923   6.340   2.783
 7833TIP3    H123442   3.870   6.273   2.741
 7833TIP3    H223443   3.916   6.416   2.725
 7834TIP3   OH223444   0.612   7.042   2.427
 7834TIP3    H123445   0.578   6.982   2.493
 7834TIP3    H223446   0.537   7.061   2.371
 7835TIP3   OH223447   5.163   7.418   0.725
 7835TIP3    H123448   5.109   7.341   0.746
 7835TIP3    H223449   5.130   7.447   0.640
 7836TIP3   OH223450   7.989   1.936   1.015
 7836TIP3    H123451   8.004   2.018   1.063
 7836TIP3    H223452   7.908   1.951   0.966
 7837TIP3   OH223453   3.321   7.126   5.878
 7837TIP3    H123454   3.266   7.144   5.802
 7837TIP3    H223455   3.392   7.189   5.872
 7838TIP3   OH223456   7.807   4.577   3.449
 7838TIP3    H123457   7.826   4.665   3.417
 7838TIP3    H223458   7.874   4.562   3.517
 7839TIP3   OH223459   1.963   4.749   4.895
 7839TIP3    H123460   2.024   4.813   4.859
 7839TIP3    H223461   2.008   4.713   4.972
 7840TIP3   OH223462   3.180   5.534   1.669
 7840TIP3    H123463   3.130   5.600   1.718
 7840TIP3    H223464   3.268   5.537   1.709
 7841TIP3   OH223465   4.450   3.505   4.237
 7841TIP3    H123466   4.412   3.425   4.202
 7841TIP3    H223467   4.524   3.524   4.179
 7842TIP3   OH223468   2.741   0.449   3.356
 7842TIP3    H123469   2.820   0.395   3.357
 7842TIP3    H223470   2.671   0.391   3.385
 7843TIP3   OH223471   7.806   3.223   5.082
 7843TIP3    H123472   7.880   3.168   5.056
 7843TIP3    H223473   7.764   3.174   5.152
 7844TIP3   OH223474   7.026   7.068   3.800
 7844TIP3    H123475   7.109   7.091   3.841
 7844TIP3    H223476   6.968   7.142   3.819
 7845TIP3   OH223477   8.035   7.587   1.251
 7845TIP3    H123478   8.006   7.669   1.209
 7845TIP3    H223479   8.074   7.615   1.334
 7846TIP3   OH223480   4.355   4.556   3.022
 7846TIP3    H123481   4.369   4.463   3.041
 7846TIP3    H223482   4.260   4.568   3.030
 7847TIP3   OH223483   1.411   4.563   0.456
 7847TIP3    H123484   1.419   4.657   0.438
 7847TIP3    H223485   1.493   4.539   0.499
 7848TIP3   OH223486   0.472   1.010   6.126
 7848TIP3    H123487   0.492   1.083   6.068
 7848TIP3    H223488   0.446   0.939   6.068
 7849TIP3   OH223489   1.968   1.855   1.025
 7849TIP3    H123490   1.915   1.929   0.996
 7849TIP3    H223491   1.908   1.781   1.028
 7850TIP3   OH223492   4.587   2.704   3.676
 7850TIP3    H123493   4.524   2.637   3.649
 7850TIP3    H223494   4.617   2.676   3.763
 7851TIP3   OH223495   7.921   4.997   0.071
 7851TIP3    H123496   7.875   4.916   0.050
 7851TIP3    H223497   7.974   5.015  -0.007
 7852TIP3   OH223498   3.460   7.036   3.060
 7852TIP3    H123499   3.503   7.120   3.075
 7852TIP3    H223500   3.519   6.971   3.100
 7853TIP3   OH223501   4.271   4.104   1.260
 7853TIP3    H123502   4.217   4.089   1.337
 7853TIP3    H223503   4.332   4.029   1.259
 7854TIP3   OH223504   0.360   4.747   4.378
 7854TIP3    H123505   0.407   4.771   4.457
 7854TIP3    H223506   0.278   4.796   4.383
 7855TIP3   OH223507   6.309   0.238   0.681
 7855TIP3    H123508   6.277   0.226   0.770
 7855TIP3    H223509   6.337   0.330   0.678
 7856TIP3   OH223510   4.151   4.284   5.677
 7856TIP3    H123511   4.202   4.363   5.660
 7856TIP3    H223512   4.060   4.314   5.682
 7857TIP3   OH223513   1.740   5.575   4.541
 7857TIP3    H123514   1.824   5.619   4.552
 7857TIP3    H223515   1.748   5.527   4.459
 7858TIP3   OH223516   7.021   3.904   1.238
 7858TIP3    H123517   6.939   3.900   1.190
 7858TIP3    H223518   7.031   3.996   1.262
 7859TIP3   OH223519   7.317   5.718   2.134
 7859TIP3    H123520   7.286   5.807   2.152
 7859TIP3    H223521   7.397   5.730   2.083
 7860TIP3   OH223522   4.842   1.653   6.147
 7860TIP3    H123523   4.906   1.634   6.079
 7860TIP3    H223524   4.866   1.741   6.178
 7861TIP3   OH223525   8.092   5.891   6.682
 7861TIP3    H123526   8.028   5.962   6.683
 7861TIP3    H223527   8.154   5.915   6.613
 7862TIP3   OH223528   6.820   4.206   5.459
 7862TIP3    H123529   6.868   4.283   5.426
 7862TIP3    H223530   6.869   4.131   5.424
 7863TIP3   OH223531   6.199   1.148   4.838
 7863TIP3    H123532   6.240   1.194   4.911
 7863TIP3    H223533   6.239   1.186   4.760
 7864TIP3   OH223534   6.046   3.647   5.556
 7864TIP3    H123535   6.123   3.598   5.526
 7864TIP3    H223536   6.005   3.679   5.476
 7865TIP3   OH223537   5.025   2.774   2.115
 7865TIP3    H123538   4.964   2.828   2.166
 7865TIP3    H223539   5.004   2.684   2.141
 7866TIP3   OH223540   6.557   4.531   4.794
 7866TIP3    H123541   6.579   4.454   4.741
 7866TIP3    H223542   6.574   4.504   4.884
 7867TIP3   OH223543   2.605   1.306   1.656
 7867TIP3    H123544   2.611   1.215   1.626
 7867TIP3    H223545   2.636   1.358   1.581
 7868TIP3   OH223546   1.620   6.840   6.533
 7868TIP3    H123547   1.554   6.780   6.566
 7868TIP3    H223548   1.691   6.835   6.597
 7869TIP3   OH223549   8.005   0.122   5.317
 7869TIP3    H123550   8.083   0.069   5.302
 7869TIP3    H223551   7.975   0.095   5.404
 7870TIP3   OH223552   4.826   2.401   3.557
 7870TIP3    H123553   4.779   2.484   3.561
 7870TIP3    H223554   4.767   2.339   3.600
 7871TIP3   OH223555   3.035   6.410   1.477
 7871TIP3    H123556   3.041   6.375   1.388
 7871TIP3    H223557   3.021   6.504   1.464
 7872TIP3   OH223558   2.178   6.946   6.628
 7872TIP3    H123559   2.185   6.952   6.533
 7872TIP3    H223560   2.262   6.910   6.656
 7873TIP3   OH223561   1.661   6.657   6.034
 7873TIP3    H123562   1.600   6.710   5.983
 7873TIP3    H223563   1.689   6.716   6.105
 7874TIP3   OH223564   3.128   3.217   4.941
 7874TIP3    H123565   3.035   3.206   4.921
 7874TIP3    H223566   3.161   3.128   4.950
 7875TIP3   OH223567   0.864   0.435   1.673
 7875TIP3    H123568   0.834   0.525   1.684
 7875TIP3    H223569   0.783   0.383   1.670
 7876TIP3   OH223570   5.120   5.281   6.740
 7876TIP3    H123571   5.215   5.278   6.732
 7876TIP3    H223572   5.088   5.218   6.675
 7877TIP3   OH223573   7.381   0.275   1.875
 7877TIP3    H123574   7.364   0.347   1.936
 7877TIP3    H223575   7.477   0.270   1.870
 7878TIP3   OH223576   4.958   0.143   3.963
 7878TIP3    H123577   4.953   0.159   4.057
 7878TIP3    H223578   4.972   0.230   3.925
 7879TIP3   OH223579   0.927   4.944   1.282
 7879TIP3    H123580   0.936   5.031   1.320
 7879TIP3    H223581   0.932   4.885   1.357
 7880TIP3   OH223582   3.710   1.836   1.187
 7880TIP3    H123583   3.700   1.930   1.174
 7880TIP3    H223584   3.668   1.819   1.272
 7881TIP3   OH223585   7.362   5.200   0.498
 7881TIP3    H123586   7.434   5.147   0.464
 7881TIP3    H223587   7.353   5.172   0.590
 7882TIP3   OH223588   2.230   4.984   2.377
 7882TIP3    H123589   2.203   5.026   2.295
 7882TIP3    H223590   2.158   5.002   2.438
 7883TIP3   OH223591   3.709   4.595   3.211
 7883TIP3    H123592   3.646   4.657   3.247
 7883TIP3    H223593   3.671   4.509   3.230
 7884TIP3   OH223594   8.259   3.343   3.545
 7884TIP3    H123595   8.305   3.295   3.614
 7884TIP3    H223596   8.253   3.280   3.473
 7885TIP3   OH223597   5.977   2.307   1.576
 7885TIP3    H123598   6.054   2.273   1.530
 7885TIP3    H223599   5.983   2.402   1.565
 7886TIP3   OH223600   4.412   4.480   2.754
 7886TIP3    H123601   4.393   4.511   2.843
 7886TIP3    H223602   4.461   4.399   2.768
 7887TIP3   OH223603   4.465   6.208   2.054
 7887TIP3    H123604   4.504   6.136   2.005
 7887TIP3    H223605   4.456   6.173   2.143
 7888TIP3   OH223606   3.068   3.824   1.243
 7888TIP3    H123607   3.046   3.890   1.309
 7888TIP3    H223608   3.020   3.851   1.165
 7889TIP3   OH223609   0.987   6.049   3.809
 7889TIP3    H123610   0.935   6.036   3.730
 7889TIP3    H223611   1.035   5.967   3.820
 7890TIP3   OH223612   0.567   4.635   4.249
 7890TIP3    H123613   0.485   4.652   4.295
 7890TIP3    H223614   0.621   4.587   4.312
 7891TIP3   OH223615   4.908   4.180   2.326
 7891TIP3    H123616   4.848   4.165   2.254
 7891TIP3    H223617   4.904   4.275   2.341
 7892TIP3   OH223618   2.804   4.125   3.248
 7892TIP3    H123619   2.717   4.155   3.220
 7892TIP3    H223620   2.833   4.069   3.176
 7893TIP3   OH223621   3.585   3.554   2.272
 7893TIP3    H123622   3.627   3.476   2.308
 7893TIP3    H223623   3.608   3.623   2.333
 7894TIP3   OH223624   6.930   4.450   6.258
 7894TIP3    H123625   6.920   4.471   6.165
 7894TIP3    H223626   6.840   4.440   6.290
 7895TIP3   OH223627   6.953   1.291   2.722
 7895TIP3    H123628   6.943   1.236   2.800
 7895TIP3    H223629   7.033   1.340   2.737
 7896TIP3   OH223630   6.261   5.898   3.968
 7896TIP3    H123631   6.209   5.839   4.023
 7896TIP3    H223632   6.262   5.855   3.882
 7897TIP3   OH223633   4.676   2.836   0.119
 7897TIP3    H123634   4.741   2.889   0.165
 7897TIP3    H223635   4.595   2.886   0.126
 7898TIP3   OH223636   2.506   5.457   6.195
 7898TIP3    H123637   2.554   5.451   6.113
 7898TIP3    H223638   2.453   5.536   6.187
 7899TIP3   OH223639   2.076   4.823   5.976
 7899TIP3    H123640   2.115   4.735   5.980
 7899TIP3    H223641   2.011   4.823   6.046
 7900TIP3   OH223642   0.669   5.491   0.202
 7900TIP3    H123643   0.758   5.519   0.177
 7900TIP3    H223644   0.681   5.448   0.286
 7901TIP3   OH223645   1.266   6.666   4.751
 7901TIP3    H123646   1.260   6.742   4.809
 7901TIP3    H223647   1.359   6.644   4.749
 7902TIP3   OH223648   5.059   5.762   6.465
 7902TIP3    H123649   5.051   5.825   6.393
 7902TIP3    H223650   5.111   5.807   6.531
 7903TIP3   OH223651   8.085   0.229   6.646
 7903TIP3    H123652   8.166   0.259   6.687
 7903TIP3    H223653   8.016   0.263   6.702
 7904TIP3   OH223654   0.626   1.719   1.127
 7904TIP3    H123655   0.577   1.782   1.075
 7904TIP3    H223656   0.669   1.772   1.195
 7905TIP3   OH223657   5.928   6.413   1.143
 7905TIP3    H123658   5.967   6.486   1.094
 7905TIP3    H223659   5.926   6.341   1.081
 7906TIP3   OH223660   2.841   1.961   6.140
 7906TIP3    H123661   2.778   1.889   6.148
 7906TIP3    H223662   2.910   1.926   6.083
 7907TIP3   OH223663   5.637   3.353   1.381
 7907TIP3    H123664   5.701   3.423   1.371
 7907TIP3    H223665   5.655   3.316   1.468
 7908TIP3   OH223666   2.209   5.392   4.069
 7908TIP3    H123667   2.256   5.474   4.083
 7908TIP3    H223668   2.262   5.326   4.113
 7909TIP3   OH223669   1.380   0.920   6.068
 7909TIP3    H123670   1.433   0.977   6.013
 7909TIP3    H223671   1.348   0.852   6.009
 7910TIP3   OH223672   0.579   4.980   5.253
 7910TIP3    H123673   0.592   4.885   5.242
 7910TIP3    H223674   0.484   4.992   5.246
 7911TIP3   OH223675   2.345   0.160   5.962
 7911TIP3    H123676   2.424   0.164   6.016
 7911TIP3    H223677   2.272   0.165   6.024
 7912TIP3   OH223678   0.372   3.580   3.280
 7912TIP3    H123679   0.315   3.577   3.357
 7912TIP3    H223680   0.315   3.554   3.207
 7913TIP3   OH223681   1.451   3.412   3.740
 7913TIP3    H123682   1.403   3.406   3.658
 7913TIP3    H223683   1.490   3.326   3.752
 7914TIP3   OH223684   6.741   3.696   2.889
 7914TIP3    H123685   6.826   3.652   2.878
 7914TIP3    H223686   6.723   3.734   2.803
 7915TIP3   OH223687   2.324   3.706   1.879
 7915TIP3    H123688   2.279   3.715   1.795
 7915TIP3    H223689   2.368   3.621   1.874
 7916TIP3   OH223690   0.325   6.128   4.777
 7916TIP3    H123691   0.285   6.048   4.742
 7916TIP3    H223692   0.332   6.111   4.871
 7917TIP3   OH223693   6.849   2.078   3.048
 7917TIP3    H123694   6.932   2.056   3.091
 7917TIP3    H223695   6.861   2.049   2.958
 7918TIP3   OH223696   3.775   0.767   2.325
 7918TIP3    H123697   3.756   0.678   2.354
 7918TIP3    H223698   3.852   0.758   2.270
 7919TIP3   OH223699   3.882   7.207   0.867
 7919TIP3    H123700   3.839   7.133   0.825
 7919TIP3    H223701   3.975   7.185   0.864
 7920TIP3   OH223702   2.355   2.610   4.153
 7920TIP3    H123703   2.262   2.586   4.149
 7920TIP3    H223704   2.386   2.600   4.062
 7921TIP3   OH223705   1.604   7.341   4.015
 7921TIP3    H123706   1.639   7.252   4.003
 7921TIP3    H223707   1.665   7.382   4.077
 7922TIP3   OH223708   1.718   2.018   4.472
 7922TIP3    H123709   1.635   1.970   4.477
 7922TIP3    H223710   1.714   2.063   4.388
 7923TIP3   OH223711   0.434   5.218   2.956
 7923TIP3    H123712   0.401   5.296   3.000
 7923TIP3    H223713   0.361   5.189   2.901
 7924TIP3   OH223714   4.587   7.741   5.039
 7924TIP3    H123715   4.583   7.834   5.017
 7924TIP3    H223716   4.527   7.699   4.977
 7925TIP3   OH223717   3.491   2.766   6.174
 7925TIP3    H123718   3.576   2.748   6.215
 7925TIP3    H223719   3.489   2.860   6.161
 7926TIP3   OH223720   8.077   3.608   2.481
 7926TIP3    H123721   8.019   3.541   2.446
 7926TIP3    H223722   8.159   3.563   2.500
 7927TIP3   OH223723   6.405   0.374   5.161
 7927TIP3    H123724   6.365   0.308   5.105
 7927TIP3    H223725   6.354   0.370   5.242
 7928TIP3   OH223726   0.227   0.631   3.148
 7928TIP3    H123727   0.166   0.566   3.114
 7928TIP3    H223728   0.266   0.670   3.070
 7929TIP3   OH223729   3.620   4.056   5.579
 7929TIP3    H123730   3.544   4.106   5.608
 7929TIP3    H223731   3.585   3.996   5.513
 7930TIP3   OH223732   7.083   6.459   2.925
 7930TIP3    H123733   7.049   6.542   2.958
 7930TIP3    H223734   7.144   6.429   2.994
 7931TIP3   OH223735   0.125   7.096   4.875
 7931TIP3    H123736   0.148   7.027   4.814
 7931TIP3    H223737   0.146   7.060   4.961
 7932TIP3   OH223738   5.862   3.243   3.911
 7932TIP3    H123739   5.913   3.309   3.958
 7932TIP3    H223740   5.799   3.210   3.975
 7933TIP3   OH223741   7.805   3.798   5.906
 7933TIP3    H123742   7.748   3.759   5.973
 7933TIP3    H223743   7.759   3.781   5.823
 7934TIP3   OH223744   1.910   1.509   4.757
 7934TIP3    H123745   2.004   1.501   4.772
 7934TIP3    H223746   1.872   1.506   4.845
 7935TIP3   OH223747   4.690   2.079   0.513
 7935TIP3    H123748   4.628   2.125   0.456
 7935TIP3    H223749   4.642   2.065   0.594
 7936TIP3   OH223750   0.573   4.873   5.926
 7936TIP3    H123751   0.540   4.849   5.839
 7936TIP3    H223752   0.668   4.872   5.916
 7937TIP3   OH223753   7.509   6.326   5.473
 7937TIP3    H123754   7.594   6.285   5.460
 7937TIP3    H223755   7.476   6.342   5.385
 7938TIP3   OH223756   0.245   3.746   2.244
 7938TIP3    H123757   0.273   3.774   2.331
 7938TIP3    H223758   0.327   3.727   2.198
 7939TIP3   OH223759   4.495   5.302   5.078
 7939TIP3    H123760   4.454   5.375   5.124
 7939TIP3    H223761   4.506   5.333   4.988
 7940TIP3   OH223762   0.177   2.927   6.681
 7940TIP3    H123763   0.269   2.900   6.682
 7940TIP3    H223764   0.171   2.994   6.749
 7941TIP3   OH223765   7.271   4.666   4.938
 7941TIP3    H123766   7.314   4.598   4.886
 7941TIP3    H223767   7.300   4.649   5.028
 7942TIP3   OH223768   2.183   0.473   3.684
 7942TIP3    H123769   2.158   0.383   3.706
 7942TIP3    H223770   2.153   0.485   3.594
 7943TIP3   OH223771   6.615   6.314   6.543
 7943TIP3    H123772   6.595   6.261   6.465
 7943TIP3    H223773   6.594   6.256   6.617
 7944TIP3   OH223774   4.553   7.800   3.314
 7944TIP3    H123775   4.576   7.753   3.395
 7944TIP3    H223776   4.630   7.854   3.296
 7945TIP3   OH223777   3.759   2.068   0.578
 7945TIP3    H123778   3.830   2.055   0.640
 7945TIP3    H223779   3.787   2.024   0.498
 7946TIP3   OH223780   5.938   4.253   3.255
 7946TIP3    H123781   6.002   4.313   3.216
 7946TIP3    H223782   5.928   4.184   3.190
 7947TIP3   OH223783   2.122   4.200   5.276
 7947TIP3    H123784   2.118   4.291   5.307
 7947TIP3    H223785   2.114   4.206   5.181
 7948TIP3   OH223786   7.100   0.188   5.663
 7948TIP3    H123787   7.142   0.233   5.736
 7948TIP3    H223788   7.097   0.096   5.689
 7949TIP3   OH223789   6.929   3.027   5.460
 7949TIP3    H123790   6.992   2.959   5.486
 7949TIP3    H223791   6.868   3.032   5.533
 7950TIP3   OH223792   4.568   2.928   5.837
 7950TIP3    H123793   4.592   2.915   5.745
 7950TIP3    H223794   4.509   3.003   5.835
 7951TIP3   OH223795   0.749   6.296   3.256
 7951TIP3    H123796   0.842   6.311   3.236
 7951TIP3    H223797   0.724   6.373   3.308
 7952TIP3   OH223798   1.097   0.379   3.209
 7952TIP3    H123799   1.133   0.403   3.124
 7952TIP3    H223800   1.043   0.454   3.234
 7953TIP3   OH223801   7.595   0.452   6.686
 7953TIP3    H123802   7.661   0.521   6.676
 7953TIP3    H223803   7.548   0.475   6.766
 7954TIP3   OH223804   7.495   2.639   6.697
 7954TIP3    H123805   7.406   2.618   6.727
 7954TIP3    H223806   7.492   2.626   6.602
 7955TIP3   OH223807   2.924   0.239   0.491
 7955TIP3    H123808   2.925   0.170   0.424
 7955TIP3    H223809   3.016   0.263   0.503
 7956TIP3   OH223810   1.206   1.947   3.769
 7956TIP3    H123811   1.277   2.007   3.747
 7956TIP3    H223812   1.141   1.961   3.701
 7957TIP3   OH223813   4.708   2.382   4.007
 7957TIP3    H123814   4.634   2.333   3.970
 7957TIP3    H223815   4.706   2.360   4.101
 7958TIP3   OH223816   1.962   1.259   6.729
 7958TIP3    H123817   1.879   1.213   6.715
 7958TIP3    H223818   1.966   1.323   6.657
 7959TIP3   OH223819   2.997   2.374   1.459
 7959TIP3    H123820   2.918   2.389   1.512
 7959TIP3    H223821   3.044   2.457   1.462
 7960TIP3   OH223822   4.839   0.525   0.386
 7960TIP3    H123823   4.934   0.520   0.387
 7960TIP3    H223824   4.813   0.510   0.477
 7961TIP3   OH223825   1.943   6.166   2.338
 7961TIP3    H123826   1.904   6.079   2.345
 7961TIP3    H223827   1.914   6.212   2.417
 7962TIP3   OH223828   2.054   6.746   4.314
 7962TIP3    H123829   2.084   6.824   4.361
 7962TIP3    H223830   2.132   6.713   4.270
 7963TIP3   OH223831   2.473   1.906   5.049
 7963TIP3    H123832   2.407   1.845   5.016
 7963TIP3    H223833   2.556   1.875   5.011
 7964TIP3   OH223834   1.088   2.854   1.142
 7964TIP3    H123835   1.028   2.798   1.191
 7964TIP3    H223836   1.149   2.793   1.099
 7965TIP3   OH223837   0.637   0.235   0.795
 7965TIP3    H123838   0.654   0.326   0.819
 7965TIP3    H223839   0.614   0.193   0.878
 7966TIP3   OH223840   5.843   6.529   4.263
 7966TIP3    H123841   5.811   6.617   4.285
 7966TIP3    H223842   5.831   6.523   4.168
 7967TIP3   OH223843   1.156   7.553   1.541
 7967TIP3    H123844   1.120   7.589   1.460
 7967TIP3    H223845   1.178   7.462   1.518
 7968TIP3   OH223846   3.232   4.746   6.081
 7968TIP3    H123847   3.238   4.732   5.987
 7968TIP3    H223848   3.163   4.686   6.110
 7969TIP3   OH223849   4.202   0.936   0.760
 7969TIP3    H123850   4.112   0.926   0.728
 7969TIP3    H223851   4.233   1.018   0.721
 7970TIP3   OH223852   0.638   4.454   2.068
 7970TIP3    H123853   0.734   4.449   2.065
 7970TIP3    H223854   0.619   4.519   2.134
 7971TIP3   OH223855   4.935   6.420   1.884
 7971TIP3    H123856   4.849   6.463   1.894
 7971TIP3    H223857   4.970   6.457   1.803
 7972TIP3   OH223858   0.910   5.163   3.086
 7972TIP3    H123859   0.954   5.212   3.156
 7972TIP3    H223860   0.846   5.225   3.050
 7973TIP3   OH223861   5.253   5.142   2.397
 7973TIP3    H123862   5.214   5.229   2.386
 7973TIP3    H223863   5.318   5.135   2.328
 7974TIP3   OH223864   1.590   0.231   6.432
 7974TIP3    H123865   1.632   0.295   6.375
 7974TIP3    H223866   1.500   0.227   6.400
 7975TIP3   OH223867   2.111   4.564   6.012
 7975TIP3    H123868   2.181   4.579   6.075
 7975TIP3    H223869   2.112   4.469   5.996
 7976TIP3   OH223870   1.990   5.665   4.653
 7976TIP3    H123871   1.967   5.747   4.697
 7976TIP3    H223872   2.019   5.607   4.723
 7977TIP3   OH223873   4.192   6.482   2.829
 7977TIP3    H123874   4.192   6.446   2.918
 7977TIP3    H223875   4.244   6.562   2.836
 7978TIP3   OH223876   1.989   5.433   5.066
 7978TIP3    H123877   1.984   5.338   5.050
 7978TIP3    H223878   1.898   5.463   5.055
 7979TIP3   OH223879   7.310   0.783   3.927
 7979TIP3    H123880   7.320   0.872   3.894
 7979TIP3    H223881   7.283   0.731   3.851
 7980TIP3   OH223882   0.318   1.295   1.511
 7980TIP3    H123883   0.351   1.344   1.587
 7980TIP3    H223884   0.381   1.224   1.500
 7981TIP3   OH223885   4.453   6.836   2.118
 7981TIP3    H123886   4.406   6.768   2.070
 7981TIP3    H223887   4.537   6.796   2.139
 7982TIP3   OH223888   7.770   3.401   2.608
 7982TIP3    H123889   7.780   3.479   2.662
 7982TIP3    H223890   7.797   3.329   2.664
 7983TIP3   OH223891   0.590   2.505   4.124
 7983TIP3    H123892   0.539   2.585   4.136
 7983TIP3    H223893   0.564   2.473   4.037
 7984TIP3   OH223894   6.924   0.503   0.519
 7984TIP3    H123895   6.835   0.502   0.552
 7984TIP3    H223896   6.917   0.470   0.430
 7985TIP3   OH223897   7.830   2.244   3.451
 7985TIP3    H123898   7.749   2.292   3.437
 7985TIP3    H223899   7.888   2.306   3.495
 7986TIP3   OH223900   1.807   1.432   4.268
 7986TIP3    H123901   1.740   1.365   4.279
 7986TIP3    H223902   1.882   1.386   4.231
 7987TIP3   OH223903   0.006   6.198   5.787
 7987TIP3    H123904   0.080   6.205   5.848
 7987TIP3    H223905  -0.071   6.208   5.843
 7988TIP3   OH223906   0.231   5.389   0.992
 7988TIP3    H123907   0.269   5.412   0.907
 7988TIP3    H223908   0.137   5.403   0.981
 7989TIP3   OH223909   3.427   1.763   5.430
 7989TIP3    H123910   3.417   1.760   5.335
 7989TIP3    H223911   3.459   1.676   5.453
 7990TIP3   OH223912   4.163   1.740   4.908
 7990TIP3    H123913   4.165   1.677   4.836
 7990TIP3    H223914   4.237   1.798   4.891
 7991TIP3   OH223915   0.073   3.232   3.786
 7991TIP3    H123916   0.104   3.149   3.822
 7991TIP3    H223917   0.145   3.293   3.804
 7992TIP3   OH223918   8.191   3.511   4.329
 7992TIP3    H123919   8.128   3.495   4.398
 7992TIP3    H223920   8.199   3.428   4.282
 7993TIP3   OH223921   4.578   6.515   3.892
 7993TIP3    H123922   4.580   6.590   3.951
 7993TIP3    H223923   4.500   6.466   3.918
 7994TIP3   OH223924   0.849   3.462   1.835
 7994TIP3    H123925   0.933   3.508   1.826
 7994TIP3    H223926   0.829   3.469   1.929
 7995TIP3   OH223927   2.284   4.402   2.127
 7995TIP3    H123928   2.241   4.468   2.180
 7995TIP3    H223929   2.376   4.405   2.154
 7996TIP3   OH223930   6.908   3.565   3.248
 7996TIP3    H123931   6.887   3.654   3.220
 7996TIP3    H223932   6.859   3.554   3.329
 7997TIP3   OH223933   1.338   2.282   4.907
 7997TIP3    H123934   1.331   2.292   4.811
 7997TIP3    H223935   1.401   2.212   4.920
 7998TIP3   OH223936   6.653   2.561   0.924
 7998TIP3    H123937   6.631   2.589   0.835
 7998TIP3    H223938   6.727   2.501   0.912
 7999TIP3   OH223939   2.183   6.437   5.705
 7999TIP3    H123940   2.204   6.355   5.659
 7999TIP3    H223941   2.087   6.440   5.705
 8000TIP3   OH223942   2.385   0.672   5.465
 8000TIP3    H123943   2.321   0.724   5.418
 8000TIP3    H223944   2.424   0.616   5.399
 8001TIP3   OH223945   1.399   0.856   3.182
 8001TIP3    H123946   1.375   0.880   3.092
 8001TIP3    H223947   1.319   0.818   3.219
 8002TIP3   OH223948   6.878   5.012   2.941
 8002TIP3    H123949   6.921   5.080   2.993
 8002TIP3    H223950   6.799   4.991   2.990
 8003TIP3   OH223951   2.020   3.166   3.591
 8003TIP3    H123952   2.017   3.199   3.680
 8003TIP3    H223953   2.075   3.228   3.544
 8004TIP3   OH223954   5.039   4.767   1.523
 8004TIP3    H123955   4.995   4.694   1.479
 8004TIP3    H223956   4.997   4.772   1.609
 8005TIP3   OH223957   2.311   7.252   2.212
 8005TIP3    H123958   2.258   7.235   2.134
 8005TIP3    H223959   2.290   7.180   2.271
 8006TIP3   OH223960   4.525   4.111   6.608
 8006TIP3    H123961   4.597   4.147   6.660
 8006TIP3    H223962   4.475   4.188   6.579
 8007TIP3   OH223963   1.087   2.204   2.088
 8007TIP3    H123964   1.171   2.219   2.132
 8007TIP3    H223965   1.105   2.134   2.026
 8008TIP3   OH223966   1.694   6.816   2.040
 8008TIP3    H123967   1.625   6.768   2.085
 8008TIP3    H223968   1.658   6.834   1.953
 8009TIP3   OH223969   7.214   0.399   6.601
 8009TIP3    H123970   7.161   0.420   6.678
 8009TIP3    H223971   7.158   0.421   6.527
 8010TIP3   OH223972   6.125   5.481   0.853
 8010TIP3    H123973   6.042   5.466   0.898
 8010TIP3    H223974   6.191   5.455   0.916
 8011TIP3   OH223975   3.489   1.380   3.552
 8011TIP3    H123976   3.402   1.350   3.526
 8011TIP3    H223977   3.502   1.461   3.503
 8012TIP3   OH223978   4.540   2.803   4.403
 8012TIP3    H123979   4.458   2.849   4.423
 8012TIP3    H223980   4.562   2.832   4.314
 8013TIP3   OH223981   8.216   1.446   1.096
 8013TIP3    H123982   8.248   1.536   1.105
 8013TIP3    H223983   8.135   1.444   1.148
 8014TIP3   OH223984   2.691   3.736   1.963
 8014TIP3    H123985   2.754   3.713   2.031
 8014TIP3    H223986   2.638   3.657   1.952
 8015TIP3   OH223987   3.324   2.728   4.686
 8015TIP3    H123988   3.325   2.787   4.610
 8015TIP3    H223989   3.405   2.678   4.678
 8016TIP3   OH223990   4.612   4.430   0.716
 8016TIP3    H123991   4.706   4.447   0.721
 8016TIP3    H223992   4.605   4.335   0.712
 8017TIP3   OH223993   2.626   1.834   1.595
 8017TIP3    H123994   2.531   1.832   1.608
 8017TIP3    H223995   2.662   1.829   1.684
 8018TIP3   OH223996   2.064   0.207   3.232
 8018TIP3    H123997   2.031   0.221   3.143
 8018TIP3    H223998   2.147   0.162   3.220
 8019TIP3   OH223999   0.633   3.738   2.813
 8019TIP3    H124000   0.715   3.786   2.807
 8019TIP3    H224001   0.615   3.732   2.907
 8020TIP3   OH224002   2.692   3.599   5.282
 8020TIP3    H124003   2.734   3.550   5.212
 8020TIP3    H224004   2.626   3.653   5.238
 8021TIP3   OH224005   3.977   2.925   3.876
 8021TIP3    H124006   3.942   2.972   3.953
 8021TIP3    H224007   4.043   2.984   3.841
 8022TIP3   OH224008   2.670   3.690   0.066
 8022TIP3    H124009   2.698   3.780   0.084
 8022TIP3    H224010   2.577   3.699   0.044
 8023TIP3   OH224011   5.035   0.222   6.232
 8023TIP3    H124012   4.948   0.186   6.211
 8023TIP3    H224013   5.018   0.314   6.253
 8024TIP3   OH224014   1.008   6.425   5.745
 8024TIP3    H124015   0.978   6.382   5.825
 8024TIP3    H224016   1.103   6.418   5.748
 8025TIP3   OH224017   6.000   5.253   1.338
 8025TIP3    H124018   5.950   5.335   1.343
 8025TIP3    H224019   5.952   5.199   1.275
 8026TIP3   OH224020   3.331   4.607   3.568
 8026TIP3    H124021   3.278   4.661   3.509
 8026TIP3    H224022   3.354   4.531   3.514
 8027TIP3   OH224023   0.010   5.188   6.725
 8027TIP3    H124024   0.062   5.252   6.775
 8027TIP3    H224025   0.074   5.141   6.672
 8028TIP3   OH224026   1.100   4.018   5.154
 8028TIP3    H124027   1.008   4.042   5.166
 8028TIP3    H224028   1.145   4.101   5.142
 8029TIP3   OH224029   1.099   1.318   2.778
 8029TIP3    H124030   1.090   1.400   2.826
 8029TIP3    H224031   1.061   1.336   2.692
 8030TIP3   OH224032   4.024   2.209   4.892
 8030TIP3    H124033   4.092   2.210   4.825
 8030TIP3    H224034   4.064   2.162   4.966
 8031TIP3   OH224035   6.004   6.442   2.579
 8031TIP3    H124036   5.984   6.356   2.615
 8031TIP3    H224037   6.069   6.425   2.511
 8032TIP3   OH224038   8.117   7.342   2.393
 8032TIP3    H124039   8.210   7.335   2.368
 8032TIP3    H224040   8.110   7.288   2.472
 8033TIP3   OH224041   7.890   6.618   4.209
 8033TIP3    H124042   7.868   6.578   4.293
 8033TIP3    H224043   7.932   6.548   4.159
 8034TIP3   OH224044   3.481   3.941   6.472
 8034TIP3    H124045   3.495   3.853   6.508
 8034TIP3    H224046   3.516   4.001   6.538
 8035TIP3   OH224047   6.330   3.094   6.356
 8035TIP3    H124048   6.371   3.144   6.427
 8035TIP3    H224049   6.403   3.064   6.302
 8036TIP3   OH224050   6.918   6.316   1.496
 8036TIP3    H124051   6.893   6.313   1.588
 8036TIP3    H224052   6.840   6.350   1.451
 8037TIP3   OH224053   4.794   4.980   5.433
 8037TIP3    H124054   4.727   5.006   5.370
 8037TIP3    H224055   4.844   5.060   5.450
 8038TIP3   OH224056   3.823   5.699   5.945
 8038TIP3    H124057   3.864   5.786   5.948
 8038TIP3    H224058   3.839   5.668   5.856
 8039TIP3   OH224059   1.843   3.544   0.584
 8039TIP3    H124060   1.883   3.596   0.515
 8039TIP3    H224061   1.843   3.455   0.549
 8040TIP3   OH224062   0.856   2.759   4.379
 8040TIP3    H124063   0.907   2.795   4.307
 8040TIP3    H224064   0.831   2.671   4.350
 8041TIP3   OH224065   5.916   7.171   4.125
 8041TIP3    H124066   5.872   7.088   4.142
 8041TIP3    H224067   5.849   7.228   4.088
 8042TIP3   OH224068   2.409   0.161   2.300
 8042TIP3    H124069   2.489   0.211   2.282
 8042TIP3    H224070   2.420   0.080   2.250
 8043TIP3   OH224071   0.964   5.451   3.153
 8043TIP3    H124072   0.981   5.446   3.059
 8043TIP3    H224073   0.905   5.525   3.163
 8044TIP3   OH224074   0.176   2.609   6.127
 8044TIP3    H124075   0.153   2.697   6.097
 8044TIP3    H224076   0.270   2.603   6.113
 8045TIP3   OH224077   2.721   6.916   1.224
 8045TIP3    H124078   2.649   6.868   1.266
 8045TIP3    H224079   2.678   6.975   1.162
 8046TIP3   OH224080   7.077   6.796   4.292
 8046TIP3    H124081   6.988   6.791   4.257
 8046TIP3    H224082   7.117   6.870   4.246
 8047TIP3   OH224083   1.483   0.791   4.263
 8047TIP3    H124084   1.444   0.791   4.176
 8047TIP3    H224085   1.411   0.815   4.322
 8048TIP3   OH224086   2.413   5.215   1.933
 8048TIP3    H124087   2.422   5.138   1.876
 8048TIP3    H224088   2.501   5.252   1.938
 8049TIP3   OH224089   2.964   0.237   2.747
 8049TIP3    H124090   2.936   0.161   2.697
 8049TIP3    H224091   2.912   0.233   2.828
 8050TIP3   OH224092   7.373   4.462   6.435
 8050TIP3    H124093   7.396   4.377   6.473
 8050TIP3    H224094   7.295   4.489   6.483
 8051TIP3   OH224095   7.697   4.518   0.607
 8051TIP3    H124096   7.738   4.535   0.692
 8051TIP3    H224097   7.752   4.563   0.544
 8052TIP3   OH224098   6.626   6.207   6.237
 8052TIP3    H124099   6.583   6.292   6.228
 8052TIP3    H224100   6.705   6.214   6.183
 8053TIP3   OH224101   2.470   4.558   2.554
 8053TIP3    H124102   2.480   4.642   2.509
 8053TIP3    H224103   2.557   4.538   2.588
 8054TIP3   OH224104   3.674   7.445   3.571
 8054TIP3    H124105   3.614   7.441   3.647
 8054TIP3    H224106   3.760   7.424   3.608
 8055TIP3   OH224107   4.938   0.476   6.326
 8055TIP3    H124108   4.985   0.558   6.343
 8055TIP3    H224109   4.922   0.477   6.231
 8056TIP3   OH224110   0.494   1.924   2.470
 8056TIP3    H124111   0.563   1.990   2.463
 8056TIP3    H224112   0.419   1.962   2.423
 8057TIP3   OH224113   4.306   4.416   4.832
 8057TIP3    H124114   4.233   4.396   4.773
 8057TIP3    H224115   4.384   4.396   4.781
 8058TIP3   OH224116   0.006   3.520   1.621
 8058TIP3    H124117   0.021   3.608   1.586
 8058TIP3    H224118   0.043   3.523   1.709
 8059TIP3   OH224119   4.293   2.617   1.839
 8059TIP3    H124120   4.321   2.688   1.897
 8059TIP3    H224121   4.302   2.653   1.751
 8060TIP3   OH224122   4.942   5.689   5.431
 8060TIP3    H124123   4.970   5.690   5.522
 8060TIP3    H224124   4.854   5.650   5.433
 8061TIP3   OH224125   2.353   7.254   1.445
 8061TIP3    H124126   2.385   7.266   1.534
 8061TIP3    H224127   2.338   7.343   1.413
 8062TIP3   OH224128   5.255   2.914   1.555
 8062TIP3    H124129   5.169   2.894   1.594
 8062TIP3    H224130   5.260   2.856   1.479
 8063TIP3   OH224131   1.820   5.936   4.451
 8063TIP3    H124132   1.855   5.929   4.539
 8063TIP3    H224133   1.747   5.998   4.458
 8064TIP3   OH224134   0.397   5.835   1.508
 8064TIP3    H124135   0.336   5.784   1.454
 8064TIP3    H224136   0.358   5.922   1.512
 8065TIP3   OH224137   0.435   6.050   5.944
 8065TIP3    H124138   0.455   6.100   6.023
 8065TIP3    H224139   0.504   6.075   5.882
 8066TIP3   OH224140   2.944   6.905   2.900
 8066TIP3    H124141   3.019   6.953   2.935
 8066TIP3    H224142   2.954   6.816   2.935
 8067TIP3   OH224143   4.112   4.484   1.907
 8067TIP3    H124144   4.157   4.497   1.990
 8067TIP3    H224145   4.077   4.570   1.884
 8068TIP3   OH224146   6.008   6.726   3.768
 8068TIP3    H124147   6.095   6.724   3.807
 8068TIP3    H224148   5.995   6.639   3.731
 8069TIP3   OH224149   3.509   1.875   3.984
 8069TIP3    H124150   3.586   1.833   4.023
 8069TIP3    H224151   3.457   1.803   3.950
 8070TIP3   OH224152   0.153   6.232   2.259
 8070TIP3    H124153   0.160   6.301   2.193
 8070TIP3    H224154   0.090   6.170   2.222
 8071TIP3   OH224155   0.446   2.530   5.383
 8071TIP3    H124156   0.407   2.475   5.451
 8071TIP3    H224157   0.423   2.619   5.409
 8072TIP3   OH224158   5.745   1.296   5.207
 8072TIP3    H124159   5.693   1.340   5.274
 8072TIP3    H224160   5.741   1.355   5.131
 8073TIP3   OH224161   0.175   2.763   0.293
 8073TIP3    H124162   0.152   2.834   0.353
 8073TIP3    H224163   0.160   2.799   0.206
 8074TIP3   OH224164   8.251   3.855   6.271
 8074TIP3    H124165   8.245   3.950   6.257
 8074TIP3    H224166   8.336   3.842   6.312
 8075TIP3   OH224167   7.437   6.891   2.612
 8075TIP3    H124168   7.409   6.803   2.636
 8075TIP3    H224169   7.489   6.921   2.687
 8076TIP3   OH224170   2.305   3.787   2.406
 8076TIP3    H124171   2.396   3.808   2.427
 8076TIP3    H224172   2.308   3.750   2.318
 8077TIP3   OH224173   2.989   0.029   4.930
 8077TIP3    H124174   3.036  -0.048   4.963
 8077TIP3    H224175   3.032   0.050   4.848
 8078TIP3   OH224176   2.398   3.825   4.198
 8078TIP3    H124177   2.493   3.814   4.208
 8078TIP3    H224178   2.364   3.818   4.287
 8079TIP3   OH224179   8.118   2.537   1.165
 8079TIP3    H124180   8.197   2.483   1.168
 8079TIP3    H224181   8.138   2.612   1.221
 8080TIP3   OH224182   4.870   4.251   1.818
 8080TIP3    H124183   4.843   4.215   1.733
 8080TIP3    H224184   4.861   4.346   1.807
 8081TIP3   OH224185   6.182   1.773   2.781
 8081TIP3    H124186   6.222   1.836   2.721
 8081TIP3    H224187   6.255   1.739   2.832
 8082TIP3   OH224188   5.183   3.655   1.971
 8082TIP3    H124189   5.237   3.585   2.007
 8082TIP3    H224190   5.095   3.616   1.965
 8083TIP3   OH224191   5.102   4.880   4.866
 8083TIP3    H124192   5.045   4.933   4.810
 8083TIP3    H224193   5.131   4.809   4.810
 8084TIP3   OH224194   7.947   0.285   2.705
 8084TIP3    H124195   7.892   0.289   2.626
 8084TIP3    H224196   7.943   0.193   2.732
 8085TIP3   OH224197   4.232   2.188   5.761
 8085TIP3    H124198   4.213   2.282   5.751
 8085TIP3    H224199   4.146   2.149   5.780
 8086TIP3   OH224200   6.897   5.257   4.893
 8086TIP3    H124201   6.846   5.330   4.929
 8086TIP3    H224202   6.964   5.298   4.839
 8087TIP3   OH224203   6.986   6.491   3.513
 8087TIP3    H124204   6.993   6.581   3.479
 8087TIP3    H224205   6.951   6.441   3.439
 8088TIP3   OH224206   5.074   1.343   2.414
 8088TIP3    H124207   4.979   1.346   2.405
 8088TIP3    H224208   5.107   1.394   2.341
 8089TIP3   OH224209   1.593   0.040   4.570
 8089TIP3    H124210   1.504   0.033   4.535
 8089TIP3    H224211   1.632   0.113   4.523
 8090TIP3   OH224212   5.847   6.058   0.295
 8090TIP3    H124213   5.878   5.992   0.356
 8090TIP3    H224214   5.782   6.013   0.241
 8091TIP3   OH224215   0.558   6.474   2.871
 8091TIP3    H124216   0.556   6.480   2.967
 8091TIP3    H224217   0.466   6.472   2.845
 8092TIP3   OH224218   0.826   5.498   2.626
 8092TIP3    H124219   0.749   5.488   2.569
 8092TIP3    H224220   0.897   5.459   2.576
 8093TIP3   OH224221   0.488   3.986   4.621
 8093TIP3    H124222   0.571   4.011   4.581
 8093TIP3    H224223   0.472   3.897   4.588
 8094TIP3   OH224224   4.331   1.313   0.403
 8094TIP3    H124225   4.399   1.283   0.463
 8094TIP3    H224226   4.380   1.357   0.333
 8095TIP3   OH224227   3.460   5.845   3.868
 8095TIP3    H124228   3.438   5.782   3.937
 8095TIP3    H224229   3.555   5.846   3.866
 8096TIP3   OH224230   5.181   4.357   4.576
 8096TIP3    H124231   5.216   4.297   4.509
 8096TIP3    H224232   5.177   4.442   4.532
 8097TIP3   OH224233   2.312   2.786   6.111
 8097TIP3    H124234   2.386   2.739   6.150
 8097TIP3    H224235   2.274   2.835   6.184
 8098TIP3   OH224236   0.333   0.985   1.785
 8098TIP3    H124237   0.369   0.932   1.714
 8098TIP3    H224238   0.242   0.999   1.762
 8099TIP3   OH224239   8.123   4.600   3.024
 8099TIP3    H124240   8.099   4.691   3.040
 8099TIP3    H224241   8.040   4.556   3.005
 8100TIP3   OH224242   5.290   2.861   2.802
 8100TIP3    H124243   5.271   2.857   2.896
 8100TIP3    H224244   5.297   2.954   2.783
 8101TIP3   OH224245   3.697   6.514   6.166
 8101TIP3    H124246   3.700   6.418   6.164
 8101TIP3    H224247   3.608   6.536   6.136
 8102TIP3   OH224248   7.226   2.269   5.746
 8102TIP3    H124249   7.228   2.193   5.688
 8102TIP3    H224250   7.287   2.246   5.816
 8103TIP3   OH224251   7.354   4.844   6.202
 8103TIP3    H124252   7.272   4.800   6.226
 8103TIP3    H224253   7.411   4.831   6.277
 8104TIP3   OH224254   6.377   2.802   1.268
 8104TIP3    H124255   6.351   2.884   1.310
 8104TIP3    H224256   6.463   2.782   1.305
 8105TIP3   OH224257   3.460   5.833   4.861
 8105TIP3    H124258   3.459   5.782   4.941
 8105TIP3    H224259   3.422   5.917   4.885
 8106TIP3   OH224260   4.051   6.846   0.274
 8106TIP3    H124261   3.959   6.820   0.280
 8106TIP3    H224262   4.048   6.941   0.259
 8107TIP3   OH224263   6.991   3.649   3.785
 8107TIP3    H124264   7.052   3.711   3.745
 8107TIP3    H224265   7.015   3.649   3.878
 8108TIP3   OH224266   6.646   0.353   3.673
 8108TIP3    H124267   6.645   0.313   3.759
 8108TIP3    H224268   6.639   0.280   3.612
 8109TIP3   OH224269   6.337   7.357   6.301
 8109TIP3    H124270   6.290   7.273   6.292
 8109TIP3    H224271   6.342   7.371   6.395
 8110TIP3   OH224272   5.089   1.842   5.769
 8110TIP3    H124273   5.181   1.864   5.780
 8110TIP3    H224274   5.043   1.926   5.778
 8111TIP3   OH224275   4.151   5.647   4.128
 8111TIP3    H124276   4.239   5.685   4.135
 8111TIP3    H224277   4.136   5.638   4.034
 8112TIP3   OH224278   7.131   5.020   4.518
 8112TIP3    H124279   7.047   4.973   4.525
 8112TIP3    H224280   7.181   4.992   4.595
 8113TIP3   OH224281   6.203   1.999   5.276
 8113TIP3    H124282   6.111   2.015   5.255
 8113TIP3    H224283   6.249   2.006   5.192
 8114TIP3   OH224284   3.119   7.356   2.938
 8114TIP3    H124285   3.181   7.360   2.866
 8114TIP3    H224286   3.167   7.389   3.014
 8115TIP3   OH224287   0.389   3.729   5.722
 8115TIP3    H124288   0.302   3.729   5.682
 8115TIP3    H224289   0.445   3.770   5.657
 8116TIP3   OH224290   1.813   1.721   3.211
 8116TIP3    H124291   1.773   1.660   3.273
 8116TIP3    H224292   1.826   1.668   3.132
 8117TIP3   OH224293   1.405   6.453   0.372
 8117TIP3    H124294   1.313   6.429   0.360
 8117TIP3    H224295   1.453   6.374   0.349
 8118TIP3   OH224296   2.495   1.182   1.189
 8118TIP3    H124297   2.512   1.228   1.107
 8118TIP3    H224298   2.399   1.181   1.196
 8119TIP3   OH224299   5.259   2.147   2.510
 8119TIP3    H124300   5.229   2.127   2.599
 8119TIP3    H224301   5.199   2.098   2.453
 8120TIP3   OH224302   2.057   2.352   2.342
 8120TIP3    H124303   2.146   2.320   2.328
 8120TIP3    H224304   2.055   2.378   2.434
 8121TIP3   OH224305   2.497   4.887   5.398
 8121TIP3    H124306   2.535   4.955   5.342
 8121TIP3    H224307   2.472   4.934   5.478
 8122TIP3   OH224308   3.236   3.611   5.852
 8122TIP3    H124309   3.235   3.631   5.758
 8122TIP3    H224310   3.200   3.689   5.893
 8123TIP3   OH224311   5.694   5.578   3.076
 8123TIP3    H124312   5.617   5.625   3.109
 8123TIP3    H224313   5.746   5.645   3.033
 8124TIP3   OH224314   1.949   2.062   1.235
 8124TIP3    H124315   1.962   2.097   1.147
 8124TIP3    H224316   1.857   2.079   1.254
 8125TIP3   OH224317   7.032   1.414   2.452
 8125TIP3    H124318   7.012   1.339   2.397
 8125TIP3    H224319   6.948   1.460   2.461
 8126TIP3   OH224320   2.023   1.045   3.520
 8126TIP3    H124321   2.001   1.095   3.441
 8126TIP3    H224322   2.085   1.100   3.567
 8127TIP3   OH224323   2.194   4.275   0.372
 8127TIP3    H124324   2.176   4.329   0.294
 8127TIP3    H224325   2.253   4.329   0.425
 8128TIP3   OH224326   2.511   1.788   2.591
 8128TIP3    H124327   2.535   1.780   2.498
 8128TIP3    H224328   2.586   1.830   2.632
 8129TIP3   OH224329   6.936   4.049   6.473
 8129TIP3    H124330   6.843   4.052   6.497
 8129TIP3    H224331   6.971   4.133   6.503
 8130TIP3   OH224332   0.936   5.891   3.136
 8130TIP3    H124333   0.962   5.828   3.203
 8130TIP3    H224334   0.985   5.970   3.157
 8131TIP3   OH224335   3.033   0.651   3.852
 8131TIP3    H124336   3.003   0.561   3.868
 8131TIP3    H224337   2.984   0.678   3.774
 8132TIP3   OH224338   4.242   2.132   0.302
 8132TIP3    H124339   4.174   2.071   0.331
 8132TIP3    H224340   4.205   2.175   0.225
 8133TIP3   OH224341   3.754   3.624   4.586
 8133TIP3    H124342   3.733   3.706   4.541
 8133TIP3    H224343   3.813   3.578   4.526
 8134TIP3   OH224344   2.326   6.407   0.901
 8134TIP3    H124345   2.240   6.367   0.886
 8134TIP3    H224346   2.373   6.392   0.820
 8135TIP3   OH224347   0.667   4.984   2.950
 8135TIP3    H124348   0.737   4.935   2.907
 8135TIP3    H224349   0.703   5.007   3.036
 8136TIP3   OH224350   5.815   4.950   6.321
 8136TIP3    H124351   5.744   4.977   6.263
 8136TIP3    H224352   5.772   4.898   6.389
 8137TIP3   OH224353   7.365   2.241   5.361
 8137TIP3    H124354   7.320   2.184   5.423
 8137TIP3    H224355   7.398   2.181   5.293
 8138TIP3   OH224356   6.928   2.961   0.814
 8138TIP3    H124357   6.985   2.885   0.801
 8138TIP3    H224358   6.985   3.036   0.800
 8139TIP3   OH224359   0.335   5.646   4.166
 8139TIP3    H124360   0.349   5.706   4.093
 8139TIP3    H224361   0.424   5.617   4.190
 8140TIP3   OH224362   7.084   1.032   1.343
 8140TIP3    H124363   7.149   1.102   1.346
 8140TIP3    H224364   7.039   1.044   1.259
 8141TIP3   OH224365   7.795   0.890   2.133
 8141TIP3    H124366   7.743   0.828   2.185
 8141TIP3    H224367   7.874   0.904   2.186
 8142TIP3   OH224368   3.076   7.718   0.297
 8142TIP3    H124369   3.068   7.637   0.348
 8142TIP3    H224370   3.161   7.711   0.254
 8143TIP3   OH224371   6.896   5.272   1.990
 8143TIP3    H124372   6.818   5.217   1.994
 8143TIP3    H224373   6.914   5.282   1.897
 8144TIP3   OH224374   1.829   2.706   1.328
 8144TIP3    H124375   1.843   2.706   1.422
 8144TIP3    H224376   1.787   2.790   1.310
 8145TIP3   OH224377   7.611   5.841   6.176
 8145TIP3    H124378   7.672   5.865   6.245
 8145TIP3    H224379   7.550   5.915   6.170
 8146TIP3   OH224380   5.118   0.893   4.417
 8146TIP3    H124381   5.210   0.874   4.401
 8146TIP3    H224382   5.097   0.965   4.358
 8147TIP3   OH224383   7.348   5.070   3.511
 8147TIP3    H124384   7.374   5.065   3.603
 8147TIP3    H224385   7.367   4.983   3.476
 8148TIP3   OH224386   3.520   6.224   0.223
 8148TIP3    H124387   3.491   6.288   0.288
 8148TIP3    H224388   3.456   6.230   0.152
 8149TIP3   OH224389   7.446   5.572   1.101
 8149TIP3    H124390   7.401   5.645   1.057
 8149TIP3    H224391   7.495   5.529   1.031
 8150TIP3   OH224392   2.095   2.345   1.664
 8150TIP3    H124393   2.035   2.273   1.645
 8150TIP3    H224394   2.054   2.392   1.737
 8151TIP3   OH224395   2.032   6.602   4.632
 8151TIP3    H124396   2.105   6.590   4.570
 8151TIP3    H224397   1.970   6.658   4.585
 8152TIP3   OH224398   5.272   4.512   2.663
 8152TIP3    H124399   5.280   4.431   2.612
 8152TIP3    H224400   5.248   4.483   2.751
 8153TIP3   OH224401   6.241   2.552   1.293
 8153TIP3    H124402   6.187   2.536   1.216
 8153TIP3    H224403   6.288   2.634   1.273
 8154TIP3   OH224404   1.706   7.534   6.626
 8154TIP3    H124405   1.727   7.545   6.719
 8154TIP3    H224406   1.704   7.439   6.614
 8155TIP3   OH224407   2.539   2.685   5.371
 8155TIP3    H124408   2.477   2.756   5.358
 8155TIP3    H224409   2.581   2.675   5.286
 8156TIP3   OH224410   5.524   0.981   0.221
 8156TIP3    H124411   5.605   1.025   0.196
 8156TIP3    H224412   5.550   0.890   0.238
 8157TIP3   OH224413   1.210   5.956   3.377
 8157TIP3    H124414   1.262   5.951   3.458
 8157TIP3    H224415   1.162   6.039   3.386
 8158TIP3   OH224416   5.319   4.686   0.681
 8158TIP3    H124417   5.385   4.641   0.733
 8158TIP3    H224418   5.326   4.778   0.707
 8159TIP3   OH224419   7.583   2.260   6.102
 8159TIP3    H124420   7.511   2.319   6.079
 8159TIP3    H224421   7.655   2.318   6.124
 8160TIP3   OH224422   4.750   2.055   6.006
 8160TIP3    H124423   4.692   2.022   6.074
 8160TIP3    H224424   4.725   2.146   5.995
 8161TIP3   OH224425   1.622   1.197   4.971
 8161TIP3    H124426   1.697   1.176   5.027
 8161TIP3    H224427   1.551   1.218   5.032
 8162TIP3   OH224428   0.852   1.674   4.623
 8162TIP3    H124429   0.779   1.612   4.629
 8162TIP3    H224430   0.904   1.643   4.549
 8163TIP3   OH224431   2.235   0.502   4.476
 8163TIP3    H124432   2.292   0.564   4.521
 8163TIP3    H224433   2.156   0.552   4.456
 8164TIP3   OH224434   2.635   6.244   0.482
 8164TIP3    H124435   2.715   6.297   0.491
 8164TIP3    H224436   2.601   6.267   0.396
 8165TIP3   OH224437   2.420   0.854   2.083
 8165TIP3    H124438   2.478   0.910   2.030
 8165TIP3    H224439   2.344   0.909   2.100
 8166TIP3   OH224440   1.136   2.214   6.568
 8166TIP3    H124441   1.058   2.237   6.619
 8166TIP3    H224442   1.145   2.285   6.505
 8167TIP3   OH224443   6.177   6.442   0.593
 8167TIP3    H124444   6.138   6.515   0.544
 8167TIP3    H224445   6.135   6.364   0.557
 8168TIP3   OH224446   5.628   2.072   3.949
 8168TIP3    H124447   5.581   2.152   3.973
 8168TIP3    H224448   5.721   2.098   3.949
 8169TIP3   OH224449   0.604   3.166   2.845
 8169TIP3    H124450   0.524   3.119   2.872
 8169TIP3    H224451   0.659   3.098   2.806
 8170TIP3   OH224452   1.675   1.552   5.395
 8170TIP3    H124453   1.650   1.463   5.370
 8170TIP3    H224454   1.592   1.597   5.408
 8171TIP3   OH224455   4.131   3.069   2.159
 8171TIP3    H124456   4.056   3.128   2.152
 8171TIP3    H224457   4.106   2.992   2.108
 8172TIP3   OH224458   2.794   6.896   3.927
 8172TIP3    H124459   2.855   6.943   3.985
 8172TIP3    H224460   2.837   6.897   3.842
 8173TIP3   OH224461   6.321   0.701   1.040
 8173TIP3    H124462   6.301   0.786   1.077
 8173TIP3    H224463   6.397   0.716   0.985
 8174TIP3   OH224464   1.984   6.967   1.298
 8174TIP3    H124465   2.010   7.032   1.364
 8174TIP3    H224466   1.994   6.883   1.342
 8175TIP3   OH224467   7.342   0.423   5.160
 8175TIP3    H124468   7.426   0.438   5.117
 8175TIP3    H224469   7.366   0.389   5.247
 8176TIP3   OH224470   2.470   7.084   1.747
 8176TIP3    H124471   2.536   7.091   1.816
 8176TIP3    H224472   2.387   7.077   1.794
 8177TIP3   OH224473   3.771   4.595   6.195
 8177TIP3    H124474   3.756   4.602   6.289
 8177TIP3    H224475   3.866   4.597   6.186
 8178TIP3   OH224476   1.079   1.962   6.693
 8178TIP3    H124477   1.105   2.041   6.646
 8178TIP3    H224478   1.077   1.893   6.626
 8179TIP3   OH224479   5.613   2.661   0.871
 8179TIP3    H124480   5.582   2.619   0.791
 8179TIP3    H224481   5.606   2.593   0.938
 8180TIP3   OH224482   0.764   5.798   5.170
 8180TIP3    H124483   0.851   5.802   5.211
 8180TIP3    H224484   0.703   5.793   5.244
 8181TIP3   OH224485   3.348   7.603   4.144
 8181TIP3    H124486   3.417   7.555   4.190
 8181TIP3    H224487   3.302   7.650   4.213
 8182TIP3   OH224488   0.574   5.564   4.258
 8182TIP3    H124489   0.522   5.486   4.278
 8182TIP3    H224490   0.652   5.530   4.215
 8183TIP3   OH224491   0.214   4.088   3.986
 8183TIP3    H124492   0.232   4.121   4.074
 8183TIP3    H224493   0.129   4.125   3.963
 8184TIP3   OH224494   0.972   1.150   1.533
 8184TIP3    H124495   0.910   1.223   1.530
 8184TIP3    H224496   0.918   1.074   1.554
 8185TIP3   OH224497   5.089   3.014   5.007
 8185TIP3    H124498   5.083   3.015   5.102
 8185TIP3    H224499   5.093   3.107   4.982
 8186TIP3   OH224500   6.821   6.509   2.655
 8186TIP3    H124501   6.897   6.452   2.646
 8186TIP3    H224502   6.835   6.556   2.737
 8187TIP3   OH224503   6.334   2.017   3.148
 8187TIP3    H124504   6.321   1.936   3.196
 8187TIP3    H224505   6.395   1.994   3.078
 8188TIP3   OH224506   1.743   2.734   1.997
 8188TIP3    H124507   1.783   2.793   2.060
 8188TIP3    H224508   1.670   2.784   1.960
 8189TIP3   OH224509   5.659   4.019   1.439
 8189TIP3    H124510   5.601   4.072   1.494
 8189TIP3    H224511   5.712   4.083   1.392
 8190TIP3   OH224512   5.938   7.428   6.243
 8190TIP3    H124513   5.996   7.366   6.199
 8190TIP3    H224514   5.925   7.391   6.331
 8191TIP3   OH224515   5.223   7.688   0.166
 8191TIP3    H124516   5.310   7.695   0.127
 8191TIP3    H224517   5.213   7.768   0.217
 8192TIP3   OH224518   4.089   2.351   0.590
 8192TIP3    H124519   4.169   2.391   0.558
 8192TIP3    H224520   4.026   2.363   0.518
 8193TIP3   OH224521   2.508   7.124   1.257
 8193TIP3    H124522   2.449   7.171   1.316
 8193TIP3    H224523   2.589   7.113   1.307
 8194TIP3   OH224524   3.473   0.825   0.262
 8194TIP3    H124525   3.487   0.894   0.327
 8194TIP3    H224526   3.386   0.790   0.281
 8195TIP3   OH224527   3.968   3.287   3.985
 8195TIP3    H124528   3.979   3.251   3.897
 8195TIP3    H224529   4.042   3.252   4.034
 8196TIP3   OH224530   6.249   7.584   2.386
 8196TIP3    H124531   6.271   7.650   2.451
 8196TIP3    H224532   6.235   7.633   2.305
 8197TIP3   OH224533   2.292   5.871   1.704
 8197TIP3    H124534   2.224   5.807   1.726
 8197TIP3    H224535   2.295   5.872   1.609
 8198TIP3   OH224536   0.940   6.328   4.332
 8198TIP3    H124537   0.981   6.286   4.256
 8198TIP3    H224538   0.944   6.261   4.401
 8199TIP3   OH224539   5.871   2.072   0.537
 8199TIP3    H124540   5.930   2.036   0.603
 8199TIP3    H224541   5.783   2.062   0.574
 8200TIP3   OH224542   1.709   5.244   3.631
 8200TIP3    H124543   1.758   5.200   3.561
 8200TIP3    H224544   1.765   5.235   3.708
 8201TIP3   OH224545   1.475   7.705   1.134
 8201TIP3    H124546   1.453   7.702   1.040
 8201TIP3    H224547   1.444   7.622   1.168
 8202TIP3   OH224548   1.095   1.885   6.263
 8202TIP3    H124549   1.145   1.803   6.260
 8202TIP3    H224550   1.141   1.939   6.327
 8203TIP3   OH224551   3.041   5.885   1.110
 8203TIP3    H124552   2.960   5.934   1.125
 8203TIP3    H224553   3.082   5.928   1.034
 8204TIP3   OH224554   5.510   1.790   3.893
 8204TIP3    H124555   5.586   1.784   3.835
 8204TIP3    H224556   5.502   1.703   3.932
 8205TIP3   OH224557   1.010   1.016   1.815
 8205TIP3    H124558   1.095   1.044   1.780
 8205TIP3    H224559   0.990   1.080   1.883
 8206TIP3   OH224560   3.398   5.403   2.855
 8206TIP3    H124561   3.357   5.433   2.773
 8206TIP3    H224562   3.338   5.431   2.923
 8207TIP3   OH224563   5.258   3.739   1.378
 8207TIP3    H124564   5.186   3.766   1.321
 8207TIP3    H224565   5.282   3.651   1.347
 8208TIP3   OH224566   5.130   4.843   5.207
 8208TIP3    H124567   5.079   4.873   5.132
 8208TIP3    H224568   5.162   4.756   5.181
 8209TIP3   OH224569   1.979   0.956   6.500
 8209TIP3    H124570   1.944   1.036   6.539
 8209TIP3    H224571   1.912   0.890   6.517
 8210TIP3   OH224572   3.414   1.811   4.346
 8210TIP3    H124573   3.320   1.828   4.348
 8210TIP3    H224574   3.432   1.762   4.426
 8211TIP3   OH224575   4.656   3.975   2.334
 8211TIP3    H124576   4.586   4.037   2.312
 8211TIP3    H224577   4.643   3.902   2.274
 8212TIP3   OH224578   2.079   7.133   1.475
 8212TIP3    H124579   2.044   7.134   1.564
 8212TIP3    H224580   2.167   7.169   1.483
 8213TIP3   OH224581   1.142   5.148   0.374
 8213TIP3    H124582   1.168   5.134   0.465
 8213TIP3    H224583   1.219   5.124   0.322
 8214TIP3   OH224584   3.304   3.583   3.238
 8214TIP3    H124585   3.280   3.590   3.330
 8214TIP3    H224586   3.299   3.489   3.219
 8215TIP3   OH224587   6.068   1.621   3.345
 8215TIP3    H124588   5.989   1.665   3.312
 8215TIP3    H224589   6.069   1.537   3.299
 8216TIP3   OH224590   1.683   2.919   3.881
 8216TIP3    H124591   1.649   2.849   3.825
 8216TIP3    H224592   1.769   2.887   3.910
 8217TIP3   OH224593   6.913   4.458   1.990
 8217TIP3    H124594   7.003   4.435   2.014
 8217TIP3    H224595   6.920   4.488   1.899
 8218TIP3   OH224596   2.229   0.798   5.271
 8218TIP3    H124597   2.294   0.834   5.211
 8218TIP3    H224598   2.187   0.728   5.221
 8219TIP3   OH224599   4.278   2.782   5.596
 8219TIP3    H124600   4.299   2.810   5.507
 8219TIP3    H224601   4.230   2.856   5.634
 8220TIP3   OH224602   2.817   6.456   5.799
 8220TIP3    H124603   2.770   6.532   5.835
 8220TIP3    H224604   2.806   6.387   5.864
 8221TIP3   OH224605   7.974   2.339   1.406
 8221TIP3    H124606   7.929   2.423   1.411
 8221TIP3    H224607   7.999   2.319   1.496
 8222TIP3   OH224608   1.580   3.311   2.760
 8222TIP3    H124609   1.555   3.389   2.710
 8222TIP3    H224610   1.612   3.345   2.843
 8223TIP3   OH224611   8.224   4.316   5.915
 8223TIP3    H124612   8.129   4.307   5.907
 8223TIP3    H224613   8.255   4.318   5.824
 8224TIP3   OH224614   6.964   1.349   3.207
 8224TIP3    H124615   6.935   1.372   3.118
 8224TIP3    H224616   7.008   1.428   3.238
 8225TIP3   OH224617   2.896   7.381   3.321
 8225TIP3    H124618   2.903   7.346   3.410
 8225TIP3    H224619   2.926   7.310   3.265
 8226TIP3   OH224620   2.385   6.556   5.898
 8226TIP3    H124621   2.314   6.532   5.839
 8226TIP3    H224622   2.369   6.503   5.977
 8227TIP3   OH224623   1.125   1.828   2.530
 8227TIP3    H124624   1.047   1.774   2.518
 8227TIP3    H224625   1.166   1.829   2.443
 8228TIP3   OH224626   5.234   5.700   3.045
 8228TIP3    H124627   5.147   5.660   3.053
 8228TIP3    H224628   5.241   5.724   2.952
 8229TIP3   OH224629   2.581   1.418   0.269
 8229TIP3    H124630   2.587   1.502   0.223
 8229TIP3    H224631   2.640   1.361   0.221
 8230TIP3   OH224632   3.328   3.196   1.118
 8230TIP3    H124633   3.300   3.213   1.208
 8230TIP3    H224634   3.418   3.164   1.127
 8231TIP3   OH224635   7.084   3.121   2.339
 8231TIP3    H124636   7.180   3.129   2.343
 8231TIP3    H224637   7.069   3.027   2.330
 8232TIP3   OH224638   3.244   4.411   4.737
 8232TIP3    H124639   3.300   4.335   4.750
 8232TIP3    H224640   3.155   4.377   4.743
 8233TIP3   OH224641   3.653   4.936   6.593
 8233TIP3    H124642   3.559   4.950   6.598
 8233TIP3    H224643   3.688   4.981   6.670
 8234TIP3   OH224644   0.790   4.307   3.822
 8234TIP3    H124645   0.777   4.297   3.916
 8234TIP3    H224646   0.879   4.275   3.807
 8235TIP3   OH224647   5.805   3.920   1.647
 8235TIP3    H124648   5.770   3.936   1.735
 8235TIP3    H224649   5.735   3.944   1.588
 8236TIP3   OH224650   3.293   2.098   3.112
 8236TIP3    H124651   3.322   2.053   3.032
 8236TIP3    H224652   3.373   2.110   3.163
 8237TIP3   OH224653   7.281   5.638   4.306
 8237TIP3    H124654   7.219   5.608   4.240
 8237TIP3    H224655   7.287   5.732   4.292
 8238TIP3   OH224656   5.854   5.537   4.653
 8238TIP3    H124657   5.827   5.581   4.733
 8238TIP3    H224658   5.777   5.538   4.597
 8239TIP3   OH224659   4.169   1.254   3.781
 8239TIP3    H124660   4.127   1.285   3.861
 8239TIP3    H224661   4.102   1.266   3.713
 8240TIP3   OH224662   1.806   5.712   0.535
 8240TIP3    H124663   1.897   5.698   0.510
 8240TIP3    H224664   1.783   5.796   0.497
 8241TIP3   OH224665   5.802   6.692   5.511
 8241TIP3    H124666   5.846   6.701   5.427
 8241TIP3    H224667   5.789   6.782   5.542
 8242TIP3   OH224668   2.810   6.693   3.235
 8242TIP3    H124669   2.856   6.664   3.156
 8242TIP3    H224670   2.829   6.624   3.300
 8243TIP3   OH224671   6.703   5.207   5.584
 8243TIP3    H124672   6.637   5.191   5.652
 8243TIP3    H224673   6.786   5.210   5.631
 8244TIP3   OH224674   4.954   2.388   4.389
 8244TIP3    H124675   5.029   2.422   4.438
 8244TIP3    H224676   4.918   2.464   4.344
 8245TIP3   OH224677   3.975   2.659   5.104
 8245TIP3    H124678   3.951   2.697   5.020
 8245TIP3    H224679   3.997   2.734   5.159
 8246TIP3   OH224680   5.996   3.180   2.254
 8246TIP3    H124681   5.947   3.157   2.175
 8246TIP3    H224682   6.070   3.119   2.255
 8247TIP3   OH224683   7.117   4.668   6.281
 8247TIP3    H124684   7.151   4.647   6.368
 8247TIP3    H224685   7.057   4.596   6.260
 8248TIP3   OH224686   1.111   5.643   4.252
 8248TIP3    H124687   1.147   5.693   4.179
 8248TIP3    H224688   1.162   5.562   4.253
 8249TIP3   OH224689   4.037   4.648   4.600
 8249TIP3    H124690   3.950   4.660   4.638
 8249TIP3    H224691   4.062   4.559   4.625
 8250TIP3   OH224692   6.920   6.120   0.254
 8250TIP3    H124693   6.921   6.102   0.161
 8250TIP3    H224694   6.981   6.056   0.292
 8251TIP3   OH224695   5.562   2.620   4.467
 8251TIP3    H124696   5.514   2.694   4.430
 8251TIP3    H224697   5.582   2.647   4.557
 8252TIP3   OH224698   5.184   5.424   4.214
 8252TIP3    H124699   5.093   5.414   4.188
 8252TIP3    H224700   5.232   5.362   4.158
 8253TIP3   OH224701   0.896   2.520   6.384
 8253TIP3    H124702   0.979   2.481   6.356
 8253TIP3    H224703   0.829   2.470   6.337
 8254TIP3   OH224704   7.997   5.671   4.762
 8254TIP3    H124705   8.081   5.687   4.718
 8254TIP3    H224706   8.019   5.611   4.834
 8255TIP3   OH224707   2.284   1.175   0.170
 8255TIP3    H124708   2.287   1.252   0.113
 8255TIP3    H224709   2.201   1.182   0.216
 8256TIP3   OH224710   7.309   0.721   0.241
 8256TIP3    H124711   7.286   0.763   0.159
 8256TIP3    H224712   7.374   0.655   0.217
 8257TIP3   OH224713   1.853   4.095   3.503
 8257TIP3    H124714   1.875   4.104   3.596
 8257TIP3    H224715   1.870   4.181   3.465
 8258TIP3   OH224716   6.901   6.362   5.843
 8258TIP3    H124717   6.920   6.275   5.808
 8258TIP3    H224718   6.985   6.395   5.873
 8259TIP3   OH224719   7.184   6.324   0.913
 8259TIP3    H124720   7.272   6.328   0.951
 8259TIP3    H224721   7.193   6.363   0.826
 8260TIP3   OH224722   0.954   7.615   4.610
 8260TIP3    H124723   0.917   7.686   4.663
 8260TIP3    H224724   0.926   7.535   4.655
 8261TIP3   OH224725   6.828   5.659   3.359
 8261TIP3    H124726   6.859   5.608   3.434
 8261TIP3    H224727   6.803   5.744   3.396
 8262TIP3   OH224728   7.666   2.852   1.723
 8262TIP3    H124729   7.670   2.921   1.790
 8262TIP3    H224730   7.701   2.894   1.644
 8263TIP3   OH224731   3.765   5.898   0.863
 8263TIP3    H124732   3.733   5.844   0.791
 8263TIP3    H224733   3.842   5.943   0.827
 8264TIP3   OH224734   0.620   4.914   0.062
 8264TIP3    H124735   0.691   4.856   0.089
 8264TIP3    H224736   0.585   4.874  -0.018
 8265TIP3   OH224737   1.941   5.941   1.789
 8265TIP3    H124738   1.950   5.855   1.750
 8265TIP3    H224739   1.856   5.940   1.832
 8266TIP3   OH224740   3.405   7.453   6.125
 8266TIP3    H124741   3.318   7.429   6.093
 8266TIP3    H224742   3.417   7.397   6.202
 8267TIP3   OH224743   0.557   7.271   0.849
 8267TIP3    H124744   0.630   7.248   0.792
 8267TIP3    H224745   0.594   7.334   0.911
 8268TIP3   OH224746   1.256   6.375   6.085
 8268TIP3    H124747   1.198   6.419   6.147
 8268TIP3    H224748   1.343   6.411   6.103
 8269TIP3   OH224749   4.914   7.321   6.757
 8269TIP3    H124750   4.964   7.269   6.696
 8269TIP3    H224751   4.884   7.396   6.706
 8270TIP3   OH224752   4.809   0.014   6.718
 8270TIP3    H124753   4.868   0.048   6.650
 8270TIP3    H224754   4.728  -0.005   6.671
 8271TIP3   OH224755   5.455   3.066   0.408
 8271TIP3    H124756   5.502   2.989   0.439
 8271TIP3    H224757   5.522   3.119   0.365
 8272TIP3   OH224758   4.602   1.917   6.171
 8272TIP3    H124759   4.548   1.848   6.131
 8272TIP3    H224760   4.540   1.970   6.220
 8273TIP3   OH224761   7.299   4.816   0.452
 8273TIP3    H124762   7.375   4.759   0.466
 8273TIP3    H224763   7.319   4.862   0.371
 8274TIP3   OH224764   6.518   1.947   2.949
 8274TIP3    H124765   6.493   1.856   2.934
 8274TIP3    H224766   6.603   1.956   2.906
 8275TIP3   OH224767   2.205   1.171   3.668
 8275TIP3    H124768   2.220   1.254   3.711
 8275TIP3    H224769   2.189   1.109   3.739
 8276TIP3   OH224770   3.016   6.776   4.656
 8276TIP3    H124771   3.005   6.788   4.751
 8276TIP3    H224772   3.013   6.681   4.644
 8277TIP3   OH224773   6.073   0.567   1.260
 8277TIP3    H124774   6.028   0.596   1.339
 8277TIP3    H224775   6.087   0.648   1.210
 8278TIP3   OH224776   3.004   7.133   3.793
 8278TIP3    H124777   2.926   7.158   3.842
 8278TIP3    H224778   3.075   7.139   3.857
 8279TIP3   OH224779   0.801   3.331   0.765
 8279TIP3    H124780   0.886   3.310   0.805
 8279TIP3    H224781   0.822   3.391   0.694
 8280TIP3   OH224782   0.188   1.616   5.182
 8280TIP3    H124783   0.153   1.672   5.251
 8280TIP3    H224784   0.177   1.667   5.102
 8281TIP3   OH224785   0.630   6.065   2.521
 8281TIP3    H124786   0.540   6.092   2.502
 8281TIP3    H224787   0.624   5.970   2.536
 8282TIP3   OH224788   6.751   6.902   0.442
 8282TIP3    H124789   6.784   6.978   0.394
 8282TIP3    H224790   6.677   6.871   0.390
 8283TIP3   OH224791   2.832   6.064   0.826
 8283TIP3    H124792   2.839   6.027   0.914
 8283TIP3    H224793   2.782   5.999   0.776
 8284TIP3   OH224794   1.794   0.646   1.055
 8284TIP3    H124795   1.815   0.555   1.075
 8284TIP3    H224796   1.874   0.681   1.016
 8285TIP3   OH224797   4.688   0.473   3.981
 8285TIP3    H124798   4.784   0.468   3.981
 8285TIP3    H224799   4.669   0.561   4.014
 8286TIP3   OH224800   1.149   4.192   0.780
 8286TIP3    H124801   1.228   4.242   0.801
 8286TIP3    H224802   1.126   4.221   0.692
 8287TIP3   OH224803   5.912   4.887   5.834
 8287TIP3    H124804   5.898   4.793   5.852
 8287TIP3    H224805   5.952   4.920   5.914
 8288TIP3   OH224806   1.251   2.029   1.927
 8288TIP3    H124807   1.345   2.031   1.947
 8288TIP3    H224808   1.236   1.941   1.893
 8289TIP3   OH224809   3.086   3.829   2.318
 8289TIP3    H124810   3.093   3.850   2.411
 8289TIP3    H224811   3.143   3.892   2.275
 8290TIP3   OH224812   6.491   5.690   4.198
 8290TIP3    H124813   6.519   5.777   4.171
 8290TIP3    H224814   6.402   5.701   4.230
 8291TIP3   OH224815   7.441   7.080   2.967
 8291TIP3    H124816   7.359   7.032   2.977
 8291TIP3    H224817   7.497   7.021   2.916
 8292TIP3   OH224818   6.006   6.991   3.664
 8292TIP3    H124819   6.094   7.005   3.630
 8292TIP3    H224820   6.003   6.898   3.687
 8293TIP3   OH224821   1.740   4.629   6.541
 8293TIP3    H124822   1.805   4.627   6.611
 8293TIP3    H224823   1.659   4.600   6.582
 8294TIP3   OH224824   1.345   4.703   2.822
 8294TIP3    H124825   1.439   4.719   2.832
 8294TIP3    H224826   1.338   4.654   2.740
 8295TIP3   OH224827   0.661   5.713   0.867
 8295TIP3    H124828   0.619   5.700   0.782
 8295TIP3    H224829   0.755   5.720   0.847
 8296TIP3   OH224830   7.604   0.960   5.067
 8296TIP3    H124831   7.671   1.028   5.070
 8296TIP3    H224832   7.628   0.901   5.139
 8297TIP3   OH224833   2.528   6.103   5.931
 8297TIP3    H124834   2.542   6.038   6.000
 8297TIP3    H224835   2.462   6.063   5.874
 8298TIP3   OH224836   2.835   3.953   2.333
 8298TIP3    H124837   2.788   3.970   2.251
 8298TIP3    H224838   2.872   3.865   2.322
 8299TIP3   OH224839   7.083   7.343   4.956
 8299TIP3    H124840   7.070   7.248   4.957
 8299TIP3    H224841   7.045   7.373   5.038
 8300TIP3   OH224842   7.098   0.072   1.419
 8300TIP3    H124843   7.041   0.105   1.488
 8300TIP3    H224844   7.183   0.113   1.437
 8301TIP3   OH224845   3.123   3.583   5.176
 8301TIP3    H124846   3.148   3.637   5.101
 8301TIP3    H224847   3.078   3.644   5.235
 8302TIP3   OH224848   7.141   3.991   3.959
 8302TIP3    H124849   7.208   3.943   4.008
 8302TIP3    H224850   7.174   4.081   3.955
 8303TIP3   OH224851   1.743   7.491   0.982
 8303TIP3    H124852   1.677   7.516   0.919
 8303TIP3    H224853   1.702   7.422   1.035
 8304TIP3   OH224854   6.378   5.771   2.676
 8304TIP3    H124855   6.417   5.684   2.683
 8304TIP3    H224856   6.309   5.761   2.610
 8305TIP3   OH224857   1.419   3.611   1.107
 8305TIP3    H124858   1.351   3.623   1.173
 8305TIP3    H224859   1.434   3.516   1.105
 8306TIP3   OH224860   2.380   1.729   0.261
 8306TIP3    H124861   2.325   1.663   0.302
 8306TIP3    H224862   2.327   1.763   0.189
 8307TIP3   OH224863   0.391   6.807   2.943
 8307TIP3    H124864   0.349   6.735   2.989
 8307TIP3    H224865   0.477   6.816   2.985
 8308TIP3   OH224866   7.686   2.314   3.151
 8308TIP3    H124867   7.730   2.364   3.082
 8308TIP3    H224868   7.633   2.250   3.103
 8309TIP3   OH224869   2.354   1.370   6.022
 8309TIP3    H124870   2.294   1.445   6.024
 8309TIP3    H224871   2.373   1.351   6.114
 8310TIP3   OH224872   2.760   3.428   2.180
 8310TIP3    H124873   2.669   3.409   2.204
 8310TIP3    H224874   2.809   3.414   2.261
 8311TIP3   OH224875   2.385   2.862   1.852
 8311TIP3    H124876   2.397   2.797   1.783
 8311TIP3    H224877   2.323   2.821   1.913
 8312TIP3   OH224878   2.469   5.107   2.254
 8312TIP3    H124879   2.458   5.040   2.187
 8312TIP3    H224880   2.402   5.086   2.320
 8313TIP3   OH224881   5.641   7.670   5.920
 8313TIP3    H124882   5.708   7.686   5.987
 8313TIP3    H224883   5.639   7.574   5.911
 8314TIP3   OH224884   3.292   6.739   3.084
 8314TIP3    H124885   3.300   6.810   3.148
 8314TIP3    H224886   3.199   6.738   3.061
 8315TIP3   OH224887   3.777   6.871   2.563
 8315TIP3    H124888   3.754   6.780   2.583
 8315TIP3    H224889   3.766   6.878   2.468
 8316TIP3   OH224890   4.467   2.547   4.230
 8316TIP3    H124891   4.394   2.563   4.170
 8316TIP3    H224892   4.520   2.626   4.225
 8317TIP3   OH224893   4.370   6.930   4.694
 8317TIP3    H124894   4.301   6.986   4.659
 8317TIP3    H224895   4.386   6.964   4.782
 8318TIP3   OH224896   4.058   2.783   1.712
 8318TIP3    H124897   4.039   2.727   1.786
 8318TIP3    H224898   3.994   2.854   1.719
 8319TIP3   OH224899   6.018   5.755   1.554
 8319TIP3    H124900   6.012   5.850   1.547
 8319TIP3    H224901   6.091   5.731   1.497
 8320TIP3   OH224902   5.016   6.212   3.527
 8320TIP3    H124903   4.993   6.300   3.558
 8320TIP3    H224904   5.104   6.197   3.560
 8321TIP3   OH224905   0.598   7.108   5.878
 8321TIP3    H124906   0.669   7.048   5.899
 8321TIP3    H224907   0.614   7.134   5.787
 8322TIP3   OH224908   7.960   5.610   2.523
 8322TIP3    H124909   7.940   5.660   2.445
 8322TIP3    H224910   7.880   5.560   2.541
 8323TIP3   OH224911   0.491   5.060   3.430
 8323TIP3    H124912   0.426   4.996   3.403
 8323TIP3    H224913   0.526   5.095   3.348
 8324TIP3   OH224914   6.684   2.685   5.190
 8324TIP3    H124915   6.655   2.756   5.133
 8324TIP3    H224916   6.741   2.728   5.254
 8325TIP3   OH224917   1.618   6.610   5.599
 8325TIP3    H124918   1.591   6.520   5.618
 8325TIP3    H224919   1.535   6.658   5.589
 8326TIP3   OH224920   6.433   5.270   4.282
 8326TIP3    H124921   6.380   5.279   4.203
 8326TIP3    H224922   6.510   5.220   4.254
 8327TIP3   OH224923   6.588   4.864   4.436
 8327TIP3    H124924   6.654   4.794   4.428
 8327TIP3    H224925   6.559   4.880   4.347
 8328TIP3   OH224926   3.233   6.721   2.590
 8328TIP3    H124927   3.289   6.657   2.634
 8328TIP3    H224928   3.172   6.668   2.538
 8329TIP3   OH224929   8.053   3.022   2.805
 8329TIP3    H124930   8.100   2.938   2.799
 8329TIP3    H224931   8.123   3.088   2.802
 8330TIP3   OH224932   6.784   0.850   6.674
 8330TIP3    H124933   6.763   0.928   6.727
 8330TIP3    H224934   6.857   0.808   6.720
 8331TIP3   OH224935   2.221   0.365   1.837
 8331TIP3    H124936   2.141   0.417   1.835
 8331TIP3    H224937   2.192   0.276   1.858
 8332TIP3   OH224938   0.232   3.633   3.029
 8332TIP3    H124939   0.281   3.584   2.963
 8332TIP3    H224940   0.187   3.701   2.980
 8333TIP3   OH224941   2.672   7.811   1.350
 8333TIP3    H124942   2.584   7.774   1.339
 8333TIP3    H224943   2.702   7.776   1.434
 8334TIP3   OH224944   4.049   3.987   4.018
 8334TIP3    H124945   4.133   3.943   4.006
 8334TIP3    H224946   4.067   4.057   4.081
 8335TIP3   OH224947   6.151   6.167   3.087
 8335TIP3    H124948   6.169   6.165   2.993
 8335TIP3    H224949   6.141   6.260   3.108
 8336TIP3   OH224950   7.522   2.880   4.499
 8336TIP3    H124951   7.556   2.792   4.513
 8336TIP3    H224952   7.461   2.894   4.572
 8337TIP3   OH224953   1.104   5.284   0.119
 8337TIP3    H124954   1.041   5.244   0.179
 8337TIP3    H224955   1.052   5.344   0.066
 8338TIP3   OH224956   5.960   2.829   6.773
 8338TIP3    H124957   6.007   2.894   6.826
 8338TIP3    H224958   5.909   2.880   6.711
 8339TIP3   OH224959   3.792   5.327   5.430
 8339TIP3    H124960   3.720   5.296   5.485
 8339TIP3    H224961   3.827   5.248   5.389
 8340TIP3   OH224962   5.944   7.160   0.832
 8340TIP3    H124963   5.971   7.210   0.910
 8340TIP3    H224964   5.857   7.193   0.811
 8341TIP3   OH224965   1.198   0.086   0.596
 8341TIP3    H124966   1.248   0.004   0.599
 8341TIP3    H224967   1.140   0.082   0.672
 8342TIP3   OH224968   2.329   6.281   4.789
 8342TIP3    H124969   2.387   6.206   4.773
 8342TIP3    H224970   2.386   6.347   4.829
 8343TIP3   OH224971   3.521   3.354   4.665
 8343TIP3    H124972   3.604   3.372   4.710
 8343TIP3    H224973   3.455   3.370   4.732
 8344TIP3   OH224974   5.677   1.759   6.076
 8344TIP3    H124975   5.764   1.786   6.102
 8344TIP3    H224976   5.691   1.689   6.012
 8345TIP3   OH224977   1.493   0.892   1.641
 8345TIP3    H124978   1.517   0.984   1.639
 8345TIP3    H224979   1.564   0.848   1.593
 8346TIP3   OH224980   1.031   2.236   2.390
 8346TIP3    H124981   0.983   2.173   2.336
 8346TIP3    H224982   1.069   2.183   2.460
 8347TIP3   OH224983   5.818   6.913   5.144
 8347TIP3    H124984   5.733   6.886   5.109
 8347TIP3    H224985   5.845   6.842   5.201
 8348TIP3   OH224986   8.200   3.769   5.080
 8348TIP3    H124987   8.287   3.764   5.040
 8348TIP3    H224988   8.154   3.692   5.048
 8349TIP3   OH224989   7.767   6.174   5.447
 8349TIP3    H124990   7.837   6.135   5.395
 8349TIP3    H224991   7.773   6.130   5.532
 8350TIP3   OH224992   1.111   0.994   6.536
 8350TIP3    H124993   1.077   0.994   6.447
 8350TIP3    H224994   1.062   0.925   6.581
 8351TIP3   OH224995   1.267   2.416   0.389
 8351TIP3    H124996   1.276   2.509   0.369
 8351TIP3    H224997   1.198   2.386   0.330
 8352TIP3   OH224998   4.917   5.256   1.559
 8352TIP3    H124999   5.009   5.275   1.578
 8352TIP3    H225000   4.869   5.304   1.626
 8353TIP3   OH225001   8.129   4.717   6.742
 8353TIP3    H125002   8.086   4.707   6.827
 8353TIP3    H225003   8.183   4.639   6.733
 8354TIP3   OH225004   4.397   1.589   0.748
 8354TIP3    H125005   4.418   1.664   0.693
 8354TIP3    H225006   4.350   1.626   0.823
 8355TIP3   OH225007   7.802   4.326   4.096
 8355TIP3    H125008   7.873   4.288   4.149
 8355TIP3    H225009   7.828   4.310   4.005
 8356TIP3   OH225010   0.485   7.266   2.650
 8356TIP3    H125011   0.407   7.211   2.658
 8356TIP3    H225012   0.480   7.326   2.725
 8357TIP3   OH225013   6.011   6.680   0.488
 8357TIP3    H125014   6.031   6.769   0.519
 8357TIP3    H225015   5.980   6.691   0.399
 8358TIP3   OH225016   6.241   4.912   4.928
 8358TIP3    H125017   6.272   4.827   4.897
 8358TIP3    H225018   6.159   4.926   4.880
 8359TIP3   OH225019   7.711   0.178   1.267
 8359TIP3    H125020   7.697   0.269   1.242
 8359TIP3    H225021   7.800   0.158   1.237
 8360TIP3   OH225022   3.711   0.552   0.220
 8360TIP3    H125023   3.631   0.565   0.271
 8360TIP3    H225024   3.684   0.495   0.148
 8361TIP3   OH225025   1.112   3.021   6.327
 8361TIP3    H125026   1.081   2.942   6.373
 8361TIP3    H225027   1.194   2.994   6.286
 8362TIP3   OH225028   0.810   7.649   5.011
 8362TIP3    H125029   0.872   7.712   5.049
 8362TIP3    H225030   0.747   7.632   5.081
 8363TIP3   OH225031   1.490   6.805   3.673
 8363TIP3    H125032   1.523   6.738   3.733
 8363TIP3    H225033   1.397   6.812   3.694
 8364TIP3   OH225034   0.523   0.319   1.633
 8364TIP3    H125035   0.587   0.291   1.568
 8364TIP3    H225036   0.462   0.246   1.640
 8365TIP3   OH225037   7.958   3.054   3.383
 8365TIP3    H125038   7.991   3.008   3.306
 8365TIP3    H225039   8.026   3.041   3.450
 8366TIP3   OH225040   6.213   4.682   4.347
 8366TIP3    H125041   6.189   4.692   4.439
 8366TIP3    H225042   6.200   4.589   4.329
 8367TIP3   OH225043   3.465   6.375   5.083
 8367TIP3    H125044   3.478   6.302   5.144
 8367TIP3    H225045   3.538   6.434   5.102
 8368TIP3   OH225046   7.408   2.767   1.597
 8368TIP3    H125047   7.488   2.814   1.619
 8368TIP3    H225048   7.415   2.684   1.644
 8369TIP3   OH225049   4.926   1.291   1.219
 8369TIP3    H125050   4.867   1.359   1.252
 8369TIP3    H225051   4.946   1.319   1.129
 8370TIP3   OH225052   1.896   5.219   6.086
 8370TIP3    H125053   1.960   5.191   6.021
 8370TIP3    H225054   1.822   5.252   6.035
 8371TIP3   OH225055   6.212   4.070   4.632
 8371TIP3    H125056   6.295   4.057   4.586
 8371TIP3    H225057   6.145   4.050   4.567
 8372TIP3   OH225058   6.827   6.400   3.724
 8372TIP3    H125059   6.840   6.439   3.810
 8372TIP3    H225060   6.890   6.444   3.667
 8373TIP3   OH225061   3.292   3.405   4.804
 8373TIP3    H125062   3.245   3.344   4.862
 8373TIP3    H225063   3.242   3.405   4.723
 8374TIP3   OH225064   7.233   0.319   3.833
 8374TIP3    H125065   7.170   0.376   3.790
 8374TIP3    H225066   7.217   0.330   3.927
 8375TIP3   OH225067   4.029   3.087   3.109
 8375TIP3    H125068   4.021   3.003   3.154
 8375TIP3    H225069   3.979   3.148   3.163
 8376TIP3   OH225070   5.593   4.791   1.535
 8376TIP3    H125071   5.619   4.700   1.550
 8376TIP3    H225072   5.501   4.795   1.561
 8377TIP3   OH225073   3.679   7.677   5.501
 8377TIP3    H125074   3.767   7.662   5.467
 8377TIP3    H225075   3.631   7.597   5.481
 8378TIP3   OH225076   2.184   0.441   2.589
 8378TIP3    H125077   2.139   0.477   2.665
 8378TIP3    H225078   2.121   0.449   2.518
 8379TIP3   OH225079   2.331   6.507   2.566
 8379TIP3    H125080   2.263   6.566   2.532
 8379TIP3    H225081   2.310   6.422   2.527
 8380TIP3   OH225082   6.388   1.550   5.776
 8380TIP3    H125083   6.459   1.493   5.747
 8380TIP3    H225084   6.334   1.493   5.832
 8381TIP3   OH225085   2.702   3.548   6.730
 8381TIP3    H125086   2.793   3.577   6.739
 8381TIP3    H225087   2.683   3.558   6.637
 8382TIP3   OH225088   6.831   3.145   4.894
 8382TIP3    H125089   6.925   3.155   4.884
 8382TIP3    H225090   6.807   3.206   4.964
 8383TIP3   OH225091   7.959   0.193   1.131
 8383TIP3    H125092   8.042   0.236   1.112
 8383TIP3    H225093   7.916   0.184   1.046
 8384TIP3   OH225094   7.046   0.291   3.525
 8384TIP3    H125095   7.082   0.218   3.576
 8384TIP3    H225096   6.972   0.322   3.577
 8385TIP3   OH225097   5.765   4.279   0.537
 8385TIP3    H125098   5.781   4.270   0.443
 8385TIP3    H225099   5.671   4.288   0.546
 8386TIP3   OH225100   4.609   1.028   5.258
 8386TIP3    H125101   4.569   1.106   5.298
 8386TIP3    H225102   4.639   1.058   5.172
 8387TIP3   OH225103   2.917   6.217   1.287
 8387TIP3    H125104   2.866   6.262   1.219
 8387TIP3    H225105   2.859   6.216   1.363
 8388TIP3   OH225106   2.830   3.955   3.011
 8388TIP3    H125107   2.907   3.941   2.956
 8388TIP3    H225108   2.773   3.881   2.991
 8389TIP3   OH225109   2.784   2.507   5.758
 8389TIP3    H125110   2.749   2.424   5.725
 8389TIP3    H225111   2.729   2.574   5.719
 8390TIP3   OH225112   7.579   4.943   1.076
 8390TIP3    H125113   7.601   5.034   1.097
 8390TIP3    H225114   7.649   4.892   1.115
 8391TIP3   OH225115   3.952   4.282   1.549
 8391TIP3    H125116   3.974   4.194   1.581
 8391TIP3    H225117   3.913   4.267   1.463
 8392TIP3   OH225118   3.673   1.900   2.199
 8392TIP3    H125119   3.611   1.904   2.271
 8392TIP3    H225120   3.619   1.907   2.120
 8393TIP3   OH225121   5.045   4.198   3.326
 8393TIP3    H125122   5.070   4.287   3.351
 8393TIP3    H225123   5.043   4.150   3.408
 8394TIP3   OH225124   4.589   2.881   2.109
 8394TIP3    H125125   4.507   2.915   2.074
 8394TIP3    H225126   4.611   2.808   2.051
 8395TIP3   OH225127   1.538   7.479   1.980
 8395TIP3    H125128   1.578   7.404   2.025
 8395TIP3    H225129   1.524   7.544   2.048
 8396TIP3   OH225130   3.996   7.229   1.645
 8396TIP3    H125131   4.012   7.209   1.553
 8396TIP3    H225132   4.076   7.273   1.675
 8397TIP3   OH225133   7.313   5.616   5.682
 8397TIP3    H125134   7.219   5.617   5.696
 8397TIP3    H225135   7.336   5.707   5.665
 8398TIP3   OH225136   2.829   1.450   4.864
 8398TIP3    H125137   2.794   1.502   4.936
 8398TIP3    H225138   2.824   1.509   4.788
 8399TIP3   OH225139   1.487   5.027   4.015
 8399TIP3    H125140   1.416   4.963   4.013
 8399TIP3    H225141   1.482   5.071   3.931
 8400TIP3   OH225142   0.205   7.457   1.666
 8400TIP3    H125143   0.279   7.515   1.652
 8400TIP3    H225144   0.129   7.507   1.636
 8401TIP3   OH225145   0.753   0.709   4.254
 8401TIP3    H125146   0.680   0.768   4.276
 8401TIP3    H225147   0.756   0.647   4.327
 8402TIP3   OH225148   7.920   6.182   2.184
 8402TIP3    H125149   7.960   6.252   2.133
 8402TIP3    H225150   7.945   6.200   2.275
 8403TIP3   OH225151   6.756   0.895   1.103
 8403TIP3    H125152   6.837   0.944   1.118
 8403TIP3    H225153   6.733   0.915   1.013
 8404TIP3   OH225154   5.951   1.567   3.776
 8404TIP3    H125155   5.998   1.532   3.700
 8404TIP3    H225156   6.020   1.603   3.832
 8405TIP3   OH225157   6.333   6.016   4.900
 8405TIP3    H125158   6.329   5.988   4.808
 8405TIP3    H225159   6.405   5.965   4.937
 8406TIP3   OH225160   3.475   3.482   5.895
 8406TIP3    H125161   3.529   3.524   5.827
 8406TIP3    H225162   3.390   3.524   5.888
 8407TIP3   OH225163   4.020   4.819   1.463
 8407TIP3    H125164   4.035   4.838   1.371
 8407TIP3    H225165   4.106   4.793   1.497
 8408TIP3   OH225166   4.902   7.360   4.180
 8408TIP3    H125167   4.905   7.318   4.094
 8408TIP3    H225168   4.810   7.379   4.194
 8409TIP3   OH225169   2.909   1.251   4.168
 8409TIP3    H125170   2.905   1.165   4.125
 8409TIP3    H225171   2.956   1.235   4.250
 8410TIP3   OH225172   5.917   1.152   3.475
 8410TIP3    H125173   5.895   1.064   3.445
 8410TIP3    H225174   6.000   1.172   3.432
 8411TIP3   OH225175   2.070   7.454   4.301
 8411TIP3    H125176   2.148   7.437   4.354
 8411TIP3    H225177   2.091   7.535   4.254
 8412TIP3   OH225178   8.061   4.499   5.670
 8412TIP3    H125179   7.998   4.500   5.599
 8412TIP3    H225180   8.038   4.574   5.724
 8413TIP3   OH225181   0.124   1.396   3.309
 8413TIP3    H125182   0.087   1.449   3.238
 8413TIP3    H225183   0.137   1.457   3.381
 8414TIP3   OH225184   6.662   0.156   0.306
 8414TIP3    H125185   6.637   0.140   0.216
 8414TIP3    H225186   6.723   0.086   0.327
 8415TIP3   OH225187   1.667   1.017   4.332
 8415TIP3    H125188   1.625   0.935   4.307
 8415TIP3    H225189   1.761   0.998   4.331
 8416TIP3   OH225190   7.679   7.137   3.085
 8416TIP3    H125191   7.721   7.054   3.063
 8416TIP3    H225192   7.591   7.130   3.047
 8417TIP3   OH225193   6.473   5.625   5.072
 8417TIP3    H125194   6.487   5.540   5.030
 8417TIP3    H225195   6.533   5.626   5.146
 8418TIP3   OH225196   5.194   7.174   3.024
 8418TIP3    H125197   5.266   7.154   2.964
 8418TIP3    H225198   5.152   7.090   3.041
 8419TIP3   OH225199   0.290   4.479   2.037
 8419TIP3    H125200   0.376   4.439   2.021
 8419TIP3    H225201   0.266   4.449   2.125
 8420TIP3   OH225202   5.510   6.569   6.416
 8420TIP3    H125203   5.501   6.597   6.325
 8420TIP3    H225204   5.496   6.649   6.467
 8421TIP3   OH225205   6.036   4.000   1.493
 8421TIP3    H125206   6.057   4.041   1.577
 8421TIP3    H225207   5.947   3.966   1.505
 8422TIP3   OH225208   7.105   1.315   4.875
 8422TIP3    H125209   7.139   1.322   4.964
 8422TIP3    H225210   7.181   1.292   4.822
 8423TIP3   OH225211   5.714   4.901   1.013
 8423TIP3    H125212   5.663   4.821   1.007
 8423TIP3    H225213   5.768   4.902   0.934
 8424TIP3   OH225214   6.001   3.870   5.779
 8424TIP3    H125215   6.027   3.804   5.716
 8424TIP3    H225216   5.943   3.929   5.731
 8425TIP3   OH225217   1.950   6.371   5.159
 8425TIP3    H125218   1.971   6.305   5.226
 8425TIP3    H225219   1.916   6.445   5.209
 8426TIP3   OH225220   1.159   6.998   2.572
 8426TIP3    H125221   1.140   6.994   2.665
 8426TIP3    H225222   1.090   7.053   2.536
 8427TIP3   OH225223   1.692   0.943   6.143
 8427TIP3    H125224   1.683   1.016   6.204
 8427TIP3    H225225   1.646   0.972   6.064
 8428TIP3   OH225226   6.328   0.479   0.462
 8428TIP3    H125227   6.283   0.560   0.436
 8428TIP3    H225228   6.296   0.413   0.401
 8429TIP3   OH225229   7.950   4.635   5.428
 8429TIP3    H125230   8.022   4.699   5.426
 8429TIP3    H225231   7.872   4.688   5.445
 8430TIP3   OH225232   0.556   7.082   1.389
 8430TIP3    H125233   0.479   7.026   1.403
 8430TIP3    H225234   0.625   7.042   1.442
 8431TIP3   OH225235   8.159   2.222   4.933
 8431TIP3    H125236   8.238   2.178   4.963
 8431TIP3    H225237   8.191   2.305   4.897
 8432TIP3   OH225238   6.061   3.400   0.124
 8432TIP3    H125239   6.003   3.474   0.141
 8432TIP3    H225240   6.124   3.401   0.196
 8433TIP3   OH225241   3.237   5.553   4.759
 8433TIP3    H125242   3.196   5.466   4.764
 8433TIP3    H225243   3.329   5.537   4.779
 8434TIP3   OH225244   6.319   0.971   5.407
 8434TIP3    H125245   6.400   1.021   5.398
 8434TIP3    H225246   6.295   0.948   5.317
 8435TIP3   OH225247   4.858   5.770   3.029
 8435TIP3    H125248   4.898   5.731   3.106
 8435TIP3    H225249   4.892   5.719   2.955
 8436TIP3   OH225250   2.074   5.687   1.707
 8436TIP3    H125251   2.077   5.602   1.752
 8436TIP3    H225252   2.026   5.670   1.626
 8437TIP3   OH225253   0.279   3.791   6.128
 8437TIP3    H125254   0.195   3.744   6.126
 8437TIP3    H225255   0.277   3.849   6.053
 8438TIP3   OH225256   0.293   7.466   2.069
 8438TIP3    H125257   0.352   7.466   1.993
 8438TIP3    H225258   0.351   7.456   2.145
 8439TIP3   OH225259   2.419   2.303   0.934
 8439TIP3    H125260   2.485   2.299   0.864
 8439TIP3    H225261   2.418   2.395   0.961
 8440TIP3   OH225262   5.557   3.801   3.441
 8440TIP3    H125263   5.540   3.889   3.407
 8440TIP3    H225264   5.471   3.768   3.466
 8441TIP3   OH225265   5.741   6.693   0.096
 8441TIP3    H125266   5.653   6.691   0.060
 8441TIP3    H225267   5.733   6.745   0.177
 8442TIP3   OH225268   7.071   3.820   0.289
 8442TIP3    H125269   7.078   3.858   0.377
 8442TIP3    H225270   7.130   3.873   0.236
 8443TIP3   OH225271   7.082   0.043   6.522
 8443TIP3    H125272   7.033  -0.037   6.503
 8443TIP3    H225273   7.174   0.017   6.519
 8444TIP3   OH225274   2.743   3.738   1.338
 8444TIP3    H125275   2.773   3.652   1.308
 8444TIP3    H225276   2.806   3.764   1.404
 8445TIP3   OH225277   7.823   0.298   5.967
 8445TIP3    H125278   7.784   0.280   6.053
 8445TIP3    H225279   7.890   0.230   5.956
 8446TIP3   OH225280   7.218   6.934   6.435
 8446TIP3    H125281   7.142   6.982   6.469
 8446TIP3    H225282   7.291   6.962   6.490
 8447TIP3   OH225283   0.139   4.858   2.546
 8447TIP3    H125284   0.096   4.848   2.461
 8447TIP3    H225285   0.137   4.952   2.563
 8448TIP3   OH225286   2.868   2.935   5.711
 8448TIP3    H125287   2.779   2.969   5.719
 8448TIP3    H225288   2.914   3.001   5.658
 8449TIP3   OH225289   2.218   5.408   1.526
 8449TIP3    H125290   2.133   5.389   1.566
 8449TIP3    H225291   2.258   5.322   1.510
 8450TIP3   OH225292   0.074   7.263   0.693
 8450TIP3    H125293   0.117   7.311   0.622
 8450TIP3    H225294   0.142   7.249   0.758
 8451TIP3   OH225295   4.904   6.509   2.766
 8451TIP3    H125296   4.890   6.551   2.851
 8451TIP3    H225297   4.900   6.415   2.785
 8452TIP3   OH225298   4.479   6.874   5.654
 8452TIP3    H125299   4.446   6.919   5.732
 8452TIP3    H225300   4.556   6.826   5.685
 8453TIP3   OH225301   2.380   6.460   1.173
 8453TIP3    H125302   2.364   6.459   1.079
 8453TIP3    H225303   2.475   6.473   1.182
 8454TIP3   OH225304   7.908   4.079   5.850
 8454TIP3    H125305   7.892   3.997   5.897
 8454TIP3    H225306   7.824   4.099   5.808
 8455TIP3   OH225307   5.813   5.652   0.369
 8455TIP3    H125308   5.862   5.715   0.422
 8455TIP3    H225309   5.821   5.684   0.280
 8456TIP3   OH225310   6.859   7.672   0.692
 8456TIP3    H125311   6.943   7.674   0.737
 8456TIP3    H225312   6.798   7.639   0.759
 8457TIP3   OH225313   5.308   5.525   6.605
 8457TIP3    H125314   5.231   5.476   6.575
 8457TIP3    H225315   5.315   5.504   6.699
 8458TIP3   OH225316   8.237   6.549   1.945
 8458TIP3    H125317   8.193   6.550   1.860
 8458TIP3    H225318   8.195   6.618   1.996
 8459TIP3   OH225319   7.490   2.722   6.231
 8459TIP3    H125320   7.571   2.683   6.197
 8459TIP3    H225321   7.474   2.798   6.176
 8460TIP3   OH225322   1.028   7.334   2.100
 8460TIP3    H125323   0.999   7.382   2.023
 8460TIP3    H225324   1.121   7.317   2.084
 8461TIP3   OH225325   4.815   3.122   3.045
 8461TIP3    H125326   4.730   3.126   3.001
 8461TIP3    H225327   4.879   3.131   2.974
 8462TIP3   OH225328   1.698   1.000   0.059
 8462TIP3    H125329   1.696   0.983   0.153
 8462TIP3    H225330   1.705   1.095   0.051
 8463TIP3   OH225331   1.350   3.027   3.396
 8463TIP3    H125332   1.309   2.946   3.365
 8463TIP3    H225333   1.419   2.997   3.455
 8464TIP3   OH225334   1.813   4.953   0.982
 8464TIP3    H125335   1.766   5.012   1.041
 8464TIP3    H225336   1.811   4.997   0.897
 8465TIP3   OH225337   1.050   0.476   5.290
 8465TIP3    H125338   0.989   0.549   5.301
 8465TIP3    H225339   1.016   0.428   5.214
 8466TIP3   OH225340   2.281   4.056   0.219
 8466TIP3    H125341   2.271   4.096   0.133
 8466TIP3    H225342   2.271   4.129   0.280
 8467TIP3   OH225343   0.067   5.918   2.766
 8467TIP3    H125344   0.088   5.885   2.853
 8467TIP3    H225345  -0.007   5.865   2.737
 8468TIP3   OH225346   5.578   4.563   0.398
 8468TIP3    H125347   5.579   4.640   0.455
 8468TIP3    H225348   5.499   4.515   0.423
 8469TIP3   OH225349   6.965   1.839   1.789
 8469TIP3    H125350   6.951   1.745   1.798
 8469TIP3    H225351   6.928   1.876   1.868
 8470TIP3   OH225352   7.051   7.479   4.715
 8470TIP3    H125353   7.087   7.553   4.764
 8470TIP3    H225354   7.038   7.411   4.781
 8471TIP3   OH225355   0.794   7.741   4.301
 8471TIP3    H125356   0.770   7.815   4.247
 8471TIP3    H225357   0.791   7.774   4.391
 8472TIP3   OH225358   6.092   5.358   5.158
 8472TIP3    H125359   6.134   5.293   5.102
 8472TIP3    H225360   6.039   5.306   5.219
 8473TIP3   OH225361   3.141   1.483   3.615
 8473TIP3    H125362   3.179   1.555   3.666
 8473TIP3    H225363   3.086   1.436   3.677
 8474TIP3   OH225364   0.772   4.788   0.434
 8474TIP3    H125365   0.836   4.860   0.442
 8474TIP3    H225366   0.689   4.828   0.459
 8475TIP3   OH225367   5.609   5.282   4.057
 8475TIP3    H125368   5.702   5.263   4.070
 8475TIP3    H225369   5.565   5.235   4.129
 8476TIP3   OH225370   0.570   7.802   5.585
 8476TIP3    H125371   0.664   7.794   5.601
 8476TIP3    H225372   0.537   7.712   5.594
 8477TIP3   OH225373   2.372   1.166   3.433
 8477TIP3    H125374   2.422   1.090   3.462
 8477TIP3    H225375   2.312   1.185   3.505
 8478TIP3   OH225376   0.048   7.747   4.613
 8478TIP3    H125377  -0.012   7.690   4.565
 8478TIP3    H225378   0.114   7.688   4.649
 8479TIP3   OH225379   2.107   0.557   1.052
 8479TIP3    H125380   2.115   0.477   1.103
 8479TIP3    H225381   2.100   0.528   0.961
 8480TIP3   OH225382   2.319   7.817   5.229
 8480TIP3    H125383   2.338   7.795   5.138
 8480TIP3    H225384   2.246   7.760   5.254
 8481TIP3   OH225385   3.881   7.697   3.664
 8481TIP3    H125386   3.905   7.629   3.726
 8481TIP3    H225387   3.965   7.738   3.639
 8482TIP3   OH225388   4.673   7.733   5.293
 8482TIP3    H125389   4.631   7.704   5.213
 8482TIP3    H225390   4.645   7.823   5.305
 8483TIP3   OH225391   7.098   7.541   2.910
 8483TIP3    H125392   7.021   7.487   2.922
 8483TIP3    H225393   7.087   7.579   2.823
 8484TIP3   OH225394   6.188   6.427   4.071
 8484TIP3    H125395   6.249   6.456   4.003
 8484TIP3    H225396   6.115   6.388   4.022
 8485TIP3   OH225397   0.814   3.334   1.465
 8485TIP3    H125398   0.732   3.383   1.456
 8485TIP3    H225399   0.787   3.246   1.489
 8486TIP3   OH225400   3.291   1.353   3.327
 8486TIP3    H125401   3.339   1.435   3.339
 8486TIP3    H225402   3.354   1.294   3.285
 8487TIP3   OH225403   7.433   6.811   6.278
 8487TIP3    H125404   7.451   6.865   6.201
 8487TIP3    H225405   7.510   6.822   6.334
 8488TIP3   OH225406   7.586   7.179   1.341
 8488TIP3    H125407   7.504   7.143   1.376
 8488TIP3    H225408   7.644   7.103   1.334
 8489TIP3   OH225409   1.936   7.691   2.872
 8489TIP3    H125410   1.953   7.713   2.780
 8489TIP3    H225411   1.848   7.655   2.872
 8490TIP3   OH225412   2.927   0.399   2.314
 8490TIP3    H125413   2.907   0.485   2.277
 8490TIP3    H225414   2.848   0.347   2.299
 8491TIP3   OH225415   7.846   1.065   1.035
 8491TIP3    H125416   7.862   1.159   1.026
 8491TIP3    H225417   7.812   1.055   1.124
 8492TIP3   OH225418   4.775   6.122   5.040
 8492TIP3    H125419   4.797   6.050   5.099
 8492TIP3    H225420   4.681   6.138   5.055
 8493TIP3   OH225421   7.646   5.077   5.437
 8493TIP3    H125422   7.610   5.089   5.350
 8493TIP3    H225423   7.581   5.116   5.496
 8494TIP3   OH225424   6.742   2.144   0.014
 8494TIP3    H125425   6.795   2.090   0.073
 8494TIP3    H225426   6.746   2.232   0.051
 8495TIP3   OH225427   1.792   0.581   2.494
 8495TIP3    H125428   1.784   0.564   2.588
 8495TIP3    H225429   1.846   0.509   2.461
 8496TIP3   OH225430   4.329   2.613   1.244
 8496TIP3    H125431   4.322   2.709   1.247
 8496TIP3    H225432   4.422   2.596   1.254
 8497TIP3   OH225433   7.941   3.872   4.227
 8497TIP3    H125434   7.965   3.964   4.215
 8497TIP3    H225435   8.021   3.829   4.256
 8498TIP3   OH225436   2.603   2.830   4.232
 8498TIP3    H125437   2.627   2.786   4.150
 8498TIP3    H225438   2.632   2.921   4.220
 8499TIP3   OH225439   2.087   5.593   5.288
 8499TIP3    H125440   2.030   5.559   5.218
 8499TIP3    H225441   2.130   5.515   5.324
 8500TIP3   OH225442   8.064   4.699   2.647
 8500TIP3    H125443   7.970   4.700   2.664
 8500TIP3    H225444   8.072   4.725   2.555
 8501TIP3   OH225445   5.018   2.875   2.706
 8501TIP3    H125446   4.951   2.807   2.698
 8501TIP3    H225447   5.069   2.849   2.783
 8502TIP3   OH225448   1.875   2.055   3.658
 8502TIP3    H125449   1.907   1.967   3.638
 8502TIP3    H225450   1.953   2.111   3.650
 8503TIP3   OH225451   0.751   7.591   3.723
 8503TIP3    H125452   0.734   7.651   3.796
 8503TIP3    H225453   0.847   7.593   3.712
 8504TIP3   OH225454   1.947   0.985   0.416
 8504TIP3    H125455   1.949   0.999   0.510
 8504TIP3    H225456   1.983   1.066   0.379
 8505TIP3   OH225457   5.904   2.126   3.945
 8505TIP3    H125458   5.934   2.062   3.880
 8505TIP3    H225459   5.980   2.141   4.001
 8506TIP3   OH225460   6.235   6.651   4.874
 8506TIP3    H125461   6.153   6.684   4.836
 8506TIP3    H225462   6.274   6.598   4.804
 8507TIP3   OH225463   3.566   0.577   2.716
 8507TIP3    H125464   3.619   0.643   2.671
 8507TIP3    H225465   3.476   0.600   2.694
 8508TIP3   OH225466   5.345   4.099   5.570
 8508TIP3    H125467   5.269   4.069   5.520
 8508TIP3    H225468   5.316   4.098   5.661
 8509TIP3   OH225469   3.447   6.888   2.448
 8509TIP3    H125470   3.370   6.843   2.483
 8509TIP3    H225471   3.519   6.858   2.503
 8510TIP3   OH225472   1.335   7.275   5.380
 8510TIP3    H125473   1.319   7.268   5.474
 8510TIP3    H225474   1.344   7.184   5.351
 8511TIP3   OH225475   8.071   7.104   2.275
 8511TIP3    H125476   8.021   7.141   2.201
 8511TIP3    H225477   8.076   7.175   2.339
 8512TIP3   OH225478   2.914   7.488   2.049
 8512TIP3    H125479   2.863   7.513   1.972
 8512TIP3    H225480   2.949   7.571   2.082
 8513TIP3   OH225481   1.392   0.552   6.077
 8513TIP3    H125482   1.473   0.603   6.068
 8513TIP3    H225483   1.336   0.585   6.007
 8514TIP3   OH225484   6.428   7.486   4.463
 8514TIP3    H125485   6.481   7.485   4.543
 8514TIP3    H225486   6.486   7.525   4.397
 8515TIP3   OH225487   1.724   5.054   0.432
 8515TIP3    H125488   1.784   4.993   0.476
 8515TIP3    H225489   1.776   5.133   0.417
 8516TIP3   OH225490   7.957   6.639   0.859
 8516TIP3    H125491   8.046   6.668   0.839
 8516TIP3    H225492   7.902   6.711   0.829
 8517TIP3   OH225493   6.308   2.544   3.968
 8517TIP3    H125494   6.319   2.449   3.975
 8517TIP3    H225495   6.300   2.560   3.874
 8518TIP3   OH225496   0.595   1.878   5.063
 8518TIP3    H125497   0.681   1.917   5.045
 8518TIP3    H225498   0.608   1.829   5.145
 8519TIP3   OH225499   2.526   6.340   0.015
 8519TIP3    H125500   2.576   6.411   0.056
 8519TIP3    H225501   2.471   6.384  -0.049
 8520TIP3   OH225502   7.966   5.433   5.913
 8520TIP3    H125503   7.954   5.412   6.006
 8520TIP3    H225504   8.061   5.428   5.900
 8521TIP3   OH225505   3.271   1.119   6.468
 8521TIP3    H125506   3.183   1.119   6.431
 8521TIP3    H225507   3.327   1.083   6.399
 8522TIP3   OH225508   3.921   0.265   3.946
 8522TIP3    H125509   3.839   0.310   3.927
 8522TIP3    H225510   3.960   0.249   3.861
 8523TIP3   OH225511   6.221   0.169   6.437
 8523TIP3    H125512   6.193   0.214   6.357
 8523TIP3    H225513   6.293   0.223   6.471
 8524TIP3   OH225514   0.315   7.029   0.464
 8524TIP3    H125515   0.280   7.003   0.549
 8524TIP3    H225516   0.241   7.020   0.404
 8525TIP3   OH225517   2.898   0.991   4.046
 8525TIP3    H125518   2.858   0.912   4.083
 8525TIP3    H225519   2.841   1.014   3.972
 8526TIP3   OH225520   2.430   7.015   4.679
 8526TIP3    H125521   2.377   7.071   4.737
 8526TIP3    H225522   2.476   6.956   4.739
 8527TIP3   OH225523   7.185   5.373   2.514
 8527TIP3    H125524   7.108   5.356   2.568
 8527TIP3    H225525   7.160   5.343   2.426
 8528TIP3   OH225526   5.072   4.474   1.162
 8528TIP3    H125527   5.157   4.455   1.201
 8528TIP3    H225528   5.013   4.409   1.200
 8529TIP3   OH225529   8.069   2.751   4.547
 8529TIP3    H125530   8.007   2.732   4.476
 8529TIP3    H225531   8.016   2.751   4.626
 8530TIP3   OH225532   0.259   5.016   3.891
 8530TIP3    H125533   0.346   4.997   3.926
 8530TIP3    H225534   0.220   5.076   3.954
 8531TIP3   OH225535   3.756   6.825   0.269
 8531TIP3    H125536   3.757   6.730   0.270
 8531TIP3    H225537   3.758   6.848   0.176
 8532TIP3   OH225538   3.704   5.469   6.221
 8532TIP3    H125539   3.644   5.490   6.149
 8532TIP3    H225540   3.676   5.526   6.293
 8533TIP3   OH225541   1.268   6.734   3.099
 8533TIP3    H125542   1.291   6.762   3.011
 8533TIP3    H225543   1.346   6.751   3.152
 8534TIP3   OH225544   2.578   0.315   1.129
 8534TIP3    H125545   2.574   0.379   1.058
 8534TIP3    H225546   2.498   0.330   1.179
 8535TIP3   OH225547   1.706   5.585   1.285
 8535TIP3    H125548   1.693   5.556   1.195
 8535TIP3    H225549   1.748   5.670   1.277
 8536TIP3   OH225550   0.718   6.231   3.817
 8536TIP3    H125551   0.630   6.196   3.822
 8536TIP3    H225552   0.759   6.186   3.743
 8537TIP3   OH225553   4.177   3.969   1.505
 8537TIP3    H125554   4.096   3.927   1.532
 8537TIP3    H225555   4.205   3.920   1.427
 8538TIP3   OH225556   2.118   5.628   1.357
 8538TIP3    H125557   2.181   5.565   1.392
 8538TIP3    H225558   2.034   5.600   1.393
 8539TIP3   OH225559   1.256   5.395   3.621
 8539TIP3    H125560   1.176   5.431   3.583
 8539TIP3    H225561   1.256   5.303   3.594
 8540TIP3   OH225562   1.365   4.531   5.645
 8540TIP3    H125563   1.410   4.568   5.720
 8540TIP3    H225564   1.433   4.519   5.579
 8541TIP3   OH225565   2.092   3.456   0.244
 8541TIP3    H125566   2.108   3.432   0.153
 8541TIP3    H225567   2.160   3.412   0.293
 8542TIP3   OH225568   5.745   1.810   4.301
 8542TIP3    H125569   5.749   1.896   4.260
 8542TIP3    H225570   5.829   1.800   4.345
 8543TIP3   OH225571   3.954   6.452   3.599
 8543TIP3    H125572   3.880   6.508   3.576
 8543TIP3    H225573   3.921   6.363   3.590
 8544TIP3   OH225574   4.937   2.825   4.447
 8544TIP3    H125575   4.933   2.918   4.425
 8544TIP3    H225576   5.024   2.797   4.419
 8545TIP3   OH225577   0.643   3.057   3.273
 8545TIP3    H125578   0.561   3.053   3.224
 8545TIP3    H225579   0.641   3.144   3.314
 8546TIP3   OH225580   1.850   1.866   4.929
 8546TIP3    H125581   1.810   1.952   4.913
 8546TIP3    H225582   1.785   1.804   4.895
 8547TIP3   OH225583   1.591   4.029   4.129
 8547TIP3    H125584   1.595   4.041   4.034
 8547TIP3    H225585   1.594   3.934   4.141
 8548TIP3   OH225586   5.021   7.082   6.250
 8548TIP3    H125587   4.995   7.026   6.177
 8548TIP3    H225588   4.997   7.171   6.222
 8549TIP3   OH225589   5.724   2.559   3.774
 8549TIP3    H125590   5.667   2.547   3.698
 8549TIP3    H225591   5.806   2.517   3.749
 8550TIP3   OH225592   7.016   5.197   0.274
 8550TIP3    H125593   7.054   5.117   0.237
 8550TIP3    H225594   6.957   5.229   0.205
 8551TIP3   OH225595   2.457   0.709   3.240
 8551TIP3    H125596   2.501   0.767   3.302
 8551TIP3    H225597   2.513   0.709   3.162
 8552TIP3   OH225598   0.107   1.116   1.577
 8552TIP3    H125599   0.052   1.186   1.612
 8552TIP3    H225600   0.185   1.161   1.545
 8553TIP3   OH225601   4.783   1.357   2.807
 8553TIP3    H125602   4.795   1.278   2.860
 8553TIP3    H225603   4.796   1.429   2.868
 8554TIP3   OH225604   0.626   2.475   5.941
 8554TIP3    H125605   0.580   2.431   5.870
 8554TIP3    H225606   0.620   2.415   6.015
 8555TIP3   OH225607   4.507   1.247   2.772
 8555TIP3    H125608   4.442   1.286   2.831
 8555TIP3    H225609   4.584   1.303   2.780
 8556TIP3   OH225610   5.624   6.103   1.509
 8556TIP3    H125611   5.695   6.142   1.561
 8556TIP3    H225612   5.627   6.010   1.530
 8557TIP3   OH225613   5.083   4.053   4.653
 8557TIP3    H125614   5.126   4.043   4.568
 8557TIP3    H225615   5.127   4.127   4.694
 8558TIP3   OH225616   0.576   2.167   3.056
 8558TIP3    H125617   0.637   2.199   3.123
 8558TIP3    H225618   0.491   2.203   3.081
 8559TIP3   OH225619   7.452   7.519   1.795
 8559TIP3    H125620   7.479   7.544   1.707
 8559TIP3    H225621   7.458   7.600   1.846
 8560TIP3   OH225622   0.632   3.398   2.985
 8560TIP3    H125623   0.584   3.367   3.061
 8560TIP3    H225624   0.644   3.320   2.931
 8561TIP3   OH225625   0.602   0.285   5.583
 8561TIP3    H125626   0.642   0.277   5.670
 8561TIP3    H225627   0.674   0.311   5.526
 8562TIP3   OH225628   2.582   0.023   1.468
 8562TIP3    H125629   2.556  -0.008   1.554
 8562TIP3    H225630   2.503   0.064   1.433
 8563TIP3   OH225631   7.381   6.059   3.737
 8563TIP3    H125632   7.366   6.038   3.829
 8563TIP3    H225633   7.425   5.981   3.701
 8564TIP3   OH225634   8.221   6.551   6.185
 8564TIP3    H125635   8.147   6.504   6.147
 8564TIP3    H225636   8.241   6.620   6.121
 8565TIP3   OH225637   3.837   6.759   1.853
 8565TIP3    H125638   3.892   6.747   1.930
 8565TIP3    H225639   3.879   6.708   1.784
 8566TIP3   OH225640   0.438   0.491   6.213
 8566TIP3    H125641   0.487   0.573   6.208
 8566TIP3    H225642   0.476   0.436   6.144
 8567TIP3   OH225643   7.269   6.666   4.442
 8567TIP3    H125644   7.191   6.708   4.409
 8567TIP3    H225645   7.237   6.592   4.493
 8568TIP3   OH225646   7.644   1.451   4.398
 8568TIP3    H125647   7.718   1.460   4.338
 8568TIP3    H225648   7.647   1.530   4.452
 8569TIP3   OH225649   3.352   6.372   3.233
 8569TIP3    H125650   3.329   6.403   3.321
 8569TIP3    H225651   3.446   6.357   3.237
 8570TIP3   OH225652   1.995   2.492   4.522
 8570TIP3    H125653   1.935   2.492   4.596
 8570TIP3    H225654   2.017   2.400   4.508
 8571TIP3   OH225655   2.815   6.554   2.708
 8571TIP3    H125656   2.887   6.577   2.649
 8571TIP3    H225657   2.741   6.608   2.678
 8572TIP3   OH225658   4.106   4.097   6.406
 8572TIP3    H125659   4.184   4.083   6.353
 8572TIP3    H225660   4.083   4.189   6.391
 8573TIP3   OH225661   7.556   1.592   5.586
 8573TIP3    H125662   7.613   1.515   5.580
 8573TIP3    H225663   7.475   1.565   5.543
 8574TIP3   OH225664   2.840   3.964   4.793
 8574TIP3    H125665   2.793   3.966   4.710
 8574TIP3    H225666   2.777   3.931   4.857
 8575TIP3   OH225667   7.663   4.330   1.558
 8575TIP3    H125668   7.630   4.257   1.609
 8575TIP3    H225669   7.743   4.296   1.517
 8576TIP3   OH225670   3.057   6.859   3.782
 8576TIP3    H125671   3.068   6.931   3.720
 8576TIP3    H225672   3.082   6.896   3.866
 8577TIP3   OH225673   5.667   0.165   3.589
 8577TIP3    H125674   5.675   0.254   3.554
 8577TIP3    H225675   5.669   0.109   3.512
 8578TIP3   OH225676   1.347   0.790   2.868
 8578TIP3    H125677   1.411   0.768   2.801
 8578TIP3    H225678   1.267   0.808   2.819
 8579TIP3   OH225679   5.107   4.095   1.883
 8579TIP3    H125680   5.071   4.017   1.840
 8579TIP3    H225681   5.045   4.164   1.864
 8580TIP3   OH225682   1.864   5.702   6.589
 8580TIP3    H125683   1.833   5.776   6.536
 8580TIP3    H225684   1.810   5.704   6.667
 8581TIP3   OH225685   4.556   7.612   2.348
 8581TIP3    H125686   4.570   7.524   2.313
 8581TIP3    H225687   4.603   7.669   2.288
 8582TIP3   OH225688   7.706   4.244   4.663
 8582TIP3    H125689   7.662   4.271   4.582
 8582TIP3    H225690   7.712   4.324   4.715
 8583TIP3   OH225691   5.973   2.715   0.759
 8583TIP3    H125692   5.922   2.784   0.802
 8583TIP3    H225693   5.950   2.722   0.667
 8584TIP3   OH225694   1.917   3.633   2.555
 8584TIP3    H125695   1.864   3.569   2.603
 8584TIP3    H225696   2.004   3.626   2.594
 8585TIP3   OH225697   1.829   4.018   4.332
 8585TIP3    H125698   1.779   3.950   4.287
 8585TIP3    H225699   1.764   4.067   4.382
 8586TIP3   OH225700   7.573   6.793   4.304
 8586TIP3    H125701   7.551   6.745   4.384
 8586TIP3    H225702   7.573   6.885   4.330
 8587TIP3   OH225703   2.371   1.108   5.178
 8587TIP3    H125704   2.304   1.050   5.141
 8587TIP3    H225705   2.324   1.160   5.243
 8588TIP3   OH225706   0.777   6.969   3.871
 8588TIP3    H125707   0.774   6.876   3.849
 8588TIP3    H225708   0.765   7.014   3.788
 8589TIP3   OH225709   4.105   3.979   2.147
 8589TIP3    H125710   4.194   3.997   2.118
 8589TIP3    H225711   4.053   4.053   2.114
 8590TIP3   OH225712   0.979   6.043   0.671
 8590TIP3    H125713   1.065   6.009   0.699
 8590TIP3    H225714   0.995   6.136   0.654
 8591TIP3   OH225715   3.233   0.164   0.932
 8591TIP3    H125716   3.207   0.099   0.867
 8591TIP3    H225717   3.326   0.147   0.946
 8592TIP3   OH225718   1.706   3.279   1.844
 8592TIP3    H125719   1.630   3.327   1.877
 8592TIP3    H225720   1.680   3.249   1.757
 8593TIP3   OH225721   5.616   3.185   2.132
 8593TIP3    H125722   5.561   3.110   2.108
 8593TIP3    H225723   5.696   3.173   2.082
 8594TIP3   OH225724   0.476   2.890   2.516
 8594TIP3    H125725   0.425   2.848   2.585
 8594TIP3    H225726   0.500   2.975   2.552
 8595TIP3   OH225727   3.959   5.114   6.723
 8595TIP3    H125728   4.045   5.129   6.762
 8595TIP3    H225729   3.898   5.155   6.784
 8596TIP3   OH225730   3.394   1.722   0.272
 8596TIP3    H125731   3.437   1.656   0.219
 8596TIP3    H225732   3.313   1.680   0.302
 8597TIP3   OH225733   6.760   0.913   0.377
 8597TIP3    H125734   6.841   0.880   0.418
 8597TIP3    H225735   6.714   0.834   0.348
 8598TIP3   OH225736   0.572   2.582   1.195
 8598TIP3    H125737   0.562   2.532   1.113
 8598TIP3    H225738   0.642   2.536   1.242
 8599TIP3   OH225739   0.694   2.468   1.574
 8599TIP3    H125740   0.739   2.503   1.651
 8599TIP3    H225741   0.634   2.538   1.547
 8600TIP3   OH225742   3.085   7.453   4.679
 8600TIP3    H125743   3.149   7.435   4.748
 8600TIP3    H225744   3.000   7.429   4.718
 8601TIP3   OH225745   2.342   5.451   4.774
 8601TIP3    H125746   2.247   5.452   4.769
 8601TIP3    H225747   2.370   5.524   4.720
 8602TIP3   OH225748   4.324   1.098   2.286
 8602TIP3    H125749   4.399   1.134   2.239
 8602TIP3    H225750   4.355   1.088   2.376
 8603TIP3   OH225751   1.887   2.071   2.874
 8603TIP3    H125752   1.804   2.110   2.901
 8603TIP3    H225753   1.862   1.993   2.824
 8604TIP3   OH225754   2.677   2.905   3.372
 8604TIP3    H125755   2.627   2.906   3.290
 8604TIP3    H225756   2.629   2.845   3.428
 8605TIP3   OH225757   0.152   2.684   3.338
 8605TIP3    H125758   0.218   2.742   3.376
 8605TIP3    H225759   0.187   2.596   3.351
 8606TIP3   OH225760   8.057   7.786   5.566
 8606TIP3    H125761   8.121   7.825   5.626
 8606TIP3    H225762   8.103   7.712   5.527
 8607TIP3   OH225763   3.820   2.451   1.222
 8607TIP3    H125764   3.797   2.472   1.132
 8607TIP3    H225765   3.908   2.413   1.217
 8608TIP3   OH225766   4.592   0.482   5.695
 8608TIP3    H125767   4.532   0.474   5.769
 8608TIP3    H225768   4.630   0.394   5.685
 8609TIP3   OH225769   4.097   1.573   3.554
 8609TIP3    H125770   4.105   1.544   3.463
 8609TIP3    H225771   4.021   1.632   3.554
 8610TIP3   OH225772   7.102   7.029   1.255
 8610TIP3    H125773   7.190   7.058   1.278
 8610TIP3    H225774   7.090   6.946   1.301
 8611TIP3   OH225775   2.987   3.046   4.164
 8611TIP3    H125776   2.952   3.085   4.244
 8611TIP3    H225777   2.923   2.978   4.141
 8612TIP3   OH225778   1.335   7.406   4.047
 8612TIP3    H125779   1.422   7.367   4.037
 8612TIP3    H225780   1.353   7.499   4.062
 8613TIP3   OH225781   7.615   2.886   0.406
 8613TIP3    H125782   7.695   2.930   0.436
 8613TIP3    H225783   7.573   2.855   0.486
 8614TIP3   OH225784   8.261   4.104   0.087
 8614TIP3    H125785   8.222   4.191   0.077
 8614TIP3    H225786   8.347   4.120   0.128
 8615TIP3   OH225787   5.147   7.471   1.526
 8615TIP3    H125788   5.080   7.422   1.479
 8615TIP3    H225789   5.101   7.549   1.559
 8616TIP3   OH225790   0.582   0.341   5.174
 8616TIP3    H125791   0.641   0.395   5.227
 8616TIP3    H225792   0.578   0.258   5.221
 8617TIP3   OH225793   5.141   4.990   5.436
 8617TIP3    H125794   5.130   4.940   5.355
 8617TIP3    H225795   5.143   5.081   5.407
 8618TIP3   OH225796   5.118   5.490   1.809
 8618TIP3    H125797   5.138   5.445   1.727
 8618TIP3    H225798   5.119   5.422   1.876
 8619TIP3   OH225799   2.637   3.188   2.714
 8619TIP3    H125800   2.669   3.272   2.682
 8619TIP3    H225801   2.669   3.183   2.805
 8620TIP3   OH225802   1.631   5.735   1.643
 8620TIP3    H125803   1.601   5.799   1.708
 8620TIP3    H225804   1.577   5.657   1.660
 8621TIP3   OH225805   5.875   0.423   2.263
 8621TIP3    H125806   5.898   0.335   2.292
 8621TIP3    H225807   5.780   0.420   2.250
 8622TIP3   OH225808   2.048   1.397   3.852
 8622TIP3    H125809   1.977   1.362   3.798
 8622TIP3    H225810   2.014   1.480   3.884
 8623TIP3   OH225811   6.362   0.952   4.727
 8623TIP3    H125812   6.385   0.888   4.795
 8623TIP3    H225813   6.291   1.004   4.766
 8624TIP3   OH225814   3.519   2.537   4.400
 8624TIP3    H125815   3.550   2.561   4.487
 8624TIP3    H225816   3.425   2.524   4.411
 8625TIP3   OH225817   0.296   4.758   2.005
 8625TIP3    H125818   0.266   4.669   2.026
 8625TIP3    H225819   0.248   4.782   1.926
 8626TIP3   OH225820   3.166   2.339   1.193
 8626TIP3    H125821   3.186   2.431   1.208
 8626TIP3    H225822   3.250   2.301   1.166
 8627TIP3   OH225823   3.740   3.500   2.607
 8627TIP3    H125824   3.786   3.472   2.686
 8627TIP3    H225825   3.766   3.437   2.540
 8628TIP3   OH225826   0.523   2.923   0.088
 8628TIP3    H125827   0.557   2.926  -0.002
 8628TIP3    H225828   0.486   3.010   0.103
 8629TIP3   OH225829   4.839   6.996   6.421
 8629TIP3    H125830   4.892   7.024   6.347
 8629TIP3    H225831   4.807   6.909   6.397
 8630TIP3   OH225832   8.289   2.830   4.885
 8630TIP3    H125833   8.315   2.803   4.797
 8630TIP3    H225834   8.227   2.763   4.913
 8631TIP3   OH225835   3.512   7.724   6.469
 8631TIP3    H125836   3.468   7.807   6.484
 8631TIP3    H225837   3.446   7.658   6.491
 8632TIP3   OH225838   3.596   6.864   5.244
 8632TIP3    H125839   3.629   6.938   5.194
 8632TIP3    H225840   3.503   6.881   5.256
 8633TIP3   OH225841   3.759   7.247   4.270
 8633TIP3    H125842   3.695   7.281   4.207
 8633TIP3    H225843   3.787   7.323   4.320
 8634TIP3   OH225844   4.025   1.334   2.210
 8634TIP3    H125845   3.977   1.408   2.248
 8634TIP3    H225846   3.980   1.257   2.243
 8635TIP3   OH225847   1.819   5.321   1.354
 8635TIP3    H125848   1.787   5.409   1.333
 8635TIP3    H225849   1.741   5.266   1.351
 8636TIP3   OH225850   7.808   7.733   5.865
 8636TIP3    H125851   7.718   7.723   5.897
 8636TIP3    H225852   7.830   7.823   5.885
 8637TIP3   OH225853   8.054   1.521   2.693
 8637TIP3    H125854   8.133   1.469   2.705
 8637TIP3    H225855   8.005   1.510   2.775
 8638TIP3   OH225856   1.657   1.694   4.829
 8638TIP3    H125857   1.625   1.604   4.820
 8638TIP3    H225858   1.583   1.743   4.864
 8639TIP3   OH225859   0.470   2.875   2.241
 8639TIP3    H125860   0.491   2.905   2.329
 8639TIP3    H225861   0.454   2.781   2.251
 8640TIP3   OH225862   3.000   5.793   4.429
 8640TIP3    H125863   2.998   5.699   4.444
 8640TIP3    H225864   3.085   5.822   4.463
 8641TIP3   OH225865   0.503   4.335   6.673
 8641TIP3    H125866   0.500   4.367   6.583
 8641TIP3    H225867   0.475   4.244   6.667
 8642TIP3   OH225868   2.142   5.347   4.446
 8642TIP3    H125869   2.158   5.318   4.357
 8642TIP3    H225870   2.189   5.284   4.501
 8643TIP3   OH225871   7.556   0.441   4.212
 8643TIP3    H125872   7.525   0.529   4.231
 8643TIP3    H225873   7.505   0.414   4.136
 8644TIP3   OH225874   6.921   2.734   5.340
 8644TIP3    H125875   6.921   2.727   5.436
 8644TIP3    H225876   6.978   2.663   5.312
 8645TIP3   OH225877   3.824   4.497   0.964
 8645TIP3    H125878   3.783   4.429   1.017
 8645TIP3    H225879   3.751   4.541   0.920
 8646TIP3   OH225880   7.558   5.719   2.368
 8646TIP3    H125881   7.579   5.703   2.277
 8646TIP3    H225882   7.465   5.695   2.376
 8647TIP3   OH225883   3.786   3.194   1.002
 8647TIP3    H125884   3.736   3.235   0.931
 8647TIP3    H225885   3.858   3.149   0.959
 8648TIP3   OH225886   3.072   0.219   0.002
 8648TIP3    H125887   2.983   0.219   0.036
 8648TIP3    H225888   3.121   0.163   0.064
 8649TIP3   OH225889   3.236   0.682   4.398
 8649TIP3    H125890   3.323   0.707   4.428
 8649TIP3    H225891   3.219   0.598   4.441
 8650TIP3   OH225892   6.023   5.650   6.734
 8650TIP3    H125893   5.934   5.639   6.766
 8650TIP3    H225894   6.033   5.581   6.668
 8651TIP3   OH225895   1.026   3.379   6.300
 8651TIP3    H125896   1.017   3.338   6.386
 8651TIP3    H225897   0.942   3.364   6.257
 8652TIP3   OH225898   6.010   7.808   4.681
 8652TIP3    H125899   5.954   7.820   4.757
 8652TIP3    H225900   5.989   7.882   4.624
 8653TIP3   OH225901   2.545   6.086   2.826
 8653TIP3    H125902   2.616   6.023   2.837
 8653TIP3    H225903   2.590   6.169   2.809
 8654TIP3   OH225904   7.307   0.199   5.825
 8654TIP3    H125905   7.316   0.291   5.849
 8654TIP3    H225906   7.279   0.156   5.906
 8655TIP3   OH225907   4.275   0.721   0.907
 8655TIP3    H125908   4.240   0.802   0.869
 8655TIP3    H225909   4.362   0.712   0.867
 8656TIP3   OH225910   0.604   7.685   1.060
 8656TIP3    H125911   0.630   7.595   1.082
 8656TIP3    H225912   0.581   7.682   0.967
 8657TIP3   OH225913   4.864   7.477   2.654
 8657TIP3    H125914   4.887   7.500   2.564
 8657TIP3    H225915   4.948   7.455   2.695
 8658TIP3   OH225916   3.905   6.313   4.948
 8658TIP3    H125917   3.949   6.231   4.923
 8658TIP3    H225918   3.888   6.357   4.865
 8659TIP3   OH225919   3.643   0.742   4.813
 8659TIP3    H125920   3.638   0.797   4.892
 8659TIP3    H225921   3.726   0.766   4.772
 8660TIP3   OH225922   1.068   3.880   0.289
 8660TIP3    H125923   1.008   3.900   0.218
 8660TIP3    H225924   1.122   3.958   0.298
 8661TIP3   OH225925   1.001   3.339   1.054
 8661TIP3    H125926   1.010   3.291   0.972
 8661TIP3    H225927   0.977   3.273   1.119
 8662TIP3   OH225928   5.579   6.734   5.128
 8662TIP3    H125929   5.520   6.739   5.054
 8662TIP3    H225930   5.522   6.727   5.204
 8663TIP3   OH225931   6.209   1.527   1.044
 8663TIP3    H125932   6.279   1.511   1.107
 8663TIP3    H225933   6.252   1.531   0.959
 8664TIP3   OH225934   4.033   2.810   6.254
 8664TIP3    H125935   4.061   2.772   6.170
 8664TIP3    H225936   4.110   2.858   6.284
 8665TIP3   OH225937   2.029   6.462   1.800
 8665TIP3    H125938   2.027   6.471   1.895
 8665TIP3    H225939   1.979   6.382   1.782
 8666TIP3   OH225940   3.250   0.254   6.198
 8666TIP3    H125941   3.194   0.275   6.273
 8666TIP3    H225942   3.227   0.317   6.131
 8667TIP3   OH225943   4.857   5.185   0.725
 8667TIP3    H125944   4.925   5.162   0.662
 8667TIP3    H225945   4.885   5.268   0.762
 8668TIP3   OH225946   7.658   1.176   4.810
 8668TIP3    H125947   7.664   1.255   4.864
 8668TIP3    H225948   7.628   1.207   4.725
 8669TIP3   OH225949   7.075   4.616   3.171
 8669TIP3    H125950   7.104   4.525   3.171
 8669TIP3    H225951   6.983   4.612   3.144
 8670TIP3   OH225952   2.826   5.920   0.440
 8670TIP3    H125953   2.785   5.901   0.525
 8670TIP3    H225954   2.789   5.854   0.381
 8671TIP3   OH225955   6.618   1.426   0.590
 8671TIP3    H125956   6.590   1.482   0.663
 8671TIP3    H225957   6.671   1.483   0.535
 8672TIP3   OH225958   1.553   4.131   4.380
 8672TIP3    H125959   1.497   4.074   4.433
 8672TIP3    H225960   1.539   4.102   4.290
 8673TIP3   OH225961   2.862   6.443   6.698
 8673TIP3    H125962   2.861   6.355   6.660
 8673TIP3    H225963   2.772   6.458   6.727
 8674TIP3   OH225964   2.724   6.073   4.181
 8674TIP3    H125965   2.667   6.096   4.255
 8674TIP3    H225966   2.777   6.151   4.166
 8675TIP3   OH225967   2.266   7.553   1.069
 8675TIP3    H125968   2.345   7.584   1.113
 8675TIP3    H225969   2.211   7.630   1.061
 8676TIP3   OH225970   5.878   5.213   3.993
 8676TIP3    H125971   5.950   5.175   4.043
 8676TIP3    H225972   5.858   5.147   3.926
 8677TIP3   OH225973   7.659   1.431   4.903
 8677TIP3    H125974   7.657   1.467   4.992
 8677TIP3    H225975   7.575   1.455   4.865
 8678TIP3   OH225976   3.074   0.418   3.268
 8678TIP3    H125977   3.025   0.422   3.186
 8678TIP3    H225978   3.098   0.326   3.278
 8679TIP3   OH225979   5.491   2.902   6.547
 8679TIP3    H125980   5.396   2.907   6.553
 8679TIP3    H225981   5.524   2.969   6.606
 8680TIP3   OH225982   7.333   7.600   5.539
 8680TIP3    H125983   7.424   7.591   5.565
 8680TIP3    H225984   7.334   7.597   5.443
 8681TIP3   OH225985   0.975   4.615   6.372
 8681TIP3    H125986   0.977   4.703   6.410
 8681TIP3    H225987   0.919   4.565   6.432
 8682TIP3   OH225988   0.517   5.217   1.961
 8682TIP3    H125989   0.612   5.208   1.948
 8682TIP3    H225990   0.487   5.128   1.977
 8683TIP3   OH225991   6.186   7.769   4.232
 8683TIP3    H125992   6.191   7.863   4.248
 8683TIP3    H225993   6.111   7.739   4.283
 8684TIP3   OH225994   1.097   4.763   4.762
 8684TIP3    H125995   1.012   4.718   4.770
 8684TIP3    H225996   1.145   4.734   4.840
 8685TIP3   OH225997   7.841   4.475   1.199
 8685TIP3    H125998   7.846   4.533   1.275
 8685TIP3    H225999   7.894   4.399   1.223
 8686TIP3   OH226000   1.190   3.066   4.954
 8686TIP3    H126001   1.215   3.114   4.876
 8686TIP3    H226002   1.269   3.064   5.008
 8687TIP3   OH226003   6.717   1.790   2.829
 8687TIP3    H126004   6.787   1.844   2.790
 8687TIP3    H226005   6.647   1.791   2.764
 8688TIP3   OH226006   3.226   6.984   0.679
 8688TIP3    H126007   3.306   7.033   0.660
 8688TIP3    H226008   3.253   6.892   0.674
 8689TIP3   OH226009   0.007   6.217   4.610
 8689TIP3    H126010  -0.028   6.256   4.529
 8689TIP3    H226011   0.087   6.267   4.628
 8690TIP3   OH226012   3.055   1.187   3.149
 8690TIP3    H126013   3.042   1.226   3.235
 8690TIP3    H226014   3.056   1.262   3.089
 8691TIP3   OH226015   3.432   2.023   1.364
 8691TIP3    H126016   3.405   2.048   1.276
 8691TIP3    H226017   3.453   1.929   1.356
 8692TIP3   OH226018   7.519   2.104   0.804
 8692TIP3    H126019   7.473   2.085   0.722
 8692TIP3    H226020   7.459   2.162   0.852
 8693TIP3   OH226021   3.002   5.345   6.020
 8693TIP3    H126022   3.077   5.404   6.011
 8693TIP3    H226023   3.027   5.284   6.089
 8694TIP3   OH226024   7.998   1.788   0.335
 8694TIP3    H126025   7.904   1.805   0.327
 8694TIP3    H226026   8.004   1.702   0.376
 8695TIP3   OH226027   4.200   6.809   0.800
 8695TIP3    H126028   4.123   6.756   0.823
 8695TIP3    H226029   4.214   6.866   0.875
 8696TIP3   OH226030   2.057   5.633   0.491
 8696TIP3    H126031   2.032   5.579   0.566
 8696TIP3    H226032   2.041   5.577   0.414
 8697TIP3   OH226033   2.650   4.268   2.519
 8697TIP3    H126034   2.609   4.353   2.503
 8697TIP3    H226035   2.666   4.233   2.431
 8698TIP3   OH226036   1.422   1.531   6.106
 8698TIP3    H126037   1.457   1.606   6.154
 8698TIP3    H226038   1.470   1.531   6.023
 8699TIP3   OH226039   6.158   6.207   4.771
 8699TIP3    H126040   6.080   6.163   4.736
 8699TIP3    H226041   6.200   6.141   4.826
 8700TIP3   OH226042   1.789   7.484   1.708
 8700TIP3    H126043   1.754   7.438   1.785
 8700TIP3    H226044   1.766   7.428   1.635
 8701TIP3   OH226045   5.718   0.205   2.506
 8701TIP3    H126046   5.714   0.114   2.536
 8701TIP3    H226047   5.787   0.206   2.440
 8702TIP3   OH226048   3.688   5.752   6.517
 8702TIP3    H126049   3.658   5.801   6.594
 8702TIP3    H226050   3.766   5.706   6.547
 8703TIP3   OH226051   6.170   2.270   0.812
 8703TIP3    H126052   6.184   2.278   0.906
 8703TIP3    H226053   6.257   2.280   0.774
 8704TIP3   OH226054   5.995   4.047   4.411
 8704TIP3    H126055   6.045   4.056   4.329
 8704TIP3    H226056   5.952   4.132   4.422
 8705TIP3   OH226057   5.276   0.693   2.071
 8705TIP3    H126058   5.366   0.662   2.069
 8705TIP3    H226059   5.281   0.783   2.038
 8706TIP3   OH226060   5.973   6.228   6.537
 8706TIP3    H126061   6.006   6.311   6.504
 8706TIP3    H226062   5.981   6.234   6.632
 8707TIP3   OH226063   2.584   0.641   6.005
 8707TIP3    H126064   2.620   0.694   5.933
 8707TIP3    H226065   2.619   0.681   6.084
 8708TIP3   OH226066   2.129   1.171   1.489
 8708TIP3    H126067   2.184   1.247   1.507
 8708TIP3    H226068   2.185   1.096   1.507
 8709TIP3   OH226069   8.138   1.112   4.038
 8709TIP3    H126070   8.089   1.044   3.992
 8709TIP3    H226071   8.184   1.066   4.108
 8710TIP3   OH226072   7.164   4.617   2.432
 8710TIP3    H126073   7.244   4.658   2.400
 8710TIP3    H226074   7.134   4.674   2.503
 8711TIP3   OH226075   6.656   5.476   4.649
 8711TIP3    H126076   6.593   5.425   4.700
 8711TIP3    H226077   6.605   5.510   4.576
 8712TIP3   OH226078   0.311   1.683   3.280
 8712TIP3    H126079   0.361   1.715   3.205
 8712TIP3    H226080   0.230   1.649   3.242
 8713TIP3   OH226081   1.375   2.489   3.871
 8713TIP3    H126082   1.367   2.487   3.966
 8713TIP3    H226083   1.451   2.434   3.852
 8714TIP3   OH226084   6.611   6.156   0.189
 8714TIP3    H126085   6.580   6.245   0.209
 8714TIP3    H226086   6.704   6.167   0.171
 8715TIP3   OH226087   5.002   0.268   2.230
 8715TIP3    H126088   4.968   0.356   2.246
 8715TIP3    H226089   5.036   0.241   2.316
 8716TIP3   OH226090   0.997   0.004   2.253
 8716TIP3    H126091   0.988   0.086   2.302
 8716TIP3    H226092   1.035  -0.057   2.315
 8717TIP3   OH226093   3.440   5.487   3.126
 8717TIP3    H126094   3.422   5.524   3.213
 8717TIP3    H226095   3.443   5.393   3.140
 8718TIP3   OH226096   3.646   2.838   1.126
 8718TIP3    H126097   3.688   2.814   1.043
 8718TIP3    H226098   3.703   2.799   1.193
 8719TIP3   OH226099   3.696   2.719   5.869
 8719TIP3    H126100   3.727   2.643   5.918
 8719TIP3    H226101   3.608   2.693   5.839
 8720TIP3   OH226102   3.509   1.939   3.431
 8720TIP3    H126103   3.506   1.853   3.389
 8720TIP3    H226104   3.548   1.922   3.517
 8721TIP3   OH226105   1.177   6.028   4.391
 8721TIP3    H126106   1.156   6.063   4.478
 8721TIP3    H226107   1.263   6.064   4.371
 8722TIP3   OH226108   3.557   6.525   6.651
 8722TIP3    H126109   3.485   6.523   6.714
 8722TIP3    H226110   3.530   6.589   6.585
 8723TIP3   OH226111   5.758   0.586   5.050
 8723TIP3    H126112   5.684   0.566   4.993
 8723TIP3    H226113   5.811   0.507   5.050
 8724TIP3   OH226114   2.322   3.677   6.170
 8724TIP3    H126115   2.394   3.646   6.225
 8724TIP3    H226116   2.243   3.655   6.218
 8725TIP3   OH226117   3.000   1.130   6.006
 8725TIP3    H126118   2.941   1.118   5.931
 8725TIP3    H226119   2.946   1.177   6.070
 8726TIP3   OH226120   4.429   4.629   5.975
 8726TIP3    H126121   4.387   4.546   6.001
 8726TIP3    H226122   4.357   4.684   5.946
 8727TIP3   OH226123   0.570   5.180   3.198
 8727TIP3    H126124   0.598   5.270   3.218
 8727TIP3    H226125   0.521   5.187   3.117
 8728TIP3   OH226126   0.586   0.047   1.967
 8728TIP3    H126127   0.495   0.018   1.968
 8728TIP3    H226128   0.607   0.055   1.873
 8729TIP3   OH226129   8.206   1.245   3.564
 8729TIP3    H126130   8.148   1.252   3.489
 8729TIP3    H226131   8.166   1.177   3.619
 8730TIP3   OH226132   1.182   5.831   1.029
 8730TIP3    H126133   1.241   5.756   1.026
 8730TIP3    H226134   1.215   5.890   0.962
 8731TIP3   OH226135   5.619   5.921   4.527
 8731TIP3    H126136   5.575   5.972   4.458
 8731TIP3    H226137   5.644   5.839   4.483
 8732TIP3   OH226138   5.939   6.684   5.247
 8732TIP3    H126139   6.024   6.672   5.290
 8732TIP3    H226140   5.957   6.670   5.154
 8733TIP3   OH226141   0.436   1.353   0.169
 8733TIP3    H126142   0.511   1.410   0.156
 8733TIP3    H226143   0.391   1.351   0.085
 8734TIP3   OH226144   4.710   7.780   3.539
 8734TIP3    H126145   4.677   7.690   3.539
 8734TIP3    H226146   4.680   7.816   3.623
 8735TIP3   OH226147   3.241   2.668   5.220
 8735TIP3    H126148   3.195   2.748   5.247
 8735TIP3    H226149   3.283   2.692   5.137
 8736TIP3   OH226150   2.613   2.157   2.721
 8736TIP3    H126151   2.676   2.227   2.737
 8736TIP3    H226152   2.623   2.099   2.796
 8737TIP3   OH226153   4.726   0.120   1.877
 8737TIP3    H126154   4.643   0.156   1.910
 8737TIP3    H226155   4.700   0.061   1.806
 8738TIP3   OH226156   4.752   2.981   1.608
 8738TIP3    H126157   4.748   3.001   1.701
 8738TIP3    H226158   4.741   3.065   1.564
 8739TIP3   OH226159   7.462   3.013   3.275
 8739TIP3    H126160   7.376   2.984   3.305
 8739TIP3    H226161   7.522   2.985   3.345
 8740TIP3   OH226162   2.627   5.720   1.115
 8740TIP3    H126163   2.688   5.790   1.093
 8740TIP3    H226164   2.664   5.642   1.072
 8741TIP3   OH226165   6.060   7.388   3.043
 8741TIP3    H126166   6.040   7.305   2.999
 8741TIP3    H226167   6.007   7.386   3.122
 8742TIP3   OH226168   4.817   4.912   3.745
 8742TIP3    H126169   4.737   4.889   3.698
 8742TIP3    H226170   4.795   4.991   3.794
 8743TIP3   OH226171   5.706   0.038   4.980
 8743TIP3    H126172   5.624   0.051   4.932
 8743TIP3    H226173   5.773   0.034   4.911
 8744TIP3   OH226174   0.602   7.678   6.606
 8744TIP3    H126175   0.622   7.595   6.649
 8744TIP3    H226176   0.547   7.725   6.670
 8745TIP3   OH226177   3.710   1.791   6.434
 8745TIP3    H126178   3.796   1.749   6.429
 8745TIP3    H226179   3.652   1.733   6.384
 8746TIP3   OH226180   7.831   1.593   6.144
 8746TIP3    H126181   7.857   1.684   6.158
 8746TIP3    H226182   7.861   1.573   6.055
 8747TIP3   OH226183   2.780   6.145   3.705
 8747TIP3    H126184   2.834   6.068   3.686
 8747TIP3    H226185   2.733   6.162   3.623
 8748TIP3   OH226186   8.030   5.636   6.641
 8748TIP3    H126187   8.053   5.586   6.719
 8748TIP3    H226188   8.065   5.724   6.657
 8749TIP3   OH226189   2.797   3.413   2.687
 8749TIP3    H126190   2.822   3.504   2.701
 8749TIP3    H226191   2.880   3.365   2.683
 8750TIP3   OH226192   5.247   1.808   3.318
 8750TIP3    H126193   5.290   1.735   3.363
 8750TIP3    H226194   5.165   1.822   3.366
 8751TIP3   OH226195   1.578   2.523   2.946
 8751TIP3    H126196   1.486   2.549   2.947
 8751TIP3    H226197   1.622   2.592   2.898
 8752TIP3   OH226198   1.627   4.667   2.151
 8752TIP3    H126199   1.636   4.609   2.227
 8752TIP3    H226200   1.640   4.755   2.185
 8753TIP3   OH226201   2.712   6.400   4.655
 8753TIP3    H126202   2.748   6.415   4.568
 8753TIP3    H226203   2.733   6.309   4.675
 8754TIP3   OH226204   0.041   0.474   3.031
 8754TIP3    H126205   0.077   0.388   3.009
 8754TIP3    H226206   0.021   0.515   2.947
 8755TIP3   OH226207   1.026   0.807   0.910
 8755TIP3    H126208   1.085   0.880   0.927
 8755TIP3    H226209   0.967   0.807   0.986
 8756TIP3   OH226210   2.353   7.281   2.498
 8756TIP3    H126211   2.301   7.356   2.467
 8756TIP3    H226212   2.350   7.289   2.594
 8757TIP3   OH226213   3.682   4.211   2.170
 8757TIP3    H126214   3.595   4.238   2.198
 8757TIP3    H226215   3.674   4.118   2.151
 8758TIP3   OH226216   4.389   7.254   4.555
 8758TIP3    H126217   4.329   7.269   4.629
 8758TIP3    H226218   4.471   7.228   4.596
 8759TIP3   OH226219   1.506   4.756   3.499
 8759TIP3    H126220   1.514   4.662   3.516
 8759TIP3    H226221   1.458   4.790   3.574
 8760TIP3   OH226222   0.111   2.073   6.704
 8760TIP3    H126223   0.206   2.073   6.719
 8760TIP3    H226224   0.085   2.164   6.721
 8761TIP3   OH226225   7.252   1.113   0.610
 8761TIP3    H126226   7.239   1.060   0.532
 8761TIP3    H226227   7.317   1.066   0.662
 8762TIP3   OH226228   4.793   0.537   3.572
 8762TIP3    H126229   4.777   0.454   3.527
 8762TIP3    H226230   4.782   0.603   3.504
 8763TIP3   OH226231   6.464   1.490   3.741
 8763TIP3    H126232   6.409   1.555   3.696
 8763TIP3    H226233   6.438   1.495   3.833
 8764TIP3   OH226234   8.074   6.583   2.967
 8764TIP3    H126235   8.104   6.651   3.027
 8764TIP3    H226236   8.012   6.531   3.018
 8765TIP3   OH226237   3.340   4.239   6.532
 8765TIP3    H126238   3.431   4.237   6.504
 8765TIP3    H226239   3.343   4.255   6.626
 8766TIP3   OH226240   2.089   5.303   2.262
 8766TIP3    H126241   2.157   5.328   2.326
 8766TIP3    H226242   2.025   5.254   2.313
 8767TIP3   OH226243   3.488   5.772   4.601
 8767TIP3    H126244   3.452   5.778   4.689
 8767TIP3    H226245   3.578   5.804   4.609
 8768TIP3   OH226246   7.314   0.436   4.832
 8768TIP3    H126247   7.309   0.442   4.927
 8768TIP3    H226248   7.261   0.509   4.800
 8769TIP3   OH226249   0.549   6.953   0.866
 8769TIP3    H126250   0.567   7.003   0.787
 8769TIP3    H226251   0.623   6.970   0.924
 8770TIP3   OH226252   5.535   0.364   5.096
 8770TIP3    H126253   5.529   0.270   5.114
 8770TIP3    H226254   5.449   0.398   5.121
 8771TIP3   OH226255   5.529   4.252   0.919
 8771TIP3    H126256   5.597   4.211   0.865
 8771TIP3    H226257   5.577   4.291   0.992
 8772TIP3   OH226258   4.357   5.303   1.488
 8772TIP3    H126259   4.417   5.275   1.419
 8772TIP3    H226260   4.357   5.231   1.550
 8773TIP3   OH226261   7.199   0.635   3.715
 8773TIP3    H126262   7.163   0.563   3.663
 8773TIP3    H226263   7.294   0.623   3.711
 8774TIP3   OH226264   4.201   6.829   0.053
 8774TIP3    H126265   4.243   6.915   0.053
 8774TIP3    H226266   4.180   6.812   0.145
 8775TIP3   OH226267   4.704   0.621   6.441
 8775TIP3    H126268   4.719   0.555   6.373
 8775TIP3    H226269   4.752   0.698   6.410
 8776TIP3   OH226270   6.855   6.656   6.358
 8776TIP3    H126271   6.773   6.702   6.375
 8776TIP3    H226272   6.884   6.627   6.444
 8777TIP3   OH226273   1.927   1.041   3.167
 8777TIP3    H126274   1.882   1.116   3.129
 8777TIP3    H226275   1.857   0.980   3.191
 8778TIP3   OH226276   4.929   3.623   4.376
 8778TIP3    H126277   4.909   3.671   4.296
 8778TIP3    H226278   4.997   3.561   4.351
 8779TIP3   OH226279   1.482   0.612   1.959
 8779TIP3    H126280   1.505   0.671   2.031
 8779TIP3    H226281   1.386   0.619   1.953
 8780TIP3   OH226282   1.827   5.915   3.058
 8780TIP3    H126283   1.861   6.003   3.074
 8780TIP3    H226284   1.879   5.881   2.985
 8781TIP3   OH226285   1.584   4.296   1.148
 8781TIP3    H126286   1.548   4.337   1.069
 8781TIP3    H226287   1.509   4.252   1.187
 8782TIP3   OH226288   3.625   1.982   0.210
 8782TIP3    H126289   3.548   1.993   0.154
 8782TIP3    H226290   3.696   2.024   0.162
 8783TIP3   OH226291   4.743   0.873   0.228
 8783TIP3    H126292   4.819   0.821   0.202
 8783TIP3    H226293   4.686   0.871   0.151
 8784TIP3   OH226294   6.473   0.967   4.162
 8784TIP3    H126295   6.505   1.030   4.226
 8784TIP3    H226296   6.456   0.887   4.213
 8785TIP3   OH226297   1.103   2.108   1.217
 8785TIP3    H126298   1.141   2.142   1.136
 8785TIP3    H226299   1.135   2.018   1.223
 8786TIP3   OH226300   7.121   6.435   6.062
 8786TIP3    H126301   7.127   6.501   5.993
 8786TIP3    H226302   7.043   6.459   6.111
 8787TIP3   OH226303   0.863   6.636   6.058
 8787TIP3    H126304   0.908   6.696   5.998
 8787TIP3    H226305   0.826   6.693   6.126
 8788TIP3   OH226306   5.399   7.557   2.154
 8788TIP3    H126307   5.394   7.491   2.223
 8788TIP3    H226308   5.377   7.511   2.074
 8789TIP3   OH226309   4.857   0.581   0.926
 8789TIP3    H126310   4.923   0.648   0.944
 8789TIP3    H226311   4.907   0.499   0.922
 8790TIP3   OH226312   0.755   3.349   2.571
 8790TIP3    H126313   0.801   3.311   2.646
 8790TIP3    H226314   0.800   3.313   2.495
 8791TIP3   OH226315   7.218   7.286   2.981
 8791TIP3    H126316   7.161   7.229   2.930
 8791TIP3    H226317   7.205   7.373   2.943
 8792TIP3   OH226318   0.919   6.041   4.903
 8792TIP3    H126319   0.909   6.097   4.826
 8792TIP3    H226320   0.836   5.994   4.910
 8793TIP3   OH226321   8.160   2.429   1.960
 8793TIP3    H126322   8.067   2.440   1.939
 8793TIP3    H226323   8.193   2.518   1.971
 8794TIP3   OH226324   4.332   6.402   6.397
 8794TIP3    H126325   4.382   6.359   6.466
 8794TIP3    H226326   4.333   6.340   6.324
 8795TIP3   OH226327   8.033   5.318   6.635
 8795TIP3    H126328   7.974   5.261   6.684
 8795TIP3    H226329   8.120   5.282   6.651
 8796TIP3   OH226330   4.953   6.001   5.744
 8796TIP3    H126331   4.960   5.989   5.649
 8796TIP3    H226332   4.866   5.969   5.765
 8797TIP3   OH226333   6.729   0.177   2.842
 8797TIP3    H126334   6.690   0.143   2.922
 8797TIP3    H226335   6.821   0.188   2.862
 8798TIP3   OH226336   0.705   5.228   2.284
 8798TIP3    H126337   0.628   5.173   2.270
 8798TIP3    H226338   0.767   5.200   2.216
 8799TIP3   OH226339   2.211   6.031   3.601
 8799TIP3    H126340   2.154   5.965   3.640
 8799TIP3    H226341   2.282   6.042   3.665
 8800TIP3   OH226342   0.527   3.461   0.543
 8800TIP3    H126343   0.446   3.410   0.538
 8800TIP3    H226344   0.519   3.509   0.625
 8801TIP3   OH226345   5.941   2.153   0.286
 8801TIP3    H126346   5.899   2.144   0.372
 8801TIP3    H226347   5.881   2.110   0.225
 8802TIP3   OH226348   0.750   2.108   4.556
 8802TIP3    H126349   0.680   2.171   4.569
 8802TIP3    H226350   0.812   2.152   4.498
 8803TIP3   OH226351   1.430   2.098   3.112
 8803TIP3    H126352   1.522   2.121   3.122
 8803TIP3    H226353   1.429   2.032   3.043
 8804TIP3   OH226354   5.363   7.034   5.026
 8804TIP3    H126355   5.271   7.025   5.004
 8804TIP3    H226356   5.400   6.946   5.011
 8805TIP3   OH226357   2.851   5.250   4.888
 8805TIP3    H126358   2.818   5.239   4.798
 8805TIP3    H226359   2.923   5.188   4.895
 8806TIP3   OH226360   1.114   3.751   4.224
 8806TIP3    H126361   1.198   3.714   4.251
 8806TIP3    H226362   1.067   3.678   4.184
 8807TIP3   OH226363   5.488   5.131   3.865
 8807TIP3    H126364   5.537   5.156   3.943
 8807TIP3    H226365   5.554   5.127   3.796
 8808TIP3   OH226366   2.882   3.173   6.276
 8808TIP3    H126367   2.913   3.197   6.189
 8808TIP3    H226368   2.863   3.080   6.271
 8809TIP3   OH226369   1.916   1.711   6.007
 8809TIP3    H126370   2.005   1.693   6.037
 8809TIP3    H226371   1.883   1.777   6.069
 8810TIP3   OH226372   2.128   6.682   5.117
 8810TIP3    H126373   2.097   6.646   5.033
 8810TIP3    H226374   2.183   6.613   5.153
 8811TIP3   OH226375   3.789   1.582   0.874
 8811TIP3    H126376   3.742   1.515   0.825
 8811TIP3    H226377   3.832   1.535   0.945
 8812TIP3   OH226378   4.682   2.289   4.551
 8812TIP3    H126379   4.665   2.384   4.554
 8812TIP3    H226380   4.668   2.265   4.459
 8813TIP3   OH226381   5.165   0.323   3.050
 8813TIP3    H126382   5.159   0.237   3.091
 8813TIP3    H226383   5.210   0.307   2.967
 8814TIP3   OH226384   0.273   5.098   4.509
 8814TIP3    H126385   0.246   5.184   4.543
 8814TIP3    H226386   0.337   5.067   4.572
 8815TIP3   OH226387   4.290   4.261   1.861
 8815TIP3    H126388   4.366   4.269   1.919
 8815TIP3    H226389   4.226   4.323   1.897
 8816TIP3   OH226390   5.443   4.168   2.373
 8816TIP3    H126391   5.520   4.112   2.385
 8816TIP3    H226392   5.438   4.182   2.279
 8817TIP3   OH226393   0.675   1.010   3.690
 8817TIP3    H126394   0.581   1.003   3.670
 8817TIP3    H226395   0.711   1.059   3.616
 8818TIP3   OH226396   4.102   1.390   4.054
 8818TIP3    H126397   4.021   1.368   4.099
 8818TIP3    H226398   4.104   1.486   4.052
 8819TIP3   OH226399   6.743   4.214   0.986
 8819TIP3    H126400   6.700   4.201   1.071
 8819TIP3    H226401   6.693   4.284   0.945
 8820TIP3   OH226402   0.007   4.859   3.052
 8820TIP3    H126403   0.050   4.944   3.061
 8820TIP3    H226404  -0.079   4.871   3.092
 8821TIP3   OH226405   7.395   1.528   4.865
 8821TIP3    H126406   7.322   1.565   4.815
 8821TIP3    H226407   7.356   1.459   4.919
 8822TIP3   OH226408   7.194   5.384   0.395
 8822TIP3    H126409   7.252   5.329   0.447
 8822TIP3    H226410   7.150   5.324   0.336
 8823TIP3   OH226411   1.986   3.654   4.292
 8823TIP3    H126412   2.019   3.694   4.212
 8823TIP3    H226413   1.986   3.560   4.274
 8824TIP3   OH226414   3.933   4.993   6.004
 8824TIP3    H126415   3.970   5.079   5.982
 8824TIP3    H226416   3.855   4.986   5.950
 8825TIP3   OH226417   7.557   0.128   3.337
 8825TIP3    H126418   7.647   0.101   3.319
 8825TIP3    H226419   7.533   0.080   3.416
 8826TIP3   OH226420   0.357   3.856   1.262
 8826TIP3    H126421   0.395   3.944   1.257
 8826TIP3    H226422   0.272   3.864   1.219
 8827TIP3   OH226423   3.629   6.228   2.269
 8827TIP3    H126424   3.722   6.211   2.252
 8827TIP3    H226425   3.585   6.207   2.187
 8828TIP3   OH226426   5.063   0.107   5.956
 8828TIP3    H126427   5.066   0.179   5.893
 8828TIP3    H226428   5.041   0.148   6.039
 8829TIP3   OH226429   4.002   2.437   3.528
 8829TIP3    H126430   3.945   2.512   3.544
 8829TIP3    H226431   3.980   2.408   3.440
 8830TIP3   OH226432   1.998   0.856   5.573
 8830TIP3    H126433   1.977   0.949   5.579
 8830TIP3    H226434   2.094   0.853   5.574
 8831TIP3   OH226435   8.188   5.155   1.167
 8831TIP3    H126436   8.093   5.160   1.179
 8831TIP3    H226437   8.209   5.227   1.108
 8832TIP3   OH226438   4.581   0.788   2.845
 8832TIP3    H126439   4.632   0.821   2.918
 8832TIP3    H226440   4.608   0.842   2.770
 8833TIP3   OH226441   8.148   5.858   0.700
 8833TIP3    H126442   8.208   5.792   0.665
 8833TIP3    H226443   8.091   5.809   0.760
 8834TIP3   OH226444   4.720   7.778   2.201
 8834TIP3    H126445   4.654   7.833   2.160
 8834TIP3    H226446   4.793   7.777   2.140
 8835TIP3   OH226447   3.825   5.242   6.395
 8835TIP3    H126448   3.808   5.277   6.308
 8835TIP3    H226449   3.837   5.320   6.450
 8836TIP3   OH226450   5.553   7.372   0.218
 8836TIP3    H126451   5.506   7.396   0.138
 8836TIP3    H226452   5.543   7.277   0.224
 8837TIP3   OH226453   3.251   3.478   4.110
 8837TIP3    H126454   3.315   3.472   4.040
 8837TIP3    H226455   3.240   3.387   4.140
 8838TIP3   OH226456   6.484   0.681   2.745
 8838TIP3    H126457   6.504   0.697   2.838
 8838TIP3    H226458   6.543   0.738   2.697
 8839TIP3   OH226459   6.501   3.419   5.824
 8839TIP3    H126460   6.487   3.346   5.884
 8839TIP3    H226461   6.415   3.439   5.788
 8840TIP3   OH226462   0.784   2.951   1.699
 8840TIP3    H126463   0.786   3.038   1.739
 8840TIP3    H226464   0.733   2.898   1.760
 8841TIP3   OH226465   1.449   4.502   2.033
 8841TIP3    H126466   1.477   4.415   2.063
 8841TIP3    H226467   1.506   4.563   2.079
 8842TIP3   OH226468   2.937   1.216   2.667
 8842TIP3    H126469   2.976   1.136   2.632
 8842TIP3    H226470   2.888   1.186   2.744
 8843TIP3   OH226471   1.225   1.001   1.330
 8843TIP3    H126472   1.240   1.094   1.348
 8843TIP3    H226473   1.305   0.972   1.285
 8844TIP3   OH226474   3.014   7.664   0.605
 8844TIP3    H126475   3.011   7.675   0.700
 8844TIP3    H226476   3.089   7.607   0.590
 8845TIP3   OH226477   2.787   7.263   0.431
 8845TIP3    H126478   2.791   7.194   0.498
 8845TIP3    H226479   2.793   7.216   0.348
 8846TIP3   OH226480   3.911   5.240   2.127
 8846TIP3    H126481   3.899   5.320   2.178
 8846TIP3    H226482   3.953   5.179   2.188
 8847TIP3   OH226483   7.351   5.080   1.607
 8847TIP3    H126484   7.268   5.036   1.589
 8847TIP3    H226485   7.338   5.170   1.578
 8848TIP3   OH226486   6.132   4.594   6.568
 8848TIP3    H126487   6.076   4.614   6.493
 8848TIP3    H226488   6.118   4.668   6.628
 8849TIP3   OH226489   5.715   7.129   6.408
 8849TIP3    H126490   5.777   7.124   6.335
 8849TIP3    H226491   5.764   7.097   6.484
 8850TIP3   OH226492   1.593   4.973   0.193
 8850TIP3    H126493   1.571   5.050   0.141
 8850TIP3    H226494   1.617   5.009   0.279
 8851TIP3   OH226495   4.084   1.823   0.453
 8851TIP3    H126496   4.115   1.739   0.419
 8851TIP3    H226497   4.150   1.849   0.517
 8852TIP3   OH226498   2.280   3.287   2.116
 8852TIP3    H126499   2.315   3.199   2.129
 8852TIP3    H226500   2.199   3.274   2.068
 8853TIP3   OH226501   2.694   5.846   4.460
 8853TIP3    H126502   2.656   5.931   4.438
 8853TIP3    H226503   2.689   5.796   4.378
 8854TIP3   OH226504   4.700   2.662   3.942
 8854TIP3    H126505   4.707   2.567   3.958
 8854TIP3    H226506   4.769   2.700   3.996
 8855TIP3   OH226507   1.695   4.401   6.020
 8855TIP3    H126508   1.774   4.410   6.073
 8855TIP3    H226509   1.623   4.410   6.083
 8856TIP3   OH226510   1.681   3.615   1.163
 8856TIP3    H126511   1.590   3.605   1.135
 8856TIP3    H226512   1.684   3.578   1.251
 8857TIP3   OH226513   4.332   5.342   5.615
 8857TIP3    H126514   4.396   5.341   5.686
 8857TIP3    H226515   4.288   5.257   5.621
 8858TIP3   OH226516   6.787   7.455   4.482
 8858TIP3    H126517   6.876   7.457   4.448
 8858TIP3    H226518   6.735   7.502   4.416
 8859TIP3   OH226519   6.935   6.384   3.258
 8859TIP3    H126520   6.981   6.466   3.239
 8859TIP3    H226521   6.904   6.354   3.172
 8860TIP3   OH226522   6.511   0.903   1.238
 8860TIP3    H126523   6.527   0.846   1.314
 8860TIP3    H226524   6.589   0.892   1.183
 8861TIP3   OH226525   5.173   0.399   0.678
 8861TIP3    H126526   5.236   0.341   0.635
 8861TIP3    H226527   5.087   0.366   0.653
 8862TIP3   OH226528   4.221   5.684   2.666
 8862TIP3    H126529   4.189   5.727   2.587
 8862TIP3    H226530   4.308   5.651   2.643
 8863TIP3   OH226531   6.921   7.083   4.403
 8863TIP3    H126532   7.012   7.104   4.384
 8863TIP3    H226533   6.916   7.084   4.499
 8864TIP3   OH226534   7.399   5.536   4.573
 8864TIP3    H126535   7.359   5.548   4.487
 8864TIP3    H226536   7.463   5.466   4.561
 8865TIP3   OH226537   3.792   0.162   0.837
 8865TIP3    H126538   3.769   0.212   0.759
 8865TIP3    H226539   3.847   0.221   0.888
 8866TIP3   OH226540   0.803   2.435   1.303
 8866TIP3    H126541   0.763   2.445   1.389
 8866TIP3    H226542   0.825   2.342   1.297
 8867TIP3   OH226543   4.868   0.379   5.187
 8867TIP3    H126544   4.793   0.323   5.165
 8867TIP3    H226545   4.940   0.318   5.200
 8868TIP3   OH226546   6.769   0.060   5.201
 8868TIP3    H126547   6.818  -0.021   5.188
 8868TIP3    H226548   6.679   0.038   5.175
 8869TIP3   OH226549   1.589   5.816   1.924
 8869TIP3    H126550   1.496   5.800   1.907
 8869TIP3    H226551   1.615   5.743   1.981
 8870TIP3   OH226552   1.563   3.926   5.483
 8870TIP3    H126553   1.522   4.010   5.504
 8870TIP3    H226554   1.510   3.890   5.412
 8871TIP3   OH226555   5.804   0.871   5.092
 8871TIP3    H126556   5.887   0.881   5.045
 8871TIP3    H226557   5.790   0.776   5.095
 8872TIP3   OH226558   6.155   1.544   0.454
 8872TIP3    H126559   6.246   1.571   0.441
 8872TIP3    H226560   6.160   1.450   0.470
 8873TIP3   OH226561   5.012   5.758   3.720
 8873TIP3    H126562   4.947   5.802   3.665
 8873TIP3    H226563   5.066   5.829   3.754
 8874TIP3   OH226564   7.798   2.138   1.387
 8874TIP3    H126565   7.875   2.182   1.350
 8874TIP3    H226566   7.734   2.139   1.316
 8875TIP3   OH226567   7.132   0.876   3.585
 8875TIP3    H126568   7.054   0.856   3.533
 8875TIP3    H226569   7.139   0.803   3.647
 8876TIP3   OH226570   0.007   1.342   1.721
 8876TIP3    H126571   0.077   1.406   1.739
 8876TIP3    H226572   0.013   1.279   1.793
 8877TIP3   OH226573   6.975   2.797   0.159
 8877TIP3    H126574   7.033   2.838   0.224
 8877TIP3    H226575   7.010   2.709   0.149
 8878TIP3   OH226576   5.166   3.671   0.787
 8878TIP3    H126577   5.212   3.587   0.782
 8878TIP3    H226578   5.204   3.714   0.863
 8879TIP3   OH226579   1.551   1.454   2.442
 8879TIP3    H126580   1.517   1.543   2.450
 8879TIP3    H226581   1.489   1.411   2.383
 8880TIP3   OH226582   3.507   7.512   4.547
 8880TIP3    H126583   3.524   7.606   4.548
 8880TIP3    H226584   3.424   7.503   4.594
 8881TIP3   OH226585   2.733   6.275   5.295
 8881TIP3    H126586   2.788   6.313   5.363
 8881TIP3    H226587   2.780   6.197   5.266
 8882TIP3   OH226588   2.703   0.517   5.512
 8882TIP3    H126589   2.654   0.514   5.429
 8882TIP3    H226590   2.790   0.548   5.487
 8883TIP3   OH226591   3.059   6.275   3.594
 8883TIP3    H126592   2.983   6.266   3.650
 8883TIP3    H226593   3.091   6.186   3.582
 8884TIP3   OH226594   5.259   3.373   2.579
 8884TIP3    H126595   5.340   3.421   2.595
 8884TIP3    H226596   5.276   3.323   2.499
 8885TIP3   OH226597   6.914   5.815   1.558
 8885TIP3    H126598   6.966   5.862   1.622
 8885TIP3    H226599   6.854   5.881   1.522
 8886TIP3   OH226600   4.061   0.759   4.145
 8886TIP3    H126601   4.136   0.713   4.108
 8886TIP3    H226602   4.048   0.835   4.088
 8887TIP3   OH226603   2.960   1.603   6.284
 8887TIP3    H126604   2.991   1.677   6.334
 8887TIP3    H226605   2.868   1.623   6.266
 8888TIP3   OH226606   5.366   1.613   6.450
 8888TIP3    H126607   5.428   1.658   6.392
 8888TIP3    H226608   5.413   1.536   6.480
 8889TIP3   OH226609   6.305   4.890   6.238
 8889TIP3    H126610   6.355   4.967   6.211
 8889TIP3    H226611   6.339   4.819   6.183
 8890TIP3   OH226612   7.797   5.278   4.807
 8890TIP3    H126613   7.763   5.353   4.855
 8890TIP3    H226614   7.790   5.303   4.715
 8891TIP3   OH226615   3.176   0.561   6.047
 8891TIP3    H126616   3.088   0.592   6.067
 8891TIP3    H226617   3.163   0.484   5.992
 8892TIP3   OH226618   0.226   2.035   3.750
 8892TIP3    H126619   0.165   2.086   3.804
 8892TIP3    H226620   0.242   2.090   3.673
 8893TIP3   OH226621   5.284   3.035   4.064
 8893TIP3    H126622   5.361   2.981   4.048
 8893TIP3    H226623   5.218   3.003   4.002
 8894TIP3   OH226624   4.143   1.259   0.887
 8894TIP3    H126625   4.236   1.235   0.882
 8894TIP3    H226626   4.115   1.267   0.796
 8895TIP3   OH226627   4.919   5.016   4.736
 8895TIP3    H126628   4.899   5.042   4.646
 8895TIP3    H226629   4.862   4.941   4.752
 8896TIP3   OH226630   6.354   5.254   1.386
 8896TIP3    H126631   6.288   5.212   1.441
 8896TIP3    H226632   6.387   5.183   1.330
 8897TIP3   OH226633   1.881   5.139   3.857
 8897TIP3    H126634   1.946   5.070   3.869
 8897TIP3    H226635   1.922   5.217   3.896
 8898TIP3   OH226636   0.887   5.796   1.947
 8898TIP3    H126637   0.917   5.882   1.976
 8898TIP3    H226638   0.888   5.802   1.851
 8899TIP3   OH226639   0.612   5.803   4.072
 8899TIP3    H126640   0.690   5.858   4.064
 8899TIP3    H226641   0.630   5.747   4.147
 8900TIP3   OH226642   2.803   0.287   2.986
 8900TIP3    H126643   2.838   0.368   3.022
 8900TIP3    H226644   2.715   0.309   2.956
 8901TIP3   OH226645   6.827   4.989   4.878
 8901TIP3    H126646   6.852   5.082   4.881
 8901TIP3    H226647   6.778   4.975   4.958
 8902TIP3   OH226648   7.641   3.650   4.068
 8902TIP3    H126649   7.727   3.653   4.109
 8902TIP3    H226650   7.656   3.673   3.976
 8903TIP3   OH226651   6.530   5.033   6.509
 8903TIP3    H126652   6.496   5.075   6.430
 8903TIP3    H226653   6.461   4.974   6.537
 8904TIP3   OH226654   5.193   6.793   6.464
 8904TIP3    H126655   5.147   6.738   6.401
 8904TIP3    H226656   5.253   6.846   6.411
 8905TIP3   OH226657   7.802   1.069   3.293
 8905TIP3    H126658   7.865   1.102   3.358
 8905TIP3    H226659   7.856   1.045   3.218
 8906TIP3   OH226660   5.928   5.970   4.607
 8906TIP3    H126661   5.889   5.913   4.540
 8906TIP3    H226662   5.878   5.950   4.686
 8907TIP3   OH226663   7.238   1.316   3.421
 8907TIP3    H126664   7.221   1.258   3.495
 8907TIP3    H226665   7.213   1.265   3.344
 8908TIP3   OH226666   6.693   5.067   6.192
 8908TIP3    H126667   6.749   5.124   6.140
 8908TIP3    H226668   6.734   4.981   6.187
 8909TIP3   OH226669   4.568   4.744   3.971
 8909TIP3    H126670   4.497   4.714   4.028
 8909TIP3    H226671   4.620   4.802   4.027
 8910TIP3   OH226672   2.034   2.077   6.743
 8910TIP3    H126673   2.049   2.167   6.712
 8910TIP3    H226674   2.122   2.042   6.759
 8911TIP3   OH226675   0.825   2.596   2.204
 8911TIP3    H126676   0.880   2.557   2.136
 8911TIP3    H226677   0.844   2.689   2.199
 8912TIP3   OH226678   7.168   6.647   6.519
 8912TIP3    H126679   7.080   6.636   6.556
 8912TIP3    H226680   7.222   6.585   6.567
 8913TIP3   OH226681   2.405   3.242   1.735
 8913TIP3    H126682   2.454   3.160   1.747
 8913TIP3    H226683   2.316   3.220   1.761
 8914TIP3   OH226684   2.034   1.586   4.455
 8914TIP3    H126685   2.009   1.664   4.505
 8914TIP3    H226686   1.962   1.525   4.469
 8915TIP3   OH226687   7.910   1.243   2.344
 8915TIP3    H126688   7.983   1.230   2.403
 8915TIP3    H226689   7.855   1.308   2.387
 8916TIP3   OH226690   6.965   2.280   3.698
 8916TIP3    H126691   6.998   2.342   3.762
 8916TIP3    H226692   6.949   2.200   3.748
 8917TIP3   OH226693   2.165   1.252   5.814
 8917TIP3    H126694   2.132   1.178   5.865
 8917TIP3    H226695   2.229   1.294   5.871
 8918TIP3   OH226696   0.248   2.121   3.476
 8918TIP3    H126697   0.158   2.152   3.469
 8918TIP3    H226698   0.251   2.043   3.420
 8919TIP3   OH226699   3.050   6.935   4.067
 8919TIP3    H126700   3.097   6.923   4.149
 8919TIP3    H226701   3.004   7.018   4.078
 8920TIP3   OH226702   6.656   5.653   5.270
 8920TIP3    H126703   6.608   5.590   5.324
 8920TIP3    H226704   6.716   5.696   5.332
 8921TIP3   OH226705   3.652   4.349   2.823
 8921TIP3    H126706   3.678   4.261   2.850
 8921TIP3    H226707   3.645   4.398   2.904
 8922TIP3   OH226708   6.592   7.183   2.872
 8922TIP3    H126709   6.627   7.227   2.794
 8922TIP3    H226710   6.667   7.136   2.908
 8923TIP3   OH226711   8.180   3.356   5.914
 8923TIP3    H126712   8.148   3.362   5.824
 8923TIP3    H226713   8.245   3.427   5.922
 8924TIP3   OH226714   7.495   7.487   1.247
 8924TIP3    H126715   7.590   7.492   1.252
 8924TIP3    H226716   7.467   7.478   1.338
 8925TIP3   OH226717   1.832   5.123   6.504
 8925TIP3    H126718   1.838   5.080   6.419
 8925TIP3    H226719   1.743   5.159   6.507
 8926TIP3   OH226720   1.166   6.285   0.422
 8926TIP3    H126721   1.078   6.303   0.389
 8926TIP3    H226722   1.153   6.274   0.517
 8927TIP3   OH226723   0.619   0.642   1.949
 8927TIP3    H126724   0.565   0.580   1.900
 8927TIP3    H226725   0.561   0.716   1.965
 8928TIP3   OH226726   1.177   0.875   3.413
 8928TIP3    H126727   1.137   0.879   3.326
 8928TIP3    H226728   1.107   0.905   3.472
 8929TIP3   OH226729   2.621   0.166   6.179
 8929TIP3    H126730   2.537   0.134   6.211
 8929TIP3    H226731   2.606   0.258   6.159
 8930TIP3   OH226732   5.822   5.726   4.875
 8930TIP3    H126733   5.761   5.785   4.830
 8930TIP3    H226734   5.868   5.782   4.937
 8931TIP3   OH226735   1.461   6.211   5.282
 8931TIP3    H126736   1.394   6.257   5.232
 8931TIP3    H226737   1.466   6.124   5.242
 8932TIP3   OH226738   4.866   1.998   2.687
 8932TIP3    H126739   4.875   1.906   2.711
 8932TIP3    H226740   4.812   2.036   2.756
 8933TIP3   OH226741   2.523   6.074   4.750
 8933TIP3    H126742   2.611   6.111   4.737
 8933TIP3    H226743   2.538   5.985   4.782
 8934TIP3   OH226744   1.501   2.574   3.225
 8934TIP3    H126745   1.529   2.508   3.288
 8934TIP3    H226746   1.524   2.537   3.140
 8935TIP3   OH226747   6.121   5.442   0.415
 8935TIP3    H126748   6.133   5.370   0.352
 8935TIP3    H226749   6.136   5.521   0.363
 8936TIP3   OH226750   4.806   7.660   0.193
 8936TIP3    H126751   4.827   7.639   0.102
 8936TIP3    H226752   4.730   7.718   0.187
 8937TIP3   OH226753   0.850   3.990   4.103
 8937TIP3    H126754   0.778   3.977   4.042
 8937TIP3    H226755   0.904   3.912   4.093
 8938TIP3   OH226756   3.133   1.597   2.432
 8938TIP3    H126757   3.062   1.632   2.378
 8938TIP3    H226758   3.088   1.546   2.500
 8939TIP3   OH226759   7.551   5.297   0.159
 8939TIP3    H126760   7.467   5.255   0.143
 8939TIP3    H226761   7.605   5.229   0.199
 8940TIP3   OH226762   7.236   1.279   2.619
 8940TIP3    H126763   7.159   1.231   2.589
 8940TIP3    H226764   7.222   1.368   2.585
 8941TIP3   OH226765   0.369   6.671   4.091
 8941TIP3    H126766   0.397   6.718   4.012
 8941TIP3    H226767   0.273   6.671   4.086
 8942TIP3   OH226768   3.965   7.118   6.189
 8942TIP3    H126769   3.958   7.033   6.233
 8942TIP3    H226770   4.005   7.175   6.255
 8943TIP3   OH226771   3.235   4.771   1.381
 8943TIP3    H126772   3.254   4.679   1.359
 8943TIP3    H226773   3.207   4.767   1.473
 8944TIP3   OH226774   7.533   4.419   2.489
 8944TIP3    H126775   7.479   4.390   2.416
 8944TIP3    H226776   7.553   4.510   2.470
 8945TIP3   OH226777   3.693   0.416   6.186
 8945TIP3    H126778   3.641   0.392   6.263
 8945TIP3    H226779   3.776   0.369   6.197
 8946TIP3   OH226780   6.955   6.114   4.663
 8946TIP3    H126781   6.862   6.110   4.640
 8946TIP3    H226782   6.975   6.025   4.692
 8947TIP3   OH226783   0.574   2.931   3.591
 8947TIP3    H126784   0.568   2.910   3.684
 8947TIP3    H226785   0.669   2.937   3.575
 8948TIP3   OH226786   4.818   6.062   4.257
 8948TIP3    H126787   4.869   6.142   4.263
 8948TIP3    H226788   4.774   6.054   4.342
 8949TIP3   OH226789   2.914   2.433   0.325
 8949TIP3    H126790   2.998   2.467   0.294
 8949TIP3    H226791   2.933   2.392   0.409
 8950TIP3   OH226792   3.283   2.355   0.780
 8950TIP3    H126793   3.252   2.268   0.753
 8950TIP3    H226794   3.377   2.344   0.792
 8951TIP3   OH226795   7.345   3.035   5.185
 8951TIP3    H126796   7.324   3.128   5.175
 8951TIP3    H226797   7.354   3.022   5.279
 8952TIP3   OH226798   7.807   5.738   4.352
 8952TIP3    H126799   7.847   5.792   4.420
 8952TIP3    H226800   7.713   5.742   4.370
 8953TIP3   OH226801   3.728   6.956   2.316
 8953TIP3    H126802   3.679   7.032   2.284
 8953TIP3    H226803   3.711   6.887   2.251
 8954TIP3   OH226804   5.586   0.871   3.993
 8954TIP3    H126805   5.552   0.825   4.070
 8954TIP3    H226806   5.553   0.821   3.919
 8955TIP3   OH226807   7.632   5.175   6.006
 8955TIP3    H126808   7.637   5.200   6.099
 8955TIP3    H226809   7.551   5.124   6.000
 8956TIP3   OH226810   5.975   3.507   4.003
 8956TIP3    H126811   6.019   3.551   3.930
 8956TIP3    H226812   6.016   3.542   4.081
 8957TIP3   OH226813   7.813   2.028   5.892
 8957TIP3    H126814   7.861   2.003   5.971
 8957TIP3    H226815   7.723   2.000   5.909
 8958TIP3   OH226816   5.608   5.904   0.150
 8958TIP3    H126817   5.549   5.829   0.144
 8958TIP3    H226818   5.583   5.960   0.077
 8959TIP3   OH226819   5.416   4.453   5.125
 8959TIP3    H126820   5.505   4.481   5.102
 8959TIP3    H226821   5.428   4.373   5.176
 8960TIP3   OH226822   1.383   7.538   0.449
 8960TIP3    H126823   1.477   7.537   0.467
 8960TIP3    H226824   1.345   7.588   0.522
 8961TIP3   OH226825   5.516   3.750   5.849
 8961TIP3    H126826   5.510   3.760   5.754
 8961TIP3    H226827   5.515   3.840   5.882
 8962TIP3   OH226828   7.323   6.093   0.145
 8962TIP3    H126829   7.409   6.061   0.116
 8962TIP3    H226830   7.289   6.023   0.201
 8963TIP3   OH226831   5.781   0.975   3.195
 8963TIP3    H126832   5.690   0.986   3.223
 8963TIP3    H226833   5.783   1.011   3.106
 8964TIP3   OH226834   0.368   5.907   4.283
 8964TIP3    H126835   0.357   5.848   4.208
 8964TIP3    H226836   0.338   5.857   4.358
 8965TIP3   OH226837   0.407   5.454   3.674
 8965TIP3    H126838   0.379   5.363   3.683
 8965TIP3    H226839   0.423   5.465   3.580
 8966TIP3   OH226840   2.806   5.168   6.208
 8966TIP3    H126841   2.897   5.143   6.190
 8966TIP3    H226842   2.808   5.208   6.295
 8967TIP3   OH226843   4.977   6.167   0.210
 8967TIP3    H126844   4.972   6.117   0.292
 8967TIP3    H226845   4.930   6.248   0.229
 8968TIP3   OH226846   6.235   1.528   1.725
 8968TIP3    H126847   6.189   1.502   1.805
 8968TIP3    H226848   6.221   1.623   1.719
 8969TIP3   OH226849   4.820   5.620   4.463
 8969TIP3    H126850   4.727   5.645   4.462
 8969TIP3    H226851   4.847   5.626   4.372
 8970TIP3   OH226852   2.263   0.220   6.481
 8970TIP3    H126853   2.261   0.295   6.541
 8970TIP3    H226854   2.356   0.197   6.474
 8971TIP3   OH226855   2.902   2.673   1.254
 8971TIP3    H126856   2.844   2.602   1.284
 8971TIP3    H226857   2.976   2.670   1.314
 8972TIP3   OH226858   5.629   7.367   2.011
 8972TIP3    H126859   5.558   7.357   2.074
 8972TIP3    H226860   5.707   7.339   2.058
 8973TIP3   OH226861   6.797   0.332   4.165
 8973TIP3    H126862   6.827   0.422   4.170
 8973TIP3    H226863   6.877   0.282   4.145
 8974TIP3   OH226864   1.388   2.085   4.399
 8974TIP3    H126865   1.313   2.084   4.340
 8974TIP3    H226866   1.408   1.993   4.413
 8975TIP3   OH226867   5.708   1.117   3.727
 8975TIP3    H126868   5.684   1.034   3.687
 8975TIP3    H226869   5.766   1.159   3.663
 8976TIP3   OH226870   3.938   5.925   6.061
 8976TIP3    H126871   4.034   5.924   6.057
 8976TIP3    H226872   3.917   5.877   6.141
 8977TIP3   OH226873   3.176   2.418   5.136
 8977TIP3    H126874   3.227   2.435   5.215
 8977TIP3    H226875   3.134   2.501   5.115
 8978TIP3   OH226876   4.284   6.990   3.353
 8978TIP3    H126877   4.266   6.912   3.301
 8978TIP3    H226878   4.369   6.974   3.393
 8979TIP3   OH226879   2.682   3.857   6.620
 8979TIP3    H126880   2.702   3.825   6.708
 8979TIP3    H226881   2.627   3.788   6.582
 8980TIP3   OH226882   2.556   3.569   5.755
 8980TIP3    H126883   2.580   3.557   5.847
 8980TIP3    H226884   2.481   3.627   5.757
 8981TIP3   OH226885   3.923   1.823   3.278
 8981TIP3    H126886   3.904   1.751   3.218
 8981TIP3    H226887   3.906   1.787   3.365
 8982TIP3   OH226888   2.297   1.525   6.672
 8982TIP3    H126889   2.313   1.467   6.746
 8982TIP3    H226890   2.218   1.574   6.696
 8983TIP3   OH226891   2.633   3.721   2.368
 8983TIP3    H126892   2.615   3.805   2.327
 8983TIP3    H226893   2.687   3.674   2.304
 8984TIP3   OH226894   6.253   2.019   6.417
 8984TIP3    H126895   6.206   2.101   6.432
 8984TIP3    H226896   6.301   2.033   6.335
 8985TIP3   OH226897   3.573   7.326   3.105
 8985TIP3    H126898   3.638   7.319   3.175
 8985TIP3    H226899   3.625   7.340   3.026
 8986TIP3   OH226900   3.476   1.535   0.605
 8986TIP3    H126901   3.564   1.503   0.626
 8986TIP3    H226902   3.457   1.498   0.520
 8987TIP3   OH226903   4.206   6.586   6.212
 8987TIP3    H126904   4.273   6.557   6.274
 8987TIP3    H226905   4.241   6.562   6.126
 8988TIP3   OH226906   6.207   4.480   3.045
 8988TIP3    H126907   6.216   4.483   3.140
 8988TIP3    H226908   6.171   4.394   3.027
 8989TIP3   OH226909   7.695   2.790   4.972
 8989TIP3    H126910   7.778   2.775   5.016
 8989TIP3    H226911   7.652   2.859   5.024
 8990TIP3   OH226912   7.815   0.411   0.053
 8990TIP3    H126913   7.878   0.482   0.067
 8990TIP3    H226914   7.777   0.395   0.140
 8991TIP3   OH226915   4.064   2.071   0.669
 8991TIP3    H126916   4.065   2.159   0.632
 8991TIP3    H226917   4.127   2.022   0.616
 8992TIP3   OH226918   0.284   2.520   1.714
 8992TIP3    H126919   0.344   2.463   1.665
 8992TIP3    H226920   0.247   2.578   1.647
 8993TIP3   OH226921   2.029   1.243   0.290
 8993TIP3    H126922   1.937   1.215   0.294
 8993TIP3    H226923   2.024   1.339   0.286
 8994TIP3   OH226924   1.688   2.185   3.189
 8994TIP3    H126925   1.781   2.170   3.171
 8994TIP3    H226926   1.676   2.160   3.280
 8995TIP3   OH226927   3.103   5.159   0.350
 8995TIP3    H126928   3.100   5.232   0.411
 8995TIP3    H226929   3.070   5.195   0.267
 8996TIP3   OH226930   7.999   3.312   6.658
 8996TIP3    H126931   7.967   3.282   6.572
 8996TIP3    H226932   8.027   3.402   6.643
 8997TIP3   OH226933   2.651   5.771   2.418
 8997TIP3    H126934   2.576   5.790   2.362
 8997TIP3    H226935   2.621   5.703   2.477
 8998TIP3   OH226936   5.118   2.088   2.722
 8998TIP3    H126937   5.112   2.113   2.815
 8998TIP3    H226938   5.032   2.053   2.701
 8999TIP3   OH226939   5.072   3.728   5.613
 8999TIP3    H126940   5.107   3.809   5.574
 8999TIP3    H226941   5.118   3.658   5.565
 9000TIP3   OH226942   0.839   5.486   0.702
 9000TIP3    H126943   0.770   5.467   0.638
 9000TIP3    H226944   0.836   5.581   0.713
 9001TIP3   OH226945   3.090   1.896   3.347
 9001TIP3    H126946   2.996   1.913   3.350
 9001TIP3    H226947   3.130   1.981   3.362
 9002TIP3   OH226948   4.360   5.385   5.343
 9002TIP3    H126949   4.354   5.385   5.439
 9002TIP3    H226950   4.272   5.409   5.314
 9003TIP3   OH226951   3.018   0.042   0.756
 9003TIP3    H126952   2.989  -0.001   0.837
 9003TIP3    H226953   2.985   0.131   0.763
 9004TIP3   OH226954   2.076   1.138   4.438
 9004TIP3    H126955   2.009   1.194   4.479
 9004TIP3    H226956   2.143   1.199   4.407
 9005TIP3   OH226957   6.915   7.314   0.024
 9005TIP3    H126958   6.827   7.348   0.012
 9005TIP3    H226959   6.927   7.312   0.119
 9006TIP3   OH226960   5.621   5.892   0.546
 9006TIP3    H126961   5.599   5.968   0.493
 9006TIP3    H226962   5.554   5.891   0.615
 9007TIP3   OH226963   5.295   0.192   0.870
 9007TIP3    H126964   5.367   0.202   0.932
 9007TIP3    H226965   5.338   0.180   0.785
 9008TIP3   OH226966   8.186   4.697   5.281
 9008TIP3    H126967   8.165   4.741   5.198
 9008TIP3    H226968   8.117   4.632   5.292
 9009TIP3   OH226969   3.677   7.515   4.140
 9009TIP3    H126970   3.601   7.512   4.198
 9009TIP3    H226971   3.732   7.585   4.176
 9010TIP3   OH226972   0.373   1.689   1.674
 9010TIP3    H126973   0.348   1.731   1.591
 9010TIP3    H226974   0.404   1.762   1.729
 9011TIP3   OH226975   1.846   5.128   2.265
 9011TIP3    H126976   1.763   5.163   2.297
 9011TIP3    H226977   1.897   5.110   2.344
 9012TIP3   OH226978   5.027   0.147   0.865
 9012TIP3    H126979   5.120   0.169   0.871
 9012TIP3    H226980   4.992   0.209   0.801
 9013TIP3   OH226981   7.619   5.666   5.330
 9013TIP3    H126982   7.703   5.695   5.295
 9013TIP3    H226983   7.565   5.745   5.331
 9014TIP3   OH226984   5.880   4.983   3.816
 9014TIP3    H126985   5.960   4.969   3.866
 9014TIP3    H226986   5.827   4.905   3.833
 9015TIP3   OH226987   2.462   6.943   2.141
 9015TIP3    H126988   2.474   6.849   2.133
 9015TIP3    H226989   2.414   6.968   2.062
 9016TIP3   OH226990   6.888   5.664   6.600
 9016TIP3    H126991   6.945   5.613   6.658
 9016TIP3    H226992   6.911   5.635   6.512
 9017TIP3   OH226993   1.028   5.690   3.709
 9017TIP3    H126994   0.946   5.728   3.679
 9017TIP3    H226995   1.028   5.601   3.675
 9018TIP3   OH226996   6.727   5.836   0.895
 9018TIP3    H126997   6.716   5.846   0.801
 9018TIP3    H226998   6.648   5.792   0.924
 9019TIP3   OH226999   1.596   1.418   4.788
 9019TIP3    H127000   1.592   1.379   4.701
 9019TIP3    H227001   1.612   1.345   4.847
 9020TIP3   OH227002   2.976   2.629   2.132
 9020TIP3    H127003   2.999   2.693   2.200
 9020TIP3    H227004   2.977   2.544   2.177
 9021TIP3   OH227005   5.440   0.265   2.428
 9021TIP3    H127006   5.389   0.314   2.493
 9021TIP3    H227007   5.530   0.268   2.460
 9022TIP3   OH227008   0.626   5.157   2.726
 9022TIP3    H127009   0.618   5.239   2.774
 9022TIP3    H227010   0.618   5.088   2.792
 9023TIP3   OH227011   3.462   7.412   6.485
 9023TIP3    H127012   3.388   7.469   6.467
 9023TIP3    H227013   3.465   7.406   6.581
 9024TIP3   OH227014   1.022   1.091   2.166
 9024TIP3    H127015   0.969   1.122   2.093
 9024TIP3    H227016   0.982   1.008   2.191
 9025TIP3   OH227017   1.728   7.263   6.612
 9025TIP3    H127018   1.659   7.224   6.558
 9025TIP3    H227019   1.809   7.246   6.564
 9026TIP3   OH227020   5.809   6.086   5.136
 9026TIP3    H127021   5.804   6.179   5.113
 9026TIP3    H227022   5.783   6.083   5.228
 9027TIP3   OH227023   4.606   4.151   0.738
 9027TIP3    H127024   4.697   4.135   0.763
 9027TIP3    H227025   4.556   4.084   0.784
 9028TIP3   OH227026   0.261   6.375   4.662
 9028TIP3    H127027   0.287   6.291   4.701
 9028TIP3    H227028   0.317   6.440   4.705
 9029TIP3   OH227029   5.676   6.776   2.217
 9029TIP3    H127030   5.618   6.789   2.142
 9029TIP3    H227031   5.762   6.764   2.178
 9030TIP3   OH227032   2.095   2.727   1.211
 9030TIP3    H127033   2.034   2.696   1.145
 9030TIP3    H227034   2.051   2.709   1.295
 9031TIP3   OH227035   4.600   0.153   3.604
 9031TIP3    H127036   4.664   0.128   3.537
 9031TIP3    H227037   4.570   0.240   3.577
 9032TIP3   OH227038   3.795   0.460   2.358
 9032TIP3    H127039   3.764   0.412   2.434
 9032TIP3    H227040   3.882   0.424   2.341
 9033TIP3   OH227041   3.887   1.703   1.553
 9033TIP3    H127042   3.972   1.740   1.575
 9033TIP3    H227043   3.905   1.642   1.482
 9034TIP3   OH227044   4.259   3.916   1.860
 9034TIP3    H127045   4.164   3.925   1.851
 9034TIP3    H227046   4.292   4.006   1.853
 9035TIP3   OH227047   3.083   4.840   1.757
 9035TIP3    H127048   3.015   4.851   1.691
 9035TIP3    H227049   3.036   4.841   1.840
 9036TIP3   OH227050   4.464   6.479   2.251
 9036TIP3    H127051   4.400   6.544   2.221
 9036TIP3    H227052   4.460   6.410   2.184
 9037TIP3   OH227053   5.718   7.653   4.782
 9037TIP3    H127054   5.775   7.692   4.849
 9037TIP3    H227055   5.629   7.668   4.815
 9038TIP3   OH227056   6.787   2.817   6.218
 9038TIP3    H127057   6.876   2.784   6.225
 9038TIP3    H227058   6.764   2.843   6.307
 9039TIP3   OH227059   6.332   4.427   0.814
 9039TIP3    H127060   6.253   4.401   0.767
 9039TIP3    H227061   6.300   4.451   0.902
 9040TIP3   OH227062   2.236   1.073   2.188
 9040TIP3    H127063   2.146   1.060   2.161
 9040TIP3    H227064   2.246   1.017   2.265
 9041TIP3   OH227065   4.463   5.822   1.276
 9041TIP3    H127066   4.467   5.808   1.182
 9041TIP3    H227067   4.440   5.915   1.286
 9042TIP3   OH227068   8.226   4.662   1.805
 9042TIP3    H127069   8.297   4.700   1.858
 9042TIP3    H227070   8.149   4.667   1.862
 9043TIP3   OH227071   7.550   0.296   0.477
 9043TIP3    H127072   7.486   0.263   0.540
 9043TIP3    H227073   7.524   0.255   0.394
 9044TIP3   OH227074   5.679   0.523   5.326
 9044TIP3    H127075   5.588   0.501   5.349
 9044TIP3    H227076   5.673   0.556   5.236
 9045TIP3   OH227077   3.979   0.943   2.825
 9045TIP3    H127078   3.914   1.000   2.867
 9045TIP3    H227079   3.963   0.953   2.731
 9046TIP3   OH227080   0.372   7.644   1.567
 9046TIP3    H127081   0.406   7.591   1.494
 9046TIP3    H227082   0.354   7.729   1.529
 9047TIP3   OH227083   0.233   1.503   1.344
 9047TIP3    H127084   0.252   1.436   1.410
 9047TIP3    H227085   0.225   1.454   1.262
 9048TIP3   OH227086   0.140   5.429   1.347
 9048TIP3    H127087   0.232   5.445   1.327
 9048TIP3    H227088   0.128   5.464   1.435
 9049TIP3   OH227089   5.626   4.846   3.551
 9049TIP3    H127090   5.704   4.791   3.550
 9049TIP3    H227091   5.557   4.789   3.584
 9050TIP3   OH227092   0.883   0.632   6.203
 9050TIP3    H127093   0.893   0.668   6.291
 9050TIP3    H227094   0.937   0.553   6.203
 9051TIP3   OH227095   6.257   0.956   1.106
 9051TIP3    H127096   6.236   1.047   1.127
 9051TIP3    H227097   6.322   0.931   1.172
 9052TIP3   OH227098   3.861   5.770   0.221
 9052TIP3    H127099   3.802   5.699   0.196
 9052TIP3    H227100   3.813   5.850   0.199
 9053TIP3   OH227101   0.871   1.932   4.359
 9053TIP3    H127102   0.870   1.928   4.455
 9053TIP3    H227103   0.804   1.996   4.337
 9054TIP3   OH227104   4.641   1.089   0.797
 9054TIP3    H127105   4.643   1.158   0.731
 9054TIP3    H227106   4.695   1.019   0.760
 9055TIP3   OH227107   4.678   6.520   5.120
 9055TIP3    H127108   4.649   6.477   5.200
 9055TIP3    H227109   4.598   6.532   5.069
 9056TIP3   OH227110   5.337   1.312   0.172
 9056TIP3    H127111   5.276   1.247   0.138
 9056TIP3    H227112   5.417   1.300   0.121
 9057TIP3   OH227113   4.667   6.988   2.037
 9057TIP3    H127114   4.657   7.083   2.026
 9057TIP3    H227115   4.620   6.968   2.118
 9058TIP3   OH227116   4.735   4.226   6.744
 9058TIP3    H127117   4.664   4.238   6.807
 9058TIP3    H227118   4.796   4.167   6.789
 9059TIP3   OH227119   2.645   6.536   3.434
 9059TIP3    H127120   2.683   6.509   3.350
 9059TIP3    H227121   2.719   6.573   3.482
 9060TIP3   OH227122   4.861   5.970   3.608
 9060TIP3    H127123   4.787   5.949   3.551
 9060TIP3    H227124   4.921   6.020   3.552
 9061TIP3   OH227125   5.606   1.414   1.764
 9061TIP3    H127126   5.566   1.332   1.793
 9061TIP3    H227127   5.695   1.411   1.799
 9062TIP3   OH227128   3.604   6.473   4.774
 9062TIP3    H127129   3.528   6.530   4.762
 9062TIP3    H227130   3.649   6.508   4.851
 9063TIP3   OH227131   6.538   0.752   0.880
 9063TIP3    H127132   6.632   0.766   0.868
 9063TIP3    H227133   6.501   0.768   0.793
 9064TIP3   OH227134   0.807   4.218   1.866
 9064TIP3    H127135   0.873   4.263   1.812
 9064TIP3    H227136   0.819   4.254   1.953
 9065TIP3   OH227137   6.210   5.104   3.817
 9065TIP3    H127138   6.222   5.046   3.892
 9065TIP3    H227139   6.177   5.186   3.854
 9066TIP3   OH227140   6.591   6.458   0.872
 9066TIP3    H127141   6.584   6.544   0.913
 9066TIP3    H227142   6.651   6.472   0.798
 9067TIP3   OH227143   7.214   4.524   2.747
 9067TIP3    H127144   7.209   4.607   2.794
 9067TIP3    H227145   7.300   4.489   2.768
 9068TIP3   OH227146   0.197   3.037   2.334
 9068TIP3    H127147   0.226   3.086   2.411
 9068TIP3    H227148   0.225   3.091   2.260
 9069TIP3   OH227149   2.256   0.690   0.376
 9069TIP3    H127150   2.272   0.783   0.389
 9069TIP3    H227151   2.169   0.675   0.414
 9070TIP3   OH227152   1.124   4.757   2.995
 9070TIP3    H127153   1.206   4.738   2.950
 9070TIP3    H227154   1.063   4.691   2.962
 9071TIP3   OH227155   2.589   6.248   3.908
 9071TIP3    H127156   2.645   6.209   3.841
 9071TIP3    H227157   2.587   6.341   3.886
 9072TIP3   OH227158   0.614   1.760   2.693
 9072TIP3    H127159   0.528   1.722   2.713
 9072TIP3    H227160   0.596   1.850   2.669
 9073TIP3   OH227161   6.335   1.707   3.617
 9073TIP3    H127162   6.359   1.742   3.532
 9073TIP3    H227163   6.371   1.769   3.680
 9074TIP3   OH227164   0.645   0.517   3.238
 9074TIP3    H127165   0.588   0.550   3.308
 9074TIP3    H227166   0.734   0.536   3.268
 9075TIP3   OH227167   4.954   3.670   6.192
 9075TIP3    H127168   4.899   3.702   6.263
 9075TIP3    H227169   4.940   3.732   6.121
 9076TIP3   OH227170   0.707   0.755   6.698
 9076TIP3    H127171   0.755   0.701   6.760
 9076TIP3    H227172   0.615   0.742   6.721
 9077TIP3   OH227173   5.032   3.832   1.246
 9077TIP3    H127174   5.030   3.823   1.341
 9077TIP3    H227175   4.991   3.917   1.229
 9078TIP3   OH227176   3.532   1.347   3.831
 9078TIP3    H127177   3.508   1.369   3.741
 9078TIP3    H227178   3.598   1.279   3.823
 9079TIP3   OH227179   1.005   2.853   5.575
 9079TIP3    H127180   0.919   2.851   5.534
 9079TIP3    H227181   0.989   2.891   5.662
 9080TIP3   OH227182   2.316   4.160   1.397
 9080TIP3    H127183   2.229   4.202   1.400
 9080TIP3    H227184   2.324   4.117   1.482
 9081TIP3   OH227185   6.773   2.070   4.986
 9081TIP3    H127186   6.767   2.094   5.078
 9081TIP3    H227187   6.683   2.075   4.953
 9082TIP3   OH227188   4.260   1.684   1.329
 9082TIP3    H127189   4.196   1.740   1.285
 9082TIP3    H227190   4.265   1.719   1.418
 9083TIP3   OH227191   7.303   1.926   2.532
 9083TIP3    H127192   7.217   1.884   2.539
 9083TIP3    H227193   7.320   1.960   2.619
 9084TIP3   OH227194   4.524   6.027   4.905
 9084TIP3    H127195   4.476   6.082   4.843
 9084TIP3    H227196   4.458   5.998   4.968
 9085TIP3   OH227197   6.544   1.614   6.711
 9085TIP3    H127198   6.636   1.618   6.684
 9085TIP3    H227199   6.501   1.564   6.642
 9086TIP3   OH227200   0.502   6.840   2.621
 9086TIP3    H127201   0.427   6.791   2.588
 9086TIP3    H227202   0.574   6.776   2.620
 9087TIP3   OH227203   0.631   5.003   0.745
 9087TIP3    H127204   0.704   5.040   0.794
 9087TIP3    H227205   0.612   4.920   0.789
 9088TIP3   OH227206   4.275   0.766   4.580
 9088TIP3    H127207   4.302   0.849   4.541
 9088TIP3    H227208   4.349   0.707   4.566
 9089TIP3   OH227209   7.953   0.036   4.300
 9089TIP3    H127210   8.018   0.070   4.239
 9089TIP3    H227211   7.877   0.093   4.289
 9090TIP3   OH227212   1.315   3.554   6.613
 9090TIP3    H127213   1.324   3.625   6.550
 9090TIP3    H227214   1.378   3.488   6.584
 9091TIP3   OH227215   6.676   3.796   5.749
 9091TIP3    H127216   6.733   3.762   5.680
 9091TIP3    H227217   6.636   3.875   5.712
 9092TIP3   OH227218   7.224   3.554   5.781
 9092TIP3    H127219   7.310   3.512   5.779
 9092TIP3    H227220   7.197   3.549   5.873
 9093TIP3   OH227221   7.844   4.444   3.189
 9093TIP3    H127222   7.927   4.396   3.197
 9093TIP3    H227223   7.835   4.489   3.273
 9094TIP3   OH227224   7.949   0.212   0.634
 9094TIP3    H127225   7.892   0.288   0.619
 9094TIP3    H227226   7.917   0.146   0.572
 9095TIP3   OH227227   1.139   1.393   5.645
 9095TIP3    H127228   1.130   1.367   5.736
 9095TIP3    H227229   1.125   1.312   5.595
 9096TIP3   OH227230   1.652   7.267   5.356
 9096TIP3    H127231   1.568   7.300   5.389
 9096TIP3    H227232   1.640   7.260   5.262
 9097TIP3   OH227233   7.750   2.588   0.444
 9097TIP3    H127234   7.717   2.656   0.385
 9097TIP3    H227235   7.709   2.507   0.413
 9098TIP3   OH227236   4.452   0.458   3.830
 9098TIP3    H127237   4.404   0.533   3.863
 9098TIP3    H227238   4.540   0.467   3.868
 9099TIP3   OH227239   0.380   0.256   3.258
 9099TIP3    H127240   0.363   0.336   3.309
 9099TIP3    H227241   0.298   0.207   3.263
 9100TIP3   OH227242   2.610   7.108   1.988
 9100TIP3    H127243   2.569   7.069   2.066
 9100TIP3    H227244   2.636   7.195   2.016
 9101TIP3   OH227245   1.921   6.486   4.013
 9101TIP3    H127246   1.839   6.447   3.985
 9101TIP3    H227247   1.983   6.413   4.017
 9102TIP3   OH227248   4.790   7.252   1.955
 9102TIP3    H127249   4.843   7.215   2.027
 9102TIP3    H227250   4.792   7.347   1.970
 9103TIP3   OH227251   3.509   3.661   4.218
 9103TIP3    H127252   3.448   3.604   4.171
 9103TIP3    H227253   3.566   3.697   4.150
 9104TIP3   OH227254   5.876   3.600   0.181
 9104TIP3    H127255   5.820   3.640   0.114
 9104TIP3    H227256   5.825   3.607   0.262
 9105TIP3   OH227257   6.145   3.572   1.551
 9105TIP3    H127258   6.068   3.601   1.502
 9105TIP3    H227259   6.126   3.596   1.641
 9106TIP3   OH227260   2.680   7.449   6.257
 9106TIP3    H127261   2.596   7.489   6.235
 9106TIP3    H227262   2.661   7.356   6.265
 9107TIP3   OH227263   2.862   3.762   0.322
 9107TIP3    H127264   2.954   3.777   0.340
 9107TIP3    H227265   2.840   3.824   0.253
 9108TIP3   OH227266   4.367   2.428   4.918
 9108TIP3    H127267   4.393   2.340   4.889
 9108TIP3    H227268   4.294   2.451   4.861
 9109TIP3   OH227269   8.187   1.739   0.100
 9109TIP3    H127270   8.120   1.675   0.079
 9109TIP3    H227271   8.174   1.758   0.193
 9110TIP3   OH227272   4.438   2.881   1.411
 9110TIP3    H127273   4.432   2.967   1.454
 9110TIP3    H227274   4.516   2.888   1.356
 9111TIP3   OH227275   8.176   0.730   3.532
 9111TIP3    H127276   8.095   0.752   3.485
 9111TIP3    H227277   8.192   0.639   3.511
 9112TIP3   OH227278   0.399   7.757   2.724
 9112TIP3    H127279   0.448   7.807   2.658
 9112TIP3    H227280   0.310   7.791   2.718
 9113TIP3   OH227281   3.629   6.996   0.435
 9113TIP3    H127282   3.656   6.926   0.376
 9113TIP3    H227283   3.710   7.042   0.457
 9114TIP3   OH227284   3.830   7.141   0.514
 9114TIP3    H127285   3.884   7.072   0.552
 9114TIP3    H227286   3.891   7.214   0.500
 9115TIP3   OH227287   6.046   0.610   4.425
 9115TIP3    H127288   6.136   0.615   4.457
 9115TIP3    H227289   6.046   0.537   4.364
 9116TIP3   OH227290   0.565   1.089   4.283
 9116TIP3    H127291   0.608   1.087   4.198
 9116TIP3    H227292   0.625   1.139   4.339
 9117TIP3   OH227293   0.194   4.126   2.961
 9117TIP3    H127294   0.221   4.128   2.869
 9117TIP3    H227295   0.108   4.167   2.961
 9118TIP3   OH227296   0.324   3.940   3.779
 9118TIP3    H127297   0.269   3.922   3.703
 9118TIP3    H227298   0.277   4.007   3.828
 9119TIP3   OH227299   5.587   4.090   3.450
 9119TIP3    H127300   5.618   4.174   3.483
 9119TIP3    H227301   5.526   4.113   3.380
 9120TIP3   OH227302   7.736   4.382   1.892
 9120TIP3    H127303   7.826   4.403   1.915
 9120TIP3    H227304   7.684   4.451   1.934
 9121TIP3   OH227305   2.864   4.432   5.223
 9121TIP3    H127306   2.849   4.483   5.302
 9121TIP3    H227307   2.776   4.413   5.189
 9122TIP3   OH227308   5.042   5.408   3.878
 9122TIP3    H127309   4.994   5.339   3.831
 9122TIP3    H227310   4.980   5.481   3.884
 9123TIP3   OH227311   3.655   0.979   1.473
 9123TIP3    H127312   3.639   0.937   1.558
 9123TIP3    H227313   3.725   0.927   1.434
 9124TIP3   OH227314   3.580   4.746   3.469
 9124TIP3    H127315   3.527   4.720   3.544
 9124TIP3    H227316   3.671   4.730   3.497
 9125TIP3   OH227317   0.492   5.620   0.021
 9125TIP3    H127318   0.469   5.528   0.008
 9125TIP3    H227319   0.576   5.617   0.066
 9126TIP3   OH227320   1.636   5.784   2.675
 9126TIP3    H127321   1.548   5.812   2.651
 9126TIP3    H227322   1.686   5.865   2.680
 9127TIP3   OH227323   7.426   1.437   4.091
 9127TIP3    H127324   7.398   1.523   4.059
 9127TIP3    H227325   7.521   1.444   4.101
 9128TIP3   OH227326   0.233   2.064   5.564
 9128TIP3    H127327   0.238   2.073   5.659
 9128TIP3    H227328   0.139   2.053   5.546
 9129TIP3   OH227329   7.437   6.732   5.084
 9129TIP3    H127330   7.497   6.668   5.047
 9129TIP3    H227331   7.482   6.816   5.074
 9130TIP3   OH227332   1.533   6.824   1.556
 9130TIP3    H127333   1.592   6.844   1.629
 9130TIP3    H227334   1.445   6.834   1.592
 9131TIP3   OH227335   2.887   3.575   0.969
 9131TIP3    H127336   2.892   3.516   1.043
 9131TIP3    H227337   2.933   3.654   0.998
 9132TIP3   OH227338   5.824   0.821   0.401
 9132TIP3    H127339   5.771   0.756   0.447
 9132TIP3    H227340   5.889   0.769   0.353
 9133TIP3   OH227341   3.870   5.857   1.935
 9133TIP3    H127342   3.925   5.828   2.008
 9133TIP3    H227343   3.810   5.920   1.975
 9134TIP3   OH227344   0.054   2.820   3.112
 9134TIP3    H127345   0.083   2.775   3.192
 9134TIP3    H227346   0.039   2.750   3.049
 9135TIP3   OH227347   3.294   0.423   5.781
 9135TIP3    H127348   3.237   0.352   5.752
 9135TIP3    H227349   3.373   0.414   5.728
 9136TIP3   OH227350   0.747   3.298   4.360
 9136TIP3    H127351   0.767   3.295   4.454
 9136TIP3    H227352   0.824   3.339   4.321
 9137TIP3   OH227353   1.105   5.236   6.469
 9137TIP3    H127354   1.104   5.218   6.375
 9137TIP3    H227355   1.014   5.260   6.490
 9138TIP3   OH227356   5.233   1.240   6.433
 9138TIP3    H127357   5.303   1.285   6.481
 9138TIP3    H227358   5.275   1.163   6.395
 9139TIP3   OH227359   5.669   5.861   3.328
 9139TIP3    H127360   5.598   5.803   3.301
 9139TIP3    H227361   5.745   5.803   3.337
 9140TIP3   OH227362   5.485   2.987   2.006
 9140TIP3    H127363   5.471   3.005   1.913
 9140TIP3    H227364   5.403   2.949   2.036
 9141TIP3   OH227365   8.289   1.742   6.122
 9141TIP3    H127366   8.196   1.762   6.114
 9141TIP3    H227367   8.301   1.662   6.071
 9142TIP3   OH227368   3.614   1.163   4.205
 9142TIP3    H127369   3.558   1.238   4.185
 9142TIP3    H227370   3.630   1.121   4.121
 9143TIP3   OH227371   3.252   0.565   1.590
 9143TIP3    H127372   3.295   0.574   1.675
 9143TIP3    H227373   3.290   0.486   1.552
 9144TIP3   OH227374   0.530   0.774   4.606
 9144TIP3    H127375   0.571   0.857   4.583
 9144TIP3    H227376   0.600   0.724   4.649
 9145TIP3   OH227377   5.307   5.582   6.061
 9145TIP3    H127378   5.379   5.566   6.121
 9145TIP3    H227379   5.306   5.504   6.005
 9146TIP3   OH227380   4.049   2.490   3.122
 9146TIP3    H127381   4.137   2.515   3.093
 9146TIP3    H227382   4.063   2.410   3.173
 9147TIP3   OH227383   7.062   6.784   2.773
 9147TIP3    H127384   6.979   6.758   2.813
 9147TIP3    H227385   7.036   6.829   2.692
 9148TIP3   OH227386   1.950   3.213   5.650
 9148TIP3    H127387   1.930   3.198   5.557
 9148TIP3    H227388   2.035   3.172   5.663
 9149TIP3   OH227389   7.508   6.277   3.928
 9149TIP3    H127390   7.481   6.200   3.978
 9149TIP3    H227391   7.427   6.311   3.891
 9150TIP3   OH227392   7.708   2.676   5.879
 9150TIP3    H127393   7.649   2.619   5.830
 9150TIP3    H227394   7.669   2.764   5.869
 9151TIP3   OH227395   4.992   5.683   5.708
 9151TIP3    H127396   4.929   5.651   5.772
 9151TIP3    H227397   5.040   5.753   5.752
 9152TIP3   OH227398   1.791   2.703   4.309
 9152TIP3    H127399   1.813   2.641   4.379
 9152TIP3    H227400   1.729   2.656   4.253
 9153TIP3   OH227401   1.583   4.274   2.134
 9153TIP3    H127402   1.496   4.239   2.152
 9153TIP3    H227403   1.633   4.198   2.103
 9154TIP3   OH227404   1.665   6.306   3.990
 9154TIP3    H127405   1.628   6.394   3.992
 9154TIP3    H227406   1.602   6.254   3.941
 9155TIP3   OH227407   4.388   3.416   0.133
 9155TIP3    H127408   4.434   3.390   0.213
 9155TIP3    H227409   4.300   3.381   0.144
 9156TIP3   OH227410   6.450   4.157   5.759
 9156TIP3    H127411   6.364   4.145   5.719
 9156TIP3    H227412   6.433   4.156   5.853
 9157TIP3   OH227413   6.074   6.986   0.073
 9157TIP3    H127414   6.050   7.059   0.131
 9157TIP3    H227415   6.165   7.003   0.049
 9158TIP3   OH227416   7.689   6.057   1.200
 9158TIP3    H127417   7.596   6.041   1.188
 9158TIP3    H227418   7.705   6.043   1.293
 9159TIP3   OH227419   2.041   1.560   3.513
 9159TIP3    H127420   2.121   1.599   3.549
 9159TIP3    H227421   2.067   1.471   3.488
 9160TIP3   OH227422   4.057   7.500   5.634
 9160TIP3    H127423   4.149   7.516   5.610
 9160TIP3    H227424   4.060   7.419   5.686
 9161TIP3   OH227425   5.130   7.499   4.059
 9161TIP3    H127426   5.088   7.436   4.116
 9161TIP3    H227427   5.212   7.520   4.103
 9162TIP3   OH227428   2.441   1.250   4.014
 9162TIP3    H127429   2.514   1.305   4.043
 9162TIP3    H227430   2.376   1.312   3.980
 9163TIP3   OH227431   0.484   1.611   4.454
 9163TIP3    H127432   0.520   1.634   4.368
 9163TIP3    H227433   0.547   1.550   4.492
 9164TIP3   OH227434   3.600   7.738   0.580
 9164TIP3    H127435   3.694   7.743   0.563
 9164TIP3    H227436   3.592   7.747   0.675
 9165TIP3   OH227437   6.445   5.699   2.323
 9165TIP3    H127438   6.481   5.787   2.334
 9165TIP3    H227439   6.496   5.660   2.252
 9166TIP3   OH227440   5.782   1.182   3.974
 9166TIP3    H127441   5.857   1.129   4.001
 9166TIP3    H227442   5.749   1.139   3.895
 9167TIP3   OH227443   0.188   6.777   5.883
 9167TIP3    H127444   0.251   6.724   5.834
 9167TIP3    H227445   0.242   6.840   5.930
 9168TIP3   OH227446   3.711   2.056   6.362
 9168TIP3    H127447   3.693   1.966   6.389
 9168TIP3    H227448   3.635   2.106   6.392
 9169TIP3   OH227449   4.042   7.093   3.438
 9169TIP3    H127450   4.009   7.107   3.349
 9169TIP3    H227451   4.130   7.058   3.425
 9170TIP3   OH227452   5.182   6.401   0.175
 9170TIP3    H127453   5.188   6.354   0.092
 9170TIP3    H227454   5.091   6.428   0.182
 9171TIP3   OH227455   6.946   7.761   1.179
 9171TIP3    H127456   6.955   7.734   1.088
 9171TIP3    H227457   7.003   7.702   1.227
 9172TIP3   OH227458   0.261   0.375   4.047
 9172TIP3    H127459   0.198   0.420   3.991
 9172TIP3    H227460   0.333   0.438   4.057
 9173TIP3   OH227461   6.493   2.663   4.123
 9173TIP3    H127462   6.488   2.627   4.212
 9173TIP3    H227463   6.420   2.622   4.077
 9174TIP3   OH227464   5.982   5.004   4.753
 9174TIP3    H127465   6.028   5.075   4.708
 9174TIP3    H227466   5.904   5.045   4.790
 9175TIP3   OH227467   1.877   1.026   4.661
 9175TIP3    H127468   1.854   1.114   4.633
 9175TIP3    H227469   1.884   0.976   4.580
 9176TIP3   OH227470   5.717   2.956   2.527
 9176TIP3    H127471   5.812   2.948   2.517
 9176TIP3    H227472   5.693   3.029   2.469
 9177TIP3   OH227473   6.299   1.724   0.839
 9177TIP3    H127474   6.297   1.750   0.746
 9177TIP3    H227475   6.245   1.790   0.883
 9178TIP3   OH227476   2.435   7.066   6.445
 9178TIP3    H127477   2.356   7.026   6.409
 9178TIP3    H227478   2.490   6.993   6.472
 9179TIP3   OH227479   5.472   3.715   0.615
 9179TIP3    H127480   5.424   3.639   0.649
 9179TIP3    H227481   5.486   3.770   0.693
 9180TIP3   OH227482   3.386   0.578   6.301
 9180TIP3    H127483   3.378   0.653   6.360
 9180TIP3    H227484   3.447   0.519   6.345
 9181TIP3   OH227485   7.114   4.064   3.165
 9181TIP3    H127486   7.073   4.122   3.228
 9181TIP3    H227487   7.109   4.111   3.082
 9182TIP3   OH227488   5.378   5.764   4.757
 9182TIP3    H127489   5.300   5.761   4.702
 9182TIP3    H227490   5.396   5.672   4.778
 9183TIP3   OH227491   2.696   1.633   6.193
 9183TIP3    H127492   2.610   1.675   6.194
 9183TIP3    H227493   2.686   1.560   6.133
 9184TIP3   OH227494   6.065   1.259   0.300
 9184TIP3    H127495   6.103   1.319   0.236
 9184TIP3    H227496   6.126   1.262   0.375
 9185TIP3   OH227497   2.427   6.064   0.979
 9185TIP3    H127498   2.479   6.144   0.976
 9185TIP3    H227499   2.378   6.063   0.897
 9186TIP3   OH227500   7.993   7.756   2.944
 9186TIP3    H127501   7.942   7.686   2.903
 9186TIP3    H227502   7.994   7.826   2.880
 9187TIP3   OH227503   3.482   0.967   2.439
 9187TIP3    H127504   3.539   1.042   2.426
 9187TIP3    H227505   3.433   0.959   2.357
 9188TIP3   OH227506   2.120   2.066   2.001
 9188TIP3    H127507   2.078   2.152   1.998
 9188TIP3    H227508   2.047   2.004   2.008
 9189TIP3   OH227509   0.622   1.551   0.147
 9189TIP3    H127510   0.589   1.619   0.089
 9189TIP3    H227511   0.712   1.535   0.117
 9190TIP3   OH227512   7.351   1.296   5.635
 9190TIP3    H127513   7.341   1.383   5.596
 9190TIP3    H227514   7.393   1.244   5.567
 9191TIP3   OH227515   2.739   4.245   4.125
 9191TIP3    H127516   2.738   4.338   4.151
 9191TIP3    H227517   2.831   4.219   4.133
 9192TIP3   OH227518   6.576   7.008   3.527
 9192TIP3    H127519   6.671   7.022   3.529
 9192TIP3    H227520   6.539   7.095   3.514
 9193TIP3   OH227521   5.412   2.953   4.772
 9193TIP3    H127522   5.435   2.896   4.698
 9193TIP3    H227523   5.407   3.041   4.734
 9194TIP3   OH227524   6.085   4.649   5.965
 9194TIP3    H127525   6.080   4.719   6.030
 9194TIP3    H227526   5.994   4.618   5.957
 9195TIP3   OH227527   1.819   7.359   2.053
 9195TIP3    H127528   1.776   7.397   2.130
 9195TIP3    H227529   1.879   7.428   2.023
 9196TIP3   OH227530   3.184   7.671   2.314
 9196TIP3    H127531   3.222   7.720   2.386
 9196TIP3    H227532   3.178   7.581   2.347
 9197TIP3   OH227533   1.008   2.476   0.638
 9197TIP3    H127534   0.958   2.556   0.656
 9197TIP3    H227535   0.967   2.410   0.694
 9198TIP3   OH227536   1.402   3.174   5.741
 9198TIP3    H127537   1.350   3.107   5.696
 9198TIP3    H227538   1.410   3.142   5.831
 9199TIP3   OH227539   0.401   2.279   6.447
 9199TIP3    H127540   0.490   2.307   6.426
 9199TIP3    H227541   0.408   2.237   6.533
 9200TIP3   OH227542   6.810   7.718   5.550
 9200TIP3    H127543   6.815   7.812   5.529
 9200TIP3    H227544   6.716   7.698   5.544
 9201TIP3   OH227545   6.951   7.474   5.137
 9201TIP3    H127546   7.012   7.539   5.170
 9201TIP3    H227547   6.921   7.427   5.215
 9202TIP3   OH227548   4.000   6.947   2.298
 9202TIP3    H127549   4.040   6.997   2.369
 9202TIP3    H227550   3.906   6.953   2.314
 9203TIP3   OH227551   3.531   6.812   5.556
 9203TIP3    H127552   3.454   6.801   5.499
 9203TIP3    H227553   3.559   6.723   5.576
 9204TIP3   OH227554   1.063   4.553   3.897
 9204TIP3    H127555   1.022   4.581   3.979
 9204TIP3    H227556   1.056   4.629   3.839
 9205TIP3   OH227557   7.453   2.294   0.988
 9205TIP3    H127558   7.366   2.334   0.990
 9205TIP3    H227559   7.500   2.337   1.059
 9206TIP3   OH227560   4.533   5.327   5.835
 9206TIP3    H127561   4.610   5.306   5.888
 9206TIP3    H227562   4.504   5.412   5.868
 9207TIP3   OH227563   6.899   0.135   6.726
 9207TIP3    H127564   6.854   0.054   6.750
 9207TIP3    H227565   6.941   0.115   6.642
 9208TIP3   OH227566   3.181   5.317   2.273
 9208TIP3    H127567   3.162   5.242   2.328
 9208TIP3    H227568   3.136   5.298   2.190
 9209TIP3   OH227569   0.379   5.078   4.777
 9209TIP3    H127570   0.406   5.010   4.839
 9209TIP3    H227571   0.303   5.119   4.818
 9210TIP3   OH227572   5.769   0.817   0.996
 9210TIP3    H127573   5.849   0.830   1.047
 9210TIP3    H227574   5.729   0.904   0.991
 9211TIP3   OH227575   6.865   0.827   5.072
 9211TIP3    H127576   6.874   0.763   5.143
 9211TIP3    H227577   6.868   0.912   5.115
 9212TIP3   OH227578   6.219   0.923   4.339
 9212TIP3    H127579   6.207   1.014   4.312
 9212TIP3    H227580   6.196   0.922   4.431
 9213TIP3   OH227581   3.989   3.973   1.836
 9213TIP3    H127582   3.951   4.059   1.857
 9213TIP3    H227583   3.961   3.956   1.746
 9214TIP3   OH227584   5.065   6.876   2.249
 9214TIP3    H127585   5.087   6.828   2.329
 9214TIP3    H227586   5.068   6.811   2.180
 9215TIP3   OH227587   4.064   4.605   0.832
 9215TIP3    H127588   3.981   4.602   0.880
 9215TIP3    H227589   4.128   4.631   0.897
 9216TIP3   OH227590   5.587   5.059   4.205
 9216TIP3    H127591   5.567   4.966   4.196
 9216TIP3    H227592   5.668   5.062   4.255
 9217TIP3   OH227593   0.233   5.301   5.480
 9217TIP3    H127594   0.238   5.224   5.536
 9217TIP3    H227595   0.260   5.269   5.393
 9218TIP3   OH227596   4.244   1.206   5.899
 9218TIP3    H127597   4.177   1.275   5.905
 9218TIP3    H227598   4.258   1.179   5.990
 9219TIP3   OH227599   4.361   6.336   5.210
 9219TIP3    H127600   4.345   6.362   5.120
 9219TIP3    H227601   4.288   6.374   5.259
 9220TIP3   OH227602   6.503   2.359   0.156
 9220TIP3    H127603   6.428   2.407   0.191
 9220TIP3    H227604   6.503   2.276   0.204
 9221TIP3   OH227605   6.555   1.773   4.081
 9221TIP3    H127606   6.603   1.691   4.071
 9221TIP3    H227607   6.620   1.841   4.062
 9222TIP3   OH227608   2.315   5.488   1.004
 9222TIP3    H127609   2.348   5.469   1.092
 9222TIP3    H227610   2.264   5.569   1.014
 9223TIP3   OH227611   6.637   2.779   3.397
 9223TIP3    H127612   6.726   2.814   3.398
 9223TIP3    H227613   6.586   2.847   3.353
 9224TIP3   OH227614   7.482   3.218   4.987
 9224TIP3    H127615   7.553   3.281   4.999
 9224TIP3    H227616   7.403   3.265   5.012
 9225TIP3   OH227617   3.539   2.365   0.817
 9225TIP3    H127618   3.597   2.303   0.860
 9225TIP3    H227619   3.583   2.449   0.825
 9226TIP3   OH227620   5.438   6.963   0.751
 9226TIP3    H127621   5.418   7.057   0.755
 9226TIP3    H227622   5.412   6.930   0.837
 9227TIP3   OH227623   5.042   0.052   1.920
 9227TIP3    H127624   5.080   0.138   1.940
 9227TIP3    H227625   4.949   0.069   1.908
 9228TIP3   OH227626   3.543   4.474   2.072
 9228TIP3    H127627   3.524   4.438   2.158
 9228TIP3    H227628   3.544   4.569   2.084
 9229TIP3   OH227629   4.770   5.573   5.866
 9229TIP3    H127630   4.802   5.495   5.911
 9229TIP3    H227631   4.709   5.614   5.927
 9230TIP3   OH227632   5.026   4.432   1.487
 9230TIP3    H127633   4.948   4.455   1.437
 9230TIP3    H227634   4.993   4.390   1.566
 9231TIP3   OH227635   2.425   5.659   4.604
 9231TIP3    H127636   2.415   5.639   4.511
 9231TIP3    H227637   2.379   5.742   4.616
 9232TIP3   OH227638   2.496   0.460   4.028
 9232TIP3    H127639   2.531   0.519   3.961
 9232TIP3    H227640   2.543   0.485   4.108
 9233TIP3   OH227641   8.244   0.400   5.953
 9233TIP3    H127642   8.271   0.314   5.922
 9233TIP3    H227643   8.150   0.404   5.935
 9234TIP3   OH227644   0.480   0.870   1.973
 9234TIP3    H127645   0.451   0.929   1.903
 9234TIP3    H227646   0.400   0.826   2.003
 9235TIP3   OH227647   5.563   5.615   4.284
 9235TIP3    H127648   5.589   5.577   4.369
 9235TIP3    H227649   5.646   5.634   4.240
 9236TIP3   OH227650   3.306   3.796   6.676
 9236TIP3    H127651   3.307   3.869   6.738
 9236TIP3    H227652   3.280   3.836   6.593
 9237TIP3   OH227653   8.196   5.334   5.218
 9237TIP3    H127654   8.267   5.392   5.191
 9237TIP3    H227655   8.123   5.392   5.238
 9238TIP3   OH227656   5.312   4.376   3.974
 9238TIP3    H127657   5.285   4.402   4.062
 9238TIP3    H227658   5.359   4.293   3.987
 9239TIP3   OH227659   4.605   3.699   6.268
 9239TIP3    H127660   4.628   3.607   6.255
 9239TIP3    H227661   4.689   3.744   6.279
 9240TIP3   OH227662   6.590   4.054   5.190
 9240TIP3    H127663   6.571   4.123   5.253
 9240TIP3    H227664   6.567   4.092   5.105
 9241TIP3   OH227665   1.138   4.571   0.252
 9241TIP3    H127666   1.055   4.589   0.297
 9241TIP3    H227667   1.132   4.479   0.227
 9242TIP3   OH227668   7.761   0.499   1.288
 9242TIP3    H127669   7.728   0.541   1.208
 9242TIP3    H227670   7.840   0.549   1.310
 9243TIP3   OH227671   6.484   1.426   6.543
 9243TIP3    H127672   6.433   1.428   6.462
 9243TIP3    H227673   6.564   1.379   6.520
 9244TIP3   OH227674   3.831   1.365   4.108
 9244TIP3    H127675   3.820   1.391   4.017
 9244TIP3    H227676   3.742   1.360   4.143
 9245TIP3   OH227677   0.249   4.981   0.901
 9245TIP3    H127678   0.290   5.065   0.883
 9245TIP3    H227679   0.221   4.988   0.993
 9246TIP3   OH227680   3.440   0.598   6.626
 9246TIP3    H127681   3.441   0.684   6.583
 9246TIP3    H227682   3.355   0.561   6.602
 9247TIP3   OH227683   4.985   6.243   3.814
 9247TIP3    H127684   4.959   6.335   3.824
 9247TIP3    H227685   4.929   6.210   3.743
 9248TIP3   OH227686   2.240   4.414   3.469
 9248TIP3    H127687   2.270   4.324   3.466
 9248TIP3    H227688   2.289   4.453   3.542
 9249TIP3   OH227689   1.662   2.119   3.461
 9249TIP3    H127690   1.732   2.082   3.515
 9249TIP3    H227691   1.585   2.066   3.483
 9250TIP3   OH227692   5.280   0.398   0.054
 9250TIP3    H127693   5.361   0.434   0.018
 9250TIP3    H227694   5.215   0.409  -0.015
 9251TIP3   OH227695   5.617   1.791   0.202
 9251TIP3    H127696   5.552   1.723   0.186
 9251TIP3    H227697   5.630   1.790   0.297
 9252TIP3   OH227698   7.931   7.230   4.887
 9252TIP3    H127699   8.003   7.256   4.829
 9252TIP3    H227700   7.944   7.281   4.966
 9253TIP3   OH227701   0.767   6.759   1.433
 9253TIP3    H127702   0.708   6.803   1.494
 9253TIP3    H227703   0.719   6.681   1.406
 9254TIP3   OH227704   7.391   6.930   3.361
 9254TIP3    H127705   7.296   6.915   3.362
 9254TIP3    H227706   7.401   7.018   3.399
 9255TIP3   OH227707   6.787   0.972   2.007
 9255TIP3    H127708   6.830   0.969   2.093
 9255TIP3    H227709   6.736   0.891   2.003
 9256TIP3   OH227710   0.704   3.873   3.885
 9256TIP3    H127711   0.775   3.810   3.877
 9256TIP3    H227712   0.649   3.858   3.808
 9257TIP3   OH227713   3.045   5.046   2.371
 9257TIP3    H127714   3.050   4.960   2.412
 9257TIP3    H227715   3.040   5.028   2.277
 9258TIP3   OH227716   3.809   7.468   4.429
 9258TIP3    H127717   3.895   7.505   4.450
 9258TIP3    H227718   3.748   7.512   4.487
 9259TIP3   OH227719   7.820   0.410   4.023
 9259TIP3    H127720   7.781   0.491   4.055
 9259TIP3    H227721   7.912   0.433   4.006
 9260TIP3   OH227722   2.184   2.414   5.921
 9260TIP3    H127723   2.103   2.409   5.972
 9260TIP3    H227724   2.241   2.347   5.959
 9261TIP3   OH227725   1.930   4.330   6.229
 9261TIP3    H127726   1.977   4.257   6.270
 9261TIP3    H227727   1.961   4.332   6.139
 9262TIP3   OH227728   3.578   3.094   3.232
 9262TIP3    H127729   3.604   3.186   3.233
 9262TIP3    H227730   3.488   3.095   3.198
 9263TIP3   OH227731   0.000   4.486   0.189
 9263TIP3    H127732   0.031   4.539   0.115
 9263TIP3    H227733   0.060   4.506   0.260
 9264TIP3   OH227734   6.350   7.721   1.785
 9264TIP3    H127735   6.396   7.805   1.792
 9264TIP3    H227736   6.260   7.745   1.762
 9265TIP3   OH227737   4.379   0.600   3.038
 9265TIP3    H127738   4.332   0.520   3.059
 9265TIP3    H227739   4.312   0.660   3.004
 9266TIP3   OH227740   4.712   5.788   2.582
 9266TIP3    H127741   4.692   5.858   2.644
 9266TIP3    H227742   4.767   5.727   2.631
 9267TIP3   OH227743   5.583   6.129   2.613
 9267TIP3    H127744   5.490   6.114   2.631
 9267TIP3    H227745   5.629   6.069   2.671
 9268TIP3   OH227746   1.774   3.373   2.499
 9268TIP3    H127747   1.740   3.459   2.475
 9268TIP3    H227748   1.719   3.311   2.450
 9269TIP3   OH227749   2.134   7.722   3.886
 9269TIP3    H127750   2.164   7.812   3.897
 9269TIP3    H227751   2.156   7.700   3.795
 9270TIP3   OH227752   6.175   4.390   3.875
 9270TIP3    H127753   6.146   4.392   3.784
 9270TIP3    H227754   6.253   4.335   3.874
 9271TIP3   OH227755   6.847   2.160   1.875
 9271TIP3    H127756   6.913   2.105   1.916
 9271TIP3    H227757   6.764   2.125   1.905
 9272TIP3   OH227758   1.794   0.749   2.014
 9272TIP3    H127759   1.740   0.828   2.007
 9272TIP3    H227760   1.762   0.692   1.945
 9273TIP3   OH227761   5.380   2.199   4.222
 9273TIP3    H127762   5.450   2.245   4.268
 9273TIP3    H227763   5.415   2.111   4.208
 9274TIP3   OH227764   6.332   2.038   2.002
 9274TIP3    H127765   6.323   2.131   1.983
 9274TIP3    H227766   6.257   2.017   2.058
 9275TIP3   OH227767   0.082   0.452   3.838
 9275TIP3    H127768   0.019   0.524   3.834
 9275TIP3    H227769   0.032   0.374   3.815
 9276TIP3   OH227770   1.868   6.907   5.788
 9276TIP3    H127771   1.912   6.890   5.872
 9276TIP3    H227772   1.902   6.840   5.729
 9277TIP3   OH227773   5.608   2.144   1.319
 9277TIP3    H127774   5.702   2.125   1.315
 9277TIP3    H227775   5.581   2.149   1.227
 9278TIP3   OH227776   3.357   4.279   0.865
 9278TIP3    H127777   3.331   4.251   0.953
 9278TIP3    H227778   3.450   4.297   0.872
 9279TIP3   OH227779   6.028   2.086   5.937
 9279TIP3    H127780   6.046   2.125   6.023
 9279TIP3    H227781   6.111   2.092   5.890
 9280TIP3   OH227782   3.810   4.284   2.394
 9280TIP3    H127783   3.744   4.302   2.460
 9280TIP3    H227784   3.760   4.262   2.315
 9281TIP3   OH227785   3.660   5.416   5.911
 9281TIP3    H127786   3.587   5.371   5.952
 9281TIP3    H227787   3.661   5.503   5.952
 9282TIP3   OH227788   2.214   7.574   0.103
 9282TIP3    H127789   2.255   7.487   0.109
 9282TIP3    H227790   2.137   7.560   0.049
 9283TIP3   OH227791   5.748   5.909   3.968
 9283TIP3    H127792   5.803   5.899   3.891
 9283TIP3    H227793   5.730   5.819   3.996
 9284TIP3   OH227794   0.761   6.451   1.865
 9284TIP3    H127795   0.776   6.490   1.779
 9284TIP3    H227796   0.820   6.376   1.869
 9285TIP3   OH227797   1.316   6.816   1.725
 9285TIP3    H127798   1.231   6.789   1.692
 9285TIP3    H227799   1.303   6.906   1.755
 9286TIP3   OH227800   8.249   6.547   6.448
 9286TIP3    H127801   8.284   6.635   6.463
 9286TIP3    H227802   8.228   6.546   6.354
 9287TIP3   OH227803   0.169   3.464   0.731
 9287TIP3    H127804   0.234   3.395   0.724
 9287TIP3    H227805   0.137   3.477   0.641
 9288TIP3   OH227806   6.439   0.582   4.754
 9288TIP3    H127807   6.429   0.605   4.846
 9288TIP3    H227808   6.526   0.543   4.749
 9289TIP3   OH227809   7.886   5.666   0.439
 9289TIP3    H127810   7.800   5.700   0.415
 9289TIP3    H227811   7.945   5.740   0.426
 9290TIP3   OH227812   0.331   7.670   4.614
 9290TIP3    H127813   0.408   7.696   4.563
 9290TIP3    H227814   0.349   7.579   4.639
 9291TIP3   OH227815   0.030   4.778   0.857
 9291TIP3    H127816   0.078   4.832   0.921
 9291TIP3    H227817  -0.030   4.839   0.815
 9292TIP3   OH227818   0.044   1.140   1.909
 9292TIP3    H127819   0.057   1.047   1.896
 9292TIP3    H227820  -0.042   1.146   1.952
 9293TIP3   OH227821   5.640   5.841   1.565
 9293TIP3    H127822   5.684   5.778   1.622
 9293TIP3    H227823   5.572   5.790   1.520
 9294TIP3   OH227824   3.365   6.985   0.125
 9294TIP3    H127825   3.412   7.056   0.167
 9294TIP3    H227826   3.427   6.912   0.123
 9295TIP3   OH227827   5.081   6.185   6.193
 9295TIP3    H127828   5.111   6.118   6.254
 9295TIP3    H227829   5.126   6.165   6.111
 9296TIP3   OH227830   6.253   6.396   6.718
 9296TIP3    H127831   6.264   6.338   6.643
 9296TIP3    H227832   6.303   6.474   6.696
 9297TIP3   OH227833   4.805   1.966   1.857
 9297TIP3    H127834   4.784   2.057   1.875
 9297TIP3    H227835   4.787   1.921   1.940
 9298TIP3   OH227836   5.792   6.251   2.442
 9298TIP3    H127837   5.726   6.249   2.512
 9298TIP3    H227838   5.875   6.231   2.486
 9299TIP3   OH227839   0.978   5.844   2.497
 9299TIP3    H127840   1.063   5.803   2.518
 9299TIP3    H227841   0.961   5.904   2.569
 9300TIP3   OH227842   3.996   4.804   4.162
 9300TIP3    H127843   3.954   4.817   4.247
 9300TIP3    H227844   4.043   4.721   4.171
 9301TIP3   OH227845   8.200   1.781   4.798
 9301TIP3    H127846   8.216   1.868   4.761
 9301TIP3    H227847   8.162   1.798   4.884
 9302TIP3   OH227848   5.423   5.113   2.141
 9302TIP3    H127849   5.503   5.125   2.193
 9302TIP3    H227850   5.425   5.184   2.077
 9303TIP3   OH227851   4.475   2.015   1.748
 9303TIP3    H127852   4.436   2.068   1.818
 9303TIP3    H227853   4.539   2.072   1.707
 9304TIP3   OH227854   0.867   1.733   3.610
 9304TIP3    H127855   0.812   1.758   3.684
 9304TIP3    H227856   0.821   1.766   3.533
 9305TIP3   OH227857   7.508   4.153   3.857
 9305TIP3    H127858   7.540   4.234   3.897
 9305TIP3    H227859   7.413   4.154   3.874
 9306TIP3   OH227860   0.548   3.451   1.538
 9306TIP3    H127861   0.545   3.538   1.580
 9306TIP3    H227862   0.478   3.454   1.472
 9307TIP3   OH227863   2.750   6.957   4.794
 9307TIP3    H127864   2.759   7.039   4.746
 9307TIP3    H227865   2.785   6.891   4.734
 9308TIP3   OH227866   3.042   3.299   2.683
 9308TIP3    H127867   3.066   3.316   2.592
 9308TIP3    H227868   3.071   3.209   2.699
 9309TIP3   OH227869   1.052   0.019   0.047
 9309TIP3    H127870   1.139   0.048   0.073
 9309TIP3    H227871   0.993   0.084   0.085
 9310TIP3   OH227872   4.431   1.685   5.794
 9310TIP3    H127873   4.521   1.664   5.818
 9310TIP3    H227874   4.438   1.722   5.706
 9311TIP3   OH227875   2.583   3.857   3.344
 9311TIP3    H127876   2.535   3.882   3.265
 9311TIP3    H227877   2.673   3.846   3.316
 9312TIP3   OH227878   0.353   0.884   6.338
 9312TIP3    H127879   0.262   0.867   6.315
 9312TIP3    H227880   0.381   0.952   6.277
 9313TIP3   OH227881   5.565   7.542   3.065
 9313TIP3    H127882   5.480   7.499   3.056
 9313TIP3    H227883   5.552   7.608   3.132
 9314TIP3   OH227884   5.390   3.176   6.463
 9314TIP3    H127885   5.436   3.223   6.393
 9314TIP3    H227886   5.333   3.114   6.417
 9315TIP3   OH227887   2.929   1.921   5.695
 9315TIP3    H127888   2.859   1.955   5.639
 9315TIP3    H227889   2.883   1.885   5.771
 9316TIP3   OH227890   5.857   2.112   1.989
 9316TIP3    H127891   5.847   2.065   1.906
 9316TIP3    H227892   5.881   2.045   2.052
 9317TIP3   OH227893   4.293   4.651   4.992
 9317TIP3    H127894   4.215   4.706   4.985
 9317TIP3    H227895   4.272   4.573   4.940
 9318TIP3   OH227896   0.646   2.959   4.469
 9318TIP3    H127897   0.613   3.044   4.499
 9318TIP3    H227898   0.737   2.956   4.501
 9319TIP3   OH227899   0.239   6.737   4.904
 9319TIP3    H127900   0.258   6.786   4.823
 9319TIP3    H227901   0.245   6.645   4.877
 9320TIP3   OH227902   2.676   7.199   3.048
 9320TIP3    H127903   2.593   7.248   3.047
 9320TIP3    H227904   2.653   7.114   3.085
 9321TIP3   OH227905   5.649   7.100   0.896
 9321TIP3    H127906   5.640   7.017   0.943
 9321TIP3    H227907   5.594   7.090   0.819
 9322TIP3   OH227908   7.585   7.054   4.477
 9322TIP3    H127909   7.660   7.113   4.475
 9322TIP3    H227910   7.509   7.112   4.480
 9323TIP3   OH227911   0.170   0.641   6.554
 9323TIP3    H127912   0.088   0.632   6.603
 9323TIP3    H227913   0.186   0.554   6.518
 9324TIP3   OH227914   0.280   2.285   5.223
 9324TIP3    H127915   0.307   2.193   5.214
 9324TIP3    H227916   0.358   2.328   5.259
 9325TIP3   OH227917   2.844   1.469   4.472
 9325TIP3    H127918   2.777   1.466   4.540
 9325TIP3    H227919   2.887   1.384   4.477
 9326TIP3   OH227920   7.283   3.247   0.470
 9326TIP3    H127921   7.339   3.322   0.451
 9326TIP3    H227922   7.194   3.281   0.464
 9327TIP3   OH227923   1.712   1.940   2.225
 9327TIP3    H127924   1.628   1.973   2.191
 9327TIP3    H227925   1.728   1.994   2.303
 9328TIP3   OH227926   2.147   2.658   6.405
 9328TIP3    H127927   2.164   2.581   6.350
 9328TIP3    H227928   2.231   2.675   6.447
 9329TIP3   OH227929   5.332   1.137   5.076
 9329TIP3    H127930   5.273   1.088   5.133
 9329TIP3    H227931   5.418   1.099   5.092
 9330TIP3   OH227932   7.050   1.416   6.509
 9330TIP3    H127933   7.142   1.444   6.510
 9330TIP3    H227934   7.001   1.497   6.504
 9331TIP3   OH227935   6.586   6.771   2.492
 9331TIP3    H127936   6.622   6.821   2.565
 9331TIP3    H227937   6.603   6.825   2.415
 9332TIP3   OH227938   4.996   5.983   5.483
 9332TIP3    H127939   5.064   6.013   5.423
 9332TIP3    H227940   4.922   5.959   5.427
 9333TIP3   OH227941   3.176   3.560   1.351
 9333TIP3    H127942   3.181   3.542   1.444
 9333TIP3    H227943   3.121   3.638   1.344
 9334TIP3   OH227944   3.555   1.007   4.446
 9334TIP3    H127945   3.577   1.047   4.362
 9334TIP3    H227946   3.553   1.081   4.507
 9335TIP3   OH227947   0.328   3.916   4.368
 9335TIP3    H127948   0.368   3.864   4.437
 9335TIP3    H227949   0.398   3.974   4.338
 9336TIP3   OH227950   1.489   5.303   0.422
 9336TIP3    H127951   1.524   5.264   0.503
 9336TIP3    H227952   1.563   5.304   0.362
 9337TIP3   OH227953   8.142   5.854   1.918
 9337TIP3    H127954   8.159   5.768   1.957
 9337TIP3    H227955   8.199   5.858   1.841
 9338TIP3   OH227956   3.988   7.348   5.301
 9338TIP3    H127957   4.057   7.414   5.292
 9338TIP3    H227958   4.002   7.289   5.227
 9339TIP3   OH227959   2.622   5.546   1.458
 9339TIP3    H127960   2.676   5.533   1.379
 9339TIP3    H227961   2.620   5.460   1.500
 9340TIP3   OH227962   1.804   7.642   2.460
 9340TIP3    H127963   1.889   7.630   2.502
 9340TIP3    H227964   1.825   7.670   2.371
 9341TIP3   OH227965   6.114   1.578   1.297
 9341TIP3    H127966   6.155   1.608   1.216
 9341TIP3    H227967   6.102   1.484   1.284
 9342TIP3   OH227968   7.816   3.185   3.625
 9342TIP3    H127969   7.767   3.124   3.570
 9342TIP3    H227970   7.881   3.131   3.669
 9343TIP3   OH227971   6.857   5.029   6.423
 9343TIP3    H127972   6.791   5.028   6.354
 9343TIP3    H227973   6.815   4.987   6.498
 9344TIP3   OH227974   5.315   0.827   4.900
 9344TIP3    H127975   5.298   0.798   4.811
 9344TIP3    H227976   5.308   0.923   4.896
 9345TIP3   OH227977   7.429   4.790   5.623
 9345TIP3    H127978   7.374   4.846   5.569
 9345TIP3    H227979   7.429   4.833   5.709
 9346TIP3   OH227980   4.142   3.534   0.435
 9346TIP3    H127981   4.142   3.552   0.341
 9346TIP3    H227982   4.167   3.617   0.475
 9347TIP3   OH227983   2.508   3.532   2.108
 9347TIP3    H127984   2.431   3.566   2.154
 9347TIP3    H227985   2.474   3.497   2.027
 9348TIP3   OH227986   4.148   6.380   3.244
 9348TIP3    H127987   4.234   6.381   3.202
 9348TIP3    H227988   4.086   6.367   3.172
 9349TIP3   OH227989   7.683   5.919   3.310
 9349TIP3    H127990   7.686   5.890   3.401
 9349TIP3    H227991   7.773   5.914   3.280
 9350TIP3   OH227992   4.430   2.307   3.945
 9350TIP3    H127993   4.374   2.366   3.996
 9350TIP3    H227994   4.378   2.285   3.868
 9351TIP3   OH227995   6.460   2.998   4.476
 9351TIP3    H127996   6.505   3.051   4.542
 9351TIP3    H227997   6.503   2.912   4.480
 9352TIP3   OH227998   2.635   6.072   1.526
 9352TIP3    H127999   2.578   6.112   1.593
 9352TIP3    H228000   2.723   6.104   1.548
 9353TIP3   OH228001   2.771   6.394   3.234
 9353TIP3    H128002   2.726   6.312   3.214
 9353TIP3    H228003   2.863   6.375   3.213
 9354TIP3   OH228004   6.248   6.283   5.827
 9354TIP3    H128005   6.204   6.316   5.749
 9354TIP3    H228006   6.257   6.360   5.884
 9355TIP3   OH228007   6.417   4.441   1.938
 9355TIP3    H128008   6.326   4.468   1.952
 9355TIP3    H228009   6.468   4.509   1.982
 9356TIP3   OH228010   6.586   1.124   4.680
 9356TIP3    H128011   6.514   1.063   4.690
 9356TIP3    H228012   6.626   1.128   4.767
 9357TIP3   OH228013   2.115   6.310   0.726
 9357TIP3    H128014   2.171   6.237   0.753
 9357TIP3    H228015   2.145   6.332   0.637
 9358TIP3   OH228016   4.573   0.597   2.347
 9358TIP3    H128017   4.587   0.575   2.439
 9358TIP3    H228018   4.578   0.693   2.345
 9359TIP3   OH228019   5.137   5.949   4.363
 9359TIP3    H128020   5.099   5.935   4.277
 9359TIP3    H228021   5.199   5.877   4.374
 9360TIP3   OH228022   7.348   0.205   4.073
 9360TIP3    H128023   7.325   0.127   4.023
 9360TIP3    H228024   7.392   0.262   4.009
 9361TIP3   OH228025   0.685   3.945   1.067
 9361TIP3    H128026   0.684   3.920   1.159
 9361TIP3    H228027   0.698   4.040   1.068
 9362TIP3   OH228028   6.658   6.370   4.872
 9362TIP3    H128029   6.609   6.328   4.801
 9362TIP3    H228030   6.702   6.297   4.917
 9363TIP3   OH228031   7.274   5.109   2.601
 9363TIP3    H128032   7.317   5.185   2.563
 9363TIP3    H228033   7.240   5.060   2.526
 9364TIP3   OH228034   4.246   5.327   3.508
 9364TIP3    H128035   4.207   5.296   3.427
 9364TIP3    H228036   4.233   5.422   3.506
 9365TIP3   OH228037   6.076   1.531   1.988
 9365TIP3    H128038   6.132   1.601   2.021
 9365TIP3    H228039   6.089   1.458   2.050
 9366TIP3   OH228040   2.219   3.180   5.143
 9366TIP3    H128041   2.159   3.107   5.156
 9366TIP3    H228042   2.225   3.221   5.229
 9367TIP3   OH228043   7.303   2.767   0.260
 9367TIP3    H128044   7.342   2.701   0.318
 9367TIP3    H228045   7.288   2.843   0.316
 9368TIP3   OH228046   6.262   6.370   0.324
 9368TIP3    H128047   6.171   6.341   0.313
 9368TIP3    H228048   6.258   6.465   0.317
 9369TIP3   OH228049   7.921   4.250   1.411
 9369TIP3    H128050   7.937   4.191   1.337
 9369TIP3    H228051   7.996   4.310   1.411
 9370TIP3   OH228052   7.097   4.168   1.237
 9370TIP3    H128053   7.094   4.186   1.143
 9370TIP3    H228054   7.182   4.126   1.251
 9371TIP3   OH228055   1.905   1.894   2.012
 9371TIP3    H128056   1.841   1.902   2.084
 9371TIP3    H228057   1.856   1.921   1.934
 9372TIP3   OH228058   1.950   4.586   3.586
 9372TIP3    H128059   1.905   4.660   3.627
 9372TIP3    H228060   2.038   4.587   3.626
 9373TIP3   OH228061   6.635   5.746   6.613
 9373TIP3    H128062   6.594   5.716   6.694
 9373TIP3    H228063   6.705   5.682   6.598
 9374TIP3   OH228064   1.233   0.684   1.808
 9374TIP3    H128065   1.193   0.606   1.770
 9374TIP3    H228066   1.166   0.720   1.866
 9375TIP3   OH228067   3.061   5.581   0.606
 9375TIP3    H128068   3.152   5.552   0.601
 9375TIP3    H228069   3.063   5.654   0.668
 9376TIP3   OH228070   6.543   2.606   2.781
 9376TIP3    H128071   6.561   2.660   2.857
 9376TIP3    H228072   6.530   2.668   2.709
 9377TIP3   OH228073   3.961   0.809   6.295
 9377TIP3    H128074   4.055   0.807   6.309
 9377TIP3    H228075   3.929   0.875   6.357
 9378TIP3   OH228076   2.661   0.812   4.778
 9378TIP3    H128077   2.599   0.740   4.767
 9378TIP3    H228078   2.684   0.810   4.871
 9379TIP3   OH228079   4.891   3.893   0.501
 9379TIP3    H128080   4.936   3.974   0.477
 9379TIP3    H228081   4.959   3.838   0.538
 9380TIP3   OH228082   6.964   2.427   5.896
 9380TIP3    H128083   7.022   2.449   5.969
 9380TIP3    H228084   7.019   2.378   5.835
 9381TIP3   OH228085   4.106   5.410   5.293
 9381TIP3    H128086   4.100   5.454   5.377
 9381TIP3    H228087   4.079   5.477   5.229
 9382TIP3   OH228088   1.118   7.011   4.225
 9382TIP3    H128089   1.040   7.040   4.273
 9382TIP3    H228090   1.086   6.989   4.137
 9383TIP3   OH228091   8.254   3.319   0.840
 9383TIP3    H128092   8.177   3.338   0.787
 9383TIP3    H228093   8.314   3.392   0.822
 9384TIP3   OH228094   2.731   1.181   1.325
 9384TIP3    H128095   2.762   1.126   1.252
 9384TIP3    H228096   2.640   1.200   1.304
 9385TIP3   OH228097   1.792   7.036   5.419
 9385TIP3    H128098   1.881   7.059   5.443
 9385TIP3    H228099   1.748   7.120   5.404
 9386TIP3   OH228100   5.057   6.087   2.336
 9386TIP3    H128101   5.134   6.065   2.284
 9386TIP3    H228102   4.983   6.074   2.276
 9387TIP3   OH228103   5.354   5.388   3.077
 9387TIP3    H128104   5.375   5.322   3.011
 9387TIP3    H228105   5.282   5.439   3.038
 9388TIP3   OH228106   3.657   4.525   1.639
 9388TIP3    H128107   3.712   4.557   1.711
 9388TIP3    H228108   3.711   4.537   1.561
 9389TIP3   OH228109   6.958   7.758   0.050
 9389TIP3    H128110   6.970   7.746  -0.044
 9389TIP3    H228111   6.906   7.838   0.058
 9390TIP3   OH228112   6.222   2.747   6.464
 9390TIP3    H128113   6.193   2.836   6.481
 9390TIP3    H228114   6.168   2.718   6.390
 9391TIP3   OH228115   3.537   1.504   0.099
 9391TIP3    H128116   3.624   1.464   0.103
 9391TIP3    H228117   3.523   1.523   0.007
 9392TIP3   OH228118   5.130   0.833   6.728
 9392TIP3    H128119   5.074   0.755   6.736
 9392TIP3    H228120   5.216   0.797   6.707
 9393TIP3   OH228121   4.153   3.094   0.501
 9393TIP3    H128122   4.234   3.144   0.492
 9393TIP3    H228123   4.085   3.161   0.514
 9394TIP3   OH228124   7.033   6.725   2.023
 9394TIP3    H128125   7.028   6.676   1.941
 9394TIP3    H228126   7.029   6.817   1.997
 9395TIP3   OH228127   2.358   4.192   2.653
 9395TIP3    H128128   2.332   4.283   2.668
 9395TIP3    H228129   2.416   4.171   2.726
 9396TIP3   OH228130   0.964   4.347   5.332
 9396TIP3    H128131   0.877   4.309   5.319
 9396TIP3    H228132   0.989   4.322   5.421
 9397TIP3   OH228133   2.184   6.384   0.451
 9397TIP3    H128134   2.247   6.381   0.379
 9397TIP3    H228135   2.138   6.467   0.439
 9398TIP3   OH228136   7.817   6.924   3.889
 9398TIP3    H128137   7.773   7.004   3.862
 9398TIP3    H228138   7.782   6.905   3.976
 9399TIP3   OH228139   3.242   1.490   1.089
 9399TIP3    H128140   3.272   1.580   1.076
 9399TIP3    H228141   3.193   1.469   1.010
 9400TIP3   OH228142   3.616   1.221   1.666
 9400TIP3    H128143   3.651   1.144   1.621
 9400TIP3    H228144   3.522   1.220   1.647
 9401TIP3   OH228145   6.210   2.912   6.163
 9401TIP3    H128146   6.120   2.944   6.170
 9401TIP3    H228147   6.255   2.955   6.236
 9402TIP3   OH228148   4.855   7.741   5.637
 9402TIP3    H128149   4.860   7.788   5.720
 9402TIP3    H228150   4.761   7.734   5.618
 9403TIP3   OH228151   2.615   6.983   3.223
 9403TIP3    H128152   2.571   7.056   3.268
 9403TIP3    H228153   2.615   6.912   3.287
 9404TIP3   OH228154   1.077   3.395   3.769
 9404TIP3    H128155   1.076   3.469   3.708
 9404TIP3    H228156   1.073   3.318   3.712
 9405TIP3   OH228157   7.979   7.810   1.109
 9405TIP3    H128158   7.998   7.902   1.126
 9405TIP3    H228159   8.049   7.781   1.052
 9406TIP3   OH228160   4.580   7.010   0.499
 9406TIP3    H128161   4.540   6.975   0.579
 9406TIP3    H228162   4.597   6.933   0.445
 9407TIP3   OH228163   2.298   5.330   0.451
 9407TIP3    H128164   2.226   5.369   0.400
 9407TIP3    H228165   2.338   5.405   0.497
 9408TIP3   OH228166   4.255   2.509   4.061
 9408TIP3    H128167   4.205   2.428   4.048
 9408TIP3    H228168   4.199   2.577   4.022
 9409TIP3   OH228169   6.307   5.338   2.692
 9409TIP3    H128170   6.240   5.269   2.690
 9409TIP3    H228171   6.258   5.418   2.671
 9410TIP3   OH228172   6.223   7.571   6.129
 9410TIP3    H128173   6.196   7.638   6.193
 9410TIP3    H228174   6.292   7.522   6.173
 9411TIP3   OH228175   2.632   2.606   3.128
 9411TIP3    H128176   2.631   2.522   3.081
 9411TIP3    H228177   2.614   2.582   3.219
 9412TIP3   OH228178   0.357   3.216   6.237
 9412TIP3    H128179   0.312   3.182   6.314
 9412TIP3    H228180   0.344   3.311   6.241
 9413TIP3   OH228181   2.707   5.979   2.591
 9413TIP3    H128182   2.664   5.949   2.672
 9413TIP3    H228183   2.700   5.905   2.531
 9414TIP3   OH228184   6.843   5.374   0.148
 9414TIP3    H128185   6.780   5.408   0.084
 9414TIP3    H228186   6.926   5.413   0.123
 9415TIP3   OH228187   7.001   4.844   3.682
 9415TIP3    H128188   6.940   4.896   3.630
 9415TIP3    H228189   7.051   4.795   3.617
 9416TIP3   OH228190   2.228   6.642   2.329
 9416TIP3    H128191   2.248   6.659   2.237
 9416TIP3    H228192   2.152   6.584   2.326
 9417TIP3   OH228193   1.621   5.803   4.747
 9417TIP3    H128194   1.626   5.708   4.755
 9417TIP3    H228195   1.550   5.829   4.806
 9418TIP3   OH228196   1.564   0.490   2.292
 9418TIP3    H128197   1.493   0.433   2.263
 9418TIP3    H228198   1.611   0.438   2.358
 9419TIP3   OH228199   4.924   0.178   0.307
 9419TIP3    H128200   4.928   0.224   0.223
 9419TIP3    H228201   4.924   0.248   0.372
 9420TIP3   OH228202   2.162   3.932   2.942
 9420TIP3    H128203   2.234   3.915   2.881
 9420TIP3    H228204   2.198   3.993   3.006
 9421TIP3   OH228205   6.946   2.119   1.368
 9421TIP3    H128206   6.898   2.155   1.442
 9421TIP3    H228207   7.032   2.161   1.373
 9422TIP3   OH228208   7.376   0.822   5.193
 9422TIP3    H128209   7.420   0.763   5.253
 9422TIP3    H228210   7.411   0.799   5.106
 9423TIP3   OH228211   4.931   7.110   5.680
 9423TIP3    H128212   4.912   7.016   5.685
 9423TIP3    H228213   4.845   7.151   5.670
 9424TIP3   OH228214   4.179   1.452   3.281
 9424TIP3    H128215   4.197   1.368   3.322
 9424TIP3    H228216   4.264   1.496   3.279
 9425TIP3   OH228217   5.135   4.995   2.853
 9425TIP3    H128218   5.167   4.907   2.830
 9425TIP3    H228219   5.211   5.039   2.889
 9426TIP3   OH228220   7.943   0.111   1.503
 9426TIP3    H128221   7.956   0.122   1.597
 9426TIP3    H228222   7.851   0.135   1.489
 9427TIP3   OH228223   4.194   0.200   0.263
 9427TIP3    H128224   4.173   0.197   0.169
 9427TIP3    H228225   4.110   0.188   0.307
 9428TIP3   OH228226   3.021   7.192   2.602
 9428TIP3    H128227   3.063   7.184   2.517
 9428TIP3    H228228   3.082   7.151   2.663
 9429TIP3   OH228229   6.446   6.054   1.523
 9429TIP3    H128230   6.451   5.959   1.534
 9429TIP3    H228231   6.510   6.088   1.586
 9430TIP3   OH228232   2.558   7.745   5.768
 9430TIP3    H128233   2.528   7.781   5.684
 9430TIP3    H228234   2.480   7.704   5.805
 9431TIP3   OH228235   1.840   4.079   6.628
 9431TIP3    H128236   1.841   4.043   6.539
 9431TIP3    H228237   1.751   4.114   6.638
 9432TIP3   OH228238   3.511   4.392   0.385
 9432TIP3    H128239   3.556   4.468   0.422
 9432TIP3    H228240   3.539   4.319   0.440
 9433TIP3   OH228241   1.426   2.387   1.140
 9433TIP3    H128242   1.441   2.475   1.105
 9433TIP3    H228243   1.456   2.329   1.070
 9434TIP3   OH228244   1.502   6.657   1.300
 9434TIP3    H128245   1.595   6.640   1.311
 9434TIP3    H228246   1.484   6.730   1.360
 9435TIP3   OH228247   6.237   0.355   5.376
 9435TIP3    H128248   6.169   0.410   5.339
 9435TIP3    H228249   6.208   0.338   5.466
 9436TIP3   OH228250   5.881   0.143   4.115
 9436TIP3    H128251   5.822   0.067   4.122
 9436TIP3    H228252   5.929   0.143   4.197
 9437TIP3   OH228253   1.920   6.194   0.155
 9437TIP3    H128254   1.894   6.169   0.066
 9437TIP3    H228255   1.990   6.258   0.141
 9438TIP3   OH228256   2.553   6.777   1.406
 9438TIP3    H128257   2.539   6.688   1.374
 9438TIP3    H228258   2.539   6.771   1.500
 9439TIP3   OH228259   1.740   0.681   0.073
 9439TIP3    H128260   1.738   0.776   0.062
 9439TIP3    H228261   1.659   0.660   0.119
 9440TIP3   OH228262   7.661   1.761   4.994
 9440TIP3    H128263   7.612   1.834   4.956
 9440TIP3    H228264   7.616   1.743   5.076
 9441TIP3   OH228265   0.356   3.512   6.497
 9441TIP3    H128266   0.352   3.534   6.403
 9441TIP3    H228267   0.441   3.469   6.508
 9442TIP3   OH228268   6.921   6.604   6.664
 9442TIP3    H128269   6.895   6.545   6.734
 9442TIP3    H228270   6.886   6.689   6.690
 9443TIP3   OH228271   2.977   6.940   1.137
 9443TIP3    H128272   3.011   6.947   1.226
 9443TIP3    H228273   2.885   6.912   1.148
 9444TIP3   OH228274   2.355   3.791   2.790
 9444TIP3    H128275   2.392   3.852   2.726
 9444TIP3    H228276   2.412   3.715   2.786
 9445TIP3   OH228277   7.717   7.185   5.551
 9445TIP3    H128278   7.737   7.249   5.482
 9445TIP3    H228279   7.718   7.101   5.506
 9446TIP3   OH228280   4.578   5.898   5.517
 9446TIP3    H128281   4.596   5.992   5.517
 9446TIP3    H228282   4.566   5.876   5.425
 9447TIP3   OH228283   7.889   1.888   4.321
 9447TIP3    H128284   7.915   1.804   4.361
 9447TIP3    H228285   7.961   1.910   4.263
 9448TIP3   OH228286   2.163   7.392   5.745
 9448TIP3    H128287   2.123   7.423   5.826
 9448TIP3    H228288   2.237   7.339   5.774
 9449TIP3   OH228289   4.224   0.516   1.967
 9449TIP3    H128290   4.133   0.504   1.937
 9449TIP3    H228291   4.272   0.444   1.926
 9450TIP3   OH228292   6.331   1.607   6.123
 9450TIP3    H128293   6.423   1.625   6.145
 9450TIP3    H228294   6.282   1.672   6.173
 9451TIP3   OH228295   3.890   0.949   6.545
 9451TIP3    H128296   3.916   0.865   6.583
 9451TIP3    H228297   3.937   1.014   6.597
 9452TIP3   OH228298   7.668   4.850   5.957
 9452TIP3    H128299   7.574   4.834   5.948
 9452TIP3    H228300   7.703   4.768   5.992
 9453TIP3   OH228301   6.769   6.440   0.100
 9453TIP3    H128302   6.675   6.431   0.117
 9453TIP3    H228303   6.802   6.493   0.173
 9454TIP3   OH228304   6.079   1.805   2.484
 9454TIP3    H128305   5.986   1.799   2.464
 9454TIP3    H228306   6.088   1.884   2.537
 9455TIP3   OH228307   7.564   1.114   4.089
 9455TIP3    H128308   7.598   1.199   4.061
 9455TIP3    H228309   7.577   1.057   4.014
 9456TIP3   OH228310   2.430   1.711   2.182
 9456TIP3    H128311   2.417   1.623   2.216
 9456TIP3    H228312   2.356   1.762   2.215
 9457TIP3   OH228313   3.530   0.193   1.019
 9457TIP3    H128314   3.579   0.272   1.039
 9457TIP3    H228315   3.551   0.175   0.927
 9458TIP3   OH228316   1.995   5.185   1.520
 9458TIP3    H128317   1.973   5.142   1.602
 9458TIP3    H228318   1.913   5.225   1.491
 9459TIP3   OH228319   2.195   1.932   2.234
 9459TIP3    H128320   2.274   1.974   2.266
 9459TIP3    H228321   2.170   1.982   2.157
 9460TIP3   OH228322   3.496   3.422   1.027
 9460TIP3    H128323   3.439   3.494   0.999
 9460TIP3    H228324   3.436   3.360   1.069
 9461TIP3   OH228325   1.858   5.668   1.516
 9461TIP3    H128326   1.797   5.698   1.583
 9461TIP3    H228327   1.802   5.633   1.447
 9462TIP3   OH228328   6.907   1.861   1.243
 9462TIP3    H128329   6.957   1.781   1.262
 9462TIP3    H228330   6.918   1.915   1.321
 9463TIP3   OH228331   6.721   4.008   4.425
 9463TIP3    H128332   6.746   4.004   4.333
 9463TIP3    H228333   6.796   4.047   4.469
 9464TIP3   OH228334   5.666   7.376   0.864
 9464TIP3    H128335   5.656   7.284   0.886
 9464TIP3    H228336   5.576   7.409   0.855
 9465TIP3   OH228337   2.320   1.743   4.734
 9465TIP3    H128338   2.284   1.666   4.689
 9465TIP3    H228339   2.291   1.734   4.824
 9466TIP3   OH228340   6.153   1.490   6.466
 9466TIP3    H128341   6.231   1.475   6.414
 9466TIP3    H228342   6.135   1.584   6.457
 9467TIP3   OH228343   8.162   2.893   3.919
 9467TIP3    H128344   8.154   2.975   3.869
 9467TIP3    H228345   8.080   2.887   3.968
 9468TIP3   OH228346   4.514   2.721   2.444
 9468TIP3    H128347   4.513   2.814   2.463
 9468TIP3    H228348   4.428   2.703   2.405
 9469TIP3   OH228349   5.205   2.441   5.589
 9469TIP3    H128350   5.138   2.440   5.657
 9469TIP3    H228351   5.224   2.534   5.575
 9470TIP3   OH228352   2.044   3.743   5.589
 9470TIP3    H128353   2.053   3.652   5.618
 9470TIP3    H228354   1.949   3.757   5.585
 9471TIP3   OH228355   5.619   4.157   0.181
 9471TIP3    H128356   5.540   4.129   0.227
 9471TIP3    H228357   5.593   4.237   0.135
 9472TIP3   OH228358   4.604   2.559   4.541
 9472TIP3    H128359   4.559   2.624   4.488
 9472TIP3    H228360   4.589   2.587   4.632
 9473TIP3   OH228361   3.846   3.407   5.295
 9473TIP3    H128362   3.779   3.461   5.335
 9473TIP3    H228363   3.814   3.317   5.306
 9474TIP3   OH228364   2.784   1.895   0.029
 9474TIP3    H128365   2.786   1.907  -0.066
 9474TIP3    H228366   2.799   1.982   0.065
 9475TIP3   OH228367   7.727   3.098   4.590
 9475TIP3    H128368   7.688   3.052   4.665
 9475TIP3    H228369   7.715   3.037   4.517
 9476TIP3   OH228370   5.653   7.073   5.762
 9476TIP3    H128371   5.717   7.100   5.828
 9476TIP3    H228372   5.609   6.997   5.802
 9477TIP3   OH228373   5.298   2.178   5.611
 9477TIP3    H128374   5.284   2.173   5.516
 9477TIP3    H228375   5.264   2.264   5.636
 9478TIP3   OH228376   2.673   1.427   1.415
 9478TIP3    H128377   2.602   1.472   1.370
 9478TIP3    H228378   2.703   1.359   1.354
 9479TIP3   OH228379   4.685   7.283   3.466
 9479TIP3    H128380   4.698   7.261   3.559
 9479TIP3    H228381   4.628   7.360   3.468
 9480TIP3   OH228382   2.263   4.666   4.132
 9480TIP3    H128383   2.325   4.698   4.066
 9480TIP3    H228384   2.184   4.644   4.083
 9481TIP3   OH228385   4.643   7.623   1.318
 9481TIP3    H128386   4.672   7.663   1.236
 9481TIP3    H228387   4.564   7.574   1.294
 9482TIP3   OH228388   3.389   7.772   3.175
 9482TIP3    H128389   3.481   7.747   3.190
 9482TIP3    H228390   3.350   7.771   3.262
 9483TIP3   OH228391   3.977   3.425   5.040
 9483TIP3    H128392   4.028   3.345   5.043
 9483TIP3    H228393   3.932   3.429   5.124
 9484TIP3   OH228394   6.228   5.344   2.992
 9484TIP3    H128395   6.303   5.326   2.936
 9484TIP3    H228396   6.266   5.379   3.073
 9485TIP3   OH228397   1.035   0.638   5.848
 9485TIP3    H128398   1.053   0.568   5.912
 9485TIP3    H228399   0.946   0.621   5.819
 9486TIP3   OH228400   2.909   5.631   2.414
 9486TIP3    H128401   2.877   5.562   2.472
 9486TIP3    H228402   2.837   5.695   2.411
 9487TIP3   OH228403   1.915   4.855   1.572
 9487TIP3    H128404   1.889   4.855   1.480
 9487TIP3    H228405   1.936   4.763   1.591
 9488TIP3   OH228406   1.814   0.425   0.167
 9488TIP3    H128407   1.745   0.399   0.227
 9488TIP3    H228408   1.780   0.503   0.123
 9489TIP3   OH228409   2.025   7.312   1.707
 9489TIP3    H128410   2.003   7.403   1.725
 9489TIP3    H228411   2.106   7.316   1.657
 9490TIP3   OH228412   6.871   4.557   4.962
 9490TIP3    H128413   6.803   4.612   4.924
 9490TIP3    H228414   6.937   4.549   4.893
 9491TIP3   OH228415   0.739   5.632   5.877
 9491TIP3    H128416   0.791   5.698   5.923
 9491TIP3    H228417   0.803   5.576   5.833
 9492TIP3   OH228418   6.438   5.140   6.263
 9492TIP3    H128419   6.531   5.136   6.240
 9492TIP3    H228420   6.404   5.214   6.213
 9493TIP3   OH228421   3.792   7.115   5.316
 9493TIP3    H128422   3.778   7.209   5.326
 9493TIP3    H228423   3.752   7.077   5.394
 9494TIP3   OH228424   5.978   3.959  -0.002
 9494TIP3    H128425   6.064   4.001   0.006
 9494TIP3    H228426   5.946   3.953   0.088
 9495TIP3   OH228427   4.345   7.060   4.116
 9495TIP3    H128428   4.429   7.062   4.161
 9495TIP3    H228429   4.343   6.975   4.072
 9496TIP3   OH228430   3.850   2.652   3.200
 9496TIP3    H128431   3.914   2.583   3.182
 9496TIP3    H228432   3.768   2.605   3.215
 9497TIP3   OH228433   1.263   2.924   5.820
 9497TIP3    H128434   1.330   2.931   5.889
 9497TIP3    H228435   1.181   2.911   5.868
 9498TIP3   OH228436   3.586   1.906   6.663
 9498TIP3    H128437   3.626   1.866   6.585
 9498TIP3    H228438   3.645   1.979   6.685
 9499TIP3   OH228439   6.518   2.589   1.453
 9499TIP3    H128440   6.533   2.593   1.359
 9499TIP3    H228441   6.567   2.511   1.482
 9500TIP3   OH228442   7.920   1.765   4.644
 9500TIP3    H128443   8.009   1.786   4.616
 9500TIP3    H228444   7.929   1.741   4.736
 9501TIP3   OH228445   2.422   6.562   5.045
 9501TIP3    H128446   2.481   6.520   4.982
 9501TIP3    H228447   2.365   6.491   5.074
 9502TIP3   OH228448   8.023   5.729   4.189
 9502TIP3    H128449   7.989   5.721   4.100
 9502TIP3    H228450   7.945   5.737   4.245
 9503TIP3   OH228451   1.581   7.685   5.494
 9503TIP3    H128452   1.491   7.667   5.523
 9503TIP3    H228453   1.633   7.680   5.574
 9504TIP3   OH228454   6.020   0.980   4.573
 9504TIP3    H128455   5.988   1.059   4.615
 9504TIP3    H228456   5.944   0.922   4.569
 9505TIP3   OH228457   7.259   6.829   3.091
 9505TIP3    H128458   7.288   6.860   3.177
 9505TIP3    H228459   7.313   6.752   3.073
 9506TIP3   OH228460   8.255   2.224   0.796
 9506TIP3    H128461   8.256   2.312   0.758
 9506TIP3    H228462   8.266   2.238   0.890
 9507TIP3   OH228463   5.670   4.227   1.246
 9507TIP3    H128464   5.672   4.316   1.209
 9507TIP3    H228465   5.583   4.218   1.284
 9508TIP3   OH228466   4.040   0.342   2.772
 9508TIP3    H128467   4.131   0.369   2.761
 9508TIP3    H228468   4.017   0.371   2.860
 9509TIP3   OH228469   0.555   6.961   0.593
 9509TIP3    H128470   0.475   6.990   0.550
 9509TIP3    H228471   0.625   6.999   0.540
 9510TIP3   OH228472   6.480   2.347   0.903
 9510TIP3    H128473   6.540   2.418   0.925
 9510TIP3    H228474   6.506   2.320   0.815
 9511TIP3   OH228475   3.430   4.614   0.627
 9511TIP3    H128476   3.392   4.545   0.572
 9511TIP3    H228477   3.363   4.682   0.631
 9512TIP3   OH228478   6.139   7.128   6.351
 9512TIP3    H128479   6.159   7.035   6.340
 9512TIP3    H228480   6.079   7.130   6.426
 9513TIP3   OH228481   4.303   3.383   3.996
 9513TIP3    H128482   4.233   3.433   4.039
 9513TIP3    H228483   4.311   3.422   3.909
 9514TIP3   OH228484   4.465   7.361   3.805
 9514TIP3    H128485   4.404   7.292   3.779
 9514TIP3    H228486   4.410   7.436   3.826
 9515TIP3   OH228487   5.360   2.609   5.304
 9515TIP3    H128488   5.391   2.553   5.375
 9515TIP3    H228489   5.434   2.667   5.285
 9516TIP3   OH228490   6.766   3.696   0.512
 9516TIP3    H128491   6.747   3.637   0.439
 9516TIP3    H228492   6.726   3.779   0.487
 9517TIP3   OH228493   6.525   5.163   5.777
 9517TIP3    H128494   6.453   5.214   5.814
 9517TIP3    H228495   6.488   5.076   5.764
 9518TIP3   OH228496   1.458   5.949   5.164
 9518TIP3    H128497   1.547   5.920   5.183
 9518TIP3    H228498   1.402   5.888   5.212
 9519TIP3   OH228499   1.029   0.063   5.717
 9519TIP3    H128500   0.981   0.055   5.635
 9519TIP3    H228501   1.021  -0.023   5.758
 9520TIP3   OH228502   3.169   5.072   5.576
 9520TIP3    H128503   3.152   5.030   5.661
 9520TIP3    H228504   3.082   5.092   5.541
 9521TIP3   OH228505   5.458   7.040   6.487
 9521TIP3    H128506   5.533   7.080   6.442
 9521TIP3    H228507   5.389   7.039   6.421
 9522TIP3   OH228508   7.366   1.567   5.877
 9522TIP3    H128509   7.462   1.561   5.882
 9522TIP3    H228510   7.349   1.660   5.859
 9523TIP3   OH228511   7.787   0.268   6.496
 9523TIP3    H128512   7.828   0.234   6.417
 9523TIP3    H228513   7.706   0.308   6.465
 9524TIP3   OH228514   2.695   3.821   5.901
 9524TIP3    H128515   2.771   3.769   5.926
 9524TIP3    H228516   2.668   3.866   5.982
 9525TIP3   OH228517   2.612   7.333   5.168
 9525TIP3    H128518   2.700   7.331   5.205
 9525TIP3    H228519   2.611   7.265   5.102
 9526TIP3   OH228520   7.593   5.367   4.514
 9526TIP3    H128521   7.684   5.386   4.495
 9526TIP3    H228522   7.594   5.280   4.554
 9527TIP3   OH228523   6.893   1.100   2.445
 9527TIP3    H128524   6.805   1.133   2.465
 9527TIP3    H228525   6.925   1.064   2.527
 9528TIP3   OH228526   5.666   3.420   0.005
 9528TIP3    H128527   5.589   3.420   0.061
 9528TIP3    H228528   5.722   3.351   0.041
 9529TIP3   OH228529   4.072   3.741   0.686
 9529TIP3    H128530   4.046   3.794   0.762
 9529TIP3    H228531   4.167   3.742   0.687
 9530TIP3   OH228532   1.848   6.991   3.619
 9530TIP3    H128533   1.842   6.919   3.682
 9530TIP3    H228534   1.921   7.045   3.650
 9531TIP3   OH228535   1.584   1.193   3.560
 9531TIP3    H128536   1.622   1.261   3.615
 9531TIP3    H228537   1.508   1.161   3.609
 9532TIP3   OH228538   5.176   5.103   0.295
 9532TIP3    H128539   5.213   5.056   0.370
 9532TIP3    H228540   5.167   5.037   0.227
 9533TIP3   OH228541   6.988   1.056   1.086
 9533TIP3    H128542   6.995   1.149   1.065
 9533TIP3    H228543   6.999   1.012   1.001
 9534TIP3   OH228544   2.485   6.259   4.149
 9534TIP3    H128545   2.533   6.236   4.069
 9534TIP3    H228546   2.396   6.226   4.133
 9535TIP3   OH228547   4.519   6.887   2.580
 9535TIP3    H128548   4.579   6.824   2.542
 9535TIP3    H228549   4.432   6.858   2.551
 9536TIP3   OH228550   0.057   6.831   2.112
 9536TIP3    H128551   0.002   6.840   2.035
 9536TIP3    H228552  -0.004   6.826   2.185
 9537TIP3   OH228553   2.758   1.859   5.011
 9537TIP3    H128554   2.746   1.801   5.086
 9537TIP3    H228555   2.847   1.840   4.980
 9538TIP3   OH228556   0.550   2.809   4.672
 9538TIP3    H128557   0.561   2.877   4.738
 9538TIP3    H228558   0.601   2.839   4.597
 9539TIP3   OH228559   4.636   5.943   6.641
 9539TIP3    H128560   4.674   5.931   6.728
 9539TIP3    H228561   4.631   6.038   6.630
 9540TIP3   OH228562   0.642   5.458   0.515
 9540TIP3    H128563   0.550   5.482   0.529
 9540TIP3    H228564   0.687   5.541   0.500
 9541TIP3   OH228565   5.472   1.035   1.638
 9541TIP3    H128566   5.433   0.947   1.642
 9541TIP3    H228567   5.566   1.020   1.643
 9542TIP3   OH228568   6.885   4.923   5.404
 9542TIP3    H128569   6.912   4.961   5.320
 9542TIP3    H228570   6.792   4.905   5.394
 9543TIP3   OH228571   5.717   6.855   0.343
 9543TIP3    H128572   5.668   6.837   0.423
 9543TIP3    H228573   5.748   6.945   0.353
 9544TIP3   OH228574   6.358   5.451   0.590
 9544TIP3    H128575   6.396   5.510   0.525
 9544TIP3    H228576   6.264   5.451   0.571
 9545TIP3   OH228577   7.198   4.133   3.623
 9545TIP3    H128578   7.165   4.195   3.558
 9545TIP3    H228579   7.283   4.105   3.588
 9546TIP3   OH228580   7.961   1.353   6.542
 9546TIP3    H128581   7.875   1.390   6.559
 9546TIP3    H228582   7.944   1.264   6.512
 9547TIP3   OH228583   8.172   5.099   6.335
 9547TIP3    H128584   8.195   5.019   6.289
 9547TIP3    H228585   8.106   5.072   6.399
 9548TIP3   OH228586   1.213   3.540   3.354
 9548TIP3    H128587   1.181   3.509   3.270
 9548TIP3    H228588   1.258   3.465   3.392
 9549TIP3   OH228589   3.754   2.306   5.018
 9549TIP3    H128590   3.667   2.286   5.052
 9549TIP3    H228591   3.811   2.309   5.095
 9550TIP3   OH228592   6.320   1.154   6.150
 9550TIP3    H128593   6.404   1.179   6.111
 9550TIP3    H228594   6.267   1.123   6.076
 9551TIP3   OH228595   1.781   4.306   0.954
 9551TIP3    H128596   1.708   4.271   1.005
 9551TIP3    H228597   1.816   4.230   0.908
 9552TIP3   OH228598   6.304   7.265   2.733
 9552TIP3    H128599   6.376   7.223   2.779
 9552TIP3    H228600   6.259   7.194   2.687
 9553TIP3   OH228601   1.372   0.841   0.104
 9553TIP3    H128602   1.434   0.897   0.057
 9553TIP3    H228603   1.287   0.883   0.090
 9554TIP3   OH228604   2.825   7.654   5.432
 9554TIP3    H128605   2.734   7.678   5.418
 9554TIP3    H228606   2.856   7.627   5.346
 9555TIP3   OH228607   3.420   5.536   0.270
 9555TIP3    H128608   3.354   5.468   0.279
 9555TIP3    H228609   3.377   5.605   0.220
 9556TIP3   OH228610   1.238   7.000   3.310
 9556TIP3    H128611   1.320   6.967   3.274
 9556TIP3    H228612   1.259   7.022   3.401
 9557TIP3   OH228613   0.926   5.710   3.993
 9557TIP3    H128614   1.021   5.709   4.004
 9557TIP3    H228615   0.895   5.636   4.046
 9558TIP3   OH228616   6.460   1.055   1.826
 9558TIP3    H128617   6.454   1.005   1.745
 9558TIP3    H228618   6.370   1.057   1.860
 9559TIP3   OH228619   3.698   0.392   3.863
 9559TIP3    H128620   3.626   0.454   3.874
 9559TIP3    H228621   3.706   0.380   3.769
 9560TIP3   OH228622   1.144   7.770   3.479
 9560TIP3    H128623   1.066   7.750   3.530
 9560TIP3    H228624   1.169   7.687   3.439
 9561TIP3   OH228625   7.156   3.122   1.184
 9561TIP3    H128626   7.200   3.199   1.222
 9561TIP3    H228627   7.218   3.050   1.197
 9562TIP3   OH228628   4.891   6.124   0.717
 9562TIP3    H128629   4.803   6.114   0.753
 9562TIP3    H228630   4.947   6.080   0.780
 9563TIP3   OH228631   2.876   3.743   5.025
 9563TIP3    H128632   2.792   3.787   5.023
 9563TIP3    H228633   2.934   3.802   5.073
 9564TIP3   OH228634   4.143   5.054   3.043
 9564TIP3    H128635   4.224   5.046   2.991
 9564TIP3    H228636   4.091   5.119   2.996
 9565TIP3   OH228637   7.943   1.090   3.744
 9565TIP3    H128638   8.002   1.018   3.723
 9565TIP3    H228639   7.927   1.081   3.838
 9566TIP3   OH228640   2.780   7.037   4.249
 9566TIP3    H128641   2.749   7.026   4.339
 9566TIP3    H228642   2.702   7.060   4.199
 9567TIP3   OH228643   4.595   6.921   4.517
 9567TIP3    H128644   4.559   6.936   4.604
 9567TIP3    H228645   4.643   6.839   4.524
 9568TIP3   OH228646   3.886   5.247   1.546
 9568TIP3    H128647   3.825   5.200   1.488
 9568TIP3    H228648   3.962   5.188   1.554
 9569TIP3   OH228649   7.830   4.589   0.240
 9569TIP3    H128650   7.904   4.644   0.264
 9569TIP3    H228651   7.834   4.515   0.300
 9570TIP3   OH228652   1.160   6.225   3.441
 9570TIP3    H128653   1.089   6.280   3.473
 9570TIP3    H228654   1.231   6.239   3.503
 9571TIP3   OH228655   2.963   7.240   4.083
 9571TIP3    H128656   2.911   7.220   4.160
 9571TIP3    H228657   2.973   7.335   4.085
 9572TIP3   OH228658   5.049   0.774   0.629
 9572TIP3    H128659   5.070   0.697   0.576
 9572TIP3    H228660   5.100   0.845   0.590
 9573TIP3   OH228661   4.564   6.511   1.692
 9573TIP3    H128662   4.532   6.458   1.619
 9573TIP3    H228663   4.485   6.538   1.738
 9574TIP3   OH228664   0.978   6.074   4.184
 9574TIP3    H128665   1.034   6.040   4.254
 9574TIP3    H228666   1.035   6.074   4.106
 9575TIP3   OH228667   2.392   1.269   6.268
 9575TIP3    H128668   2.329   1.197   6.268
 9575TIP3    H228669   2.426   1.271   6.357
 9576TIP3   OH228670   4.781   1.290   4.201
 9576TIP3    H128671   4.850   1.284   4.135
 9576TIP3    H228672   4.708   1.240   4.165
 9577TIP3   OH228673   2.512   7.339   0.472
 9577TIP3    H128674   2.600   7.353   0.508
 9577TIP3    H228675   2.498   7.244   0.480
 9578TIP3   OH228676   6.833   3.798   3.122
 9578TIP3    H128677   6.776   3.873   3.140
 9578TIP3    H228678   6.793   3.754   3.047
 9579TIP3   OH228679   2.958   0.997   4.851
 9579TIP3    H128680   3.034   1.055   4.857
 9579TIP3    H228681   2.885   1.057   4.832
 9580TIP3   OH228682   4.452   5.598   0.426
 9580TIP3    H128683   4.402   5.674   0.395
 9580TIP3    H228684   4.421   5.584   0.516
 9581TIP3   OH228685   7.265   6.571   2.095
 9581TIP3    H128686   7.197   6.516   2.056
 9581TIP3    H228687   7.222   6.655   2.110
 9582TIP3   OH228688   3.999   3.168   5.352
 9582TIP3    H128689   3.907   3.194   5.345
 9582TIP3    H228690   4.033   3.175   5.263
 9583TIP3   OH228691   3.215   4.832   5.313
 9583TIP3    H128692   3.259   4.783   5.244
 9583TIP3    H228693   3.132   4.858   5.275
 9584TIP3   OH228694   0.413   5.520   2.691
 9584TIP3    H128695   0.328   5.546   2.656
 9584TIP3    H228696   0.459   5.481   2.617
 9585TIP3   OH228697   6.879   1.088   4.270
 9585TIP3    H128698   6.868   1.022   4.338
 9585TIP3    H228699   6.929   1.158   4.312
 9586TIP3   OH228700   2.591   4.386   5.220
 9586TIP3    H128701   2.532   4.347   5.155
 9586TIP3    H228702   2.537   4.449   5.267
 9587TIP3   OH228703   3.306   7.795   0.163
 9587TIP3    H128704   3.297   7.867   0.226
 9587TIP3    H228705   3.400   7.789   0.146
 9588TIP3   OH228706   7.251   3.511   4.229
 9588TIP3    H128707   7.223   3.427   4.192
 9588TIP3    H228708   7.343   3.498   4.251
 9589TIP3   OH228709   1.697   2.484   1.226
 9589TIP3    H128710   1.604   2.473   1.243
 9589TIP3    H228711   1.722   2.562   1.276
 9590TIP3   OH228712   7.160   1.670   2.238
 9590TIP3    H128713   7.177   1.582   2.271
 9590TIP3    H228714   7.094   1.658   2.170
 9591TIP3   OH228715   4.051   0.767   6.747
 9591TIP3    H128716   3.959   0.760   6.723
 9591TIP3    H228717   4.050   0.802   6.837
 9592TIP3   OH228718   6.438   2.712   0.139
 9592TIP3    H128719   6.393   2.673   0.213
 9592TIP3    H228720   6.469   2.638   0.087
 9593TIP3   OH228721   2.874   1.489   3.322
 9593TIP3    H128722   2.856   1.515   3.231
 9593TIP3    H228723   2.946   1.427   3.316
 9594TIP3   OH228724   2.655   1.924   4.559
 9594TIP3    H128725   2.672   1.836   4.590
 9594TIP3    H228726   2.646   1.977   4.638
 9595TIP3   OH228727   7.730   1.153   1.475
 9595TIP3    H128728   7.779   1.148   1.558
 9595TIP3    H228729   7.780   1.215   1.422
 9596TIP3   OH228730   7.988   4.786   0.359
 9596TIP3    H128731   7.991   4.850   0.430
 9596TIP3    H228732   8.047   4.821   0.292
 9597TIP3   OH228733   0.461   6.934   6.721
 9597TIP3    H128734   0.533   6.883   6.755
 9597TIP3    H228735   0.383   6.881   6.736
 9598TIP3   OH228736   7.308   0.427   5.929
 9598TIP3    H128737   7.320   0.518   5.902
 9598TIP3    H228738   7.228   0.429   5.982
 9599TIP3   OH228739   1.551   7.432   3.743
 9599TIP3    H128740   1.537   7.419   3.837
 9599TIP3    H228741   1.588   7.349   3.713
 9600TIP3   OH228742   6.860   7.094   1.558
 9600TIP3    H128743   6.935   7.034   1.564
 9600TIP3    H228744   6.893   7.176   1.595
 9601TIP3   OH228745   6.450   5.120   1.103
 9601TIP3    H128746   6.467   5.055   1.035
 9601TIP3    H228747   6.481   5.078   1.184
 9602TIP3   OH228748   6.243   2.357   0.559
 9602TIP3    H128749   6.150   2.334   0.553
 9602TIP3    H228750   6.289   2.278   0.530
 9603TIP3   OH228751   7.449   3.886   6.744
 9603TIP3    H128752   7.393   3.893   6.666
 9603TIP3    H228753   7.401   3.932   6.812
 9604TIP3   OH228754   5.517   6.626   4.485
 9604TIP3    H128755   5.496   6.632   4.578
 9604TIP3    H228756   5.484   6.540   4.458
 9605TIP3   OH228757   1.448   3.469   2.582
 9605TIP3    H128758   1.518   3.526   2.552
 9605TIP3    H228759   1.454   3.392   2.526
 9606TIP3   OH228760   0.198   3.073   4.499
 9606TIP3    H128761   0.262   3.096   4.431
 9606TIP3    H228762   0.121   3.125   4.478
 9607TIP3   OH228763   6.645   4.106   6.007
 9607TIP3    H128764   6.558   4.135   6.037
 9607TIP3    H228765   6.657   4.152   5.924
 9608TIP3   OH228766   7.523   5.754   1.261
 9608TIP3    H128767   7.564   5.691   1.202
 9608TIP3    H228768   7.435   5.720   1.275
 9609TIP3   OH228769   7.628   4.454   5.857
 9609TIP3    H128770   7.595   4.383   5.912
 9609TIP3    H228771   7.671   4.514   5.919
 9610TIP3   OH228772   1.085   4.407   2.679
 9610TIP3    H128773   1.059   4.315   2.687
 9610TIP3    H228774   1.030   4.453   2.743
 9611TIP3   OH228775   1.876   5.104   3.464
 9611TIP3    H128776   1.855   5.047   3.390
 9611TIP3    H228777   1.923   5.177   3.425
 9612TIP3   OH228778   2.023   1.607   0.710
 9612TIP3    H128779   2.030   1.562   0.794
 9612TIP3    H228780   2.104   1.585   0.664
 9613TIP3   OH228781   3.111   4.967   5.852
 9613TIP3    H128782   3.035   4.910   5.866
 9613TIP3    H228783   3.113   5.024   5.929
 9614TIP3   OH228784   1.955   5.275   5.723
 9614TIP3    H128785   1.904   5.201   5.754
 9614TIP3    H228786   2.002   5.242   5.646
 9615TIP3   OH228787   1.797   5.915   0.201
 9615TIP3    H128788   1.835   6.003   0.210
 9615TIP3    H228789   1.872   5.857   0.189
 9616TIP3   OH228790   4.287   2.896   3.096
 9616TIP3    H128791   4.289   2.953   3.173
 9616TIP3    H228792   4.366   2.842   3.105
 9617TIP3   OH228793   7.523   3.050   4.219
 9617TIP3    H128794   7.454   3.065   4.283
 9617TIP3    H228795   7.478   3.021   4.140
 9618TIP3   OH228796   7.973   6.891   0.596
 9618TIP3    H128797   7.991   6.983   0.616
 9618TIP3    H228798   8.001   6.880   0.505
 9619TIP3   OH228799   4.143   2.271   3.996
 9619TIP3    H128800   4.176   2.204   4.055
 9619TIP3    H228801   4.052   2.284   4.022
 9620TIP3   OH228802   6.128   4.323   0.662
 9620TIP3    H128803   6.153   4.354   0.575
 9620TIP3    H228804   6.117   4.229   0.652
 9621TIP3   OH228805   2.617   0.678   1.233
 9621TIP3    H128806   2.592   0.757   1.185
 9621TIP3    H228807   2.706   0.695   1.262
 9622TIP3   OH228808   1.926   6.245   4.350
 9622TIP3    H128809   1.907   6.214   4.438
 9622TIP3    H228810   1.897   6.174   4.292
 9623TIP3   OH228811   4.925   1.752   1.258
 9623TIP3    H128812   4.861   1.815   1.292
 9623TIP3    H228813   4.975   1.802   1.194
 9624TIP3   OH228814   2.516   1.406   2.691
 9624TIP3    H128815   2.437   1.447   2.657
 9624TIP3    H228816   2.585   1.433   2.631
 9625TIP3   OH228817   3.454   3.879   5.854
 9625TIP3    H128818   3.384   3.890   5.918
 9625TIP3    H228819   3.409   3.849   5.775
 9626TIP3   OH228820   6.772   3.298   4.641
 9626TIP3    H128821   6.718   3.340   4.709
 9626TIP3    H228822   6.850   3.354   4.635
 9627TIP3   OH228823   2.425   7.408   2.893
 9627TIP3    H128824   2.474   7.442   2.818
 9627TIP3    H228825   2.336   7.394   2.860
 9628TIP3   OH228826   1.692   3.723   4.632
 9628TIP3    H128827   1.666   3.806   4.671
 9628TIP3    H228828   1.666   3.657   4.696
 9629TIP3   OH228829   1.053   0.890   2.499
 9629TIP3    H128830   0.958   0.884   2.493
 9629TIP3    H228831   1.082   0.800   2.515
 9630TIP3   OH228832   7.167   5.264   2.259
 9630TIP3    H128833   7.076   5.274   2.228
 9630TIP3    H228834   7.218   5.318   2.199
 9631TIP3   OH228835   4.901   6.494   3.325
 9631TIP3    H128836   4.926   6.477   3.416
 9631TIP3    H228837   4.930   6.584   3.309
 9632TIP3   OH228838   1.734   2.054   3.914
 9632TIP3    H128839   1.777   2.124   3.964
 9632TIP3    H228840   1.788   2.043   3.836
 9633TIP3   OH228841   5.785   3.867   6.611
 9633TIP3    H128842   5.809   3.960   6.611
 9633TIP3    H228843   5.776   3.845   6.519
 9634TIP3   OH228844   3.207   2.175   3.392
 9634TIP3    H128845   3.252   2.197   3.310
 9634TIP3    H228846   3.273   2.191   3.460
 9635TIP3   OH228847   6.000   7.308   1.674
 9635TIP3    H128848   6.028   7.223   1.709
 9635TIP3    H228849   5.948   7.286   1.597
 9636TIP3   OH228850   6.981   4.381   2.433
 9636TIP3    H128851   7.031   4.463   2.429
 9636TIP3    H228852   6.890   4.410   2.440
 9637TIP3   OH228853   6.550   7.124   0.293
 9637TIP3    H128854   6.598   7.164   0.365
 9637TIP3    H228855   6.505   7.197   0.250
 9638TIP3   OH228856   0.105   7.514   4.824
 9638TIP3    H128857   0.113   7.565   4.905
 9638TIP3    H228858   0.012   7.494   4.818
 9639TIP3   OH228859   0.650   0.260   3.616
 9639TIP3    H128860   0.589   0.331   3.593
 9639TIP3    H228861   0.626   0.188   3.558
 9640TIP3   OH228862   2.363   4.182   5.471
 9640TIP3    H128863   2.336   4.274   5.464
 9640TIP3    H228864   2.283   4.136   5.498
 9641TIP3   OH228865   4.559   6.421   5.372
 9641TIP3    H128866   4.536   6.355   5.438
 9641TIP3    H228867   4.495   6.408   5.302
 9642TIP3   OH228868   1.690   0.916   3.222
 9642TIP3    H128869   1.610   0.916   3.169
 9642TIP3    H228870   1.691   0.830   3.264
 9643TIP3   OH228871   3.032   6.696   1.477
 9643TIP3    H128872   2.951   6.737   1.445
 9643TIP3    H228873   3.093   6.769   1.489
 9644TIP3   OH228874   7.064   3.791   5.195
 9644TIP3    H128875   6.988   3.734   5.183
 9644TIP3    H228876   7.127   3.762   5.129
 9645TIP3   OH228877   1.491   3.228   4.083
 9645TIP3    H128878   1.585   3.239   4.099
 9645TIP3    H228879   1.486   3.166   4.011
 9646TIP3   OH228880   6.233   4.488   2.578
 9646TIP3    H128881   6.177   4.488   2.500
 9646TIP3    H228882   6.176   4.516   2.649
 9647TIP3   OH228883   3.475   4.099   3.258
 9647TIP3    H128884   3.408   4.031   3.260
 9647TIP3    H228885   3.529   4.081   3.336
 9648TIP3   OH228886   3.082   7.454   0.401
 9648TIP3    H128887   3.040   7.369   0.385
 9648TIP3    H228888   3.174   7.440   0.381
 9649TIP3   OH228889   8.119   6.854   4.581
 9649TIP3    H128890   8.155   6.936   4.617
 9649TIP3    H228891   8.048   6.831   4.641
 9650TIP3   OH228892   1.596   2.290   5.955
 9650TIP3    H128893   1.570   2.358   6.017
 9650TIP3    H228894   1.519   2.277   5.899
 9651TIP3   OH228895   5.150   5.021   1.659
 9651TIP3    H128896   5.065   5.002   1.621
 9651TIP3    H228897   5.131   5.076   1.735
 9652TIP3   OH228898   2.036   7.324   1.200
 9652TIP3    H128899   2.037   7.418   1.217
 9652TIP3    H228900   2.021   7.284   1.285
 9653TIP3   OH228901   4.723   1.124   3.014
 9653TIP3    H128902   4.785   1.160   3.078
 9653TIP3    H228903   4.683   1.050   3.059
 9654TIP3   OH228904   4.884   2.020   3.663
 9654TIP3    H128905   4.972   1.984   3.677
 9654TIP3    H228906   4.875   2.086   3.732
 9655TIP3   OH228907   1.938   0.400   1.489
 9655TIP3    H128908   1.844   0.413   1.474
 9655TIP3    H228909   1.973   0.489   1.495
 9656TIP3   OH228910   2.181   1.005   5.023
 9656TIP3    H128911   2.137   0.941   4.966
 9656TIP3    H228912   2.181   1.086   4.972
 9657TIP3   OH228913   6.695   6.053   5.373
 9657TIP3    H128914   6.608   6.067   5.410
 9657TIP3    H228915   6.755   6.066   5.446
 9658TIP3   OH228916   1.655   1.455   1.105
 9658TIP3    H128917   1.729   1.515   1.100
 9658TIP3    H228918   1.651   1.429   1.197
 9659TIP3   OH228919   4.354   0.495   5.018
 9659TIP3    H128920   4.292   0.564   5.040
 9659TIP3    H228921   4.373   0.452   5.102
 9660TIP3   OH228922   5.577   3.643   1.256
 9660TIP3    H128923   5.561   3.737   1.252
 9660TIP3    H228924   5.636   3.631   1.330
 9661TIP3   OH228925   3.376   5.012   6.664
 9661TIP3    H128926   3.314   4.975   6.602
 9661TIP3    H228927   3.331   5.008   6.748
 9662TIP3   OH228928   1.541   4.591   5.418
 9662TIP3    H128929   1.536   4.591   5.322
 9662TIP3    H228930   1.541   4.684   5.441
 9663TIP3   OH228931   2.223   6.413   4.495
 9663TIP3    H128932   2.313   6.394   4.468
 9663TIP3    H228933   2.204   6.347   4.562
 9664TIP3   OH228934   1.372   1.187   5.728
 9664TIP3    H128935   1.378   1.142   5.644
 9664TIP3    H228936   1.286   1.162   5.762
 9665TIP3   OH228937   7.832   3.114   2.641
 9665TIP3    H128938   7.892   3.050   2.681
 9665TIP3    H228939   7.876   3.141   2.561
 9666TIP3   OH228940   5.127   3.295   4.924
 9666TIP3    H128941   5.119   3.391   4.925
 9666TIP3    H228942   5.121   3.271   4.832
 9667TIP3   OH228943   0.076   1.704   1.899
 9667TIP3    H128944   0.004   1.652   1.934
 9667TIP3    H228945   0.136   1.641   1.860
 9668TIP3   OH228946   5.976   1.659   1.003
 9668TIP3    H128947   5.993   1.753   0.995
 9668TIP3    H228948   6.063   1.620   1.011
 9669TIP3   OH228949   0.660   3.640   1.698
 9669TIP3    H128950   0.712   3.592   1.762
 9669TIP3    H228951   0.724   3.681   1.640
 9670TIP3   OH228952   2.825   1.876   2.489
 9670TIP3    H128953   2.832   1.905   2.398
 9670TIP3    H228954   2.799   1.954   2.537
 9671TIP3   OH228955   6.256   1.757   5.640
 9671TIP3    H128956   6.328   1.701   5.669
 9671TIP3    H228957   6.179   1.723   5.684
 9672TIP3   OH228958   3.062   4.297   0.017
 9672TIP3    H128959   3.104   4.222   0.060
 9672TIP3    H228960   3.114   4.372   0.045
 9673TIP3   OH228961   2.794   1.146   5.834
 9673TIP3    H128962   2.804   1.239   5.813
 9673TIP3    H228963   2.700   1.132   5.834
 9674TIP3   OH228964   2.265   5.882   4.785
 9674TIP3    H128965   2.257   5.968   4.825
 9674TIP3    H228966   2.211   5.824   4.839
 9675TIP3   OH228967   1.875   0.004   6.092
 9675TIP3    H128968   1.793   0.035   6.055
 9675TIP3    H228969   1.893   0.064   6.165
 9676TIP3   OH228970   6.791   5.438   5.067
 9676TIP3    H128971   6.709   5.424   5.020
 9676TIP3    H228972   6.780   5.521   5.112
 9677TIP3   OH228973   1.829   0.437   4.486
 9677TIP3    H128974   1.741   0.406   4.507
 9677TIP3    H228975   1.847   0.401   4.399
 9678TIP3   OH228976   3.377   7.545   5.662
 9678TIP3    H128977   3.286   7.562   5.689
 9678TIP3    H228978   3.412   7.488   5.731
 9679TIP3   OH228979   5.422   5.908   2.440
 9679TIP3    H128980   5.401   5.963   2.365
 9679TIP3    H228981   5.418   5.967   2.515
 9680TIP3   OH228982   7.894   1.536   0.842
 9680TIP3    H128983   7.826   1.600   0.863
 9680TIP3    H228984   7.957   1.586   0.789
 9681TIP3   OH228985   5.887   6.735   6.251
 9681TIP3    H128986   5.863   6.742   6.344
 9681TIP3    H228987   5.848   6.652   6.223
 9682TIP3   OH228988   2.964   5.489   3.309
 9682TIP3    H128989   2.889   5.430   3.315
 9682TIP3    H228990   2.942   5.561   3.368
 9683TIP3   OH228991   6.083   5.227   0.083
 9683TIP3    H128992   6.029   5.227   0.004
 9683TIP3    H228993   6.073   5.139   0.119
 9684TIP3   OH228994   2.896   0.565   1.001
 9684TIP3    H128995   2.926   0.538   1.088
 9684TIP3    H228996   2.843   0.491   0.970
 9685TIP3   OH228997   4.185   1.983   6.470
 9685TIP3    H128998   4.220   1.925   6.538
 9685TIP3    H228999   4.210   1.942   6.388
 9686TIP3   OH229000   3.575   3.314   6.434
 9686TIP3    H129001   3.594   3.336   6.343
 9686TIP3    H229002   3.601   3.222   6.442
 9687TIP3   OH229003   0.203   4.698   2.982
 9687TIP3    H129004   0.259   4.724   3.055
 9687TIP3    H229005   0.118   4.738   3.002
 9688TIP3   OH229006   4.930   6.239   2.857
 9688TIP3    H129007   4.950   6.148   2.878
 9688TIP3    H229008   4.917   6.281   2.942
 9689TIP3   OH229009   2.069   6.917   0.973
 9689TIP3    H129010   2.064   6.921   0.878
 9689TIP3    H229011   2.149   6.966   0.995
 9690TIP3   OH229012   6.761   5.917   4.559
 9690TIP3    H129013   6.831   5.867   4.519
 9690TIP3    H229014   6.681   5.886   4.518
 9691TIP3   OH229015   7.981   2.750   6.165
 9691TIP3    H129016   7.976   2.744   6.070
 9691TIP3    H229017   8.074   2.742   6.185
 9692TIP3   OH229018   5.668   0.646   0.521
 9692TIP3    H129019   5.684   0.556   0.491
 9692TIP3    H229020   5.664   0.639   0.617
 9693TIP3   OH229021   1.659   5.313   5.523
 9693TIP3    H129022   1.592   5.317   5.454
 9693TIP3    H229023   1.662   5.220   5.547
 9694TIP3   OH229024   0.846   2.283   2.630
 9694TIP3    H129025   0.769   2.316   2.676
 9694TIP3    H229026   0.810   2.238   2.553
 9695TIP3   OH229027   4.591   2.442   0.710
 9695TIP3    H129028   4.572   2.385   0.784
 9695TIP3    H229029   4.630   2.520   0.748
 9696TIP3   OH229030   1.476   3.452   1.336
 9696TIP3    H129031   1.478   3.375   1.280
 9696TIP3    H229032   1.384   3.480   1.335
 9697TIP3   OH229033   3.453   4.953   3.825
 9697TIP3    H129034   3.467   4.860   3.813
 9697TIP3    H229035   3.541   4.991   3.822
 9698TIP3   OH229036   1.089   6.794   4.551
 9698TIP3    H129037   1.106   6.720   4.492
 9698TIP3    H229038   1.132   6.770   4.633
 9699TIP3   OH229039   7.350   1.041   6.589
 9699TIP3    H129040   7.305   0.957   6.593
 9699TIP3    H229041   7.418   1.028   6.523
 9700TIP3   OH229042   7.936   6.830   5.439
 9700TIP3    H129043   7.888   6.878   5.506
 9700TIP3    H229044   7.885   6.843   5.359
 9701TIP3   OH229045   2.716   5.050   0.628
 9701TIP3    H129046   2.736   4.958   0.645
 9701TIP3    H229047   2.632   5.065   0.672
 9702TIP3   OH229048   5.714   4.387   5.349
 9702TIP3    H129049   5.692   4.417   5.261
 9702TIP3    H229050   5.806   4.362   5.344
 9703TIP3   OH229051   8.139   2.054   4.437
 9703TIP3    H129052   8.098   2.077   4.521
 9703TIP3    H229053   8.170   1.965   4.449
 9704TIP3   OH229054   7.679   3.350   1.789
 9704TIP3    H129055   7.727   3.432   1.791
 9704TIP3    H229056   7.603   3.368   1.734
 9705TIP3   OH229057   2.436   3.160   0.488
 9705TIP3    H129058   2.450   3.067   0.510
 9705TIP3    H229059   2.515   3.204   0.521
 9706TIP3   OH229060   6.122   4.087   0.297
 9706TIP3    H129061   6.028   4.085   0.278
 9706TIP3    H229062   6.127   4.089   0.392
 9707TIP3   OH229063   0.587   1.323   5.534
 9707TIP3    H129064   0.530   1.355   5.604
 9707TIP3    H229065   0.587   1.393   5.469
 9708TIP3   OH229066   0.404   3.502   5.469
 9708TIP3    H129067   0.409   3.596   5.488
 9708TIP3    H229068   0.327   3.472   5.517
 9709TIP3   OH229069   5.202   7.095   4.028
 9709TIP3    H129070   5.224   7.003   4.045
 9709TIP3    H229071   5.284   7.143   4.042
 9710TIP3   OH229072   7.914   0.084   4.990
 9710TIP3    H129073   7.971   0.157   5.016
 9710TIP3    H229074   7.914   0.026   5.065
 9711TIP3   OH229075   4.291   1.523   3.741
 9711TIP3    H129076   4.224   1.513   3.673
 9711TIP3    H229077   4.269   1.456   3.806
 9712TIP3   OH229078   3.706   2.222   2.318
 9712TIP3    H129079   3.790   2.190   2.352
 9712TIP3    H229080   3.641   2.188   2.379
 9713TIP3   OH229081   4.903   6.216   6.451
 9713TIP3    H129082   4.816   6.210   6.411
 9713TIP3    H229083   4.959   6.164   6.393
 9714TIP3   OH229084   2.739   3.614   3.541
 9714TIP3    H129085   2.660   3.607   3.593
 9714TIP3    H229086   2.770   3.524   3.531
 9715TIP3   OH229087   3.225   4.530   0.466
 9715TIP3    H129088   3.182   4.616   0.463
 9715TIP3    H229089   3.174   4.481   0.531
 9716TIP3   OH229090   6.672   2.155   5.739
 9716TIP3    H129091   6.633   2.242   5.739
 9716TIP3    H229092   6.599   2.096   5.755
 9717TIP3   OH229093   2.233   1.487   0.571
 9717TIP3    H129094   2.234   1.476   0.476
 9717TIP3    H229095   2.316   1.529   0.591
 9718TIP3   OH229096   0.725   6.861   4.492
 9718TIP3    H129097   0.802   6.912   4.517
 9718TIP3    H229098   0.760   6.790   4.439
 9719TIP3   OH229099   4.732   7.705   4.555
 9719TIP3    H129100   4.715   7.636   4.620
 9719TIP3    H229101   4.649   7.717   4.510
 9720TIP3   OH229102   2.080   0.745   0.762
 9720TIP3    H129103   2.168   0.755   0.727
 9720TIP3    H229104   2.039   0.679   0.705
 9721TIP3   OH229105   5.890   5.801   0.134
 9721TIP3    H129106   5.812   5.854   0.117
 9721TIP3    H229107   5.954   5.831   0.069
 9722TIP3   OH229108   4.742   2.126   3.149
 9722TIP3    H129109   4.780   2.176   3.220
 9722TIP3    H229110   4.775   2.168   3.069
 9723TIP3   OH229111   5.636   5.334   2.956
 9723TIP3    H129112   5.693   5.268   2.996
 9723TIP3    H229113   5.645   5.411   3.011
 9724TIP3   OH229114   8.249  -0.001   0.791
 9724TIP3    H129115   8.324   0.037   0.837
 9724TIP3    H229116   8.208   0.074   0.747
 9725TIP3   OH229117   4.635   7.024   4.889
 9725TIP3    H129118   4.689   7.074   4.951
 9725TIP3    H229119   4.642   6.934   4.920
 9726TIP3   OH229120   3.570   2.117   1.572
 9726TIP3    H129121   3.544   2.122   1.480
 9726TIP3    H229122   3.630   2.043   1.576
 9727TIP3   OH229123   1.619   5.918   5.677
 9727TIP3    H129124   1.684   5.872   5.731
 9727TIP3    H229125   1.602   5.859   5.604
 9728TIP3   OH229126   8.262   2.669   2.531
 9728TIP3    H129127   8.187   2.646   2.477
 9728TIP3    H229128   8.334   2.680   2.469
 9729TIP3   OH229129   4.255   5.184   1.122
 9729TIP3    H129130   4.311   5.257   1.148
 9729TIP3    H229131   4.179   5.189   1.181
 9730TIP3   OH229132   5.084   0.739   6.273
 9730TIP3    H129133   5.041   0.801   6.214
 9730TIP3    H229134   5.081   0.781   6.359
 9731TIP3   OH229135   1.136   3.424   1.731
 9731TIP3    H129136   1.096   3.459   1.652
 9731TIP3    H229137   1.146   3.500   1.788
 9732TIP3   OH229138   8.099   5.259   1.498
 9732TIP3    H129139   8.129   5.207   1.572
 9732TIP3    H229140   8.141   5.218   1.422
 9733TIP3   OH229141   3.204   2.475   6.584
 9733TIP3    H129142   3.257   2.552   6.565
 9733TIP3    H229143   3.121   2.510   6.615
 9734TIP3   OH229144   6.430   5.579   3.926
 9734TIP3    H129145   6.398   5.587   4.016
 9734TIP3    H229146   6.508   5.634   3.923
 9735TIP3   OH229147   4.082   7.019   1.072
 9735TIP3    H129148   4.177   7.011   1.081
 9735TIP3    H229149   4.063   7.107   1.103
 9736TIP3   OH229150   4.812   6.501   6.175
 9736TIP3    H129151   4.893   6.465   6.139
 9736TIP3    H229152   4.764   6.425   6.208
 9737TIP3   OH229153   3.767   5.788   0.485
 9737TIP3    H129154   3.817   5.738   0.549
 9737TIP3    H229155   3.802   5.761   0.401
 9738TIP3   OH229156   7.140   0.601   0.614
 9738TIP3    H129157   7.069   0.559   0.567
 9738TIP3    H229158   7.220   0.571   0.570
 9739TIP3   OH229159   4.340   2.069   3.312
 9739TIP3    H129160   4.266   2.008   3.316
 9739TIP3    H229161   4.401   2.029   3.251
 9740TIP3   OH229162   4.319   4.578   6.396
 9740TIP3    H129163   4.304   4.658   6.446
 9740TIP3    H229164   4.394   4.597   6.341
 9741TIP3   OH229165   4.791   3.824   6.672
 9741TIP3    H129166   4.822   3.733   6.677
 9741TIP3    H229167   4.697   3.818   6.687
 9742TIP3   OH229168   6.822   1.367   1.613
 9742TIP3    H129169   6.784   1.279   1.618
 9742TIP3    H229170   6.788   1.403   1.531
 9743TIP3   OH229171   2.400   3.771   3.077
 9743TIP3    H129172   2.408   3.814   2.992
 9743TIP3    H229173   2.467   3.703   3.075
 9744TIP3   OH229174   3.374   5.725   2.977
 9744TIP3    H129175   3.442   5.787   3.003
 9744TIP3    H229176   3.391   5.647   3.030
 9745TIP3   OH229177   0.796   6.742   3.350
 9745TIP3    H129178   0.864   6.776   3.409
 9745TIP3    H229179   0.844   6.707   3.275
 9746TIP3   OH229180   7.989   1.983   0.063
 9746TIP3    H129181   7.923   1.915   0.077
 9746TIP3    H229182   8.072   1.939   0.082
 9747TIP3   OH229183   5.734   6.101   3.667
 9747TIP3    H129184   5.733   6.195   3.649
 9747TIP3    H229185   5.827   6.079   3.670
 9748TIP3   OH229186   1.189   4.135   0.284
 9748TIP3    H129187   1.240   4.213   0.305
 9748TIP3    H229188   1.170   4.144   0.190
 9749TIP3   OH229189   3.068   5.119   4.958
 9749TIP3    H129190   3.074   5.122   5.054
 9749TIP3    H229191   3.081   5.026   4.937
 9750TIP3   OH229192   5.166   7.783   0.508
 9750TIP3    H129193   5.199   7.740   0.587
 9750TIP3    H229194   5.099   7.723   0.475
 9751TIP3   OH229195   4.004   2.055   5.216
 9751TIP3    H129196   4.032   2.118   5.282
 9751TIP3    H229197   4.060   2.073   5.141
 9752TIP3   OH229198   6.987   1.985   5.672
 9752TIP3    H129199   6.895   1.967   5.651
 9752TIP3    H229200   6.992   1.976   5.767
 9753TIP3   OH229201   7.325   2.105   5.979
 9753TIP3    H129202   7.298   2.185   6.023
 9753TIP3    H229203   7.412   2.086   6.013
 9754TIP3   OH229204   4.289   2.861   4.444
 9754TIP3    H129205   4.266   2.781   4.491
 9754TIP3    H229206   4.249   2.850   4.358
 9755TIP3   OH229207   7.783   0.414   0.540
 9755TIP3    H129208   7.789   0.465   0.459
 9755TIP3    H229209   7.698   0.371   0.535
 9756TIP3   OH229210   1.289   7.336   0.295
 9756TIP3    H129211   1.320   7.403   0.355
 9756TIP3    H229212   1.365   7.278   0.282
 9757TIP3   OH229213   4.952   3.145   1.793
 9757TIP3    H129214   4.975   3.206   1.723
 9757TIP3    H229215   5.032   3.136   1.844
 9758TIP3   OH229216   0.262   7.163   1.299
 9758TIP3    H129217   0.235   7.253   1.281
 9758TIP3    H229218   0.340   7.150   1.244
 9759TIP3   OH229219   6.452   5.821   6.015
 9759TIP3    H129220   6.363   5.842   5.986
 9759TIP3    H229221   6.477   5.896   6.069
 9760TIP3   OH229222   5.023   3.451   2.779
 9760TIP3    H129223   5.074   3.423   2.703
 9760TIP3    H229224   4.952   3.504   2.743
 9761TIP3   OH229225   4.874   6.415   2.430
 9761TIP3    H129226   4.931   6.479   2.388
 9761TIP3    H229227   4.929   6.375   2.497
 9762TIP3   OH229228   5.122   1.658   0.919
 9762TIP3    H129229   5.101   1.743   0.960
 9762TIP3    H229230   5.088   1.666   0.830
 9763TIP3   OH229231   1.188   3.769   2.836
 9763TIP3    H129232   1.270   3.817   2.842
 9763TIP3    H229233   1.120   3.836   2.844
 9764TIP3   OH229234   1.329   4.426   1.568
 9764TIP3    H129235   1.307   4.435   1.475
 9764TIP3    H229236   1.265   4.481   1.613
 9765TIP3   OH229237   0.155   7.711   0.223
 9765TIP3    H129238   0.154   7.615   0.220
 9765TIP3    H229239   0.176   7.731   0.314
 9766TIP3   OH229240   2.130   1.938   5.034
 9766TIP3    H129241   2.040   1.919   5.008
 9766TIP3    H229242   2.122   2.012   5.095
 9767TIP3   OH229243   3.241   6.179   0.050
 9767TIP3    H129244   3.168   6.189   0.112
 9767TIP3    H229245   3.209   6.115  -0.014
 9768TIP3   OH229246   3.543   1.769   1.429
 9768TIP3    H129247   3.539   1.677   1.402
 9768TIP3    H229248   3.578   1.767   1.518
 9769TIP3   OH229249   4.401   7.200   2.557
 9769TIP3    H129250   4.477   7.192   2.614
 9769TIP3    H229251   4.424   7.271   2.497
 9770TIP3   OH229252   4.441   1.850   0.927
 9770TIP3    H129253   4.353   1.873   0.895
 9770TIP3    H229254   4.453   1.904   1.005
 9771TIP3   OH229255   5.724   3.064   3.005
 9771TIP3    H129256   5.763   3.111   3.079
 9771TIP3    H229257   5.799   3.034   2.954
 9772TIP3   OH229258   2.599   1.602   3.730
 9772TIP3    H129259   2.666   1.616   3.797
 9772TIP3    H229260   2.631   1.528   3.679
 9773TIP3   OH229261   7.411   5.995   4.004
 9773TIP3    H129262   7.343   5.936   4.035
 9773TIP3    H229263   7.485   5.980   4.063
 9774TIP3   OH229264   6.114   3.103   4.462
 9774TIP3    H129265   6.083   3.112   4.372
 9774TIP3    H229266   6.210   3.107   4.456
 9775TIP3   OH229267   5.975   2.968   2.577
 9775TIP3    H129268   5.945   2.989   2.665
 9775TIP3    H229269   6.014   3.049   2.544
 9776TIP3   OH229270   4.203   7.311   1.819
 9776TIP3    H129271   4.287   7.265   1.816
 9776TIP3    H229272   4.180   7.312   1.911
 9777TIP3   OH229273   0.601   1.649   6.724
 9777TIP3    H129274   0.519   1.685   6.759
 9777TIP3    H229275   0.666   1.718   6.741
 9778TIP3   OH229276   5.503   2.585   1.960
 9778TIP3    H129277   5.422   2.556   1.917
 9778TIP3    H229278   5.547   2.638   1.895
 9779TIP3   OH229279   7.084   5.944   6.301
 9779TIP3    H129280   7.161   5.966   6.354
 9779TIP3    H229281   7.012   5.995   6.341
 9780TIP3   OH229282   6.247   5.056   1.556
 9780TIP3    H129283   6.333   5.020   1.535
 9780TIP3    H229284   6.186   4.997   1.513
 9781TIP3   OH229285   0.455   4.140   1.275
 9781TIP3    H129286   0.428   4.175   1.190
 9781TIP3    H229287   0.425   4.205   1.338
 9782TIP3   OH229288   7.591   7.633   5.615
 9782TIP3    H129289   7.655   7.677   5.559
 9782TIP3    H229290   7.592   7.683   5.696
 9783TIP3   OH229291   0.219   2.670   1.491
 9783TIP3    H129292   0.190   2.694   1.403
 9783TIP3    H229293   0.149   2.700   1.549
 9784TIP3   OH229294   3.798   2.385   5.738
 9784TIP3    H129295   3.709   2.362   5.766
 9784TIP3    H229296   3.847   2.396   5.819
 9785TIP3   OH229297   0.607   6.143   0.102
 9785TIP3    H129298   0.551   6.219   0.118
 9785TIP3    H229299   0.547   6.072   0.081
 9786TIP3   OH229300   7.084   6.769   6.254
 9786TIP3    H129301   7.051   6.787   6.166
 9786TIP3    H229302   7.006   6.755   6.307
 9787TIP3   OH229303   3.844   1.501   2.460
 9787TIP3    H129304   3.783   1.503   2.534
 9787TIP3    H229305   3.930   1.515   2.499
 9788TIP3   OH229306   3.093   6.747   0.921
 9788TIP3    H129307   3.099   6.711   1.010
 9788TIP3    H229308   3.108   6.841   0.933
 9789TIP3   OH229309   6.863   7.372   0.674
 9789TIP3    H129310   6.957   7.365   0.658
 9789TIP3    H229311   6.835   7.448   0.622
 9790TIP3   OH229312   6.487   4.413   2.866
 9790TIP3    H129313   6.454   4.502   2.854
 9790TIP3    H229314   6.418   4.357   2.829
 9791TIP3   OH229315   3.583   5.589   2.480
 9791TIP3    H129316   3.555   5.625   2.565
 9791TIP3    H229317   3.575   5.663   2.420
 9792TIP3   OH229318   5.586   1.057   2.548
 9792TIP3    H129319   5.520   1.060   2.479
 9792TIP3    H229320   5.566   0.978   2.598
 9793TIP3   OH229321   4.336   4.803   0.053
 9793TIP3    H129322   4.251   4.797   0.010
 9793TIP3    H229323   4.370   4.889   0.027
 9794TIP3   OH229324   2.582   2.489   4.684
 9794TIP3    H129325   2.628   2.413   4.650
 9794TIP3    H229326   2.526   2.517   4.612
 9795TIP3   OH229327   6.301   5.254   4.036
 9795TIP3    H129328   6.277   5.300   3.956
 9795TIP3    H229329   6.377   5.201   4.012
 9796TIP3   OH229330   1.741   4.429   3.246
 9796TIP3    H129331   1.669   4.381   3.287
 9796TIP3    H229332   1.819   4.400   3.294
 9797TIP3   OH229333   8.240   5.463   1.164
 9797TIP3    H129334   8.286   5.424   1.238
 9797TIP3    H229335   8.269   5.555   1.163
 9798TIP3   OH229336   3.862   4.524   0.649
 9798TIP3    H129337   3.935   4.541   0.708
 9798TIP3    H229338   3.784   4.539   0.702
 9799TIP3   OH229339   7.325   6.873   2.013
 9799TIP3    H129340   7.338   6.968   2.014
 9799TIP3    H229341   7.401   6.839   1.967
 9800TIP3   OH229342   7.015   2.628   3.643
 9800TIP3    H129343   7.098   2.597   3.608
 9800TIP3    H229344   7.030   2.721   3.659
 9801TIP3   OH229345   8.293   7.248   3.840
 9801TIP3    H129346   8.273   7.198   3.760
 9801TIP3    H229347   8.273   7.188   3.911
 9802TIP3   OH229348   4.912   4.032   5.317
 9802TIP3    H129349   4.909   4.059   5.226
 9802TIP3    H229350   4.835   4.072   5.357
 9803TIP3   OH229351   1.237   7.087   1.844
 9803TIP3    H129352   1.267   7.150   1.909
 9803TIP3    H229353   1.150   7.060   1.876
 9804TIP3   OH229354   4.147   6.191   0.591
 9804TIP3    H129355   4.235   6.214   0.559
 9804TIP3    H229356   4.113   6.130   0.526
 9805TIP3   OH229357   1.938   7.208   4.327
 9805TIP3    H129358   1.978   7.291   4.353
 9805TIP3    H229359   1.955   7.149   4.400
 9806TIP3   OH229360   4.098   2.674   6.017
 9806TIP3    H129361   4.184   2.702   5.986
 9806TIP3    H229362   4.046   2.664   5.937
 9807TIP3   OH229363   4.493   3.372   4.732
 9807TIP3    H129364   4.447   3.426   4.796
 9807TIP3    H229365   4.447   3.387   4.649
 9808TIP3   OH229366   8.055   0.301   5.096
 9808TIP3    H129367   8.046   0.390   5.130
 9808TIP3    H229368   8.060   0.246   5.174
 9809TIP3   OH229369   4.831   1.336   2.528
 9809TIP3    H129370   4.793   1.416   2.492
 9809TIP3    H229371   4.794   1.330   2.617
 9810TIP3   OH229372   5.045   6.840   4.239
 9810TIP3    H129373   4.976   6.906   4.245
 9810TIP3    H229374   5.070   6.824   4.330
 9811TIP3   OH229375   4.104   4.529   3.045
 9811TIP3    H129376   4.083   4.513   3.137
 9811TIP3    H229377   4.023   4.564   3.008
 9812TIP3   OH229378   4.739   0.519   2.067
 9812TIP3    H129379   4.831   0.547   2.073
 9812TIP3    H229380   4.719   0.525   1.974
 9813TIP3   OH229381   3.452   6.592   3.424
 9813TIP3    H129382   3.378   6.546   3.463
 9813TIP3    H229383   3.412   6.657   3.366
 9814TIP3   OH229384   6.486   1.169   4.364
 9814TIP3    H129385   6.402   1.210   4.382
 9814TIP3    H229386   6.544   1.202   4.432
 9815TIP3   OH229387   3.142   0.888   3.971
 9815TIP3    H129388   3.107   0.804   3.941
 9815TIP3    H229389   3.067   0.932   4.012
 9816TIP3   OH229390   1.111   5.255   6.192
 9816TIP3    H129391   1.184   5.257   6.130
 9816TIP3    H229392   1.079   5.345   6.194
 9817TIP3   OH229393   0.128   6.115   3.060
 9817TIP3    H129394   0.158   6.132   3.149
 9817TIP3    H229395   0.195   6.059   3.022
 9818TIP3   OH229396   4.485   2.031   5.752
 9818TIP3    H129397   4.477   2.076   5.836
 9818TIP3    H229398   4.430   2.083   5.692
 9819TIP3   OH229399   2.369   0.538   2.792
 9819TIP3    H129400   2.342   0.626   2.816
 9819TIP3    H229401   2.295   0.502   2.743
 9820TIP3   OH229402   4.031   1.478   5.324
 9820TIP3    H129403   3.972   1.514   5.391
 9820TIP3    H229404   4.076   1.554   5.288
 9821TIP3   OH229405   6.860   0.209   6.347
 9821TIP3    H129406   6.833   0.118   6.359
 9821TIP3    H229407   6.952   0.211   6.376
 9822TIP3   OH229408   3.240   2.982   4.945
 9822TIP3    H129409   3.245   2.992   5.040
 9822TIP3    H229410   3.313   2.924   4.923
 9823TIP3   OH229411   0.073   1.653   2.376
 9823TIP3    H129412  -0.013   1.619   2.351
 9823TIP3    H229413   0.135   1.601   2.324
 9824TIP3   OH229414   3.911   6.540   1.692
 9824TIP3    H129415   3.845   6.472   1.683
 9824TIP3    H229416   3.952   6.523   1.777
 9825TIP3   OH229417   1.671   2.279   2.920
 9825TIP3    H129418   1.653   2.235   3.003
 9825TIP3    H229419   1.621   2.360   2.925
 9826TIP3   OH229420   2.695   5.093   3.067
 9826TIP3    H129421   2.708   5.102   3.161
 9826TIP3    H229422   2.604   5.065   3.059
 9827TIP3   OH229423   2.748   7.751   0.735
 9827TIP3    H129424   2.791   7.740   0.819
 9827TIP3    H229425   2.659   7.718   0.748
 9828TIP3   OH229426   6.060   5.955   6.528
 9828TIP3    H129427   5.975   5.916   6.548
 9828TIP3    H229428   6.039   6.045   6.502
 9829TIP3   OH229429   1.933   7.527   3.956
 9829TIP3    H129430   1.906   7.512   3.865
 9829TIP3    H229431   2.012   7.580   3.949
 9830TIP3   OH229432   1.160   4.042   2.678
 9830TIP3    H129433   1.223   3.988   2.629
 9830TIP3    H229434   1.081   4.043   2.624
 9831TIP3   OH229435   1.795   2.536   5.792
 9831TIP3    H129436   1.885   2.551   5.763
 9831TIP3    H229437   1.744   2.527   5.711
 9832TIP3   OH229438   3.472   6.629   0.985
 9832TIP3    H129439   3.431   6.622   0.899
 9832TIP3    H229440   3.401   6.614   1.047
 9833TIP3   OH229441   2.209   3.974   3.418
 9833TIP3    H129442   2.262   3.919   3.476
 9833TIP3    H229443   2.120   3.944   3.432
 9834TIP3   OH229444   2.736   5.448   5.960
 9834TIP3    H129445   2.702   5.359   5.963
 9834TIP3    H229446   2.820   5.444   6.005
 9835TIP3   OH229447   6.129   5.670   0.257
 9835TIP3    H129448   6.113   5.764   0.263
 9835TIP3    H229449   6.048   5.634   0.220
 9836TIP3   OH229450   2.143   1.240   0.711
 9836TIP3    H129451   2.233   1.237   0.742
 9836TIP3    H229452   2.138   1.320   0.658
 9837TIP3   OH229453   2.192   0.089   1.104
 9837TIP3    H129454   2.170   0.015   1.160
 9837TIP3    H229455   2.253   0.052   1.039
 9838TIP3   OH229456   3.173   4.767   4.984
 9838TIP3    H129457   3.130   4.815   4.913
 9838TIP3    H229458   3.115   4.692   5.000
 9839TIP3   OH229459   6.362   4.671   5.496
 9839TIP3    H129460   6.451   4.706   5.494
 9839TIP3    H229461   6.344   4.659   5.589
 9840TIP3   OH229462   1.988   4.302   5.953
 9840TIP3    H129463   1.992   4.207   5.956
 9840TIP3    H229464   1.996   4.323   5.860
 9841TIP3   OH229465   7.441   0.208   4.330
 9841TIP3    H129466   7.412   0.290   4.370
 9841TIP3    H229467   7.419   0.216   4.238
 9842TIP3   OH229468   8.099   6.345   6.544
 9842TIP3    H129469   8.164   6.406   6.509
 9842TIP3    H229470   8.022   6.358   6.489
 9843TIP3   OH229471   5.640   2.435   2.978
 9843TIP3    H129472   5.563   2.382   2.998
 9843TIP3    H229473   5.714   2.379   3.002
 9844TIP3   OH229474   3.623   2.150   2.032
 9844TIP3    H129475   3.716   2.130   2.019
 9844TIP3    H229476   3.610   2.144   2.127
 9845TIP3   OH229477   1.302   3.298   3.512
 9845TIP3    H129478   1.208   3.277   3.515
 9845TIP3    H229479   1.346   3.214   3.508
 9846TIP3   OH229480   4.866   3.702   3.464
 9846TIP3    H129481   4.918   3.750   3.399
 9846TIP3    H229482   4.912   3.619   3.475
 9847TIP3   OH229483   4.151   6.500   4.133
 9847TIP3    H129484   4.134   6.580   4.183
 9847TIP3    H229485   4.066   6.456   4.127
 9848TIP3   OH229486   0.967   4.146   0.020
 9848TIP3    H129487   0.921   4.180  -0.057
 9848TIP3    H229488   1.047   4.198   0.025
 9849TIP3   OH229489   3.928   7.163   3.187
 9849TIP3    H129490   3.851   7.204   3.226
 9849TIP3    H229491   3.931   7.197   3.097
 9850TIP3   OH229492   4.889   3.364   4.153
 9850TIP3    H129493   4.915   3.309   4.079
 9850TIP3    H229494   4.889   3.306   4.228
 9851TIP3   OH229495   2.332   1.958   1.458
 9851TIP3    H129496   2.386   2.021   1.504
 9851TIP3    H229497   2.329   1.881   1.516
 9852TIP3   OH229498   8.237   0.098   1.103
 9852TIP3    H129499   8.159   0.061   1.143
 9852TIP3    H229500   8.271   0.028   1.047
 9853TIP3   OH229501   3.513   7.019   6.563
 9853TIP3    H129502   3.562   6.969   6.498
 9853TIP3    H229503   3.577   7.076   6.604
 9854TIP3   OH229504   6.372   4.457   0.056
 9854TIP3    H129505   6.330   4.508   0.126
 9854TIP3    H229506   6.318   4.473  -0.021
 9855TIP3   OH229507   2.001   1.854   5.663
 9855TIP3    H129508   1.988   1.877   5.571
 9855TIP3    H229509   1.919   1.878   5.706
 9856TIP3   OH229510   4.858   4.184   4.445
 9856TIP3    H129511   4.895   4.096   4.451
 9856TIP3    H229512   4.872   4.210   4.354
 9857TIP3   OH229513   0.112   3.064   0.364
 9857TIP3    H129514   0.051   3.049   0.291
 9857TIP3    H229515   0.165   3.139   0.336
 9858TIP3   OH229516   8.102   7.133   5.883
 9858TIP3    H129517   8.014   7.108   5.854
 9858TIP3    H229518   8.091   7.220   5.920
 9859TIP3   OH229519   0.085   6.345   2.556
 9859TIP3    H129520   0.006   6.387   2.523
 9859TIP3    H229521   0.089   6.261   2.510
 9860TIP3   OH229522   4.916   7.189   5.333
 9860TIP3    H129523   4.942   7.134   5.259
 9860TIP3    H229524   4.882   7.128   5.397
 9861TIP3   OH229525   1.265   7.497   5.248
 9861TIP3    H129526   1.183   7.519   5.292
 9861TIP3    H229527   1.303   7.427   5.301
 9862TIP3   OH229528   7.758   1.672   6.560
 9862TIP3    H129529   7.760   1.627   6.645
 9862TIP3    H229530   7.679   1.726   6.564
 9863TIP3   OH229531   7.537   7.449   3.064
 9863TIP3    H129532   7.489   7.376   3.105
 9863TIP3    H229533   7.553   7.419   2.974
 9864TIP3   OH229534   7.948   2.863   4.044
 9864TIP3    H129535   7.896   2.803   3.990
 9864TIP3    H229536   7.913   2.851   4.132
 9865TIP3   OH229537   2.430   2.235   3.157
 9865TIP3    H129538   2.469   2.179   3.225
 9865TIP3    H229539   2.356   2.184   3.124
 9866TIP3   OH229540   8.171   0.043   3.890
 9866TIP3    H129541   8.214   0.108   3.835
 9866TIP3    H229542   8.115  -0.006   3.830
 9867TIP3   OH229543   6.773   7.292   4.718
 9867TIP3    H129544   6.800   7.344   4.641
 9867TIP3    H229545   6.754   7.357   4.785
 9868TIP3   OH229546   2.990   7.636   5.121
 9868TIP3    H129547   2.985   7.728   5.096
 9868TIP3    H229548   2.946   7.589   5.050
 9869TIP3   OH229549   3.689   5.999   4.965
 9869TIP3    H129550   3.766   6.028   4.917
 9869TIP3    H229551   3.644   5.940   4.905
 9870TIP3   OH229552   4.678   5.554   0.824
 9870TIP3    H129553   4.639   5.627   0.774
 9870TIP3    H229554   4.741   5.515   0.764
 9871TIP3   OH229555   1.789   1.720   6.671
 9871TIP3    H129556   1.738   1.663   6.614
 9871TIP3    H229557   1.787   1.678   6.756
 9872TIP3   OH229558   3.391   0.109   5.291
 9872TIP3    H129559   3.372   0.024   5.250
 9872TIP3    H229560   3.473   0.094   5.338
 9873TIP3   OH229561   1.303   3.675   5.856
 9873TIP3    H129562   1.215   3.646   5.830
 9873TIP3    H229563   1.354   3.671   5.775
 9874TIP3   OH229564   0.389   2.902   1.631
 9874TIP3    H129565   0.429   2.971   1.684
 9874TIP3    H229566   0.296   2.904   1.653
 9875TIP3   OH229567   0.895   6.983   1.305
 9875TIP3    H129568   0.849   6.919   1.359
 9875TIP3    H229569   0.987   6.975   1.332
 9876TIP3   OH229570   4.379   0.483   6.313
 9876TIP3    H129571   4.472   0.461   6.317
 9876TIP3    H229572   4.361   0.526   6.397
 9877TIP3   OH229573   0.493   1.499   6.048
 9877TIP3    H129574   0.541   1.417   6.058
 9877TIP3    H229575   0.556   1.567   6.069
 9878TIP3   OH229576   4.934   2.616   0.235
 9878TIP3    H129577   4.867   2.642   0.298
 9878TIP3    H229578   4.990   2.555   0.283
 9879TIP3   OH229579   1.859   4.089   3.007
 9879TIP3    H129580   1.826   4.067   2.919
 9879TIP3    H229581   1.780   4.102   3.059
 9880TIP3   OH229582   4.636   7.503   5.423
 9880TIP3    H129583   4.653   7.588   5.383
 9880TIP3    H229584   4.722   7.475   5.456
 9881TIP3   OH229585   2.426   5.547   5.314
 9881TIP3    H129586   2.508   5.507   5.344
 9881TIP3    H229587   2.446   5.640   5.307
 9882TIP3   OH229588   4.275   7.786   6.106
 9882TIP3    H129589   4.179   7.791   6.111
 9882TIP3    H229590   4.293   7.698   6.074
 9883TIP3   OH229591   6.954   5.925   1.002
 9883TIP3    H129592   6.861   5.909   0.987
 9883TIP3    H229593   6.994   5.838   0.996
 9884TIP3   OH229594   0.748   1.232   4.107
 9884TIP3    H129595   0.735   1.281   4.188
 9884TIP3    H229596   0.703   1.283   4.040
 9885TIP3   OH229597   4.311   1.933   0.561
 9885TIP3    H129598   4.371   1.916   0.633
 9885TIP3    H229599   4.350   2.006   0.513
 9886TIP3   OH229600   3.686   7.699   1.598
 9886TIP3    H129601   3.703   7.791   1.617
 9886TIP3    H229602   3.772   7.661   1.582
 9887TIP3   OH229603   2.961   1.415   1.870
 9887TIP3    H129604   3.018   1.491   1.880
 9887TIP3    H229605   2.987   1.377   1.786
 9888TIP3   OH229606   6.836   7.801   6.223
 9888TIP3    H129607   6.817   7.848   6.305
 9888TIP3    H229608   6.890   7.727   6.250
 9889TIP3   OH229609   2.235   1.633   5.485
 9889TIP3    H129610   2.317   1.663   5.446
 9889TIP3    H229611   2.170   1.697   5.456
 9890TIP3   OH229612   2.599   0.304   3.575
 9890TIP3    H129613   2.519   0.334   3.532
 9890TIP3    H229614   2.570   0.275   3.661
 9891TIP3   OH229615   1.415   3.439   5.990
 9891TIP3    H129616   1.349   3.508   5.985
 9891TIP3    H229617   1.497   3.485   6.011
 9892TIP3   OH229618   3.928   0.314   4.294
 9892TIP3    H129619   3.880   0.254   4.237
 9892TIP3    H229620   3.908   0.401   4.259
 9893TIP3   OH229621   3.381   5.130   2.944
 9893TIP3    H129622   3.340   5.073   2.879
 9893TIP3    H229623   3.420   5.200   2.892
 9894TIP3   OH229624   3.439   6.300   2.459
 9894TIP3    H129625   3.367   6.294   2.396
 9894TIP3    H229626   3.518   6.290   2.405
 9895TIP3   OH229627   6.064   7.730   3.234
 9895TIP3    H129628   6.045   7.682   3.314
 9895TIP3    H229629   5.989   7.711   3.177
 9896TIP3   OH229630   4.876   0.409   6.038
 9896TIP3    H129631   4.816   0.347   5.998
 9896TIP3    H229632   4.834   0.494   6.026
 9897TIP3   OH229633   6.171   7.583   4.531
 9897TIP3    H129634   6.116   7.518   4.488
 9897TIP3    H229635   6.260   7.547   4.528
 9898TIP3   OH229636   1.279   0.190   0.069
 9898TIP3    H129637   1.303   0.187   0.162
 9898TIP3    H229638   1.334   0.258   0.031
 9899TIP3   OH229639   3.988   1.639   4.149
 9899TIP3    H129640   3.914   1.635   4.089
 9899TIP3    H229641   3.964   1.582   4.221
 9900TIP3   OH229642   0.190   4.132   2.043
 9900TIP3    H129643   0.281   4.107   2.028
 9900TIP3    H229644   0.176   4.117   2.136
 9901TIP3   OH229645   3.173   3.153   0.856
 9901TIP3    H129646   3.083   3.128   0.875
 9901TIP3    H229647   3.201   3.204   0.932
 9902TIP3   OH229648   2.017   4.479   0.689
 9902TIP3    H129649   2.095   4.485   0.633
 9902TIP3    H229650   1.970   4.561   0.675
 9903TIP3   OH229651   7.997   0.131   0.305
 9903TIP3    H129652   8.086   0.164   0.310
 9903TIP3    H229653   7.987   0.077   0.384
 9904TIP3   OH229654   0.304   2.336   5.528
 9904TIP3    H129655   0.235   2.371   5.585
 9904TIP3    H229656   0.275   2.247   5.508
 9905TIP3   OH229657   7.634   2.992   5.148
 9905TIP3    H129658   7.626   3.042   5.230
 9905TIP3    H229659   7.547   2.997   5.108
 9906TIP3   OH229660   5.366   2.300   5.279
 9906TIP3    H129661   5.457   2.309   5.249
 9906TIP3    H229662   5.357   2.364   5.350
 9907TIP3   OH229663   1.706   5.318   0.244
 9907TIP3    H129664   1.692   5.296   0.152
 9907TIP3    H229665   1.795   5.354   0.247
 9908TIP3   OH229666   0.813   5.601   3.392
 9908TIP3    H129667   0.759   5.665   3.437
 9908TIP3    H229668   0.873   5.653   3.339
 9909TIP3   OH229669   7.320   6.205   3.312
 9909TIP3    H129670   7.411   6.187   3.292
 9909TIP3    H229671   7.322   6.250   3.397
 9910TIP3   OH229672   8.183   3.807   4.408
 9910TIP3    H129673   8.268   3.837   4.375
 9910TIP3    H229674   8.175   3.717   4.378
 9911TIP3   OH229675   5.826   4.632   5.877
 9911TIP3    H129676   5.796   4.563   5.818
 9911TIP3    H229677   5.747   4.683   5.897
 9912TIP3   OH229678   2.260   0.981   2.811
 9912TIP3    H129679   2.181   0.937   2.843
 9912TIP3    H229680   2.252   1.071   2.843
 9913TIP3   OH229681   2.849   4.548   5.981
 9913TIP3    H129682   2.896   4.568   6.062
 9913TIP3    H229683   2.757   4.544   6.007
 9914TIP3   OH229684   3.372   6.703   5.018
 9914TIP3    H129685   3.402   6.688   4.929
 9914TIP3    H229686   3.344   6.794   5.019
 9915TIP3   OH229687   5.370   4.757   1.789
 9915TIP3    H129688   5.364   4.797   1.703
 9915TIP3    H229689   5.463   4.756   1.809
 9916TIP3   OH229690   5.843   4.127   6.448
 9916TIP3    H129691   5.903   4.076   6.395
 9916TIP3    H229692   5.874   4.217   6.440
 9917TIP3   OH229693   2.851   5.147   2.518
 9917TIP3    H129694   2.872   5.116   2.606
 9917TIP3    H229695   2.914   5.102   2.462
 9918TIP3   OH229696   3.154   2.813   0.805
 9918TIP3    H129697   3.070   2.855   0.823
 9918TIP3    H229698   3.150   2.730   0.851
 9919TIP3   OH229699   7.107   0.173   5.231
 9919TIP3    H129700   7.157   0.158   5.151
 9919TIP3    H229701   7.028   0.219   5.202
 9920TIP3   OH229702   7.607   7.625   0.404
 9920TIP3    H129703   7.666   7.556   0.373
 9920TIP3    H229704   7.543   7.634   0.334
 9921TIP3   OH229705   7.525   6.286   1.220
 9921TIP3    H129706   7.600   6.236   1.252
 9921TIP3    H229707   7.457   6.220   1.206
 9922TIP3   OH229708   7.606   7.650   1.563
 9922TIP3    H129709   7.686   7.665   1.614
 9922TIP3    H229710   7.614   7.561   1.529
 9923TIP3   OH229711   3.254   6.427   3.503
 9923TIP3    H129712   3.248   6.481   3.582
 9923TIP3    H229713   3.201   6.350   3.521
 9924TIP3   OH229714   7.898   0.016   6.645
 9924TIP3    H129715   7.908   0.028   6.550
 9924TIP3    H229716   7.971   0.065   6.683
 9925TIP3   OH229717   5.755   1.095   1.515
 9925TIP3    H129718   5.765   1.184   1.482
 9925TIP3    H229719   5.749   1.105   1.610
 9926TIP3   OH229720   0.570   3.193   4.610
 9926TIP3    H129721   0.485   3.234   4.630
 9926TIP3    H229722   0.585   3.134   4.683
 9927TIP3   OH229723   2.029   2.632   6.081
 9927TIP3    H129724   2.118   2.661   6.063
 9927TIP3    H229725   1.976   2.672   6.012
 9928TIP3   OH229726   3.444   6.008   1.389
 9928TIP3    H129727   3.441   6.071   1.317
 9928TIP3    H229728   3.536   6.007   1.416
 9929TIP3   OH229729   3.800   2.637   3.524
 9929TIP3    H129730   3.719   2.655   3.477
 9929TIP3    H229731   3.812   2.712   3.581
 9930TIP3   OH229732   6.089   3.149   2.985
 9930TIP3    H129733   6.130   3.139   2.898
 9930TIP3    H229734   6.160   3.180   3.041
 9931TIP3   OH229735   0.961   3.939   2.350
 9931TIP3    H129736   0.912   3.862   2.379
 9931TIP3    H229737   1.021   3.906   2.284
 9932TIP3   OH229738   4.395   0.268   1.222
 9932TIP3    H129739   4.416   0.181   1.255
 9932TIP3    H229740   4.401   0.260   1.127
 9933TIP3   OH229741   0.970   6.083   6.203
 9933TIP3    H129742   0.915   6.144   6.253
 9933TIP3    H229743   1.059   6.098   6.235
 9934TIP3   OH229744   3.379   2.956   2.995
 9934TIP3    H129745   3.432   2.918   2.925
 9934TIP3    H229746   3.326   2.882   3.027
 9935TIP3   OH229747   5.600   1.818   3.319
 9935TIP3    H129748   5.679   1.789   3.364
 9935TIP3    H229749   5.630   1.884   3.257
 9936TIP3   OH229750   4.291   0.717   2.453
 9936TIP3    H129751   4.343   0.791   2.423
 9936TIP3    H229752   4.317   0.703   2.544
 9937TIP3   OH229753   3.484   1.024   5.963
 9937TIP3    H129754   3.470   1.114   5.992
 9937TIP3    H229755   3.415   1.008   5.899
 9938TIP3   OH229756   5.869   2.216   1.292
 9938TIP3    H129757   5.892   2.293   1.239
 9938TIP3    H229758   5.863   2.250   1.381
 9939TIP3   OH229759   4.854   6.538   3.837
 9939TIP3    H129760   4.838   6.633   3.840
 9939TIP3    H229761   4.770   6.499   3.858
 9940TIP3   OH229762   1.201   1.499   0.039
 9940TIP3    H129763   1.133   1.563   0.062
 9940TIP3    H229764   1.234   1.468   0.123
 9941TIP3   OH229765   5.583   6.139   0.423
 9941TIP3    H129766   5.590   6.214   0.483
 9941TIP3    H229767   5.654   6.154   0.360
 9942TIP3   OH229768   7.534   0.922   2.080
 9942TIP3    H129769   7.502   1.012   2.067
 9942TIP3    H229770   7.629   0.929   2.069
 9943TIP3   OH229771   2.463   6.968   2.669
 9943TIP3    H129772   2.529   6.991   2.604
 9943TIP3    H229773   2.512   6.958   2.751
 9944TIP3   OH229774   8.291   2.374   6.602
 9944TIP3    H129775   8.340   2.456   6.606
 9944TIP3    H229776   8.219   2.386   6.665
 9945TIP3   OH229777   5.689   6.834   1.002
 9945TIP3    H129778   5.674   6.742   1.027
 9945TIP3    H229779   5.674   6.883   1.083
 9946TIP3   OH229780   1.975   1.843   3.514
 9946TIP3    H129781   1.897   1.798   3.545
 9946TIP3    H229782   1.998   1.799   3.432
 9947TIP3   OH229783   0.518   4.363   6.377
 9947TIP3    H129784   0.425   4.381   6.365
 9947TIP3    H229785   0.523   4.268   6.387
 9948TIP3   OH229786   1.525   1.428   0.882
 9948TIP3    H129787   1.574   1.405   0.803
 9948TIP3    H229788   1.591   1.436   0.950
 9949TIP3   OH229789   4.403   6.171   5.478
 9949TIP3    H129790   4.403   6.110   5.552
 9949TIP3    H229791   4.312   6.195   5.467
 9950TIP3   OH229792   2.125   0.297   4.194
 9950TIP3    H129793   2.173   0.376   4.171
 9950TIP3    H229794   2.033   0.324   4.193
 9951TIP3   OH229795   5.535   7.693   3.437
 9951TIP3    H129796   5.515   7.615   3.385
 9951TIP3    H229797   5.481   7.762   3.398
 9952TIP3   OH229798   5.993   3.888   6.333
 9952TIP3    H129799   5.990   3.912   6.241
 9952TIP3    H229800   6.017   3.796   6.333
 9953TIP3   OH229801   5.057   4.787   0.754
 9953TIP3    H129802   5.104   4.715   0.796
 9953TIP3    H229803   5.002   4.823   0.823
 9954TIP3   OH229804   5.335   7.786   1.333
 9954TIP3    H129805   5.276   7.847   1.379
 9954TIP3    H229806   5.361   7.723   1.400
 9955TIP3   OH229807   6.727   0.686   6.233
 9955TIP3    H129808   6.790   0.616   6.250
 9955TIP3    H229809   6.746   0.753   6.298
 9956TIP3   OH229810   6.865   4.564   0.727
 9956TIP3    H129811   6.874   4.603   0.814
 9956TIP3    H229812   6.797   4.498   0.737
 9957TIP3   OH229813   1.520   0.505   0.702
 9957TIP3    H129814   1.600   0.473   0.743
 9957TIP3    H229815   1.449   0.463   0.752
 9958TIP3   OH229816   2.773   4.137   5.478
 9958TIP3    H129817   2.825   4.134   5.399
 9958TIP3    H229818   2.682   4.136   5.447
 9959TIP3   OH229819   6.426   6.357   1.824
 9959TIP3    H129820   6.412   6.440   1.777
 9959TIP3    H229821   6.416   6.380   1.916
 9960TIP3   OH229822   8.020   5.548   5.238
 9960TIP3    H129823   7.984   5.468   5.278
 9960TIP3    H229824   8.029   5.609   5.312
 9961TIP3   OH229825   1.376   5.690   3.685
 9961TIP3    H129826   1.451   5.720   3.633
 9961TIP3    H229827   1.344   5.612   3.640
 9962TIP3   OH229828   0.731   5.627   4.965
 9962TIP3    H129829   0.761   5.694   5.026
 9962TIP3    H229830   0.662   5.582   5.011
 9963TIP3   OH229831   6.126   5.027   6.656
 9963TIP3    H129832   6.068   5.067   6.592
 9963TIP3    H229833   6.203   5.001   6.606
 9964TIP3   OH229834   6.739   0.185   2.258
 9964TIP3    H129835   6.648   0.207   2.276
 9964TIP3    H229836   6.764   0.244   2.186
 9965TIP3   OH229837   1.285   0.104   5.993
 9965TIP3    H129838   1.310   0.056   6.072
 9965TIP3    H229839   1.190   0.109   5.998
 9966TIP3   OH229840   2.413   3.815   3.563
 9966TIP3    H129841   2.416   3.733   3.613
 9966TIP3    H229842   2.490   3.811   3.506
 9967TIP3   OH229843   5.763   4.581   5.529
 9967TIP3    H129844   5.788   4.528   5.605
 9967TIP3    H229845   5.732   4.517   5.465
 9968TIP3   OH229846   7.597   7.281   6.248
 9968TIP3    H129847   7.580   7.198   6.204
 9968TIP3    H229848   7.679   7.267   6.297
 9969TIP3   OH229849   1.028   1.795   3.124
 9969TIP3    H129850   0.959   1.780   3.060
 9969TIP3    H229851   1.018   1.887   3.149
 9970TIP3   OH229852   4.163   4.893   2.678
 9970TIP3    H129853   4.212   4.973   2.693
 9970TIP3    H229854   4.219   4.823   2.711
 9971TIP3   OH229855   1.314   3.438   0.785
 9971TIP3    H129856   1.358   3.398   0.860
 9971TIP3    H229857   1.363   3.520   0.770
 9972TIP3   OH229858   1.567   6.657   0.286
 9972TIP3    H129859   1.511   6.580   0.293
 9972TIP3    H229860   1.570   6.693   0.375
 9973TIP3   OH229861   4.973   6.498   3.591
 9973TIP3    H129862   5.015   6.584   3.590
 9973TIP3    H229863   4.921   6.498   3.672
 9974TIP3   OH229864   8.252   3.205   3.308
 9974TIP3    H129865   8.233   3.264   3.235
 9974TIP3    H229866   8.196   3.129   3.291
 9975TIP3   OH229867   0.770   5.367   1.527
 9975TIP3    H129868   0.684   5.360   1.485
 9975TIP3    H229869   0.824   5.413   1.462
 9976TIP3   OH229870   6.189   7.791   1.305
 9976TIP3    H129871   6.137   7.745   1.240
 9976TIP3    H229872   6.262   7.828   1.255
 9977TIP3   OH229873   5.707   7.052   6.694
 9977TIP3    H129874   5.641   6.999   6.738
 9977TIP3    H229875   5.702   7.137   6.737
 9978TIP3   OH229876   3.048   6.207   0.692
 9978TIP3    H129877   2.974   6.162   0.733
 9978TIP3    H229878   3.038   6.189   0.598
 9979TIP3   OH229879   8.226   7.356   2.967
 9979TIP3    H129880   8.139   7.353   2.926
 9979TIP3    H229881   8.279   7.295   2.916
 9980TIP3   OH229882   3.318   7.133   6.355
 9980TIP3    H129883   3.375   7.173   6.421
 9980TIP3    H229884   3.258   7.203   6.330
 9981TIP3   OH229885   6.504   0.609   6.555
 9981TIP3    H129886   6.450   0.640   6.482
 9981TIP3    H229887   6.591   0.598   6.518
 9982TIP3   OH229888   0.687   7.442   6.698
 9982TIP3    H129889   0.644   7.374   6.750
 9982TIP3    H229890   0.767   7.400   6.665
 9983TIP3   OH229891   6.063   7.608   5.726
 9983TIP3    H129892   5.972   7.588   5.703
 9983TIP3    H229893   6.071   7.580   5.818
 9984TIP3   OH229894   1.479   5.794   4.478
 9984TIP3    H129895   1.399   5.778   4.529
 9984TIP3    H229896   1.543   5.822   4.543
 9985TIP3   OH229897   1.792   6.740   6.767
 9985TIP3    H129898   1.759   6.653   6.743
 9985TIP3    H229899   1.782   6.744   6.862
 9986TIP3   OH229900   2.413   5.098   3.038
 9986TIP3    H129901   2.407   5.090   3.134
 9986TIP3    H229902   2.327   5.073   3.007
 9987TIP3   OH229903   7.426   1.055   0.843
 9987TIP3    H129904   7.520   1.044   0.826
 9987TIP3    H229905   7.399   0.971   0.880
 9988TIP3   OH229906   1.730   1.236   5.517
 9988TIP3    H129907   1.710   1.272   5.603
 9988TIP3    H229908   1.646   1.228   5.473
 9989TIP3   OH229909   0.348   3.845   0.525
 9989TIP3    H129910   0.293   3.923   0.521
 9989TIP3    H229911   0.310   3.791   0.594
 9990TIP3   OH229912   1.595   3.007   3.529
 9990TIP3    H129913   1.605   3.091   3.573
 9990TIP3    H229914   1.684   2.973   3.521
 9991TIP3   OH229915   4.252   0.996   2.813
 9991TIP3    H129916   4.159   1.007   2.833
 9991TIP3    H229917   4.297   1.052   2.878
 9992TIP3   OH229918   2.144   5.119   1.986
 9992TIP3    H129919   2.139   5.142   2.079
 9992TIP3    H229920   2.226   5.158   1.957
 9993TIP3   OH229921   3.703   0.507   5.164
 9993TIP3    H129922   3.756   0.577   5.124
 9993TIP3    H229923   3.733   0.427   5.122
 9994TIP3   OH229924   5.951   7.776   2.688
 9994TIP3    H129925   5.859   7.781   2.663
 9994TIP3    H229926   5.956   7.698   2.744
 9995TIP3   OH229927   2.584   6.651   5.451
 9995TIP3    H129928   2.590   6.658   5.355
 9995TIP3    H229929   2.490   6.655   5.469
 9996TIP3   OH229930   1.802   2.955   1.136
 9996TIP3    H129931   1.896   2.947   1.155
 9996TIP3    H229932   1.789   2.905   1.056
 9997TIP3   OH229933   7.179   1.168   4.451
 9997TIP3    H129934   7.194   1.262   4.452
 9997TIP3    H229935   7.260   1.131   4.415
 9998TIP3   OH229936   4.151   0.260   4.911
 9998TIP3    H129937   4.204   0.337   4.930
 9998TIP3    H229938   4.112   0.277   4.826
 9999TIP3   OH229939   6.273   6.643   4.449
 9999TIP3    H129940   6.311   6.589   4.519
 9999TIP3    H229941   6.179   6.625   4.454
10000TIP3   OH229942   1.017   7.467   3.613
10000TIP3    H129943   1.102   7.461   3.569
10000TIP3    H229944   1.037   7.496   3.702
10001TIP3   OH229945   6.470   2.101   1.719
10001TIP3    H129946   6.384   2.120   1.757
10001TIP3    H229947   6.522   2.068   1.792
10002TIP3   OH229948   1.795   2.179   6.146
10002TIP3    H129949   1.713   2.223   6.124
10002TIP3    H229950   1.860   2.220   6.089
10003TIP3   OH229951   8.068   3.253   4.244
10003TIP3    H129952   8.162   3.238   4.228
10003TIP3    H229953   8.032   3.271   4.157
10004TIP3   OH229954   5.995   0.518   5.315
10004TIP3    H129955   6.016   0.553   5.401
10004TIP3    H229956   5.900   0.510   5.314
10005TIP3   OH229957   4.846   4.332   2.711
10005TIP3    H129958   4.782   4.307   2.645
10005TIP3    H229959   4.806   4.306   2.794
10006TIP3   OH229960   1.425   7.405   1.728
10006TIP3    H129961   1.461   7.423   1.814
10006TIP3    H229962   1.368   7.479   1.709
10007TIP3   OH229963   7.222   0.710   6.175
10007TIP3    H129964   7.313   0.721   6.202
10007TIP3    H229965   7.221   0.733   6.082
10008TIP3   OH229966   6.221   6.929   4.777
10008TIP3    H129967   6.276   6.851   4.777
10008TIP3    H229968   6.150   6.908   4.717
10009TIP3   OH229969   3.235   5.846   6.331
10009TIP3    H129970   3.287   5.926   6.324
10009TIP3    H229971   3.295   5.782   6.369
10010TIP3   OH229972   1.995   2.620   2.107
10010TIP3    H129973   1.914   2.660   2.075
10010TIP3    H229974   1.967   2.564   2.179
10011TIP3   OH229975   5.749   1.487   3.940
10011TIP3    H129976   5.762   1.392   3.937
10011TIP3    H229977   5.808   1.521   3.873
10012TIP3   OH229978   4.996   1.051   3.521
10012TIP3    H129979   5.036   1.128   3.480
10012TIP3    H229980   4.902   1.065   3.513
10013TIP3   OH229981   4.604   5.086   2.285
10013TIP3    H129982   4.699   5.077   2.289
10013TIP3    H229983   4.587   5.122   2.198
10014TIP3   OH229984   6.265   4.059   5.344
10014TIP3    H129985   6.199   4.031   5.407
10014TIP3    H229986   6.293   4.145   5.376
10015TIP3   OH229987   6.927   6.363   4.521
10015TIP3    H129988   6.976   6.439   4.555
10015TIP3    H229989   6.926   6.301   4.593
10016TIP3   OH229990   7.624   2.164   1.178
10016TIP3    H129991   7.629   2.260   1.186
10016TIP3    H229992   7.572   2.150   1.099
10017TIP3   OH229993   6.329   4.684   2.146
10017TIP3    H129994   6.274   4.613   2.113
10017TIP3    H229995   6.350   4.736   2.069
10018TIP3   OH229996   4.048   0.609   1.659
10018TIP3    H129997   4.067   0.577   1.571
10018TIP3    H229998   4.114   0.677   1.674
10019TIP3   OH229999   2.505   6.814   1.681
10019TIP3    H130000   2.499   6.909   1.689
10019TIP3    H230001   2.434   6.782   1.737
10020TIP3   OH230002   2.235   7.720   0.325
10020TIP3    H130003   2.240   7.669   0.245
10020TIP3    H230004   2.212   7.808   0.297
10021TIP3   OH230005   2.930   7.169   6.013
10021TIP3    H130006   2.934   7.134   6.102
10021TIP3    H230007   2.837   7.163   5.989
10022TIP3   OH230008   0.246   1.498   1.875
10022TIP3    H130009   0.312   1.554   1.835
10022TIP3    H230010   0.291   1.415   1.893
10023TIP3   OH230011   0.126   1.933   0.962
10023TIP3    H130012   0.060   1.886   1.013
10023TIP3    H230013   0.117   2.024   0.990
10024TIP3   OH230014   3.259   7.595   6.476
10024TIP3    H130015   3.217   7.641   6.548
10024TIP3    H230016   3.197   7.602   6.403
10025TIP3   OH230017   2.698   3.241   1.205
10025TIP3    H130018   2.760   3.187   1.156
10025TIP3    H230019   2.629   3.180   1.232
10026TIP3   OH230020   2.394   0.179   3.087
10026TIP3    H130021   2.405   0.085   3.099
10026TIP3    H230022   2.392   0.190   2.992
10027TIP3   OH230023   1.493   2.071   4.910
10027TIP3    H130024   1.482   1.984   4.947
10027TIP3    H230025   1.577   2.067   4.864
10028TIP3   OH230026   7.902   7.411   4.516
10028TIP3    H130027   7.831   7.386   4.576
10028TIP3    H230028   7.959   7.334   4.513
10029TIP3   OH230029   5.341   2.096   3.102
10029TIP3    H130030   5.341   2.000   3.105
10029TIP3    H230031   5.416   2.118   3.046
10030TIP3   OH230032   2.332   4.281   6.362
10030TIP3    H130033   2.423   4.307   6.370
10030TIP3    H230034   2.304   4.314   6.276
10031TIP3   OH230035   8.174   2.704   3.332
10031TIP3    H130036   8.264   2.674   3.329
10031TIP3    H230037   8.153   2.724   3.240
10032TIP3   OH230038   0.771   1.871   3.394
10032TIP3    H130039   0.686   1.912   3.408
10032TIP3    H230040   0.779   1.865   3.298
10033TIP3   OH230041   5.416   1.622   0.108
10033TIP3    H130042   5.347   1.585   0.163
10033TIP3    H230043   5.470   1.547   0.084
10034TIP3   OH230044   6.511   1.213   4.030
10034TIP3    H130045   6.426   1.208   4.073
10034TIP3    H230046   6.572   1.239   4.099
10035TIP3   OH230047   5.523   0.167   3.006
10035TIP3    H130048   5.468   0.126   3.072
10035TIP3    H230049   5.462   0.215   2.950
10036TIP3   OH230050   6.661   1.507   1.417
10036TIP3    H130051   6.573   1.480   1.444
10036TIP3    H230052   6.671   1.594   1.456
10037TIP3   OH230053   4.109   3.061   5.977
10037TIP3    H130054   4.032   3.004   5.976
10037TIP3    H230055   4.144   3.054   5.888
10038TIP3   OH230056   0.780   4.374   2.812
10038TIP3    H130057   0.813   4.361   2.900
10038TIP3    H230058   0.780   4.469   2.800
10039TIP3   OH230059   6.713   1.691   1.610
10039TIP3    H130060   6.674   1.656   1.690
10039TIP3    H230061   6.659   1.767   1.588
10040TIP3   OH230062   4.544   2.779   3.086
10040TIP3    H130063   4.531   2.758   3.178
10040TIP3    H230064   4.614   2.720   3.058
10041TIP3   OH230065   1.748   2.282   0.771
10041TIP3    H130066   1.794   2.365   0.759
10041TIP3    H230067   1.807   2.216   0.733
10042TIP3   OH230068   4.390   1.793   6.061
10042TIP3    H130069   4.399   1.720   6.000
10042TIP3    H230070   4.351   1.863   6.010
10043TIP3   OH230071   4.981   3.579   0.430
10043TIP3    H130072   5.038   3.524   0.483
10043TIP3    H230073   4.925   3.518   0.382
10044TIP3   OH230074   4.256   3.390   2.740
10044TIP3    H130075   4.295   3.473   2.768
10044TIP3    H230076   4.190   3.372   2.807
10045TIP3   OH230077   3.877   2.738   4.860
10045TIP3    H130078   3.908   2.802   4.795
10045TIP3    H230079   3.796   2.703   4.822
10046TIP3   OH230080   0.734   3.674   0.997
10046TIP3    H130081   0.696   3.632   1.075
10046TIP3    H230082   0.740   3.767   1.020
10047TIP3   OH230083   7.200   0.887   2.839
10047TIP3    H130084   7.271   0.950   2.823
10047TIP3    H230085   7.209   0.864   2.932
10048TIP3   OH230086   2.952   5.507   1.090
10048TIP3    H130087   2.912   5.587   1.055
10048TIP3    H230088   3.032   5.496   1.039
10049TIP3   OH230089   4.701   1.432   2.164
10049TIP3    H130090   4.757   1.431   2.086
10049TIP3    H230091   4.752   1.479   2.230
10050TIP3   OH230092   4.182   0.198   5.474
10050TIP3    H130093   4.098   0.219   5.433
10050TIP3    H230094   4.240   0.174   5.401
10051TIP3   OH230095   1.139   0.281   3.961
10051TIP3    H130096   1.049   0.251   3.970
10051TIP3    H230097   1.159   0.270   3.869
10052TIP3   OH230098   8.265   0.482   3.501
10052TIP3    H130099   8.349   0.451   3.535
10052TIP3    H230100   8.247   0.426   3.425
10053TIP3   OH230101   5.048   1.929   1.059
10053TIP3    H130102   4.976   1.973   1.014
10053TIP3    H230103   5.059   1.978   1.140
10054TIP3   OH230104   6.665   1.591   1.140
10054TIP3    H130105   6.684   1.565   1.230
10054TIP3    H230106   6.708   1.676   1.130
10055TIP3   OH230107   3.901   3.782   4.152
10055TIP3    H130108   3.954   3.841   4.099
10055TIP3    H230109   3.811   3.807   4.133
10056TIP3   OH230110   0.187   6.465   6.020
10056TIP3    H130111   0.118   6.451   5.956
10056TIP3    H230112   0.231   6.545   5.991
10057TIP3   OH230113   2.596   6.718   3.051
10057TIP3    H130114   2.664   6.703   3.117
10057TIP3    H230115   2.592   6.813   3.042
10058TIP3   OH230116   2.560   0.341   1.573
10058TIP3    H130117   2.648   0.320   1.543
10058TIP3    H230118   2.513   0.366   1.493
10059TIP3   OH230119   2.030   1.866   1.682
10059TIP3    H130120   2.094   1.830   1.744
10059TIP3    H230121   1.945   1.851   1.724
10060TIP3   OH230122   5.812   5.802   5.371
10060TIP3    H130123   5.817   5.776   5.463
10060TIP3    H230124   5.799   5.720   5.323
10061TIP3   OH230125   1.933   6.350   6.425
10061TIP3    H130126   1.868   6.420   6.416
10061TIP3    H230127   1.951   6.346   6.519
10062TIP3   OH230128   2.955   5.932   4.179
10062TIP3    H130129   2.870   5.973   4.193
10062TIP3    H230130   2.966   5.872   4.253
10063TIP3   OH230131   3.069   0.349   3.911
10063TIP3    H130132   3.063   0.319   4.002
10063TIP3    H230133   2.993   0.310   3.868
10064TIP3   OH230134   4.476   1.240   5.373
10064TIP3    H130135   4.441   1.314   5.323
10064TIP3    H230136   4.446   1.256   5.463
10065TIP3   OH230137   0.475   6.841   3.292
10065TIP3    H130138   0.540   6.845   3.363
10065TIP3    H230139   0.393   6.868   3.334
10066TIP3   OH230140   1.264   5.411   4.246
10066TIP3    H130141   1.225   5.333   4.207
10066TIP3    H230142   1.342   5.378   4.292
10067TIP3   OH230143   8.051   4.048   5.309
10067TIP3    H130144   8.079   4.090   5.390
10067TIP3    H230145   7.975   4.099   5.281
10068TIP3   OH230146   3.670   5.952   6.337
10068TIP3    H130147   3.664   5.881   6.400
10068TIP3    H230148   3.652   5.911   6.252
10069TIP3   OH230149   7.724   5.618   3.556
10069TIP3    H130150   7.681   5.562   3.621
10069TIP3    H230151   7.749   5.697   3.605
10070TIP3   OH230152   0.074   1.521   5.966
10070TIP3    H130153   0.010   1.451   5.960
10070TIP3    H230154   0.055   1.578   5.892
10071TIP3   OH230155   5.641   4.101   4.223
10071TIP3    H130156   5.577   4.092   4.152
10071TIP3    H230157   5.717   4.050   4.194
10072TIP3   OH230158   0.834   6.818   5.354
10072TIP3    H130159   0.748   6.786   5.328
10072TIP3    H230160   0.827   6.833   5.448
10073TIP3   OH230161   2.123   4.493   4.570
10073TIP3    H130162   2.195   4.556   4.563
10073TIP3    H230163   2.059   4.522   4.505
10074TIP3   OH230164   2.041   3.947   3.692
10074TIP3    H130165   1.972   3.902   3.643
10074TIP3    H230166   1.995   4.008   3.749
10075TIP3   OH230167   4.371   7.680   0.257
10075TIP3    H130168   4.445   7.664   0.197
10075TIP3    H230169   4.412   7.717   0.335
10076TIP3   OH230170   1.329   0.744   3.991
10076TIP3    H130171   1.284   0.660   3.990
10076TIP3    H230172   1.263   0.807   3.961
10077TIP3   OH230173   5.617   0.728   6.091
10077TIP3    H130174   5.545   0.672   6.064
10077TIP3    H230175   5.626   0.711   6.185
10078TIP3   OH230176   0.122   4.982   1.138
10078TIP3    H130177   0.041   5.031   1.155
10078TIP3    H230178   0.183   5.012   1.205
10079TIP3   OH230179   4.451   3.567   3.762
10079TIP3    H130180   4.436   3.529   3.676
10079TIP3    H230181   4.533   3.528   3.792
10080TIP3   OH230182   1.103   4.539   6.050
10080TIP3    H130183   1.147   4.604   6.106
10080TIP3    H230184   1.040   4.497   6.108
10081TIP3   OH230185   5.155   5.870   3.295
10081TIP3    H130186   5.149   5.784   3.254
10081TIP3    H230187   5.192   5.853   3.381
10082TIP3   OH230188   3.177   7.690   1.472
10082TIP3    H130189   3.272   7.697   1.485
10082TIP3    H230190   3.155   7.766   1.419
10083TIP3   OH230191   3.550   4.255   4.595
10083TIP3    H130192   3.481   4.190   4.580
10083TIP3    H230193   3.507   4.339   4.582
10084TIP3   OH230194   1.150   0.655   2.651
10084TIP3    H130195   1.114   0.705   2.725
10084TIP3    H230196   1.114   0.567   2.661
10085TIP3   OH230197   3.859   5.902   1.146
10085TIP3    H130198   3.834   5.827   1.200
10085TIP3    H230199   3.820   5.885   1.060
10086TIP3   OH230200   7.086   6.944   1.619
10086TIP3    H130201   7.082   6.910   1.530
10086TIP3    H230202   7.103   6.868   1.674
10087TIP3   OH230203   7.830   5.502   0.745
10087TIP3    H130204   7.885   5.572   0.782
10087TIP3    H230205   7.790   5.541   0.668
10088TIP3   OH230206   2.985   0.021   6.024
10088TIP3    H130207   3.054   0.085   6.044
10088TIP3    H230208   3.023  -0.036   5.958
10089TIP3   OH230209   2.023   0.913   1.345
10089TIP3    H130210   1.928   0.912   1.349
10089TIP3    H230211   2.050   0.964   1.422
10090TIP3   OH230212   5.941   7.809   4.927
10090TIP3    H130213   6.034   7.816   4.951
10090TIP3    H230214   5.897   7.787   5.009
10091TIP3   OH230215   2.012   4.180   1.676
10091TIP3    H130216   2.025   4.246   1.744
10091TIP3    H230217   2.041   4.223   1.596
10092TIP3   OH230218   7.708   5.502   2.553
10092TIP3    H130219   7.659   5.420   2.558
10092TIP3    H230220   7.651   5.561   2.503
10093TIP3   OH230221   5.168   4.217   0.650
10093TIP3    H130222   5.153   4.137   0.601
10093TIP3    H230223   5.096   4.275   0.625
10094TIP3   OH230224   4.872   5.653   4.160
10094TIP3    H130225   4.799   5.715   4.170
10094TIP3    H230226   4.946   5.708   4.136
10095TIP3   OH230227   4.514   6.086   1.301
10095TIP3    H130228   4.492   6.136   1.380
10095TIP3    H230229   4.609   6.091   1.295
10096TIP3   OH230230   3.558   2.654   3.418
10096TIP3    H130231   3.472   2.618   3.440
10096TIP3    H230232   3.546   2.749   3.421
10097TIP3   OH230233   4.586   7.519   2.662
10097TIP3    H130234   4.668   7.474   2.682
10097TIP3    H230235   4.614   7.606   2.632
10098TIP3   OH230236   2.876   2.196   0.660
10098TIP3    H130237   2.917   2.282   0.648
10098TIP3    H230238   2.896   2.172   0.750
10099TIP3   OH230239   3.687   5.183   1.159
10099TIP3    H130240   3.698   5.128   1.237
10099TIP3    H230241   3.634   5.129   1.100
10100TIP3   OH230242   5.378   2.030   5.321
10100TIP3    H130243   5.382   2.126   5.320
10100TIP3    H230244   5.322   2.007   5.247
10101TIP3   OH230245   3.874   7.693   0.567
10101TIP3    H130246   3.970   7.698   0.560
10101TIP3    H230247   3.859   7.631   0.638
10102TIP3   OH230248   6.931   3.547   0.978
10102TIP3    H130249   6.909   3.614   0.913
10102TIP3    H230250   6.855   3.488   0.978
10103TIP3   OH230251   0.837   6.099   0.253
10103TIP3    H130252   0.862   6.022   0.202
10103TIP3    H230253   0.761   6.135   0.207
10104TIP3   OH230254   2.128   7.195   6.185
10104TIP3    H130255   2.200   7.253   6.210
10104TIP3    H230256   2.105   7.222   6.097
10105TIP3   OH230257   0.364   5.747   5.453
10105TIP3    H130258   0.288   5.689   5.445
10105TIP3    H230259   0.403   5.723   5.537
10106TIP3   OH230260   2.923   2.827   4.403
10106TIP3    H130261   2.898   2.914   4.432
10106TIP3    H230262   2.926   2.774   4.483
10107TIP3   OH230263   5.408   6.874   0.227
10107TIP3    H130264   5.430   6.795   0.276
10107TIP3    H230265   5.460   6.943   0.268
10108TIP3   OH230266   6.746   5.920   3.453
10108TIP3    H130267   6.819   5.979   3.468
10108TIP3    H230268   6.668   5.974   3.466
10109TIP3   OH230269   2.417   5.587   6.696
10109TIP3    H130270   2.325   5.563   6.707
10109TIP3    H230271   2.440   5.556   6.608
10110TIP3   OH230272   7.749   3.103   6.146
10110TIP3    H130273   7.800   3.039   6.195
10110TIP3    H230274   7.805   3.128   6.073
10111TIP3   OH230275   0.111   0.984   2.620
10111TIP3    H130276   0.160   1.040   2.680
10111TIP3    H230277   0.030   0.964   2.666
10112TIP3   OH230278   5.905   0.745   5.830
10112TIP3    H130279   5.860   0.765   5.912
10112TIP3    H230280   5.868   0.807   5.767
10113TIP3   OH230281   6.188   4.433   0.384
10113TIP3    H130282   6.236   4.515   0.384
10113TIP3    H230283   6.249   4.369   0.348
10114TIP3   OH230284   1.130   4.603   1.065
10114TIP3    H130285   1.069   4.676   1.056
10114TIP3    H230286   1.180   4.605   0.983
10115TIP3   OH230287   5.340   3.348   6.674
10115TIP3    H130288   5.333   3.306   6.588
10115TIP3    H230289   5.347   3.442   6.653
10116TIP3   OH230290   4.348   3.043   0.289
10116TIP3    H130291   4.340   2.985   0.214
10116TIP3    H230292   4.257   3.060   0.315
10117TIP3   OH230293   2.928   2.461   2.509
10117TIP3    H130294   2.966   2.429   2.427
10117TIP3    H230295   2.900   2.550   2.488
10118TIP3   OH230296   5.106   7.023   4.619
10118TIP3    H130297   5.174   6.956   4.612
10118TIP3    H230298   5.120   7.079   4.543
10119TIP3   OH230299   1.124   1.598   3.624
10119TIP3    H130300   1.177   1.669   3.589
10119TIP3    H230301   1.034   1.622   3.603
10120TIP3   OH230302   2.017   7.016   3.349
10120TIP3    H130303   1.937   7.065   3.330
10120TIP3    H230304   1.994   6.959   3.422
10121TIP3   OH230305   7.128   5.410   5.915
10121TIP3    H130306   7.133   5.315   5.911
10121TIP3    H230307   7.198   5.435   5.975
10122TIP3   OH230308   0.635   3.227   2.324
10122TIP3    H130309   0.606   3.143   2.288
10122TIP3    H230310   0.730   3.225   2.315
10123TIP3   OH230311   4.029   6.208   3.432
10123TIP3    H130312   4.059   6.270   3.366
10123TIP3    H230313   4.108   6.189   3.483
10124TIP3   OH230314   2.592   2.676   5.090
10124TIP3    H130315   2.551   2.600   5.047
10124TIP3    H230316   2.600   2.741   5.020
10125TIP3   OH230317   0.256   1.521   6.176
10125TIP3    H130318   0.337   1.505   6.128
10125TIP3    H230319   0.190   1.533   6.108
10126TIP3   OH230320   3.744   5.762   1.366
10126TIP3    H130321   3.669   5.734   1.418
10126TIP3    H230322   3.818   5.760   1.427
10127TIP3   OH230323   0.860   7.268   0.887
10127TIP3    H130324   0.947   7.242   0.915
10127TIP3    H230325   0.862   7.364   0.887
10128TIP3   OH230326   5.274   7.621   2.547
10128TIP3    H130327   5.248   7.708   2.517
10128TIP3    H230328   5.251   7.562   2.474
10129TIP3   OH230329   4.964   1.064   6.285
10129TIP3    H130330   5.030   1.040   6.220
10129TIP3    H230331   5.004   1.042   6.369
10130TIP3   OH230332   8.016   2.810   2.372
10130TIP3    H130333   8.049   2.812   2.282
10130TIP3    H230334   7.922   2.828   2.363
10131TIP3   OH230335   6.719   1.880   4.324
10131TIP3    H130336   6.798   1.889   4.377
10131TIP3    H230337   6.725   1.792   4.287
10132TIP3   OH230338   1.204   2.695   3.568
10132TIP3    H130339   1.280   2.732   3.612
10132TIP3    H230340   1.225   2.698   3.475
10133TIP3   OH230341   7.898   0.553   5.371
10133TIP3    H130342   7.813   0.522   5.341
10133TIP3    H230343   7.952   0.474   5.377
10134TIP3   OH230344   1.219   4.524   4.910
10134TIP3    H130345   1.235   4.430   4.915
10134TIP3    H230346   1.150   4.541   4.974
10135TIP3   OH230347   0.451   1.403   2.316
10135TIP3    H130348   0.368   1.380   2.273
10135TIP3    H230349   0.440   1.494   2.341
10136TIP3   OH230350   4.319   6.199   0.355
10136TIP3    H130351   4.236   6.186   0.308
10136TIP3    H230352   4.385   6.157   0.299
10137TIP3   OH230353   6.862   7.778   4.454
10137TIP3    H130354   6.837   7.750   4.542
10137TIP3    H230355   6.799   7.734   4.397
10138TIP3   OH230356   1.721   4.698   4.036
10138TIP3    H130357   1.727   4.792   4.051
10138TIP3    H230358   1.627   4.679   4.040
10139TIP3   OH230359   4.303   0.429   2.763
10139TIP3    H130360   4.324   0.520   2.786
10139TIP3    H230361   4.358   0.410   2.687
10140TIP3   OH230362   7.809   0.621   6.653
10140TIP3    H130363   7.775   0.710   6.652
10140TIP3    H230364   7.904   0.631   6.657
10141TIP3   OH230365   8.155   0.401   4.386
10141TIP3    H130366   8.166   0.377   4.294
10141TIP3    H230367   8.164   0.318   4.433
10142TIP3   OH230368   0.717   5.153   5.432
10142TIP3    H130369   0.638   5.166   5.485
10142TIP3    H230370   0.693   5.083   5.371
10143TIP3   OH230371   6.195   7.054   2.579
10143TIP3    H130372   6.255   6.980   2.578
10143TIP3    H230373   6.110   7.017   2.604
10144TIP3   OH230374   5.001   3.138   4.586
10144TIP3    H130375   4.945   3.102   4.655
10144TIP3    H230376   4.975   3.230   4.580
10145TIP3   OH230377   6.397   4.811   1.863
10145TIP3    H130378   6.392   4.907   1.863
10145TIP3    H230379   6.475   4.791   1.915
10146TIP3   OH230380   5.146   3.480   6.109
10146TIP3    H130381   5.117   3.392   6.132
10146TIP3    H230382   5.070   3.536   6.123
10147TIP3   OH230383   6.750   6.462   5.181
10147TIP3    H130384   6.711   6.382   5.145
10147TIP3    H230385   6.743   6.526   5.110
10148TIP3   OH230386   7.156   2.502   2.116
10148TIP3    H130387   7.206   2.550   2.182
10148TIP3    H230388   7.072   2.548   2.111
10149TIP3   OH230389   2.651   7.758   1.932
10149TIP3    H130390   2.729   7.711   1.962
10149TIP3    H230391   2.641   7.829   1.994
10150TIP3   OH230392   3.526   2.860   0.403
10150TIP3    H130393   3.444   2.868   0.452
10150TIP3    H230394   3.554   2.770   0.417
10151TIP3   OH230395   7.486   5.828   3.645
10151TIP3    H130396   7.471   5.770   3.571
10151TIP3    H230397   7.526   5.772   3.712
10152TIP3   OH230398   4.662   4.685   1.239
10152TIP3    H130399   4.621   4.732   1.311
10152TIP3    H230400   4.589   4.661   1.182
10153TIP3   OH230401   4.618   2.578   5.452
10153TIP3    H130402   4.589   2.497   5.410
10153TIP3    H230403   4.562   2.586   5.529
10154TIP3   OH230404   3.585   0.417   4.351
10154TIP3    H130405   3.534   0.436   4.272
10154TIP3    H230406   3.635   0.497   4.367
10155TIP3   OH230407   4.806   3.031   6.533
10155TIP3    H130408   4.836   2.943   6.508
10155TIP3    H230409   4.815   3.032   6.629
10156TIP3   OH230410   7.769   7.473   3.895
10156TIP3    H130411   7.830   7.465   3.968
10156TIP3    H230412   7.807   7.419   3.826
10157TIP3   OH230413   2.978   0.571   1.977
10157TIP3    H130414   3.036   0.644   1.956
10157TIP3    H230415   2.945   0.590   2.065
10158TIP3   OH230416   3.860   2.069   3.226
10158TIP3    H130417   3.820   2.033   3.146
10158TIP3    H230418   3.893   1.992   3.273
10159TIP3   OH230419   2.840   6.998   2.082
10159TIP3    H130420   2.906   6.990   2.013
10159TIP3    H230421   2.762   7.031   2.037
10160TIP3   OH230422   7.004   0.416   5.500
10160TIP3    H130423   7.067   0.474   5.457
10160TIP3    H230424   7.057   0.350   5.545
10161TIP3   OH230425   4.849   5.030   2.952
10161TIP3    H130426   4.867   5.091   3.025
10161TIP3    H230427   4.935   5.011   2.915
10162TIP3   OH230428   6.394   4.971   2.314
10162TIP3    H130429   6.308   4.934   2.335
10162TIP3    H230430   6.410   5.032   2.385
10163TIP3   OH230431   5.754   7.606   1.945
10163TIP3    H130432   5.808   7.556   2.007
10163TIP3    H230433   5.673   7.556   1.940
10164TIP3   OH230434   4.910   7.541   1.342
10164TIP3    H130435   4.816   7.559   1.340
10164TIP3    H230436   4.942   7.589   1.419
10165TIP3   OH230437   3.814   7.383   2.263
10165TIP3    H130438   3.762   7.339   2.331
10165TIP3    H230439   3.760   7.378   2.184
10166TIP3   OH230440   7.659   1.731   2.648
10166TIP3    H130441   7.565   1.728   2.666
10166TIP3    H230442   7.665   1.764   2.559
10167TIP3   OH230443   4.526   5.011   6.085
10167TIP3    H130444   4.436   4.997   6.116
10167TIP3    H230445   4.552   5.093   6.126
10168TIP3   OH230446   4.452   5.779   0.832
10168TIP3    H130447   4.495   5.804   0.914
10168TIP3    H230448   4.405   5.857   0.805
10169TIP3   OH230449   4.432   3.775   4.762
10169TIP3    H130450   4.374   3.847   4.738
10169TIP3    H230451   4.519   3.804   4.735
10170TIP3   OH230452   2.540   4.994   2.658
10170TIP3    H130453   2.523   4.929   2.726
10170TIP3    H230454   2.609   5.050   2.695
10171TIP3   OH230455   3.256   1.532   2.727
10171TIP3    H130456   3.225   1.619   2.753
10171TIP3    H230457   3.309   1.502   2.800
10172TIP3   OH230458   8.098   6.332   4.963
10172TIP3    H130459   8.187   6.359   4.985
10172TIP3    H230460   8.083   6.369   4.876
10173TIP3   OH230461   3.297   6.030   1.988
10173TIP3    H130462   3.347   5.957   1.953
10173TIP3    H230463   3.283   6.008   2.081
10174TIP3   OH230464   3.430   6.210   1.732
10174TIP3    H130465   3.386   6.291   1.706
10174TIP3    H230466   3.362   6.143   1.723
10175TIP3   OH230467   2.463   0.453   1.343
10175TIP3    H130468   2.380   0.495   1.318
10175TIP3    H230469   2.531   0.508   1.304
10176TIP3   OH230470   2.458   3.262   5.523
10176TIP3    H130471   2.497   3.342   5.487
10176TIP3    H230472   2.374   3.291   5.558
10177TIP3   OH230473   1.432   7.672   4.090
10177TIP3    H130474   1.519   7.676   4.049
10177TIP3    H230475   1.396   7.759   4.077
10178TIP3   OH230476   7.558   6.142   0.586
10178TIP3    H130477   7.620   6.115   0.518
10178TIP3    H230478   7.592   6.226   0.617
10179TIP3   OH230479   7.282   4.790   1.633
10179TIP3    H130480   7.270   4.847   1.709
10179TIP3    H230481   7.355   4.830   1.585
10180TIP3   OH230482   6.280   7.539   2.784
10180TIP3    H130483   6.336   7.518   2.859
10180TIP3    H230484   6.258   7.454   2.746
10181TIP3   OH230485   0.736   0.159   1.522
10181TIP3    H130486   0.710   0.087   1.465
10181TIP3    H230487   0.788   0.217   1.466
10182TIP3   OH230488   5.056   5.242   0.950
10182TIP3    H130489   5.112   5.318   0.936
10182TIP3    H230490   5.010   5.260   1.032
10183TIP3   OH230491   7.335   2.075   2.817
10183TIP3    H130492   7.341   2.169   2.801
10183TIP3    H230493   7.417   2.053   2.861
10184TIP3   OH230494   2.872   1.508   3.053
10184TIP3    H130495   2.952   1.507   3.000
10184TIP3    H230496   2.811   1.452   3.005
10185TIP3   OH230497   3.119   1.117   3.828
10185TIP3    H130498   3.138   1.039   3.879
10185TIP3    H230499   3.146   1.095   3.739
10186TIP3   OH230500   6.492   4.468   1.061
10186TIP3    H130501   6.471   4.419   0.982
10186TIP3    H230502   6.509   4.402   1.127
10187TIP3   OH230503   2.327   6.943   4.189
10187TIP3    H130504   2.333   6.853   4.220
10187TIP3    H230505   2.304   6.994   4.267
10188TIP3   OH230506   2.241   5.807   0.018
10188TIP3    H130507   2.166   5.822  -0.039
10188TIP3    H230508   2.318   5.819  -0.038
10189TIP3   OH230509   1.263   2.958   3.002
10189TIP3    H130510   1.295   3.025   2.942
10189TIP3    H230511   1.342   2.928   3.048
10190TIP3   OH230512   0.740   3.811   4.722
10190TIP3    H130513   0.722   3.720   4.699
10190TIP3    H230514   0.654   3.852   4.731
10191TIP3   OH230515   0.074   3.826   0.134
10191TIP3    H130516   0.067   3.919   0.115
10191TIP3    H230517   0.157   3.817   0.180
10192TIP3   OH230518   1.677   6.305   5.395
10192TIP3    H130519   1.585   6.300   5.369
10192TIP3    H230520   1.712   6.380   5.346
10193TIP3   OH230521   6.452   1.469   2.088
10193TIP3    H130522   6.378   1.410   2.105
10193TIP3    H230523   6.507   1.422   2.026
10194TIP3   OH230524   5.269   2.544   3.128
10194TIP3    H130525   5.259   2.477   3.196
10194TIP3    H230526   5.206   2.518   3.060
10195TIP3   OH230527   5.976   6.289   3.938
10195TIP3    H130528   6.046   6.231   3.907
10195TIP3    H230529   5.919   6.232   3.990
10196TIP3   OH230530   7.580   4.497   1.068
10196TIP3    H130531   7.549   4.521   1.156
10196TIP3    H230532   7.671   4.469   1.082
10197TIP3   OH230533   5.985   5.220   3.202
10197TIP3    H130534   5.954   5.225   3.111
10197TIP3    H230535   6.004   5.311   3.226
10198TIP3   OH230536   2.867   1.826   2.860
10198TIP3    H130537   2.898   1.883   2.790
10198TIP3    H230538   2.838   1.746   2.815
10199TIP3   OH230539   2.312   1.302   6.526
10199TIP3    H130540   2.301   1.386   6.569
10199TIP3    H230541   2.227   1.283   6.487
10200TIP3   OH230542   5.099   7.427   2.816
10200TIP3    H130543   5.193   7.441   2.804
10200TIP3    H230544   5.090   7.395   2.905
10201TIP3   OH230545   3.317   1.883   6.200
10201TIP3    H130546   3.389   1.939   6.170
10201TIP3    H230547   3.340   1.862   6.291
10202TIP3   OH230548   7.128   1.745   5.665
10202TIP3    H130549   7.085   1.827   5.641
10202TIP3    H230550   7.066   1.702   5.724
10203TIP3   OH230551   4.673   0.760   4.069
10203TIP3    H130552   4.764   0.772   4.094
10203TIP3    H230553   4.670   0.785   3.976
10204TIP3   OH230554   6.120   3.487   4.377
10204TIP3    H130555   6.106   3.580   4.396
10204TIP3    H230556   6.214   3.474   4.389
10205TIP3   OH230557   7.369   6.349   2.216
10205TIP3    H130558   7.297   6.297   2.253
10205TIP3    H230559   7.332   6.437   2.206
10206TIP3   OH230560   5.805   5.120   6.748
10206TIP3    H130561   5.856   5.171   6.685
10206TIP3    H230562   5.866   5.104   6.820
10207TIP3   OH230563   6.216   2.006   1.384
10207TIP3    H130564   6.153   1.936   1.367
10207TIP3    H230565   6.164   2.087   1.374
10208TIP3   OH230566   5.727   3.928   0.495
10208TIP3    H130567   5.680   3.946   0.577
10208TIP3    H230568   5.809   3.887   0.523
10209TIP3   OH230569   5.780   3.339   4.359
10209TIP3    H130570   5.865   3.307   4.327
10209TIP3    H230571   5.764   3.287   4.438
10210TIP3   OH230572   8.103   1.303   1.533
10210TIP3    H130573   8.173   1.311   1.598
10210TIP3    H230574   8.027   1.344   1.574
10211TIP3   OH230575   2.106   2.140   3.439
10211TIP3    H130576   2.061   2.058   3.418
10211TIP3    H230577   2.126   2.133   3.532
10212TIP3   OH230578   7.304   5.382   6.507
10212TIP3    H130579   7.280   5.438   6.432
10212TIP3    H230580   7.397   5.364   6.495
10213TIP3   OH230581   5.368   6.125   3.739
10213TIP3    H130582   5.360   6.100   3.647
10213TIP3    H230583   5.409   6.050   3.781
10214TIP3   OH230584   4.666   5.054   0.538
10214TIP3    H130585   4.674   5.122   0.604
10214TIP3    H230586   4.755   5.043   0.504
10215TIP3   OH230587   6.255   3.272   4.071
10215TIP3    H130588   6.312   3.221   4.129
10215TIP3    H230589   6.220   3.207   4.010
10216TIP3   OH230590   8.125   3.092   0.987
10216TIP3    H130591   8.178   3.035   0.930
10216TIP3    H230592   8.105   3.168   0.932
10217TIP3   OH230593   2.717   1.741   5.253
10217TIP3    H130594   2.725   1.804   5.325
10217TIP3    H230595   2.807   1.709   5.240
10218TIP3   OH230596   5.035   1.217   5.131
10218TIP3    H130597   4.994   1.296   5.167
10218TIP3    H230598   4.988   1.200   5.050
10219TIP3   OH230599   2.301   1.188   0.942
10219TIP3    H130600   2.325   1.099   0.917
10219TIP3    H230601   2.259   1.179   1.027
10220TIP3   OH230602   1.482   1.820   5.010
10220TIP3    H130603   1.567   1.794   5.044
10220TIP3    H230604   1.433   1.738   5.004
10221TIP3   OH230605   3.206   5.907   4.590
10221TIP3    H130606   3.301   5.901   4.601
10221TIP3    H230607   3.183   5.993   4.623
10222TIP3   OH230608   3.115   0.078   5.750
10222TIP3    H130609   3.046   0.018   5.724
10222TIP3    H230610   3.161   0.099   5.668
10223TIP3   OH230611   0.759   5.712   6.283
10223TIP3    H130612   0.799   5.791   6.246
10223TIP3    H230613   0.748   5.732   6.376
10224TIP3   OH230614   5.420   4.511   0.875
10224TIP3    H130615   5.503   4.509   0.828
10224TIP3    H230616   5.406   4.422   0.905
10225TIP3   OH230617   4.661   3.893   5.630
10225TIP3    H130618   4.633   3.981   5.608
10225TIP3    H230619   4.638   3.840   5.553
10226TIP3   OH230620   2.350   5.662   4.069
10226TIP3    H130621   2.357   5.746   4.113
10226TIP3    H230622   2.440   5.637   4.049
10227TIP3   OH230623   5.813   6.243   4.558
10227TIP3    H130624   5.833   6.199   4.476
10227TIP3    H230625   5.846   6.183   4.626
10228TIP3   OH230626   3.900   3.331   3.160
10228TIP3    H130627   3.971   3.350   3.099
10228TIP3    H230628   3.940   3.339   3.247
10229TIP3   OH230629   6.403   1.325   4.699
10229TIP3    H130630   6.458   1.389   4.744
10229TIP3    H230631   6.461   1.251   4.683
10230TIP3   OH230632   4.475   1.585   2.748
10230TIP3    H130633   4.440   1.540   2.670
10230TIP3    H230634   4.443   1.675   2.740
10231TIP3   OH230635   5.507   7.703   0.125
10231TIP3    H130636   5.515   7.645   0.201
10231TIP3    H230637   5.591   7.749   0.121
10232TIP3   OH230638   2.061   0.620   2.744
10232TIP3    H130639   2.019   0.676   2.679
10232TIP3    H230640   2.069   0.676   2.822
10233TIP3   OH230641   0.267   5.292   5.206
10233TIP3    H130642   0.350   5.288   5.159
10233TIP3    H230643   0.225   5.372   5.174
10234TIP3   OH230644   0.977   0.357   5.634
10234TIP3    H130645   0.927   0.398   5.705
10234TIP3    H230646   1.055   0.321   5.678
10235TIP3   OH230647   8.058   1.777   5.968
10235TIP3    H130648   8.065   1.683   5.985
10235TIP3    H230649   8.087   1.787   5.877
10236TIP3   OH230650   2.588   2.171   3.578
10236TIP3    H130651   2.616   2.229   3.507
10236TIP3    H230652   2.560   2.230   3.648
10237TIP3   OH230653   3.897   2.627   1.902
10237TIP3    H130654   3.882   2.532   1.909
10237TIP3    H230655   3.812   2.666   1.919
10238TIP3   OH230656   3.948   0.417   1.226
10238TIP3    H130657   3.944   0.340   1.282
10238TIP3    H230658   4.042   0.436   1.217
10239TIP3   OH230659   7.655   6.871   4.705
10239TIP3    H130660   7.704   6.921   4.770
10239TIP3    H230661   7.632   6.935   4.638
10240TIP3   OH230662   6.103   4.544   5.463
10240TIP3    H130663   6.190   4.584   5.470
10240TIP3    H230664   6.043   4.610   5.497
10241TIP3   OH230665   2.403   4.495   3.231
10241TIP3    H130666   2.427   4.445   3.153
10241TIP3    H230667   2.342   4.438   3.278
10242TIP3   OH230668   0.809   5.478   3.789
10242TIP3    H130669   0.855   5.420   3.851
10242TIP3    H230670   0.845   5.565   3.808
10243TIP3   OH230671   1.041   3.786   6.689
10243TIP3    H130672   1.093   3.747   6.619
10243TIP3    H230673   0.981   3.717   6.716
10244TIP3   OH230674   5.617   2.854   0.509
10244TIP3    H130675   5.704   2.814   0.512
10244TIP3    H230676   5.563   2.790   0.464
10245TIP3   OH230677   7.854   2.550   6.629
10245TIP3    H130678   7.925   2.570   6.568
10245TIP3    H230679   7.859   2.619   6.695
10246TIP3   OH230680   5.744   6.747   4.425
10246TIP3    H130681   5.673   6.687   4.447
10246TIP3    H230682   5.700   6.829   4.405
10247TIP3   OH230683   2.508   0.957   4.386
10247TIP3    H130684   2.545   1.002   4.462
10247TIP3    H230685   2.455   1.024   4.343
10248TIP3   OH230686   4.206   5.342   0.874
10248TIP3    H130687   4.287   5.389   0.853
10248TIP3    H230688   4.221   5.307   0.962
10249TIP3   OH230689   6.533   7.458   3.745
10249TIP3    H130690   6.622   7.472   3.713
10249TIP3    H230691   6.476   7.490   3.674
10250TIP3   OH230692   2.871   6.641   3.582
10250TIP3    H130693   2.956   6.683   3.589
10250TIP3    H230694   2.855   6.606   3.670
10251TIP3   OH230695   4.547   6.305   5.676
10251TIP3    H130696   4.639   6.282   5.660
10251TIP3    H230697   4.500   6.269   5.601
10252TIP3   OH230698   2.277   3.671   2.156
10252TIP3    H130699   2.182   3.685   2.166
10252TIP3    H230700   2.293   3.680   2.063
10253TIP3   OH230701   2.953   6.573   0.754
10253TIP3    H130702   2.988   6.605   0.837
10253TIP3    H230703   3.015   6.506   0.725
10254TIP3   OH230704   4.956   4.727   1.236
10254TIP3    H130705   5.007   4.650   1.213
10254TIP3    H230706   4.868   4.694   1.256
10255TIP3   OH230707   6.561   2.608   3.619
10255TIP3    H130708   6.582   2.667   3.547
10255TIP3    H230709   6.645   2.573   3.648
10256TIP3   OH230710   4.685   3.384   3.225
10256TIP3    H130711   4.710   3.425   3.143
10256TIP3    H230712   4.668   3.456   3.285
10257TIP3   OH230713   4.380   0.341   1.803
10257TIP3    H130714   4.468   0.371   1.783
10257TIP3    H230715   4.336   0.335   1.718
10258TIP3   OH230716   5.957   5.004   0.302
10258TIP3    H130717   5.931   4.913   0.317
10258TIP3    H230718   5.956   5.015   0.207
10259TIP3   OH230719   7.933   7.641   4.368
10259TIP3    H130720   7.912   7.552   4.396
10259TIP3    H230721   7.878   7.655   4.291
10260TIP3   OH230722   0.856   3.634   3.413
10260TIP3    H130723   0.768   3.617   3.447
10260TIP3    H230724   0.860   3.583   3.332
10261TIP3   OH230725   2.437   5.494   1.721
10261TIP3    H130726   2.492   5.417   1.708
10261TIP3    H230727   2.370   5.487   1.654
10262TIP3   OH230728   7.332   7.795   3.612
10262TIP3    H130729   7.408   7.759   3.566
10262TIP3    H230730   7.261   7.792   3.547
10263TIP3   OH230731   4.724   3.442   6.282
10263TIP3    H130732   4.692   3.355   6.305
10263TIP3    H230733   4.803   3.453   6.335
10264TIP3   OH230734   4.665   6.130   6.329
10264TIP3    H130735   4.577   6.167   6.337
10264TIP3    H230736   4.656   6.040   6.361
10265TIP3   OH230737   0.973   0.943   1.216
10265TIP3    H130738   0.944   1.031   1.190
10265TIP3    H230739   1.067   0.952   1.232
10266TIP3   OH230740   4.888   4.565   1.834
10266TIP3    H130741   4.951   4.617   1.882
10266TIP3    H230742   4.855   4.624   1.766
10267TIP3   OH230743   1.021   5.466   3.517
10267TIP3    H130744   0.999   5.374   3.532
10267TIP3    H230745   0.941   5.504   3.481
10268TIP3   OH230746   5.079   0.651   3.168
10268TIP3    H130747   5.078   0.733   3.216
10268TIP3    H230748   5.168   0.617   3.180
10269TIP3   OH230749   6.026   6.750   1.845
10269TIP3    H130750   6.046   6.787   1.759
10269TIP3    H230751   6.061   6.661   1.842
10270TIP3   OH230752   0.871   6.162   1.760
10270TIP3    H130753   0.940   6.206   1.809
10270TIP3    H230754   0.912   6.136   1.678
10271TIP3   OH230755   7.983   7.347   2.878
10271TIP3    H130756   7.961   7.364   2.970
10271TIP3    H230757   7.952   7.425   2.832
10272TIP3   OH230758   7.379   2.792   4.265
10272TIP3    H130759   7.401   2.700   4.277
10272TIP3    H230760   7.405   2.834   4.347
10273TIP3   OH230761   3.648   6.028   2.017
10273TIP3    H130762   3.676   6.053   1.929
10273TIP3    H230763   3.566   5.981   2.003
10274TIP3   OH230764   4.499   4.809   5.103
10274TIP3    H130765   4.422   4.761   5.070
10274TIP3    H230766   4.568   4.743   5.107
10275TIP3   OH230767   1.610   2.028   5.921
10275TIP3    H130768   1.621   2.116   5.955
10275TIP3    H230769   1.532   1.994   5.964
10276TIP3   OH230770   0.623   2.753   5.624
10276TIP3    H130771   0.632   2.837   5.669
10276TIP3    H230772   0.684   2.758   5.551
10277TIP3   OH230773   2.444   4.780   2.856
10277TIP3    H130774   2.511   4.712   2.862
10277TIP3    H230775   2.408   4.786   2.945
10278TIP3   OH230776   0.638   6.876   4.153
10278TIP3    H130777   0.642   6.858   4.059
10278TIP3    H230778   0.569   6.942   4.162
10279TIP3   OH230779   7.443   2.781   3.011
10279TIP3    H130780   7.525   2.829   3.024
10279TIP3    H230781   7.412   2.761   3.099
10280TIP3   OH230782   5.397   7.201   0.012
10280TIP3    H130783   5.334   7.212   0.083
10280TIP3    H230784   5.387   7.279  -0.042
10281TIP3   OH230785   2.560   1.462   4.621
10281TIP3    H130786   2.499   1.525   4.583
10281TIP3    H230787   2.515   1.430   4.700
10282TIP3   OH230788   3.929   3.941   1.563
10282TIP3    H130789   3.912   3.885   1.486
10282TIP3    H230790   3.849   3.992   1.574
10283TIP3   OH230791   6.100   2.839   3.753
10283TIP3    H130792   6.029   2.778   3.735
10283TIP3    H230793   6.147   2.847   3.670
10284TIP3   OH230794   5.613   0.335   6.138
10284TIP3    H130795   5.606   0.329   6.233
10284TIP3    H230796   5.546   0.398   6.113
10285TIP3   OH230797   5.383   6.802   3.664
10285TIP3    H130798   5.391   6.721   3.615
10285TIP3    H230799   5.394   6.777   3.756
10286TIP3   OH230800   3.851   6.739   0.688
10286TIP3    H130801   3.880   6.680   0.757
10286TIP3    H230802   3.880   6.697   0.607
10287TIP3   OH230803   7.646   7.624   4.963
10287TIP3    H130804   7.554   7.618   4.986
10287TIP3    H230805   7.654   7.707   4.917
10288TIP3   OH230806   0.746   0.856   2.479
10288TIP3    H130807   0.670   0.911   2.496
10288TIP3    H230808   0.710   0.767   2.473
10289TIP3   OH230809   6.621   6.339   3.222
10289TIP3    H130810   6.657   6.376   3.141
10289TIP3    H230811   6.669   6.257   3.234
10290TIP3   OH230812   0.029   6.120   0.252
10290TIP3    H130813   0.079   6.137   0.172
10290TIP3    H230814  -0.052   6.081   0.221
10291TIP3   OH230815   3.565   5.326   0.957
10291TIP3    H130816   3.625   5.335   1.031
10291TIP3    H230817   3.498   5.393   0.972
10292TIP3   OH230818   7.650   3.555   3.383
10292TIP3    H130819   7.685   3.515   3.463
10292TIP3    H230820   7.555   3.548   3.393
10293TIP3   OH230821   6.922   6.839   3.963
10293TIP3    H130822   6.948   6.914   3.909
10293TIP3    H230823   6.886   6.879   4.042
10294TIP3   OH230824   7.746   5.584   2.819
10294TIP3    H130825   7.735   5.547   2.731
10294TIP3    H230826   7.818   5.534   2.857
10295TIP3   OH230827   6.162   3.005   4.166
10295TIP3    H130828   6.246   3.028   4.205
10295TIP3    H230829   6.179   3.005   4.071
10296TIP3   OH230830   2.339   4.845   4.319
10296TIP3    H130831   2.306   4.766   4.276
10296TIP3    H230832   2.370   4.900   4.247
10297TIP3   OH230833   7.834   0.257   1.982
10297TIP3    H130834   7.912   0.244   2.036
10297TIP3    H230835   7.867   0.266   1.892
10298TIP3   OH230836   2.976   7.810   2.877
10298TIP3    H130837   2.904   7.860   2.918
10298TIP3    H230838   3.051   7.825   2.935
10299TIP3   OH230839   4.614   6.632   2.750
10299TIP3    H130840   4.616   6.586   2.666
10299TIP3    H230841   4.698   6.677   2.755
10300TIP3   OH230842   1.372   2.438   5.119
10300TIP3    H130843   1.346   2.524   5.086
10300TIP3    H230844   1.367   2.381   5.043
10301TIP3   OH230845   5.202   3.134   0.643
10301TIP3    H130846   5.216   3.106   0.734
10301TIP3    H230847   5.290   3.136   0.605
10302TIP3   OH230848   7.706   3.863   3.172
10302TIP3    H130849   7.641   3.882   3.104
10302TIP3    H230850   7.697   3.769   3.187
10303TIP3   OH230851   1.635   0.922   5.336
10303TIP3    H130852   1.713   0.904   5.283
10303TIP3    H230853   1.564   0.881   5.288
10304TIP3   OH230854   0.705   5.511   5.323
10304TIP3    H130855   0.754   5.461   5.389
10304TIP3    H230856   0.686   5.595   5.366
10305TIP3   OH230857   4.102   1.357   6.590
10305TIP3    H130858   4.106   1.296   6.664
10305TIP3    H230859   4.185   1.345   6.544
10306TIP3   OH230860   2.392   5.787   0.974
10306TIP3    H130861   2.460   5.758   1.036
10306TIP3    H230862   2.417   5.876   0.951
10307TIP3   OH230863   5.881   2.450   1.159
10307TIP3    H130864   5.968   2.479   1.131
10307TIP3    H230865   5.848   2.523   1.211
10308TIP3   OH230866   6.292   6.766   3.052
10308TIP3    H130867   6.288   6.696   2.987
10308TIP3    H230868   6.383   6.796   3.050
10309TIP3   OH230869   1.403   2.562   6.003
10309TIP3    H130870   1.344   2.490   6.025
10309TIP3    H230871   1.422   2.550   5.910
10310TIP3   OH230872   0.409   3.180   5.126
10310TIP3    H130873   0.466   3.254   5.148
10310TIP3    H230874   0.343   3.218   5.067
10311TIP3   OH230875   0.074   1.859   0.483
10311TIP3    H130876   0.111   1.883   0.398
10311TIP3    H230877   0.012   1.929   0.503
10312TIP3   OH230878   0.409   2.613   0.372
10312TIP3    H130879   0.448   2.699   0.381
10312TIP3    H230880   0.375   2.610   0.283
10313TIP3   OH230881   6.281   5.058   4.406
10313TIP3    H130882   6.364   5.096   4.376
10313TIP3    H230883   6.236   5.130   4.450
10314TIP3   OH230884   3.449   1.399   0.340
10314TIP3    H130885   3.384   1.341   0.299
10314TIP3    H230886   3.489   1.445   0.266
10315TIP3   OH230887   0.517   3.191   2.588
10315TIP3    H130888   0.545   3.229   2.671
10315TIP3    H230889   0.582   3.221   2.525
10316TIP3   OH230890   1.856   0.518   4.172
10316TIP3    H130891   1.894   0.524   4.084
10316TIP3    H230892   1.806   0.599   4.182
10317TIP3   OH230893   1.371   5.070   2.289
10317TIP3    H130894   1.357   5.141   2.226
10317TIP3    H230895   1.286   5.026   2.295
10318TIP3   OH230896   4.824   2.132   1.521
10318TIP3    H130897   4.766   2.158   1.450
10318TIP3    H230898   4.779   2.160   1.601
10319TIP3   OH230899   7.556   5.995   4.965
10319TIP3    H130900   7.569   6.050   5.042
10319TIP3    H230901   7.584   5.908   4.992
10320TIP3   OH230902   5.795   7.052   3.491
10320TIP3    H130903   5.867   7.064   3.553
10320TIP3    H230904   5.830   7.084   3.407
10321TIP3   OH230905   0.332   3.742   1.759
10321TIP3    H130906   0.255   3.789   1.790
10321TIP3    H230907   0.354   3.682   1.831
10322TIP3   OH230908   4.906   5.642   2.760
10322TIP3    H130909   4.944   5.698   2.692
10322TIP3    H230910   4.945   5.556   2.744
10323TIP3   OH230911   3.082   4.784   0.397
10323TIP3    H130912   2.994   4.797   0.432
10323TIP3    H230913   3.081   4.833   0.314
10324TIP3   OH230914   0.000   0.831   1.895
10324TIP3    H130915  -0.060   0.757   1.892
10324TIP3    H230916   0.087   0.792   1.896
10325TIP3   OH230917   3.844   3.856   2.446
10325TIP3    H130918   3.934   3.822   2.436
10325TIP3    H230919   3.848   3.911   2.524
10326TIP3   OH230920   7.376   5.377   6.047
10326TIP3    H130921   7.406   5.384   5.957
10326TIP3    H230922   7.371   5.283   6.064
10327TIP3   OH230923   6.241   6.055   6.011
10327TIP3    H130924   6.233   6.123   5.944
10327TIP3    H230925   6.230   5.973   5.963
10328TIP3   OH230926   2.695   1.471   1.908
10328TIP3    H130927   2.790   1.473   1.897
10328TIP3    H230928   2.663   1.415   1.836
10329TIP3   OH230929   7.425   7.044   5.211
10329TIP3    H130930   7.461   7.008   5.130
10329TIP3    H230931   7.457   7.134   5.213
10330TIP3   OH230932   8.273   2.123   5.515
10330TIP3    H130933   8.264   2.150   5.423
10330TIP3    H230934   8.304   2.201   5.560
10331TIP3   OH230935   7.330   7.515   1.473
10331TIP3    H130936   7.334   7.593   1.529
10331TIP3    H230937   7.330   7.442   1.534
10332TIP3   OH230938   1.076   2.463   1.034
10332TIP3    H130939   1.124   2.455   1.117
10332TIP3    H230940   1.052   2.374   1.012
10333TIP3   OH230941   0.766   2.229   6.486
10333TIP3    H130942   0.741   2.273   6.405
10333TIP3    H230943   0.709   2.152   6.489
10334TIP3   OH230944   2.658   5.093   4.586
10334TIP3    H130945   2.598   5.104   4.512
10334TIP3    H230946   2.694   5.180   4.601
10335TIP3   OH230947   0.458   7.703   0.802
10335TIP3    H130948   0.496   7.642   0.740
10335TIP3    H230949   0.392   7.751   0.752
10336TIP3   OH230950   4.035   5.086   2.329
10336TIP3    H130951   4.028   4.990   2.335
10336TIP3    H230952   4.129   5.103   2.322
10337TIP3   OH230953   0.839   4.351   3.071
10337TIP3    H130954   0.794   4.370   3.153
10337TIP3    H230955   0.926   4.391   3.081
10338TIP3   OH230956   0.594   7.583   6.096
10338TIP3    H130957   0.612   7.677   6.094
10338TIP3    H230958   0.503   7.576   6.125
10339TIP3   OH230959   0.349   3.785   0.809
10339TIP3    H130960   0.407   3.709   0.808
10339TIP3    H230961   0.275   3.758   0.863
10340TIP3   OH230962   7.195   7.753   0.687
10340TIP3    H130963   7.185   7.823   0.752
10340TIP3    H230964   7.226   7.798   0.608
10341TIP3   OH230965   5.874   3.523   5.745
10341TIP3    H130966   5.877   3.589   5.814
10341TIP3    H230967   5.956   3.535   5.697
10342TIP3   OH230968   2.200   3.316   4.045
10342TIP3    H130969   2.283   3.360   4.030
10342TIP3    H230970   2.205   3.236   3.992
10343TIP3   OH230971   3.514   5.786   2.706
10343TIP3    H130972   3.468   5.764   2.787
10343TIP3    H230973   3.479   5.872   2.681
10344TIP3   OH230974   0.840   5.305   6.519
10344TIP3    H130975   0.797   5.322   6.602
10344TIP3    H230976   0.795   5.227   6.484
10345TIP3   OH230977   3.239   1.559   5.494
10345TIP3    H130978   3.153   1.534   5.460
10345TIP3    H230979   3.223   1.641   5.541
10346TIP3   OH230980   4.650   3.295   4.956
10346TIP3    H130981   4.597   3.309   4.878
10346TIP3    H230982   4.613   3.355   5.021
10347TIP3   OH230983   8.207   0.875   4.213
10347TIP3    H130984   8.135   0.851   4.155
10347TIP3    H230985   8.197   0.817   4.289
10348TIP3   OH230986   7.708   2.930   3.117
10348TIP3    H130987   7.748   3.004   3.070
10348TIP3    H230988   7.621   2.963   3.142
10349TIP3   OH230989   0.852   5.140   2.081
10349TIP3    H130990   0.897   5.059   2.105
10349TIP3    H230991   0.837   5.132   1.987
10350TIP3   OH230992   7.636   4.780   3.187
10350TIP3    H130993   7.574   4.840   3.143
10350TIP3    H230994   7.602   4.693   3.167
10351TIP3   OH230995   7.593   2.722   1.328
10351TIP3    H130996   7.556   2.658   1.389
10351TIP3    H230997   7.598   2.803   1.378
10352TIP3   OH230998   0.836   0.896   6.079
10352TIP3    H130999   0.886   0.826   6.122
10352TIP3    H231000   0.818   0.958   6.149
10353TIP3   OH231001   6.508   4.618   1.449
10353TIP3    H131002   6.594   4.662   1.445
10353TIP3    H231003   6.460   4.655   1.375
10354TIP3   OH231004   7.290   6.550   6.290
10354TIP3    H131005   7.242   6.538   6.208
10354TIP3    H231006   7.371   6.501   6.278
10355TIP3   OH231007   4.619   7.537   4.782
10355TIP3    H131008   4.535   7.558   4.742
10355TIP3    H231009   4.622   7.441   4.781
10356TIP3   OH231010   0.186   5.366   4.545
10356TIP3    H131011   0.192   5.440   4.605
10356TIP3    H231012   0.093   5.360   4.523
10357TIP3   OH231013   1.948   2.670   5.023
10357TIP3    H131014   1.940   2.758   4.986
10357TIP3    H231015   2.026   2.633   4.982
10358TIP3   OH231016   3.396   5.665   3.677
10358TIP3    H131017   3.413   5.757   3.699
10358TIP3    H231018   3.410   5.618   3.760
10359TIP3   OH231019   2.731   0.728   1.894
10359TIP3    H131020   2.711   0.807   1.844
10359TIP3    H231021   2.803   0.686   1.846
10360TIP3   OH231022   0.508   6.651   2.382
10360TIP3    H131023   0.537   6.673   2.293
10360TIP3    H231024   0.527   6.558   2.391
10361TIP3   OH231025   6.286   1.881   3.995
10361TIP3    H131026   6.329   1.960   3.961
10361TIP3    H231027   6.328   1.865   4.079
10362TIP3   OH231028   3.991   7.088   4.313
10362TIP3    H131029   3.905   7.131   4.316
10362TIP3    H231030   3.974   7.002   4.277
10363TIP3   OH231031   0.646   3.009   4.855
10363TIP3    H131032   0.726   3.047   4.890
10363TIP3    H231033   0.595   2.985   4.932
10364TIP3   OH231034   5.072   6.532   1.692
10364TIP3    H131035   5.002   6.595   1.676
10364TIP3    H231036   5.145   6.586   1.724
10365TIP3   OH231037   6.865   3.044   4.514
10365TIP3    H131038   6.914   3.055   4.432
10365TIP3    H231039   6.878   3.126   4.561
10366TIP3   OH231040   3.310   0.913   4.759
10366TIP3    H131041   3.262   0.956   4.688
10366TIP3    H231042   3.356   0.841   4.716
10367TIP3   OH231043   4.398   2.930   2.552
10367TIP3    H131044   4.317   2.906   2.508
10367TIP3    H231045   4.377   3.010   2.601
10368TIP3   OH231046   7.103   4.411   3.576
10368TIP3    H131047   7.103   4.431   3.669
10368TIP3    H231048   7.040   4.472   3.537
10369TIP3   OH231049   3.994   0.706   5.652
10369TIP3    H131050   4.078   0.659   5.652
10369TIP3    H231051   3.956   0.689   5.566
10370TIP3   OH231052   1.279   3.610   4.808
10370TIP3    H131053   1.189   3.577   4.810
10370TIP3    H231054   1.314   3.580   4.725
10371TIP3   OH231055   6.525   3.180   0.936
10371TIP3    H131056   6.474   3.102   0.917
10371TIP3    H231057   6.482   3.218   1.013
10372TIP3   OH231058   3.163   7.448   3.991
10372TIP3    H131059   3.099   7.517   3.976
10372TIP3    H231060   3.235   7.492   4.038
10373TIP3   OH231061   0.769   1.404   2.182
10373TIP3    H131062   0.802   1.405   2.272
10373TIP3    H231063   0.763   1.497   2.158
10374TIP3   OH231064   1.583   6.345   1.527
10374TIP3    H131065   1.655   6.391   1.570
10374TIP3    H231066   1.567   6.268   1.582
10375TIP3   OH231067   5.494   5.884   6.518
10375TIP3    H131068   5.458   5.972   6.510
10375TIP3    H231069   5.571   5.884   6.461
10376TIP3   OH231070   5.727   3.969   2.424
10376TIP3    H131071   5.779   4.043   2.455
10376TIP3    H231072   5.772   3.891   2.457
10377TIP3   OH231073   6.683   5.500   5.780
10377TIP3    H131074   6.601   5.457   5.804
10377TIP3    H231075   6.663   5.594   5.784
10378TIP3   OH231076   0.562   3.841   3.662
10378TIP3    H131077   0.573   3.844   3.567
10378TIP3    H231078   0.481   3.890   3.678
10379TIP3   OH231079   4.213   4.760   5.537
10379TIP3    H131080   4.289   4.766   5.479
10379TIP3    H231081   4.225   4.832   5.599
10380TIP3   OH231082   5.247   4.265   2.545
10380TIP3    H131083   5.197   4.184   2.530
10380TIP3    H231084   5.329   4.252   2.497
10381TIP3   OH231085   1.139   6.785   2.370
10381TIP3    H131086   1.053   6.745   2.377
10381TIP3    H231087   1.148   6.838   2.449
10382TIP3   OH231088   4.870   5.395   6.550
10382TIP3    H131089   4.879   5.300   6.551
10382TIP3    H231090   4.776   5.411   6.554
10383TIP3   OH231091   4.675   5.040   1.601
10383TIP3    H131092   4.584   5.063   1.620
10383TIP3    H231093   4.724   5.070   1.678
10384TIP3   OH231094   5.507   5.062   6.336
10384TIP3    H131095   5.522   5.053   6.242
10384TIP3    H231096   5.412   5.064   6.345
10385TIP3   OH231097   2.642   6.655   5.180
10385TIP3    H131098   2.698   6.676   5.105
10385TIP3    H231099   2.560   6.625   5.141
10386TIP3   OH231100   6.457   7.394   3.326
10386TIP3    H131101   6.385   7.447   3.293
10386TIP3    H231102   6.491   7.348   3.249
10387TIP3   OH231103   7.764   0.967   3.565
10387TIP3    H131104   7.829   0.901   3.537
10387TIP3    H231105   7.722   0.995   3.484
10388TIP3   OH231106   5.401   6.932   4.263
10388TIP3    H131107   5.397   6.998   4.193
10388TIP3    H231108   5.363   6.853   4.224
10389TIP3   OH231109   6.501   0.903   4.449
10389TIP3    H131110   6.408   0.880   4.452
10389TIP3    H231111   6.501   0.998   4.434
10390TIP3   OH231112   4.863   0.574   4.718
10390TIP3    H131113   4.865   0.521   4.639
10390TIP3    H231114   4.927   0.643   4.702
10391TIP3   OH231115   5.389   0.741   2.360
10391TIP3    H131116   5.415   0.832   2.347
10391TIP3    H231117   5.330   0.722   2.287
10392TIP3   OH231118   0.622   2.606   2.442
10392TIP3    H131119   0.708   2.594   2.401
10392TIP3    H231120   0.626   2.693   2.481
10393TIP3   OH231121   7.442   6.569   3.696
10393TIP3    H131122   7.382   6.562   3.622
10393TIP3    H231123   7.392   6.538   3.771
10394TIP3   OH231124   0.509   5.625   5.713
10394TIP3    H131125   0.587   5.652   5.762
10394TIP3    H231126   0.481   5.544   5.755
10395TIP3   OH231127   3.079   4.515   5.018
10395TIP3    H131128   3.062   4.476   5.103
10395TIP3    H231129   3.124   4.447   4.968
10396TIP3   OH231130   3.981   3.529   4.786
10396TIP3    H131131   3.981   3.494   4.875
10396TIP3    H231132   3.964   3.622   4.796
10397TIP3   OH231133   1.528   7.632   1.494
10397TIP3    H131134   1.560   7.546   1.521
10397TIP3    H231135   1.478   7.615   1.414
10398TIP3   OH231136   6.706   2.822   4.475
10398TIP3    H131137   6.741   2.789   4.392
10398TIP3    H231138   6.745   2.909   4.484
10399TIP3   OH231139   2.916   1.965   4.670
10399TIP3    H131140   2.863   1.914   4.610
10399TIP3    H231141   2.922   1.911   4.749
10400TIP3   OH231142   3.698   0.850   1.125
10400TIP3    H131143   3.742   0.769   1.152
10400TIP3    H231144   3.608   0.822   1.104
10401TIP3   OH231145   4.615   4.900   3.042
10401TIP3    H131146   4.705   4.916   3.012
10401TIP3    H231147   4.624   4.886   3.136
10402TIP3   OH231148   1.112   3.245   3.278
10402TIP3    H131149   1.063   3.236   3.196
10402TIP3    H231150   1.204   3.238   3.252
10403TIP3   OH231151   2.676   0.299   4.439
10403TIP3    H131152   2.757   0.275   4.395
10403TIP3    H231153   2.621   0.221   4.434
10404TIP3   OH231154   2.745   6.125   3.152
10404TIP3    H131155   2.799   6.052   3.123
10404TIP3    H231156   2.657   6.103   3.123
10405TIP3   OH231157   6.757   6.185   2.438
10405TIP3    H131158   6.836   6.169   2.386
10405TIP3    H231159   6.780   6.155   2.526
10406TIP3   OH231160   1.216   1.677   1.404
10406TIP3    H131161   1.220   1.751   1.344
10406TIP3    H231162   1.240   1.601   1.351
10407TIP3   OH231163   4.045   7.104   1.389
10407TIP3    H131164   3.968   7.052   1.412
10407TIP3    H231165   4.013   7.166   1.323
10408TIP3   OH231166   1.656   5.968   0.444
10408TIP3    H131167   1.714   5.940   0.373
10408TIP3    H231168   1.713   6.014   0.505
10409TIP3   OH231169   7.980   5.967   4.726
10409TIP3    H131170   7.982   5.880   4.766
10409TIP3    H231171   7.918   6.016   4.780
10410TIP3   OH231172   0.061   7.067   4.556
10410TIP3    H131173   0.070   6.987   4.503
10410TIP3    H231174   0.131   7.124   4.525
10411TIP3   OH231175   2.202   1.188   1.186
10411TIP3    H131176   2.188   1.215   1.276
10411TIP3    H231177   2.113   1.175   1.151
10412TIP3   OH231178   5.608   2.167   4.677
10412TIP3    H131179   5.521   2.182   4.715
10412TIP3    H231180   5.626   2.247   4.628
10413TIP3   OH231181   6.469   4.646   4.008
10413TIP3    H131182   6.523   4.568   3.993
10413TIP3    H231183   6.511   4.690   4.081
10414TIP3   OH231184   1.245   4.877   3.965
10414TIP3    H131185   1.183   4.820   4.012
10414TIP3    H231186   1.189   4.940   3.919
10415TIP3   OH231187   3.875   3.797   5.215
10415TIP3    H131188   3.903   3.860   5.281
10415TIP3    H231189   3.920   3.825   5.135
10416TIP3   OH231190   4.235   2.024   1.531
10416TIP3    H131191   4.261   2.116   1.543
10416TIP3    H231192   4.317   1.975   1.534
10417TIP3   OH231193   1.513   0.595   6.318
10417TIP3    H131194   1.502   0.690   6.317
10417TIP3    H231195   1.455   0.563   6.249
10418TIP3   OH231196   7.143   3.405   0.845
10418TIP3    H131197   7.070   3.431   0.902
10418TIP3    H231198   7.215   3.463   0.870
10419TIP3   OH231199   4.302   7.580   3.834
10419TIP3    H131200   4.316   7.587   3.740
10419TIP3    H231201   4.208   7.591   3.845
10420TIP3   OH231202   6.041   5.723   3.954
10420TIP3    H131203   5.982   5.652   3.978
10420TIP3    H231204   6.001   5.762   3.876
10421TIP3   OH231205   0.080   6.110   1.229
10421TIP3    H131206  -0.015   6.121   1.229
10421TIP3    H231207   0.114   6.189   1.269
10422TIP3   OH231208   2.436   7.729   0.500
10422TIP3    H131209   2.371   7.687   0.443
10422TIP3    H231210   2.473   7.799   0.447
10423TIP3   OH231211   7.610   1.863   5.468
10423TIP3    H131212   7.560   1.931   5.515
10423TIP3    H231213   7.632   1.799   5.535
10424TIP3   OH231214   2.636   3.181   0.210
10424TIP3    H131215   2.657   3.243   0.140
10424TIP3    H231216   2.624   3.098   0.165
10425TIP3   OH231217   3.075   7.195   6.560
10425TIP3    H131218   3.007   7.133   6.535
10425TIP3    H231219   3.100   7.237   6.478
10426TIP3   OH231220   3.570   2.618   2.305
10426TIP3    H131221   3.557   2.567   2.385
10426TIP3    H231222   3.649   2.580   2.265
10427TIP3   OH231223   7.994   1.441   3.675
10427TIP3    H131224   8.055   1.395   3.617
10427TIP3    H231225   7.916   1.386   3.674
10428TIP3   OH231226   4.574   6.208   3.701
10428TIP3    H131227   4.605   6.160   3.777
10428TIP3    H231228   4.483   6.230   3.722
10429TIP3   OH231229   7.037   1.837   3.722
10429TIP3    H131230   7.036   1.741   3.723
10429TIP3    H231231   7.002   1.862   3.808
10430TIP3   OH231232   2.916   3.865   1.516
10430TIP3    H131233   2.901   3.841   1.607
10430TIP3    H231234   2.919   3.960   1.516
10431TIP3   OH231235   0.355   6.822   2.104
10431TIP3    H131236   0.358   6.790   2.014
10431TIP3    H231237   0.263   6.818   2.129
10432TIP3   OH231238   5.607   2.446   2.610
10432TIP3    H131239   5.547   2.434   2.536
10432TIP3    H231240   5.550   2.467   2.683
10433TIP3   OH231241   1.364   2.657   0.306
10433TIP3    H131242   1.441   2.705   0.274
10433TIP3    H231243   1.303   2.658   0.232
10434TIP3   OH231244   2.522   3.417   0.914
10434TIP3    H131245   2.525   3.495   0.858
10434TIP3    H231246   2.526   3.451   1.003
10435TIP3   OH231247   0.404   3.011   5.766
10435TIP3    H131248   0.347   2.934   5.774
10435TIP3    H231249   0.492   2.974   5.757
10436TIP3   OH231250   7.484   4.603   6.697
10436TIP3    H131251   7.533   4.601   6.615
10436TIP3    H231252   7.537   4.551   6.757
10437TIP3   OH231253   5.924   3.049   4.809
10437TIP3    H131254   5.861   3.118   4.830
10437TIP3    H231255   5.911   3.032   4.716
10438TIP3   OH231256   4.421   1.782   3.563
10438TIP3    H131257   4.459   1.696   3.583
10438TIP3    H231258   4.358   1.765   3.493
10439TIP3   OH231259   8.210   6.000   4.120
10439TIP3    H131260   8.253   5.915   4.125
10439TIP3    H231261   8.251   6.052   4.190
10440TIP3   OH231262   0.973   5.021   6.203
10440TIP3    H131263   1.033   5.088   6.170
10440TIP3    H231264   0.901   5.070   6.242
10441TIP3   OH231265   6.157   0.445   0.952
10441TIP3    H131266   6.252   0.438   0.945
10441TIP3    H231267   6.141   0.535   0.980
10442TIP3   OH231268   7.597   2.976   2.725
10442TIP3    H131269   7.571   2.889   2.694
10442TIP3    H231270   7.678   2.995   2.678
10443TIP3   OH231271   5.363   3.560   6.264
10443TIP3    H131272   5.279   3.541   6.224
10443TIP3    H231273   5.343   3.577   6.356
10444TIP3   OH231274   2.272   4.460   5.445
10444TIP3    H131275   2.249   4.538   5.495
10444TIP3    H231276   2.313   4.493   5.366
10445TIP3   OH231277   4.390   5.054   2.948
10445TIP3    H131278   4.453   5.115   2.986
10445TIP3    H231279   4.408   4.970   2.991
10446TIP3   OH231280   3.682   0.194   3.342
10446TIP3    H131281   3.618   0.151   3.286
10446TIP3    H231282   3.761   0.202   3.288
10447TIP3   OH231283   0.538   2.210   0.773
10447TIP3    H131284   0.551   2.116   0.756
10447TIP3    H231285   0.548   2.251   0.687
10448TIP3   OH231286   5.398   5.666   6.342
10448TIP3    H131287   5.367   5.610   6.413
10448TIP3    H231288   5.439   5.741   6.386
10449TIP3   OH231289   0.064   5.733   1.171
10449TIP3    H131290   0.084   5.768   1.257
10449TIP3    H231291   0.008   5.800   1.130
10450TIP3   OH231292   1.121   2.358   3.851
10450TIP3    H131293   1.101   2.359   3.758
10450TIP3    H231294   1.214   2.382   3.857
10451TIP3   OH231295   6.355   0.411   1.965
10451TIP3    H131296   6.319   0.478   1.907
10451TIP3    H231297   6.283   0.387   2.023
10452TIP3   OH231298   8.293   5.732   3.788
10452TIP3    H131299   8.356   5.696   3.724
10452TIP3    H231300   8.208   5.699   3.759
10453TIP3   OH231301   1.981   6.994   2.934
10453TIP3    H131302   2.058   7.044   2.961
10453TIP3    H231303   1.913   7.059   2.922
10454TIP3   OH231304   1.647   0.134   2.138
10454TIP3    H131305   1.675   0.083   2.214
10454TIP3    H231306   1.728   0.173   2.105
10455TIP3   OH231307   0.435   1.744   6.363
10455TIP3    H131308   0.411   1.656   6.394
10455TIP3    H231309   0.355   1.779   6.324
10456TIP3   OH231310   3.445   6.861   4.457
10456TIP3    H131311   3.486   6.932   4.408
10456TIP3    H231312   3.477   6.872   4.547
10457TIP3   OH231313   3.079   4.756   5.579
10457TIP3    H131314   3.103   4.674   5.534
10457TIP3    H231315   3.142   4.820   5.546
10458TIP3   OH231316   2.030   4.614   2.644
10458TIP3    H131317   1.968   4.659   2.587
10458TIP3    H231318   2.106   4.672   2.647
10459TIP3   OH231319   2.602   7.348   5.658
10459TIP3    H131320   2.570   7.261   5.681
10459TIP3    H231321   2.635   7.383   5.740
10460TIP3   OH231322   6.994   7.682   0.927
10460TIP3    H131323   7.063   7.748   0.921
10460TIP3    H231324   7.041   7.600   0.946
10461TIP3   OH231325   3.844   5.633   0.718
10461TIP3    H131326   3.757   5.594   0.730
10461TIP3    H231327   3.904   5.559   0.722
10462TIP3   OH231328   3.300   4.376   0.206
10462TIP3    H131329   3.221   4.392   0.256
10462TIP3    H231330   3.371   4.382   0.270
10463TIP3   OH231331   7.469   0.812   4.389
10463TIP3    H131332   7.476   0.779   4.300
10463TIP3    H231333   7.444   0.904   4.379
10464TIP3   OH231334   2.634   6.496   1.385
10464TIP3    H131335   2.683   6.536   1.456
10464TIP3    H231336   2.552   6.468   1.426
10465TIP3   OH231337   8.064   1.031   4.577
10465TIP3    H131338   8.142   0.975   4.575
10465TIP3    H231339   8.001   0.982   4.631
10466TIP3   OH231340   4.045   3.550   2.433
10466TIP3    H131341   3.996   3.578   2.511
10466TIP3    H231342   4.038   3.454   2.434
10467TIP3   OH231343   3.296   3.422   6.145
10467TIP3    H131344   3.220   3.445   6.197
10467TIP3    H231345   3.361   3.490   6.165
10468TIP3   OH231346   7.010   2.552   2.431
10468TIP3    H131347   6.918   2.570   2.452
10468TIP3    H231348   7.041   2.631   2.387
10469TIP3   OH231349   8.221   5.665   4.577
10469TIP3    H131350   8.211   5.754   4.544
10469TIP3    H231351   8.306   5.636   4.543
10470TIP3   OH231352   6.229   5.746   1.303
10470TIP3    H131353   6.279   5.665   1.303
10470TIP3    H231354   6.293   5.814   1.280
10471TIP3   OH231355   4.940   6.317   3.114
10471TIP3    H131356   4.969   6.238   3.160
10471TIP3    H231357   4.944   6.386   3.181
10472TIP3   OH231358   0.268   3.944   3.156
10472TIP3    H131359   0.360   3.966   3.145
10472TIP3    H231360   0.224   3.989   3.083
10473TIP3   OH231361   2.863   3.874   3.993
10473TIP3    H131362   2.805   3.838   3.925
10473TIP3    H231363   2.943   3.822   3.986
10474TIP3   OH231364   0.187   3.745   5.549
10474TIP3    H131365   0.182   3.785   5.462
10474TIP3    H231366   0.106   3.694   5.556
10475TIP3   OH231367   5.056   0.875   1.937
10475TIP3    H131368   5.148   0.889   1.957
10475TIP3    H231369   5.056   0.812   1.865
10476TIP3   OH231370   1.584   7.131   6.381
10476TIP3    H131371   1.495   7.114   6.414
10476TIP3    H231372   1.589   7.082   6.299
10477TIP3   OH231373   4.285   3.972   0.797
10477TIP3    H131374   4.310   4.017   0.716
10477TIP3    H231375   4.360   3.918   0.818
10478TIP3   OH231376   5.677   3.263   3.555
10478TIP3    H131377   5.652   3.176   3.584
10478TIP3    H231378   5.759   3.282   3.600
10479TIP3   OH231379   0.944   3.906   2.939
10479TIP3    H131380   0.863   3.955   2.955
10479TIP3    H231381   0.993   3.914   3.020
10480TIP3   OH231382   2.232   4.102   2.155
10480TIP3    H131383   2.210   4.194   2.138
10480TIP3    H231384   2.267   4.102   2.245
10481TIP3   OH231385   1.259   6.911   5.756
10481TIP3    H131386   1.217   6.986   5.798
10481TIP3    H231387   1.253   6.840   5.820
10482TIP3   OH231388   1.581   7.678   5.967
10482TIP3    H131389   1.574   7.606   5.904
10482TIP3    H231390   1.491   7.690   5.999
10483TIP3   OH231391   0.568   0.654   5.469
10483TIP3    H131392   0.584   0.706   5.548
10483TIP3    H231393   0.490   0.602   5.488
10484TIP3   OH231394   2.587   4.392   5.801
10484TIP3    H131395   2.524   4.321   5.788
10484TIP3    H231396   2.668   4.348   5.827
10485TIP3   OH231397   5.271   6.619   3.218
10485TIP3    H131398   5.251   6.531   3.250
10485TIP3    H231399   5.295   6.606   3.127
10486TIP3   OH231400   5.942   0.472   0.777
10486TIP3    H131401   5.916   0.380   0.778
10486TIP3    H231402   6.027   0.473   0.820
10487TIP3   OH231403   5.164   1.412   6.668
10487TIP3    H131404   5.249   1.370   6.655
10487TIP3    H231405   5.184   1.500   6.700
10488TIP3   OH231406   5.112   6.859   5.375
10488TIP3    H131407   5.150   6.942   5.403
10488TIP3    H231408   5.068   6.879   5.293
10489TIP3   OH231409   4.006   6.531   5.083
10489TIP3    H131410   3.954   6.484   5.017
10489TIP3    H231411   3.969   6.619   5.084
10490TIP3   OH231412   3.412   5.247   1.790
10490TIP3    H131413   3.507   5.254   1.783
10490TIP3    H231414   3.390   5.303   1.865
10491TIP3   OH231415   2.636   5.809   6.614
10491TIP3    H131416   2.631   5.738   6.550
10491TIP3    H231417   2.638   5.764   6.699
10492TIP3   OH231418   4.360   2.451   0.546
10492TIP3    H131419   4.316   2.519   0.597
10492TIP3    H231420   4.447   2.444   0.586
10493TIP3   OH231421   5.673   4.757   1.843
10493TIP3    H131422   5.679   4.762   1.939
10493TIP3    H231423   5.717   4.836   1.812
10494TIP3   OH231424   4.699   6.728   2.406
10494TIP3    H131425   4.699   6.717   2.311
10494TIP3    H231426   4.678   6.641   2.441
10495TIP3   OH231427   0.037   4.128   6.143
10495TIP3    H131428  -0.028   4.177   6.094
10495TIP3    H231429   0.097   4.194   6.178
10496TIP3   OH231430   6.062   1.403   5.616
10496TIP3    H131431   5.990   1.371   5.671
10496TIP3    H231432   6.047   1.363   5.531
10497TIP3   OH231433   0.005   5.127   5.088
10497TIP3    H131434  -0.054   5.063   5.127
10497TIP3    H231435  -0.021   5.210   5.127
10498TIP3   OH231436   1.126   0.496   6.315
10498TIP3    H131437   1.176   0.424   6.354
10498TIP3    H231438   1.128   0.565   6.381
10499TIP3   OH231439   0.986   5.560   2.054
10499TIP3    H131440   0.986   5.656   2.059
10499TIP3    H231441   1.055   5.534   2.116
10500TIP3   OH231442   8.010   7.614   0.234
10500TIP3    H131443   7.964   7.660   0.304
10500TIP3    H231444   8.046   7.683   0.179
10501TIP3   OH231445   6.717   2.222   2.173
10501TIP3    H131446   6.810   2.236   2.194
10501TIP3    H231447   6.686   2.309   2.146
10502TIP3   OH231448   1.718   2.471   2.098
10502TIP3    H131449   1.703   2.557   2.059
10502TIP3    H231450   1.674   2.475   2.183
10503TIP3   OH231451   5.656   5.942   4.785
10503TIP3    H131452   5.618   5.937   4.698
10503TIP3    H231453   5.653   6.036   4.807
10504TIP3   OH231454   5.127   3.606   3.809
10504TIP3    H131455   5.143   3.693   3.772
10504TIP3    H231456   5.183   3.602   3.886
10505TIP3   OH231457   7.986   6.974   1.851
10505TIP3    H131458   8.045   7.032   1.900
10505TIP3    H231459   7.974   7.017   1.766
10506TIP3   OH231460   7.905   6.657   3.859
10506TIP3    H131461   7.827   6.614   3.894
10506TIP3    H231462   7.879   6.748   3.847
10507TIP3   OH231463   5.140   1.811   4.229
10507TIP3    H131464   5.162   1.867   4.304
10507TIP3    H231465   5.169   1.724   4.255
10508TIP3   OH231466   1.941   6.776   3.113
10508TIP3    H131467   1.955   6.857   3.064
10508TIP3    H231468   1.981   6.793   3.198
10509TIP3   OH231469   0.558   4.058   2.245
10509TIP3    H131470   0.539   4.151   2.239
10509TIP3    H231471   0.574   4.042   2.339
10510TIP3   OH231472   2.443   3.935   0.434
10510TIP3    H131473   2.392   3.960   0.357
10510TIP3    H231474   2.534   3.934   0.403
10511TIP3   OH231475   2.752   5.244   0.412
10511TIP3    H131476   2.839   5.254   0.452
10511TIP3    H231477   2.712   5.173   0.462
10512TIP3   OH231478   3.462   7.425   4.306
10512TIP3    H131479   3.468   7.444   4.399
10512TIP3    H231480   3.371   7.399   4.292
10513TIP3   OH231481   2.801   3.661   5.679
10513TIP3    H131482   2.822   3.715   5.755
10513TIP3    H231483   2.719   3.617   5.702
10514TIP3   OH231484   2.355   6.246   3.429
10514TIP3    H131485   2.343   6.246   3.334
10514TIP3    H231486   2.296   6.177   3.460
10515TIP3   OH231487   3.586   3.697   0.745
10515TIP3    H131488   3.597   3.792   0.736
10515TIP3    H231489   3.674   3.663   0.760
10516TIP3   OH231490   1.909   4.315   4.325
10516TIP3    H131491   1.819   4.282   4.323
10516TIP3    H231492   1.901   4.402   4.366
10517TIP3   OH231493   0.079   1.768   5.369
10517TIP3    H131494   0.049   1.825   5.440
10517TIP3    H231495  -0.001   1.738   5.326
10518TIP3   OH231496   0.372   5.016   1.679
10518TIP3    H131497   0.323   5.094   1.706
10518TIP3    H231498   0.314   4.943   1.700
10519TIP3   OH231499   4.301   0.718   3.982
10519TIP3    H131500   4.354   0.693   4.057
10519TIP3    H231501   4.348   0.791   3.941
10520TIP3   OH231502   1.617   3.375   0.810
10520TIP3    H131503   1.653   3.342   0.728
10520TIP3    H231504   1.688   3.427   0.848
10521TIP3   OH231505   6.446   5.890   1.854
10521TIP3    H131506   6.429   5.808   1.807
10521TIP3    H231507   6.372   5.947   1.830
10522TIP3   OH231508   5.180   3.956   2.346
10522TIP3    H131509   5.221   4.006   2.276
10522TIP3    H231510   5.107   4.010   2.375
10523TIP3   OH231511   1.348   7.818   3.144
10523TIP3    H131512   1.417   7.860   3.093
10523TIP3    H231513   1.394   7.757   3.202
10524TIP3   OH231514   4.521   7.199   0.766
10524TIP3    H131515   4.519   7.280   0.816
10524TIP3    H231516   4.467   7.217   0.689
10525TIP3   OH231517   6.173   4.774   3.237
10525TIP3    H131518   6.258   4.807   3.206
10525TIP3    H231519   6.187   4.758   3.330
10526TIP3   OH231520   0.700   6.625   4.629
10526TIP3    H131521   0.692   6.705   4.578
10526TIP3    H231522   0.720   6.558   4.563
10527TIP3   OH231523   0.021   0.841   1.075
10527TIP3    H131524   0.034   0.933   1.052
10527TIP3    H231525  -0.074   0.828   1.068
10528TIP3   OH231526   4.472   1.689   2.327
10528TIP3    H131527   4.487   1.766   2.272
10528TIP3    H231528   4.379   1.671   2.319
10529TIP3   OH231529   8.014   1.779   0.770
10529TIP3    H131530   8.109   1.788   0.764
10529TIP3    H231531   7.993   1.800   0.862
10530TIP3   OH231532   5.403   0.139   3.277
10530TIP3    H131533   5.415   0.233   3.286
10530TIP3    H231534   5.490   0.101   3.291
10531TIP3   OH231535   0.879   0.458   0.016
10531TIP3    H131536   0.961   0.446   0.063
10531TIP3    H231537   0.878   0.550  -0.009
10532TIP3   OH231538   3.681   4.074   1.627
10532TIP3    H131539   3.627   4.152   1.613
10532TIP3    H231540   3.626   4.016   1.679
10533TIP3   OH231541   0.569   3.396   0.933
10533TIP3    H131542   0.646   3.359   0.891
10533TIP3    H231543   0.544   3.330   0.999
10534TIP3   OH231544   7.935   3.702   5.327
10534TIP3    H131545   8.010   3.723   5.382
10534TIP3    H231546   7.923   3.608   5.337
10535TIP3   OH231547   5.377   6.374   0.971
10535TIP3    H131548   5.465   6.383   0.934
10535TIP3    H231549   5.357   6.281   0.965
10536TIP3   OH231550   8.271   3.004   1.488
10536TIP3    H131551   8.356   3.005   1.444
10536TIP3    H231552   8.209   3.036   1.423
10537TIP3   OH231553   1.816   2.284   0.041
10537TIP3    H131554   1.900   2.328   0.045
10537TIP3    H231555   1.759   2.337   0.097
10538TIP3   OH231556   3.639   5.362   2.757
10538TIP3    H131557   3.612   5.351   2.666
10538TIP3    H231558   3.557   5.365   2.806
10539TIP3   OH231559   3.072   6.698   6.401
10539TIP3    H131560   3.158   6.717   6.364
10539TIP3    H231561   3.010   6.722   6.332
10540TIP3   OH231562   0.862   0.588   2.907
10540TIP3    H131563   0.869   0.549   2.819
10540TIP3    H231564   0.951   0.584   2.942
10541TIP3   OH231565   5.561   4.756   5.789
10541TIP3    H131566   5.570   4.783   5.697
10541TIP3    H231567   5.478   4.708   5.791
10542TIP3   OH231568   3.791   6.310   1.272
10542TIP3    H131569   3.749   6.366   1.207
10542TIP3    H231570   3.879   6.347   1.283
10543TIP3   OH231571   2.433   1.726   5.325
10543TIP3    H131572   2.446   1.688   5.238
10543TIP3    H231573   2.456   1.818   5.315
10544TIP3   OH231574   1.845   4.541   4.467
10544TIP3    H131575   1.830   4.592   4.546
10544TIP3    H231576   1.838   4.605   4.396
10545TIP3   OH231577   1.325   4.875   1.967
10545TIP3    H131578   1.301   4.869   2.059
10545TIP3    H231579   1.408   4.922   1.967
10546TIP3   OH231580   4.142   3.154   0.016
10546TIP3    H131581   4.111   3.211  -0.055
10546TIP3    H231582   4.126   3.205   0.096
10547TIP3   OH231583   3.435   6.782   0.487
10547TIP3    H131584   3.514   6.836   0.486
10547TIP3    H231585   3.442   6.730   0.567
10548TIP3   OH231586   0.964   1.661   0.058
10548TIP3    H131587   1.004   1.746   0.039
10548TIP3    H231588   0.978   1.648   0.152
10549TIP3   OH231589   5.457   4.767   2.197
10549TIP3    H131590   5.552   4.765   2.187
10549TIP3    H231591   5.440   4.831   2.265
10550TIP3   OH231592   5.050   7.192   2.547
10550TIP3    H131593   5.099   7.208   2.467
10550TIP3    H231594   5.112   7.150   2.606
10551TIP3   OH231595   0.586   3.610   0.769
10551TIP3    H131596   0.639   3.679   0.809
10551TIP3    H231597   0.586   3.539   0.833
10552TIP3   OH231598   5.689   3.234   1.649
10552TIP3    H131599   5.750   3.161   1.660
10552TIP3    H231600   5.719   3.299   1.712
10553TIP3   OH231601   6.720   7.218   5.133
10553TIP3    H131602   6.645   7.159   5.131
10553TIP3    H231603   6.791   7.167   5.173
10554TIP3   OH231604   4.146   3.317   0.243
10554TIP3    H131605   4.179   3.346   0.328
10554TIP3    H231606   4.053   3.338   0.244
10555TIP3   OH231607   7.659   6.165   6.007
10555TIP3    H131608   7.724   6.162   6.078
10555TIP3    H231609   7.578   6.135   6.048
10556TIP3   OH231610   0.776   7.675   1.903
10556TIP3    H131611   0.867   7.700   1.924
10556TIP3    H231612   0.783   7.629   1.819
10557TIP3   OH231613   6.742   4.337   4.240
10557TIP3    H131614   6.655   4.304   4.260
10557TIP3    H231615   6.730   4.392   4.162
10558TIP3   OH231616   7.041   2.473   4.405
10558TIP3    H131617   7.112   2.418   4.440
10558TIP3    H231618   7.085   2.535   4.347
10559TIP3   OH231619   7.780   4.857   2.870
10559TIP3    H131620   7.786   4.763   2.882
10559TIP3    H231621   7.731   4.868   2.788
10560TIP3   OH231622   7.221   1.422   0.455
10560TIP3    H131623   7.221   1.502   0.507
10560TIP3    H231624   7.158   1.365   0.498
10561TIP3   OH231625   8.254   7.625   2.502
10561TIP3    H131626   8.159   7.637   2.507
10561TIP3    H231627   8.269   7.534   2.529
10562TIP3   OH231628   1.002   1.601   5.039
10562TIP3    H131629   1.069   1.644   5.092
10562TIP3    H231630   0.945   1.558   5.102
10563TIP3   OH231631   2.036   0.152   5.411
10563TIP3    H131632   2.119   0.105   5.400
10563TIP3    H231633   2.005   0.126   5.498
10564TIP3   OH231634   7.492   3.452   3.956
10564TIP3    H131635   7.557   3.521   3.971
10564TIP3    H231636   7.543   3.371   3.956
10565TIP3   OH231637   7.259   2.339   4.510
10565TIP3    H131638   7.303   2.395   4.574
10565TIP3    H231639   7.330   2.303   4.456
10566TIP3   OH231640   0.694   7.796   2.809
10566TIP3    H131641   0.745   7.794   2.890
10566TIP3    H231642   0.622   7.856   2.828
10567TIP3   OH231643   8.230   2.708   6.255
10567TIP3    H131644   8.260   2.792   6.291
10567TIP3    H231645   8.307   2.673   6.210
10568TIP3   OH231646   6.521   5.377   4.943
10568TIP3    H131647   6.463   5.341   5.011
10568TIP3    H231648   6.526   5.307   4.878
10569TIP3   OH231649   4.631   4.307   4.851
10569TIP3    H131650   4.565   4.285   4.785
10569TIP3    H231651   4.623   4.402   4.862
10570TIP3   OH231652   7.340   3.100   2.953
10570TIP3    H131653   7.433   3.091   2.931
10570TIP3    H231654   7.313   3.182   2.911
10571TIP3   OH231655   0.835   1.543   4.049
10571TIP3    H131656   0.928   1.528   4.035
10571TIP3    H231657   0.795   1.534   3.962
10572TIP3   OH231658   7.550   4.679   2.386
10572TIP3    H131659   7.476   4.720   2.432
10572TIP3    H231660   7.586   4.750   2.332
10573TIP3   OH231661   8.271   1.495   4.224
10573TIP3    H131662   8.261   1.453   4.139
10573TIP3    H231663   8.328   1.570   4.207
10574TIP3   OH231664   2.606   5.203   5.993
10574TIP3    H131665   2.637   5.129   5.941
10574TIP3    H231666   2.632   5.182   6.083
10575TIP3   OH231667   5.461   4.340   4.766
10575TIP3    H131668   5.486   4.284   4.839
10575TIP3    H231669   5.401   4.287   4.714
10576TIP3   OH231670   5.556   6.739   1.764
10576TIP3    H131671   5.570   6.773   1.676
10576TIP3    H231672   5.637   6.692   1.785
10577TIP3   OH231673   1.129   5.940   6.553
10577TIP3    H131674   1.080   5.869   6.595
10577TIP3    H231675   1.161   5.993   6.627
10578TIP3   OH231676   6.500   3.143   1.408
10578TIP3    H131677   6.556   3.103   1.341
10578TIP3    H231678   6.415   3.100   1.397
10579TIP3   OH231679   0.547   2.727   3.069
10579TIP3    H131680   0.531   2.738   3.163
10579TIP3    H231681   0.496   2.650   3.045
10580TIP3   OH231682   5.040   3.093   3.618
10580TIP3    H131683   4.975   3.022   3.616
10580TIP3    H231684   5.077   3.094   3.530
10581TIP3   OH231685   3.178   0.396   4.535
10581TIP3    H131686   3.096   0.445   4.529
10581TIP3    H231687   3.223   0.432   4.611
10582TIP3   OH231688   7.529   0.063   2.959
10582TIP3    H131689   7.468   0.048   2.886
10582TIP3    H231690   7.614   0.038   2.924
10583TIP3   OH231691   7.271   1.077   3.826
10583TIP3    H131692   7.221   1.077   3.743
10583TIP3    H231693   7.349   1.129   3.807
10584TIP3   OH231694   7.144   7.149   4.656
10584TIP3    H131695   7.137   7.059   4.622
10584TIP3    H231696   7.134   7.140   4.751
10585TIP3   OH231697   6.061   6.264   0.927
10585TIP3    H131698   6.129   6.291   0.865
10585TIP3    H231699   6.094   6.183   0.965
10586TIP3   OH231700   6.656   0.489   4.927
10586TIP3    H131701   6.730   0.537   4.889
10586TIP3    H231702   6.642   0.531   5.013
10587TIP3   OH231703   0.263   2.320   5.862
10587TIP3    H131704   0.242   2.412   5.878
10587TIP3    H231705   0.345   2.306   5.908
10588TIP3   OH231706   0.825   4.632   4.736
10588TIP3    H131707   0.788   4.606   4.821
10588TIP3    H231708   0.763   4.696   4.701
10589TIP3   OH231709   2.123   5.852   3.284
10589TIP3    H131710   2.162   5.824   3.367
10589TIP3    H231711   2.144   5.945   3.278
10590TIP3   OH231712   7.128   4.848   2.646
10590TIP3    H131713   7.047   4.821   2.689
10590TIP3    H231714   7.135   4.942   2.665
10591TIP3   OH231715   1.200   6.633   0.924
10591TIP3    H131716   1.288   6.615   0.956
10591TIP3    H231717   1.165   6.700   0.983
10592TIP3   OH231718   1.386   6.279   0.772
10592TIP3    H131719   1.398   6.194   0.729
10592TIP3    H231720   1.459   6.286   0.833
10593TIP3   OH231721   4.129   7.274   2.074
10593TIP3    H131722   4.101   7.316   2.155
10593TIP3    H231723   4.163   7.189   2.102
10594TIP3   OH231724   1.971   3.475   4.769
10594TIP3    H131725   2.018   3.431   4.841
10594TIP3    H231726   2.040   3.514   4.716
10595TIP3   OH231727   3.733   7.609   2.960
10595TIP3    H131728   3.639   7.593   2.973
10595TIP3    H231729   3.754   7.559   2.881
10596TIP3   OH231730   2.652   2.636   0.956
10596TIP3    H131731   2.626   2.675   1.040
10596TIP3    H231732   2.746   2.621   0.965
10597TIP3   OH231733   7.833   5.497   2.210
10597TIP3    H131734   7.900   5.509   2.143
10597TIP3    H231735   7.841   5.575   2.266
10598TIP3   OH231736   2.492   1.136   5.825
10598TIP3    H131737   2.436   1.068   5.787
10598TIP3    H231738   2.482   1.125   5.919
10599TIP3   OH231739   3.300   3.346   2.227
10599TIP3    H131740   3.312   3.433   2.189
10599TIP3    H231741   3.278   3.363   2.319
10600TIP3   OH231742   5.857   1.710   3.007
10600TIP3    H131743   5.940   1.661   2.999
10600TIP3    H231744   5.837   1.737   2.918
10601TIP3   OH231745   3.091   2.807   2.294
10601TIP3    H131746   3.137   2.854   2.224
10601TIP3    H231747   3.060   2.875   2.353
10602TIP3   OH231748   1.200   7.521   6.390
10602TIP3    H131749   1.105   7.532   6.397
10602TIP3    H231750   1.221   7.454   6.456
10603TIP3   OH231751   2.089   4.028   5.910
10603TIP3    H131752   2.090   3.933   5.923
10603TIP3    H231753   2.166   4.059   5.957
10604TIP3   OH231754   6.783   6.142   4.299
10604TIP3    H131755   6.838   6.137   4.220
10604TIP3    H231756   6.845   6.161   4.369
10605TIP3   OH231757   7.695   4.562   6.524
10605TIP3    H131758   7.760   4.497   6.550
10605TIP3    H231759   7.747   4.632   6.484
10606TIP3   OH231760   3.495   5.510   4.811
10606TIP3    H131761   3.567   5.537   4.755
10606TIP3    H231762   3.514   5.548   4.896
10607TIP3   OH231763   0.965   0.090   4.970
10607TIP3    H131764   1.045   0.062   5.014
10607TIP3    H231765   0.908   0.013   4.972
10608TIP3   OH231766   3.260   6.459   4.932
10608TIP3    H131767   3.322   6.400   4.975
10608TIP3    H231768   3.277   6.544   4.971
10609TIP3   OH231769   5.455   0.387   1.301
10609TIP3    H131770   5.417   0.392   1.213
10609TIP3    H231771   5.526   0.451   1.300
10610TIP3   OH231772   0.710   5.128   1.086
10610TIP3    H131773   0.625   5.171   1.088
10610TIP3    H231774   0.720   5.092   1.174
10611TIP3   OH231775   6.496   1.936   5.879
10611TIP3    H131776   6.435   1.970   5.813
10611TIP3    H231777   6.494   2.000   5.949
10612TIP3   OH231778   2.753   6.713   6.343
10612TIP3    H131779   2.702   6.657   6.402
10612TIP3    H231780   2.803   6.653   6.289
10613TIP3   OH231781   3.926   4.968   5.155
10613TIP3    H131782   3.958   4.917   5.229
10613TIP3    H231783   3.986   5.042   5.150
10614TIP3   OH231784   1.631   1.789   0.350
10614TIP3    H131785   1.725   1.785   0.332
10614TIP3    H231786   1.601   1.867   0.303
10615TIP3   OH231787   4.197   6.772   3.168
10615TIP3    H131788   4.132   6.731   3.110
10615TIP3    H231789   4.264   6.704   3.181
10616TIP3   OH231790   4.971   7.673   1.592
10616TIP3    H131791   4.993   7.766   1.585
10616TIP3    H231792   4.879   7.672   1.616
10617TIP3   OH231793   7.137   7.186   5.490
10617TIP3    H131794   7.181   7.215   5.569
10617TIP3    H231795   7.166   7.247   5.422
10618TIP3   OH231796   1.652   1.963   0.897
10618TIP3    H131797   1.564   2.001   0.899
10618TIP3    H231798   1.710   2.037   0.910
10619TIP3   OH231799   6.680   0.848   2.589
10619TIP3    H131800   6.658   0.787   2.518
10619TIP3    H231801   6.659   0.935   2.553
10620TIP3   OH231802   1.640   6.819   5.378
10620TIP3    H131803   1.695   6.897   5.386
10620TIP3    H231804   1.647   6.776   5.463
10621TIP3   OH231805   2.724   1.714   4.725
10621TIP3    H131806   2.655   1.651   4.748
10621TIP3    H231807   2.743   1.759   4.808
10622TIP3   OH231808   2.063   0.137   4.800
10622TIP3    H131809   2.050   0.158   4.708
10622TIP3    H231810   2.141   0.082   4.802
10623TIP3   OH231811   3.469   7.095   2.737
10623TIP3    H131812   3.556   7.055   2.747
10623TIP3    H231813   3.413   7.023   2.708
10624TIP3   OH231814   7.797   7.404   0.608
10624TIP3    H131815   7.789   7.470   0.676
10624TIP3    H231816   7.886   7.369   0.618
10625TIP3   OH231817   1.379   7.414   5.011
10625TIP3    H131818   1.346   7.487   5.063
10625TIP3    H231819   1.455   7.382   5.060
10626TIP3   OH231820   6.108   6.988   5.449
10626TIP3    H131821   6.180   6.926   5.461
10626TIP3    H231822   6.135   7.066   5.498
10627TIP3   OH231823   1.353   7.352   2.745
10627TIP3    H131824   1.399   7.282   2.793
10627TIP3    H231825   1.290   7.305   2.690
10628TIP3   OH231826   5.082   5.380   2.999
10628TIP3    H131827   5.075   5.288   3.024
10628TIP3    H231828   4.999   5.419   3.025
10629TIP3   OH231829   7.281   5.921   4.315
10629TIP3    H131830   7.347   5.980   4.349
10629TIP3    H231831   7.241   5.969   4.242
10630TIP3   OH231832   5.330   3.477   1.298
10630TIP3    H131833   5.424   3.491   1.288
10630TIP3    H231834   5.322   3.411   1.367
10631TIP3   OH231835   6.818   7.668   1.844
10631TIP3    H131836   6.907   7.636   1.828
10631TIP3    H231837   6.784   7.689   1.756
10632TIP3   OH231838   1.056   5.019   2.891
10632TIP3    H131839   1.094   4.955   2.951
10632TIP3    H231840   1.013   5.083   2.949
10633TIP3   OH231841   0.555   0.069   0.125
10633TIP3    H131842   0.644   0.102   0.136
10633TIP3    H231843   0.502   0.127   0.180
10634TIP3   OH231844   0.455   4.422   5.252
10634TIP3    H131845   0.537   4.377   5.273
10634TIP3    H231846   0.424   4.456   5.336
10635TIP3   OH231847   6.280   6.785   5.536
10635TIP3    H131848   6.284   6.705   5.483
10635TIP3    H231849   6.276   6.754   5.626
10636TIP3   OH231850   6.704   0.254   0.566
10636TIP3    H131851   6.667   0.334   0.530
10636TIP3    H231852   6.713   0.195   0.491
10637TIP3   OH231853   4.272   3.647   2.917
10637TIP3    H131854   4.314   3.717   2.966
10637TIP3    H231855   4.207   3.691   2.862
10638TIP3   OH231856   2.138   6.331   2.940
10638TIP3    H131857   2.095   6.384   3.007
10638TIP3    H231858   2.174   6.395   2.879
10639TIP3   OH231859   2.054   1.235   2.471
10639TIP3    H131860   1.959   1.233   2.477
10639TIP3    H231861   2.082   1.285   2.548
10640TIP3   OH231862   4.752   1.926   5.762
10640TIP3    H131863   4.662   1.957   5.749
10640TIP3    H231864   4.776   1.958   5.849
10641TIP3   OH231865   5.925   1.017   5.746
10641TIP3    H131866   5.977   0.983   5.673
10641TIP3    H231867   5.847   1.054   5.706
10642TIP3   OH231868   5.394   4.947   4.842
10642TIP3    H131869   5.403   5.026   4.789
10642TIP3    H231870   5.303   4.949   4.873
10643TIP3   OH231871   0.147   0.912   0.699
10643TIP3    H131872   0.148   1.007   0.712
10643TIP3    H231873   0.238   0.885   0.709
10644TIP3   OH231874   3.222   3.359   2.487
10644TIP3    H131875   3.290   3.317   2.540
10644TIP3    H231876   3.231   3.453   2.507
10645TIP3   OH231877   0.689   0.333   4.278
10645TIP3    H131878   0.728   0.395   4.340
10645TIP3    H231879   0.595   0.340   4.293
10646TIP3   OH231880   0.128   1.252   6.650
10646TIP3    H131881   0.037   1.229   6.669
10646TIP3    H231882   0.123   1.313   6.577
10647TIP3   OH231883   3.332   0.614   3.615
10647TIP3    H131884   3.342   0.558   3.692
10647TIP3    H231885   3.321   0.702   3.650
10648TIP3   OH231886   7.078   3.867   2.525
10648TIP3    H131887   7.150   3.859   2.462
10648TIP3    H231888   7.051   3.776   2.541
10649TIP3   OH231889   1.755   0.214   5.475
10649TIP3    H131890   1.835   0.208   5.527
10649TIP3    H231891   1.768   0.291   5.420
10650TIP3   OH231892   5.035   7.169   6.572
10650TIP3    H131893   4.996   7.088   6.540
10650TIP3    H231894   5.090   7.199   6.500
10651TIP3   OH231895   0.306   2.235   4.794
10651TIP3    H131896   0.378   2.219   4.855
10651TIP3    H231897   0.282   2.326   4.809
10652TIP3   OH231898   2.941   2.292   3.401
10652TIP3    H131899   3.030   2.257   3.402
10652TIP3    H231900   2.932   2.336   3.486
10653TIP3   OH231901   0.845   0.575   2.082
10653TIP3    H131902   0.764   0.600   2.037
10653TIP3    H231903   0.844   0.480   2.082
10654TIP3   OH231904   8.143   3.683   0.761
10654TIP3    H131905   8.113   3.597   0.732
10654TIP3    H231906   8.068   3.741   0.747
10655TIP3   OH231907   1.001   4.903   2.122
10655TIP3    H131908   0.936   4.835   2.141
10655TIP3    H231909   1.084   4.865   2.153
10656TIP3   OH231910   6.624   2.967   0.715
10656TIP3    H131911   6.687   3.008   0.656
10656TIP3    H231912   6.675   2.901   0.763
10657TIP3   OH231913   8.073   6.175   5.927
10657TIP3    H131914   8.015   6.242   5.964
10657TIP3    H231915   8.048   6.094   5.971
10658TIP3   OH231916   3.440   5.702   0.843
10658TIP3    H131917   3.488   5.774   0.803
10658TIP3    H231918   3.485   5.623   0.812
10659TIP3   OH231919   3.720   0.749   3.696
10659TIP3    H131920   3.788   0.797   3.649
10659TIP3    H231921   3.704   0.671   3.643
10660TIP3   OH231922   5.663   1.185   5.837
10660TIP3    H131923   5.660   1.111   5.898
10660TIP3    H231924   5.678   1.145   5.751
10661TIP3   OH231925   6.247   6.684   3.891
10661TIP3    H131926   6.317   6.697   3.827
10661TIP3    H231927   6.292   6.675   3.975
10662TIP3   OH231928   3.058   6.135   3.013
10662TIP3    H131929   3.039   6.066   3.077
10662TIP3    H231930   3.084   6.211   3.066
10663TIP3   OH231931   4.053   6.961   4.769
10663TIP3    H131932   4.137   6.968   4.814
10663TIP3    H231933   4.060   7.020   4.694
10664TIP3   OH231934   8.202   0.865   0.546
10664TIP3    H131935   8.199   0.940   0.486
10664TIP3    H231936   8.270   0.888   0.609
10665TIP3   OH231937   6.689   5.760   6.260
10665TIP3    H131938   6.739   5.774   6.341
10665TIP3    H231939   6.628   5.834   6.256
10666TIP3   OH231940   7.708   1.121   6.719
10666TIP3    H131941   7.739   1.177   6.647
10666TIP3    H231942   7.786   1.104   6.771
10667TIP3   OH231943   2.607   1.649   0.116
10667TIP3    H131944   2.674   1.718   0.111
10667TIP3    H231945   2.539   1.686   0.172
10668TIP3   OH231946   2.736   7.739   2.312
10668TIP3    H131947   2.735   7.824   2.356
10668TIP3    H231948   2.729   7.675   2.383
10669TIP3   OH231949   6.374   0.260   4.271
10669TIP3    H131950   6.323   0.341   4.268
10669TIP3    H231951   6.346   0.211   4.193
10670TIP3   OH231952   5.236   5.086   5.978
10670TIP3    H131953   5.225   4.995   6.005
10670TIP3    H231954   5.185   5.094   5.897
10671TIP3   OH231955   8.204   2.052   0.582
10671TIP3    H131956   8.196   2.105   0.662
10671TIP3    H231957   8.170   1.966   0.607
10672TIP3   OH231958   5.974   4.184   1.227
10672TIP3    H131959   5.936   4.227   1.150
10672TIP3    H231960   5.940   4.234   1.302
10673TIP3   OH231961   1.943   1.282   3.008
10673TIP3    H131962   1.888   1.211   2.975
10673TIP3    H231963   2.030   1.262   2.975
10674TIP3   OH231964   7.222   6.060   1.490
10674TIP3    H131965   7.177   6.023   1.414
10674TIP3    H231966   7.161   6.047   1.562
10675TIP3   OH231967   3.425   4.392   3.841
10675TIP3    H131968   3.420   4.347   3.757
10675TIP3    H231969   3.424   4.485   3.819
10676TIP3   OH231970   5.263   3.142   2.705
10676TIP3    H131971   5.245   3.234   2.685
10676TIP3    H231972   5.296   3.106   2.623
10677TIP3   OH231973   3.087   5.018   6.493
10677TIP3    H131974   3.164   5.024   6.436
10677TIP3    H231975   3.014   5.049   6.439
10678TIP3   OH231976   2.117   6.388   0.104
10678TIP3    H131977   2.096   6.416   0.015
10678TIP3    H231978   2.118   6.470   0.155
10679TIP3   OH231979   6.526   6.934   0.967
10679TIP3    H131980   6.601   6.887   0.931
10679TIP3    H231981   6.563   6.997   1.028
10680TIP3   OH231982   4.930   3.193   3.893
10680TIP3    H131983   5.008   3.160   3.938
10680TIP3    H231984   4.935   3.154   3.805
10681TIP3   OH231985   2.769   4.195   0.317
10681TIP3    H131986   2.744   4.125   0.377
10681TIP3    H231987   2.688   4.239   0.295
10682TIP3   OH231988   5.908   0.390   3.145
10682TIP3    H131989   5.841   0.422   3.085
10682TIP3    H231990   5.990   0.429   3.114
10683TIP3   OH231991   1.423   4.183   2.555
10683TIP3    H131992   1.398   4.108   2.609
10683TIP3    H231993   1.381   4.258   2.597
10684TIP3   OH231994   6.892   2.109   2.486
10684TIP3    H131995   6.983   2.085   2.465
10684TIP3    H231996   6.899   2.195   2.527
10685TIP3   OH231997   5.972   3.027   0.656
10685TIP3    H131998   5.944   2.991   0.571
10685TIP3    H231999   6.061   2.995   0.668
10686TIP3   OH232000   5.866   6.154   4.836
10686TIP3    H132001   5.880   6.114   4.921
10686TIP3    H232002   5.811   6.230   4.853
10687TIP3   OH232003   6.681   6.419   1.411
10687TIP3    H132004   6.608   6.444   1.468
10687TIP3    H232005   6.640   6.388   1.331
10688TIP3   OH232006   1.465   7.643   3.349
10688TIP3    H132007   1.507   7.557   3.358
10688TIP3    H232008   1.514   7.700   3.408
10689TIP3   OH232009   2.147   7.387   3.548
10689TIP3    H132010   2.171   7.394   3.640
10689TIP3    H232011   2.181   7.302   3.520
10690TIP3   OH232012   1.447   0.504   1.165
10690TIP3    H132013   1.419   0.562   1.094
10690TIP3    H232014   1.417   0.547   1.245
10691TIP3   OH232015   2.310   3.930   5.127
10691TIP3    H132016   2.255   3.954   5.201
10691TIP3    H232017   2.295   3.836   5.115
10692TIP3   OH232018   2.307   0.695   5.725
10692TIP3    H132019   2.319   0.662   5.636
10692TIP3    H232020   2.320   0.619   5.781
10693TIP3   OH232021   1.669   6.627   3.286
10693TIP3    H132022   1.671   6.706   3.340
10693TIP3    H232023   1.633   6.655   3.202
10694TIP3   OH232024   3.913   3.604   6.694
10694TIP3    H132025   3.916   3.509   6.696
10694TIP3    H232026   3.995   3.630   6.653
10695TIP3   OH232027   1.709   1.291   0.065
10695TIP3    H132028   1.769   1.343   0.119
10695TIP3    H232029   1.667   1.355   0.008
10696TIP3   OH232030   1.988   4.155   4.981
10696TIP3    H132031   2.033   4.103   4.914
10696TIP3    H232032   1.895   4.142   4.964
10697TIP3   OH232033   1.402   0.051   3.481
10697TIP3    H132034   1.368   0.090   3.561
10697TIP3    H232035   1.328   0.054   3.420
10698TIP3   OH232036   0.224   3.009   0.775
10698TIP3    H132037   0.246   3.092   0.734
10698TIP3    H232038   0.259   2.943   0.715
10699TIP3   OH232039   6.203   4.190   5.077
10699TIP3    H132040   6.245   4.157   4.998
10699TIP3    H232041   6.218   4.122   5.143
10700TIP3   OH232042   6.338   3.403   2.744
10700TIP3    H132043   6.255   3.396   2.695
10700TIP3    H232044   6.355   3.497   2.748
10701TIP3   OH232045   7.592   1.228   4.517
10701TIP3    H132046   7.659   1.180   4.469
10701TIP3    H232047   7.596   1.317   4.482
10702TIP3   OH232048   0.630   6.577   1.237
10702TIP3    H132049   0.638   6.483   1.222
10702TIP3    H232050   0.634   6.615   1.149
10703TIP3   OH232051   2.431   5.837   2.276
10703TIP3    H132052   2.350   5.798   2.309
10703TIP3    H232053   2.407   5.926   2.250
10704TIP3   OH232054   2.668   4.620   1.830
10704TIP3    H132055   2.662   4.530   1.798
10704TIP3    H232056   2.586   4.635   1.876
10705TIP3   OH232057   8.239   7.430   4.256
10705TIP3    H132058   8.194   7.472   4.182
10705TIP3    H232059   8.211   7.339   4.252
10706TIP3   OH232060   8.130   1.981   2.070
10706TIP3    H132061   8.191   1.962   1.999
10706TIP3    H232062   8.068   1.908   2.068
10707TIP3   OH232063   4.085   6.170   0.199
10707TIP3    H132064   4.085   6.115   0.121
10707TIP3    H232065   4.076   6.259   0.166
10708TIP3   OH232066   6.874   4.789   2.796
10708TIP3    H132067   6.879   4.853   2.867
10708TIP3    H232068   6.840   4.710   2.836
10709TIP3   OH232069   4.350   3.694   3.997
10709TIP3    H132070   4.411   3.657   3.933
10709TIP3    H232071   4.271   3.713   3.946
10710TIP3   OH232072   1.847   2.780   6.629
10710TIP3    H132073   1.884   2.796   6.542
10710TIP3    H232074   1.922   2.772   6.687
10711TIP3   OH232075   4.173   2.922   2.848
10711TIP3    H132076   4.078   2.932   2.849
10711TIP3    H232077   4.199   2.925   2.940
10712TIP3   OH232078   6.569   3.503   3.975
10712TIP3    H132079   6.477   3.509   4.001
10712TIP3    H232080   6.604   3.431   4.028
10713TIP3   OH232081   8.262   7.077   6.102
10713TIP3    H132082   8.178   7.091   6.145
10713TIP3    H232083   8.243   7.085   6.009
10714TIP3   OH232084   1.054   4.569   1.582
10714TIP3    H132085   1.115   4.613   1.641
10714TIP3    H232086   1.086   4.589   1.494
10715TIP3   OH232087   4.158   2.446   1.422
10715TIP3    H132088   4.182   2.527   1.467
10715TIP3    H232089   4.210   2.447   1.342
10716TIP3   OH232090   8.069   6.590   3.646
10716TIP3    H132091   8.054   6.498   3.625
10716TIP3    H232092   7.998   6.613   3.705
10717TIP3   OH232093   3.631   0.127   5.722
10717TIP3    H132094   3.718   0.126   5.682
10717TIP3    H232095   3.577   0.177   5.661
10718TIP3   OH232096   3.392   5.297   5.940
10718TIP3    H132097   3.340   5.252   6.006
10718TIP3    H232098   3.409   5.230   5.873
10719TIP3   OH232099   1.135   2.138   4.291
10719TIP3    H132100   1.057   2.096   4.326
10719TIP3    H232101   1.127   2.230   4.318
10720TIP3   OH232102   2.431   4.702   0.846
10720TIP3    H132103   2.466   4.664   0.766
10720TIP3    H232104   2.499   4.686   0.912
10721TIP3   OH232105   3.231   6.583   1.649
10721TIP3    H132106   3.143   6.608   1.618
10721TIP3    H232107   3.215   6.509   1.708
10722TIP3   OH232108   0.175   4.181   3.301
10722TIP3    H132109   0.239   4.116   3.271
10722TIP3    H232110   0.090   4.147   3.272
10723TIP3   OH232111   8.274   1.943   1.804
10723TIP3    H132112   8.316   1.862   1.834
10723TIP3    H232113   8.327   1.972   1.730
10724TIP3   OH232114   2.009   2.677   1.540
10724TIP3    H132115   2.023   2.658   1.633
10724TIP3    H232116   2.064   2.614   1.494
10725TIP3   OH232117   6.758   1.104   1.644
10725TIP3    H132118   6.720   1.070   1.725
10725TIP3    H232119   6.841   1.056   1.635
10726TIP3   OH232120   3.771   6.725   5.390
10726TIP3    H132121   3.716   6.769   5.325
10726TIP3    H232122   3.778   6.787   5.462
10727TIP3   OH232123   5.246   3.289   3.651
10727TIP3    H132124   5.157   3.263   3.626
10727TIP3    H232125   5.283   3.211   3.691
10728TIP3   OH232126   0.100   3.773   4.859
10728TIP3    H132127   0.189   3.741   4.877
10728TIP3    H232128   0.092   3.769   4.764
10729TIP3   OH232129   4.599   7.019   1.296
10729TIP3    H132130   4.505   7.002   1.293
10729TIP3    H232131   4.606   7.108   1.331
10730TIP3   OH232132   7.905   6.142   4.938
10730TIP3    H132133   7.966   6.210   4.967
10730TIP3    H232134   7.923   6.068   4.995
10731TIP3   OH232135   1.743   0.470   2.759
10731TIP3    H132136   1.772   0.380   2.776
10731TIP3    H232137   1.753   0.514   2.843
10732TIP3   OH232138   8.026   6.398   0.427
10732TIP3    H132139   8.064   6.470   0.477
10732TIP3    H232140   8.046   6.319   0.478
10733TIP3   OH232141   1.438   4.449   6.118
10733TIP3    H132142   1.463   4.537   6.089
10733TIP3    H232143   1.366   4.464   6.179
10734TIP3   OH232144   0.128   1.627   0.918
10734TIP3    H132145   0.174   1.682   0.854
10734TIP3    H232146   0.053   1.680   0.945
10735TIP3   OH232147   8.137   2.970   1.775
10735TIP3    H132148   8.098   2.919   1.847
10735TIP3    H232149   8.072   2.964   1.705
10736TIP3   OH232150   5.625   0.947   5.437
10736TIP3    H132151   5.549   0.938   5.379
10736TIP3    H232152   5.589   0.935   5.525
10737TIP3   OH232153   4.475   5.597   2.551
10737TIP3    H132154   4.523   5.516   2.569
10737TIP3    H232155   4.534   5.647   2.494
10738TIP3   OH232156   7.616   7.022   2.294
10738TIP3    H132157   7.653   6.979   2.217
10738TIP3    H232158   7.529   6.985   2.303
10739TIP3   OH232159   6.479   1.732   2.596
10739TIP3    H132160   6.482   1.660   2.533
10739TIP3    H232161   6.523   1.805   2.552
10740TIP3   OH232162   1.657   3.933   4.828
10740TIP3    H132163   1.639   3.929   4.922
10740TIP3    H232164   1.689   4.022   4.814
10741TIP3   OH232165   8.150   0.635   5.673
10741TIP3    H132166   8.226   0.626   5.731
10741TIP3    H232167   8.156   0.560   5.614
10742TIP3   OH232168   3.334   6.283   1.218
10742TIP3    H132169   3.263   6.243   1.168
10742TIP3    H232170   3.396   6.313   1.151
10743TIP3   OH232171   6.538   1.266   3.339
10743TIP3    H132172   6.572   1.194   3.287
10743TIP3    H232173   6.551   1.238   3.430
10744TIP3   OH232174   2.056   5.136   5.270
10744TIP3    H132175   2.083   5.184   5.193
10744TIP3    H232176   2.027   5.203   5.332
10745TIP3   OH232177   6.279   0.085   5.258
10745TIP3    H132178   6.276   0.163   5.313
10745TIP3    H232179   6.203   0.034   5.284
10746TIP3   OH232180   1.454   1.161   4.505
10746TIP3    H132181   1.524   1.179   4.567
10746TIP3    H232182   1.492   1.098   4.443
10747TIP3   OH232183   1.303   6.379   0.062
10747TIP3    H132184   1.375   6.316   0.062
10747TIP3    H232185   1.343   6.461   0.094
10748TIP3   OH232186   2.183   1.219   2.895
10748TIP3    H132187   2.271   1.245   2.923
10748TIP3    H232188   2.156   1.288   2.834
10749TIP3   OH232189   1.392   4.922   1.281
10749TIP3    H132190   1.314   4.884   1.320
10749TIP3    H232191   1.372   4.929   1.188
10750TIP3   OH232192   6.041   0.968   3.865
10750TIP3    H132193   6.033   1.029   3.939
10750TIP3    H232194   6.116   1.001   3.815
10751TIP3   OH232195   0.400   6.317   1.494
10751TIP3    H132196   0.422   6.409   1.506
10751TIP3    H232197   0.337   6.317   1.422
10752TIP3   OH232198   5.706   6.946   3.778
10752TIP3    H132199   5.709   6.851   3.771
10752TIP3    H232200   5.787   6.976   3.737
10753TIP3   OH232201   6.058   1.074   0.084
10753TIP3    H132202   5.996   1.116   0.142
10753TIP3    H232203   6.144   1.098   0.119
10754TIP3   OH232204   3.491   6.815   2.886
10754TIP3    H132205   3.517   6.904   2.908
10754TIP3    H232206   3.409   6.801   2.935
10755TIP3   OH232207   5.123   3.364   0.517
10755TIP3    H132208   5.120   3.290   0.578
10755TIP3    H232209   5.174   3.332   0.443
10756TIP3   OH232210   0.731   1.780   3.885
10756TIP3    H132211   0.793   1.837   3.931
10756TIP3    H232212   0.674   1.746   3.954
10757TIP3   OH232213   3.338   3.591   2.660
10757TIP3    H132214   3.388   3.672   2.655
10757TIP3    H232215   3.404   3.521   2.657
10758TIP3   OH232216   7.559   6.640   2.361
10758TIP3    H132217   7.569   6.607   2.271
10758TIP3    H232218   7.520   6.727   2.350
10759TIP3   OH232219   5.683   0.720   0.109
10759TIP3    H132220   5.623   0.688   0.041
10759TIP3    H232221   5.631   0.718   0.189
10760TIP3   OH232222   3.325   5.069   4.746
10760TIP3    H132223   3.325   5.115   4.830
10760TIP3    H232224   3.417   5.053   4.727
10761TIP3   OH232225   1.560   4.828   4.815
10761TIP3    H132226   1.496   4.787   4.872
10761TIP3    H232227   1.624   4.866   4.875
10762TIP3   OH232228   6.170   2.687   6.013
10762TIP3    H132229   6.095   2.740   5.984
10762TIP3    H232230   6.209   2.738   6.083
10763TIP3   OH232231   4.062   3.460   5.460
10763TIP3    H132232   4.001   3.425   5.396
10763TIP3    H232233   4.017   3.537   5.496
10764TIP3   OH232234   0.890   4.861   5.907
10764TIP3    H132235   0.934   4.910   5.977
10764TIP3    H232236   0.886   4.923   5.834
10765TIP3   OH232237   5.555   0.406   4.014
10765TIP3    H132238   5.596   0.413   4.100
10765TIP3    H232239   5.463   0.429   4.029
10766TIP3   OH232240   0.243   4.297   6.234
10766TIP3    H132241   0.297   4.292   6.155
10766TIP3    H232242   0.231   4.391   6.249
10767TIP3   OH232243   0.632   2.668   5.061
10767TIP3    H132244   0.567   2.737   5.072
10767TIP3    H232245   0.714   2.705   5.094
10768TIP3   OH232246   3.900   6.293   6.120
10768TIP3    H132247   3.928   6.301   6.211
10768TIP3    H232248   3.981   6.289   6.069
10769TIP3   OH232249   0.851   4.638   4.077
10769TIP3    H132250   0.788   4.643   4.005
10769TIP3    H232251   0.841   4.722   4.123
10770TIP3   OH232252   8.019   1.935   6.673
10770TIP3    H132253   8.033   1.925   6.579
10770TIP3    H232254   8.083   1.875   6.713
10771TIP3   OH232255   1.971   0.952   6.211
10771TIP3    H132256   1.881   0.948   6.179
10771TIP3    H232257   1.967   0.917   6.300
10772TIP3   OH232258   4.878   4.162   1.019
10772TIP3    H132259   4.892   4.250   0.985
10772TIP3    H232260   4.901   4.104   0.947
10773TIP3   OH232261   8.188   3.725   1.376
10773TIP3    H132262   8.179   3.779   1.455
10773TIP3    H232263   8.137   3.771   1.310
10774TIP3   OH232264   2.274   1.682   5.001
10774TIP3    H132265   2.248   1.640   5.084
10774TIP3    H232266   2.212   1.754   4.991
10775TIP3   OH232267   1.087   3.873   2.090
10775TIP3    H132268   1.099   3.963   2.060
10775TIP3    H232269   1.024   3.835   2.029
10776TIP3   OH232270   2.197   2.397   1.242
10776TIP3    H132271   2.145   2.390   1.162
10776TIP3    H232272   2.194   2.309   1.280
10777TIP3   OH232273   6.939   2.945   0.390
10777TIP3    H132274   6.971   2.876   0.448
10777TIP3    H232275   6.892   3.005   0.448
10778TIP3   OH232276   4.629   5.133   5.693
10778TIP3    H132277   4.699   5.180   5.649
10778TIP3    H232278   4.586   5.199   5.747
10779TIP3   OH232279   7.914   1.776   1.339
10779TIP3    H132280   7.974   1.844   1.309
10779TIP3    H232281   7.892   1.801   1.429
10780TIP3   OH232282   7.451   1.735   3.092
10780TIP3    H132283   7.523   1.703   3.038
10780TIP3    H232284   7.477   1.824   3.117
10781TIP3   OH232285   2.921   4.885   6.112
10781TIP3    H132286   2.829   4.861   6.097
10781TIP3    H232287   2.970   4.805   6.092
10782TIP3   OH232288   6.851   2.948   3.370
10782TIP3    H132289   6.867   3.043   3.365
10782TIP3    H232290   6.906   2.911   3.301
10783TIP3   OH232291   0.910   3.294   4.606
10783TIP3    H132292   0.895   3.200   4.615
10783TIP3    H232293   0.993   3.300   4.559
10784TIP3   OH232294   4.048   5.873   4.263
10784TIP3    H132295   4.102   5.797   4.240
10784TIP3    H232296   4.053   5.878   4.359
10785TIP3   OH232297   4.709   6.665   4.088
10785TIP3    H132298   4.642   6.648   4.155
10785TIP3    H232299   4.777   6.600   4.106
10786TIP3   OH232300   4.910   5.417   1.144
10786TIP3    H132301   4.848   5.359   1.187
10786TIP3    H232302   4.976   5.435   1.210
10787TIP3   OH232303   3.897   2.932   2.861
10787TIP3    H132304   3.833   2.924   2.931
10787TIP3    H232305   3.850   2.979   2.791
10788TIP3   OH232306   0.069   4.369   1.248
10788TIP3    H132307   0.072   4.464   1.235
10788TIP3    H232308   0.114   4.333   1.172
10789TIP3   OH232309   7.953   7.450   3.478
10789TIP3    H132310   7.912   7.533   3.499
10789TIP3    H232311   8.011   7.469   3.403
10790TIP3   OH232312   4.506   2.226   3.471
10790TIP3    H132313   4.466   2.190   3.550
10790TIP3    H232314   4.453   2.191   3.400
10791TIP3   OH232315   4.218   6.021   2.044
10791TIP3    H132316   4.253   5.987   1.962
10791TIP3    H232317   4.275   6.094   2.067
10792TIP3   OH232318   1.131   5.361   2.212
10792TIP3    H132319   1.220   5.395   2.220
10792TIP3    H232320   1.107   5.337   2.302
10793TIP3   OH232321   0.938   6.352   0.125
10793TIP3    H132322   0.962   6.270   0.169
10793TIP3    H232323   0.846   6.365   0.150
10794TIP3   OH232324   7.219   4.233   3.876
10794TIP3    H132325   7.198   4.212   3.785
10794TIP3    H232326   7.220   4.328   3.880
10795TIP3   OH232327   0.033   5.423   2.634
10795TIP3    H132328   0.030   5.389   2.544
10795TIP3    H232329   0.076   5.508   2.626
10796TIP3   OH232330   3.548   6.253   6.619
10796TIP3    H132331   3.565   6.198   6.543
10796TIP3    H232332   3.548   6.343   6.585
10797TIP3   OH232333   4.964   2.155   4.597
10797TIP3    H132334   4.893   2.209   4.561
10797TIP3    H232335   5.011   2.214   4.657
10798TIP3   OH232336   5.075   2.647   6.553
10798TIP3    H132337   5.037   2.709   6.490
10798TIP3    H232338   5.141   2.600   6.503
10799TIP3   OH232339   7.298   0.322   2.315
10799TIP3    H132340   7.236   0.255   2.342
10799TIP3    H232341   7.298   0.317   2.219
10800TIP3   OH232342   2.006   7.444   3.296
10800TIP3    H132343   2.045   7.412   3.378
10800TIP3    H232344   1.923   7.483   3.324
10801TIP3   OH232345   1.204   0.149   3.313
10801TIP3    H132346   1.267   0.139   3.242
10801TIP3    H232347   1.144   0.218   3.283
10802TIP3   OH232348   5.564   7.179   3.727
10802TIP3    H132349   5.533   7.158   3.640
10802TIP3    H232350   5.632   7.114   3.745
10803TIP3   OH232351   3.581   2.647   6.760
10803TIP3    H132352   3.633   2.633   6.681
10803TIP3    H232353   3.498   2.683   6.728
10804TIP3   OH232354   8.239   3.195   4.512
10804TIP3    H132355   8.252   3.267   4.574
10804TIP3    H232356   8.146   3.198   4.491
10805TIP3   OH232357   6.198   6.811   0.708
10805TIP3    H132358   6.204   6.876   0.778
10805TIP3    H232359   6.280   6.761   0.716
10806TIP3   OH232360   2.779   6.353   1.823
10806TIP3    H132361   2.702   6.408   1.805
10806TIP3    H232362   2.839   6.411   1.869
10807TIP3   OH232363   6.462   1.210   0.576
10807TIP3    H132364   6.486   1.145   0.642
10807TIP3    H232365   6.529   1.277   0.582
10808TIP3   OH232366   4.898   1.375   6.644
10808TIP3    H132367   4.865   1.324   6.719
10808TIP3    H232368   4.993   1.361   6.645
10809TIP3   OH232369   6.951   5.621   5.936
10809TIP3    H132370   6.991   5.534   5.925
10809TIP3    H232371   7.008   5.665   5.999
10810TIP3   OH232372   5.113   5.338   0.159
10810TIP3    H132373   5.148   5.253   0.185
10810TIP3    H232374   5.026   5.341   0.197
10811TIP3   OH232375   1.594   3.866   2.315
10811TIP3    H132376   1.524   3.835   2.257
10811TIP3    H232377   1.663   3.897   2.256
10812TIP3   OH232378   3.522   0.143   0.049
10812TIP3    H132379   3.567   0.064   0.079
10812TIP3    H232380   3.590   0.195   0.007
10813TIP3   OH232381   4.631   4.147   1.385
10813TIP3    H132382   4.613   4.057   1.412
10813TIP3    H232383   4.652   4.140   1.292
10814TIP3   OH232384   5.532   7.386   0.513
10814TIP3    H132385   5.605   7.433   0.473
10814TIP3    H232386   5.454   7.429   0.477
10815TIP3   OH232387   2.709   2.268   4.928
10815TIP3    H132388   2.653   2.341   4.956
10815TIP3    H232389   2.730   2.287   4.837
10816TIP3   OH232390   0.332   6.368   2.694
10816TIP3    H132391   0.326   6.289   2.748
10816TIP3    H232392   0.279   6.349   2.617
10817TIP3   OH232393   3.384   7.774   5.488
10817TIP3    H132394   3.400   7.690   5.531
10817TIP3    H232395   3.470   7.817   5.488
10818TIP3   OH232396   4.293   5.108   1.902
10818TIP3    H132397   4.261   5.019   1.915
10818TIP3    H232398   4.220   5.163   1.929
10819TIP3   OH232399   4.610   5.360   4.176
10819TIP3    H132400   4.578   5.284   4.126
10819TIP3    H232401   4.567   5.435   4.135
10820TIP3   OH232402   7.145   3.375   3.549
10820TIP3    H132403   7.149   3.281   3.534
10820TIP3    H232404   7.070   3.387   3.607
10821TIP3   OH232405   6.842   2.132   4.444
10821TIP3    H132406   6.784   2.208   4.431
10821TIP3    H232407   6.824   2.104   4.534
10822TIP3   OH232408   2.282   1.628   2.567
10822TIP3    H132409   2.222   1.691   2.527
10822TIP3    H232410   2.364   1.678   2.577
10823TIP3   OH232411   0.122   7.719   5.695
10823TIP3    H132412   0.076   7.672   5.625
10823TIP3    H232413   0.055   7.777   5.733
10824TIP3   OH232414   7.255   6.119   1.881
10824TIP3    H132415   7.348   6.127   1.858
10824TIP3    H232416   7.226   6.208   1.897
10825TIP3   OH232417   0.247   1.808   2.159
10825TIP3    H132418   0.195   1.787   2.237
10825TIP3    H232419   0.182   1.819   2.090
10826TIP3   OH232420   7.561   1.885   2.386
10826TIP3    H132421   7.576   1.857   2.296
10826TIP3    H232422   7.477   1.846   2.409
10827TIP3   OH232423   5.744   3.249   4.625
10827TIP3    H132424   5.753   3.156   4.602
10827TIP3    H232425   5.656   3.256   4.661
10828TIP3   OH232426   4.242   2.781   4.894
10828TIP3    H132427   4.322   2.731   4.883
10828TIP3    H232428   4.179   2.719   4.931
10829TIP3   OH232429   7.454   1.261   3.800
10829TIP3    H132430   7.517   1.274   3.870
10829TIP3    H232431   7.403   1.342   3.798
10830TIP3   OH232432   8.133   3.245   2.159
10830TIP3    H132433   8.095   3.230   2.072
10830TIP3    H232434   8.155   3.157   2.191
10831TIP3   OH232435   7.032   2.731   3.210
10831TIP3    H132436   7.043   2.782   3.130
10831TIP3    H232437   6.939   2.711   3.214
10832TIP3   OH232438   7.343   3.846   1.125
10832TIP3    H132439   7.291   3.919   1.091
10832TIP3    H232440   7.280   3.775   1.139
10833TIP3   OH232441   5.105   3.968   5.508
10833TIP3    H132442   5.046   3.998   5.577
10833TIP3    H232443   5.055   3.978   5.427
10834TIP3   OH232444   1.523   0.746   2.196
10834TIP3    H132445   1.435   0.770   2.223
10834TIP3    H232446   1.544   0.667   2.247
10835TIP3   OH232447   0.060   4.847   4.789
10835TIP3    H132448   0.138   4.857   4.735
10835TIP3    H232449   0.014   4.931   4.781
10836TIP3   OH232450   5.992   3.411   2.978
10836TIP3    H132451   5.978   3.319   3.000
10836TIP3    H232452   5.911   3.437   2.934
10837TIP3   OH232453   8.288   3.234   5.487
10837TIP3    H132454   8.242   3.151   5.500
10837TIP3    H232455   8.360   3.232   5.550
10838TIP3   OH232456   0.142   5.085   3.068
10838TIP3    H132457   0.141   5.103   3.162
10838TIP3    H232458   0.086   5.152   3.030
10839TIP3   OH232459   2.235   4.477   0.155
10839TIP3    H132460   2.149   4.515   0.141
10839TIP3    H232461   2.293   4.552   0.170
10840TIP3   OH232462   4.364   0.069   0.450
10840TIP3    H132463   4.329   0.109   0.370
10840TIP3    H232464   4.305   0.098   0.519
10841TIP3   OH232465   0.657   6.935   2.855
10841TIP3    H132466   0.677   6.880   2.931
10841TIP3    H232467   0.574   6.899   2.821
10842TIP3   OH232468   0.666   1.226   2.414
10842TIP3    H132469   0.601   1.178   2.465
10842TIP3    H232470   0.617   1.263   2.341
10843TIP3   OH232471   0.051   3.302   5.216
10843TIP3    H132472   0.108   3.226   5.204
10843TIP3    H232473   0.026   3.298   5.308
10844TIP3   OH232474   7.695   0.273   5.579
10844TIP3    H132475   7.778   0.309   5.609
10844TIP3    H232476   7.667   0.215   5.650
10845TIP3   OH232477   5.209   5.322   1.600
10845TIP3    H132478   5.261   5.271   1.662
10845TIP3    H232479   5.208   5.269   1.520
10846TIP3   OH232480   7.409   5.281   5.284
10846TIP3    H132481   7.402   5.353   5.347
10846TIP3    H232482   7.499   5.289   5.250
10847TIP3   OH232483   4.461   6.064   2.268
10847TIP3    H132484   4.530   6.097   2.326
10847TIP3    H232485   4.396   6.027   2.327
10848TIP3   OH232486   3.024   4.510   2.640
10848TIP3    H132487   3.063   4.590   2.676
10848TIP3    H232488   3.035   4.445   2.709
10849TIP3   OH232489   1.508   1.608   4.272
10849TIP3    H132490   1.460   1.540   4.321
10849TIP3    H232491   1.445   1.639   4.207
10850TIP3   OH232492   1.027   4.569   5.133
10850TIP3    H132493   0.943   4.583   5.089
10850TIP3    H232494   1.016   4.487   5.181
10851TIP3   OH232495   6.267   5.433   4.650
10851TIP3    H132496   6.259   5.504   4.714
10851TIP3    H232497   6.327   5.466   4.584
10852TIP3   OH232498   0.596   7.026   6.489
10852TIP3    H132499   0.530   7.014   6.557
10852TIP3    H232500   0.677   6.991   6.527
10853TIP3   OH232501   5.804   1.654   0.759
10853TIP3    H132502   5.862   1.680   0.687
10853TIP3    H232503   5.863   1.633   0.831
10854TIP3   OH232504   8.252   4.437   1.643
10854TIP3    H132505   8.275   4.370   1.708
10854TIP3    H232506   8.260   4.520   1.690
10855TIP3   OH232507   3.471   0.137   1.861
10855TIP3    H132508   3.411   0.174   1.926
10855TIP3    H232509   3.469   0.043   1.879
10856TIP3   OH232510   7.207   0.493   0.021
10856TIP3    H132511   7.166   0.407   0.016
10856TIP3    H232512   7.300   0.477   0.002
10857TIP3   OH232513   3.418   4.684   4.319
10857TIP3    H132514   3.352   4.733   4.269
10857TIP3    H232515   3.379   4.674   4.406
10858TIP3   OH232516   4.245   5.098   0.245
10858TIP3    H132517   4.214   5.104   0.335
10858TIP3    H232518   4.340   5.093   0.252
10859TIP3   OH232519   5.014   7.205   0.804
10859TIP3    H132520   4.935   7.185   0.754
10859TIP3    H232521   5.005   7.153   0.884
10860TIP3   OH232522   5.412   1.616   5.026
10860TIP3    H132523   5.381   1.544   4.971
10860TIP3    H232524   5.368   1.603   5.110
10861TIP3   OH232525   7.255   6.549   3.508
10861TIP3    H132526   7.198   6.608   3.558
10861TIP3    H232527   7.202   6.524   3.432
10862TIP3   OH232528   5.292   6.039   2.186
10862TIP3    H132529   5.246   5.985   2.121
10862TIP3    H232530   5.314   6.119   2.138
10863TIP3   OH232531   5.165   7.632   5.131
10863TIP3    H132532   5.076   7.601   5.148
10863TIP3    H232533   5.205   7.562   5.078
10864TIP3   OH232534   0.508   1.630   0.382
10864TIP3    H132535   0.561   1.590   0.313
10864TIP3    H232536   0.535   1.721   0.384
10865TIP3   OH232537   6.740   4.504   2.497
10865TIP3    H132538   6.705   4.564   2.563
10865TIP3    H232539   6.715   4.544   2.413
10866TIP3   OH232540   6.527   7.546   2.963
10866TIP3    H132541   6.513   7.496   3.043
10866TIP3    H232542   6.516   7.637   2.989
10867TIP3   OH232543   5.138   7.312   5.439
10867TIP3    H132544   5.206   7.264   5.391
10867TIP3    H232545   5.057   7.265   5.420
10868TIP3   OH232546   1.482   5.782   5.920
10868TIP3    H132547   1.401   5.825   5.892
10868TIP3    H232548   1.471   5.690   5.895
10869TIP3   OH232549   4.728   1.290   1.581
10869TIP3    H132550   4.668   1.335   1.641
10869TIP3    H232551   4.728   1.343   1.502
10870TIP3   OH232552   3.314   6.880   5.996
10870TIP3    H132553   3.313   6.962   5.947
10870TIP3    H232554   3.347   6.815   5.933
10871TIP3   OH232555   3.061   6.345   4.794
10871TIP3    H132556   3.116   6.404   4.845
10871TIP3    H232557   2.987   6.325   4.851
10872TIP3   OH232558   4.194   1.807   5.791
10872TIP3    H132559   4.282   1.770   5.795
10872TIP3    H232560   4.140   1.738   5.753
10873TIP3   OH232561   1.581   4.243   3.407
10873TIP3    H132562   1.504   4.189   3.394
10873TIP3    H232563   1.654   4.182   3.405
10874TIP3   OH232564   7.610   7.537   6.595
10874TIP3    H132565   7.612   7.562   6.688
10874TIP3    H232566   7.636   7.616   6.548
10875TIP3   OH232567   7.986   1.986   2.799
10875TIP3    H132568   7.941   1.966   2.880
10875TIP3    H232569   8.043   1.911   2.783
10876TIP3   OH232570   1.977   1.935   0.465
10876TIP3    H132571   1.936   1.887   0.536
10876TIP3    H232572   2.070   1.937   0.487
10877TIP3   OH232573   3.757   3.531   0.524
10877TIP3    H132574   3.801   3.587   0.589
10877TIP3    H232575   3.668   3.522   0.558
10878TIP3   OH232576   6.180   5.287   3.578
10878TIP3    H132577   6.189   5.352   3.648
10878TIP3    H232578   6.108   5.231   3.606
10879TIP3   OH232579   5.469   7.129   4.702
10879TIP3    H132580   5.406   7.059   4.685
10879TIP3    H232581   5.471   7.180   4.621
10880TIP3   OH232582   7.167   1.705   4.104
10880TIP3    H132583   7.215   1.693   4.186
10880TIP3    H232584   7.119   1.623   4.092
10881TIP3   OH232585   6.898   3.305   3.729
10881TIP3    H132586   6.942   3.314   3.813
10881TIP3    H232587   6.832   3.375   3.729
10882TIP3   OH232588   2.248   0.525   5.072
10882TIP3    H132589   2.265   0.463   5.001
10882TIP3    H232590   2.158   0.506   5.098
10883TIP3   OH232591   6.787   2.201   5.468
10883TIP3    H132592   6.716   2.260   5.445
10883TIP3    H232593   6.764   2.168   5.555
10884TIP3   OH232594   6.450   6.462   4.312
10884TIP3    H132595   6.500   6.543   4.305
10884TIP3    H232596   6.360   6.491   4.331
10885TIP3   OH232597   7.281   1.267   6.750
10885TIP3    H132598   7.352   1.237   6.808
10885TIP3    H232599   7.275   1.199   6.683
10886TIP3   OH232600   7.690   5.164   6.625
10886TIP3    H132601   7.618   5.102   6.641
10886TIP3    H232602   7.726   5.181   6.712
10887TIP3   OH232603   3.966   4.267   3.176
10887TIP3    H132604   4.054   4.242   3.148
10887TIP3    H232605   3.912   4.191   3.155
10888TIP3   OH232606   3.453   3.143   4.119
10888TIP3    H132607   3.498   3.098   4.190
10888TIP3    H232608   3.386   3.196   4.162
10889TIP3   OH232609   5.316   0.149   4.077
10889TIP3    H132610   5.338   0.181   3.990
10889TIP3    H232611   5.264   0.071   4.061
10890TIP3   OH232612   5.503   4.751   2.695
10890TIP3    H132613   5.516   4.689   2.766
10890TIP3    H232614   5.409   4.745   2.675
10891TIP3   OH232615   1.053   2.359   4.912
10891TIP3    H132616   1.013   2.445   4.925
10891TIP3    H232617   1.124   2.356   4.977
10892TIP3   OH232618   0.906   2.145   1.863
10892TIP3    H132619   0.980   2.194   1.827
10892TIP3    H232620   0.930   2.130   1.954
10893TIP3   OH232621   7.042   2.769   0.581
10893TIP3    H132622   7.087   2.795   0.661
10893TIP3    H232623   6.985   2.696   0.608
10894TIP3   OH232624   6.810   6.473   1.986
10894TIP3    H132625   6.753   6.547   2.007
10894TIP3    H232626   6.847   6.446   2.070
10895TIP3   OH232627   3.989   6.044   0.793
10895TIP3    H132628   4.033   6.090   0.865
10895TIP3    H232629   4.033   6.076   0.714
10896TIP3   OH232630   4.543   0.044   3.301
10896TIP3    H132631   4.603   0.088   3.242
10896TIP3    H232632   4.457   0.076   3.276
10897TIP3   OH232633   6.966   3.606   4.740
10897TIP3    H132634   6.944   3.694   4.771
10897TIP3    H232635   7.001   3.620   4.652
10898TIP3   OH232636   6.688   7.219   2.598
10898TIP3    H132637   6.650   7.291   2.547
10898TIP3    H232638   6.691   7.146   2.537
10899TIP3   OH232639   2.133   3.295   6.203
10899TIP3    H132640   2.184   3.255   6.133
10899TIP3    H232641   2.042   3.290   6.173
10900TIP3   OH232642   2.667   6.945   4.469
10900TIP3    H132643   2.663   6.853   4.495
10900TIP3    H232644   2.575   6.972   4.467
10901TIP3   OH232645   2.385   1.459   1.040
10901TIP3    H132646   2.397   1.393   0.972
10901TIP3    H232647   2.303   1.503   1.018
10902TIP3   OH232648   2.386   6.889   0.158
10902TIP3    H132649   2.473   6.925   0.143
10902TIP3    H232650   2.369   6.904   0.251
10903TIP3   OH232651   7.658   7.803   6.442
10903TIP3    H132652   7.570   7.838   6.426
10903TIP3    H232653   7.714   7.881   6.449
10904TIP3   OH232654   2.336   1.628   3.624
10904TIP3    H132655   2.354   1.611   3.531
10904TIP3    H232656   2.421   1.651   3.661
10905TIP3   OH232657   2.262   0.557   1.634
10905TIP3    H132658   2.246   0.522   1.722
10905TIP3    H232659   2.331   0.623   1.646
10906TIP3   OH232660   6.349   0.076   3.791
10906TIP3    H132661   6.370   0.065   3.884
10906TIP3    H232662   6.289   0.004   3.771
10907TIP3   OH232663   0.739   5.151   1.808
10907TIP3    H132664   0.768   5.064   1.779
10907TIP3    H232665   0.744   5.205   1.729
10908TIP3   OH232666   7.266   2.882   3.424
10908TIP3    H132667   7.305   2.852   3.506
10908TIP3    H232668   7.263   2.803   3.369
10909TIP3   OH232669   7.977   2.735   5.887
10909TIP3    H132670   8.007   2.648   5.860
10909TIP3    H232671   7.881   2.730   5.880
10910TIP3   OH232672   2.223   7.523   1.985
10910TIP3    H132673   2.299   7.534   2.043
10910TIP3    H232674   2.258   7.538   1.897
10911TIP3   OH232675   1.086   0.199   2.463
10911TIP3    H132676   1.071   0.280   2.415
10911TIP3    H232677   1.019   0.199   2.532
10912TIP3   OH232678   5.800   5.089   0.582
10912TIP3    H132679   5.841   5.036   0.514
10912TIP3    H232680   5.860   5.163   0.594
10913TIP3   OH232681   7.383   4.115   1.762
10913TIP3    H132682   7.355   4.024   1.750
10913TIP3    H232683   7.470   4.108   1.800
10914TIP3   OH232684   5.431   5.242   3.558
10914TIP3    H132685   5.451   5.315   3.498
10914TIP3    H232686   5.517   5.209   3.584
10915TIP3   OH232687   5.154   7.586   4.391
10915TIP3    H132688   5.248   7.583   4.404
10915TIP3    H232689   5.138   7.672   4.350
10916TIP3   OH232690   8.243   7.478   6.150
10916TIP3    H132691   8.250   7.573   6.155
10916TIP3    H232692   8.328   7.445   6.179
10917TIP3   OH232693   4.870   3.376   4.542
10917TIP3    H132694   4.840   3.465   4.526
10917TIP3    H232695   4.864   3.365   4.637
10918TIP3   OH232696   4.593   2.720   6.143
10918TIP3    H132697   4.662   2.675   6.192
10918TIP3    H232698   4.585   2.805   6.186
10919TIP3   OH232699   4.687   5.356   3.648
10919TIP3    H132700   4.674   5.269   3.611
10919TIP3    H232701   4.758   5.344   3.711
10920TIP3   OH232702   0.291   6.634   2.546
10920TIP3    H132703   0.365   6.659   2.491
10920TIP3    H232704   0.316   6.551   2.585
10921TIP3   OH232705   7.853   3.134   5.472
10921TIP3    H132706   7.760   3.131   5.449
10921TIP3    H232707   7.884   3.044   5.462
10922TIP3   OH232708   0.476   0.309   2.084
10922TIP3    H132709   0.454   0.380   2.024
10922TIP3    H232710   0.419   0.237   2.057
10923TIP3   OH232711   5.935   0.580   6.212
10923TIP3    H132712   5.984   0.621   6.141
10923TIP3    H232713   5.858   0.542   6.170
10924TIP3   OH232714   4.818   3.964   3.478
10924TIP3    H132715   4.815   3.869   3.493
10924TIP3    H232716   4.905   3.990   3.509
10925TIP3   OH232717   3.405   4.731   5.491
10925TIP3    H132718   3.336   4.755   5.430
10925TIP3    H232719   3.448   4.814   5.512
10926TIP3   OH232720   2.906   5.635   4.076
10926TIP3    H132721   2.988   5.619   4.124
10926TIP3    H232722   2.907   5.729   4.058
10927TIP3   OH232723   0.261   0.153   6.179
10927TIP3    H132724   0.206   0.194   6.246
10927TIP3    H232725   0.231   0.062   6.176
10928TIP3   OH232726   7.905   2.409   4.726
10928TIP3    H132727   7.926   2.456   4.645
10928TIP3    H232728   7.815   2.436   4.746
10929TIP3   OH232729   4.923   1.470   1.983
10929TIP3    H132730   4.995   1.515   1.938
10929TIP3    H232731   4.942   1.480   2.076
10930TIP3   OH232732   2.054   5.081   4.107
10930TIP3    H132733   2.129   5.087   4.048
10930TIP3    H232734   1.998   5.014   4.067
10931TIP3   OH232735   5.467   2.851   4.318
10931TIP3    H132736   5.456   2.944   4.334
10931TIP3    H232737   5.389   2.824   4.271
10932TIP3   OH232738   2.389   2.215   5.963
10932TIP3    H132739   2.445   2.215   5.886
10932TIP3    H232740   2.449   2.230   6.036
10933TIP3   OH232741   3.407   7.151   1.370
10933TIP3    H132742   3.362   7.221   1.418
10933TIP3    H232743   3.390   7.171   1.278
10934TIP3   OH232744   7.129   1.435   5.981
10934TIP3    H132745   7.179   1.512   5.953
10934TIP3    H232746   7.126   1.441   6.077
10935TIP3   OH232747   2.864   0.500   4.318
10935TIP3    H132748   2.902   0.527   4.401
10935TIP3    H232749   2.778   0.465   4.342
10936TIP3   OH232750   5.911   3.566   3.419
10936TIP3    H132751   5.852   3.493   3.399
10936TIP3    H232752   5.890   3.590   3.509
10937TIP3   OH232753   5.759   6.958   4.172
10937TIP3    H132754   5.677   6.945   4.123
10937TIP3    H232755   5.819   6.892   4.136
10938TIP3   OH232756   2.280   3.382   1.287
10938TIP3    H132757   2.370   3.379   1.320
10938TIP3    H232758   2.272   3.306   1.231
10939TIP3   OH232759   3.075   5.855   2.599
10939TIP3    H132760   3.055   5.786   2.536
10939TIP3    H232761   3.013   5.925   2.579
10940TIP3   OH232762   3.081   4.047   4.566
10940TIP3    H132763   3.152   4.086   4.514
10940TIP3    H232764   3.117   3.963   4.596
10941TIP3   OH232765   6.523   4.189   1.968
10941TIP3    H132766   6.599   4.212   2.020
10941TIP3    H232767   6.476   4.272   1.956
10942TIP3   OH232768   4.765   7.434   5.780
10942TIP3    H132769   4.746   7.354   5.731
10942TIP3    H232770   4.679   7.472   5.798
10943TIP3   OH232771   7.537   6.099   0.916
10943TIP3    H132772   7.576   6.038   0.979
10943TIP3    H232773   7.466   6.048   0.875
10944TIP3   OH232774   5.934   2.446   0.822
10944TIP3    H132775   5.974   2.388   0.757
10944TIP3    H232776   5.938   2.533   0.782
10945TIP3   OH232777   7.607   2.131   2.128
10945TIP3    H132778   7.536   2.153   2.068
10945TIP3    H232779   7.568   2.137   2.215
10946TIP3   OH232780   1.627   0.015   6.602
10946TIP3    H132781   1.621   0.101   6.560
10946TIP3    H232782   1.571  -0.042   6.548
10947TIP3   OH232783   7.906   5.363   1.782
10947TIP3    H132784   7.891   5.438   1.725
10947TIP3    H232785   7.981   5.388   1.836
10948TIP3   OH232786   2.308   3.423   3.189
10948TIP3    H132787   2.263   3.505   3.209
10948TIP3    H232788   2.237   3.359   3.180
10949TIP3   OH232789   4.725   1.404   4.848
10949TIP3    H132790   4.752   1.468   4.913
10949TIP3    H232791   4.672   1.453   4.786
10950TIP3   OH232792   7.254   1.694   5.216
10950TIP3    H132793   7.202   1.614   5.213
10950TIP3    H232794   7.228   1.742   5.137
10951TIP3   OH232795   6.611   7.172   1.198
10951TIP3    H132796   6.644   7.251   1.155
10951TIP3    H232797   6.690   7.129   1.232
10952TIP3   OH232798   6.805   2.331   0.273
10952TIP3    H132799   6.845   2.280   0.344
10952TIP3    H232800   6.716   2.348   0.304
10953TIP3   OH232801   5.196   3.242   0.281
10953TIP3    H132802   5.133   3.256   0.210
10953TIP3    H232803   5.278   3.219   0.237
10954TIP3   OH232804   3.578   7.294   1.770
10954TIP3    H132805   3.634   7.260   1.700
10954TIP3    H232806   3.517   7.223   1.789
10955TIP3   OH232807   6.249   5.614   5.319
10955TIP3    H132808   6.163   5.600   5.358
10955TIP3    H232809   6.232   5.649   5.232
10956TIP3   OH232810   5.151   5.512   5.269
10956TIP3    H132811   5.220   5.545   5.327
10956TIP3    H232812   5.086   5.582   5.268
10957TIP3   OH232813   0.514   2.862   0.363
10957TIP3    H132814   0.602   2.868   0.401
10957TIP3    H232815   0.527   2.879   0.270
10958TIP3   OH232816   7.634   2.533   3.308
10958TIP3    H132817   7.710   2.587   3.289
10958TIP3    H232818   7.637   2.462   3.244
10959TIP3   OH232819   4.803   6.734   4.988
10959TIP3    H132820   4.803   6.712   4.895
10959TIP3    H232821   4.757   6.661   5.030
10960TIP3   OH232822   0.146   5.217   3.370
10960TIP3    H132823   0.069   5.207   3.427
10960TIP3    H232824   0.191   5.133   3.376
10961TIP3   OH232825   1.920   0.913   4.397
10961TIP3    H132826   1.990   0.977   4.386
10961TIP3    H232827   1.962   0.828   4.381
10962TIP3   OH232828   4.680   2.862   1.277
10962TIP3    H132829   4.730   2.855   1.196
10962TIP3    H232830   4.682   2.774   1.315
10963TIP3   OH232831   4.927   1.463   5.234
10963TIP3    H132832   4.937   1.478   5.328
10963TIP3    H232833   4.965   1.540   5.193
10964TIP3   OH232834   6.243   3.125   2.746
10964TIP3    H132835   6.293   3.043   2.754
10964TIP3    H232836   6.311   3.192   2.737
10965TIP3   OH232837   1.562   3.648   3.642
10965TIP3    H132838   1.501   3.680   3.576
10965TIP3    H232839   1.514   3.579   3.688
10966TIP3   OH232840   6.318   1.005   2.393
10966TIP3    H132841   6.251   1.043   2.450
10966TIP3    H232842   6.353   1.080   2.345
10967TIP3   OH232843   5.476   4.353   4.323
10967TIP3    H132844   5.473   4.258   4.323
10967TIP3    H232845   5.569   4.374   4.335
10968TIP3   OH232846   5.984   5.927   5.606
10968TIP3    H132847   5.993   6.016   5.641
10968TIP3    H232848   6.019   5.933   5.517
10969TIP3   OH232849   8.249   1.852   3.892
10969TIP3    H132850   8.187   1.921   3.868
10969TIP3    H232851   8.202   1.771   3.873
10970TIP3   OH232852   3.608   5.125   3.109
10970TIP3    H132853   3.654   5.117   3.025
10970TIP3    H232854   3.515   5.127   3.085
10971TIP3   OH232855   2.804   0.828   3.230
10971TIP3    H132856   2.787   0.734   3.226
10971TIP3    H232857   2.868   0.838   3.301
10972TIP3   OH232858   0.810   1.742   2.964
10972TIP3    H132859   0.783   1.821   3.012
10972TIP3    H232860   0.727   1.700   2.940
10973TIP3   OH232861   3.692   1.149   2.348
10973TIP3    H132862   3.676   1.195   2.265
10973TIP3    H232863   3.769   1.096   2.331
10974TIP3   OH232864   5.969   2.070   0.807
10974TIP3    H132865   6.022   2.148   0.822
10974TIP3    H232866   6.015   2.000   0.853
10975TIP3   OH232867   2.916   6.883   3.461
10975TIP3    H132868   2.869   6.917   3.537
10975TIP3    H232869   2.859   6.815   3.425
10976TIP3   OH232870   6.642   4.903   5.667
10976TIP3    H132871   6.658   4.819   5.623
10976TIP3    H232872   6.608   4.960   5.598
10977TIP3   OH232873   1.052   2.807   1.914
10977TIP3    H132874   0.972   2.832   1.959
10977TIP3    H232875   1.029   2.806   1.821
10978TIP3   OH232876   2.002   4.338   5.675
10978TIP3    H132877   2.034   4.428   5.682
10978TIP3    H232878   1.910   4.347   5.649
10979TIP3   OH232879   6.683   4.632   0.460
10979TIP3    H132880   6.763   4.613   0.509
10979TIP3    H232881   6.664   4.551   0.413
10980TIP3   OH232882   3.986   0.288   0.443
10980TIP3    H132883   3.909   0.284   0.500
10980TIP3    H232884   3.985   0.377   0.407
10981TIP3   OH232885   5.879   1.689   1.616
10981TIP3    H132886   5.853   1.729   1.699
10981TIP3    H232887   5.796   1.662   1.575
10982TIP3   OH232888   8.018   1.720   3.617
10982TIP3    H132889   8.069   1.642   3.639
10982TIP3    H232890   7.980   1.748   3.701
10983TIP3   OH232891   7.929   6.940   6.576
10983TIP3    H132892   7.993   6.888   6.625
10983TIP3    H232893   7.914   7.017   6.630
10984TIP3   OH232894   0.910   0.465   2.663
10984TIP3    H132895   0.823   0.426   2.673
10984TIP3    H232896   0.927   0.461   2.569
10985TIP3   OH232897   1.446   5.270   1.863
10985TIP3    H132898   1.353   5.269   1.886
10985TIP3    H232899   1.469   5.178   1.850
10986TIP3   OH232900   0.796   3.445   3.229
10986TIP3    H132901   0.849   3.372   3.196
10986TIP3    H232902   0.739   3.469   3.156
10987TIP3   OH232903   6.370   6.150   4.556
10987TIP3    H132904   6.306   6.085   4.586
10987TIP3    H232905   6.430   6.101   4.499
10988TIP3   OH232906   7.042   5.329   0.777
10988TIP3    H132907   7.029   5.419   0.749
10988TIP3    H232908   7.114   5.333   0.840
10989TIP3   OH232909   8.130   6.325   4.399
10989TIP3    H132910   8.036   6.339   4.396
10989TIP3    H232911   8.167   6.404   4.360
10990TIP3   OH232912   0.038   2.285   1.411
10990TIP3    H132913   0.014   2.311   1.500
10990TIP3    H232914   0.111   2.343   1.389
10991TIP3   OH232915   6.159   6.969   6.013
10991TIP3    H132916   6.226   6.905   5.990
10991TIP3    H232917   6.208   7.050   6.030
10992TIP3   OH232918   2.009   7.032   4.566
10992TIP3    H132919   2.012   7.069   4.655
10992TIP3    H232920   1.944   6.962   4.571
10993TIP3   OH232921   4.311   4.053   6.227
10993TIP3    H132922   4.373   4.120   6.197
10993TIP3    H232923   4.366   3.988   6.272
10994TIP3   OH232924   3.210   6.516   2.140
10994TIP3    H132925   3.207   6.569   2.060
10994TIP3    H232926   3.282   6.554   2.190
10995TIP3   OH232927   3.543   3.950   1.074
10995TIP3    H132928   3.627   3.936   1.116
10995TIP3    H232929   3.494   3.869   1.091
10996TIP3   OH232930   6.213   2.496   2.579
10996TIP3    H132931   6.242   2.422   2.525
10996TIP3    H232932   6.244   2.475   2.667
10997TIP3   OH232933   7.224   0.891   0.035
10997TIP3    H132934   7.294   0.932  -0.016
10997TIP3    H232935   7.207   0.953   0.106
10998TIP3   OH232936   7.071   7.581   1.949
10998TIP3    H132937   7.118   7.498   1.938
10998TIP3    H232938   7.136   7.648   1.930
10999TIP3   OH232939   0.315   6.127   4.432
10999TIP3    H132940   0.354   6.108   4.518
10999TIP3    H232941   0.332   6.048   4.380
11000TIP3   OH232942   6.530   2.449   6.280
11000TIP3    H132943   6.581   2.412   6.208
11000TIP3    H232944   6.581   2.523   6.312
11001TIP3   OH232945   2.806   1.749   0.842
11001TIP3    H132946   2.807   1.736   0.747
11001TIP3    H232947   2.726   1.706   0.871
11002TIP3   OH232948   1.771   0.800   6.544
11002TIP3    H132949   1.712   0.852   6.490
11002TIP3    H232950   1.717   0.767   6.616
11003TIP3   OH232951   2.629   7.339   1.688
11003TIP3    H132952   2.655   7.386   1.609
11003TIP3    H232953   2.710   7.301   1.721
11004TIP3   OH232954   0.818   7.777   0.278
11004TIP3    H132955   0.820   7.871   0.297
11004TIP3    H232956   0.887   7.740   0.333
11005TIP3   OH232957   3.436   1.167   0.160
11005TIP3    H132958   3.507   1.103   0.167
11005TIP3    H232959   3.418   1.173   0.066
11006TIP3   OH232960   0.962   1.286   0.319
11006TIP3    H132961   1.019   1.231   0.373
11006TIP3    H232962   0.997   1.374   0.330
11007TIP3   OH232963   4.442   7.317   2.301
11007TIP3    H132964   4.380   7.356   2.239
11007TIP3    H232965   4.439   7.223   2.283
11008TIP3   OH232966   3.965   5.534   6.173
11008TIP3    H132967   3.974   5.471   6.101
11008TIP3    H232968   3.874   5.524   6.201
11009TIP3   OH232969   1.741   2.466   5.275
11009TIP3    H132970   1.791   2.547   5.291
11009TIP3    H232971   1.720   2.468   5.182
11010TIP3   OH232972   2.749   2.862   6.767
11010TIP3    H132973   2.748   2.907   6.683
11010TIP3    H232974   2.710   2.924   6.829
11011TIP3   OH232975   6.767   1.080   4.897
11011TIP3    H132976   6.800   1.165   4.867
11011TIP3    H232977   6.845   1.033   4.926
11012TIP3   OH232978   7.769   1.915   2.174
11012TIP3    H132979   7.833   1.902   2.104
11012TIP3    H232980   7.701   1.969   2.135
11013TIP3   OH232981   6.599   6.510   1.672
11013TIP3    H132982   6.643   6.428   1.696
11013TIP3    H232983   6.669   6.564   1.636
11014TIP3   OH232984   1.986   2.478   6.633
11014TIP3    H132985   1.980   2.450   6.542
11014TIP3    H232986   1.906   2.446   6.673
11015TIP3   OH232987   0.642   3.284   5.961
11015TIP3    H132988   0.558   3.316   5.929
11015TIP3    H232989   0.701   3.291   5.886
11016TIP3   OH232990   7.274   3.885   6.527
11016TIP3    H132991   7.263   3.890   6.432
11016TIP3    H232992   7.243   3.797   6.549
11017TIP3   OH232993   5.338   1.134   5.500
11017TIP3    H132994   5.363   1.176   5.418
11017TIP3    H232995   5.285   1.059   5.474
11018TIP3   OH232996   0.185   1.057   5.776
11018TIP3    H132997   0.155   0.984   5.721
11018TIP3    H232998   0.275   1.073   5.749
11019TIP3   OH232999   3.635   3.553   5.422
11019TIP3    H133000   3.550   3.534   5.461
11019TIP3    H233001   3.613   3.593   5.337
11020TIP3   OH233002   4.658   5.419   4.698
11020TIP3    H133003   4.631   5.355   4.632
11020TIP3    H233004   4.590   5.487   4.695
11021TIP3   OH233005   6.818   6.091   1.987
11021TIP3    H133006   6.791   6.004   1.959
11021TIP3    H233007   6.905   6.079   2.024
11022TIP3   OH233008   4.843   1.986   4.771
11022TIP3    H133009   4.788   2.049   4.818
11022TIP3    H233010   4.882   2.037   4.699
11023TIP3   OH233011   8.131   6.657   1.360
11023TIP3    H133012   8.038   6.670   1.376
11023TIP3    H233013   8.134   6.591   1.291
11024TIP3   OH233014   7.258   4.997   2.315
11024TIP3    H133015   7.294   4.970   2.231
11024TIP3    H233016   7.220   5.083   2.298
11025TIP3   OH233017   5.423   4.958   4.459
11025TIP3    H133018   5.446   4.865   4.465
11025TIP3    H233019   5.340   4.959   4.411
11026TIP3   OH233020   4.478   3.928   6.411
11026TIP3    H133021   4.548   3.877   6.371
11026TIP3    H233022   4.523   3.988   6.471
11027TIP3   OH233023   3.429   5.277   4.923
11027TIP3    H133024   3.513   5.232   4.931
11027TIP3    H233025   3.444   5.344   4.856
11028TIP3   OH233026   4.745   0.886   3.171
11028TIP3    H133027   4.835   0.889   3.139
11028TIP3    H233028   4.753   0.870   3.265
11029TIP3   OH233029   3.242   5.995   3.748
11029TIP3    H133030   3.172   6.001   3.813
11029TIP3    H233031   3.308   5.940   3.789
11030TIP3   OH233032   0.795   7.230   4.685
11030TIP3    H133033   0.770   7.299   4.624
11030TIP3    H233034   0.716   7.211   4.734
11031TIP3   OH233035   3.377   6.005   3.521
11031TIP3    H133036   3.346   5.999   3.612
11031TIP3    H233037   3.302   6.038   3.472
11032TIP3   OH233038   3.555   5.151   2.266
11032TIP3    H133039   3.514   5.077   2.311
11032TIP3    H233040   3.558   5.123   2.174
11033TIP3   OH233041   5.015   2.489   6.761
11033TIP3    H133042   5.026   2.545   6.685
11033TIP3    H233043   5.027   2.400   6.727
11034TIP3   OH233044   1.371   2.423   1.456
11034TIP3    H133045   1.416   2.406   1.540
11034TIP3    H233046   1.417   2.498   1.419
11035TIP3   OH233047   0.380   2.723   0.731
11035TIP3    H133048   0.470   2.755   0.727
11035TIP3    H233049   0.343   2.768   0.807
11036TIP3   OH233050   3.234   3.666   4.929
11036TIP3    H133051   3.258   3.581   4.893
11036TIP3    H233052   3.301   3.726   4.895
11037TIP3   OH233053   1.741   4.333   1.573
11037TIP3    H133054   1.670   4.335   1.638
11037TIP3    H233055   1.806   4.394   1.608
11038TIP3   OH233056   4.726   1.068   3.485
11038TIP3    H133057   4.642   1.076   3.440
11038TIP3    H233058   4.729   1.143   3.544
11039TIP3   OH233059   7.426   5.046   3.769
11039TIP3    H133060   7.407   5.039   3.862
11039TIP3    H233061   7.518   5.024   3.761
11040TIP3   OH233062   4.294   0.419   2.411
11040TIP3    H133063   4.365   0.367   2.449
11040TIP3    H233064   4.323   0.509   2.418
11041TIP3   OH233065   1.186   6.010   0.055
11041TIP3    H133066   1.153   6.068   0.124
11041TIP3    H233067   1.211   5.930   0.102
11042TIP3   OH233068   0.312   2.674   4.651
11042TIP3    H133069   0.388   2.732   4.642
11042TIP3    H233070   0.237   2.730   4.630
11043TIP3   OH233071   0.499   4.745   5.698
11043TIP3    H133072   0.438   4.775   5.630
11043TIP3    H233073   0.568   4.699   5.650
11044TIP3   OH233074   5.759   5.539   5.960
11044TIP3    H133075   5.690   5.573   6.016
11044TIP3    H233076   5.713   5.495   5.889
11045TIP3   OH233077   3.465   2.857   2.402
11045TIP3    H133078   3.511   2.936   2.374
11045TIP3    H233079   3.535   2.794   2.418
11046TIP3   OH233080   3.891   5.182   4.047
11046TIP3    H133081   3.986   5.173   4.058
11046TIP3    H233082   3.880   5.266   4.003
11047TIP3   OH233083   3.349   4.147   4.794
11047TIP3    H133084   3.279   4.095   4.833
11047TIP3    H233085   3.388   4.194   4.868
11048TIP3   OH233086   6.550   3.929   1.942
11048TIP3    H133087   6.519   4.017   1.965
11048TIP3    H233088   6.491   3.901   1.872
11049TIP3   OH233089   6.474   3.490   1.741
11049TIP3    H133090   6.568   3.477   1.752
11049TIP3    H233091   6.447   3.539   1.819
11050TIP3   OH233092   3.460   5.804   3.311
11050TIP3    H133093   3.503   5.860   3.246
11050TIP3    H233094   3.460   5.855   3.391
11051TIP3   OH233095   2.473   2.902   0.135
11051TIP3    H133096   2.502   2.925   0.047
11051TIP3    H233097   2.378   2.899   0.129
11052TIP3   OH233098   2.002   3.785   3.083
11052TIP3    H133099   1.944   3.836   3.139
11052TIP3    H233100   2.047   3.850   3.029
11053TIP3   OH233101   0.284   1.477   0.410
11053TIP3    H133102   0.375   1.505   0.397
11053TIP3    H233103   0.289   1.382   0.418
11054TIP3   OH233104   8.131   3.083   0.491
11054TIP3    H133105   8.226   3.084   0.488
11054TIP3    H233106   8.104   3.154   0.433
11055TIP3   OH233107   3.166   2.101   0.788
11055TIP3    H133108   3.209   2.056   0.862
11055TIP3    H233109   3.088   2.140   0.826
11056TIP3   OH233110   1.564   1.905   5.314
11056TIP3    H133111   1.564   1.810   5.312
11056TIP3    H233112   1.474   1.929   5.292
11057TIP3   OH233113   2.026   0.469   3.074
11057TIP3    H133114   2.032   0.391   3.019
11057TIP3    H233115   2.096   0.526   3.043
11058TIP3   OH233116   0.757   6.674   6.587
11058TIP3    H133117   0.757   6.733   6.663
11058TIP3    H233118   0.697   6.603   6.612
11059TIP3   OH233119   2.207   6.489   3.484
11059TIP3    H133120   2.250   6.499   3.569
11059TIP3    H233121   2.258   6.422   3.438
11060TIP3   OH233122   5.745   7.121   5.325
11060TIP3    H133123   5.808   7.082   5.385
11060TIP3    H233124   5.765   7.082   5.240
11061TIP3   OH233125   1.526   1.442   3.151
11061TIP3    H133126   1.452   1.503   3.146
11061TIP3    H233127   1.561   1.439   3.062
11062TIP3   OH233128   0.308   5.058   4.240
11062TIP3    H133129   0.334   5.143   4.203
11062TIP3    H233130   0.306   5.072   4.334
11063TIP3   OH233131   2.550   4.442   2.120
11063TIP3    H133132   2.538   4.448   2.025
11063TIP3    H233133   2.548   4.533   2.150
11064TIP3   OH233134   6.060   2.165   2.394
11064TIP3    H133135   6.010   2.104   2.447
11064TIP3    H233136   5.998   2.199   2.330
11065TIP3   OH233137   6.297   3.298   2.013
11065TIP3    H133138   6.267   3.303   1.922
11065TIP3    H233139   6.352   3.375   2.024
11066TIP3   OH233140   7.901   0.497   2.836
11066TIP3    H133141   7.811   0.472   2.857
11066TIP3    H233142   7.938   0.421   2.790
11067TIP3   OH233143   2.645   5.744   4.185
11067TIP3    H133144   2.657   5.762   4.092
11067TIP3    H233145   2.688   5.660   4.200
11068TIP3   OH233146   3.324   6.035   0.696
11068TIP3    H133147   3.313   6.130   0.688
11068TIP3    H233148   3.338   6.005   0.606
11069TIP3   OH233149   7.970   4.782   4.825
11069TIP3    H133150   7.919   4.852   4.866
11069TIP3    H233151   8.031   4.828   4.767
11070TIP3   OH233152   3.766   5.152   2.881
11070TIP3    H133153   3.846   5.187   2.921
11070TIP3    H233154   3.735   5.221   2.823
11071TIP3   OH233155   1.374   0.948   4.738
11071TIP3    H133156   1.405   1.026   4.691
11071TIP3    H233157   1.283   0.967   4.759
11072TIP3   OH233158   4.876   1.903   5.318
11072TIP3    H133159   4.929   1.876   5.393
11072TIP3    H233160   4.905   1.992   5.299
11073TIP3   OH233161   7.241   1.869   0.969
11073TIP3    H133162   7.321   1.816   0.974
11073TIP3    H233163   7.171   1.804   0.965
11074TIP3   OH233164   4.211   0.892   6.365
11074TIP3    H133165   4.290   0.878   6.313
11074TIP3    H233166   4.241   0.888   6.456
11075TIP3   OH233167   4.160   0.490   1.424
11075TIP3    H133168   4.205   0.413   1.390
11075TIP3    H233169   4.211   0.564   1.391
11076TIP3   OH233170   6.642   6.542   3.472
11076TIP3    H133171   6.685   6.460   3.446
11076TIP3    H233172   6.656   6.600   3.398
11077TIP3   OH233173   8.200   5.175   3.513
11077TIP3    H133174   8.148   5.203   3.588
11077TIP3    H233175   8.253   5.102   3.546
11078TIP3   OH233176   1.185   4.031   4.751
11078TIP3    H133177   1.174   4.114   4.704
11078TIP3    H233178   1.096   3.996   4.759
11079TIP3   OH233179   2.824   3.132   1.660
11079TIP3    H133180   2.807   3.170   1.746
11079TIP3    H233181   2.832   3.038   1.676
11080TIP3   OH233182   4.120   7.252   5.774
11080TIP3    H133183   4.136   7.223   5.864
11080TIP3    H233184   4.064   7.183   5.736
11081TIP3   OH233185   5.107   2.830   2.434
11081TIP3    H133186   5.046   2.843   2.507
11081TIP3    H233187   5.065   2.872   2.360
11082TIP3   OH233188   3.215   6.398   6.322
11082TIP3    H133189   3.281   6.465   6.303
11082TIP3    H233190   3.172   6.428   6.402
11083TIP3   OH233191   7.484   0.496   0.211
11083TIP3    H133192   7.456   0.405   0.205
11083TIP3    H233193   7.565   0.500   0.161
11084TIP3   OH233194   1.824   5.806   5.793
11084TIP3    H133195   1.862   5.730   5.749
11084TIP3    H233196   1.898   5.864   5.811
11085TIP3   OH233197   1.365   1.641   4.618
11085TIP3    H133198   1.291   1.581   4.632
11085TIP3    H233199   1.442   1.584   4.618
11086TIP3   OH233200   7.385   2.316   0.547
11086TIP3    H133201   7.336   2.265   0.611
11086TIP3    H233202   7.431   2.382   0.598
11087TIP3   OH233203   6.416   7.366   5.642
11087TIP3    H133204   6.362   7.381   5.719
11087TIP3    H233205   6.496   7.326   5.676
11088TIP3   OH233206   0.278   7.280   0.117
11088TIP3    H133207   0.305   7.348   0.055
11088TIP3    H233208   0.232   7.215   0.064
11089TIP3   OH233209   0.130   0.933   4.980
11089TIP3    H133210   0.206   0.909   4.928
11089TIP3    H233211   0.165   0.988   5.050
11090TIP3   OH233212   0.921   5.873   1.120
11090TIP3    H133213   1.005   5.861   1.074
11090TIP3    H233214   0.866   5.919   1.057
11091TIP3   OH233215   5.604   5.281   6.469
11091TIP3    H133216   5.549   5.205   6.450
11091TIP3    H233217   5.646   5.302   6.386
11092TIP3   OH233218   2.091   5.287   1.263
11092TIP3    H133219   2.008   5.271   1.307
11092TIP3    H233220   2.156   5.285   1.333
11093TIP3   OH233221   1.240   6.624   3.532
11093TIP3    H133222   1.325   6.614   3.488
11093TIP3    H233223   1.231   6.545   3.585
11094TIP3   OH233224   6.775   4.425   1.572
11094TIP3    H133225   6.685   4.405   1.596
11094TIP3    H233226   6.768   4.476   1.492
11095TIP3   OH233227   0.575   1.205   3.458
11095TIP3    H133228   0.553   1.112   3.462
11095TIP3    H233229   0.491   1.250   3.464
11096TIP3   OH233230   5.391   5.793   4.407
11096TIP3    H133231   5.436   5.741   4.340
11096TIP3    H233232   5.417   5.883   4.389
11097TIP3   OH233233   6.451   7.363   0.137
11097TIP3    H133234   6.372   7.416   0.129
11097TIP3    H233235   6.515   7.420   0.179
11098TIP3   OH233236   5.587   0.042   4.123
11098TIP3    H133237   5.499   0.079   4.136
11098TIP3    H233238   5.602   0.051   4.029
11099TIP3   OH233239   3.956   7.272   0.033
11099TIP3    H133240   4.009   7.233   0.104
11099TIP3    H233241   4.019   7.323  -0.017
11100TIP3   OH233242   6.791   5.607   2.335
11100TIP3    H133243   6.823   5.519   2.314
11100TIP3    H233244   6.836   5.664   2.273
11101TIP3   OH233245   6.618   1.010   5.428
11101TIP3    H133246   6.626   1.104   5.411
11101TIP3    H233247   6.703   0.985   5.464
11102TIP3   OH233248   4.505   3.859   3.293
11102TIP3    H133249   4.455   3.848   3.212
11102TIP3    H233250   4.438   3.870   3.361
11103TIP3   OH233251   3.323   2.664   4.100
11103TIP3    H133252   3.412   2.696   4.107
11103TIP3    H233253   3.268   2.742   4.107
11104TIP3   OH233254   2.538   3.579   4.462
11104TIP3    H133255   2.520   3.557   4.554
11104TIP3    H233256   2.459   3.552   4.415
11105TIP3   OH233257   7.990   4.629   0.754
11105TIP3    H133258   8.040   4.627   0.672
11105TIP3    H233259   8.011   4.714   0.792
11106TIP3   OH233260   6.715   7.037   0.731
11106TIP3    H133261   6.753   6.963   0.683
11106TIP3    H233262   6.629   7.049   0.691
11107TIP3   OH233263   3.595   0.310   2.788
11107TIP3    H133264   3.603   0.256   2.709
11107TIP3    H233265   3.600   0.400   2.756
11108TIP3   OH233266   1.400   7.223   0.619
11108TIP3    H133267   1.451   7.277   0.558
11108TIP3    H233268   1.319   7.272   0.633
11109TIP3   OH233269   7.860   6.551   4.470
11109TIP3    H133270   7.896   6.597   4.546
11109TIP3    H233271   7.825   6.469   4.506
11110TIP3   OH233272   5.249   4.636   0.141
11110TIP3    H133273   5.218   4.625   0.051
11110TIP3    H233274   5.341   4.661   0.131
11111TIP3   OH233275   3.201   2.499   5.790
11111TIP3    H133276   3.225   2.490   5.697
11111TIP3    H233277   3.242   2.423   5.832
11112TIP3   OH233278   3.455   1.522   2.908
11112TIP3    H133279   3.391   1.529   2.979
11112TIP3    H233280   3.522   1.586   2.929
11113TIP3   OH233281   4.767   4.168   2.046
11113TIP3    H133282   4.812   4.211   1.973
11113TIP3    H233283   4.720   4.240   2.090
11114TIP3   OH233284   7.656   6.225   5.073
11114TIP3    H133285   7.696   6.298   5.120
11114TIP3    H233286   7.727   6.190   5.019
11115TIP3   OH233287   6.710   4.644   4.214
11115TIP3    H133288   6.719   4.588   4.136
11115TIP3    H233289   6.706   4.582   4.287
11116TIP3   OH233290   5.038   5.104   1.920
11116TIP3    H133291   5.111   5.044   1.930
11116TIP3    H233292   5.074   5.190   1.942
11117TIP3   OH233293   1.820   4.571   1.024
11117TIP3    H133294   1.798   4.485   0.989
11117TIP3    H233295   1.848   4.621   0.947
11118TIP3   OH233296   7.593   6.260   3.367
11118TIP3    H133297   7.521   6.277   3.428
11118TIP3    H233298   7.665   6.230   3.422
11119TIP3   OH233299   5.216   6.129   0.505
11119TIP3    H133300   5.255   6.133   0.592
11119TIP3    H233301   5.202   6.220   0.480
11120TIP3   OH233302   3.662   2.851   0.092
11120TIP3    H133303   3.711   2.769   0.093
11120TIP3    H233304   3.678   2.888   0.005
11121TIP3   OH233305   5.424   7.680   0.409
11121TIP3    H133306   5.499   7.654   0.463
11121TIP3    H233307   5.412   7.773   0.428
11122TIP3   OH233308   2.395   2.626   3.874
11122TIP3    H133309   2.311   2.668   3.856
11122TIP3    H233310   2.405   2.561   3.804
11123TIP3   OH233311   3.273   2.190   0.528
11123TIP3    H133312   3.271   2.139   0.447
11123TIP3    H233313   3.270   2.125   0.598
11124TIP3   OH233314   3.676   1.008   0.119
11124TIP3    H133315   3.709   0.964   0.198
11124TIP3    H233316   3.681   0.941   0.051
11125TIP3   OH233317   5.278   6.640   1.870
11125TIP3    H133318   5.337   6.703   1.829
11125TIP3    H233319   5.330   6.561   1.881
11126TIP3   OH233320   5.445   5.222   4.461
11126TIP3    H133321   5.452   5.127   4.470
11126TIP3    H233322   5.536   5.252   4.451
11127TIP3   OH233323   6.244   7.461   2.064
11127TIP3    H133324   6.158   7.431   2.037
11127TIP3    H233325   6.255   7.427   2.153
11128TIP3   OH233326   3.695   4.337   6.115
11128TIP3    H133327   3.721   4.424   6.146
11128TIP3    H233328   3.655   4.295   6.192
11129TIP3   OH233329   4.150   0.847   3.228
11129TIP3    H133330   4.088   0.784   3.265
11129TIP3    H233331   4.158   0.823   3.136
11130TIP3   OH233332   3.193   1.850   1.190
11130TIP3    H133333   3.143   1.812   1.262
11130TIP3    H233334   3.157   1.809   1.112
11131TIP3   OH233335   2.632   1.510   0.540
11131TIP3    H133336   2.610   1.480   0.452
11131TIP3    H233337   2.704   1.572   0.527
11132TIP3   OH233338   2.173   2.808   3.959
11132TIP3    H133339   2.223   2.784   4.037
11132TIP3    H233340   2.130   2.890   3.983
11133TIP3   OH233341   7.901   2.048   2.354
11133TIP3    H133342   7.821   2.002   2.329
11133TIP3    H233343   7.941   2.073   2.270
11134TIP3   OH233344   5.164   6.447   4.730
11134TIP3    H133345   5.098   6.397   4.683
11134TIP3    H233346   5.211   6.382   4.782
11135TIP3   OH233347   0.166   0.237   6.425
11135TIP3    H133348   0.107   0.296   6.378
11135TIP3    H233349   0.228   0.296   6.470
11136TIP3   OH233350   8.082   6.435   4.705
11136TIP3    H133351   8.157   6.493   4.692
11136TIP3    H233352   8.085   6.375   4.631
11137TIP3   OH233353   2.973   4.466   5.738
11137TIP3    H133354   3.040   4.534   5.734
11137TIP3    H233355   2.942   4.467   5.829
11138TIP3   OH233356   6.285   2.279   3.197
11138TIP3    H133357   6.361   2.336   3.195
11138TIP3    H233358   6.319   2.192   3.176
11139TIP3   OH233359   0.374   0.455   5.817
11139TIP3    H133360   0.409   0.534   5.857
11139TIP3    H233361   0.383   0.388   5.885
11140TIP3   OH233362   0.011   2.415   4.816
11140TIP3    H133363   0.104   2.431   4.834
11140TIP3    H233364  -0.001   2.439   4.725
11141TIP3   OH233365   1.053   1.931   3.505
11141TIP3    H133366   0.974   1.891   3.540
11141TIP3    H233367   1.021   2.001   3.448
11142TIP3   OH233368   1.331   4.295   1.249
11142TIP3    H133369   1.287   4.304   1.164
11142TIP3    H233370   1.262   4.262   1.307
11143TIP3   OH233371   6.663   2.861   1.475
11143TIP3    H133372   6.737   2.862   1.413
11143TIP3    H233373   6.659   2.951   1.508
11144TIP3   OH233374   2.635   3.946   4.964
11144TIP3    H133375   2.593   3.860   4.958
11144TIP3    H233376   2.567   4.008   4.939
11145TIP3   OH233377   6.785   0.857   3.935
11145TIP3    H133378   6.759   0.913   4.009
11145TIP3    H233379   6.881   0.858   3.937
11146TIP3   OH233380   3.075   6.523   4.572
11146TIP3    H133381   3.069   6.450   4.633
11146TIP3    H233382   3.166   6.523   4.544
11147TIP3   OH233383   6.560   4.727   6.371
11147TIP3    H133384   6.488   4.789   6.384
11147TIP3    H233385   6.533   4.648   6.418
11148TIP3   OH233386   4.286   6.126   3.555
11148TIP3    H133387   4.257   6.038   3.579
11148TIP3    H233388   4.315   6.117   3.464
11149TIP3   OH233389   4.879   3.422   4.800
11149TIP3    H133390   4.824   3.386   4.870
11149TIP3    H233391   4.950   3.467   4.846
11150TIP3   OH233392   1.123   6.292   0.683
11150TIP3    H133393   1.066   6.359   0.721
11150TIP3    H233394   1.204   6.298   0.734
11151TIP3   OH233395   7.176   5.732   3.729
11151TIP3    H133396   7.198   5.639   3.729
11151TIP3    H233397   7.226   5.768   3.655
11152TIP3   OH233398   4.630   5.143   5.271
11152TIP3    H133399   4.653   5.202   5.342
11152TIP3    H233400   4.584   5.198   5.207
11153TIP3   OH233401   8.011   2.044   3.563
11153TIP3    H133402   7.950   2.108   3.526
11153TIP3    H233403   7.964   1.961   3.562
11154TIP3   OH233404   0.910   7.445   4.035
11154TIP3    H133405   0.822   7.481   4.021
11154TIP3    H233406   0.966   7.522   4.046
11155TIP3   OH233407   0.613   6.748   3.078
11155TIP3    H133408   0.567   6.665   3.081
11155TIP3    H233409   0.602   6.785   3.166
11156TIP3   OH233410   5.837   4.732   0.235
11156TIP3    H133411   5.794   4.666   0.181
11156TIP3    H233412   5.844   4.691   0.321
11157TIP3   OH233413   2.790   6.743   2.127
11157TIP3    H133414   2.827   6.730   2.215
11157TIP3    H233415   2.767   6.836   2.124
11158TIP3   OH233416   5.582   2.686   6.723
11158TIP3    H133417   5.526   2.734   6.784
11158TIP3    H233418   5.596   2.746   6.650
11159TIP3   OH233419   0.022   7.584   2.034
11159TIP3    H133420   0.089   7.518   2.020
11159TIP3    H233421  -0.060   7.535   2.042
11160TIP3   OH233422   0.865   5.315   3.992
11160TIP3    H133423   0.959   5.309   4.010
11160TIP3    H233424   0.834   5.225   3.997
11161TIP3   OH233425   3.245   3.343   3.141
11161TIP3    H133426   3.250   3.335   3.046
11161TIP3    H233427   3.177   3.281   3.167
11162TIP3   OH233428   0.370   0.092   0.338
11162TIP3    H133429   0.433   0.109   0.408
11162TIP3    H233430   0.315   0.021   0.371
11163TIP3   OH233431   8.176   3.323   2.787
11163TIP3    H133432   8.101   3.377   2.814
11163TIP3    H233433   8.178   3.331   2.691
11164TIP3   OH233434   2.886   3.527   1.945
11164TIP3    H133435   2.979   3.538   1.965
11164TIP3    H233436   2.848   3.495   2.027
11165TIP3   OH233437   0.269   5.816   2.134
11165TIP3    H133438   0.324   5.820   2.213
11165TIP3    H233439   0.193   5.763   2.161
11166TIP3   OH233440   1.684   5.578   3.969
11166TIP3    H133441   1.735   5.583   4.050
11166TIP3    H233442   1.624   5.505   3.983
11167TIP3   OH233443   3.911   0.384   0.950
11167TIP3    H133444   3.961   0.446   0.897
11167TIP3    H233445   3.942   0.397   1.039
11168TIP3   OH233446   5.139   4.388   0.247
11168TIP3    H133447   5.066   4.447   0.225
11168TIP3    H233448   5.213   4.421   0.197
11169TIP3   OH233449   5.876   1.365   1.840
11169TIP3    H133450   5.917   1.425   1.904
11169TIP3    H233451   5.915   1.390   1.757
11170TIP3   OH233452   2.955   0.920   2.340
11170TIP3    H133453   2.984   0.863   2.411
11170TIP3    H233454   3.008   0.999   2.348
11171TIP3   OH233455   3.696   5.505   1.129
11171TIP3    H133456   3.778   5.528   1.083
11171TIP3    H233457   3.725   5.476   1.215
11172TIP3   OH233458   3.859   0.146   1.714
11172TIP3    H133459   3.935   0.106   1.672
11172TIP3    H233460   3.894   0.224   1.757
11173TIP3   OH233461   1.799   7.443   4.198
11173TIP3    H133462   1.869   7.444   4.264
11173TIP3    H233463   1.846   7.444   4.115
11174TIP3   OH233464   7.417   4.323   2.719
11174TIP3    H133465   7.380   4.246   2.676
11174TIP3    H233466   7.478   4.359   2.654
11175TIP3   OH233467   2.250   6.067   5.008
11175TIP3    H133468   2.243   6.158   4.979
11175TIP3    H233469   2.177   6.057   5.069
11176TIP3   OH233470   8.049   6.928   1.075
11176TIP3    H133471   7.971   6.891   1.116
11176TIP3    H233472   8.016   6.978   1.000
11177TIP3   OH233473   4.405   3.109   1.539
11177TIP3    H133474   4.321   3.155   1.539
11177TIP3    H233475   4.412   3.072   1.627
11178TIP3   OH233476   0.896   4.023   1.442
11178TIP3    H133477   0.808   4.060   1.442
11178TIP3    H233478   0.887   3.939   1.396
11179TIP3   OH233479   0.602   7.755   6.321
11179TIP3    H133480   0.569   7.720   6.403
11179TIP3    H233481   0.614   7.678   6.265
11180TIP3   OH233482   0.402   2.188   2.603
11180TIP3    H133483   0.481   2.157   2.558
11180TIP3    H233484   0.339   2.202   2.532
11181TIP3   OH233485   3.523   7.326   3.780
11181TIP3    H133486   3.526   7.274   3.860
11181TIP3    H233487   3.432   7.318   3.751
11182TIP3   OH233488   6.734   5.518   4.191
11182TIP3    H133489   6.761   5.523   4.282
11182TIP3    H233490   6.666   5.585   4.182
11183TIP3   OH233491   1.804   0.667   5.519
11183TIP3    H133492   1.776   0.665   5.428
11183TIP3    H233493   1.842   0.754   5.530
11184TIP3   OH233494   3.089   7.306   1.980
11184TIP3    H133495   3.003   7.342   1.999
11184TIP3    H233496   3.140   7.381   1.950
11185TIP3   OH233497   2.849   5.601   2.825
11185TIP3    H133498   2.939   5.590   2.794
11185TIP3    H233499   2.807   5.516   2.806
11186TIP3   OH233500   8.270   7.739   6.703
11186TIP3    H133501   8.363   7.756   6.719
11186TIP3    H233502   8.252   7.781   6.619
11187TIP3   OH233503   5.245   6.347   5.311
11187TIP3    H133504   5.221   6.355   5.403
11187TIP3    H233505   5.184   6.405   5.265
11188TIP3   OH233506   2.819   5.216   1.783
11188TIP3    H133507   2.889   5.254   1.730
11188TIP3    H233508   2.781   5.290   1.830
11189TIP3   OH233509   1.103   5.211   4.167
11189TIP3    H133510   1.046   5.207   4.244
11189TIP3    H233511   1.160   5.135   4.176
11190TIP3   OH233512   5.095   6.817   2.828
11190TIP3    H133513   5.009   6.820   2.785
11190TIP3    H233514   5.139   6.742   2.788
11191TIP3   OH233515   4.775   6.281   5.889
11191TIP3    H133516   4.742   6.211   5.946
11191TIP3    H233517   4.696   6.319   5.851
11192TIP3   OH233518   4.717   4.745   0.048
11192TIP3    H133519   4.623   4.733   0.042
11192TIP3    H233520   4.729   4.819   0.108
11193TIP3   OH233521   1.881   6.343   2.836
11193TIP3    H133522   1.888   6.438   2.826
11193TIP3    H233523   1.953   6.320   2.895
11194TIP3   OH233524   1.185   2.696   2.115
11194TIP3    H133525   1.151   2.725   2.030
11194TIP3    H233526   1.157   2.764   2.176
11195TIP3   OH233527   7.421   2.525   0.345
11195TIP3    H133528   7.406   2.486   0.431
11195TIP3    H233529   7.476   2.462   0.299
11196TIP3   OH233530   6.185   5.466   1.254
11196TIP3    H133531   6.124   5.521   1.304
11196TIP3    H233532   6.176   5.379   1.293
11197TIP3   OH233533   6.129   4.749   0.213
11197TIP3    H133534   6.168   4.753   0.125
11197TIP3    H233535   6.037   4.727   0.197
11198TIP3   OH233536   6.091   4.527   1.344
11198TIP3    H133537   6.041   4.455   1.383
11198TIP3    H233538   6.033   4.604   1.353
11199TIP3   OH233539   0.267   0.944   4.508
11199TIP3    H133540   0.179   0.918   4.533
11199TIP3    H233541   0.317   0.863   4.506
11200TIP3   OH233542   5.960   0.131   0.392
11200TIP3    H133543   5.890   0.067   0.402
11200TIP3    H233544   5.999   0.138   0.479
11201TIP3   OH233545   4.485   6.421   0.390
11201TIP3    H133546   4.468   6.449   0.300
11201TIP3    H233547   4.445   6.334   0.396
11202TIP3   OH233548   0.209   6.408   6.292
11202TIP3    H133549   0.115   6.405   6.310
11202TIP3    H233550   0.215   6.445   6.204
11203TIP3   OH233551   3.385   1.832   5.009
11203TIP3    H133552   3.321   1.761   5.015
11203TIP3    H233553   3.383   1.874   5.095
11204TIP3   OH233554   6.032   4.685   5.085
11204TIP3    H133555   6.116   4.704   5.127
11204TIP3    H233556   6.015   4.593   5.107
11205TIP3   OH233557   4.613   1.297   1.092
11205TIP3    H133558   4.609   1.207   1.060
11205TIP3    H233559   4.653   1.290   1.179
11206TIP3   OH233560   7.705   5.271   5.191
11206TIP3    H133561   7.716   5.344   5.131
11206TIP3    H233562   7.779   5.277   5.251
11207TIP3   OH233563   6.523   3.825   5.454
11207TIP3    H133564   6.437   3.833   5.495
11207TIP3    H233565   6.572   3.900   5.486
11208TIP3   OH233566   2.727   5.745   0.270
11208TIP3    H133567   2.737   5.746   0.175
11208TIP3    H233568   2.745   5.654   0.294
11209TIP3   OH233569   2.096   5.697   3.817
11209TIP3    H133570   2.037   5.767   3.789
11209TIP3    H233571   2.108   5.713   3.911
11210TIP3   OH233572   8.217   5.704   6.061
11210TIP3    H133573   8.207   5.634   5.997
11210TIP3    H233574   8.260   5.663   6.136
11211TIP3   OH233575   0.637   5.776   2.358
11211TIP3    H133576   0.728   5.780   2.388
11211TIP3    H233577   0.644   5.764   2.263
11212TIP3   OH233578   5.717   5.634   1.131
11212TIP3    H133579   5.687   5.656   1.043
11212TIP3    H233580   5.758   5.714   1.164
11213TIP3   OH233581   2.761   6.474   4.382
11213TIP3    H133582   2.856   6.465   4.377
11213TIP3    H233583   2.739   6.534   4.310
11214TIP3   OH233584   4.934   0.260   4.576
11214TIP3    H133585   5.030   0.260   4.578
11214TIP3    H233586   4.909   0.178   4.619
11215TIP3   OH233587   4.047   6.086   2.399
11215TIP3    H133588   4.141   6.068   2.408
11215TIP3    H233589   4.011   6.072   2.487
11216TIP3   OH233590   4.697   0.648   1.836
11216TIP3    H133591   4.704   0.725   1.893
11216TIP3    H233592   4.684   0.684   1.748
11217TIP3   OH233593   5.461   3.684   4.502
11217TIP3    H133594   5.519   3.625   4.550
11217TIP3    H233595   5.440   3.636   4.422
11218TIP3   OH233596   6.216   7.554   1.003
11218TIP3    H133597   6.252   7.567   1.090
11218TIP3    H233598   6.145   7.619   0.996
11219TIP3   OH233599   4.162   5.927   5.545
11219TIP3    H133600   4.070   5.902   5.553
11219TIP3    H233601   4.183   5.911   5.453
11220TIP3   OH233602   3.527   2.512   5.513
11220TIP3    H133603   3.437   2.495   5.484
11220TIP3    H233604   3.561   2.426   5.539
11221TIP3   OH233605   7.763   0.918   4.837
11221TIP3    H133606   7.725   0.897   4.922
11221TIP3    H233607   7.734   1.007   4.819
11222TIP3   OH233608   1.166   4.267   4.305
11222TIP3    H133609   1.189   4.176   4.289
11222TIP3    H233610   1.070   4.270   4.300
11223TIP3   OH233611   6.813   2.466   5.105
11223TIP3    H133612   6.768   2.547   5.128
11223TIP3    H233613   6.868   2.446   5.180
11224TIP3   OH233614   1.878   1.508   0.164
11224TIP3    H133615   1.965   1.488   0.128
11224TIP3    H233616   1.885   1.598   0.194
11225TIP3   OH233617   2.080   4.078   6.249
11225TIP3    H133618   2.105   4.014   6.316
11225TIP3    H233619   2.162   4.123   6.228
11226TIP3   OH233620   3.280   1.487   6.107
11226TIP3    H133621   3.243   1.537   6.180
11226TIP3    H233622   3.204   1.466   6.051
11227TIP3   OH233623   7.061   4.344   4.111
11227TIP3    H133624   7.009   4.423   4.101
11227TIP3    H233625   7.072   4.311   4.022
11228TIP3   OH233626   6.834   4.164   0.074
11228TIP3    H133627   6.863   4.151  -0.016
11228TIP3    H233628   6.739   4.166   0.069
11229TIP3   OH233629   4.971   3.482   1.952
11229TIP3    H133630   4.894   3.513   1.907
11229TIP3    H233631   4.942   3.466   2.042
11230TIP3   OH233632   4.280   7.147   3.730
11230TIP3    H133633   4.224   7.166   3.805
11230TIP3    H233634   4.274   7.052   3.718
11231TIP3   OH233635   7.361   2.903   6.697
11231TIP3    H133636   7.404   2.829   6.739
11231TIP3    H233637   7.410   2.917   6.616
11232TIP3   OH233638   6.608   1.831   0.152
11232TIP3    H133639   6.558   1.855   0.074
11232TIP3    H233640   6.694   1.805   0.119
11233TIP3   OH233641   0.938   3.735   3.839
11233TIP3    H133642   0.907   3.648   3.863
11233TIP3    H233643   0.993   3.721   3.761
11234TIP3   OH233644   6.433   2.678   6.643
11234TIP3    H133645   6.420   2.731   6.721
11234TIP3    H233646   6.365   2.706   6.582
11235TIP3   OH233647   0.179   6.034   6.340
11235TIP3    H133648   0.220   6.062   6.258
11235TIP3    H233649   0.111   5.973   6.313
11236TIP3   OH233650   4.042   4.766   4.952
11236TIP3    H133651   4.060   4.836   4.888
11236TIP3    H233652   4.017   4.812   5.031
11237TIP3   OH233653   5.929   0.258   3.825
11237TIP3    H133654   5.922   0.341   3.873
11237TIP3    H233655   5.898   0.192   3.888
11238TIP3   OH233656   7.774   4.817   6.394
11238TIP3    H133657   7.804   4.856   6.311
11238TIP3    H233658   7.826   4.861   6.461
11239TIP3   OH233659   2.335   1.781   1.663
11239TIP3    H133660   2.303   1.692   1.676
11239TIP3    H233661   2.330   1.822   1.749
11240TIP3   OH233662   5.032   7.458   3.069
11240TIP3    H133663   5.015   7.482   3.161
11240TIP3    H233664   4.946   7.429   3.037
11241TIP3   OH233665   7.363   1.367   0.829
11241TIP3    H133666   7.272   1.340   0.814
11241TIP3    H233667   7.412   1.285   0.834
11242TIP3   OH233668   5.682   7.090   2.178
11242TIP3    H133669   5.751   7.098   2.244
11242TIP3    H233670   5.678   6.997   2.157
11243TIP3   OH233671   6.150   4.183   2.492
11243TIP3    H133672   6.232   4.204   2.447
11243TIP3    H233673   6.141   4.088   2.484
11244TIP3   OH233674   2.158   7.497   2.421
11244TIP3    H133675   2.110   7.578   2.402
11244TIP3    H233676   2.090   7.431   2.430
11245TIP3   OH233677   1.819   3.624   2.089
11245TIP3    H133678   1.733   3.667   2.084
11245TIP3    H233679   1.849   3.621   1.998
11246TIP3   OH233680   5.417   2.390   1.088
11246TIP3    H133681   5.435   2.482   1.104
11246TIP3    H233682   5.502   2.352   1.065
11247TIP3   OH233683   4.176   2.148   1.923
11247TIP3    H133684   4.161   2.240   1.901
11247TIP3    H233685   4.270   2.141   1.938
11248TIP3   OH233686   3.126   5.296   4.770
11248TIP3    H133687   3.107   5.255   4.854
11248TIP3    H233688   3.201   5.247   4.736
11249TIP3   OH233689   1.722   5.938   5.351
11249TIP3    H133690   1.712   6.033   5.353
11249TIP3    H233691   1.814   5.923   5.331
11250TIP3   OH233692   7.090   1.429   5.224
11250TIP3    H133693   7.137   1.361   5.176
11250TIP3    H233694   7.046   1.382   5.295
11251TIP3   OH233695   4.829   7.711   4.887
11251TIP3    H133696   4.812   7.782   4.949
11251TIP3    H233697   4.743   7.691   4.850
11252TIP3   OH233698   4.731   3.436   1.234
11252TIP3    H133699   4.762   3.425   1.144
11252TIP3    H233700   4.641   3.404   1.233
11253TIP3   OH233701   1.896   7.642   4.905
11253TIP3    H133702   1.869   7.732   4.884
11253TIP3    H233703   1.824   7.588   4.872
11254TIP3   OH233704   1.846   5.628   2.597
11254TIP3    H133705   1.901   5.670   2.531
11254TIP3    H233706   1.784   5.695   2.622
11255TIP3   OH233707   7.880   4.628   3.732
11255TIP3    H133708   7.956   4.681   3.756
11255TIP3    H233709   7.834   4.612   3.815
11256TIP3   OH233710   2.093   3.016   2.747
11256TIP3    H133711   2.054   3.080   2.687
11256TIP3    H233712   2.186   3.038   2.749
11257TIP3   OH233713  -0.004   7.656   0.620
11257TIP3    H133714   0.004   7.600   0.543
11257TIP3    H233715   0.060   7.620   0.682
11258TIP3   OH233716   0.766   1.339   1.472
11258TIP3    H133717   0.685   1.380   1.440
11258TIP3    H233718   0.789   1.391   1.549
11259TIP3   OH233719   0.444   1.226   2.690
11259TIP3    H133720   0.418   1.314   2.662
11259TIP3    H233721   0.385   1.206   2.762
11260TIP3   OH233722   6.565   4.206   2.306
11260TIP3    H133723   6.505   4.261   2.355
11260TIP3    H233724   6.587   4.257   2.228
11261TIP3   OH233725   1.412   1.133   6.353
11261TIP3    H133726   1.322   1.112   6.379
11261TIP3    H233727   1.405   1.156   6.260
11262TIP3   OH233728   1.334   1.872   5.780
11262TIP3    H133729   1.321   1.779   5.760
11262TIP3    H233730   1.409   1.898   5.727
11263TIP3   OH233731   3.162   5.212   3.081
11263TIP3    H133732   3.132   5.285   3.027
11263TIP3    H233733   3.244   5.184   3.040
11264TIP3   OH233734   3.936   2.119   2.453
11264TIP3    H133735   4.018   2.167   2.464
11264TIP3    H233736   3.876   2.158   2.515
11265TIP3   OH233737   6.738   5.523   6.130
11265TIP3    H133738   6.775   5.545   6.044
11265TIP3    H233739   6.708   5.607   6.165
11266TIP3   OH233740   6.252   7.721   5.532
11266TIP3    H133741   6.326   7.682   5.578
11266TIP3    H233742   6.177   7.701   5.588
11267TIP3   OH233743   2.531   6.679   2.089
11267TIP3    H133744   2.504   6.597   2.130
11267TIP3    H233745   2.627   6.676   2.089
11268TIP3   OH233746   7.654   3.808   5.439
11268TIP3    H133747   7.725   3.797   5.376
11268TIP3    H233748   7.606   3.885   5.409
11269TIP3   OH233749   1.770   6.343   1.773
11269TIP3    H133750   1.735   6.412   1.828
11269TIP3    H233751   1.777   6.267   1.831
11270TIP3   OH233752   0.043   3.342   1.382
11270TIP3    H133753   0.044   3.429   1.342
11270TIP3    H233754   0.012   3.358   1.471
11271TIP3   OH233755   0.979   6.535   0.775
11271TIP3    H133756   0.929   6.605   0.817
11271TIP3    H233757   1.068   6.547   0.807
11272TIP3   OH233758   1.966   5.912   2.608
11272TIP3    H133759   2.056   5.935   2.585
11272TIP3    H233760   1.913   5.953   2.539
11273TIP3   OH233761   5.578   6.915   5.461
11273TIP3    H133762   5.573   6.962   5.377
11273TIP3    H233763   5.663   6.940   5.498
11274TIP3   OH233764   7.492   5.676   0.775
11274TIP3    H133765   7.523   5.697   0.687
11274TIP3    H233766   7.413   5.623   0.761
11275TIP3   OH233767   7.359   7.344   4.854
11275TIP3    H133768   7.384   7.257   4.824
11275TIP3    H233769   7.270   7.333   4.889
11276TIP3   OH233770   1.784   7.007   2.288
11276TIP3    H133771   1.826   7.013   2.202
11276TIP3    H233772   1.814   7.085   2.335
11277TIP3   OH233773   7.962   6.135   6.651
11277TIP3    H133774   8.016   6.209   6.623
11277TIP3    H233775   7.919   6.166   6.730
11278TIP3   OH233776   3.410   0.752   1.763
11278TIP3    H133777   3.332   0.782   1.717
11278TIP3    H233778   3.469   0.828   1.763
11279TIP3   OH233779   5.271   7.766   3.677
11279TIP3    H133780   5.180   7.759   3.705
11279TIP3    H233781   5.299   7.676   3.661
11280TIP3   OH233782   2.837   5.698   5.849
11280TIP3    H133783   2.779   5.625   5.871
11280TIP3    H233784   2.858   5.738   5.933
11281TIP3   OH233785   1.634   1.355   2.887
11281TIP3    H133786   1.544   1.321   2.888
11281TIP3    H233787   1.670   1.326   2.803
11282TIP3   OH233788   5.442   5.005   0.473
11282TIP3    H133789   5.475   5.079   0.524
11282TIP3    H233790   5.513   4.984   0.412
11283TIP3   OH233791   4.934   4.482   5.805
11283TIP3    H133792   4.856   4.428   5.796
11283TIP3    H233793   5.006   4.419   5.818
11284TIP3   OH233794   7.293   0.106   6.091
11284TIP3    H133795   7.310   0.015   6.065
11284TIP3    H233796   7.199   0.109   6.106
11285TIP3   OH233797   1.080   1.884   1.565
11285TIP3    H133798   1.088   1.807   1.508
11285TIP3    H233799   1.144   1.946   1.530
11286TIP3   OH233800   8.285   5.949   6.156
11286TIP3    H133801   8.255   5.870   6.109
11286TIP3    H233802   8.343   5.993   6.094
11287TIP3   OH233803   5.701   3.204   3.296
11287TIP3    H133804   5.607   3.214   3.280
11287TIP3    H233805   5.712   3.229   3.388
11288TIP3   OH233806   0.813   2.936   6.290
11288TIP3    H133807   0.808   2.850   6.248
11288TIP3    H233808   0.723   2.970   6.284
11289TIP3   OH233809   8.066   3.571   4.933
11289TIP3    H133810   8.092   3.526   4.853
11289TIP3    H233811   8.082   3.508   5.003
11290TIP3   OH233812   6.150   0.877   2.169
11290TIP3    H133813   6.152   0.791   2.212
11290TIP3    H233814   6.220   0.926   2.211
11291TIP3   OH233815   3.517   4.981   5.563
11291TIP3    H133816   3.612   4.983   5.551
11291TIP3    H233817   3.505   4.988   5.657
11292TIP3   OH233818   3.222   6.216   6.708
11292TIP3    H133819   3.187   6.257   6.786
11292TIP3    H233820   3.300   6.268   6.686
11293TIP3   OH233821   5.571   2.334   3.997
11293TIP3    H133822   5.653   2.359   4.039
11293TIP3    H233823   5.577   2.370   3.908
11294TIP3   OH233824   6.869   6.498   6.138
11294TIP3    H133825   6.892   6.548   6.216
11294TIP3    H233826   6.809   6.555   6.090
11295TIP3   OH233827   7.466   0.194   0.244
11295TIP3    H133828   7.423   0.108   0.247
11295TIP3    H233829   7.555   0.174   0.214
11296TIP3   OH233830   5.260   1.629   5.260
11296TIP3    H133831   5.169   1.659   5.258
11296TIP3    H233832   5.295   1.665   5.341
11297TIP3   OH233833   6.124   1.012   0.463
11297TIP3    H133834   6.146   1.099   0.430
11297TIP3    H233835   6.163   1.009   0.550
11298TIP3   OH233836   7.587   3.771   4.860
11298TIP3    H133837   7.635   3.851   4.841
11298TIP3    H233838   7.623   3.706   4.800
11299TIP3   OH233839   7.303   0.678   6.585
11299TIP3    H133840   7.254   0.666   6.667
11299TIP3    H233841   7.323   0.589   6.556
11300TIP3   OH233842   4.158   4.595   0.504
11300TIP3    H133843   4.117   4.599   0.418
11300TIP3    H233844   4.121   4.669   0.552
11301TIP3   OH233845   0.776   0.968   1.681
11301TIP3    H133846   0.863   0.971   1.721
11301TIP3    H233847   0.727   1.037   1.726
11302TIP3   OH233848   0.065   2.071   5.100
11302TIP3    H133849   0.146   2.043   5.143
11302TIP3    H233850   0.032   2.142   5.156
11303TIP3   OH233851   4.351   7.539   1.103
11303TIP3    H133852   4.286   7.474   1.077
11303TIP3    H233853   4.430   7.515   1.054
11304TIP3   OH233854   4.114   5.177   5.152
11304TIP3    H133855   4.190   5.143   5.201
11304TIP3    H233856   4.101   5.265   5.186
11305TIP3   OH233857   5.958   4.360   6.350
11305TIP3    H133858   5.907   4.437   6.322
11305TIP3    H233859   5.958   4.303   6.273
11306TIP3   OH233860   3.041   5.205   4.025
11306TIP3    H133861   3.020   5.118   3.992
11306TIP3    H233862   3.136   5.209   4.026
11307TIP3   OH233863   2.709   6.147   2.019
11307TIP3    H133864   2.755   6.210   1.964
11307TIP3    H233865   2.625   6.188   2.038
11308TIP3   OH233866   0.909   1.925   4.053
11308TIP3    H133867   0.928   2.018   4.042
11308TIP3    H233868   0.878   1.917   4.144
11309TIP3   OH233869   1.085   7.313   4.494
11309TIP3    H133870   1.099   7.353   4.409
11309TIP3    H233871   1.076   7.387   4.554
11310TIP3   OH233872   0.596   3.971   3.201
11310TIP3    H133873   0.672   3.987   3.256
11310TIP3    H233874   0.576   4.057   3.163
11311TIP3   OH233875   1.754   1.116   0.726
11311TIP3    H133876   1.832   1.062   0.709
11311TIP3    H233877   1.778   1.168   0.802
11312TIP3   OH233878   7.525   0.264   6.062
11312TIP3    H133879   7.473   0.199   6.109
11312TIP3    H233880   7.460   0.325   6.027
11313TIP3   OH233881   4.335   5.742   5.849
11313TIP3    H133882   4.300   5.760   5.936
11313TIP3    H233883   4.375   5.656   5.856
11314TIP3   OH233884   3.153   3.713   0.354
11314TIP3    H133885   3.124   3.633   0.399
11314TIP3    H233886   3.247   3.717   0.370
11315TIP3   OH233887   7.373   2.398   6.034
11315TIP3    H133888   7.286   2.387   6.071
11315TIP3    H233889   7.369   2.480   5.986
11316TIP3   OH233890   1.959   7.230   0.428
11316TIP3    H133891   1.978   7.246   0.520
11316TIP3    H233892   2.003   7.302   0.382
11317TIP3   OH233893   3.647   3.865   4.075
11317TIP3    H133894   3.601   3.898   3.998
11317TIP3    H233895   3.597   3.898   4.150
11318TIP3   OH233896   6.176   5.078   0.978
11318TIP3    H133897   6.165   4.986   0.954
11318TIP3    H233898   6.268   5.084   1.006
11319TIP3   OH233899   2.885   7.209   3.540
11319TIP3    H133900   2.835   7.128   3.534
11319TIP3    H233901   2.943   7.197   3.615
11320TIP3   OH233902   5.022   1.060   2.265
11320TIP3    H133903   5.015   1.139   2.211
11320TIP3    H233904   5.107   1.022   2.241
11321TIP3   OH233905   7.488   7.057   6.102
11321TIP3    H133906   7.504   7.020   6.015
11321TIP3    H233907   7.394   7.076   6.102
11322TIP3   OH233908   3.983   0.624   2.712
11322TIP3    H133909   3.972   0.529   2.724
11322TIP3    H233910   4.057   0.632   2.652
11323TIP3   OH233911   5.533   4.947   3.312
11323TIP3    H133912   5.555   4.885   3.381
11323TIP3    H233913   5.609   5.004   3.305
11324TIP3   OH233914   1.505   5.786   5.465
11324TIP3    H133915   1.541   5.834   5.391
11324TIP3    H233916   1.568   5.716   5.481
11325TIP3   OH233917   0.073   6.389   0.600
11325TIP3    H133918   0.007   6.410   0.665
11325TIP3    H233919   0.102   6.474   0.566
11326TIP3   OH233920   3.049   1.775   3.094
11326TIP3    H133921   3.030   1.820   3.177
11326TIP3    H233922   2.963   1.764   3.053
11327TIP3   OH233923   7.561   1.717   6.113
11327TIP3    H133924   7.634   1.656   6.126
11327TIP3    H233925   7.547   1.756   6.199
11328TIP3   OH233926   4.455   0.398   3.561
11328TIP3    H133927   4.470   0.430   3.650
11328TIP3    H233928   4.393   0.459   3.523
11329TIP3   OH233929   6.037   2.780   4.340
11329TIP3    H133930   5.954   2.808   4.302
11329TIP3    H233931   6.101   2.841   4.304
11330TIP3   OH233932   2.146   6.550   1.579
11330TIP3    H133933   2.099   6.512   1.505
11330TIP3    H233934   2.095   6.522   1.656
11331TIP3   OH233935   3.741   6.092   2.782
11331TIP3    H133936   3.796   6.067   2.708
11331TIP3    H233937   3.654   6.105   2.744
11332TIP3   OH233938   6.122   5.900   0.015
11332TIP3    H133939   6.154   5.932   0.099
11332TIP3    H233940   6.198   5.860  -0.027
11333TIP3   OH233941   6.093   0.089   0.630
11333TIP3    H133942   6.079   0.024   0.699
11333TIP3    H233943   6.183   0.119   0.643
11334TIP3   OH233944   2.928   3.684   5.962
11334TIP3    H133945   3.010   3.727   5.986
11334TIP3    H233946   2.952   3.592   5.948
11335TIP3   OH233947   1.501   5.893   6.737
11335TIP3    H133948   1.515   5.907   6.643
11335TIP3    H233949   1.559   5.821   6.760
11336TIP3   OH233950   5.587   1.873   1.806
11336TIP3    H133951   5.640   1.808   1.851
11336TIP3    H233952   5.650   1.931   1.764
11337TIP3   OH233953   3.339   3.258   3.874
11337TIP3    H133954   3.386   3.194   3.927
11337TIP3    H233955   3.346   3.225   3.784
11338TIP3   OH233956   7.359   5.331   4.852
11338TIP3    H133957   7.367   5.373   4.937
11338TIP3    H233958   7.290   5.380   4.807
11339TIP3   OH233959   1.360   2.855   1.548
11339TIP3    H133960   1.411   2.936   1.546
11339TIP3    H233961   1.269   2.885   1.552
11340TIP3   OH233962   4.848   2.313   1.049
11340TIP3    H133963   4.891   2.356   0.975
11340TIP3    H233964   4.778   2.260   1.010
11341TIP3   OH233965   3.403   1.687   3.812
11341TIP3    H133966   3.356   1.707   3.731
11341TIP3    H233967   3.376   1.597   3.833
11342TIP3   OH233968   4.195   4.495   3.387
11342TIP3    H133969   4.168   4.416   3.341
11342TIP3    H233970   4.127   4.559   3.366
11343TIP3   OH233971   5.335   0.447   0.320
11343TIP3    H133972   5.320   0.410   0.233
11343TIP3    H233973   5.391   0.384   0.364
11344TIP3   OH233974   5.491   3.118   4.397
11344TIP3    H133975   5.476   3.202   4.354
11344TIP3    H233976   5.408   3.097   4.439
11345TIP3   OH233977   5.288   3.712   5.382
11345TIP3    H133978   5.324   3.782   5.327
11345TIP3    H233979   5.253   3.649   5.319
11346TIP3   OH233980   2.716   4.082   6.403
11346TIP3    H133981   2.794   4.037   6.434
11346TIP3    H233982   2.648   4.059   6.467
11347TIP3   OH233983   1.127   0.210   6.286
11347TIP3    H133984   1.061   0.185   6.351
11347TIP3    H233985   1.209   0.212   6.336
11348TIP3   OH233986   5.349   6.417   1.330
11348TIP3    H133987   5.431   6.370   1.318
11348TIP3    H233988   5.315   6.386   1.413
11349TIP3   OH233989   3.763   3.461   1.084
11349TIP3    H133990   3.814   3.383   1.060
11349TIP3    H233991   3.672   3.430   1.086
11350TIP3   OH233992   1.798   1.692   4.191
11350TIP3    H133993   1.717   1.739   4.172
11350TIP3    H233994   1.769   1.608   4.226
11351TIP3   OH233995   3.670   4.875   1.686
11351TIP3    H133996   3.592   4.927   1.666
11351TIP3    H233997   3.663   4.799   1.629
11352TIP3   OH233998   4.955   6.668   5.807
11352TIP3    H133999   4.948   6.573   5.801
11352TIP3    H234000   5.025   6.683   5.870
11353TIP3   OH234001   1.075   2.310   1.687
11353TIP3    H134002   1.113   2.301   1.599
11353TIP3    H234003   1.068   2.404   1.700
11354TIP3   OH234004   2.789   1.087   2.182
11354TIP3    H134005   2.809   1.173   2.220
11354TIP3    H234006   2.849   1.027   2.226
11355TIP3   OH234007   5.920   1.557   0.159
11355TIP3    H134008   5.913   1.604   0.242
11355TIP3    H234009   5.994   1.498   0.171
11356TIP3   OH234010   4.050   5.223   1.894
11356TIP3    H134011   3.985   5.212   1.964
11356TIP3    H234012   4.060   5.317   1.884
11357TIP3   OH234013   1.098   1.149   5.519
11357TIP3    H134014   1.166   1.082   5.528
11357TIP3    H234015   1.026   1.105   5.475
11358TIP3   OH234016   4.464   2.597   5.675
11358TIP3    H134017   4.418   2.680   5.662
11358TIP3    H234018   4.510   2.609   5.758
11359TIP3   OH234019   4.161   0.161   0.608
11359TIP3    H134020   4.188   0.238   0.658
11359TIP3    H234021   4.090   0.192   0.552
11360TIP3   OH234022   7.939   3.915   4.553
11360TIP3    H134023   8.015   3.881   4.506
11360TIP3    H234024   7.948   3.881   4.642
11361TIP3   OH234025   7.166   4.691   5.826
11361TIP3    H134026   7.155   4.680   5.731
11361TIP3    H234027   7.202   4.608   5.856
11362TIP3   OH234028   5.177   4.199   2.160
11362TIP3    H134029   5.168   4.292   2.182
11362TIP3    H234030   5.089   4.172   2.135
11363TIP3   OH234031   2.696   2.586   4.068
11363TIP3    H134032   2.600   2.597   4.066
11363TIP3    H234033   2.729   2.654   4.009
11364TIP3   OH234034   2.680   7.471   2.794
11364TIP3    H134035   2.718   7.392   2.756
11364TIP3    H234036   2.748   7.505   2.852
11365TIP3   OH234037   5.839   4.665   1.348
11365TIP3    H134038   5.763   4.656   1.290
11365TIP3    H234039   5.853   4.760   1.354
11366TIP3   OH234040   7.630   7.343   2.134
11366TIP3    H134041   7.548   7.301   2.159
11366TIP3    H234042   7.607   7.436   2.126
11367TIP3   OH234043   1.686   0.951   2.671
11367TIP3    H134044   1.618   0.884   2.669
11367TIP3    H234045   1.642   1.031   2.641
11368TIP3   OH234046   4.295   0.918   5.801
11368TIP3    H134047   4.222   0.906   5.861
11368TIP3    H234048   4.373   0.903   5.854
11369TIP3   OH234049   6.351   4.808   0.033
11369TIP3    H134050   6.326   4.870  -0.035
11369TIP3    H234051   6.362   4.862   0.112
11370TIP3   OH234052   2.559   0.909   0.572
11370TIP3    H134053   2.584   1.001   0.565
11370TIP3    H234054   2.640   0.860   0.560
11371TIP3   OH234055   8.209   6.954   5.654
11371TIP3    H134056   8.182   6.863   5.651
11371TIP3    H234057   8.190   6.983   5.743
11372TIP3   OH234058   2.189   0.042   1.953
11372TIP3    H134059   2.158   0.116   2.005
11372TIP3    H234060   2.137   0.045   1.873
11373TIP3   OH234061   6.481   5.053   4.033
11373TIP3    H134062   6.440   4.986   4.087
11373TIP3    H234063   6.550   5.007   3.985
11374TIP3   OH234064   7.287   4.482   0.157
11374TIP3    H134065   7.287   4.434   0.240
11374TIP3    H234066   7.209   4.450   0.111
11375TIP3   OH234067   6.894   2.125   0.450
11375TIP3    H134068   6.989   2.122   0.454
11375TIP3    H234069   6.872   2.101   0.360
11376TIP3   OH234070   2.314   2.800   4.863
11376TIP3    H134071   2.316   2.828   4.772
11376TIP3    H234072   2.372   2.862   4.908
11377TIP3   OH234073   8.200   6.273   1.786
11377TIP3    H134074   8.229   6.325   1.861
11377TIP3    H234075   8.229   6.323   1.709
11378TIP3   OH234076   2.232   1.518   1.682
11378TIP3    H134077   2.236   1.488   1.773
11378TIP3    H234078   2.273   1.447   1.632
11379TIP3   OH234079   0.277   4.333   1.454
11379TIP3    H134080   0.274   4.247   1.496
11379TIP3    H234081   0.191   4.342   1.412
11380TIP3   OH234082   4.667   6.310   4.523
11380TIP3    H134083   4.732   6.332   4.457
11380TIP3    H234084   4.627   6.229   4.492
11381TIP3   OH234085   4.833   4.207   1.543
11381TIP3    H134086   4.892   4.238   1.474
11381TIP3    H234087   4.748   4.198   1.500
11382TIP3   OH234088   6.010   6.257   0.337
11382TIP3    H134089   5.949   6.185   0.320
11382TIP3    H234090   5.957   6.336   0.327
11383TIP3   OH234091   5.278   7.296   6.385
11383TIP3    H134092   5.317   7.259   6.306
11383TIP3    H234093   5.350   7.342   6.429
11384TIP3   OH234094   6.109   7.804   1.695
11384TIP3    H134095   6.019   7.836   1.702
11384TIP3    H234096   6.146   7.854   1.622
11385TIP3   OH234097   2.966   4.388   6.742
11385TIP3    H134098   2.900   4.380   6.810
11385TIP3    H234099   3.045   4.349   6.781
11386TIP3   OH234100   7.202   3.099   3.561
11386TIP3    H134101   7.232   3.036   3.496
11386TIP3    H234102   7.279   3.119   3.614
11387TIP3   OH234103   7.084   0.532   3.954
11387TIP3    H134104   7.130   0.604   3.911
11387TIP3    H234105   7.103   0.543   4.047
11388TIP3   OH234106   6.612   7.815   2.816
11388TIP3    H134107   6.573   7.833   2.902
11388TIP3    H234108   6.578   7.884   2.759
11389TIP3   OH234109   7.406   3.937   5.881
11389TIP3    H134110   7.339   3.883   5.838
11389TIP3    H234111   7.373   3.950   5.970
11390TIP3   OH234112   1.228   6.308   5.160
11390TIP3    H134113   1.249   6.363   5.085
11390TIP3    H234114   1.144   6.268   5.137
11391TIP3   OH234115   5.542   6.812   5.861
11391TIP3    H134116   5.617   6.815   5.919
11391TIP3    H234117   5.551   6.729   5.814
11392TIP3   OH234118   3.003   5.354   5.748
11392TIP3    H134119   2.976   5.325   5.835
11392TIP3    H234120   3.099   5.359   5.753
11393TIP3   OH234121   7.020   0.094   0.125
11393TIP3    H134122   7.015   0.165   0.189
11393TIP3    H234123   7.041   0.016   0.177
11394TIP3   OH234124   5.761   3.664   5.933
11394TIP3    H134125   5.769   3.692   6.025
11394TIP3    H234126   5.673   3.693   5.907
11395TIP3   OH234127   7.809   4.940   1.498
11395TIP3    H134128   7.898   4.927   1.531
11395TIP3    H234129   7.807   5.030   1.467
11396TIP3   OH234130   4.917   4.432   4.081
11396TIP3    H134131   4.937   4.360   4.141
11396TIP3    H234132   4.839   4.403   4.033
11397TIP3   OH234133   2.508   2.069   5.561
11397TIP3    H134134   2.467   2.145   5.602
11397TIP3    H234135   2.483   2.075   5.469
11398TIP3   OH234136   6.172   1.074   1.973
11398TIP3    H134137   6.149   1.016   2.046
11398TIP3    H234138   6.089   1.092   1.929
11399TIP3   OH234139   0.023   5.477   1.868
11399TIP3    H134140   0.093   5.478   1.933
11399TIP3    H234141  -0.057   5.491   1.918
11400TIP3   OH234142   3.826   2.372   4.694
11400TIP3    H134143   3.864   2.375   4.606
11400TIP3    H234144   3.771   2.450   4.699
11401TIP3   OH234145   6.049   3.065   3.480
11401TIP3    H134146   6.126   3.033   3.526
11401TIP3    H234147   6.080   3.083   3.391
11402TIP3   OH234148   1.445   1.426   3.428
11402TIP3    H134149   1.449   1.436   3.333
11402TIP3    H234150   1.451   1.332   3.444
11403TIP3   OH234151   0.063   4.490   0.874
11403TIP3    H134152   0.017   4.573   0.861
11403TIP3    H234153   0.002   4.423   0.844
11404TIP3   OH234154   4.965   7.749   1.163
11404TIP3    H134155   4.968   7.683   1.233
11404TIP3    H234156   4.968   7.833   1.209
11405TIP3   OH234157   0.050   1.401   2.557
11405TIP3    H134158   0.068   1.492   2.537
11405TIP3    H234159   0.123   1.374   2.613
11406TIP3   OH234160   5.014   1.694   2.725
11406TIP3    H134161   5.005   1.610   2.768
11406TIP3    H234162   5.040   1.755   2.795
11407TIP3   OH234163   7.432   0.902   6.127
11407TIP3    H134164   7.371   0.976   6.129
11407TIP3    H234165   7.454   0.891   6.035
11408TIP3   OH234166   7.968   3.238   6.367
11408TIP3    H134167   7.980   3.305   6.299
11408TIP3    H234168   7.891   3.188   6.338
11409TIP3   OH234169   7.718   3.118   5.753
11409TIP3    H134170   7.796   3.120   5.807
11409TIP3    H234171   7.710   3.207   5.718
11410TIP3   OH234172   1.202   5.576   1.369
11410TIP3    H134173   1.256   5.500   1.389
11410TIP3    H234174   1.265   5.642   1.339
11411TIP3   OH234175   2.728   1.064   0.781
11411TIP3    H134176   2.805   1.076   0.726
11411TIP3    H234177   2.718   0.969   0.788
11412TIP3   OH234178   6.377   1.428   3.178
11412TIP3    H134179   6.425   1.359   3.224
11412TIP3    H234180   6.312   1.381   3.125
11413TIP3   OH234181   7.285   2.352   1.259
11413TIP3    H134182   7.277   2.262   1.227
11413TIP3    H234183   7.246   2.405   1.191
11414TIP3   OH234184   0.904   7.111   0.207
11414TIP3    H134185   0.838   7.068   0.153
11414TIP3    H234186   0.988   7.081   0.172
11415TIP3   OH234187   1.307   5.421   5.483
11415TIP3    H134188   1.360   5.387   5.411
11415TIP3    H234189   1.353   5.392   5.562
11416TIP3   OH234190   0.542   1.482   1.227
11416TIP3    H134191   0.519   1.507   1.316
11416TIP3    H234192   0.547   1.565   1.179
11417TIP3   OH234193   5.663   1.442   0.175
11417TIP3    H134194   5.758   1.453   0.180
11417TIP3    H234195   5.633   1.446   0.265
11418TIP3   OH234196   5.351   3.506   5.890
11418TIP3    H134197   5.391   3.593   5.897
11418TIP3    H234198   5.291   3.501   5.965
11419TIP3   OH234199   8.185   5.720   0.185
11419TIP3    H134200   8.162   5.628   0.198
11419TIP3    H234201   8.174   5.735   0.091
11420TIP3   OH234202   4.143   5.736   2.414
11420TIP3    H134203   4.059   5.781   2.398
11420TIP3    H234204   4.165   5.697   2.330
11421TIP3   OH234205   0.039   0.340   0.168
11421TIP3    H134206  -0.039   0.356   0.221
11421TIP3    H234207   0.004   0.310   0.084
11422TIP3   OH234208   7.905   6.546   5.455
11422TIP3    H134209   7.936   6.491   5.526
11422TIP3    H234210   7.870   6.624   5.498
11423TIP3   OH234211   4.011   3.234   3.675
11423TIP3    H134212   3.989   3.175   3.603
11423TIP3    H234213   4.088   3.195   3.716
11424TIP3   OH234214   1.628   3.825   0.146
11424TIP3    H134215   1.699   3.761   0.149
11424TIP3    H234216   1.553   3.776   0.111
11425TIP3   OH234217   7.733   0.142   0.164
11425TIP3    H134218   7.731   0.060   0.116
11425TIP3    H234219   7.825   0.153   0.190
11426TIP3   OH234220   6.955   4.031   5.678
11426TIP3    H134221   6.946   3.942   5.710
11426TIP3    H234222   6.972   4.022   5.585
11427TIP3   OH234223   4.739   1.900   3.447
11427TIP3    H134224   4.650   1.917   3.477
11427TIP3    H234225   4.794   1.949   3.508
11428TIP3   OH234226   5.526   4.359   0.043
11428TIP3    H134227   5.513   4.284  -0.014
11428TIP3    H234228   5.483   4.431  -0.003
11429TIP3   OH234229   1.485   3.897   5.942
11429TIP3    H134230   1.434   3.830   5.897
11429TIP3    H234231   1.422   3.940   6.000
11430TIP3   OH234232   0.697   3.055   5.701
11430TIP3    H134233   0.784   3.025   5.727
11430TIP3    H234234   0.709   3.147   5.678
11431TIP3   OH234235   3.651   5.624   0.121
11431TIP3    H134236   3.663   5.598   0.029
11431TIP3    H234237   3.609   5.548   0.161
11432TIP3   OH234238   1.017   4.107   3.257
11432TIP3    H134239   1.062   4.045   3.314
11432TIP3    H234240   0.925   4.102   3.283
11433TIP3   OH234241   4.662   3.222   6.399
11433TIP3    H134242   4.567   3.220   6.411
11433TIP3    H234243   4.695   3.153   6.456
11434TIP3   OH234244   5.664   4.567   0.768
11434TIP3    H134245   5.669   4.613   0.684
11434TIP3    H234246   5.744   4.515   0.773
11435TIP3   OH234247   0.485   0.107   0.614
11435TIP3    H134248   0.469   0.027   0.664
11435TIP3    H234249   0.502   0.174   0.681
11436TIP3   OH234250   7.513   2.913   6.453
11436TIP3    H134251   7.514   2.885   6.362
11436TIP3    H234252   7.602   2.896   6.484
11437TIP3   OH234253   0.396   1.256   4.025
11437TIP3    H134254   0.335   1.324   3.996
11437TIP3    H234255   0.467   1.257   3.961
11438TIP3   OH234256   4.807   3.561   3.057
11438TIP3    H134257   4.853   3.613   2.990
11438TIP3    H234258   4.869   3.491   3.078
11439TIP3   OH234259   7.760   7.528   1.231
11439TIP3    H134260   7.849   7.534   1.264
11439TIP3    H234261   7.723   7.615   1.245
11440TIP3   OH234262   7.655   6.087   2.113
11440TIP3    H134263   7.745   6.116   2.127
11440TIP3    H234264   7.662   6.011   2.055
11441TIP3   OH234265   8.234   7.276   5.150
11441TIP3    H134266   8.319   7.275   5.106
11441TIP3    H234267   8.208   7.184   5.154
11442TIP3   OH234268   7.174   5.511   6.725
11442TIP3    H134269   7.221   5.508   6.641
11442TIP3    H234270   7.233   5.560   6.783
11443TIP3   OH234271   7.694   6.735   6.686
11443TIP3    H134272   7.625   6.677   6.718
11443TIP3    H234273   7.734   6.770   6.765
11444TIP3   OH234274   2.380   2.523   4.478
11444TIP3    H134275   2.428   2.571   4.410
11444TIP3    H234276   2.368   2.435   4.441
11445TIP3   OH234277   2.261   0.873   3.596
11445TIP3    H134278   2.225   0.921   3.671
11445TIP3    H234279   2.203   0.897   3.523
11446TIP3   OH234280   3.756   2.129   5.339
11446TIP3    H134281   3.764   2.216   5.379
11446TIP3    H234282   3.842   2.114   5.299
11447TIP3   OH234283   2.156   3.602   2.943
11447TIP3    H134284   2.119   3.671   2.998
11447TIP3    H234285   2.240   3.637   2.913
11448TIP3   OH234286   2.089   6.339   2.062
11448TIP3    H134287   2.111   6.294   1.981
11448TIP3    H234288   2.174   6.366   2.098
11449TIP3   OH234289   5.706   7.181   2.724
11449TIP3    H134290   5.619   7.159   2.759
11449TIP3    H234291   5.750   7.226   2.796
11450TIP3   OH234292   6.161   2.661   0.206
11450TIP3    H134293   6.073   2.670   0.243
11450TIP3    H234294   6.180   2.567   0.211
11451TIP3   OH234295   5.457   1.866   4.416
11451TIP3    H134296   5.433   1.876   4.324
11451TIP3    H234297   5.553   1.865   4.416
11452TIP3   OH234298   7.635   0.198   1.791
11452TIP3    H134299   7.617   0.174   1.701
11452TIP3    H234300   7.632   0.294   1.791
11453TIP3   OH234301   5.263   5.382   2.262
11453TIP3    H134302   5.243   5.460   2.314
11453TIP3    H234303   5.355   5.393   2.237
11454TIP3   OH234304   5.694   6.176   6.490
11454TIP3    H134305   5.731   6.256   6.528
11454TIP3    H234306   5.749   6.106   6.524
11455TIP3   OH234307   5.329   7.678   1.067
11455TIP3    H134308   5.305   7.696   1.159
11455TIP3    H234309   5.264   7.727   1.016
11456TIP3   OH234310   6.682   7.253   0.490
11456TIP3    H134311   6.593   7.288   0.505
11456TIP3    H234312   6.718   7.241   0.577
11457TIP3   OH234313   3.439   1.006   0.499
11457TIP3    H134314   3.410   1.096   0.484
11457TIP3    H234315   3.379   0.972   0.565
11458TIP3   OH234316   1.017   5.774   2.914
11458TIP3    H134317   1.107   5.769   2.884
11458TIP3    H234318   1.023   5.816   3.000
11459TIP3   OH234319   4.327   7.617   2.531
11459TIP3    H134320   4.413   7.601   2.492
11459TIP3    H234321   4.327   7.566   2.612
11460TIP3   OH234322   6.901   3.771   6.460
11460TIP3    H134323   6.910   3.866   6.469
11460TIP3    H234324   6.901   3.738   6.549
11461TIP3   OH234325   3.619   2.758   1.941
11461TIP3    H134326   3.561   2.813   1.994
11461TIP3    H234327   3.559   2.706   1.887
11462TIP3   OH234328   5.841   4.867   0.782
11462TIP3    H134329   5.896   4.944   0.770
11462TIP3    H234330   5.794   4.858   0.699
11463TIP3   OH234331   7.592   0.728   3.126
11463TIP3    H134332   7.620   0.742   3.035
11463TIP3    H234333   7.595   0.816   3.165
11464TIP3   OH234334   0.068   4.490   3.098
11464TIP3    H134335   0.125   4.538   3.037
11464TIP3    H234336  -0.018   4.531   3.088
11465TIP3   OH234337   8.019   5.911   5.963
11465TIP3    H134338   7.959   5.910   6.037
11465TIP3    H234339   8.064   5.826   5.968
11466TIP3   OH234340   3.618   5.092   4.611
11466TIP3    H134341   3.633   5.101   4.517
11466TIP3    H234342   3.687   5.034   4.641
11467TIP3   OH234343   7.781   3.642   2.756
11467TIP3    H134344   7.827   3.707   2.809
11467TIP3    H234345   7.729   3.694   2.695
11468TIP3   OH234346   3.188   6.683   1.210
11468TIP3    H134347   3.170   6.716   1.298
11468TIP3    H234348   3.114   6.625   1.191
11469TIP3   OH234349   3.400   3.480   5.543
11469TIP3    H134350   3.318   3.478   5.493
11469TIP3    H234351   3.409   3.392   5.578
11470TIP3   OH234352   4.639   5.906   3.460
11470TIP3    H134353   4.550   5.939   3.468
11470TIP3    H234354   4.629   5.817   3.426
11471TIP3   OH234355   4.103   4.005   5.652
11471TIP3    H134356   4.099   4.000   5.747
11471TIP3    H234357   4.135   4.093   5.634
11472TIP3   OH234358   5.085   4.742   6.497
11472TIP3    H134359   5.119   4.653   6.502
11472TIP3    H234360   5.021   4.747   6.569
11473TIP3   OH234361   1.151   4.154   6.574
11473TIP3    H134362   1.078   4.124   6.519
11473TIP3    H234363   1.125   4.242   6.601
11474TIP3   OH234364   6.883   1.064   3.030
11474TIP3    H134365   6.875   1.054   3.125
11474TIP3    H234366   6.967   1.109   3.018
11475TIP3   OH234367   0.579   5.693   1.163
11475TIP3    H134368   0.598   5.704   1.070
11475TIP3    H234369   0.486   5.671   1.165
11476TIP3   OH234370   2.996   2.423   4.495
11476TIP3    H134371   3.008   2.329   4.503
11476TIP3    H234372   2.962   2.435   4.406
11477TIP3   OH234373   4.035   0.058   1.115
11477TIP3    H134374   4.014   0.116   1.189
11477TIP3    H234375   4.113   0.010   1.144
11478TIP3   OH234376   2.118   4.383   4.950
11478TIP3    H134377   2.062   4.306   4.953
11478TIP3    H234378   2.116   4.412   4.859
11479TIP3   OH234379   1.993   2.108   0.850
11479TIP3    H134380   2.088   2.100   0.844
11479TIP3    H234381   1.960   2.035   0.797
11480TIP3   OH234382   2.344   5.156   4.786
11480TIP3    H134383   2.345   5.251   4.787
11480TIP3    H234384   2.299   5.132   4.867
11481TIP3   OH234385   0.646   4.362   1.193
11481TIP3    H134386   0.559   4.341   1.160
11481TIP3    H234387   0.705   4.338   1.121
11482TIP3   OH234388   1.358   7.517   1.293
11482TIP3    H134389   1.392   7.429   1.283
11482TIP3    H234390   1.266   7.511   1.268
11483TIP3   OH234391   5.406   2.023   3.779
11483TIP3    H134392   5.411   1.999   3.687
11483TIP3    H234393   5.477   1.975   3.821
11484TIP3   OH234394   0.226   2.746   4.000
11484TIP3    H134395   0.290   2.702   4.057
11484TIP3    H234396   0.149   2.689   4.003
11485TIP3   OH234397   6.764   7.433   4.952
11485TIP3    H134398   6.710   7.375   5.005
11485TIP3    H234399   6.846   7.442   5.001
11486TIP3   OH234400   5.461   7.175   2.860
11486TIP3    H134401   5.443   7.251   2.804
11486TIP3    H234402   5.493   7.213   2.942
11487TIP3   OH234403   3.348   6.088   4.076
11487TIP3    H134404   3.440   6.087   4.104
11487TIP3    H234405   3.345   6.024   4.005
11488TIP3   OH234406   7.152   7.407   6.636
11488TIP3    H134407   7.237   7.377   6.605
11488TIP3    H234408   7.150   7.383   6.729
11489TIP3   OH234409   7.430   3.756   3.428
11489TIP3    H134410   7.372   3.687   3.396
11489TIP3    H234411   7.403   3.834   3.378
11490TIP3   OH234412   4.612   0.076   3.882
11490TIP3    H134413   4.614   0.110   3.792
11490TIP3    H234414   4.700   0.090   3.915
11491TIP3   OH234415   1.680   2.215   0.320
11491TIP3    H134416   1.664   2.162   0.398
11491TIP3    H234417   1.631   2.296   0.336
11492TIP3   OH234418   4.977   3.354   3.053
11492TIP3    H134419   4.901   3.296   3.054
11492TIP3    H234420   5.033   3.319   2.983
11493TIP3   OH234421   7.823   5.689   1.874
11493TIP3    H134422   7.813   5.749   1.948
11493TIP3    H234423   7.894   5.630   1.900
11494TIP3   OH234424   1.679   2.178   5.082
11494TIP3    H134425   1.663   2.270   5.060
11494TIP3    H234426   1.607   2.131   5.042
11495TIP3   OH234427   3.776   0.033   2.673
11495TIP3    H134428   3.685   0.003   2.675
11495TIP3    H234429   3.807   0.010   2.585
11496TIP3   OH234430   2.724   7.545   2.512
11496TIP3    H134431   2.696   7.535   2.603
11496TIP3    H234432   2.812   7.508   2.510
11497TIP3   OH234433   5.894   1.166   2.970
11497TIP3    H134434   5.856   1.092   2.923
11497TIP3    H234435   5.819   1.217   3.000
11498TIP3   OH234436   1.314   6.459   2.373
11498TIP3    H134437   1.335   6.447   2.465
11498TIP3    H234438   1.354   6.543   2.350
11499TIP3   OH234439   6.856   2.036   2.776
11499TIP3    H134440   6.843   2.120   2.731
11499TIP3    H234441   6.917   1.988   2.720
11500TIP3   OH234442   7.158   4.890   4.210
11500TIP3    H134443   7.103   4.874   4.133
11500TIP3    H234444   7.099   4.876   4.285
11501TIP3   OH234445   4.627   6.992   3.887
11501TIP3    H134446   4.615   7.080   3.921
11501TIP3    H234447   4.565   6.938   3.936
11502TIP3   OH234448   3.642   2.736   5.384
11502TIP3    H134449   3.605   2.668   5.441
11502TIP3    H234450   3.662   2.691   5.302
11503TIP3   OH234451   7.460   4.343   3.010
11503TIP3    H134452   7.520   4.270   2.998
11503TIP3    H234453   7.422   4.358   2.924
11504TIP3   OH234454   0.560   1.296   0.851
11504TIP3    H134455   0.603   1.380   0.832
11504TIP3    H234456   0.538   1.260   0.765
11505TIP3   OH234457   6.822   4.611   2.221
11505TIP3    H134458   6.872   4.691   2.240
11505TIP3    H234459   6.888   4.544   2.206
11506TIP3   OH234460   3.279   4.646   4.613
11506TIP3    H134461   3.191   4.639   4.577
11506TIP3    H234462   3.288   4.569   4.670
11507TIP3   OH234463   2.702   4.310   0.028
11507TIP3    H134464   2.777   4.348   0.073
11507TIP3    H234465   2.673   4.378  -0.033
11508TIP3   OH234466   2.029   0.212   2.945
11508TIP3    H134467   2.058   0.139   2.891
11508TIP3    H234468   1.937   0.225   2.920
11509TIP3   OH234469   1.483   6.996   2.691
11509TIP3    H134470   1.576   6.975   2.698
11509TIP3    H234471   1.470   7.018   2.599
11510TIP3   OH234472   7.357   3.101   2.422
11510TIP3    H134473   7.389   3.147   2.500
11510TIP3    H234474   7.425   3.036   2.404
11511TIP3   OH234475   3.353   4.468   6.231
11511TIP3    H134476   3.316   4.520   6.160
11511TIP3    H234477   3.359   4.379   6.196
11512TIP3   OH234478   2.389   4.706   0.205
11512TIP3    H134479   2.460   4.750   0.252
11512TIP3    H234480   2.407   4.723   0.113
11513TIP3   OH234481   8.215   7.506   3.827
11513TIP3    H134482   8.144   7.502   3.892
11513TIP3    H234483   8.234   7.414   3.807
11514TIP3   OH234484   4.723   7.433   1.602
11514TIP3    H134485   4.723   7.491   1.678
11514TIP3    H234486   4.696   7.348   1.638
11515TIP3   OH234487   1.568   5.918   1.450
11515TIP3    H134488   1.577   6.004   1.491
11515TIP3    H234489   1.600   5.856   1.516
11516TIP3   OH234490   2.904   3.808   3.619
11516TIP3    H134491   2.845   3.879   3.643
11516TIP3    H234492   2.847   3.741   3.580
11517TIP3   OH234493   1.462   6.013   0.648
11517TIP3    H134494   1.518   6.012   0.570
11517TIP3    H234495   1.523   6.003   0.721
11518TIP3   OH234496   4.370   2.182   5.418
11518TIP3    H134497   4.316   2.103   5.416
11518TIP3    H234498   4.306   2.254   5.416
11519TIP3   OH234499   3.155   2.120   6.235
11519TIP3    H134500   3.231   2.064   6.250
11519TIP3    H234501   3.155   2.180   6.309
11520TIP3   OH234502   0.334   3.250   0.657
11520TIP3    H134503   0.312   3.202   0.577
11520TIP3    H234504   0.426   3.229   0.673
11521TIP3   OH234505   8.003   1.220   0.115
11521TIP3    H134506   8.024   1.304   0.075
11521TIP3    H234507   8.011   1.157   0.043
11522TIP3   OH234508   5.135   3.378   4.400
11522TIP3    H134509   5.060   3.319   4.410
11522TIP3    H234510   5.188   3.337   4.331
11523TIP3   OH234511   4.966   7.785   4.055
11523TIP3    H134512   5.004   7.700   4.078
11523TIP3    H234513   4.897   7.799   4.120
11524TIP3   OH234514   0.708   7.434   1.124
11524TIP3    H134515   0.756   7.418   1.205
11524TIP3    H234516   0.772   7.419   1.054
11525TIP3   OH234517   7.390   4.918   0.227
11525TIP3    H134518   7.476   4.881   0.208
11525TIP3    H234519   7.328   4.860   0.183
11526TIP3   OH234520   2.479   0.403   0.213
11526TIP3    H134521   2.573   0.419   0.218
11526TIP3    H234522   2.446   0.469   0.152
11527TIP3   OH234523   4.363   3.718   5.649
11527TIP3    H134524   4.370   3.652   5.580
11527TIP3    H234525   4.321   3.672   5.721
11528TIP3   OH234526   8.094   4.007   5.650
11528TIP3    H134527   8.078   3.918   5.679
11528TIP3    H234528   8.038   4.062   5.704
11529TIP3   OH234529   0.732   0.230   4.875
11529TIP3    H134530   0.805   0.188   4.921
11529TIP3    H234531   0.669   0.252   4.944
11530TIP3   OH234532   3.988   0.200   4.570
11530TIP3    H134533   3.994   0.237   4.482
11530TIP3    H234534   3.986   0.276   4.628
11531TIP3   OH234535   6.889   6.739   3.437
11531TIP3    H134536   6.816   6.718   3.380
11531TIP3    H234537   6.852   6.741   3.525
11532TIP3   OH234538   4.472   4.670   0.818
11532TIP3    H134539   4.510   4.607   0.757
11532TIP3    H234540   4.487   4.632   0.905
11533TIP3   OH234541   3.097   3.339   1.248
11533TIP3    H134542   3.082   3.286   1.327
11533TIP3    H234543   3.138   3.419   1.281
11534TIP3   OH234544   0.660   5.774   1.410
11534TIP3    H134545   0.642   5.735   1.324
11534TIP3    H234546   0.738   5.827   1.397
11535TIP3   OH234547   3.760   0.621   1.260
11535TIP3    H134548   3.829   0.557   1.242
11535TIP3    H234549   3.714   0.585   1.336
11536TIP3   OH234550   7.048   5.023   1.317
11536TIP3    H134551   7.057   4.948   1.259
11536TIP3    H234552   6.994   5.086   1.268
11537TIP3   OH234553   1.265   3.316   5.501
11537TIP3    H134554   1.198   3.266   5.455
11537TIP3    H234555   1.274   3.272   5.585
11538TIP3   OH234556   3.358   1.242   2.900
11538TIP3    H134557   3.434   1.232   2.843
11538TIP3    H234558   3.395   1.264   2.986
11539TIP3   OH234559   4.693   0.779   4.626
11539TIP3    H134560   4.734   0.705   4.671
11539TIP3    H234561   4.609   0.745   4.596
11540TIP3   OH234562   5.599   6.868   4.701
11540TIP3    H134563   5.679   6.858   4.650
11540TIP3    H234564   5.598   6.961   4.724
11541TIP3   OH234565   7.065   4.773   6.716
11541TIP3    H134566   7.003   4.701   6.706
11541TIP3    H234567   7.010   4.848   6.738
11542TIP3   OH234568   1.538   1.252   0.632
11542TIP3    H134569   1.529   1.247   0.537
11542TIP3    H234570   1.600   1.184   0.655
11543TIP3   OH234571   4.771   5.079   3.984
11543TIP3    H134572   4.867   5.072   3.982
11543TIP3    H234573   4.744   5.008   4.043
11544TIP3   OH234574   1.325   7.756   4.536
11544TIP3    H134575   1.320   7.851   4.546
11544TIP3    H234576   1.244   7.732   4.492
11545TIP3   OH234577   5.452   2.571   2.818
11545TIP3    H134578   5.514   2.550   2.888
11545TIP3    H234579   5.401   2.644   2.852
11546TIP3   OH234580   6.936   0.264   1.124
11546TIP3    H134581   7.021   0.226   1.145
11546TIP3    H234582   6.951   0.320   1.048
11547TIP3   OH234583   6.538   6.801   4.961
11547TIP3    H134584   6.616   6.752   4.988
11547TIP3    H234585   6.466   6.739   4.974
11548TIP3   OH234586   7.841   1.925   3.010
11548TIP3    H134587   7.818   1.833   3.021
11548TIP3    H234588   7.845   1.960   3.099
11549TIP3   OH234589   1.226   7.351   2.468
11549TIP3    H134590   1.162   7.291   2.429
11549TIP3    H234591   1.173   7.425   2.497
11550TIP3   OH234592   0.378   5.184   5.802
11550TIP3    H134593   0.370   5.122   5.875
11550TIP3    H234594   0.341   5.265   5.835
11551TIP3   OH234595   6.225   5.907   4.632
11551TIP3    H134596   6.142   5.915   4.585
11551TIP3    H234597   6.226   5.817   4.664
11552TIP3   OH234598   0.123   2.601   2.963
11552TIP3    H134599   0.097   2.536   3.029
11552TIP3    H234600   0.101   2.560   2.879
11553TIP3   OH234601   7.284   2.438   0.100
11553TIP3    H134602   7.212   2.377   0.118
11553TIP3    H234603   7.275   2.506   0.166
11554TIP3   OH234604   2.075   7.366   6.604
11554TIP3    H134605   2.096   7.454   6.635
11554TIP3    H234606   2.157   7.333   6.567
11555TIP3   OH234607   4.317   5.643   1.869
11555TIP3    H134608   4.372   5.588   1.814
11555TIP3    H234609   4.351   5.732   1.857
11556TIP3   OH234610   5.233   7.031   2.655
11556TIP3    H134611   5.208   6.950   2.700
11556TIP3    H234612   5.323   7.047   2.683
11557TIP3   OH234613   5.733   3.513   2.867
11557TIP3    H134614   5.707   3.447   2.803
11557TIP3    H234615   5.702   3.477   2.951
11558TIP3   OH234616   1.963   1.056   4.110
11558TIP3    H134617   1.998   1.133   4.155
11558TIP3    H234618   1.998   0.982   4.160
11559TIP3   OH234619   6.704   0.550   3.917
11559TIP3    H134620   6.663   0.467   3.890
11559TIP3    H234621   6.763   0.525   3.988
11560TIP3   OH234622   2.226   6.708   2.062
11560TIP3    H134623   2.134   6.702   2.036
11560TIP3    H234624   2.275   6.693   1.981
11561TIP3   OH234625   1.549   7.122   4.845
11561TIP3    H134626   1.599   7.076   4.777
11561TIP3    H234627   1.492   7.182   4.796
11562TIP3   OH234628   6.227   3.366   1.745
11562TIP3    H134629   6.218   3.278   1.709
11562TIP3    H234630   6.309   3.399   1.709
11563TIP3   OH234631   0.521   2.106   5.212
11563TIP3    H134632   0.501   2.037   5.148
11563TIP3    H234633   0.556   2.058   5.287
11564TIP3   OH234634   3.848   4.268   5.741
11564TIP3    H134635   3.909   4.292   5.811
11564TIP3    H234636   3.761   4.279   5.780
11565TIP3   OH234637   5.288   6.983   6.275
11565TIP3    H134638   5.196   7.002   6.255
11565TIP3    H234639   5.337   7.047   6.223
11566TIP3   OH234640   2.234   6.402   5.135
11566TIP3    H134641   2.144   6.374   5.120
11566TIP3    H234642   2.267   6.344   5.203
11567TIP3   OH234643   4.522   0.038   0.960
11567TIP3    H134644   4.520   0.127   0.924
11567TIP3    H234645   4.513  -0.018   0.883
11568TIP3   OH234646   1.737   3.072   4.284
11568TIP3    H134647   1.794   3.020   4.341
11568TIP3    H234648   1.706   3.143   4.341
11569TIP3   OH234649   5.163   5.862   2.036
11569TIP3    H134650   5.205   5.776   2.035
11569TIP3    H234651   5.071   5.843   2.053
11570TIP3   OH234652   4.914   0.313   0.070
11570TIP3    H134653   4.953   0.270  -0.006
11570TIP3    H234654   4.821   0.323   0.047
11571TIP3   OH234655   2.033   3.345   4.258
11571TIP3    H134656   2.071   3.311   4.177
11571TIP3    H234657   2.058   3.281   4.325
11572TIP3   OH234658   0.552   4.751   1.609
11572TIP3    H134659   0.563   4.745   1.704
11572TIP3    H234660   0.540   4.661   1.580
11573TIP3   OH234661   2.007   5.844   2.868
11573TIP3    H134662   2.059   5.924   2.873
11573TIP3    H234663   1.988   5.834   2.775
11574TIP3   OH234664   0.266   1.010   0.228
11574TIP3    H134665   0.272   0.915   0.238
11574TIP3    H234666   0.187   1.023   0.175
11575TIP3   OH234667   7.652   4.655   5.166
11575TIP3    H134668   7.678   4.720   5.231
11575TIP3    H234669   7.558   4.644   5.179
11576TIP3   OH234670   7.730   0.846   2.910
11576TIP3    H134671   7.715   0.935   2.877
11576TIP3    H234672   7.729   0.791   2.832
11577TIP3   OH234673   2.825   6.758   2.399
11577TIP3    H134674   2.872   6.822   2.452
11577TIP3    H234675   2.733   6.773   2.420
11578TIP3   OH234676   4.236   4.094   0.534
11578TIP3    H134677   4.326   4.125   0.523
11578TIP3    H234678   4.232   4.012   0.485
11579TIP3   OH234679   4.547   1.516   5.523
11579TIP3    H134680   4.533   1.488   5.614
11579TIP3    H234681   4.529   1.610   5.524
11580TIP3   OH234682   3.024   1.565   1.339
11580TIP3    H134683   2.929   1.566   1.352
11580TIP3    H234684   3.038   1.497   1.273
11581TIP3   OH234685   1.015   2.953   2.824
11581TIP3    H134686   1.080   3.013   2.860
11581TIP3    H234687   0.961   3.007   2.766
11582TIP3   OH234688   3.819   3.417   3.605
11582TIP3    H134689   3.746   3.358   3.587
11582TIP3    H234690   3.891   3.359   3.629
11583TIP3   OH234691   3.813   1.646   5.421
11583TIP3    H134692   3.739   1.665   5.363
11583TIP3    H234693   3.880   1.709   5.394
11584TIP3   OH234694   0.511   2.245   3.388
11584TIP3    H134695   0.481   2.296   3.463
11584TIP3    H234696   0.443   2.257   3.322
11585TIP3   OH234697   5.486   0.689   0.310
11585TIP3    H134698   5.424   0.619   0.289
11585TIP3    H234699   5.509   0.674   0.401
11586TIP3   OH234700   7.690   4.780   4.934
11586TIP3    H134701   7.732   4.859   4.969
11586TIP3    H234702   7.647   4.741   5.011
11587TIP3   OH234703   3.718   4.122   3.400
11587TIP3    H134704   3.720   4.068   3.479
11587TIP3    H234705   3.753   4.206   3.428
11588TIP3   OH234706   5.200   5.269   4.827
11588TIP3    H134707   5.172   5.199   4.885
11588TIP3    H234708   5.194   5.348   4.880
11589TIP3   OH234709   2.721   4.749   4.121
11589TIP3    H134710   2.735   4.788   4.207
11589TIP3    H234711   2.761   4.662   4.127
11590TIP3   OH234712   2.426   1.266   3.008
11590TIP3    H134713   2.490   1.336   2.995
11590TIP3    H234714   2.366   1.302   3.073
11591TIP3   OH234715   7.743   7.399   0.339
11591TIP3    H134716   7.765   7.390   0.431
11591TIP3    H234717   7.719   7.310   0.311
11592TIP3   OH234718   7.702   7.316   2.747
11592TIP3    H134719   7.763   7.389   2.755
11592TIP3    H234720   7.749   7.249   2.699
11593TIP3   OH234721   1.525   5.898   0.113
11593TIP3    H134722   1.612   5.911   0.152
11593TIP3    H234723   1.479   5.844   0.177
11594TIP3   OH234724   0.491   7.390   5.092
11594TIP3    H134725   0.420   7.371   5.032
11594TIP3    H234726   0.548   7.313   5.087
11595TIP3   OH234727   6.144   5.903   1.760
11595TIP3    H134728   6.076   5.970   1.766
11595TIP3    H234729   6.116   5.845   1.690
11596TIP3   OH234730   2.323   7.156   5.839
11596TIP3    H134731   2.385   7.181   5.907
11596TIP3    H234732   2.254   7.107   5.886
11597TIP3   OH234733   2.872   2.717   2.470
11597TIP3    H134734   2.873   2.767   2.388
11597TIP3    H234735   2.871   2.784   2.538
11598TIP3   OH234736   4.778   6.175   1.373
11598TIP3    H134737   4.851   6.201   1.317
11598TIP3    H234738   4.815   6.110   1.433
11599TIP3   OH234739   4.880   6.898   4.508
11599TIP3    H134740   4.874   6.970   4.445
11599TIP3    H234741   4.949   6.924   4.568
11600TIP3   OH234742   0.792   7.618   5.520
11600TIP3    H134743   0.831   7.625   5.607
11600TIP3    H234744   0.745   7.535   5.521
11601TIP3   OH234745   6.563   5.178   4.765
11601TIP3    H134746   6.518   5.116   4.707
11601TIP3    H234747   6.591   5.126   4.840
11602TIP3   OH234748   4.630   1.493   5.259
11602TIP3    H134749   4.604   1.471   5.349
11602TIP3    H234750   4.714   1.450   5.247
11603TIP3   OH234751   1.755   0.636   5.136
11603TIP3    H134752   1.798   0.715   5.168
11603TIP3    H234753   1.819   0.597   5.076
11604TIP3   OH234754   3.942   0.131   2.251
11604TIP3    H134755   3.850   0.150   2.233
11604TIP3    H234756   3.980   0.216   2.272
11605TIP3   OH234757   4.539   1.974   3.092
11605TIP3    H134758   4.588   1.920   3.029
11605TIP3    H234759   4.606   2.030   3.132
11606TIP3   OH234760   2.715   4.177   0.811
11606TIP3    H134761   2.699   4.142   0.899
11606TIP3    H234762   2.638   4.153   0.761
11607TIP3   OH234763   3.363   2.457   3.745
11607TIP3    H134764   3.394   2.378   3.700
11607TIP3    H234765   3.437   2.485   3.798
11608TIP3   OH234766   0.885   4.750   1.470
11608TIP3    H134767   0.812   4.723   1.415
11608TIP3    H234768   0.922   4.668   1.502
11609TIP3   OH234769   4.823   3.819   6.396
11609TIP3    H134770   4.819   3.810   6.491
11609TIP3    H234771   4.880   3.895   6.381
11610TIP3   OH234772   2.876   0.412   5.817
11610TIP3    H134773   2.794   0.410   5.768
11610TIP3    H234774   2.873   0.496   5.864
11611TIP3   OH234775   0.305   7.576   6.163
11611TIP3    H134776   0.303   7.592   6.069
11611TIP3    H234777   0.263   7.491   6.175
11612TIP3   OH234778   3.901   0.919   3.535
11612TIP3    H134779   3.956   0.910   3.458
11612TIP3    H234780   3.960   0.951   3.603
11613TIP3   OH234781   2.853   7.269   5.379
11613TIP3    H134782   2.861   7.264   5.474
11613TIP3    H234783   2.922   7.331   5.353
11614TIP3   OH234784   5.904   3.783   5.356
11614TIP3    H134785   5.811   3.802   5.367
11614TIP3    H234786   5.917   3.780   5.261
11615TIP3   OH234787   4.966   6.065   1.781
11615TIP3    H134788   5.014   6.113   1.848
11615TIP3    H234789   5.011   5.980   1.774
11616TIP3   OH234790   0.685   6.714   3.734
11616TIP3    H134791   0.632   6.643   3.699
11616TIP3    H234792   0.675   6.785   3.670
11617TIP3   OH234793   0.532   4.389   2.707
11617TIP3    H134794   0.612   4.389   2.760
11617TIP3    H234795   0.461   4.398   2.771
11618TIP3   OH234796   5.748   5.211   0.328
11618TIP3    H134797   5.693   5.289   0.334
11618TIP3    H234798   5.799   5.211   0.409
11619TIP3   OH234799   8.249   1.769   6.532
11619TIP3    H134800   8.293   1.779   6.448
11619TIP3    H234801   8.178   1.708   6.514
11620TIP3   OH234802   1.219   5.072   2.652
11620TIP3    H134803   1.282   5.139   2.678
11620TIP3    H234804   1.197   5.027   2.734
11621TIP3   OH234805   2.512   4.376   3.919
11621TIP3    H134806   2.493   4.283   3.913
11621TIP3    H234807   2.506   4.396   4.012
11622TIP3   OH234808   8.269   5.630   2.830
11622TIP3    H134809   8.258   5.535   2.826
11622TIP3    H234810   8.222   5.663   2.754
11623TIP3   OH234811   6.321   0.256   0.113
11623TIP3    H134812   6.311   0.191   0.043
11623TIP3    H234813   6.311   0.206   0.194
11624TIP3   OH234814   3.329   6.086   6.473
11624TIP3    H134815   3.288   6.148   6.533
11624TIP3    H234816   3.339   6.135   6.391
11625TIP3   OH234817   5.649   4.481   1.063
11625TIP3    H134818   5.618   4.554   1.116
11625TIP3    H234819   5.631   4.506   0.973
11626TIP3   OH234820   1.202   3.147   6.556
11626TIP3    H134821   1.217   3.090   6.480
11626TIP3    H234822   1.262   3.220   6.544
11627TIP3   OH234823   8.029   2.637   1.656
11627TIP3    H134824   7.956   2.642   1.595
11627TIP3    H234825   7.990   2.608   1.738
11628TIP3   OH234826   1.644   4.094   0.715
11628TIP3    H134827   1.731   4.133   0.719
11628TIP3    H234828   1.640   4.053   0.629
11629TIP3   OH234829   7.187   5.336   2.905
11629TIP3    H134830   7.224   5.253   2.874
11629TIP3    H234831   7.184   5.326   3.000
11630TIP3   OH234832   3.938   2.196   3.624
11630TIP3    H134833   3.969   2.273   3.575
11630TIP3    H234834   4.017   2.144   3.638
11631TIP3   OH234835   0.200   1.350   5.609
11631TIP3    H134836   0.228   1.373   5.697
11631TIP3    H234837   0.200   1.254   5.607
11632TIP3   OH234838   3.465   0.485   0.346
11632TIP3    H134839   3.405   0.534   0.290
11632TIP3    H234840   3.407   0.432   0.402
11633TIP3   OH234841   1.064   6.325   3.221
11633TIP3    H134842   1.046   6.256   3.157
11633TIP3    H234843   1.101   6.279   3.296
11634TIP3   OH234844   4.513   6.674   4.280
11634TIP3    H134845   4.597   6.676   4.326
11634TIP3    H234846   4.448   6.661   4.349
11635TIP3   OH234847   6.107   1.290   0.781
11635TIP3    H134848   6.061   1.301   0.864
11635TIP3    H234849   6.198   1.314   0.801
11636TIP3   OH234850   1.388   3.524   3.980
11636TIP3    H134851   1.412   3.496   3.892
11636TIP3    H234852   1.470   3.520   4.029
11637TIP3   OH234853   1.930   3.559   1.855
11637TIP3    H134854   2.017   3.543   1.820
11637TIP3    H234855   1.871   3.526   1.787
11638TIP3   OH234856   3.982   0.064   4.975
11638TIP3    H134857   3.987   0.007   4.899
11638TIP3    H234858   4.031   0.142   4.950
11639TIP3   OH234859   1.111   7.402   4.241
11639TIP3    H134860   1.176   7.405   4.170
11639TIP3    H234861   1.028   7.419   4.197
11640TIP3   OH234862   0.918   6.086   2.063
11640TIP3    H134863   0.956   6.085   2.151
11640TIP3    H234864   0.940   6.173   2.029
11641TIP3   OH234865   1.147   5.917   5.933
11641TIP3    H134866   1.175   5.906   5.842
11641TIP3    H234867   1.168   6.008   5.954
11642TIP3   OH234868   4.357   5.923   5.103
11642TIP3    H134869   4.317   5.894   5.185
11642TIP3    H234870   4.381   5.842   5.058
11643TIP3   OH234871   5.771   1.690   6.426
11643TIP3    H134872   5.802   1.636   6.353
11643TIP3    H234873   5.779   1.780   6.395
11644TIP3   OH234874   6.588   3.300   4.424
11644TIP3    H134875   6.615   3.222   4.375
11644TIP3    H234876   6.659   3.313   4.487
11645TIP3   OH234877   0.008   1.605   3.498
11645TIP3    H134878  -0.040   1.627   3.418
11645TIP3    H234879   0.018   1.690   3.542
11646TIP3   OH234880   2.082   6.716   3.763
11646TIP3    H134881   2.104   6.624   3.750
11646TIP3    H234882   2.044   6.719   3.851
11647TIP3   OH234883   8.050   3.443   0.701
11647TIP3    H134884   8.081   3.395   0.625
11647TIP3    H234885   7.985   3.386   0.741
11648TIP3   OH234886   3.752   0.317   0.604
11648TIP3    H134887   3.665   0.299   0.640
11648TIP3    H234888   3.765   0.411   0.617
11649TIP3   OH234889   8.183   3.300   5.009
11649TIP3    H134890   8.242   3.321   5.081
11649TIP3    H234891   8.182   3.204   5.006
11650TIP3   OH234892   5.934   5.078   2.275
11650TIP3    H134893   5.986   5.119   2.344
11650TIP3    H234894   5.998   5.040   2.215
11651TIP3   OH234895   6.848   2.479   3.942
11651TIP3    H134896   6.826   2.558   3.991
11651TIP3    H234897   6.818   2.407   3.996
11652TIP3   OH234898   0.825   6.253   4.699
11652TIP3    H134899   0.748   6.306   4.719
11652TIP3    H234900   0.898   6.300   4.739
11653TIP3   OH234901   2.459   7.675   4.228
11653TIP3    H134902   2.372   7.662   4.189
11653TIP3    H234903   2.441   7.689   4.321
11654TIP3   OH234904   7.154   1.139   3.606
11654TIP3    H134905   7.122   1.055   3.572
11654TIP3    H234906   7.075   1.187   3.631
11655TIP3   OH234907   1.079   6.628   0.117
11655TIP3    H134908   1.034   6.544   0.120
11655TIP3    H234909   1.009   6.693   0.126
11656TIP3   OH234910   7.010   4.423   2.938
11656TIP3    H134911   7.031   4.458   2.851
11656TIP3    H234912   7.093   4.425   2.986
11657TIP3   OH234913   1.000   5.524   6.600
11657TIP3    H134914   0.951   5.451   6.562
11657TIP3    H234915   1.065   5.546   6.533
11658TIP3   OH234916   4.529   6.609   3.010
11658TIP3    H134917   4.558   6.608   2.919
11658TIP3    H234918   4.608   6.632   3.060
11659TIP3   OH234919   1.341   2.930   0.649
11659TIP3    H134920   1.281   2.891   0.585
11659TIP3    H234921   1.283   2.967   0.716
11660TIP3   OH234922   3.145   3.432   5.386
11660TIP3    H134923   3.139   3.345   5.346
11660TIP3    H234924   3.117   3.492   5.318
11661TIP3   OH234925   6.159   6.055   1.050
11661TIP3    H134926   6.245   6.047   1.093
11661TIP3    H234927   6.100   6.006   1.107
11662TIP3   OH234928   5.855   5.478   1.296
11662TIP3    H134929   5.797   5.551   1.275
11662TIP3    H234930   5.852   5.471   1.392
11663TIP3   OH234931   6.998   7.519   5.504
11663TIP3    H134932   6.937   7.463   5.457
11663TIP3    H234933   6.946   7.596   5.528
11664TIP3   OH234934   1.987   3.885   2.411
11664TIP3    H134935   1.975   3.799   2.451
11664TIP3    H234936   2.036   3.936   2.476
11665TIP3   OH234937   6.047   7.609   0.469
11665TIP3    H134938   5.987   7.543   0.504
11665TIP3    H234939   6.040   7.682   0.530
11666TIP3   OH234940   3.155   6.378   1.804
11666TIP3    H134941   3.082   6.424   1.846
11666TIP3    H234942   3.138   6.286   1.821
11667TIP3   OH234943   1.029   1.434   6.201
11667TIP3    H134944   1.110   1.445   6.251
11667TIP3    H234945   0.966   1.401   6.265
11668TIP3   OH234946   5.938   4.225   6.113
11668TIP3    H134947   5.989   4.287   6.060
11668TIP3    H234948   5.978   4.140   6.095
11669TIP3   OH234949   0.985   4.912   0.639
11669TIP3    H134950   0.937   4.971   0.697
11669TIP3    H234951   0.946   4.826   0.654
11670TIP3   OH234952   0.629   6.013   1.641
11670TIP3    H134953   0.590   6.063   1.712
11670TIP3    H234954   0.638   6.076   1.569
11671TIP3   OH234955   5.707   1.192   4.515
11671TIP3    H134956   5.740   1.255   4.451
11671TIP3    H234957   5.671   1.245   4.585
11672TIP3   OH234958   8.109   6.783   3.172
11672TIP3    H134959   8.053   6.761   3.246
11672TIP3    H234960   8.123   6.877   3.180
11673TIP3   OH234961   2.827   3.815   0.761
11673TIP3    H134962   2.853   3.723   0.747
11673TIP3    H234963   2.880   3.843   0.836
11674TIP3   OH234964   8.097   2.061   3.821
11674TIP3    H134965   8.076   2.072   3.728
11674TIP3    H234966   8.076   2.146   3.860
11675TIP3   OH234967   2.501   1.856   1.128
11675TIP3    H134968   2.416   1.812   1.138
11675TIP3    H234969   2.483   1.948   1.146
11676TIP3   OH234970   2.549   3.242   1.516
11676TIP3    H134971   2.620   3.179   1.525
11676TIP3    H234972   2.512   3.249   1.603
11677TIP3   OH234973   4.379   3.751   5.293
11677TIP3    H134974   4.361   3.814   5.363
11677TIP3    H234975   4.474   3.750   5.286
11678TIP3   OH234976   6.948   1.600   5.844
11678TIP3    H134977   6.862   1.559   5.830
11678TIP3    H234978   7.006   1.528   5.869
11679TIP3   OH234979   0.864   3.522   2.969
11679TIP3    H134980   0.857   3.599   3.026
11679TIP3    H234981   0.774   3.492   2.957
11680TIP3   OH234982   3.517   5.589   6.064
11680TIP3    H134983   3.432   5.576   6.104
11680TIP3    H234984   3.509   5.673   6.018
11681TIP3   OH234985   3.314   2.649   6.023
11681TIP3    H134986   3.360   2.607   5.951
11681TIP3    H234987   3.383   2.689   6.076
11682TIP3   OH234988   6.392   4.716   3.724
11682TIP3    H134989   6.474   4.711   3.773
11682TIP3    H234990   6.324   4.713   3.790
11683TIP3   OH234991   2.441   4.672   1.963
11683TIP3    H134992   2.466   4.697   2.052
11683TIP3    H234993   2.354   4.709   1.951
11684TIP3   OH234994   5.133   1.556   4.725
11684TIP3    H134995   5.197   1.609   4.678
11684TIP3    H234996   5.049   1.581   4.687
11685TIP3   OH234997   7.241   0.959   0.381
11685TIP3    H134998   7.206   1.018   0.314
11685TIP3    H234999   7.293   0.895   0.331
11686TIP3   OH235000   4.771   4.171   2.984
11686TIP3    H135001   4.728   4.146   2.902
11686TIP3    H235002   4.700   4.177   3.048
11687TIP3   OH235003   7.440   1.076   4.361
11687TIP3    H135004   7.483   1.128   4.428
11687TIP3    H235005   7.481   1.103   4.279
11688TIP3   OH235006   4.831   3.879   1.986
11688TIP3    H135007   4.857   3.891   1.895
11688TIP3    H235008   4.803   3.966   2.015
11689TIP3   OH235009   6.342   1.936   5.055
11689TIP3    H135010   6.434   1.950   5.081
11689TIP3    H235011   6.347   1.875   4.982
11690TIP3   OH235012   0.994   6.627   3.897
11690TIP3    H135013   0.936   6.666   3.832
11690TIP3    H235014   0.939   6.562   3.941
11691TIP3   OH235015   1.362   0.417   2.795
11691TIP3    H135016   1.360   0.336   2.742
11691TIP3    H235017   1.442   0.410   2.846
11692TIP3   OH235018   1.118   7.431   4.747
11692TIP3    H135019   1.048   7.414   4.811
11692TIP3    H235020   1.171   7.500   4.788
11693TIP3   OH235021   1.237   6.049   6.314
11693TIP3    H135022   1.298   5.996   6.263
11693TIP3    H235023   1.216   5.996   6.390
11694TIP3   OH235024   0.794   1.896   6.675
11694TIP3    H135025   0.832   1.935   6.754
11694TIP3    H235026   0.837   1.811   6.668
11695TIP3   OH235027   6.509   1.244   5.923
11695TIP3    H135028   6.546   1.156   5.922
11695TIP3    H235029   6.552   1.288   5.997
11696TIP3   OH235030   2.275   1.541   5.759
11696TIP3    H135031   2.251   1.620   5.809
11696TIP3    H235032   2.292   1.573   5.670
11697TIP3   OH235033   1.309   3.993   6.119
11697TIP3    H135034   1.220   3.974   6.148
11697TIP3    H235035   1.309   4.087   6.101
11698TIP3   OH235036   3.430   5.600   2.218
11698TIP3    H135037   3.488   5.669   2.252
11698TIP3    H235038   3.365   5.587   2.287
11699TIP3   OH235039   2.657   5.655   1.712
11699TIP3    H135040   2.573   5.613   1.735
11699TIP3    H235041   2.672   5.629   1.621
11700TIP3   OH235042   1.673   3.881   5.118
11700TIP3    H135043   1.765   3.887   5.144
11700TIP3    H235044   1.635   3.966   5.142
11701TIP3   OH235045   5.893   5.802   2.677
11701TIP3    H135046   5.976   5.849   2.674
11701TIP3    H235047   5.876   5.776   2.587
11702TIP3   OH235048   6.849   7.613   2.160
11702TIP3    H135049   6.921   7.618   2.098
11702TIP3    H235050   6.786   7.553   2.119
11703TIP3   OH235051   7.822   4.584   2.926
11703TIP3    H135052   7.865   4.504   2.895
11703TIP3    H235053   7.805   4.567   3.019
11704TIP3   OH235054   3.076   7.124   2.343
11704TIP3    H135055   3.019   7.124   2.266
11704TIP3    H235056   3.147   7.064   2.320
11705TIP3   OH235057   6.732   5.422   3.736
11705TIP3    H135058   6.783   5.344   3.717
11705TIP3    H235059   6.644   5.389   3.757
11706TIP3   OH235060   6.483   5.500   0.318
11706TIP3    H135061   6.472   5.559   0.244
11706TIP3    H235062   6.463   5.413   0.284
11707TIP3   OH235063   1.171   7.791   5.311
11707TIP3    H135064   1.102   7.787   5.245
11707TIP3    H235065   1.252   7.785   5.260
11708TIP3   OH235066   7.795   0.682   2.671
11708TIP3    H135067   7.726   0.632   2.629
11708TIP3    H235068   7.837   0.620   2.731
11709TIP3   OH235069   6.066   7.194   5.226
11709TIP3    H135070   6.142   7.248   5.245
11709TIP3    H235071   6.052   7.142   5.305
11710TIP3   OH235072   5.914   7.270   5.811
11710TIP3    H135073   5.836   7.318   5.785
11710TIP3    H235074   5.966   7.333   5.860
11711TIP3   OH235075   2.018   1.277   3.342
11711TIP3    H135076   2.071   1.281   3.262
11711TIP3    H235077   1.928   1.267   3.311
11712TIP3   OH235078   6.381   5.952   2.110
11712TIP3    H135079   6.455   6.004   2.141
11712TIP3    H235080   6.403   5.930   2.020
11713TIP3   OH235081   7.662   6.077   4.673
11713TIP3    H135082   7.699   5.991   4.650
11713TIP3    H235083   7.632   6.066   4.763
11714TIP3   OH235084   4.806   3.780   4.166
11714TIP3    H135085   4.760   3.710   4.120
11714TIP3    H235086   4.825   3.846   4.098
11715TIP3   OH235087   2.083   5.549   2.128
11715TIP3    H135088   2.072   5.455   2.141
11715TIP3    H235089   2.138   5.557   2.050
11716TIP3   OH235090   4.451   6.740   0.208
11716TIP3    H135091   4.531   6.747   0.261
11716TIP3    H235092   4.467   6.796   0.132
11717TIP3   OH235093   2.295   7.369   1.709
11717TIP3    H135094   2.279   7.455   1.669
11717TIP3    H235095   2.376   7.380   1.758
11718TIP3   OH235096   3.035   3.135   6.052
11718TIP3    H135097   3.114   3.090   6.083
11718TIP3    H235098   3.030   3.114   5.959
11719TIP3   OH235099   0.495   3.797   3.397
11719TIP3    H135100   0.465   3.725   3.343
11719TIP3    H235101   0.524   3.863   3.335
11720TIP3   OH235102   3.756   3.660   6.341
11720TIP3    H135103   3.811   3.710   6.281
11720TIP3    H235104   3.762   3.707   6.424
11721TIP3   OH235105   2.402   6.702   4.286
11721TIP3    H135106   2.362   6.616   4.282
11721TIP3    H235107   2.496   6.685   4.292
11722TIP3   OH235108   4.056   1.522   0.670
11722TIP3    H135109   3.971   1.564   0.671
11722TIP3    H235110   4.093   1.540   0.757
11723TIP3   OH235111   5.353   5.162   6.712
11723TIP3    H135112   5.288   5.092   6.721
11723TIP3    H235113   5.431   5.118   6.679
11724TIP3   OH235114   3.918   3.182   6.354
11724TIP3    H135115   3.898   3.267   6.315
11724TIP3    H235116   3.872   3.183   6.438
11725TIP3   OH235117   2.689   5.878   1.318
11725TIP3    H135118   2.665   5.791   1.286
11725TIP3    H235119   2.649   5.883   1.405
11726TIP3   OH235120   5.915   0.899   0.769
11726TIP3    H135121   5.860   0.885   0.845
11726TIP3    H235122   5.855   0.928   0.700
11727TIP3   OH235123   4.993   2.735   3.502
11727TIP3    H135124   5.072   2.747   3.448
11727TIP3    H235125   5.016   2.664   3.561
11728TIP3   OH235126   5.555   6.900   3.235
11728TIP3    H135127   5.602   6.846   3.173
11728TIP3    H235128   5.548   6.845   3.314
11729TIP3   OH235129   8.134   4.813   3.835
11729TIP3    H135130   8.142   4.772   3.922
11729TIP3    H235131   8.207   4.775   3.785
11730TIP3   OH235132   0.193   5.893   4.663
11730TIP3    H135133   0.132   5.904   4.590
11730TIP3    H235134   0.228   5.805   4.652
11731TIP3   OH235135   1.108   6.486   4.617
11731TIP3    H135136   1.080   6.508   4.528
11731TIP3    H235137   1.142   6.568   4.652
11732TIP3   OH235138   4.699   7.723   1.585
11732TIP3    H135139   4.634   7.742   1.653
11732TIP3    H235140   4.658   7.655   1.531
11733TIP3   OH235141   6.883   6.582   1.278
11733TIP3    H135142   6.843   6.499   1.303
11733TIP3    H235143   6.940   6.561   1.204
11734TIP3   OH235144   7.379   2.552   4.657
11734TIP3    H135145   7.348   2.643   4.662
11734TIP3    H235146   7.460   2.558   4.606
11735TIP3   OH235147   3.765   4.542   1.944
11735TIP3    H135148   3.690   4.505   1.991
11735TIP3    H235149   3.813   4.591   2.010
11736TIP3   OH235150   3.473   0.227   5.912
11736TIP3    H135151   3.530   0.191   5.844
11736TIP3    H235152   3.450   0.151   5.966
11737TIP3   OH235153   7.860   3.963   0.252
11737TIP3    H135154   7.905   3.975   0.169
11737TIP3    H235155   7.790   3.900   0.233
11738TIP3   OH235156   5.819   3.574   2.232
11738TIP3    H135157   5.837   3.495   2.283
11738TIP3    H235158   5.725   3.571   2.215
11739TIP3   OH235159   1.964   2.337   2.080
11739TIP3    H135160   1.889   2.392   2.059
11739TIP3    H235161   1.960   2.327   2.175
11740TIP3   OH235162   0.444   4.475   3.015
11740TIP3    H135163   0.470   4.567   3.027
11740TIP3    H235164   0.372   4.462   3.077
11741TIP3   OH235165   6.961   5.023   3.417
11741TIP3    H135166   7.029   4.959   3.437
11741TIP3    H235167   6.881   4.970   3.406
11742TIP3   OH235168   4.739   4.418   2.287
11742TIP3    H135169   4.649   4.449   2.302
11742TIP3    H235170   4.790   4.498   2.274
11743TIP3   OH235171   4.831   5.467   3.090
11743TIP3    H135172   4.820   5.383   3.136
11743TIP3    H235173   4.777   5.459   3.012
11744TIP3   OH235174   4.159   2.366   2.830
11744TIP3    H135175   4.065   2.385   2.838
11744TIP3    H235176   4.202   2.435   2.880
11745TIP3   OH235177   6.563   5.834   1.145
11745TIP3    H135178   6.634   5.887   1.181
11745TIP3    H235179   6.602   5.747   1.133
11746TIP3   OH235180   4.008   2.271   0.020
11746TIP3    H135181   4.033   2.196  -0.034
11746TIP3    H235182   4.067   2.341  -0.007
11747TIP3   OH235183   2.097   4.947   4.763
11747TIP3    H135184   2.026   5.003   4.731
11747TIP3    H235185   2.135   4.909   4.684
11748TIP3   OH235186   1.426   1.808   1.642
11748TIP3    H135187   1.399   1.851   1.560
11748TIP3    H235188   1.479   1.875   1.687
11749TIP3   OH235189   8.142   0.620   3.821
11749TIP3    H135190   8.098   0.691   3.867
11749TIP3    H235191   8.107   0.623   3.732
11750TIP3   OH235192   5.760   0.663   5.561
11750TIP3    H135193   5.728   0.628   5.477
11750TIP3    H235194   5.793   0.586   5.607
11751TIP3   OH235195   5.670   7.024   4.435
11751TIP3    H135196   5.590   7.076   4.428
11751TIP3    H235197   5.696   7.008   4.344
11752TIP3   OH235198   4.547   7.485   0.090
11752TIP3    H135199   4.560   7.415   0.027
11752TIP3    H235200   4.630   7.489   0.138
11753TIP3   OH235201   0.187   6.137   6.058
11753TIP3    H135202   0.261   6.086   6.024
11753TIP3    H235203   0.223   6.225   6.072
11754TIP3   OH235204   5.518   2.977   1.432
11754TIP3    H135205   5.427   3.007   1.423
11754TIP3    H235206   5.513   2.905   1.494
11755TIP3   OH235207   4.450   7.248   6.650
11755TIP3    H135208   4.506   7.180   6.612
11755TIP3    H235209   4.471   7.247   6.743
11756TIP3   OH235210   2.453   3.169   5.810
11756TIP3    H135211   2.449   3.076   5.830
11756TIP3    H235212   2.499   3.175   5.727
11757TIP3   OH235213   6.016   6.028   1.440
11757TIP3    H135214   5.972   6.053   1.521
11757TIP3    H235215   6.099   6.075   1.442
11758TIP3   OH235216   6.600   5.357   1.868
11758TIP3    H135217   6.560   5.399   1.791
11758TIP3    H235218   6.535   5.292   1.895
11759TIP3   OH235219   4.068   0.847   1.905
11759TIP3    H135220   4.085   0.924   1.959
11759TIP3    H235221   4.155   0.811   1.886
11760TIP3   OH235222   7.508   2.746   0.628
11760TIP3    H135223   7.486   2.798   0.705
11760TIP3    H235224   7.446   2.673   0.631
11761TIP3   OH235225   2.053   6.629   1.024
11761TIP3    H135226   2.069   6.704   0.967
11761TIP3    H235227   2.140   6.596   1.046
11762TIP3   OH235228   2.962   6.931   6.543
11762TIP3    H135229   2.985   6.865   6.478
11762TIP3    H235230   2.981   6.891   6.627
11763TIP3   OH235231   7.280   5.690   5.278
11763TIP3    H135232   7.339   5.634   5.328
11763TIP3    H235233   7.195   5.646   5.281
11764TIP3   OH235234   7.603   1.415   1.114
11764TIP3    H135235   7.578   1.396   1.204
11764TIP3    H235236   7.523   1.444   1.072
11765TIP3   OH235237   5.430   5.047   1.654
11765TIP3    H135238   5.340   5.016   1.662
11765TIP3    H235239   5.451   5.036   1.562
11766TIP3   OH235240   6.768   4.666   1.342
11766TIP3    H135241   6.757   4.760   1.328
11766TIP3    H235242   6.851   4.659   1.390
11767TIP3   OH235243   7.667   6.523   2.671
11767TIP3    H135244   7.760   6.538   2.690
11767TIP3    H235245   7.634   6.477   2.749
11768TIP3   OH235246   3.887   2.233   6.305
11768TIP3    H135247   3.836   2.161   6.341
11768TIP3    H235248   3.840   2.258   6.225
11769TIP3   OH235249   1.286   1.956   0.651
11769TIP3    H135250   1.192   1.969   0.638
11769TIP3    H235251   1.316   2.040   0.687
11770TIP3   OH235252   4.110   2.786   4.238
11770TIP3    H135253   4.017   2.765   4.236
11770TIP3    H235254   4.155   2.703   4.224
11771TIP3   OH235255   3.250   6.175   4.685
11771TIP3    H135256   3.295   6.150   4.766
11771TIP3    H235257   3.172   6.223   4.716
11772TIP3   OH235258   4.826   5.092   4.484
11772TIP3    H135259   4.782   5.176   4.493
11772TIP3    H235260   4.899   5.109   4.424
11773TIP3   OH235261   7.460   4.069   5.594
11773TIP3    H135262   7.472   4.059   5.500
11773TIP3    H235263   7.391   4.007   5.616
11774TIP3   OH235264   2.419   3.495   4.024
11774TIP3    H135265   2.421   3.589   4.002
11774TIP3    H235266   2.470   3.453   3.955
11775TIP3   OH235267   0.337   5.868   3.228
11775TIP3    H135268   0.329   5.888   3.135
11775TIP3    H235269   0.263   5.809   3.246
11776TIP3   OH235270   0.451   1.968   1.438
11776TIP3    H135271   0.432   2.012   1.356
11776TIP3    H235272   0.412   1.881   1.428
11777TIP3   OH235273   4.466   2.722   0.685
11777TIP3    H135274   4.490   2.768   0.605
11777TIP3    H235275   4.371   2.728   0.690
11778TIP3   OH235276   6.710   2.225   5.194
11778TIP3    H135277   6.722   2.291   5.125
11778TIP3    H235278   6.743   2.267   5.273
11779TIP3   OH235279   3.769   2.736   6.237
11779TIP3    H135280   3.842   2.791   6.207
11779TIP3    H235281   3.801   2.647   6.228
11780TIP3   OH235282   4.383   1.721   4.453
11780TIP3    H135283   4.477   1.733   4.448
11780TIP3    H235284   4.359   1.679   4.371
11781TIP3   OH235285   6.035   6.792   1.518
11781TIP3    H135286   5.952   6.744   1.517
11781TIP3    H235287   6.093   6.742   1.460
11782TIP3   OH235288   5.690   2.492   5.135
11782TIP3    H135289   5.688   2.488   5.039
11782TIP3    H235290   5.682   2.401   5.164
11783TIP3   OH235291   0.963   5.195   3.452
11783TIP3    H135292   0.890   5.159   3.501
11783TIP3    H235293   1.040   5.172   3.504
11784TIP3   OH235294   4.714   6.885   6.019
11784TIP3    H135295   4.621   6.885   6.042
11784TIP3    H235296   4.735   6.977   6.006
11785TIP3   OH235297   6.789   3.900   5.289
11785TIP3    H135298   6.763   3.816   5.250
11785TIP3    H235299   6.724   3.962   5.257
11786TIP3   OH235300   1.840   1.924   6.242
11786TIP3    H135301   1.865   2.003   6.195
11786TIP3    H235302   1.780   1.955   6.310
11787TIP3   OH235303   2.088   2.765   3.244
11787TIP3    H135304   2.076   2.840   3.301
11787TIP3    H235305   2.149   2.795   3.177
11788TIP3   OH235306   3.685   7.116   3.653
11788TIP3    H135307   3.682   7.209   3.675
11788TIP3    H235308   3.622   7.075   3.713
11789TIP3   OH235309   4.304   6.409   1.980
11789TIP3    H135310   4.218   6.388   1.945
11789TIP3    H235311   4.347   6.324   1.991
11790TIP3   OH235312   1.284   7.073   1.004
11790TIP3    H135313   1.320   7.099   1.088
11790TIP3    H235314   1.360   7.071   0.945
11791TIP3   OH235315   3.036   5.297   1.662
11791TIP3    H135316   3.043   5.249   1.579
11791TIP3    H235317   3.098   5.369   1.651
11792TIP3   OH235318   3.605   7.758   0.881
11792TIP3    H135319   3.586   7.852   0.877
11792TIP3    H235320   3.700   7.753   0.890
11793TIP3   OH235321   5.097   0.718   0.228
11793TIP3    H135322   5.097   0.671   0.312
11793TIP3    H235323   5.173   0.776   0.234
11794TIP3   OH235324   5.052   4.413   6.103
11794TIP3    H135325   5.097   4.496   6.122
11794TIP3    H235326   4.959   4.433   6.115
11795TIP3   OH235327   5.482   5.429   0.783
11795TIP3    H135328   5.497   5.344   0.742
11795TIP3    H235329   5.517   5.492   0.720
11796TIP3   OH235330   0.907   3.117   6.474
11796TIP3    H135331   0.857   3.059   6.416
11796TIP3    H235332   0.994   3.121   6.434
11797TIP3   OH235333   4.163   2.104   6.123
11797TIP3    H135334   4.134   2.139   6.207
11797TIP3    H235335   4.118   2.020   6.114
11798TIP3   OH235336   7.614   1.819   0.007
11798TIP3    H135337   7.557   1.875   0.059
11798TIP3    H235338   7.554   1.768  -0.048
11799TIP3   OH235339   1.314   2.278   2.685
11799TIP3    H135340   1.291   2.227   2.608
11799TIP3    H235341   1.253   2.352   2.685
11800TIP3   OH235342   4.614   1.813   4.148
11800TIP3    H135343   4.590   1.879   4.083
11800TIP3    H235344   4.707   1.826   4.162
11801TIP3   OH235345   1.885   7.728   1.720
11801TIP3    H135346   1.832   7.780   1.660
11801TIP3    H235347   1.830   7.652   1.742
11802TIP3   OH235348   2.321   7.182   5.264
11802TIP3    H135349   2.409   7.168   5.230
11802TIP3    H235350   2.322   7.271   5.299
11803TIP3   OH235351   2.843   5.392   2.621
11803TIP3    H135352   2.750   5.414   2.614
11803TIP3    H235353   2.849   5.304   2.582
11804TIP3   OH235354   1.383   1.561   5.015
11804TIP3    H135355   1.390   1.512   5.097
11804TIP3    H235356   1.416   1.500   4.948
11805TIP3   OH235357   7.208   1.652   4.708
11805TIP3    H135358   7.118   1.620   4.701
11805TIP3    H235359   7.223   1.700   4.626
11806TIP3   OH235360   5.324   0.677   5.584
11806TIP3    H135361   5.254   0.729   5.624
11806TIP3    H235362   5.370   0.739   5.527
11807TIP3   OH235363   1.231   4.275   3.244
11807TIP3    H135364   1.307   4.222   3.267
11807TIP3    H235365   1.157   4.215   3.249
11808TIP3   OH235366   6.772   2.332   6.173
11808TIP3    H135367   6.777   2.272   6.099
11808TIP3    H235368   6.828   2.405   6.149
11809TIP3   OH235369   5.717   0.108   1.711
11809TIP3    H135370   5.624   0.121   1.689
11809TIP3    H235371   5.763   0.120   1.629
11810TIP3   OH235372   0.044   2.574   5.837
11810TIP3    H135373   0.082   2.648   5.885
11810TIP3    H235374   0.045   2.603   5.745
11811TIP3   OH235375   3.706   1.106   6.393
11811TIP3    H135376   3.755   1.058   6.460
11811TIP3    H235377   3.755   1.091   6.312
11812TIP3   OH235378   0.269   4.669   5.169
11812TIP3    H135379   0.223   4.598   5.124
11812TIP3    H235380   0.204   4.702   5.231
11813TIP3   OH235381   1.606   4.732   4.321
11813TIP3    H135382   1.546   4.699   4.254
11813TIP3    H235383   1.557   4.728   4.403
11814TIP3   OH235384   2.551   7.107   4.116
11814TIP3    H135385   2.500   7.186   4.131
11814TIP3    H235386   2.489   7.036   4.130
11815TIP3   OH235387   7.341   4.287   5.112
11815TIP3    H135388   7.374   4.198   5.125
11815TIP3    H235389   7.354   4.304   5.019
11816TIP3   OH235390   1.058   2.421   2.749
11816TIP3    H135391   1.006   2.476   2.808
11816TIP3    H235392   0.994   2.363   2.708
11817TIP3   OH235393   3.855   0.805   1.763
11817TIP3    H135394   3.892   0.729   1.718
11817TIP3    H235395   3.929   0.845   1.808
11818TIP3   OH235396   2.956   3.402   0.076
11818TIP3    H135397   2.875   3.435   0.037
11818TIP3    H235398   2.931   3.373   0.163
11819TIP3   OH235399   0.210   2.354   2.471
11819TIP3    H135400   0.122   2.335   2.502
11819TIP3    H235401   0.206   2.340   2.376
11820TIP3   OH235402   4.613   1.993   0.166
11820TIP3    H135403   4.554   2.020   0.237
11820TIP3    H235404   4.589   2.049   0.092
11821TIP3   OH235405   1.177   5.055   3.290
11821TIP3    H135406   1.131   5.047   3.374
11821TIP3    H235407   1.208   4.966   3.271
11822TIP3   OH235408   3.589   6.512   2.097
11822TIP3    H135409   3.552   6.424   2.104
11822TIP3    H235410   3.543   6.551   2.023
11823TIP3   OH235411   0.531   1.938   0.260
11823TIP3    H135412   0.607   1.880   0.259
11823TIP3    H235413   0.493   1.929   0.172
11824TIP3   OH235414   3.052   1.966   2.706
11824TIP3    H135415   3.049   2.055   2.669
11824TIP3    H235416   3.104   1.916   2.643
11825TIP3   OH235417   4.604   4.030   4.936
11825TIP3    H135418   4.627   4.118   4.908
11825TIP3    H235419   4.683   3.998   4.982
11826TIP3   OH235420   5.931   6.621   0.736
11826TIP3    H135421   5.976   6.621   0.652
11826TIP3    H235422   5.904   6.712   0.749
11827TIP3   OH235423   5.660   3.873   6.121
11827TIP3    H135424   5.589   3.853   6.060
11827TIP3    H235425   5.676   3.967   6.109
11828TIP3   OH235426   5.933   1.680   5.411
11828TIP3    H135427   5.936   1.745   5.481
11828TIP3    H235428   6.023   1.671   5.382
11829TIP3   OH235429   0.320   2.325   1.341
11829TIP3    H135430   0.366   2.262   1.286
11829TIP3    H235431   0.359   2.315   1.427
11830TIP3   OH235432   1.626   3.138   3.276
11830TIP3    H135433   1.594   3.118   3.364
11830TIP3    H235434   1.689   3.069   3.256
11831TIP3   OH235435   8.121   2.583   0.016
11831TIP3    H135436   8.088   2.498   0.044
11831TIP3    H235437   8.073   2.647   0.069
11832TIP3   OH235438   5.538   3.281   4.953
11832TIP3    H135439   5.595   3.323   5.017
11832TIP3    H235440   5.458   3.262   5.001
11833TIP3   OH235441   1.317   0.059   2.013
11833TIP3    H135442   1.295   0.029   2.101
11833TIP3    H235443   1.323  -0.021   1.961
11834TIP3   OH235444   5.855   5.479   4.327
11834TIP3    H135445   5.939   5.452   4.366
11834TIP3    H235446   5.797   5.404   4.342
11835TIP3   OH235447   1.265   1.801   0.259
11835TIP3    H135448   1.334   1.754   0.305
11835TIP3    H235449   1.185   1.755   0.284
11836TIP3   OH235450   3.621   0.917   2.147
11836TIP3    H135451   3.661   0.877   2.225
11836TIP3    H235452   3.633   0.852   2.078
11837TIP3   OH235453   0.088   1.117   6.373
11837TIP3    H135454   0.175   1.156   6.382
11837TIP3    H235455   0.080   1.059   6.448
11838TIP3   OH235456   7.804   6.881   0.829
11838TIP3    H135457   7.764   6.968   0.835
11838TIP3    H235458   7.853   6.884   0.747
11839TIP3   OH235459   4.633   7.645   6.238
11839TIP3    H135460   4.602   7.689   6.316
11839TIP3    H235461   4.728   7.656   6.239
11840TIP3   OH235462   5.122   1.000   5.252
11840TIP3    H135463   5.044   0.960   5.291
11840TIP3    H235464   5.094   1.088   5.226
11841TIP3   OH235465   1.616   0.392   3.430
11841TIP3    H135466   1.670   0.379   3.508
11841TIP3    H235467   1.630   0.484   3.407
11842TIP3   OH235468   4.893   7.065   4.283
11842TIP3    H135469   4.935   7.090   4.202
11842TIP3    H235470   4.807   7.107   4.280
11843TIP3   OH235471   2.938   7.640   3.832
11843TIP3    H135472   2.975   7.588   3.761
11843TIP3    H235473   2.943   7.731   3.802
11844TIP3   OH235474   4.610   5.989   2.729
11844TIP3    H135475   4.515   6.000   2.734
11844TIP3    H235476   4.638   5.978   2.820
11845TIP3   OH235477   4.090   5.573   2.867
11845TIP3    H135478   4.124   5.627   2.795
11845TIP3    H235479   4.156   5.581   2.936
11846TIP3   OH235480   4.530   2.004   3.682
11846TIP3    H135481   4.465   2.074   3.686
11846TIP3    H235482   4.478   1.925   3.664
11847TIP3   OH235483   4.465   4.922   5.671
11847TIP3    H135484   4.381   4.967   5.670
11847TIP3    H235485   4.530   4.992   5.672
11848TIP3   OH235486   5.276   4.075   1.459
11848TIP3    H135487   5.340   4.039   1.519
11848TIP3    H235488   5.326   4.134   1.402
11849TIP3   OH235489   2.735   0.477   0.274
11849TIP3    H135490   2.794   0.412   0.311
11849TIP3    H235491   2.763   0.560   0.314
11850TIP3   OH235492   6.413   0.503   6.150
11850TIP3    H135493   6.416   0.408   6.161
11850TIP3    H235494   6.449   0.519   6.062
11851TIP3   OH235495   2.784   2.124   5.877
11851TIP3    H135496   2.767   2.038   5.916
11851TIP3    H235497   2.819   2.176   5.949
11852TIP3   OH235498   7.672   2.958   3.479
11852TIP3    H135499   7.680   2.884   3.540
11852TIP3    H235500   7.760   2.969   3.443
11853TIP3   OH235501   0.120   4.832   5.326
11853TIP3    H135502   0.105   4.887   5.404
11853TIP3    H235503   0.036   4.788   5.312
11854TIP3   OH235504   3.283   1.375   2.375
11854TIP3    H135505   3.358   1.375   2.435
11854TIP3    H235506   3.238   1.457   2.393
11855TIP3   OH235507   5.801   6.209   2.919
11855TIP3    H135508   5.873   6.159   2.959
11855TIP3    H235509   5.749   6.143   2.874
11856TIP3   OH235510   5.186   4.331   2.836
11856TIP3    H135511   5.181   4.263   2.769
11856TIP3    H235512   5.123   4.303   2.903
11857TIP3   OH235513   6.855   1.298   5.914
11857TIP3    H135514   6.910   1.244   5.857
11857TIP3    H235515   6.819   1.236   5.978
11858TIP3   OH235516   2.823   0.276   6.594
11858TIP3    H135517   2.742   0.258   6.547
11858TIP3    H235518   2.890   0.228   6.547
11859TIP3   OH235519   3.835   5.683   4.489
11859TIP3    H135520   3.789   5.673   4.405
11859TIP3    H235521   3.928   5.686   4.465
11860TIP3   OH235522   5.000   5.808   0.207
11860TIP3    H135523   4.955   5.859   0.274
11860TIP3    H235524   4.948   5.728   0.199
11861TIP3   OH235525   0.884   1.260   6.389
11861TIP3    H135526   0.795   1.270   6.424
11861TIP3    H235527   0.940   1.261   6.466
11862TIP3   OH235528   1.815   1.484   2.122
11862TIP3    H135529   1.859   1.563   2.152
11862TIP3    H235530   1.775   1.508   2.039
11863TIP3   OH235531   3.153   1.064   2.100
11863TIP3    H135532   3.101   1.141   2.125
11863TIP3    H235533   3.168   1.018   2.182
11864TIP3   OH235534   2.934   0.675   6.533
11864TIP3    H135535   2.957   0.724   6.454
11864TIP3    H235536   2.908   0.741   6.596
11865TIP3   OH235537   7.694   3.970   3.934
11865TIP3    H135538   7.703   3.881   3.901
11865TIP3    H235539   7.615   4.003   3.891
11866TIP3   OH235540   5.805   7.768   5.459
11866TIP3    H135541   5.836   7.699   5.518
11866TIP3    H235542   5.719   7.738   5.431
11867TIP3   OH235543   5.218   1.449   2.715
11867TIP3    H135544   5.176   1.398   2.647
11867TIP3    H235545   5.232   1.535   2.676
11868TIP3   OH235546   0.820   1.641   2.343
11868TIP3    H135547   0.772   1.611   2.421
11868TIP3    H235548   0.759   1.699   2.298
11869TIP3   OH235549   1.320   7.659   1.786
11869TIP3    H135550   1.368   7.728   1.832
11869TIP3    H235551   1.234   7.658   1.827
11870TIP3   OH235552   7.485   3.496   1.678
11870TIP3    H135553   7.556   3.560   1.668
11870TIP3    H235554   7.421   3.540   1.733
11871TIP3   OH235555   6.442   6.690   1.805
11871TIP3    H135556   6.489   6.630   1.747
11871TIP3    H235557   6.449   6.776   1.762
11872TIP3   OH235558   4.406   0.844   0.507
11872TIP3    H135559   4.474   0.780   0.486
11872TIP3    H235560   4.393   0.893   0.425
11873TIP3   OH235561   3.472   0.302   3.640
11873TIP3    H135562   3.428   0.316   3.555
11873TIP3    H235563   3.518   0.219   3.630
11874TIP3   OH235564   4.511   4.984   6.432
11874TIP3    H135565   4.536   4.936   6.353
11874TIP3    H235566   4.444   4.930   6.473
11875TIP3   OH235567   2.107   2.219   4.534
11875TIP3    H135568   2.146   2.142   4.577
11875TIP3    H235569   2.108   2.198   4.441
11876TIP3   OH235570   3.983   3.001   0.866
11876TIP3    H135571   4.005   2.972   0.777
11876TIP3    H235572   4.068   3.010   0.909
11877TIP3   OH235573   4.015   5.894   2.190
11877TIP3    H135574   4.017   5.943   2.272
11877TIP3    H235575   4.088   5.929   2.139
11878TIP3   OH235576   6.598   6.476   2.921
11878TIP3    H135577   6.651   6.416   2.868
11878TIP3    H235578   6.655   6.552   2.934
11879TIP3   OH235579   5.862   4.173   2.550
11879TIP3    H135580   5.955   4.195   2.545
11879TIP3    H235581   5.818   4.246   2.507
11880TIP3   OH235582   2.307   6.064   2.213
11880TIP3    H135583   2.298   6.023   2.127
11880TIP3    H235584   2.236   6.027   2.265
11881TIP3   OH235585   7.853   1.917   1.569
11881TIP3    H135586   7.821   1.984   1.509
11881TIP3    H235587   7.904   1.965   1.634
11882TIP3   OH235588   2.580   2.274   6.153
11882TIP3    H135589   2.559   2.365   6.136
11882TIP3    H235590   2.675   2.271   6.157
11883TIP3   OH235591   0.898   2.292   6.722
11883TIP3    H135592   0.827   2.308   6.784
11883TIP3    H235593   0.854   2.277   6.638
11884TIP3   OH235594   6.639   1.287   5.363
11884TIP3    H135595   6.717   1.343   5.358
11884TIP3    H235596   6.633   1.248   5.276
11885TIP3   OH235597   2.707   7.042   2.841
11885TIP3    H135598   2.687   7.099   2.915
11885TIP3    H235599   2.760   6.972   2.880
11886TIP3   OH235600   0.785   2.272   4.921
11886TIP3    H135601   0.870   2.287   4.880
11886TIP3    H235602   0.795   2.188   4.966
11887TIP3   OH235603   2.046   3.911   1.003
11887TIP3    H135604   2.106   3.889   1.073
11887TIP3    H235605   1.989   3.978   1.040
11888TIP3   OH235606   4.886   0.611   2.931
11888TIP3    H135607   4.926   0.613   2.844
11888TIP3    H235608   4.948   0.657   2.988
11889TIP3   OH235609   3.910   7.454   1.834
11889TIP3    H135610   3.999   7.421   1.821
11889TIP3    H235611   3.883   7.484   1.747
11890TIP3   OH235612   4.709   2.726   1.897
11890TIP3    H135613   4.686   2.733   1.805
11890TIP3    H235614   4.801   2.700   1.897
11891TIP3   OH235615   3.545   6.055   0.934
11891TIP3    H135616   3.625   6.002   0.941
11891TIP3    H235617   3.504   6.025   0.852
11892TIP3   OH235618   7.915  -0.000   2.164
11892TIP3    H135619   7.913  -0.032   2.074
11892TIP3    H235620   7.960   0.085   2.158
11893TIP3   OH235621   1.942   4.495   5.298
11893TIP3    H135622   1.969   4.483   5.389
11893TIP3    H235623   1.849   4.470   5.297
11894TIP3   OH235624   0.604   6.035   5.154
11894TIP3    H135625   0.685   5.989   5.132
11894TIP3    H235626   0.632   6.103   5.215
11895TIP3   OH235627   0.926   2.572   3.398
11895TIP3    H135628   1.005   2.530   3.362
11895TIP3    H235629   0.955   2.608   3.482
11896TIP3   OH235630   4.794   1.433   0.901
11896TIP3    H135631   4.722   1.405   0.958
11896TIP3    H235632   4.831   1.509   0.946
11897TIP3   OH235633   2.671   4.686   4.459
11897TIP3    H135634   2.686   4.666   4.551
11897TIP3    H235635   2.691   4.779   4.451
11898TIP3   OH235636   4.576   3.474   2.119
11898TIP3    H135637   4.480   3.470   2.113
11898TIP3    H235638   4.604   3.383   2.115
11899TIP3   OH235639   7.170   3.583   1.096
11899TIP3    H135640   7.084   3.586   1.054
11899TIP3    H235641   7.160   3.516   1.165
11900TIP3   OH235642   7.784   1.567   0.197
11900TIP3    H135643   7.752   1.574   0.108
11900TIP3    H235644   7.775   1.474   0.219
11901TIP3   OH235645   3.216   1.770   4.027
11901TIP3    H135646   3.120   1.767   4.022
11901TIP3    H235647   3.236   1.858   4.058
11902TIP3   OH235648   5.674   1.747   5.335
11902TIP3    H135649   5.693   1.792   5.253
11902TIP3    H235650   5.757   1.706   5.360
11903TIP3   OH235651   5.243   7.811   3.377
11903TIP3    H135652   5.169   7.756   3.351
11903TIP3    H235653   5.247   7.803   3.472
11904TIP3   OH235654   6.552   7.704   6.627
11904TIP3    H135655   6.477   7.748   6.586
11904TIP3    H235656   6.515   7.623   6.664
11905TIP3   OH235657   5.435   1.313   6.664
11905TIP3    H135658   5.444   1.247   6.732
11905TIP3    H235659   5.523   1.345   6.648
11906TIP3   OH235660   7.217   2.839   5.905
11906TIP3    H135661   7.244   2.761   5.856
11906TIP3    H235662   7.236   2.816   5.997
11907TIP3   OH235663   7.584   3.253   3.211
11907TIP3    H135664   7.527   3.322   3.245
11907TIP3    H235665   7.541   3.172   3.238
11908TIP3   OH235666   5.462   5.577   2.189
11908TIP3    H135667   5.549   5.614   2.177
11908TIP3    H235668   5.411   5.610   2.115
11909TIP3   OH235669   0.986   6.526   2.092
11909TIP3    H135670   0.949   6.606   2.056
11909TIP3    H235671   0.922   6.497   2.158
11910TIP3   OH235672   3.193   1.434   4.613
11910TIP3    H135673   3.116   1.379   4.602
11910TIP3    H235674   3.203   1.479   4.529
11911TIP3   OH235675   2.700   6.709   4.246
11911TIP3    H135676   2.668   6.700   4.156
11911TIP3    H235677   2.763   6.781   4.243
11912TIP3   OH235678   4.110   2.512   4.859
11912TIP3    H135679   4.039   2.465   4.814
11912TIP3    H235680   4.065   2.570   4.921
11913TIP3   OH235681   6.057   2.845   1.383
11913TIP3    H135682   6.052   2.847   1.287
11913TIP3    H235683   5.965   2.839   1.411
11914TIP3   OH235684   0.994   3.655   4.716
11914TIP3    H135685   0.944   3.573   4.723
11914TIP3    H235686   0.928   3.724   4.722
11915TIP3   OH235687   4.731   6.343   0.974
11915TIP3    H135688   4.791   6.294   1.030
11915TIP3    H235689   4.653   6.356   1.028
11916TIP3   OH235690   0.090   1.811   3.670
11916TIP3    H135691   0.045   1.812   3.754
11916TIP3    H235692   0.143   1.891   3.670
11917TIP3   OH235693   1.505   6.817   5.882
11917TIP3    H135694   1.445   6.752   5.847
11917TIP3    H235695   1.528   6.871   5.806
11918TIP3   OH235696   2.739   1.356   6.522
11918TIP3    H135697   2.694   1.439   6.537
11918TIP3    H235698   2.698   1.295   6.584
11919TIP3   OH235699   4.862   6.273   5.368
11919TIP3    H135700   4.825   6.361   5.371
11919TIP3    H235701   4.897   6.265   5.280
11920TIP3   OH235702   1.815   1.043   3.774
11920TIP3    H135703   1.862   1.100   3.835
11920TIP3    H235704   1.782   1.102   3.706
11921TIP3   OH235705   7.933   3.855   0.702
11921TIP3    H135706   7.847   3.872   0.664
11921TIP3    H235707   7.933   3.905   0.784
11922TIP3   OH235708   4.526   4.796   1.511
11922TIP3    H135709   4.568   4.878   1.537
11922TIP3    H235710   4.436   4.804   1.540
11923TIP3   OH235711   4.930   7.134   3.979
11923TIP3    H135712   4.901   7.156   3.890
11923TIP3    H235713   5.025   7.147   3.976
11924TIP3   OH235714   6.629   1.932   0.789
11924TIP3    H135715   6.545   1.926   0.834
11924TIP3    H235716   6.693   1.938   0.859
11925TIP3   OH235717   3.163   1.972   4.889
11925TIP3    H135718   3.141   2.063   4.910
11925TIP3    H235719   3.241   1.953   4.941
11926TIP3   OH235720   7.861   7.496   5.748
11926TIP3    H135721   7.845   7.590   5.759
11926TIP3    H235722   7.826   7.456   5.827
11927TIP3   OH235723   1.144   2.600   4.295
11927TIP3    H135724   1.148   2.695   4.287
11927TIP3    H235725   1.085   2.585   4.369
11928TIP3   OH235726   2.049   1.840   5.364
11928TIP3    H135727   1.971   1.889   5.337
11928TIP3    H235728   2.021   1.748   5.360
11929TIP3   OH235729   3.317   7.357   2.764
11929TIP3    H135730   3.331   7.283   2.705
11929TIP3    H235731   3.391   7.416   2.747
11930TIP3   OH235732   3.307   7.114   1.114
11930TIP3    H135733   3.369   7.041   1.107
11930TIP3    H235734   3.283   7.134   1.023
11931TIP3   OH235735   7.553   0.996   6.347
11931TIP3    H135736   7.495   0.958   6.281
11931TIP3    H235737   7.625   0.934   6.355
11932TIP3   OH235738   3.759   3.309   4.829
11932TIP3    H135739   3.834   3.368   4.822
11932TIP3    H235740   3.755   3.266   4.744
11933TIP3   OH235741   0.587   6.259   4.828
11933TIP3    H135742   0.626   6.191   4.883
11933TIP3    H235743   0.526   6.213   4.771
11934TIP3   OH235744   3.137   4.581   2.232
11934TIP3    H135745   3.101   4.565   2.145
11934TIP3    H235746   3.066   4.625   2.279
11935TIP3   OH235747   6.985   3.833   4.218
11935TIP3    H135748   7.038   3.912   4.204
11935TIP3    H235749   6.895   3.862   4.205
11936TIP3   OH235750   1.989   5.455   1.037
11936TIP3    H135751   2.033   5.388   1.090
11936TIP3    H235752   2.054   5.525   1.028
11937TIP3   OH235753   2.031   1.800   4.260
11937TIP3    H135754   2.076   1.722   4.293
11937TIP3    H235755   1.949   1.767   4.223
11938TIP3   OH235756   8.073   0.819   4.913
11938TIP3    H135757   8.115   0.734   4.924
11938TIP3    H235758   8.044   0.820   4.822
11939TIP3   OH235759   6.379   7.390   5.151
11939TIP3    H135760   6.432   7.315   5.125
11939TIP3    H235761   6.346   7.367   5.238
11940TIP3   OH235762   1.777   7.163   3.280
11940TIP3    H135763   1.689   7.136   3.257
11940TIP3    H235764   1.819   7.183   3.197
11941TIP3   OH235765   6.941   0.435   3.722
11941TIP3    H135766   6.976   0.457   3.807
11941TIP3    H235767   6.846   0.430   3.735
11942TIP3   OH235768   0.063   4.838   6.012
11942TIP3    H135769   0.006   4.869   5.942
11942TIP3    H235770   0.027   4.753   6.037
11943TIP3   OH235771   8.115   0.719   4.438
11943TIP3    H135772   8.056   0.737   4.511
11943TIP3    H235773   8.086   0.635   4.403
11944TIP3   OH235774   7.154   2.187   2.434
11944TIP3    H135775   7.203   2.114   2.396
11944TIP3    H235776   7.221   2.247   2.466
11945TIP3   OH235777   5.542   6.877   4.011
11945TIP3    H135778   5.513   6.791   4.040
11945TIP3    H235779   5.578   6.862   3.923
11946TIP3   OH235780   6.003   1.525   2.444
11946TIP3    H135781   6.059   1.600   2.462
11946TIP3    H235782   5.915   1.555   2.461
11947TIP3   OH235783   3.395   2.635   1.431
11947TIP3    H135784   3.373   2.543   1.445
11947TIP3    H235785   3.489   2.640   1.444
11948TIP3   OH235786   4.386   0.908   4.213
11948TIP3    H135787   4.368   0.814   4.215
11948TIP3    H235788   4.380   0.931   4.121
11949TIP3   OH235789   2.109   0.052   4.024
11949TIP3    H135790   2.043   0.079   3.960
11949TIP3    H235791   2.123   0.130   4.078
11950TIP3   OH235792   3.633   4.346   1.145
11950TIP3    H135793   3.546   4.310   1.131
11950TIP3    H235794   3.618   4.440   1.161
11951TIP3   OH235795   3.608   3.720   2.491
11951TIP3    H135796   3.639   3.653   2.552
11951TIP3    H235797   3.686   3.770   2.469
11952TIP3   OH235798   1.086   3.186   1.835
11952TIP3    H135799   1.118   3.273   1.811
11952TIP3    H235800   0.992   3.189   1.820
11953TIP3   OH235801   6.256   4.328   1.658
11953TIP3    H135802   6.289   4.302   1.572
11953TIP3    H235803   6.227   4.246   1.698
11954TIP3   OH235804   4.804   1.038   0.456
11954TIP3    H135805   4.810   1.130   0.430
11954TIP3    H235806   4.755   0.996   0.386
11955TIP3   OH235807   5.131   1.876   6.343
11955TIP3    H135808   5.097   1.903   6.257
11955TIP3    H235809   5.078   1.925   6.406
11956TIP3   OH235810   3.706   1.384   2.191
11956TIP3    H135811   3.719   1.423   2.277
11956TIP3    H235812   3.638   1.438   2.150
11957TIP3   OH235813   6.580   6.541   2.161
11957TIP3    H135814   6.612   6.631   2.168
11957TIP3    H235815   6.623   6.495   2.233
11958TIP3   OH235816   8.085   7.441   2.106
11958TIP3    H135817   8.087   7.459   2.201
11958TIP3    H235818   8.003   7.394   2.092
11959TIP3   OH235819   8.274   4.474   6.711
11959TIP3    H135820   8.229   4.462   6.627
11959TIP3    H235821   8.313   4.388   6.729
11960TIP3   OH235822   8.145   2.318   4.329
11960TIP3    H135823   8.241   2.324   4.327
11960TIP3    H235824   8.127   2.236   4.375
11961TIP3   OH235825   3.456   7.159   5.122
11961TIP3    H135826   3.497   7.231   5.074
11961TIP3    H235827   3.414   7.200   5.197
11962TIP3   OH235828   2.330   2.836   5.241
11962TIP3    H135829   2.376   2.842   5.158
11962TIP3    H235830   2.253   2.893   5.230
11963TIP3   OH235831   8.096   7.697   5.153
11963TIP3    H135832   8.131   7.727   5.070
11963TIP3    H235833   8.164   7.718   5.217
11964TIP3   OH235834   7.017   3.291   5.979
11964TIP3    H135835   7.014   3.379   5.940
11964TIP3    H235836   7.083   3.245   5.927
11965TIP3   OH235837   3.548   5.045   5.839
11965TIP3    H135838   3.581   5.009   5.921
11965TIP3    H235839   3.625   5.082   5.796
11966TIP3   OH235840   3.399   4.734   5.107
11966TIP3    H135841   3.454   4.806   5.077
11966TIP3    H235842   3.332   4.725   5.040
11967TIP3   OH235843   2.715   5.597   4.573
11967TIP3    H135844   2.728   5.686   4.540
11967TIP3    H235845   2.647   5.605   4.640
11968TIP3   OH235846   1.278   6.657   5.888
11968TIP3    H135847   1.250   6.613   5.968
11968TIP3    H235848   1.272   6.589   5.820
11969TIP3   OH235849   2.182   5.330   0.830
11969TIP3    H135850   2.211   5.241   0.851
11969TIP3    H235851   2.234   5.386   0.889
11970TIP3   OH235852   5.760   4.387   5.738
11970TIP3    H135853   5.845   4.349   5.714
11970TIP3    H235854   5.700   4.313   5.736
11971TIP3   OH235855   6.006   0.595   3.677
11971TIP3    H135856   5.987   0.562   3.765
11971TIP3    H235857   5.984   0.522   3.619
11972TIP3   OH235858   4.865   5.739   2.157
11972TIP3    H135859   4.816   5.695   2.088
11972TIP3    H235860   4.850   5.832   2.141
11973TIP3   OH235861   7.034   6.804   1.399
11973TIP3    H135862   7.107   6.744   1.404
11973TIP3    H235863   6.961   6.751   1.366
11974TIP3   OH235864   0.550   2.288   4.654
11974TIP3    H135865   0.479   2.225   4.670
11974TIP3    H235866   0.535   2.358   4.718
11975TIP3   OH235867   0.733   4.104   2.955
11975TIP3    H135868   0.758   4.178   3.011
11975TIP3    H235869   0.649   4.130   2.917
11976TIP3   OH235870   3.365   1.678   1.771
11976TIP3    H135871   3.433   1.616   1.798
11976TIP3    H235872   3.347   1.655   1.680
11977TIP3   OH235873   5.488   3.813   3.973
11977TIP3    H135874   5.469   3.752   3.901
11977TIP3    H235875   5.554   3.872   3.937
11978TIP3   OH235876   4.269   4.518   5.637
11978TIP3    H135877   4.302   4.535   5.726
11978TIP3    H235878   4.265   4.605   5.597
11979TIP3   OH235879   1.087   5.613   5.441
11979TIP3    H135880   1.158   5.563   5.481
11979TIP3    H235881   1.008   5.587   5.488
11980TIP3   OH235882   7.195   3.108   5.828
11980TIP3    H135883   7.172   3.017   5.806
11980TIP3    H235884   7.287   3.105   5.853
11981TIP3   OH235885   3.571   7.370   4.958
11981TIP3    H135886   3.589   7.458   4.926
11981TIP3    H235887   3.598   7.312   4.887
11982TIP3   OH235888   3.863   3.672   1.192
11982TIP3    H135889   3.917   3.630   1.259
11982TIP3    H235890   3.812   3.601   1.154
11983TIP3   OH235891   3.045   7.041   1.910
11983TIP3    H135892   3.127   7.009   1.947
11983TIP3    H235893   3.052   7.136   1.916
11984TIP3   OH235894   1.479   5.652   4.140
11984TIP3    H135895   1.405   5.655   4.079
11984TIP3    H235896   1.495   5.744   4.162
11985TIP3   OH235897   5.521   4.322   1.487
11985TIP3    H135898   5.592   4.385   1.500
11985TIP3    H235899   5.458   4.341   1.556
11986TIP3   OH235900   2.053   0.857   2.247
11986TIP3    H135901   1.961   0.845   2.271
11986TIP3    H235902   2.064   0.803   2.169
11987TIP3   OH235903   6.622   0.442   2.443
11987TIP3    H135904   6.715   0.461   2.457
11987TIP3    H235905   6.600   0.378   2.510
11988TIP3   OH235906   6.483   1.889   1.333
11988TIP3    H135907   6.408   1.947   1.344
11988TIP3    H235908   6.547   1.919   1.397
11989TIP3   OH235909   5.272   3.426   2.078
11989TIP3    H135910   5.190   3.400   2.035
11989TIP3    H235911   5.340   3.384   2.025
11990TIP3   OH235912   6.840   4.191   2.884
11990TIP3    H135913   6.878   4.110   2.850
11990TIP3    H235914   6.904   4.259   2.862
11991TIP3   OH235915   6.327   2.309   3.507
11991TIP3    H135916   6.416   2.330   3.478
11991TIP3    H235917   6.327   2.214   3.516
11992TIP3   OH235918   6.434   0.895   1.591
11992TIP3    H135919   6.366   0.832   1.567
11992TIP3    H235920   6.511   0.866   1.542
11993TIP3   OH235921   2.896   3.060   0.863
11993TIP3    H135922   2.806   3.091   0.849
11993TIP3    H235923   2.901   3.044   0.957
11994TIP3   OH235924   0.671   0.946   5.878
11994TIP3    H135925   0.709   0.910   5.958
11994TIP3    H235926   0.730   1.016   5.852
11995TIP3   OH235927   0.149   5.518   4.785
11995TIP3    H135928   0.164   5.561   4.870
11995TIP3    H235929   0.119   5.430   4.808
11996TIP3   OH235930   6.832   0.385   0.048
11996TIP3    H135931   6.759   0.339   0.004
11996TIP3    H235932   6.834   0.471   0.007
11997TIP3   OH235933   1.413   1.257   0.144
11997TIP3    H135934   1.503   1.223   0.143
11997TIP3    H235935   1.418   1.337   0.197
11998TIP3   OH235936   0.469   6.798   5.068
11998TIP3    H135937   0.527   6.778   4.995
11998TIP3    H235938   0.381   6.782   5.034
11999TIP3   OH235939   4.972   2.794   6.343
11999TIP3    H135940   5.035   2.829   6.281
11999TIP3    H235941   4.935   2.717   6.299
12000TIP3   OH235942   5.413   2.287   1.445
12000TIP3    H135943   5.474   2.239   1.389
12000TIP3    H235944   5.354   2.331   1.384
12001TIP3   OH235945   4.618   0.765   1.580
12001TIP3    H135946   4.560   0.705   1.533
12001TIP3    H235947   4.577   0.851   1.569
12002TIP3   OH235948   0.880   1.667   1.908
12002TIP3    H135949   0.898   1.760   1.924
12002TIP3    H235950   0.930   1.622   1.976
12003TIP3   OH235951   2.095   3.257   1.533
12003TIP3    H135952   2.081   3.189   1.599
12003TIP3    H235953   2.182   3.239   1.498
12004TIP3   OH235954   1.177   5.702   6.096
12004TIP3    H135955   1.089   5.682   6.126
12004TIP3    H235956   1.168   5.781   6.043
12005TIP3   OH235957   4.873   5.262   4.876
12005TIP3    H135958   4.855   5.214   4.957
12005TIP3    H235959   4.917   5.197   4.819
12006TIP3   OH235960   3.016   1.922   0.543
12006TIP3    H135961   3.069   1.940   0.621
12006TIP3    H235962   3.062   1.968   0.472
12007TIP3   OH235963   1.163   3.557   3.058
12007TIP3    H135964   1.181   3.463   3.057
12007TIP3    H235965   1.159   3.581   2.965
12008TIP3   OH235966   5.414   0.435   1.032
12008TIP3    H135967   5.468   0.402   0.960
12008TIP3    H235968   5.431   0.529   1.034
12009TIP3   OH235969   1.375   7.041   6.515
12009TIP3    H135970   1.453   6.985   6.512
12009TIP3    H235971   1.302   6.982   6.501
12010TIP3   OH235972   6.372   6.506   4.655
12010TIP3    H135973   6.396   6.414   4.666
12010TIP3    H235974   6.455   6.551   4.640
12011TIP3   OH235975   7.372   4.584   5.199
12011TIP3    H135976   7.404   4.599   5.287
12011TIP3    H235977   7.379   4.489   5.186
12012TIP3   OH235978   4.835   0.517   1.296
12012TIP3    H135979   4.807   0.481   1.381
12012TIP3    H235980   4.755   0.519   1.244
12013TIP3   OH235981   5.958   7.132   2.936
12013TIP3    H135982   5.903   7.059   2.907
12013TIP3    H235983   6.019   7.146   2.864
12014TIP3   OH235984   7.200   1.811   4.931
12014TIP3    H135985   7.106   1.795   4.938
12014TIP3    H235986   7.227   1.758   4.856
12015TIP3   OH235987   2.006   6.462   2.303
12015TIP3    H135988   2.014   6.448   2.209
12015TIP3    H235989   2.013   6.374   2.341
12016TIP3   OH235990   2.882   4.853   0.933
12016TIP3    H135991   2.914   4.901   0.856
12016TIP3    H235992   2.868   4.921   0.999
12017TIP3   OH235993   3.077   3.742   3.115
12017TIP3    H135994   3.168   3.721   3.136
12017TIP3    H235995   3.049   3.673   3.055
12018TIP3   OH235996   2.339   2.288   4.348
12018TIP3    H135997   2.406   2.223   4.368
12018TIP3    H235998   2.336   2.290   4.252
12019TIP3   OH235999   0.165   3.434   5.583
12019TIP3    H136000   0.102   3.495   5.544
12019TIP3    H236001   0.142   3.433   5.676
12020TIP3   OH236002   8.276   4.456   3.492
12020TIP3    H136003   8.247   4.444   3.401
12020TIP3    H236004   8.333   4.381   3.508
12021TIP3   OH236005   0.835   3.258   5.374
12021TIP3    H136006   0.882   3.176   5.390
12021TIP3    H236007   0.888   3.326   5.415
12022TIP3   OH236008   5.623   1.058   1.021
12022TIP3    H136009   5.657   1.140   0.985
12022TIP3    H236010   5.528   1.069   1.019
12023TIP3   OH236011   6.879   7.200   1.310
12023TIP3    H136012   6.952   7.153   1.270
12023TIP3    H236013   6.870   7.162   1.397
12024TIP3   OH236014   8.053   5.656   3.706
12024TIP3    H136015   7.992   5.709   3.758
12024TIP3    H236016   8.040   5.686   3.616
12025TIP3   OH236017   4.034   6.893   2.795
12025TIP3    H136018   4.088   6.916   2.719
12025TIP3    H236019   4.098   6.878   2.865
12026TIP3   OH236020   3.238   5.057   4.356
12026TIP3    H136021   3.270   5.083   4.443
12026TIP3    H236022   3.236   5.138   4.306
12027TIP3   OH236023   0.590   4.627   1.840
12027TIP3    H136024   0.629   4.560   1.896
12027TIP3    H236025   0.499   4.599   1.829
12028TIP3   OH236026   3.383   2.380   4.763
12028TIP3    H136027   3.448   2.449   4.754
12028TIP3    H236028   3.372   2.368   4.857
12029TIP3   OH236029   7.522   7.235   3.285
12029TIP3    H136030   7.579   7.263   3.356
12029TIP3    H236031   7.579   7.186   3.226
12030TIP3   OH236032   0.089   6.834   6.206
12030TIP3    H136033   0.053   6.922   6.217
12030TIP3    H236034   0.066   6.809   6.117
12031TIP3   OH236035   5.577   5.185   0.693
12031TIP3    H136036   5.601   5.183   0.786
12031TIP3    H236037   5.654   5.149   0.648
12032TIP3   OH236038   3.753   6.008   0.145
12032TIP3    H136039   3.809   5.966   0.081
12032TIP3    H236040   3.735   6.094   0.108
12033TIP3   OH236041   2.824   3.289   5.827
12033TIP3    H136042   2.750   3.315   5.882
12033TIP3    H236043   2.899   3.333   5.865
12034TIP3   OH236044   5.218   0.549   3.905
12034TIP3    H136045   5.222   0.626   3.848
12034TIP3    H236046   5.242   0.581   3.992
12035TIP3   OH236047   7.173   1.784   3.097
12035TIP3    H136048   7.263   1.784   3.065
12035TIP3    H236049   7.123   1.829   3.029
12036TIP3   OH236050   7.039   6.275   4.877
12036TIP3    H136051   7.034   6.208   4.810
12036TIP3    H236052   6.962   6.260   4.932
12037TIP3   OH236053   4.140   6.426   0.773
12037TIP3    H136054   4.232   6.402   0.781
12037TIP3    H236055   4.104   6.364   0.709
12038TIP3   OH236056   1.537   0.993   2.931
12038TIP3    H136057   1.486   0.914   2.912
12038TIP3    H236058   1.481   1.065   2.902
12039TIP3   OH236059   1.143   2.303   1.418
12039TIP3    H136060   1.224   2.352   1.405
12039TIP3    H236061   1.128   2.260   1.333
12040TIP3   OH236062   5.516   5.548   1.803
12040TIP3    H136063   5.484   5.525   1.715
12040TIP3    H236064   5.603   5.585   1.788
12041TIP3   OH236065   6.322   1.533   5.291
12041TIP3    H136066   6.253   1.599   5.295
12041TIP3    H236067   6.279   1.451   5.313
12042TIP3   OH236068   3.114   0.811   0.508
12042TIP3    H136069   3.137   0.792   0.417
12042TIP3    H236070   3.089   0.725   0.544
12043TIP3   OH236071   7.752   5.993   2.529
12043TIP3    H136072   7.841   6.014   2.501
12043TIP3    H236073   7.763   5.931   2.602
12044TIP3   OH236074   3.768   5.167   4.404
12044TIP3    H136075   3.775   5.262   4.416
12044TIP3    H236076   3.851   5.142   4.363
12045TIP3   OH236077   4.028   7.519   3.868
12045TIP3    H136078   3.994   7.531   3.957
12045TIP3    H236079   4.008   7.428   3.846
12046TIP3   OH236080   0.510   3.880   1.599
12046TIP3    H136081   0.594   3.895   1.643
12046TIP3    H236082   0.455   3.840   1.667
12047TIP3   OH236083   6.804   3.907   0.218
12047TIP3    H136084   6.882   3.851   0.213
12047TIP3    H236085   6.835   3.994   0.194
12048TIP3   OH236086   0.228   6.930   4.033
12048TIP3    H136087   0.285   6.977   3.972
12048TIP3    H236088   0.204   6.849   3.987
12049TIP3   OH236089   8.078   7.383   5.651
12049TIP3    H136090   7.991   7.422   5.655
12049TIP3    H236091   8.066   7.294   5.685
12050TIP3   OH236092   1.089   3.120   4.216
12050TIP3    H136093   1.147   3.156   4.150
12050TIP3    H236094   1.064   3.196   4.269
12051TIP3   OH236095   7.626   6.942   2.818
12051TIP3    H136096   7.696   6.914   2.876
12051TIP3    H236097   7.663   6.931   2.730
12052TIP3   OH236098   4.404   0.840   5.331
12052TIP3    H136099   4.391   0.883   5.416
12052TIP3    H236100   4.470   0.894   5.287
12053TIP3   OH236101   6.171   0.781   3.087
12053TIP3    H136102   6.190   0.807   2.996
12053TIP3    H236103   6.194   0.858   3.139
12054TIP3   OH236104   1.834   1.777   2.448
12054TIP3    H136105   1.902   1.711   2.459
12054TIP3    H236106   1.867   1.835   2.379
12055TIP3   OH236107   0.950   1.423   0.582
12055TIP3    H136108   0.866   1.391   0.547
12055TIP3    H236109   0.970   1.501   0.530
12056TIP3   OH236110   4.259   1.347   4.767
12056TIP3    H136111   4.306   1.305   4.839
12056TIP3    H236112   4.176   1.376   4.806
12057TIP3   OH236113   0.497   4.933   1.914
12057TIP3    H136114   0.447   4.862   1.954
12057TIP3    H236115   0.505   4.908   1.822
12058TIP3   OH236116   0.795   3.001   3.019
12058TIP3    H136117   0.736   2.996   3.094
12058TIP3    H236118   0.750   2.954   2.949
12059TIP3   OH236119   7.573   6.723   3.321
12059TIP3    H136120   7.521   6.650   3.287
12059TIP3    H236121   7.509   6.787   3.350
12060TIP3   OH236122   3.864   6.503   5.862
12060TIP3    H136123   3.860   6.555   5.942
12060TIP3    H236124   3.952   6.467   5.861
12061TIP3   OH236125   4.343   0.163   6.472
12061TIP3    H136126   4.300   0.238   6.513
12061TIP3    H236127   4.326   0.089   6.531
12062TIP3   OH236128   5.940   4.392   4.049
12062TIP3    H136129   6.026   4.408   4.089
12062TIP3    H236130   5.954   4.319   3.989
12063TIP3   OH236131   1.210   6.499   3.782
12063TIP3    H136132   1.157   6.565   3.826
12063TIP3    H236133   1.172   6.415   3.809
12064TIP3   OH236134   0.689   1.033   6.291
12064TIP3    H136135   0.659   1.111   6.337
12064TIP3    H236136   0.612   1.002   6.243
12065TIP3   OH236137   0.336   3.462   1.376
12065TIP3    H136138   0.261   3.519   1.391
12065TIP3    H236139   0.313   3.411   1.299
12066TIP3   OH236140   3.259   2.510   4.452
12066TIP3    H136141   3.232   2.583   4.508
12066TIP3    H236142   3.185   2.450   4.454
12067TIP3   OH236143   5.015   7.616   0.914
12067TIP3    H136144   5.007   7.666   0.995
12067TIP3    H236145   5.065   7.672   0.855
12068TIP3   OH236146   3.069   2.824   4.733
12068TIP3    H136147   3.104   2.866   4.811
12068TIP3    H236148   3.144   2.781   4.692
12069TIP3   OH236149   8.234   0.489   1.277
12069TIP3    H136150   8.289   0.448   1.211
12069TIP3    H236151   8.192   0.416   1.322
12070TIP3   OH236152   2.774   2.948   2.608
12070TIP3    H136153   2.727   3.030   2.621
12070TIP3    H236154   2.838   2.945   2.679
12071TIP3   OH236155   5.367   0.207   0.593
12071TIP3    H136156   5.345   0.145   0.524
12071TIP3    H236157   5.456   0.185   0.618
12072TIP3   OH236158   7.184   3.567   3.372
12072TIP3    H136159   7.172   3.497   3.436
12072TIP3    H236160   7.108   3.561   3.315
12073TIP3   OH236161   1.690   0.583   1.800
12073TIP3    H136162   1.613   0.605   1.852
12073TIP3    H236163   1.684   0.640   1.723
12074TIP3   OH236164   0.194   5.067   6.564
12074TIP3    H136165   0.141   5.106   6.494
12074TIP3    H236166   0.282   5.101   6.548
12075TIP3   OH236167   4.359   6.396   3.948
12075TIP3    H136168   4.293   6.447   3.996
12075TIP3    H236169   4.308   6.350   3.881
12076TIP3   OH236170   1.286   2.705   5.014
12076TIP3    H136171   1.254   2.730   5.100
12076TIP3    H236172   1.376   2.739   5.011
12077TIP3   OH236173   1.779   7.137   4.112
12077TIP3    H136174   1.827   7.146   4.030
12077TIP3    H236175   1.841   7.165   4.179
12078TIP3   OH236176   2.039   1.637   2.233
12078TIP3    H136177   2.050   1.542   2.235
12078TIP3    H236178   2.078   1.667   2.315
12079TIP3   OH236179   2.845   6.997   5.344
12079TIP3    H136180   2.833   7.091   5.359
12079TIP3    H236181   2.767   6.970   5.297
12080TIP3   OH236182   8.239   3.042   0.148
12080TIP3    H136183   8.250   2.962   0.096
12080TIP3    H236184   8.162   3.084   0.110
12081TIP3   OH236185   6.170   6.467   3.108
12081TIP3    H136186   6.088   6.466   3.059
12081TIP3    H236187   6.239   6.472   3.042
12082TIP3   OH236188   2.419   5.905   4.196
12082TIP3    H136189   2.464   5.975   4.242
12082TIP3    H236190   2.485   5.836   4.185
12083TIP3   OH236191   5.061   2.918   3.938
12083TIP3    H136192   4.994   2.928   3.871
12083TIP3    H236193   5.032   2.845   3.992
12084TIP3   OH236194   1.261   5.615   3.968
12084TIP3    H136195   1.310   5.533   3.976
12084TIP3    H236196   1.294   5.654   3.887
12085TIP3   OH236197   6.166   3.841   6.558
12085TIP3    H136198   6.164   3.916   6.619
12085TIP3    H236199   6.131   3.877   6.476
12086TIP3   OH236200   7.836   1.782   5.235
12086TIP3    H136201   7.763   1.824   5.281
12086TIP3    H236202   7.839   1.825   5.149
12087TIP3   OH236203   2.677   4.493   3.251
12087TIP3    H136204   2.583   4.514   3.251
12087TIP3    H236205   2.692   4.451   3.336
12088TIP3   OH236206   7.936   2.279   5.976
12088TIP3    H136207   7.996   2.353   5.977
12088TIP3    H236208   7.890   2.284   6.060
12089TIP3   OH236209   3.838   0.981   4.093
12089TIP3    H136210   3.838   0.957   4.186
12089TIP3    H236211   3.813   0.900   4.048
12090TIP3   OH236212   6.911   7.281   3.884
12090TIP3    H136213   6.947   7.357   3.930
12090TIP3    H236214   6.888   7.314   3.797
12091TIP3   OH236215   5.159   3.505   0.026
12091TIP3    H136216   5.198   3.498   0.113
12091TIP3    H236217   5.089   3.569   0.037
12092TIP3   OH236218   0.824   2.311   3.196
12092TIP3    H136219   0.799   2.402   3.213
12092TIP3    H236220   0.905   2.318   3.146
12093TIP3   OH236221   1.019   2.744   6.657
12093TIP3    H136222   1.011   2.824   6.709
12093TIP3    H236223   0.929   2.716   6.644
12094TIP3   OH236224   0.344   5.205   3.672
12094TIP3    H136225   0.396   5.180   3.595
12094TIP3    H236226   0.301   5.124   3.699
12095TIP3   OH236227   0.899   3.116   3.880
12095TIP3    H136228   0.854   3.091   3.960
12095TIP3    H236229   0.872   3.051   3.815
12096TIP3   OH236230   0.680   7.255   6.405
12096TIP3    H136231   0.642   7.171   6.432
12096TIP3    H236232   0.612   7.319   6.424
12097TIP3   OH236233   2.470   3.740   3.936
12097TIP3    H136234   2.484   3.754   4.030
12097TIP3    H236235   2.391   3.789   3.916
12098TIP3   OH236236   2.020   0.571   6.167
12098TIP3    H136237   1.984   0.587   6.254
12098TIP3    H236238   1.944   0.571   6.109
12099TIP3   OH236239   1.526   6.617   3.031
12099TIP3    H136240   1.465   6.543   3.022
12099TIP3    H236241   1.492   6.683   2.972
12100TIP3   OH236242   5.183   0.985   2.555
12100TIP3    H136243   5.240   0.911   2.577
12100TIP3    H236244   5.228   1.028   2.481
12101TIP3   OH236245   2.577   2.657   6.004
12101TIP3    H136246   2.547   2.598   5.935
12101TIP3    H236247   2.662   2.689   5.973
12102TIP3   OH236248   1.099   2.180   0.955
12102TIP3    H136249   1.154   2.220   0.888
12102TIP3    H236250   1.043   2.119   0.907
12103TIP3   OH236251   0.919   4.451   2.111
12103TIP3    H136252   0.913   4.530   2.164
12103TIP3    H236253   0.997   4.464   2.057
12104TIP3   OH236254   2.723   3.546   1.735
12104TIP3    H136255   2.774   3.537   1.816
12104TIP3    H236256   2.780   3.509   1.667
12105TIP3   OH236257   1.413   0.493   1.621
12105TIP3    H136258   1.421   0.562   1.687
12105TIP3    H236259   1.321   0.467   1.626
12106TIP3   OH236260   6.660   4.972   1.731
12106TIP3    H136261   6.696   5.036   1.669
12106TIP3    H236262   6.729   4.906   1.739
12107TIP3   OH236263   0.134   4.487   0.449
12107TIP3    H136264   0.137   4.583   0.450
12107TIP3    H236265   0.175   4.460   0.531
12108TIP3   OH236266   5.109   1.172   5.718
12108TIP3    H136267   5.136   1.183   5.627
12108TIP3    H236268   5.044   1.101   5.715
12109TIP3   OH236269   3.246   3.889   5.633
12109TIP3    H136270   3.296   3.892   5.552
12109TIP3    H236271   3.182   3.819   5.620
12110TIP3   OH236272   1.654   0.030   3.390
12110TIP3    H136273   1.685   0.094   3.326
12110TIP3    H236274   1.559   0.033   3.383
12111TIP3   OH236275   0.091   6.118   6.594
12111TIP3    H136276   0.011   6.168   6.609
12111TIP3    H236277   0.098   6.111   6.499
12112TIP3   OH236278   0.990   6.777   5.143
12112TIP3    H136279   0.941   6.825   5.077
12112TIP3    H236280   0.946   6.797   5.226
12113TIP3   OH236281   1.127   3.530   4.062
12113TIP3    H136282   1.073   3.478   4.002
12113TIP3    H236283   1.201   3.559   4.009
12114TIP3   OH236284   4.431   5.286   3.218
12114TIP3    H136285   4.473   5.344   3.281
12114TIP3    H236286   4.499   5.269   3.152
12115TIP3   OH236287   3.044   3.040   2.428
12115TIP3    H136288   2.971   3.041   2.490
12115TIP3    H236289   3.023   3.106   2.363
12116TIP3   OH236290   6.760   1.818   5.587
12116TIP3    H136291   6.737   1.759   5.658
12116TIP3    H236292   6.822   1.768   5.532
12117TIP3   OH236293   6.084   3.681   2.970
12117TIP3    H136294   6.067   3.589   2.990
12117TIP3    H236295   6.163   3.703   3.021
12118TIP3   OH236296   7.370   2.403   3.255
12118TIP3    H136297   7.452   2.428   3.299
12118TIP3    H236298   7.362   2.309   3.272
12119TIP3   OH236299   3.085   1.887   5.990
12119TIP3    H136300   3.087   1.794   5.966
12119TIP3    H236301   3.145   1.893   6.065
12120TIP3   OH236302   1.562   1.825   5.606
12120TIP3    H136303   1.593   1.873   5.530
12120TIP3    H236304   1.637   1.825   5.666
12121TIP3   OH236305   3.444   6.547   6.041
12121TIP3    H136306   3.445   6.608   5.967
12121TIP3    H236307   3.392   6.473   6.011
12122TIP3   OH236308   7.534   6.402   6.253
12122TIP3    H136309   7.596   6.455   6.203
12122TIP3    H236310   7.511   6.330   6.194
12123TIP3   OH236311   7.307   6.553   6.756
12123TIP3    H136312   7.239   6.557   6.824
12123TIP3    H236313   7.372   6.618   6.784
12124TIP3   OH236314   4.826   4.437   1.301
12124TIP3    H136315   4.804   4.422   1.209
12124TIP3    H236316   4.746   4.473   1.339
12125TIP3   OH236317   1.141   0.459   0.168
12125TIP3    H136318   1.152   0.550   0.198
12125TIP3    H236319   1.174   0.406   0.240
12126TIP3   OH236320   6.020   1.460   1.580
12126TIP3    H136321   5.968   1.540   1.590
12126TIP3    H236322   6.111   1.488   1.593
12127TIP3   OH236323   6.822   1.292   0.768
12127TIP3    H136324   6.826   1.341   0.850
12127TIP3    H236325   6.747   1.330   0.721
12128TIP3   OH236326   5.225   2.146   1.834
12128TIP3    H136327   5.146   2.095   1.817
12128TIP3    H236328   5.285   2.085   1.877
12129TIP3   OH236329   2.681   5.221   5.135
12129TIP3    H136330   2.716   5.136   5.106
12129TIP3    H236331   2.747   5.285   5.108
12130TIP3   OH236332   1.981   5.282   2.588
12130TIP3    H136333   1.996   5.363   2.540
12130TIP3    H236334   2.060   5.269   2.639
12131TIP3   OH236335   0.954   3.534   6.726
12131TIP3    H136336   1.049   3.520   6.733
12131TIP3    H236337   0.916   3.461   6.774
12132TIP3   OH236338   8.124   7.794   2.088
12132TIP3    H136339   8.163   7.858   2.028
12132TIP3    H236340   8.161   7.710   2.060
12133TIP3   OH236341   3.919   7.101   2.575
12133TIP3    H136342   3.862   7.025   2.587
12133TIP3    H236343   4.007   7.066   2.584
12134TIP3   OH236344   0.197   7.363   4.502
12134TIP3    H136345   0.126   7.390   4.560
12134TIP3    H236346   0.270   7.344   4.560
12135TIP3   OH236347   6.091   0.755   1.847
12135TIP3    H136348   6.048   0.682   1.892
12135TIP3    H236349   6.134   0.804   1.916
12136TIP3   OH236350   0.569   6.778   1.782
12136TIP3    H136351   0.474   6.786   1.791
12136TIP3    H236352   0.596   6.856   1.732
12137TIP3   OH236353   2.785   4.628   0.077
12137TIP3    H136354   2.725   4.628   0.003
12137TIP3    H236355   2.788   4.720   0.105
12138TIP3   OH236356   3.131   5.792   6.076
12138TIP3    H136357   3.163   5.859   6.016
12138TIP3    H236358   3.165   5.818   6.162
12139TIP3   OH236359   7.535   3.478   6.199
12139TIP3    H136360   7.567   3.429   6.124
12139TIP3    H236361   7.589   3.557   6.200
12140TIP3   OH236362   0.418   7.651   4.970
12140TIP3    H136363   0.474   7.678   4.898
12140TIP3    H236364   0.455   7.568   5.000
12141TIP3   OH236365   6.504   0.700   1.825
12141TIP3    H136366   6.526   0.631   1.763
12141TIP3    H236367   6.476   0.774   1.770
12142TIP3   OH236368   2.192   0.325   1.491
12142TIP3    H136369   2.262   0.388   1.504
12142TIP3    H236370   2.111   0.373   1.510
12143TIP3   OH236371   6.578   1.651   3.135
12143TIP3    H136372   6.609   1.580   3.192
12143TIP3    H236373   6.643   1.657   3.065
12144TIP3   OH236374   2.079   0.564   5.310
12144TIP3    H136375   2.088   0.567   5.405
12144TIP3    H236376   2.011   0.499   5.294
12145TIP3   OH236377   6.021   3.650   1.303
12145TIP3    H136378   6.039   3.568   1.257
12145TIP3    H236379   6.016   3.716   1.234
12146TIP3   OH236380   1.435   2.481   0.879
12146TIP3    H136381   1.526   2.502   0.857
12146TIP3    H236382   1.384   2.517   0.806
12147TIP3   OH236383   6.600   7.652   1.269
12147TIP3    H136384   6.636   7.741   1.267
12147TIP3    H236385   6.676   7.596   1.286
12148TIP3   OH236386   5.116   2.208   4.091
12148TIP3    H136387   5.088   2.123   4.123
12148TIP3    H236388   5.193   2.229   4.144
12149TIP3   OH236389   4.504   3.354   1.491
12149TIP3    H136390   4.489   3.270   1.534
12149TIP3    H236391   4.515   3.416   1.563
12150TIP3   OH236392   5.663   6.241   1.938
12150TIP3    H136393   5.702   6.304   1.999
12150TIP3    H236394   5.722   6.242   1.863
12151TIP3   OH236395   6.755   4.849   2.542
12151TIP3    H136396   6.672   4.887   2.572
12151TIP3    H236397   6.811   4.850   2.620
12152TIP3   OH236398   1.685   3.082   2.642
12152TIP3    H136399   1.651   3.171   2.652
12152TIP3    H236400   1.607   3.027   2.635
12153TIP3   OH236401   4.667   1.696   0.460
12153TIP3    H136402   4.738   1.758   0.442
12153TIP3    H236403   4.665   1.690   0.556
12154TIP3   OH236404   1.053   1.347   2.276
12154TIP3    H136405   1.054   1.260   2.235
12154TIP3    H236406   1.050   1.329   2.370
12155TIP3   OH236407   5.129   5.846   1.689
12155TIP3    H136408   5.208   5.794   1.681
12155TIP3    H236409   5.058   5.788   1.661
12156TIP3   OH236410   3.744   2.955   0.616
12156TIP3    H136411   3.682   2.907   0.671
12156TIP3    H236412   3.697   3.034   0.590
12157TIP3   OH236413   6.786   6.620   5.900
12157TIP3    H136414   6.826   6.664   5.825
12157TIP3    H236415   6.818   6.530   5.894
12158TIP3   OH236416   1.781   5.045   4.765
12158TIP3    H136417   1.771   5.125   4.712
12158TIP3    H236418   1.797   4.976   4.701
12159TIP3   OH236419   3.091   0.083   1.449
12159TIP3    H136420   3.139   0.082   1.366
12159TIP3    H236421   3.075   0.176   1.466
12160TIP3   OH236422   5.038   6.128   3.271
12160TIP3    H136423   5.054   6.034   3.285
12160TIP3    H236424   5.023   6.163   3.358
12161TIP3   OH236425   7.606   0.455   5.016
12161TIP3    H136426   7.627   0.520   4.948
12161TIP3    H236427   7.621   0.370   4.974
12162TIP3   OH236428   0.357   1.348   3.095
12162TIP3    H136429   0.320   1.378   3.011
12162TIP3    H236430   0.407   1.423   3.127
12163TIP3   OH236431   0.166   2.436   1.949
12163TIP3    H136432   0.074   2.413   1.939
12163TIP3    H236433   0.185   2.490   1.872
12164TIP3   OH236434   0.084   7.114   1.566
12164TIP3    H136435   0.130   7.174   1.507
12164TIP3    H236436   0.010   7.164   1.598
12165TIP3   OH236437   3.471   4.312   2.287
12165TIP3    H136438   3.472   4.326   2.382
12165TIP3    H236439   3.379   4.294   2.267
12166TIP3   OH236440   7.514   2.159   2.374
12166TIP3    H136441   7.512   2.071   2.412
12166TIP3    H236442   7.503   2.217   2.449
12167TIP3   OH236443   0.270   7.518   2.649
12167TIP3    H136444   0.287   7.523   2.555
12167TIP3    H236445   0.329   7.582   2.687
12168TIP3   OH236446   4.713   7.578   0.604
12168TIP3    H136447   4.715   7.532   0.520
12168TIP3    H236448   4.772   7.528   0.660
12169TIP3   OH236449   1.818   7.188   1.838
12169TIP3    H136450   1.893   7.214   1.784
12169TIP3    H236451   1.840   7.219   1.926
12170TIP3   OH236452   1.576   2.742   4.975
12170TIP3    H136453   1.612   2.724   4.888
12170TIP3    H236454   1.651   2.744   5.033
12171TIP3   OH236455   0.138   2.807   5.929
12171TIP3    H136456   0.180   2.886   5.963
12171TIP3    H236457   0.135   2.821   5.834
12172TIP3   OH236458   3.100   7.668   6.017
12172TIP3    H136459   3.011   7.633   6.011
12172TIP3    H236460   3.111   7.689   6.110
12173TIP3   OH236461   0.105   3.025   3.490
12173TIP3    H136462   0.151   2.974   3.557
12173TIP3    H236463   0.169   3.088   3.458
12174TIP3   OH236464   1.324   3.861   4.892
12174TIP3    H136465   1.325   3.776   4.848
12174TIP3    H236466   1.271   3.917   4.836
12175TIP3   OH236467   3.670   7.030   5.553
12175TIP3    H136468   3.601   7.092   5.577
12175TIP3    H236469   3.635   6.944   5.575
12176TIP3   OH236470   2.144   5.692   6.239
12176TIP3    H136471   2.181   5.616   6.284
12176TIP3    H236472   2.084   5.654   6.174
12177TIP3   OH236473   5.850   7.766   1.325
12177TIP3    H136474   5.891   7.747   1.241
12177TIP3    H236475   5.785   7.833   1.306
12178TIP3   OH236476   4.884   3.715   2.215
12178TIP3    H136477   4.924   3.753   2.137
12178TIP3    H236478   4.796   3.751   2.218
12179TIP3   OH236479   6.083   0.283   1.719
12179TIP3    H136480   6.160   0.334   1.692
12179TIP3    H236481   6.010   0.328   1.677
12180TIP3   OH236482   4.021   4.905   0.283
12180TIP3    H136483   3.982   4.972   0.339
12180TIP3    H236484   4.105   4.944   0.256
12181TIP3   OH236485   7.921   6.385   1.993
12181TIP3    H136486   7.874   6.450   1.940
12181TIP3    H236487   7.915   6.304   1.943
12182TIP3   OH236488   2.720   0.684   6.248
12182TIP3    H136489   2.727   0.604   6.300
12182TIP3    H236490   2.710   0.754   6.312
12183TIP3   OH236491   6.699   2.518   5.825
12183TIP3    H136492   6.792   2.504   5.842
12183TIP3    H236493   6.666   2.563   5.903
12184TIP3   OH236494   1.353   0.023   3.760
12184TIP3    H136495   1.378   0.115   3.752
12184TIP3    H236496   1.274   0.024   3.814
12185TIP3   OH236497   4.630   2.327   6.071
12185TIP3    H136498   4.637   2.367   6.158
12185TIP3    H236499   4.551   2.273   6.076
12186TIP3   OH236500   3.013   1.302   1.271
12186TIP3    H136501   2.949   1.246   1.315
12186TIP3    H236502   2.990   1.296   1.178
12187TIP3   OH236503   2.867   3.696   2.193
12187TIP3    H136504   2.945   3.751   2.189
12187TIP3    H236505   2.887   3.630   2.258
12188TIP3   OH236506   0.456   7.007   4.575
12188TIP3    H136507   0.520   6.942   4.547
12188TIP3    H236508   0.451   7.069   4.502
12189TIP3   OH236509   7.554   1.716   3.554
12189TIP3    H136510   7.594   1.630   3.565
12189TIP3    H236511   7.478   1.701   3.498
12190TIP3   OH236512   1.404   7.133   1.650
12190TIP3    H136513   1.415   7.220   1.688
12190TIP3    H236514   1.331   7.095   1.699
12191TIP3   OH236515   2.941   4.177   5.260
12191TIP3    H136516   2.894   4.260   5.260
12191TIP3    H236517   2.946   4.153   5.167
12192TIP3   OH236518   7.991   5.664   5.720
12192TIP3    H136519   8.026   5.622   5.641
12192TIP3    H236520   7.999   5.597   5.788
12193TIP3   OH236521   2.899   5.704   6.292
12193TIP3    H136522   2.826   5.694   6.231
12193TIP3    H236523   2.970   5.741   6.240
12194TIP3   OH236524   0.266   5.256   1.794
12194TIP3    H136525   0.340   5.258   1.854
12194TIP3    H236526   0.280   5.331   1.736
12195TIP3   OH236527   6.300   0.541   3.962
12195TIP3    H136528   6.278   0.512   3.874
12195TIP3    H236529   6.221   0.586   3.993
12196TIP3   OH236530   3.011   5.586   6.727
12196TIP3    H136531   2.942   5.651   6.714
12196TIP3    H236532   2.998   5.555   6.817
12197TIP3   OH236533   4.156   4.356   0.617
12197TIP3    H136534   4.201   4.368   0.700
12197TIP3    H236535   4.162   4.441   0.574
12198TIP3   OH236536   5.591   0.343   0.833
12198TIP3    H136537   5.614   0.431   0.803
12198TIP3    H236538   5.649   0.285   0.784
12199TIP3   OH236539   5.324   2.107   4.528
12199TIP3    H136540   5.355   2.196   4.543
12199TIP3    H236541   5.398   2.062   4.486
12200TIP3   OH236542   4.611   7.301   1.380
12200TIP3    H136543   4.642   7.323   1.292
12200TIP3    H236544   4.649   7.369   1.436
12201TIP3   OH236545   8.028   5.937   5.090
12201TIP3    H136546   8.085   5.960   5.164
12201TIP3    H236547   8.087   5.896   5.026
12202TIP3   OH236548   5.840   1.992   1.742
12202TIP3    H136549   5.903   1.995   1.670
12202TIP3    H236550   5.777   2.062   1.722
12203TIP3   OH236551   7.852   3.290   3.263
12203TIP3    H136552   7.758   3.299   3.252
12203TIP3    H236553   7.865   3.201   3.297
12204TIP3   OH236554   6.236   1.276   2.151
12204TIP3    H136555   6.140   1.279   2.152
12204TIP3    H236556   6.257   1.217   2.079
12205TIP3   OH236557   1.186   7.368   3.057
12205TIP3    H136558   1.111   7.315   3.031
12205TIP3    H236559   1.194   7.435   2.989
12206TIP3   OH236560   8.112   1.721   5.265
12206TIP3    H136561   8.027   1.748   5.298
12206TIP3    H236562   8.094   1.643   5.213
12207TIP3   OH236563   3.171   3.803   6.053
12207TIP3    H136564   3.150   3.895   6.070
12207TIP3    H236565   3.200   3.769   6.138
12208TIP3   OH236566   5.302   6.042   3.003
12208TIP3    H136567   5.380   6.091   3.030
12208TIP3    H236568   5.260   6.019   3.086
12209TIP3   OH236569   2.784   5.326   4.630
12209TIP3    H136570   2.756   5.406   4.674
12209TIP3    H236571   2.845   5.356   4.562
12210TIP3   OH236572   1.659   2.541   0.369
12210TIP3    H136573   1.661   2.551   0.274
12210TIP3    H236574   1.569   2.560   0.393
12211TIP3   OH236575   3.096   4.885   4.758
12211TIP3    H136576   3.056   4.895   4.672
12211TIP3    H236577   3.182   4.926   4.749
12212TIP3   OH236578   2.829   2.023   3.268
12212TIP3    H136579   2.802   2.104   3.312
12212TIP3    H236580   2.880   2.052   3.193
12213TIP3   OH236581   2.586   1.997   1.996
12213TIP3    H136582   2.509   1.996   1.939
12213TIP3    H236583   2.618   2.087   1.992
12214TIP3   OH236584   7.380   0.079   3.769
12214TIP3    H136585   7.423   0.163   3.750
12214TIP3    H236586   7.340   0.092   3.855
12215TIP3   OH236587   5.371   0.834   5.380
12215TIP3    H136588   5.418   0.780   5.317
12215TIP3    H236589   5.279   0.823   5.358
12216TIP3   OH236590   0.655   6.234   1.483
12216TIP3    H136591   0.569   6.257   1.519
12216TIP3    H236592   0.641   6.228   1.389
12217TIP3   OH236593   2.193   6.958   2.561
12217TIP3    H136594   2.282   6.945   2.592
12217TIP3    H236595   2.163   7.037   2.607
12218TIP3   OH236596   3.469   7.811   4.973
12218TIP3    H136597   3.452   7.843   5.061
12218TIP3    H236598   3.383   7.808   4.931
12219TIP3   OH236599   0.955   4.297   4.948
12219TIP3    H136600   0.881   4.357   4.940
12219TIP3    H236601   0.953   4.245   4.868
12220TIP3   OH236602   0.504   0.865   0.474
12220TIP3    H136603   0.471   0.792   0.421
12220TIP3    H236604   0.504   0.939   0.414
12221TIP3   OH236605   0.009   2.546   0.744
12221TIP3    H136606  -0.079   2.553   0.706
12221TIP3    H236607   0.066   2.582   0.677
12222TIP3   OH236608   6.478   5.817   5.568
12222TIP3    H136609   6.481   5.898   5.619
12222TIP3    H236610   6.531   5.755   5.618
12223TIP3   OH236611   1.739   4.128   6.011
12223TIP3    H136612   1.768   4.219   6.003
12223TIP3    H236613   1.652   4.134   6.049
12224TIP3   OH236614   1.999   2.949   4.924
12224TIP3    H136615   1.907   2.959   4.903
12224TIP3    H236616   2.040   3.030   4.893
12225TIP3   OH236617   2.254   5.353   5.154
12225TIP3    H136618   2.280   5.426   5.210
12225TIP3    H236619   2.225   5.395   5.073
12226TIP3   OH236620   1.391   7.658   0.205
12226TIP3    H136621   1.487   7.662   0.213
12226TIP3    H236622   1.361   7.631   0.292
12227TIP3   OH236623   0.168   3.717   6.461
12227TIP3    H136624   0.243   3.659   6.473
12227TIP3    H236625   0.158   3.763   6.544
12228TIP3   OH236626   7.391   0.911   1.516
12228TIP3    H136627   7.470   0.913   1.571
12228TIP3    H236628   7.348   0.995   1.531
12229TIP3   OH236629   6.360   4.877   4.210
12229TIP3    H136630   6.328   4.931   4.283
12229TIP3    H236631   6.323   4.790   4.227
12230TIP3   OH236632   3.921   0.192   3.205
12230TIP3    H136633   3.990   0.127   3.191
12230TIP3    H236634   3.942   0.262   3.143
12231TIP3   OH236635   0.227   0.224   5.363
12231TIP3    H136636   0.214   0.129   5.364
12231TIP3    H236637   0.215   0.248   5.271
12232TIP3   OH236638   4.005   6.772   3.386
12232TIP3    H136639   4.047   6.767   3.300
12232TIP3    H236640   4.053   6.710   3.440
12233TIP3   OH236641   1.053   2.110   2.835
12233TIP3    H136642   1.140   2.076   2.812
12233TIP3    H236643   0.992   2.042   2.806
12234TIP3   OH236644   1.793   5.285   4.590
12234TIP3    H136645   1.826   5.289   4.500
12234TIP3    H236646   1.699   5.299   4.581
12235TIP3   OH236647   8.127   2.973   5.235
12235TIP3    H136648   8.071   2.928   5.173
12235TIP3    H236649   8.208   2.990   5.187
12236TIP3   OH236650   6.509   4.614   3.292
12236TIP3    H136651   6.486   4.697   3.334
12236TIP3    H236652   6.435   4.596   3.233
12237TIP3   OH236653   1.226   1.767   2.946
12237TIP3    H136654   1.182   1.786   3.029
12237TIP3    H236655   1.207   1.843   2.891
12238TIP3   OH236656   6.508   1.339   5.634
12238TIP3    H136657   6.480   1.370   5.548
12238TIP3    H236658   6.458   1.259   5.648
12239TIP3   OH236659   1.064   6.780   1.654
12239TIP3    H136660   1.053   6.805   1.562
12239TIP3    H236661   1.043   6.860   1.703
12240TIP3   OH236662   3.745   3.917   6.070
12240TIP3    H136663   3.680   3.952   6.132
12240TIP3    H236664   3.823   3.903   6.123
12241TIP3   OH236665   7.228   2.895   6.167
12241TIP3    H136666   7.303   2.917   6.112
12241TIP3    H236667   7.217   2.971   6.225
12242TIP3   OH236668   6.884   0.015   5.808
12242TIP3    H136669   6.865   0.047   5.896
12242TIP3    H236670   6.963  -0.038   5.819
12243TIP3   OH236671   4.370   7.302   5.732
12243TIP3    H136672   4.360   7.392   5.702
12243TIP3    H236673   4.284   7.279   5.768
12244TIP3   OH236674   7.669   4.108   3.310
12244TIP3    H136675   7.681   4.151   3.225
12244TIP3    H236676   7.656   4.016   3.289
12245TIP3   OH236677   1.792   3.115   5.847
12245TIP3    H136678   1.810   3.147   5.758
12245TIP3    H236679   1.704   3.146   5.867
12246TIP3   OH236680   3.525   2.418   4.147
12246TIP3    H136681   3.430   2.422   4.138
12246TIP3    H236682   3.543   2.466   4.228
12247TIP3   OH236683   3.786   5.558   3.704
12247TIP3    H136684   3.788   5.653   3.705
12247TIP3    H236685   3.710   5.536   3.650
12248TIP3   OH236686   2.353   0.774   6.343
12248TIP3    H136687   2.413   0.743   6.410
12248TIP3    H236688   2.334   0.865   6.368
12249TIP3   OH236689   7.001   3.277   5.095
12249TIP3    H136690   6.935   3.287   5.163
12249TIP3    H236691   7.012   3.183   5.085
12250TIP3   OH236692   6.195   3.067   3.885
12250TIP3    H136693   6.281   3.085   3.848
12250TIP3    H236694   6.159   2.998   3.829
12251TIP3   OH236695   2.881   2.384   3.680
12251TIP3    H136696   2.844   2.306   3.722
12251TIP3    H236697   2.959   2.404   3.731
12252TIP3   OH236698   1.487   3.352   1.060
12252TIP3    H136699   1.546   3.297   1.112
12252TIP3    H236700   1.526   3.354   0.973
12253TIP3   OH236701   8.128   3.001   3.165
12253TIP3    H136702   8.190   2.930   3.154
12253TIP3    H236703   8.140   3.055   3.088
12254TIP3   OH236704   1.206   2.187   0.117
12254TIP3    H136705   1.203   2.282   0.102
12254TIP3    H236706   1.124   2.155   0.080
12255TIP3   OH236707   3.147   3.163   5.269
12255TIP3    H136708   3.055   3.191   5.263
12255TIP3    H236709   3.142   3.071   5.296
12256TIP3   OH236710   5.496   3.450   0.216
12256TIP3    H136711   5.438   3.520   0.246
12256TIP3    H236712   5.563   3.443   0.284
12257TIP3   OH236713   5.423   5.298   5.544
12257TIP3    H136714   5.458   5.322   5.459
12257TIP3    H236715   5.410   5.204   5.540
12258TIP3   OH236716   5.956   4.643   3.113
12258TIP3    H136717   6.006   4.706   3.163
12258TIP3    H236718   6.021   4.586   3.073
12259TIP3   OH236719   1.930   7.406   3.024
12259TIP3    H136720   1.990   7.464   2.978
12259TIP3    H236721   1.972   7.391   3.109
12260TIP3   OH236722   2.779   6.178   6.640
12260TIP3    H136723   2.691   6.144   6.657
12260TIP3    H236724   2.827   6.103   6.606
12261TIP3   OH236725   4.788   2.361   4.817
12261TIP3    H136726   4.777   2.295   4.886
12261TIP3    H236727   4.746   2.323   4.740
12262TIP3   OH236728   4.144   2.903   2.395
12262TIP3    H136729   4.075   2.838   2.383
12262TIP3    H236730   4.147   2.950   2.312
12263TIP3   OH236731   7.301   0.589   2.963
12263TIP3    H136732   7.245   0.563   2.890
12263TIP3    H236733   7.247   0.572   3.041
12264TIP3   OH236734   0.230   1.193   0.715
12264TIP3    H136735   0.323   1.170   0.709
12264TIP3    H236736   0.228   1.288   0.718
12265TIP3   OH236737   0.285   0.423   1.099
12265TIP3    H136738   0.323   0.429   1.187
12265TIP3    H236739   0.285   0.512   1.066
12266TIP3   OH236740   6.237   6.153   0.722
12266TIP3    H136741   6.250   6.060   0.701
12266TIP3    H236742   6.313   6.177   0.774
12267TIP3   OH236743   0.644   1.030   4.558
12267TIP3    H136744   0.657   1.109   4.610
12267TIP3    H236745   0.613   1.061   4.473
12268TIP3   OH236746   0.581   3.773   2.159
12268TIP3    H136747   0.646   3.793   2.092
12268TIP3    H236748   0.552   3.858   2.191
12269TIP3   OH236749   6.007   1.793   0.618
12269TIP3    H136750   6.082   1.850   0.598
12269TIP3    H236751   6.042   1.704   0.609
12270TIP3   OH236752   3.356   3.605   0.869
12270TIP3    H136753   3.435   3.626   0.818
12270TIP3    H236754   3.306   3.686   0.870
12271TIP3   OH236755   2.756   7.076   0.660
12271TIP3    H136756   2.696   7.023   0.712
12271TIP3    H236757   2.843   7.047   0.686
12272TIP3   OH236758   5.939   6.736   5.941
12272TIP3    H136759   5.884   6.664   5.908
12272TIP3    H236760   5.886   6.815   5.926
12273TIP3   OH236761   1.307   5.463   6.549
12273TIP3    H136762   1.383   5.454   6.493
12273TIP3    H236763   1.258   5.382   6.537
12274TIP3   OH236764   2.610   5.289   1.598
12274TIP3    H136765   2.587   5.223   1.533
12274TIP3    H236766   2.668   5.244   1.659
12275TIP3   OH236767   2.052   5.893   0.685
12275TIP3    H136768   1.962   5.917   0.663
12275TIP3    H236769   2.043   5.828   0.755
12276TIP3   OH236770   2.742   4.589   0.418
12276TIP3    H136771   2.671   4.539   0.376
12276TIP3    H236772   2.817   4.531   0.415
12277TIP3   OH236773   3.675   7.425   6.037
12277TIP3    H136774   3.731   7.475   6.097
12277TIP3    H236775   3.586   7.456   6.055
12278TIP3   OH236776   7.749   2.516   0.017
12278TIP3    H136777   7.762   2.602   0.056
12278TIP3    H236778   7.835   2.474   0.021
12279TIP3   OH236779   2.245   1.811   0.040
12279TIP3    H136780   2.315   1.852  -0.011
12279TIP3    H236781   2.173   1.875   0.038
12280TIP3   OH236782   1.557   5.600   2.081
12280TIP3    H136783   1.592   5.512   2.072
12280TIP3    H236784   1.476   5.600   2.029
12281TIP3   OH236785   4.842   4.104   6.046
12281TIP3    H136786   4.803   4.018   6.032
12281TIP3    H236787   4.788   4.163   5.993
12282TIP3   OH236788   6.425   6.415   3.596
12282TIP3    H136789   6.485   6.489   3.585
12282TIP3    H236790   6.372   6.415   3.516
12283TIP3   OH236791   5.783   4.401   0.286
12283TIP3    H136792   5.690   4.422   0.278
12283TIP3    H236793   5.818   4.411   0.198
12284TIP3   OH236794   3.509   0.146   6.210
12284TIP3    H136795   3.437   0.210   6.210
12284TIP3    H236796   3.481   0.079   6.272
12285TIP3   OH236797   3.734   7.415   0.703
12285TIP3    H136798   3.691   7.379   0.625
12285TIP3    H236799   3.779   7.340   0.741
12286TIP3   OH236800   3.949   4.596   1.271
12286TIP3    H136801   3.869   4.617   1.223
12286TIP3    H236802   4.003   4.675   1.263
12287TIP3   OH236803   1.892   5.074   3.085
12287TIP3    H136804   1.813   5.068   3.033
12287TIP3    H236805   1.862   5.108   3.170
12288TIP3   OH236806   1.502   6.651   1.820
12288TIP3    H136807   1.460   6.569   1.794
12288TIP3    H236808   1.447   6.719   1.780
12289TIP3   OH236809   3.345   2.380   1.444
12289TIP3    H136810   3.388   2.333   1.515
12289TIP3    H236811   3.282   2.318   1.408
12290TIP3   OH236812   2.209   0.716   2.996
12290TIP3    H136813   2.124   0.758   2.985
12290TIP3    H236814   2.255   0.770   3.060
12291TIP3   OH236815   3.919   3.794   2.106
12291TIP3    H136816   3.964   3.873   2.134
12291TIP3    H236817   3.967   3.723   2.149
12292TIP3   OH236818   7.125   6.791   4.964
12292TIP3    H136819   7.214   6.755   4.961
12292TIP3    H236820   7.082   6.744   5.035
12293TIP3   OH236821   3.476   7.129   0.647
12293TIP3    H136822   3.525   7.097   0.571
12293TIP3    H236823   3.459   7.221   0.628
12294TIP3   OH236824   4.557   7.549   3.554
12294TIP3    H136825   4.479   7.591   3.515
12294TIP3    H236826   4.522   7.495   3.624
12295TIP3   OH236827   4.641   5.966   4.655
12295TIP3    H136828   4.703   6.040   4.654
12295TIP3    H236829   4.580   5.987   4.726
12296TIP3   OH236830   1.427   2.803   2.013
12296TIP3    H136831   1.471   2.850   2.084
12296TIP3    H236832   1.375   2.736   2.058
12297TIP3   OH236833   6.191   0.941   0.768
12297TIP3    H136834   6.226   0.987   0.844
12297TIP3    H236835   6.097   0.963   0.768
12298TIP3   OH236836   4.219   0.178   5.170
12298TIP3    H136837   4.238   0.084   5.178
12298TIP3    H236838   4.181   0.187   5.083
12299TIP3   OH236839   0.185   1.999   1.615
12299TIP3    H136840   0.228   2.084   1.610
12299TIP3    H236841   0.175   1.973   1.523
12300TIP3   OH236842   7.149   0.871   2.401
12300TIP3    H136843   7.194   0.928   2.464
12300TIP3    H236844   7.216   0.852   2.335
12301TIP3   OH236845   0.174   3.535   4.415
12301TIP3    H136846   0.087   3.526   4.376
12301TIP3    H236847   0.206   3.445   4.424
12302TIP3   OH236848   8.161   2.899   3.508
12302TIP3    H136849   8.158   2.833   3.438
12302TIP3    H236850   8.250   2.934   3.504
12303TIP3   OH236851   6.958   2.484   1.138
12303TIP3    H136852   7.015   2.545   1.091
12303TIP3    H236853   6.928   2.534   1.214
12304TIP3   OH236854   2.195   0.241   2.124
12304TIP3    H136855   2.274   0.226   2.177
12304TIP3    H236856   2.199   0.334   2.103
12305TIP3   OH236857   7.957   0.175   4.707
12305TIP3    H136858   8.027   0.162   4.643
12305TIP3    H236859   7.906   0.094   4.704
12306TIP3   OH236860   2.682   2.604   0.397
12306TIP3    H136861   2.731   2.534   0.353
12306TIP3    H236862   2.591   2.578   0.390
12307TIP3   OH236863   3.332   0.183   5.019
12307TIP3    H136864   3.305   0.172   5.110
12307TIP3    H236865   3.251   0.205   4.972
12308TIP3   OH236866   0.443   1.710   4.182
12308TIP3    H136867   0.537   1.723   4.197
12308TIP3    H236868   0.419   1.777   4.118
12309TIP3   OH236869   7.225   6.688   2.363
12309TIP3    H136870   7.256   6.603   2.393
12309TIP3    H236871   7.131   6.688   2.383
12310TIP3   OH236872   6.536   3.491   3.212
12310TIP3    H136873   6.495   3.505   3.298
12310TIP3    H236874   6.492   3.553   3.154
12311TIP3   OH236875   5.403   3.046   5.222
12311TIP3    H136876   5.390   3.011   5.134
12311TIP3    H236877   5.323   3.096   5.240
12312TIP3   OH236878   5.643   2.304   6.593
12312TIP3    H136879   5.679   2.263   6.672
12312TIP3    H236880   5.719   2.319   6.538
12313TIP3   OH236881   2.486   4.435   2.977
12313TIP3    H136882   2.419   4.456   2.912
12313TIP3    H236883   2.555   4.499   2.961
12314TIP3   OH236884   2.271   3.477   5.967
12314TIP3    H136885   2.287   3.388   5.998
12314TIP3    H236886   2.301   3.533   6.039
12315TIP3   OH236887   1.396   1.826   6.598
12315TIP3    H136888   1.478   1.817   6.549
12315TIP3    H236889   1.358   1.908   6.567
12316TIP3   OH236890   0.869   0.854   2.238
12316TIP3    H136891   0.820   0.861   2.320
12316TIP3    H236892   0.838   0.771   2.199
12317TIP3   OH236893   2.942   5.934   3.690
12317TIP3    H136894   2.981   5.971   3.769
12317TIP3    H236895   3.013   5.884   3.649
12318TIP3   OH236896   0.716   4.296   1.452
12318TIP3    H136897   0.697   4.291   1.358
12318TIP3    H236898   0.653   4.359   1.486
12319TIP3   OH236899   0.231   3.262   4.934
12319TIP3    H136900   0.211   3.172   4.908
12319TIP3    H236901   0.252   3.307   4.852
12320TIP3   OH236902   4.250   0.609   6.092
12320TIP3    H136903   4.325   0.669   6.091
12320TIP3    H236904   4.266   0.551   6.166
12321TIP3   OH236905   1.306   6.448   1.794
12321TIP3    H136906   1.293   6.449   1.888
12321TIP3    H236907   1.223   6.477   1.757
12322TIP3   OH236908   4.881   4.988   6.296
12322TIP3    H136909   4.902   4.899   6.268
12322TIP3    H236910   4.911   5.044   6.224
12323TIP3   OH236911   4.370   0.932   1.471
12323TIP3    H136912   4.438   0.998   1.454
12323TIP3    H236913   4.288   0.981   1.466
12324TIP3   OH236914   5.608   5.400   5.789
12324TIP3    H136915   5.583   5.355   5.869
12324TIP3    H236916   5.545   5.370   5.723
12325TIP3   OH236917   2.378   2.343   6.704
12325TIP3    H136918   2.357   2.255   6.738
12325TIP3    H236919   2.455   2.330   6.648
12326TIP3   OH236920   5.536   6.456   4.919
12326TIP3    H136921   5.510   6.364   4.914
12326TIP3    H236922   5.514   6.482   5.009
12327TIP3   OH236923   1.908   2.517   0.785
12327TIP3    H136924   1.994   2.525   0.744
12327TIP3    H236925   1.921   2.549   0.874
12328TIP3   OH236926   3.979   1.524   6.116
12328TIP3    H136927   3.896   1.481   6.134
12328TIP3    H236928   4.031   1.510   6.195
12329TIP3   OH236929   6.966   1.544   1.750
12329TIP3    H136930   6.898   1.478   1.744
12329TIP3    H236931   6.979   1.573   1.659
12330TIP3   OH236932   3.532   7.090   4.337
12330TIP3    H136933   3.487   7.172   4.321
12330TIP3    H236934   3.621   7.104   4.306
12331TIP3   OH236935   6.188   0.318   2.483
12331TIP3    H136936   6.141   0.260   2.543
12331TIP3    H236937   6.232   0.381   2.541
12332TIP3   OH236938   3.582   1.302   4.957
12332TIP3    H136939   3.527   1.232   4.994
12332TIP3    H236940   3.667   1.260   4.944
12333TIP3   OH236941   7.238   6.635   1.473
12333TIP3    H136942   7.221   6.545   1.497
12333TIP3    H236943   7.334   6.640   1.465
12334TIP3   OH236944   2.172   3.739   4.075
12334TIP3    H136945   2.254   3.701   4.103
12334TIP3    H236946   2.174   3.828   4.109
12335TIP3   OH236947   6.127   0.037   2.148
12335TIP3    H136948   6.136  -0.054   2.176
12335TIP3    H236949   6.194   0.049   2.081
12336TIP3   OH236950   2.304   7.314   0.120
12336TIP3    H136951   2.390   7.334   0.156
12336TIP3    H236952   2.320   7.242   0.058
12337TIP3   OH236953   8.154   6.709   0.146
12337TIP3    H136954   8.106   6.634   0.180
12337TIP3    H236955   8.102   6.740   0.072
12338TIP3   OH236956   0.314   1.418   5.860
12338TIP3    H136957   0.381   1.467   5.908
12338TIP3    H236958   0.236   1.423   5.915
12339TIP3   OH236959   2.157   4.046   4.768
12339TIP3    H136960   2.195   4.081   4.688
12339TIP3    H236961   2.170   3.951   4.761
12340TIP3   OH236962   7.462   0.319   6.480
12340TIP3    H136963   7.369   0.327   6.500
12340TIP3    H236964   7.505   0.319   6.565
12341TIP3   OH236965   5.392   1.327   4.223
12341TIP3    H136966   5.443   1.246   4.222
12341TIP3    H236967   5.433   1.382   4.156
12342TIP3   OH236968   4.339   3.544   4.878
12342TIP3    H136969   4.256   3.572   4.917
12342TIP3    H236970   4.371   3.621   4.831
12343TIP3   OH236971   1.432   4.258   0.672
12343TIP3    H136972   1.488   4.196   0.720
12343TIP3    H236973   1.443   4.234   0.580
12344TIP3   OH236974   2.624   1.066   6.351
12344TIP3    H136975   2.552   1.089   6.293
12344TIP3    H236976   2.680   1.144   6.351
12345TIP3   OH236977   2.092   1.679   1.968
12345TIP3    H136978   2.020   1.741   1.966
12345TIP3    H236979   2.109   1.666   2.062
12346TIP3   OH236980   6.912   2.352   2.640
12346TIP3    H136981   6.921   2.395   2.725
12346TIP3    H236982   6.964   2.406   2.580
12347TIP3   OH236983   0.300   6.345   4.997
12347TIP3    H136984   0.382   6.381   4.962
12347TIP3    H236985   0.326   6.261   5.035
12348TIP3   OH236986   6.392   3.968   0.263
12348TIP3    H136987   6.301   3.956   0.289
12348TIP3    H236988   6.396   3.940   0.171
12349TIP3   OH236989   5.018   0.598   2.069
12349TIP3    H136990   5.111   0.621   2.068
12349TIP3    H236991   5.002   0.556   1.985
12350TIP3   OH236992   0.445   7.012   1.140
12350TIP3    H136993   0.485   6.974   1.062
12350TIP3    H236994   0.517   7.021   1.202
12351TIP3   OH236995   4.346   1.773   3.061
12351TIP3    H136996   4.407   1.847   3.066
12351TIP3    H236997   4.301   1.785   2.978
12352TIP3   OH236998   5.534   2.996   2.731
12352TIP3    H136999   5.565   2.957   2.649
12352TIP3    H237000   5.522   2.922   2.790
12353TIP3   OH237001   0.959   0.578   6.539
12353TIP3    H137002   0.968   0.641   6.611
12353TIP3    H237003   1.013   0.504   6.566
12354TIP3   OH237004   7.053   0.841   3.982
12354TIP3    H137005   7.094   0.919   4.019
12354TIP3    H237006   7.125   0.778   3.973
12355TIP3   OH237007   4.382   7.522   5.492
12355TIP3    H137008   4.355   7.612   5.473
12355TIP3    H237009   4.470   7.516   5.456
12356TIP3   OH237010   0.322   3.821   2.485
12356TIP3    H137011   0.335   3.872   2.565
12356TIP3    H237012   0.375   3.742   2.498
12357TIP3   OH237013   7.655   0.874   6.618
12357TIP3    H137014   7.600   0.814   6.668
12357TIP3    H237015   7.640   0.960   6.658
12358TIP3   OH237016   3.909   5.289   5.910
12358TIP3    H137017   3.816   5.309   5.922
12358TIP3    H237018   3.940   5.357   5.850
12359TIP3   OH237019   1.883   0.821   3.433
12359TIP3    H137020   1.967   0.804   3.389
12359TIP3    H237021   1.899   0.900   3.485
12360TIP3   OH237022   7.959   0.313   5.635
12360TIP3    H137023   7.981   0.220   5.632
12360TIP3    H237024   8.035   0.357   5.598
12361TIP3   OH237025   1.584   0.314   1.712
12361TIP3    H137026   1.628   0.391   1.749
12361TIP3    H237027   1.521   0.350   1.650
12362TIP3   OH237028   6.219   3.744   3.311
12362TIP3    H137029   6.198   3.650   3.316
12362TIP3    H237030   6.314   3.747   3.314
12363TIP3   OH237031   4.096   7.410   6.306
12363TIP3    H137032   4.058   7.435   6.222
12363TIP3    H237033   4.186   7.386   6.285
12364TIP3   OH237034   2.449   5.029   1.726
12364TIP3    H137035   2.361   5.003   1.699
12364TIP3    H237036   2.506   4.959   1.695
12365TIP3   OH237037   1.320   0.303   0.747
12365TIP3    H137038   1.288   0.240   0.683
12365TIP3    H237039   1.268   0.382   0.731
12366TIP3   OH237040   3.102   7.483   1.684
12366TIP3    H137041   3.173   7.494   1.746
12366TIP3    H237042   3.130   7.530   1.606
12367TIP3   OH237043   7.485   5.510   3.747
12367TIP3    H137044   7.450   5.482   3.831
12367TIP3    H237045   7.408   5.529   3.693
12368TIP3   OH237046   3.686   5.129   3.869
12368TIP3    H137047   3.757   5.138   3.932
12368TIP3    H237048   3.689   5.211   3.818
12369TIP3   OH237049   8.255   4.357   4.673
12369TIP3    H137050   8.299   4.323   4.750
12369TIP3    H237051   8.288   4.304   4.600
12370TIP3   OH237052   6.619   6.756   6.440
12370TIP3    H137053   6.599   6.701   6.516
12370TIP3    H237054   6.539   6.751   6.387
12371TIP3   OH237055   1.996   3.046   4.040
12371TIP3    H137056   1.969   3.111   4.105
12371TIP3    H237057   1.936   2.972   4.053
12372TIP3   OH237058   4.299   1.465   1.577
12372TIP3    H137059   4.225   1.503   1.530
12372TIP3    H237060   4.275   1.472   1.669
12373TIP3   OH237061   3.217   1.458   1.494
12373TIP3    H137062   3.309   1.485   1.492
12373TIP3    H237063   3.177   1.505   1.420
12374TIP3   OH237064   5.840   5.462   1.579
12374TIP3    H137065   5.840   5.533   1.644
12374TIP3    H237066   5.924   5.418   1.594
12375TIP3   OH237067   5.936   2.952   2.849
12375TIP3    H137068   5.988   2.875   2.873
12375TIP3    H237069   5.978   3.024   2.896
12376TIP3   OH237070   4.311   6.500   6.650
12376TIP3    H137071   4.220   6.483   6.677
12376TIP3    H237072   4.306   6.511   6.555
12377TIP3   OH237073   4.330   2.796   2.044
12377TIP3    H137074   4.343   2.737   2.118
12377TIP3    H237075   4.237   2.819   2.047
12378TIP3   OH237076   1.946   5.610   6.100
12378TIP3    H137077   1.868   5.664   6.103
12378TIP3    H237078   1.954   5.583   6.009
12379TIP3   OH237079   2.042   2.460   2.602
12379TIP3    H137080   2.120   2.506   2.635
12379TIP3    H237081   1.995   2.434   2.681
12380TIP3   OH237082   2.001   2.054   2.599
12380TIP3    H137083   2.069   2.118   2.620
12380TIP3    H237084   1.968   2.025   2.684
12381TIP3   OH237085   7.227   5.896   3.482
12381TIP3    H137086   7.263   5.956   3.547
12381TIP3    H237087   7.218   5.949   3.403
12382TIP3   OH237088   6.969   4.610   3.976
12382TIP3    H137089   6.882   4.582   3.949
12382TIP3    H237090   6.966   4.706   3.973
12383TIP3   OH237091   3.405   6.689   4.214
12383TIP3    H137092   3.498   6.694   4.190
12383TIP3    H237093   3.404   6.715   4.307
12384TIP3   OH237094   0.316   0.299   0.842
12384TIP3    H137095   0.373   0.364   0.801
12384TIP3    H237096   0.306   0.329   0.932
12385TIP3   OH237097   1.748   3.835   6.030
12385TIP3    H137098   1.772   3.927   6.033
12385TIP3    H237099   1.669   3.832   5.977
12386TIP3   OH237100   4.454   3.437   3.534
12386TIP3    H137101   4.490   3.489   3.463
12386TIP3    H237102   4.521   3.371   3.553
12387TIP3   OH237103   7.301   1.127   6.078
12387TIP3    H137104   7.250   1.157   6.003
12387TIP3    H237105   7.372   1.190   6.085
12388TIP3   OH237106   5.668   5.894   2.804
12388TIP3    H137107   5.615   5.822   2.836
12388TIP3    H237108   5.739   5.851   2.755
12389TIP3   OH237109   1.126   6.349   6.715
12389TIP3    H137110   1.079   6.321   6.793
12389TIP3    H237111   1.107   6.282   6.650
12390TIP3   OH237112   0.144   5.744   2.993
12390TIP3    H137113   0.105   5.671   2.945
12390TIP3    H237114   0.125   5.726   3.085
12391TIP3   OH237115   3.953   6.637   6.112
12391TIP3    H137116   3.886   6.579   6.147
12391TIP3    H237117   4.036   6.597   6.139
12392TIP3   OH237118   5.080   2.486   3.608
12392TIP3    H137119   5.096   2.404   3.654
12392TIP3    H237120   4.988   2.480   3.581
12393TIP3   OH237121   2.648   7.045   0.939
12393TIP3    H137122   2.740   7.072   0.943
12393TIP3    H237123   2.600   7.122   0.968
12394TIP3   OH237124   8.110   6.390   5.280
12394TIP3    H137125   8.096   6.411   5.188
12394TIP3    H237126   8.201   6.413   5.298
12395TIP3   OH237127   6.479   0.079   5.673
12395TIP3    H137128   6.507   0.157   5.625
12395TIP3    H237129   6.477   0.009   5.608
12396TIP3   OH237130   6.833   2.370   6.446
12396TIP3    H137131   6.813   2.336   6.359
12396TIP3    H237132   6.751   2.407   6.477
12397TIP3   OH237133   0.195   0.820   2.891
12397TIP3    H137134   0.188   0.915   2.901
12397TIP3    H237135   0.285   0.805   2.863
12398TIP3   OH237136   1.016   2.116   6.165
12398TIP3    H137137   0.926   2.100   6.136
12398TIP3    H237138   1.055   2.029   6.171
12399TIP3   OH237139   0.178   5.642   2.533
12399TIP3    H137140   0.089   5.677   2.526
12399TIP3    H237141   0.232   5.704   2.484
12400TIP3   OH237142   2.477   2.985   5.525
12400TIP3    H137143   2.571   3.002   5.535
12400TIP3    H237144   2.441   3.066   5.491
12401TIP3   OH237145   2.993   7.669   1.242
12401TIP3    H137146   2.952   7.583   1.237
12401TIP3    H237147   3.048   7.664   1.320
12402TIP3   OH237148   7.548   1.819   1.496
12402TIP3    H137149   7.470   1.806   1.441
12402TIP3    H237150   7.605   1.876   1.444
12403TIP3   OH237151   2.287   5.044   6.505
12403TIP3    H137152   2.305   4.984   6.432
12403TIP3    H237153   2.318   4.997   6.583
12404TIP3   OH237154   1.789   5.558   3.398
12404TIP3    H137155   1.825   5.642   3.371
12404TIP3    H237156   1.811   5.550   3.491
12405TIP3   OH237157   2.216   5.207   2.684
12405TIP3    H137158   2.292   5.240   2.732
12405TIP3    H237159   2.202   5.119   2.719
12406TIP3   OH237160   1.964   2.155   5.544
12406TIP3    H137161   1.893   2.173   5.606
12406TIP3    H237162   1.938   2.200   5.464
12407TIP3   OH237163   3.224   0.106   4.176
12407TIP3    H137164   3.252   0.145   4.258
12407TIP3    H237165   3.137   0.143   4.161
12408TIP3   OH237166   5.119   3.594   6.454
12408TIP3    H137167   5.112   3.673   6.400
12408TIP3    H237168   5.079   3.525   6.401
12409TIP3   OH237169   6.754   6.029   1.494
12409TIP3    H137170   6.787   6.080   1.420
12409TIP3    H237171   6.706   6.092   1.547
12410TIP3   OH237172   2.621   1.650   3.060
12410TIP3    H137173   2.595   1.576   3.005
12410TIP3    H237174   2.711   1.629   3.086
12411TIP3   OH237175   4.998   3.209   0.998
12411TIP3    H137176   5.005   3.116   0.978
12411TIP3    H237177   5.018   3.215   1.092
12412TIP3   OH237178   0.282   7.553   1.040
12412TIP3    H137179   0.255   7.644   1.033
12412TIP3    H237180   0.288   7.536   1.134
12413TIP3   OH237181   6.256   7.545   3.158
12413TIP3    H137182   6.198   7.489   3.108
12413TIP3    H237183   6.198   7.605   3.205
12414TIP3   OH237184   0.986   6.908   3.443
12414TIP3    H137185   0.988   6.994   3.485
12414TIP3    H237186   1.074   6.896   3.407
12415TIP3   OH237187   8.115   4.317   3.238
12415TIP3    H137188   8.138   4.225   3.228
12415TIP3    H237189   8.087   4.325   3.329
12416TIP3   OH237190   0.390   3.799   2.763
12416TIP3    H137191   0.365   3.707   2.764
12416TIP3    H237192   0.485   3.798   2.774
12417TIP3   OH237193   6.360   0.731   0.162
12417TIP3    H137194   6.316   0.670   0.102
12417TIP3    H237195   6.297   0.746   0.232
12418TIP3   OH237196   0.089   7.204   2.823
12418TIP3    H137197   0.043   7.124   2.798
12418TIP3    H237198   0.182   7.180   2.822
12419TIP3   OH237199   3.108   4.713   6.429
12419TIP3    H137200   3.071   4.800   6.446
12419TIP3    H237201   3.192   4.714   6.476
12420TIP3   OH237202   0.220   2.443   3.444
12420TIP3    H137203   0.219   2.348   3.430
12420TIP3    H237204   0.219   2.453   3.539
12421TIP3   OH237205   3.662   7.409   5.218
12421TIP3    H137206   3.615   7.419   5.135
12421TIP3    H237207   3.751   7.440   5.199
12422TIP3   OH237208   5.018   5.736   5.181
12422TIP3    H137209   4.952   5.756   5.114
12422TIP3    H237210   4.970   5.740   5.264
12423TIP3   OH237211   3.601   5.495   0.735
12423TIP3    H137212   3.639   5.444   0.663
12423TIP3    H237213   3.598   5.434   0.809
12424TIP3   OH237214   3.129   6.669   4.145
12424TIP3    H137215   3.137   6.726   4.068
12424TIP3    H237216   3.219   6.654   4.174
12425TIP3   OH237217   6.361   5.259   5.140
12425TIP3    H137218   6.321   5.300   5.217
12425TIP3    H237219   6.320   5.173   5.134
12426TIP3   OH237220   4.341   2.584   2.267
12426TIP3    H137221   4.279   2.554   2.334
12426TIP3    H237222   4.417   2.527   2.278
12427TIP3   OH237223   2.773   3.223   1.952
12427TIP3    H137224   2.726   3.295   1.992
12427TIP3    H237225   2.864   3.252   1.949
12428TIP3   OH237226   6.423   3.667   0.432
12428TIP3    H137227   6.500   3.619   0.400
12428TIP3    H237228   6.354   3.648   0.368
12429TIP3   OH237229   3.744   5.344   0.132
12429TIP3    H137230   3.688   5.341   0.209
12429TIP3    H237231   3.833   5.334   0.166
12430TIP3   OH237232   0.664   2.551   4.541
12430TIP3    H137233   0.647   2.641   4.568
12430TIP3    H237234   0.616   2.498   4.605
12431TIP3   OH237235   7.719   1.623   4.013
12431TIP3    H137236   7.686   1.701   4.059
12431TIP3    H237237   7.717   1.648   3.921
12432TIP3   OH237238   4.067   6.974   0.561
12432TIP3    H137239   4.138   6.952   0.501
12432TIP3    H237240   4.038   6.889   0.595
12433TIP3   OH237241   0.294   0.102   3.962
12433TIP3    H137242   0.301   0.193   3.992
12433TIP3    H237243   0.313   0.107   3.868
12434TIP3   OH237244   5.545   5.272   6.024
12434TIP3    H137245   5.495   5.193   6.002
12434TIP3    H237246   5.502   5.306   6.103
12435TIP3   OH237247   7.598   4.944   4.307
12435TIP3    H137248   7.628   4.952   4.397
12435TIP3    H237249   7.520   4.999   4.303
12436TIP3   OH237250   6.653   4.034   6.410
12436TIP3    H137251   6.622   3.994   6.492
12436TIP3    H237252   6.625   3.974   6.342
12437TIP3   OH237253   6.705   3.448   0.047
12437TIP3    H137254   6.771   3.399   0.096
12437TIP3    H237255   6.716   3.418  -0.044
12438TIP3   OH237256   3.665   2.917   5.138
12438TIP3    H137257   3.731   2.967   5.090
12438TIP3    H237258   3.711   2.886   5.217
12439TIP3   OH237259   7.770   5.966   3.914
12439TIP3    H137260   7.693   5.950   3.969
12439TIP3    H237261   7.844   5.962   3.975
12440TIP3   OH237262   4.889   1.295   5.803
12440TIP3    H137263   4.839   1.314   5.724
12440TIP3    H237264   4.959   1.236   5.773
12441TIP3   OH237265   1.103   0.578   4.001
12441TIP3    H137266   1.029   0.597   3.943
12441TIP3    H237267   1.105   0.483   4.008
12442TIP3   OH237268   1.412   0.575   0.467
12442TIP3    H137269   1.454   0.550   0.550
12442TIP3    H237270   1.318   0.570   0.485
12443TIP3   OH237271   5.733   0.557   1.591
12443TIP3    H137272   5.752   0.480   1.644
12443TIP3    H237273   5.723   0.524   1.502
12444TIP3   OH237274   0.029   5.885   1.666
12444TIP3    H137275   0.088   5.949   1.626
12444TIP3    H237276   0.066   5.800   1.644
12445TIP3   OH237277   4.158   1.760   1.616
12445TIP3    H137278   4.212   1.733   1.691
12445TIP3    H237279   4.188   1.849   1.597
12446TIP3   OH237280   3.256   3.645   2.239
12446TIP3    H137281   3.206   3.722   2.266
12446TIP3    H237282   3.348   3.672   2.249
12447TIP3   OH237283   2.224   1.756   0.963
12447TIP3    H137284   2.171   1.835   0.960
12447TIP3    H237285   2.219   1.727   1.054
12448TIP3   OH237286   0.688   7.598   0.565
12448TIP3    H137287   0.642   7.681   0.548
12448TIP3    H237288   0.619   7.533   0.570
12449TIP3   OH237289   3.772   7.348   0.254
12449TIP3    H137290   3.841   7.333   0.190
12449TIP3    H237291   3.764   7.443   0.258
12450TIP3   OH237292   6.355   3.360   4.572
12450TIP3    H137293   6.427   3.297   4.566
12450TIP3    H237294   6.398   3.445   4.584
12451TIP3   OH237295   6.167   2.201   1.078
12451TIP3    H137296   6.233   2.267   1.099
12451TIP3    H237297   6.097   2.216   1.140
12452TIP3   OH237298   3.772   3.043   1.999
12452TIP3    H137299   3.697   3.016   2.052
12452TIP3    H237300   3.797   2.964   1.951
12453TIP3   OH237301   2.374   7.459   3.832
12453TIP3    H137302   2.407   7.546   3.851
12453TIP3    H237303   2.447   7.415   3.788
12454TIP3   OH237304   3.146   0.797   1.985
12454TIP3    H137305   3.164   0.847   1.905
12454TIP3    H237306   3.176   0.853   2.056
12455TIP3   OH237307   3.285   2.868   4.454
12455TIP3    H137308   3.278   2.962   4.469
12455TIP3    H237309   3.242   2.853   4.370
12456TIP3   OH237310   6.676   5.253   1.385
12456TIP3    H137311   6.650   5.313   1.316
12456TIP3    H237312   6.595   5.230   1.430
12457TIP3   OH237313   4.586   0.497   1.147
12457TIP3    H137314   4.595   0.527   1.056
12457TIP3    H237315   4.530   0.420   1.141
12458TIP3   OH237316   4.363   7.383   6.332
12458TIP3    H137317   4.387   7.464   6.378
12458TIP3    H237318   4.443   7.331   6.332
12459TIP3   OH237319   4.045   0.821   2.312
12459TIP3    H137320   4.074   0.762   2.242
12459TIP3    H237321   4.106   0.806   2.384
12460TIP3   OH237322   5.050   1.018   0.834
12460TIP3    H137323   5.083   1.013   0.744
12460TIP3    H237324   4.999   1.099   0.836
12461TIP3   OH237325   0.478   0.543   3.007
12461TIP3    H137326   0.548   0.567   2.945
12461TIP3    H237327   0.521   0.547   3.093
12462TIP3   OH237328   7.382   7.757   6.753
12462TIP3    H137329   7.425   7.835   6.720
12462TIP3    H237330   7.316   7.736   6.687
12463TIP3   OH237331   0.766   4.973   3.264
12463TIP3    H137332   0.691   5.031   3.273
12463TIP3    H237333   0.828   5.021   3.209
12464TIP3   OH237334   8.032   0.184   4.070
12464TIP3    H137335   8.083   0.123   4.017
12464TIP3    H237336   7.944   0.179   4.034
12465TIP3   OH237337   1.956   7.582   1.991
12465TIP3    H137338   1.940   7.640   1.917
12465TIP3    H237339   2.051   7.583   2.002
12466TIP3   OH237340   6.493   6.222   3.790
12466TIP3    H137341   6.472   6.303   3.745
12466TIP3    H237342   6.589   6.220   3.792
12467TIP3   OH237343   0.360   6.362   5.759
12467TIP3    H137344   0.452   6.364   5.734
12467TIP3    H237345   0.320   6.295   5.704
12468TIP3   OH237346   1.557   4.653   0.852
12468TIP3    H137347   1.474   4.687   0.821
12468TIP3    H237348   1.570   4.696   0.937
12469TIP3   OH237349   3.100   0.224   3.578
12469TIP3    H137350   3.082   0.318   3.579
12469TIP3    H237351   3.014   0.183   3.565
12470TIP3   OH237352   6.636   2.351   4.407
12470TIP3    H137353   6.550   2.366   4.367
12470TIP3    H237354   6.644   2.419   4.474
12471TIP3   OH237355   1.510   1.347   5.340
12471TIP3    H137356   1.497   1.287   5.266
12471TIP3    H237357   1.422   1.380   5.359
12472TIP3   OH237358   6.264   3.927   4.243
12472TIP3    H137359   6.318   3.932   4.164
12472TIP3    H237360   6.319   3.881   4.307
12473TIP3   OH237361   0.304   2.199   3.190
12473TIP3    H137362   0.319   2.110   3.221
12473TIP3    H237363   0.254   2.189   3.110
12474TIP3   OH237364   5.585   4.647   4.227
12474TIP3    H137365   5.659   4.598   4.192
12474TIP3    H237366   5.607   4.662   4.319
12475TIP3   OH237367   7.725   4.227   3.064
12475TIP3    H137368   7.780   4.217   2.987
12475TIP3    H237369   7.764   4.300   3.112
12476TIP3   OH237370   6.173   0.763   0.347
12476TIP3    H137371   6.174   0.857   0.331
12476TIP3    H237372   6.124   0.753   0.428
12477TIP3   OH237373   0.257   7.718   6.622
12477TIP3    H137374   0.275   7.743   6.532
12477TIP3    H237375   0.302   7.785   6.675
12478TIP3   OH237376   7.054   3.119   0.171
12478TIP3    H137377   7.075   3.068   0.249
12478TIP3    H237378   6.980   3.073   0.132
12479TIP3   OH237379   3.694   5.299   1.736
12479TIP3    H137380   3.767   5.252   1.695
12479TIP3    H237381   3.736   5.354   1.803
12480TIP3   OH237382   0.035   0.529   4.621
12480TIP3    H137383   0.038   0.510   4.527
12480TIP3    H237384   0.125   0.549   4.644
12481TIP3   OH237385   6.373   6.888   4.398
12481TIP3    H137386   6.333   6.973   4.412
12481TIP3    H237387   6.307   6.825   4.429
12482TIP3   OH237388   7.246   1.010   2.167
12482TIP3    H137389   7.180   1.071   2.200
12482TIP3    H237390   7.318   1.065   2.138
12483TIP3   OH237391   4.849   3.132   5.939
12483TIP3    H137392   4.845   3.055   5.882
12483TIP3    H237393   4.823   3.099   6.025
12484TIP3   OH237394   1.494   2.847   3.119
12484TIP3    H137395   1.486   2.758   3.156
12484TIP3    H237396   1.588   2.859   3.107
12485TIP3   OH237397   7.303   5.152   1.293
12485TIP3    H137398   7.215   5.113   1.295
12485TIP3    H237399   7.287   5.245   1.278
12486TIP3   OH237400   5.172   0.542   6.100
12486TIP3    H137401   5.169   0.626   6.144
12486TIP3    H237402   5.082   0.525   6.072
12487TIP3   OH237403   4.188   1.187   0.642
12487TIP3    H137404   4.259   1.250   0.627
12487TIP3    H237405   4.150   1.173   0.555
12488TIP3   OH237406   4.512   2.197   0.346
12488TIP3    H137407   4.526   2.262   0.277
12488TIP3    H237408   4.419   2.172   0.338
12489TIP3   OH237409   5.339   1.048   4.753
12489TIP3    H137410   5.421   1.096   4.764
12489TIP3    H237411   5.278   1.113   4.719
12490TIP3   OH237412   4.407   2.157   0.025
12490TIP3    H137413   4.347   2.116  -0.037
12490TIP3    H237414   4.489   2.167  -0.024
12491TIP3   OH237415   4.441   2.076   6.346
12491TIP3    H137416   4.468   2.168   6.347
12491TIP3    H237417   4.359   2.075   6.395
12492TIP3   OH237418   2.521   3.544   3.362
12492TIP3    H137419   2.593   3.602   3.385
12492TIP3    H237420   2.445   3.602   3.351
12493TIP3   OH237421   3.027   6.148   5.906
12493TIP3    H137422   3.113   6.122   5.875
12493TIP3    H237423   3.045   6.203   5.983
12494TIP3   OH237424   0.577   0.850   2.250
12494TIP3    H137425   0.638   0.913   2.288
12494TIP3    H237426   0.543   0.894   2.172
12495TIP3   OH237427   0.330   6.141   5.570
12495TIP3    H137428   0.410   6.093   5.593
12495TIP3    H237429   0.315   6.118   5.479
12496TIP3   OH237430   0.223   7.035   3.094
12496TIP3    H137431   0.293   7.009   3.034
12496TIP3    H237432   0.233   7.129   3.104
12497TIP3   OH237433   2.293   3.159   2.380
12497TIP3    H137434   2.301   3.143   2.474
12497TIP3    H237435   2.285   3.071   2.342
12498TIP3   OH237436   1.897   1.843   0.715
12498TIP3    H137437   1.816   1.792   0.716
12498TIP3    H237438   1.966   1.777   0.725
12499TIP3   OH237439   1.857   2.692   5.388
12499TIP3    H137440   1.852   2.740   5.306
12499TIP3    H237441   1.943   2.714   5.423
12500TIP3   OH237442   1.798   5.842   1.245
12500TIP3    H137443   1.874   5.844   1.303
12500TIP3    H237444   1.809   5.918   1.188
12501TIP3   OH237445   1.286   4.725   4.363
12501TIP3    H137446   1.307   4.648   4.310
12501TIP3    H237447   1.320   4.704   4.450
12502TIP3   OH237448   6.177   5.796   5.936
12502TIP3    H137449   6.120   5.740   5.988
12502TIP3    H237450   6.167   5.765   5.846
12503TIP3   OH237451   5.104   6.478   2.287
12503TIP3    H137452   5.135   6.544   2.224
12503TIP3    H237453   5.183   6.452   2.334
12504TIP3   OH237454   7.112   5.672   3.327
12504TIP3    H137455   7.017   5.661   3.315
12504TIP3    H237456   7.123   5.764   3.350
12505TIP3   OH237457   1.250   6.775   5.329
12505TIP3    H137458   1.191   6.843   5.362
12505TIP3    H237459   1.224   6.762   5.238
12506TIP3   OH237460   5.162   1.720   0.158
12506TIP3    H137461   5.191   1.735   0.248
12506TIP3    H237462   5.220   1.776   0.106
12507TIP3   OH237463   5.201   5.985   6.340
12507TIP3    H137464   5.247   5.941   6.269
12507TIP3    H237465   5.270   6.027   6.391
12508TIP3   OH237466   2.640   2.638   4.420
12508TIP3    H137467   2.727   2.668   4.448
12508TIP3    H237468   2.626   2.682   4.336
12509TIP3   OH237469   5.727   3.004   4.491
12509TIP3    H137470   5.653   3.051   4.453
12509TIP3    H237471   5.783   2.982   4.417
12510TIP3   OH237472   2.215   0.047   0.474
12510TIP3    H137473   2.239   0.092   0.393
12510TIP3    H237474   2.153  -0.021   0.447
12511TIP3   OH237475   1.220   0.790   2.232
12511TIP3    H137476   1.213   0.870   2.284
12511TIP3    H237477   1.196   0.817   2.144
12512TIP3   OH237478   0.780   2.657   6.578
12512TIP3    H137479   0.823   2.618   6.502
12512TIP3    H237480   0.764   2.583   6.637
12513TIP3   OH237481   4.882   7.455   5.524
12513TIP3    H137482   4.891   7.510   5.601
12513TIP3    H237483   4.953   7.391   5.531
12514TIP3   OH237484   5.467   2.910   1.137
12514TIP3    H137485   5.436   2.966   1.208
12514TIP3    H237486   5.546   2.952   1.104
12515TIP3   OH237487   5.960   2.338   0.555
12515TIP3    H137488   5.907   2.262   0.580
12515TIP3    H237489   5.932   2.358   0.466
12516TIP3   OH237490   1.573   7.551   4.866
12516TIP3    H137491   1.499   7.491   4.871
12516TIP3    H237492   1.576   7.577   4.773
12517TIP3   OH237493   0.005   1.344   4.001
12517TIP3    H137494   0.091   1.372   3.969
12517TIP3    H237495   0.004   1.249   3.986
12518TIP3   OH237496   4.293   2.700   1.577
12518TIP3    H137497   4.353   2.768   1.545
12518TIP3    H237498   4.214   2.748   1.601
12519TIP3   OH237499   4.612   7.214   4.696
12519TIP3    H137500   4.623   7.149   4.766
12519TIP3    H237501   4.700   7.231   4.665
12520TIP3   OH237502   7.903   5.201   0.244
12520TIP3    H137503   7.945   5.284   0.221
12520TIP3    H237504   7.934   5.139   0.178
12521TIP3   OH237505   4.040   4.839   0.597
12521TIP3    H137506   4.042   4.911   0.534
12521TIP3    H237507   3.949   4.832   0.623
12522TIP3   OH237508   3.644   4.988   4.140
12522TIP3    H137509   3.725   5.020   4.100
12522TIP3    H237510   3.623   5.054   4.207
12523TIP3   OH237511   2.090   6.646   0.221
12523TIP3    H137512   2.038   6.698   0.161
12523TIP3    H237513   2.173   6.694   0.230
12524TIP3   OH237514   1.350   1.253   1.330
12524TIP3    H137515   1.378   1.250   1.421
12524TIP3    H237516   1.384   1.336   1.297
12525TIP3   OH237517   7.932   6.714   3.399
12525TIP3    H137518   7.859   6.711   3.460
12525TIP3    H237519   7.901   6.667   3.321
12526TIP3   OH237520   5.405   4.776   6.368
12526TIP3    H137521   5.390   4.849   6.307
12526TIP3    H237522   5.317   4.747   6.393
12527TIP3   OH237523   4.109   7.145   0.248
12527TIP3    H137524   4.148   7.160   0.334
12527TIP3    H237525   4.183   7.147   0.187
12528TIP3   OH237526   4.854   7.391   5.001
12528TIP3    H137527   4.854   7.450   5.076
12528TIP3    H237528   4.846   7.448   4.925
12529TIP3   OH237529   5.814   2.835   0.976
12529TIP3    H137530   5.771   2.757   0.940
12529TIP3    H237531   5.747   2.904   0.969
12530TIP3   OH237532   3.188   4.819   4.182
12530TIP3    H137533   3.198   4.896   4.237
12530TIP3    H237534   3.187   4.853   4.093
12531TIP3   OH237535   6.517   6.760   0.312
12531TIP3    H137536   6.561   6.717   0.239
12531TIP3    H237537   6.427   6.727   0.309
12532TIP3   OH237538   4.828   4.839   1.720
12532TIP3    H137539   4.812   4.926   1.757
12532TIP3    H237540   4.749   4.789   1.740
12533TIP3   OH237541   7.751   6.219   3.789
12533TIP3    H137542   7.771   6.141   3.840
12533TIP3    H237543   7.677   6.259   3.834
12534TIP3   OH237544   5.523   1.391   5.962
12534TIP3    H137545   5.523   1.462   5.897
12534TIP3    H237546   5.575   1.322   5.922
12535TIP3   OH237547   5.727   4.376   4.670
12535TIP3    H137548   5.765   4.430   4.740
12535TIP3    H237549   5.633   4.378   4.688
12536TIP3   OH237550   2.356   3.088   2.700
12536TIP3    H137551   2.386   2.999   2.719
12536TIP3    H237552   2.437   3.138   2.687
12537TIP3   OH237553   0.049   4.596   2.456
12537TIP3    H137554   0.120   4.618   2.396
12537TIP3    H237555   0.087   4.606   2.544
12538TIP3   OH237556   5.698   0.041   3.364
12538TIP3    H137557   5.727  -0.049   3.354
12538TIP3    H237558   5.773   0.094   3.339
12539TIP3   OH237559   1.842   4.157   5.470
12539TIP3    H137560   1.906   4.169   5.400
12539TIP3    H237561   1.866   4.074   5.510
12540TIP3   OH237562   1.246   1.425   5.385
12540TIP3    H137563   1.213   1.429   5.475
12540TIP3    H237564   1.169   1.406   5.332
12541TIP3   OH237565   3.956   3.664   6.053
12541TIP3    H137566   3.975   3.729   6.121
12541TIP3    H237567   4.030   3.671   5.993
12542TIP3   OH237568   3.641   4.594   0.792
12542TIP3    H137569   3.633   4.683   0.826
12542TIP3    H237570   3.559   4.577   0.746
12543TIP3   OH237571   2.488   5.296   2.607
12543TIP3    H137572   2.475   5.290   2.701
12543TIP3    H237573   2.484   5.206   2.575
12544TIP3   OH237574   1.486   2.951   2.226
12544TIP3    H137575   1.436   2.918   2.301
12544TIP3    H237576   1.549   3.011   2.265
12545TIP3   OH237577   7.902   2.059   5.007
12545TIP3    H137578   7.987   2.014   5.000
12545TIP3    H237579   7.920   2.137   5.059
12546TIP3   OH237580   2.938   2.176   0.931
12546TIP3    H137581   2.900   2.102   0.979
12546TIP3    H237582   2.962   2.239   0.998
12547TIP3   OH237583   6.495   0.250   4.927
12547TIP3    H137584   6.569   0.257   4.866
12547TIP3    H237585   6.501   0.328   4.981
12548TIP3   OH237586   5.574   7.148   3.120
12548TIP3    H137587   5.560   7.208   3.193
12548TIP3    H237588   5.561   7.061   3.156
12549TIP3   OH237589   5.009   2.096   5.835
12549TIP3    H137590   5.075   2.129   5.895
12549TIP3    H237591   4.941   2.061   5.892
12550TIP3   OH237592   5.353   4.763   5.463
12550TIP3    H137593   5.321   4.708   5.391
12550TIP3    H237594   5.303   4.733   5.540
12551TIP3   OH237595   8.012   5.100   5.198
12551TIP3    H137596   8.066   5.179   5.200
12551TIP3    H237597   7.997   5.078   5.290
12552TIP3   OH237598   1.420   6.180   4.301
12552TIP3    H137599   1.503   6.227   4.304
12552TIP3    H237600   1.353   6.249   4.299
12553TIP3   OH237601   1.734   4.482   2.772
12553TIP3    H137602   1.818   4.450   2.738
12553TIP3    H237603   1.721   4.432   2.853
12554TIP3   OH237604   0.528   6.473   2.001
12554TIP3    H137605   0.605   6.468   1.945
12554TIP3    H237606   0.510   6.382   2.025
12555TIP3   OH237607   5.586   6.208   4.709
12555TIP3    H137608   5.502   6.217   4.665
12555TIP3    H237609   5.651   6.229   4.641
12556TIP3   OH237610   5.200   4.193   6.540
12556TIP3    H137611   5.175   4.161   6.627
12556TIP3    H237612   5.219   4.286   6.553
12557TIP3   OH237613   1.584   0.973   6.473
12557TIP3    H137614   1.514   0.966   6.538
12557TIP3    H237615   1.542   1.011   6.396
12558TIP3   OH237616   2.771   3.339   3.583
12558TIP3    H137617   2.715   3.267   3.613
12558TIP3    H237618   2.848   3.335   3.640
12559TIP3   OH237619   1.269   6.826   0.698
12559TIP3    H137620   1.281   6.786   0.785
12559TIP3    H237621   1.295   6.757   0.637
12560TIP3   OH237622   5.135   7.716   6.395
12560TIP3    H137623   5.111   7.687   6.307
12560TIP3    H237624   5.151   7.635   6.444
12561TIP3   OH237625   4.327   3.682   0.177
12561TIP3    H137626   4.368   3.596   0.182
12561TIP3    H237627   4.290   3.686   0.088
12562TIP3   OH237628   6.468   7.375   0.938
12562TIP3    H137629   6.414   7.338   0.868
12562TIP3    H237630   6.423   7.349   1.019
12563TIP3   OH237631   5.230   3.303   1.465
12563TIP3    H137632   5.206   3.290   1.557
12563TIP3    H237633   5.156   3.352   1.428
12564TIP3   OH237634   6.261   4.482   3.294
12564TIP3    H137635   6.272   4.502   3.387
12564TIP3    H237636   6.291   4.391   3.285
12565TIP3   OH237637   4.455   6.239   2.574
12565TIP3    H137638   4.500   6.174   2.521
12565TIP3    H237639   4.488   6.323   2.542
12566TIP3   OH237640   1.057   5.379   5.236
12566TIP3    H137641   1.062   5.291   5.271
12566TIP3    H237642   1.034   5.434   5.311
12567TIP3   OH237643   6.450   4.962   4.653
12567TIP3    H137644   6.491   4.919   4.578
12567TIP3    H237645   6.409   4.890   4.702
12568TIP3   OH237646   1.281   5.183   0.612
12568TIP3    H137647   1.370   5.216   0.627
12568TIP3    H237648   1.273   5.108   0.671
12569TIP3   OH237649   4.272   1.666   4.144
12569TIP3    H137650   4.311   1.749   4.116
12569TIP3    H237651   4.178   1.684   4.149
12570TIP3   OH237652   2.834   3.279   3.325
12570TIP3    H137653   2.874   3.366   3.325
12570TIP3    H237654   2.830   3.255   3.417
12571TIP3   OH237655   1.797   0.812   2.331
12571TIP3    H137656   1.715   0.804   2.282
12571TIP3    H237657   1.804   0.731   2.381
12572TIP3   OH237658   2.392   2.588   0.392
12572TIP3    H137659   2.392   2.572   0.298
12572TIP3    H237660   2.365   2.505   0.432
12573TIP3   OH237661   2.061   3.712  -0.003
12573TIP3    H137662   2.075   3.720   0.092
12573TIP3    H237663   2.059   3.803  -0.034
12574TIP3   OH237664   6.928   1.642   2.972
12574TIP3    H137665   6.914   1.688   3.055
12574TIP3    H237666   6.854   1.670   2.917
12575TIP3   OH237667   2.378   5.126   0.657
12575TIP3    H137668   2.318   5.199   0.643
12575TIP3    H237669   2.372   5.107   0.751
12576TIP3   OH237670   5.815   5.271   6.065
12576TIP3    H137671   5.722   5.249   6.059
12576TIP3    H237672   5.823   5.357   6.024
12577TIP3   OH237673   3.895   1.074   5.569
12577TIP3    H137674   3.875   1.165   5.590
12577TIP3    H237675   3.971   1.053   5.624
12578TIP3   OH237676   8.259   3.994   6.580
12578TIP3    H137677   8.318   3.928   6.614
12578TIP3    H237678   8.313   4.073   6.570
12579TIP3   OH237679   5.202   7.122   3.764
12579TIP3    H137680   5.229   7.129   3.855
12579TIP3    H237681   5.112   7.155   3.762
12580TIP3   OH237682   1.103   2.239   5.258
12580TIP3    H137683   1.112   2.330   5.289
12580TIP3    H237684   1.010   2.219   5.273
12581TIP3   OH237685   0.993   1.592   2.139
12581TIP3    H137686   0.969   1.634   2.221
12581TIP3    H237687   1.007   1.500   2.163
12582TIP3   OH237688   3.229   2.948   6.135
12582TIP3    H137689   3.257   3.018   6.076
12582TIP3    H237690   3.211   2.873   6.077
12583TIP3   OH237691   6.329   6.470   2.636
12583TIP3    H137692   6.362   6.508   2.555
12583TIP3    H237693   6.349   6.377   2.629
12584TIP3   OH237694   1.931   1.316   5.344
12584TIP3    H137695   1.853   1.281   5.387
12584TIP3    H237696   1.936   1.267   5.261
12585TIP3   OH237697   5.964   5.106   3.594
12585TIP3    H137698   5.970   5.036   3.659
12585TIP3    H237699   6.018   5.076   3.521
12586TIP3   OH237700   4.105   4.436   1.082
12586TIP3    H137701   4.104   4.476   1.169
12586TIP3    H237702   4.013   4.422   1.061
12587TIP3   OH237703   3.252   7.552   3.394
12587TIP3    H137704   3.232   7.512   3.479
12587TIP3    H237705   3.344   7.579   3.402
12588TIP3   OH237706   6.421   7.246   3.574
12588TIP3    H137707   6.436   7.303   3.499
12588TIP3    H237708   6.330   7.264   3.600
12589TIP3   OH237709   7.271   5.273   4.204
12589TIP3    H137710   7.289   5.224   4.285
12589TIP3    H237711   7.176   5.269   4.195
12590TIP3   OH237712   6.488   5.020   1.347
12590TIP3    H137713   6.577   4.989   1.332
12590TIP3    H237714   6.437   4.940   1.357
12591TIP3   OH237715   5.470   6.858   2.920
12591TIP3    H137716   5.487   6.914   2.844
12591TIP3    H237717   5.425   6.916   2.982
12592TIP3   OH237718   1.611   5.160   2.375
12592TIP3    H137719   1.604   5.231   2.439
12592TIP3    H237720   1.521   5.128   2.366
12593TIP3   OH237721   0.186   5.811   0.592
12593TIP3    H137722   0.115   5.748   0.581
12593TIP3    H237723   0.145   5.897   0.581
12594TIP3   OH237724   7.227   3.303   2.790
12594TIP3    H137725   7.278   3.249   2.730
12594TIP3    H237726   7.277   3.385   2.797
12595TIP3   OH237727   1.149   4.364   5.577
12595TIP3    H137728   1.209   4.420   5.626
12595TIP3    H237729   1.205   4.310   5.522
12596TIP3   OH237730   5.683   2.031   3.174
12596TIP3    H137731   5.656   2.058   3.086
12596TIP3    H237732   5.686   2.112   3.225
12597TIP3   OH237733   6.669   2.310   4.705
12597TIP3    H137734   6.605   2.381   4.713
12597TIP3    H237735   6.735   2.331   4.771
12598TIP3   OH237736   2.816   7.119   4.598
12598TIP3    H137737   2.756   7.048   4.575
12598TIP3    H237738   2.887   7.113   4.534
12599TIP3   OH237739   5.259   3.891   4.893
12599TIP3    H137740   5.170   3.879   4.860
12599TIP3    H237741   5.298   3.956   4.834
12600TIP3   OH237742   7.311   1.020   1.097
12600TIP3    H137743   7.298   1.048   1.007
12600TIP3    H237744   7.297   1.100   1.149
12601TIP3   OH237745   4.533   5.958   0.536
12601TIP3    H137746   4.446   5.962   0.573
12601TIP3    H237747   4.551   6.048   0.507
12602TIP3   OH237748   4.808   5.228   1.316
12602TIP3    H137749   4.808   5.133   1.303
12602TIP3    H237750   4.852   5.240   1.400
12603TIP3   OH237751   3.733   6.535   0.268
12603TIP3    H137752   3.757   6.471   0.201
12603TIP3    H237753   3.759   6.494   0.351
12604TIP3   OH237754   5.885   0.398   4.198
12604TIP3    H137755   5.878   0.309   4.165
12604TIP3    H237756   5.971   0.401   4.239
12605TIP3   OH237757   3.318   5.449   0.594
12605TIP3    H137758   3.389   5.480   0.538
12605TIP3    H237759   3.334   5.356   0.605
12606TIP3   OH237760   2.391   3.701   0.015
12606TIP3    H137761   2.370   3.791  -0.007
12606TIP3    H237762   2.339   3.648  -0.045
12607TIP3   OH237763   3.577   6.198   6.282
12607TIP3    H137764   3.623   6.118   6.305
12607TIP3    H237765   3.522   6.174   6.208
12608TIP3   OH237766   6.817   7.624   0.438
12608TIP3    H137767   6.831   7.633   0.532
12608TIP3    H237768   6.725   7.648   0.425
12609TIP3   OH237769   1.109   5.223   5.616
12609TIP3    H137770   1.161   5.301   5.596
12609TIP3    H237771   1.050   5.214   5.541
12610TIP3   OH237772   1.278   1.371   3.679
12610TIP3    H137773   1.246   1.458   3.658
12610TIP3    H237774   1.274   1.323   3.596
12611TIP3   OH237775   7.313   1.479   3.121
12611TIP3    H137776   7.259   1.495   3.198
12611TIP3    H237777   7.385   1.542   3.129
12612TIP3   OH237778   1.603   3.888   1.761
12612TIP3    H137779   1.650   3.951   1.706
12612TIP3    H237780   1.606   3.806   1.711
12613TIP3   OH237781   1.785   0.203   3.231
12613TIP3    H137782   1.872   0.171   3.254
12613TIP3    H237783   1.798   0.295   3.209
12614TIP3   OH237784   1.693   6.430   5.029
12614TIP3    H137785   1.704   6.335   5.019
12614TIP3    H237786   1.725   6.448   5.117
12615TIP3   OH237787   7.481   4.291   2.229
12615TIP3    H137788   7.470   4.213   2.282
12615TIP3    H237789   7.423   4.277   2.153
12616TIP3   OH237790   4.513   1.577   1.437
12616TIP3    H137791   4.436   1.535   1.475
12616TIP3    H237792   4.554   1.624   1.510
12617TIP3   OH237793   2.827   0.155   0.190
12617TIP3    H137794   2.872   0.073   0.209
12617TIP3    H237795   2.758   0.160   0.256
12618TIP3   OH237796   4.575   5.221   6.269
12618TIP3    H137797   4.488   5.222   6.309
12618TIP3    H237798   4.622   5.153   6.317
12619TIP3   OH237799   3.224   3.007   3.335
12619TIP3    H137800   3.242   3.041   3.422
12619TIP3    H237801   3.155   3.064   3.300
12620TIP3   OH237802   5.881   2.134   4.809
12620TIP3    H137803   5.797   2.101   4.840
12620TIP3    H237804   5.943   2.114   4.879
12621TIP3   OH237805   3.919   5.604   3.236
12621TIP3    H137806   3.980   5.595   3.310
12621TIP3    H237807   3.882   5.691   3.246
12622TIP3   OH237808   1.553   4.471   2.513
12622TIP3    H137809   1.555   4.377   2.497
12622TIP3    H237810   1.573   4.480   2.607
12623TIP3   OH237811   1.621   5.014   5.100
12623TIP3    H137812   1.530   5.039   5.082
12623TIP3    H237813   1.627   4.924   5.068
12624TIP3   OH237814   7.741   0.293   6.225
12624TIP3    H137815   7.661   0.334   6.190
12624TIP3    H237816   7.789   0.366   6.265
12625TIP3   OH237817   7.855   3.036   0.494
12625TIP3    H137818   7.806   3.117   0.477
12625TIP3    H237819   7.940   3.066   0.527
12626TIP3   OH237820   4.429   4.642   1.100
12626TIP3    H137821   4.360   4.617   1.161
12626TIP3    H237822   4.415   4.735   1.084
12627TIP3   OH237823   5.761   2.908   1.362
12627TIP3    H137824   5.792   2.968   1.293
12627TIP3    H237825   5.675   2.942   1.386
12628TIP3   OH237826   7.250   5.728   4.004
12628TIP3    H137827   7.205   5.731   3.919
12628TIP3    H237828   7.205   5.659   4.052
12629TIP3   OH237829   0.489   5.834   2.689
12629TIP3    H137830   0.577   5.802   2.706
12629TIP3    H237831   0.432   5.776   2.741
12630TIP3   OH237832   4.910   4.652   5.361
12630TIP3    H137833   4.993   4.608   5.377
12630TIP3    H237834   4.896   4.707   5.437
12631TIP3   OH237835   2.057   0.855   1.937
12631TIP3    H137836   1.966   0.837   1.962
12631TIP3    H237837   2.051   0.929   1.878
12632TIP3   OH237838   3.263   3.283   0.394
12632TIP3    H137839   3.235   3.236   0.316
12632TIP3    H237840   3.283   3.214   0.458
12633TIP3   OH237841   5.002   6.463   6.531
12633TIP3    H137842   4.952   6.382   6.519
12633TIP3    H237843   4.935   6.532   6.532
12634TIP3   OH237844   8.211   6.704   0.811
12634TIP3    H137845   8.265   6.684   0.887
12634TIP3    H237846   8.271   6.698   0.737
12635TIP3   OH237847   2.474   7.453   4.967
12635TIP3    H137848   2.546   7.425   5.024
12635TIP3    H237849   2.402   7.394   4.988
12636TIP3   OH237850   4.104   1.628   1.869
12636TIP3    H137851   4.181   1.681   1.889
12636TIP3    H237852   4.030   1.685   1.887
12637TIP3   OH237853   4.800   0.096   2.166
12637TIP3    H137854   4.873   0.157   2.175
12637TIP3    H237855   4.770   0.108   2.076
12638TIP3   OH237856   7.961   2.526   3.455
12638TIP3    H137857   8.047   2.491   3.476
12638TIP3    H237858   7.976   2.582   3.379
12639TIP3   OH237859   2.713   7.610   6.703
12639TIP3    H137860   2.685   7.662   6.627
12639TIP3    H237861   2.737   7.675   6.769
12640TIP3   OH237862   6.341   6.213   6.491
12640TIP3    H137863   6.315   6.180   6.405
12640TIP3    H237864   6.364   6.135   6.541
12641TIP3   OH237865   3.951   2.949   0.041
12641TIP3    H137866   3.913   2.989  -0.038
12641TIP3    H237867   4.023   3.007   0.065
12642TIP3   OH237868   1.484   5.445   1.437
12642TIP3    H137869   1.465   5.491   1.519
12642TIP3    H237870   1.516   5.513   1.379
12643TIP3   OH237871   1.197   4.019   4.163
12643TIP3    H137872   1.155   3.934   4.173
12643TIP3    H237873   1.279   4.000   4.117
12644TIP3   OH237874   4.801   3.371   5.808
12644TIP3    H137875   4.814   3.296   5.866
12644TIP3    H237876   4.770   3.440   5.866
12645TIP3   OH237877   4.704   4.452   0.222
12645TIP3    H137878   4.654   4.378   0.189
12645TIP3    H237879   4.643   4.525   0.222
12646TIP3   OH237880   2.835   1.253   6.183
12646TIP3    H137881   2.865   1.309   6.255
12646TIP3    H237882   2.763   1.301   6.143
12647TIP3   OH237883   5.990   5.293   2.085
12647TIP3    H137884   6.071   5.242   2.081
12647TIP3    H237885   5.941   5.254   2.158
12648TIP3   OH237886   5.222   1.540   4.323
12648TIP3    H137887   5.274   1.462   4.304
12648TIP3    H237888   5.132   1.513   4.309
12649TIP3   OH237889   4.921   0.147   4.964
12649TIP3    H137890   4.862   0.219   4.940
12649TIP3    H237891   4.991   0.151   4.899
12650TIP3   OH237892   5.275   5.688   2.385
12650TIP3    H137893   5.280   5.784   2.386
12650TIP3    H237894   5.341   5.662   2.321
12651TIP3   OH237895   4.953   2.403   1.545
12651TIP3    H137896   4.953   2.317   1.586
12651TIP3    H237897   4.913   2.389   1.459
12652TIP3   OH237898   6.421   5.684   1.678
12652TIP3    H137899   6.425   5.589   1.667
12652TIP3    H237900   6.465   5.719   1.601
12653TIP3   OH237901   2.936   3.800   6.312
12653TIP3    H137902   3.023   3.759   6.314
12653TIP3    H237903   2.951   3.889   6.344
12654TIP3   OH237904   3.428   1.031   6.272
12654TIP3    H137905   3.441   1.060   6.182
12654TIP3    H237906   3.517   1.026   6.309
12655TIP3   OH237907   5.199   4.561   5.260
12655TIP3    H137908   5.124   4.503   5.251
12655TIP3    H237909   5.272   4.513   5.221
12656TIP3   OH237910   1.001   6.056   2.313
12656TIP3    H137911   1.054   6.117   2.364
12656TIP3    H237912   0.998   5.977   2.367
12657TIP3   OH237913   7.159   4.459   2.165
12657TIP3    H137914   7.190   4.529   2.108
12657TIP3    H237915   7.156   4.498   2.252
12658TIP3   OH237916   5.861   3.720   2.475
12658TIP3    H137917   5.882   3.696   2.566
12658TIP3    H237918   5.849   3.636   2.430
12659TIP3   OH237919   2.418   7.810   6.264
12659TIP3    H137920   2.365   7.885   6.236
12659TIP3    H237921   2.508   7.840   6.255
12660TIP3   OH237922   5.863   1.877   5.678
12660TIP3    H137923   5.911   1.798   5.704
12660TIP3    H237924   5.797   1.889   5.747
12661TIP3   OH237925   5.088   2.758   0.643
12661TIP3    H137926   5.095   2.799   0.729
12661TIP3    H237927   4.998   2.724   0.640
12662TIP3   OH237928   4.574   3.135   2.926
12662TIP3    H137929   4.573   3.056   2.873
12662TIP3    H237930   4.490   3.134   2.973
12663TIP3   OH237931   2.879   2.468   5.282
12663TIP3    H137932   2.784   2.468   5.274
12663TIP3    H237933   2.907   2.390   5.234
12664TIP3   OH237934   3.518   0.636   3.875
12664TIP3    H137935   3.574   0.690   3.819
12664TIP3    H237936   3.462   0.700   3.920
12665TIP3   OH237937   1.559   0.361   3.049
12665TIP3    H137938   1.486   0.327   3.101
12665TIP3    H237939   1.624   0.387   3.114
12666TIP3   OH237940   6.938   4.452   1.121
12666TIP3    H137941   6.879   4.402   1.178
12666TIP3    H237942   7.024   4.444   1.163
12667TIP3   OH237943   2.396   7.462   3.357
12667TIP3    H137944   2.456   7.533   3.381
12667TIP3    H237945   2.319   7.507   3.322
12668TIP3   OH237946   1.662   1.623   2.789
12668TIP3    H137947   1.671   1.535   2.752
12668TIP3    H237948   1.567   1.634   2.801
12669TIP3   OH237949   6.099   2.994   6.503
12669TIP3    H137950   6.155   3.039   6.440
12669TIP3    H237951   6.070   3.063   6.563
12670TIP3   OH237952   5.449   3.247   3.196
12670TIP3    H137953   5.426   3.243   3.103
12670TIP3    H237954   5.367   3.269   3.241
12671TIP3   OH237955   2.925   2.572   4.256
12671TIP3    H137956   2.956   2.655   4.293
12671TIP3    H237957   2.840   2.594   4.217
12672TIP3   OH237958   8.060   5.856   0.442
12672TIP3    H137959   8.087   5.845   0.533
12672TIP3    H237960   8.131   5.816   0.391
12673TIP3   OH237961   0.216   0.842   5.592
12673TIP3    H137962   0.179   0.778   5.532
12673TIP3    H237963   0.311   0.830   5.586
12674TIP3   OH237964   2.123   3.986   6.513
12674TIP3    H137965   2.118   4.063   6.568
12674TIP3    H237966   2.107   3.912   6.572
12675TIP3   OH237967   2.521   2.039   6.609
12675TIP3    H137968   2.478   2.027   6.524
12675TIP3    H237969   2.450   2.061   6.669
12676TIP3   OH237970   3.583   5.838   5.917
12676TIP3    H137971   3.627   5.754   5.933
12676TIP3    H237972   3.653   5.896   5.886
12677TIP3   OH237973   1.458   0.166   2.657
12677TIP3    H137974   1.418   0.097   2.710
12677TIP3    H237975   1.419   0.155   2.570
12678TIP3   OH237976   6.572   5.951   2.426
12678TIP3    H137977   6.628   5.877   2.452
12678TIP3    H237978   6.631   6.026   2.427
12679TIP3   OH237979   3.986   2.614   5.773
12679TIP3    H137980   3.977   2.700   5.731
12679TIP3    H237981   3.963   2.551   5.705
12680TIP3   OH237982   1.060   3.380   4.297
12680TIP3    H137983   1.098   3.424   4.221
12680TIP3    H237984   1.079   3.439   4.371
12681TIP3   OH237985   4.196   7.267   4.220
12681TIP3    H137986   4.258   7.205   4.181
12681TIP3    H237987   4.125   7.212   4.253
12682TIP3   OH237988   2.223   6.445   3.776
12682TIP3    H137989   2.279   6.486   3.842
12682TIP3    H237990   2.259   6.357   3.766
12683TIP3   OH237991   4.027   6.483   2.429
12683TIP3    H137992   4.014   6.558   2.487
12683TIP3    H237993   4.075   6.419   2.481
12684TIP3   OH237994   5.434   4.040   0.459
12684TIP3    H137995   5.462   4.130   0.472
12684TIP3    H237996   5.425   4.004   0.548
12685TIP3   OH237997   6.656   3.996   3.051
12685TIP3    H137998   6.564   4.002   3.025
12685TIP3    H237999   6.703   4.050   2.988
12686TIP3   OH238000   7.491   3.472   5.788
12686TIP3    H138001   7.554   3.543   5.788
12686TIP3    H238002   7.524   3.411   5.854
12687TIP3   OH238003   1.536   1.176   1.067
12687TIP3    H138004   1.539   1.165   0.972
12687TIP3    H238005   1.518   1.269   1.079
12688TIP3   OH238006   5.918   5.472   4.049
12688TIP3    H138007   5.912   5.468   4.145
12688TIP3    H238008   5.901   5.382   4.020
12689TIP3   OH238009   1.378   3.483   4.583
12689TIP3    H138010   1.297   3.433   4.580
12689TIP3    H238011   1.421   3.465   4.500
12690TIP3   OH238012   0.766   7.206   4.118
12690TIP3    H138013   0.838   7.158   4.160
12690TIP3    H238014   0.804   7.289   4.092
12691TIP3   OH238015   3.285   1.762   0.623
12691TIP3    H138016   3.344   1.816   0.571
12691TIP3    H238017   3.327   1.676   0.624
12692TIP3   OH238018   3.438   5.001   1.579
12692TIP3    H138019   3.381   4.970   1.509
12692TIP3    H238020   3.407   5.089   1.598
12693TIP3   OH238021   7.935   6.001   4.136
12693TIP3    H138022   7.923   5.967   4.225
12693TIP3    H238023   8.029   5.992   4.119
12694TIP3   OH238024   3.082   5.294   1.355
12694TIP3    H138025   3.008   5.250   1.312
12694TIP3    H238026   3.150   5.297   1.288
12695TIP3   OH238027   1.100   2.333   6.302
12695TIP3    H138028   1.073   2.249   6.265
12695TIP3    H238029   1.171   2.362   6.245
12696TIP3   OH238030   0.059   7.357   2.302
12696TIP3    H138031   0.101   7.294   2.361
12696TIP3    H238032   0.045   7.308   2.221
12697TIP3   OH238033   1.422   0.100   1.606
12697TIP3    H138034   1.420   0.136   1.695
12697TIP3    H238035   1.355   0.031   1.607
12698TIP3   OH238036   7.119   7.487   3.255
12698TIP3    H138037   7.179   7.413   3.268
12698TIP3    H238038   7.095   7.514   3.344
12699TIP3   OH238039   5.626   4.776   0.579
12699TIP3    H138040   5.691   4.818   0.522
12699TIP3    H238041   5.548   4.831   0.570
12700TIP3   OH238042   7.829   2.726   3.257
12700TIP3    H138043   7.899   2.725   3.192
12700TIP3    H238044   7.763   2.786   3.221
12701TIP3   OH238045   8.185   0.961   3.709
12701TIP3    H138046   8.193   0.884   3.652
12701TIP3    H238047   8.152   0.926   3.792
12702TIP3   OH238048   7.061   4.858   1.058
12702TIP3    H138049   7.075   4.906   0.977
12702TIP3    H238050   7.149   4.840   1.090
12703TIP3   OH238051   4.772   6.880   3.323
12703TIP3    H138052   4.789   6.877   3.417
12703TIP3    H238053   4.731   6.796   3.303
12704TIP3   OH238054   5.446   4.024   1.697
12704TIP3    H138055   5.412   4.101   1.741
12704TIP3    H238056   5.509   3.986   1.758
12705TIP3   OH238057   5.738   7.354   2.951
12705TIP3    H138058   5.679   7.412   3.000
12705TIP3    H238059   5.801   7.324   3.015
12706TIP3   OH238060   5.764   3.754   3.869
12706TIP3    H138061   5.818   3.700   3.811
12706TIP3    H238062   5.750   3.835   3.820
12707TIP3   OH238063   3.572   1.725   3.051
12707TIP3    H138064   3.568   1.702   3.143
12707TIP3    H238065   3.661   1.756   3.037
12708TIP3   OH238066   5.138   1.954   6.678
12708TIP3    H138067   5.070   1.952   6.611
12708TIP3    H238068   5.178   2.041   6.668
12709TIP3   OH238069   8.010   1.005   3.146
12709TIP3    H138070   8.044   0.970   3.063
12709TIP3    H238071   8.071   1.074   3.170
12710TIP3   OH238072   0.173   5.203   0.638
12710TIP3    H138073   0.222   5.233   0.562
12710TIP3    H238074   0.218   5.243   0.713
12711TIP3   OH238075   7.707   3.582   4.688
12711TIP3    H138076   7.716   3.533   4.770
12711TIP3    H238077   7.681   3.517   4.623
12712TIP3   OH238078   4.444   3.044   0.909
12712TIP3    H138079   4.509   2.974   0.910
12712TIP3    H238080   4.382   3.020   0.978
12713TIP3   OH238081   1.282   5.202   1.310
12713TIP3    H138082   1.333   5.147   1.251
12713TIP3    H238083   1.334   5.207   1.390
12714TIP3   OH238084   6.043   4.715   0.856
12714TIP3    H138085   5.979   4.782   0.834
12714TIP3    H238086   6.124   4.746   0.815
12715TIP3   OH238087   6.770   3.545   2.330
12715TIP3    H138088   6.775   3.522   2.237
12715TIP3    H238089   6.852   3.513   2.368
12716TIP3   OH238090   3.865   5.623   4.972
12716TIP3    H138091   3.889   5.672   5.051
12716TIP3    H238092   3.798   5.562   5.002
12717TIP3   OH238093   2.225   4.239   4.576
12717TIP3    H138094   2.177   4.317   4.602
12717TIP3    H238095   2.210   4.232   4.481
12718TIP3   OH238096   1.887   1.621   3.905
12718TIP3    H138097   1.815   1.558   3.916
12718TIP3    H238098   1.883   1.675   3.984
12719TIP3   OH238099   0.916   7.707   6.666
12719TIP3    H138100   0.997   7.701   6.718
12719TIP3    H238101   0.846   7.704   6.730
12720TIP3   OH238102   5.170   4.260   4.829
12720TIP3    H138103   5.077   4.271   4.849
12720TIP3    H238104   5.184   4.313   4.751
12721TIP3   OH238105   1.109   2.559   5.903
12721TIP3    H138106   1.051   2.514   5.965
12721TIP3    H238107   1.075   2.535   5.817
12722TIP3   OH238108   3.070   7.550   3.601
12722TIP3    H138109   3.002   7.541   3.534
12722TIP3    H238110   3.102   7.639   3.591
12723TIP3   OH238111   2.022   5.454   2.961
12723TIP3    H138112   2.083   5.398   3.009
12723TIP3    H238113   2.044   5.543   2.987
12724TIP3   OH238114   6.944   3.448   6.564
12724TIP3    H138115   6.880   3.441   6.493
12724TIP3    H238116   6.934   3.367   6.613
12725TIP3   OH238117   2.186   6.946   2.274
12725TIP3    H138118   2.215   6.860   2.243
12725TIP3    H238119   2.197   6.943   2.369
12726TIP3   OH238120   5.971   0.606   2.049
12726TIP3    H138121   5.945   0.660   2.124
12726TIP3    H238122   5.962   0.516   2.079
12727TIP3   OH238123   4.642   1.534   2.464
12727TIP3    H138124   4.598   1.602   2.412
12727TIP3    H238125   4.570   1.481   2.499
12728TIP3   OH238126   7.448   5.333   3.422
12728TIP3    H138127   7.463   5.301   3.333
12728TIP3    H238128   7.449   5.254   3.476
12729TIP3   OH238129   5.688   4.151   3.821
12729TIP3    H138130   5.760   4.211   3.799
12729TIP3    H238131   5.723   4.064   3.803
12730TIP3   OH238132   0.382   5.317   2.257
12730TIP3    H138133   0.383   5.273   2.342
12730TIP3    H238134   0.423   5.255   2.197
12731TIP3   OH238135   0.575   5.450   1.823
12731TIP3    H138136   0.670   5.466   1.818
12731TIP3    H238137   0.567   5.373   1.880
12732TIP3   OH238138   1.831   0.386   1.189
12732TIP3    H138139   1.923   0.368   1.204
12732TIP3    H238140   1.793   0.302   1.163
12733TIP3   OH238141   0.514   4.207   0.687
12733TIP3    H138142   0.542   4.296   0.710
12733TIP3    H238143   0.576   4.179   0.620
12734TIP3   OH238144   8.101   2.342   6.338
12734TIP3    H138145   8.133   2.393   6.412
12734TIP3    H238146   8.174   2.340   6.276
12735TIP3   OH238147   2.571   2.367   0.169
12735TIP3    H138148   2.501   2.423   0.133
12735TIP3    H238149   2.649   2.392   0.121
12736TIP3   OH238150   1.245   4.880   0.587
12736TIP3    H138151   1.158   4.854   0.615
12736TIP3    H238152   1.244   4.869   0.492
12737TIP3   OH238153   2.176   4.671   5.595
12737TIP3    H138154   2.154   4.751   5.546
12737TIP3    H238155   2.249   4.697   5.651
12738TIP3   OH238156   3.801   5.822   3.696
12738TIP3    H138157   3.868   5.862   3.751
12738TIP3    H238158   3.725   5.880   3.704
12739TIP3   OH238159   4.227   7.080   4.967
12739TIP3    H138160   4.300   7.141   4.978
12739TIP3    H238161   4.220   7.036   5.051
12740TIP3   OH238162   2.143   2.686   5.430
12740TIP3    H138163   2.179   2.756   5.374
12740TIP3    H238164   2.213   2.621   5.433
12741TIP3   OH238165   8.217   6.317   3.111
12741TIP3    H138166   8.123   6.332   3.111
12741TIP3    H238167   8.255   6.395   3.152
12742TIP3   OH238168   3.941   1.376   1.076
12742TIP3    H138169   3.901   1.451   1.121
12742TIP3    H238170   3.873   1.309   1.075
12743TIP3   OH238171   6.781   7.665   6.511
12743TIP3    H138172   6.692   7.660   6.546
12743TIP3    H238173   6.780   7.606   6.435
12744TIP3   OH238174   0.359   1.027   0.995
12744TIP3    H138175   0.431   1.014   0.933
12744TIP3    H238176   0.280   1.030   0.940
12745TIP3   OH238177   6.361   0.373   4.552
12745TIP3    H138178   6.415   0.295   4.562
12745TIP3    H238179   6.370   0.420   4.635
12746TIP3   OH238180   5.035   3.789   0.278
12746TIP3    H138181   5.039   3.879   0.311
12746TIP3    H238182   4.995   3.740   0.350
12747TIP3   OH238183   3.173   2.563   0.935
12747TIP3    H138184   3.225   2.496   0.891
12747TIP3    H238185   3.211   2.568   1.023
12748TIP3   OH238186   1.953   7.605   1.146
12748TIP3    H138187   1.884   7.590   1.080
12748TIP3    H238188   1.963   7.700   1.149
12749TIP3   OH238189   6.875   7.322   2.818
12749TIP3    H138190   6.862   7.310   2.724
12749TIP3    H238191   6.867   7.234   2.855
12750TIP3   OH238192   5.692   1.518   5.028
12750TIP3    H138193   5.610   1.558   5.056
12750TIP3    H238194   5.758   1.557   5.086
12751TIP3   OH238195   7.762   2.026   0.873
12751TIP3    H138196   7.671   2.026   0.842
12751TIP3    H238197   7.792   2.115   0.857
12752TIP3   OH238198   1.642   4.343   4.222
12752TIP3    H138199   1.616   4.251   4.229
12752TIP3    H238200   1.579   4.390   4.277
12753TIP3   OH238201   2.716   6.516   3.788
12753TIP3    H138202   2.676   6.477   3.710
12753TIP3    H238203   2.657   6.587   3.812
12754TIP3   OH238204   7.474   2.480   5.416
12754TIP3    H138205   7.411   2.534   5.369
12754TIP3    H238206   7.447   2.390   5.399
12755TIP3   OH238207   6.574   6.569   6.639
12755TIP3    H138208   6.585   6.483   6.599
12755TIP3    H238209   6.610   6.559   6.727
12756TIP3   OH238210   0.928   3.289   2.352
12756TIP3    H138211   0.953   3.228   2.282
12756TIP3    H238212   0.988   3.362   2.343
12757TIP3   OH238213   0.135   2.273   6.384
12757TIP3    H138214   0.223   2.306   6.401
12757TIP3    H238215   0.084   2.301   6.460
12758TIP3   OH238216   3.996   4.621   3.623
12758TIP3    H138217   3.968   4.703   3.582
12758TIP3    H238218   3.952   4.553   3.571
12759TIP3   OH238219   1.365   3.207   0.315
12759TIP3    H138220   1.436   3.181   0.374
12759TIP3    H238221   1.301   3.251   0.371
12760TIP3   OH238222   0.800   2.761   1.514
12760TIP3    H138223   0.797   2.831   1.580
12760TIP3    H238224   0.717   2.716   1.523
12761TIP3   OH238225   8.043   6.001   5.688
12761TIP3    H138226   8.023   5.940   5.759
12761TIP3    H238227   8.035   6.087   5.728
12762TIP3   OH238228   0.703   6.982   1.639
12762TIP3    H138229   0.668   7.061   1.681
12762TIP3    H238230   0.786   6.966   1.682
12763TIP3   OH238231   8.090   3.607   3.423
12763TIP3    H138232   8.173   3.562   3.439
12763TIP3    H238233   8.028   3.537   3.402
12764TIP3   OH238234   3.157   0.957   1.590
12764TIP3    H138235   3.073   0.998   1.572
12764TIP3    H238236   3.190   0.932   1.503
12765TIP3   OH238237   7.403   2.609   2.296
12765TIP3    H138238   7.357   2.690   2.272
12765TIP3    H238239   7.471   2.600   2.230
12766TIP3   OH238240   5.428   7.494   3.312
12766TIP3    H138241   5.498   7.430   3.329
12766TIP3    H238242   5.347   7.444   3.324
12767TIP3   OH238243   2.612   2.558   3.387
12767TIP3    H138244   2.548   2.628   3.390
12767TIP3    H238245   2.646   2.552   3.476
12768TIP3   OH238246   3.152   4.523   5.470
12768TIP3    H138247   3.225   4.471   5.504
12768TIP3    H238248   3.164   4.521   5.375
12769TIP3   OH238249   4.935   6.846   5.608
12769TIP3    H138250   4.984   6.796   5.673
12769TIP3    H238251   4.995   6.855   5.534
12770TIP3   OH238252   0.275   2.053   6.223
12770TIP3    H138253   0.205   2.054   6.158
12770TIP3    H238254   0.247   2.115   6.290
12771TIP3   OH238255   4.252   3.498   5.264
12771TIP3    H138256   4.206   3.485   5.347
12771TIP3    H238257   4.293   3.584   5.272
12772TIP3   OH238258   1.742   6.155   6.372
12772TIP3    H138259   1.656   6.191   6.392
12772TIP3    H238260   1.802   6.229   6.383
12773TIP3   OH238261   1.799   5.584   0.043
12773TIP3    H138262   1.721   5.560   0.092
12773TIP3    H238263   1.872   5.565   0.102
12774TIP3   OH238264   3.716   4.809   1.378
12774TIP3    H138265   3.703   4.741   1.312
12774TIP3    H238266   3.808   4.801   1.403
12775TIP3   OH238267   4.076   5.354   4.449
12775TIP3    H138268   4.052   5.263   4.430
12775TIP3    H238269   4.022   5.407   4.390
12776TIP3   OH238270   3.436   4.693   3.007
12776TIP3    H138271   3.467   4.783   3.012
12776TIP3    H238272   3.460   4.665   2.918
12777TIP3   OH238273   6.370   1.863   4.277
12777TIP3    H138274   6.456   1.836   4.243
12777TIP3    H238275   6.332   1.782   4.312
12778TIP3   OH238276   1.774   1.141   6.563
12778TIP3    H138277   1.746   1.179   6.479
12778TIP3    H238278   1.721   1.062   6.572
12779TIP3   OH238279   4.673   0.737   5.689
12779TIP3    H138280   4.650   0.644   5.684
12779TIP3    H238281   4.654   0.771   5.602
12780TIP3   OH238282   4.321   0.258   3.382
12780TIP3    H138283   4.375   0.279   3.458
12780TIP3    H238284   4.236   0.234   3.418
12781TIP3   OH238285   2.636   3.256   4.499
12781TIP3    H138286   2.605   3.303   4.576
12781TIP3    H238287   2.558   3.216   4.461
12782TIP3   OH238288   2.229   6.005   4.030
12782TIP3    H138289   2.162   5.938   4.017
12782TIP3    H238290   2.283   5.972   4.101
12783TIP3   OH238291   7.230   2.834   2.550
12783TIP3    H138292   7.180   2.823   2.470
12783TIP3    H238293   7.225   2.928   2.568
12784TIP3   OH238294   3.708   6.263   5.939
12784TIP3    H138295   3.754   6.331   5.890
12784TIP3    H238296   3.757   6.256   6.021
12785TIP3   OH238297   1.645   4.577   0.591
12785TIP3    H138298   1.696   4.566   0.671
12785TIP3    H238299   1.613   4.667   0.594
12786TIP3   OH238300   3.542   6.901   1.372
12786TIP3    H138301   3.487   6.827   1.399
12786TIP3    H238302   3.483   6.976   1.374
12787TIP3   OH238303   2.207   4.673   6.609
12787TIP3    H138304   2.121   4.707   6.583
12787TIP3    H238305   2.193   4.580   6.622
12788TIP3   OH238306   6.480   0.545   5.882
12788TIP3    H138307   6.389   0.550   5.852
12788TIP3    H238308   6.501   0.452   5.878
12789TIP3   OH238309   5.560   3.383   4.206
12789TIP3    H138310   5.587   3.447   4.140
12789TIP3    H238311   5.639   3.366   4.257
12790TIP3   OH238312   5.720   6.689   3.702
12790TIP3    H138313   5.781   6.616   3.713
12790TIP3    H238314   5.657   6.657   3.638
12791TIP3   OH238315   4.331   2.402   4.538
12791TIP3    H138316   4.422   2.423   4.517
12791TIP3    H238317   4.300   2.478   4.588
12792TIP3   OH238318   8.263   4.035   3.216
12792TIP3    H138319   8.290   3.955   3.260
12792TIP3    H238320   8.170   4.022   3.195
12793TIP3   OH238321   6.476   4.021   4.548
12793TIP3    H138322   6.491   3.969   4.628
12793TIP3    H238323   6.555   4.008   4.496
12794TIP3   OH238324   0.614   6.686   0.946
12794TIP3    H138325   0.708   6.678   0.960
12794TIP3    H238326   0.603   6.773   0.907
12795TIP3   OH238327   8.271   7.609   1.747
12795TIP3    H138328   8.263   7.588   1.840
12795TIP3    H238329   8.312   7.695   1.745
12796TIP3   OH238330   3.148   2.438   4.133
12796TIP3    H138331   3.210   2.508   4.114
12796TIP3    H238332   3.063   2.483   4.141
12797TIP3   OH238333   8.224   4.963   0.314
12797TIP3    H138334   8.150   4.988   0.369
12797TIP3    H238335   8.301   4.997   0.359
12798TIP3   OH238336   3.230   4.072   5.338
12798TIP3    H138337   3.187   4.157   5.351
12798TIP3    H238338   3.272   4.080   5.252
12799TIP3   OH238339   2.864   5.172   2.097
12799TIP3    H138340   2.946   5.194   2.053
12799TIP3    H238341   2.798   5.176   2.028
12800TIP3   OH238342   0.131   5.238   4.868
12800TIP3    H138343   0.104   5.196   4.950
12800TIP3    H238344   0.062   5.215   4.806
12801TIP3   OH238345   1.139   5.902   4.957
12801TIP3    H138346   1.075   5.968   4.929
12801TIP3    H238347   1.125   5.894   5.051
12802TIP3   OH238348   7.392   6.697   4.778
12802TIP3    H138349   7.340   6.618   4.795
12802TIP3    H238350   7.477   6.664   4.750
12803TIP3   OH238351   1.054   4.078   6.151
12803TIP3    H138352   1.048   4.166   6.189
12803TIP3    H238353   1.001   4.082   6.071
12804TIP3   OH238354   7.278   6.436   3.910
12804TIP3    H138355   7.194   6.406   3.873
12804TIP3    H238356   7.258   6.455   4.002
12805TIP3   OH238357   2.300   5.318   6.488
12805TIP3    H138358   2.293   5.227   6.517
12805TIP3    H238359   2.265   5.318   6.399
12806TIP3   OH238360   2.429   3.118   4.364
12806TIP3    H138361   2.423   3.168   4.283
12806TIP3    H238362   2.395   3.032   4.343
12807TIP3   OH238363   5.598   7.145   1.847
12807TIP3    H138364   5.606   7.225   1.899
12807TIP3    H238365   5.565   7.174   1.762
12808TIP3   OH238366   5.429   2.888   0.174
12808TIP3    H138367   5.505   2.857   0.224
12808TIP3    H238368   5.362   2.903   0.241
12809TIP3   OH238369   5.568   3.775   6.720
12809TIP3    H138370   5.646   3.822   6.691
12809TIP3    H238371   5.569   3.784   6.815
12810TIP3   OH238372   1.874   4.768   4.284
12810TIP3    H138373   1.782   4.748   4.301
12810TIP3    H238374   1.890   4.736   4.195
12811TIP3   OH238375   2.604   4.464   6.584
12811TIP3    H138376   2.673   4.403   6.557
12811TIP3    H238377   2.585   4.440   6.675
12812TIP3   OH238378   6.030   0.058   5.723
12812TIP3    H138379   6.072   0.016   5.799
12812TIP3    H238380   6.053   0.002   5.649
12813TIP3   OH238381   6.941   3.205   6.719
12813TIP3    H138382   6.937   3.111   6.703
12813TIP3    H238383   7.019   3.217   6.774
12814TIP3   OH238384   8.000   3.502   2.908
12814TIP3    H138385   8.044   3.587   2.913
12814TIP3    H238386   7.907   3.523   2.913
12815TIP3   OH238387   3.421   3.189   5.550
12815TIP3    H138388   3.474   3.109   5.558
12815TIP3    H238389   3.426   3.212   5.458
12816TIP3   OH238390   0.130   1.121   3.710
12816TIP3    H138391   0.102   1.209   3.684
12816TIP3    H238392   0.052   1.067   3.700
12817TIP3   OH238393   6.189   5.094   2.128
12817TIP3    H138394   6.207   5.010   2.169
12817TIP3    H238395   6.211   5.082   2.036
12818TIP3   OH238396   4.965   6.008   1.499
12818TIP3    H138397   5.055   5.981   1.479
12818TIP3    H238398   4.966   6.026   1.593
12819TIP3   OH238399   4.828   0.072   3.473
12819TIP3    H138400   4.856   0.052   3.383
12819TIP3    H238401   4.846  -0.008   3.522
12820TIP3   OH238402   7.076   5.709   6.164
12820TIP3    H138403   7.089   5.797   6.200
12820TIP3    H238404   6.998   5.676   6.209
12821TIP3   OH238405   1.671   7.726   3.545
12821TIP3    H138406   1.715   7.713   3.461
12821TIP3    H238407   1.710   7.805   3.581
12822TIP3   OH238408   1.201   3.280   4.544
12822TIP3    H138409   1.241   3.222   4.610
12822TIP3    H238410   1.229   3.243   4.460
12823TIP3   OH238411   0.582   3.545   4.756
12823TIP3    H138412   0.536   3.486   4.696
12823TIP3    H238413   0.656   3.494   4.789
12824TIP3   OH238414   5.756   5.941   1.897
12824TIP3    H138415   5.786   6.012   1.953
12824TIP3    H238416   5.667   5.922   1.929
12825TIP3   OH238417   5.976   7.147   6.150
12825TIP3    H138418   6.009   7.086   6.084
12825TIP3    H238419   6.037   7.138   6.224
12826TIP3   OH238420   1.134   0.923   0.041
12826TIP3    H138421   1.116   1.017   0.028
12826TIP3    H238422   1.047   0.882   0.039
12827TIP3   OH238423   1.079   3.113   5.438
12827TIP3    H138424   1.067   3.055   5.363
12827TIP3    H238425   1.088   3.055   5.513
12828TIP3   OH238426   5.395   1.906   4.151
12828TIP3    H138427   5.421   1.886   4.061
12828TIP3    H238428   5.307   1.871   4.159
12829TIP3   OH238429   5.267   2.002   5.087
12829TIP3    H138430   5.199   1.938   5.068
12829TIP3    H238431   5.225   2.087   5.071
12830TIP3   OH238432   4.828   1.060   5.934
12830TIP3    H138433   4.733   1.070   5.930
12830TIP3    H238434   4.862   1.147   5.913
12831TIP3   OH238435   0.789   6.760   6.284
12831TIP3    H138436   0.748   6.752   6.370
12831TIP3    H238437   0.847   6.835   6.291
12832TIP3   OH238438   0.046   0.250   4.189
12832TIP3    H138439   0.072   0.222   4.277
12832TIP3    H238440   0.123   0.294   4.153
12833TIP3   OH238441   6.764   1.371   6.401
12833TIP3    H138442   6.794   1.281   6.410
12833TIP3    H238443   6.815   1.407   6.329
12834TIP3   OH238444   8.013   7.096   5.526
12834TIP3    H138445   8.081   7.033   5.551
12834TIP3    H238446   7.976   7.126   5.609
12835TIP3   OH238447   6.435   3.779   3.558
12835TIP3    H138448   6.509   3.744   3.608
12835TIP3    H238449   6.435   3.729   3.477
12836TIP3   OH238450   2.483   4.065   0.690
12836TIP3    H138451   2.488   3.990   0.749
12836TIP3    H238452   2.468   4.027   0.604
12837TIP3   OH238453   0.113   3.546   1.870
12837TIP3    H138454   0.193   3.498   1.890
12837TIP3    H238455   0.104   3.608   1.942
12838TIP3   OH238456   0.776   0.536   5.769
12838TIP3    H138457   0.712   0.595   5.730
12838TIP3    H238458   0.738   0.511   5.853
12839TIP3   OH238459   2.853   1.976   1.556
12839TIP3    H138460   2.774   1.925   1.570
12839TIP3    H238461   2.925   1.916   1.574
12840TIP3   OH238462   8.050   5.243   3.259
12840TIP3    H138463   7.955   5.254   3.250
12840TIP3    H238464   8.064   5.235   3.353
12841TIP3   OH238465   5.833   3.234   0.071
12841TIP3    H138466   5.908   3.277   0.112
12841TIP3    H238467   5.871   3.181   0.002
12842TIP3   OH238468   7.568   2.502   5.698
12842TIP3    H138469   7.586   2.416   5.735
12842TIP3    H238470   7.524   2.485   5.615
12843TIP3   OH238471   3.003   0.273   4.185
12843TIP3    H138472   2.984   0.361   4.218
12843TIP3    H238473   2.956   0.214   4.245
12844TIP3   OH238474   4.443   0.603   2.084
12844TIP3    H138475   4.411   0.691   2.065
12844TIP3    H238476   4.381   0.544   2.041
12845TIP3   OH238477   2.328   6.607   6.281
12845TIP3    H138478   2.269   6.536   6.252
12845TIP3    H238479   2.337   6.592   6.375
12846TIP3   OH238480   0.455   5.892   0.656
12846TIP3    H138481   0.364   5.877   0.630
12846TIP3    H238482   0.450   5.936   0.741
12847TIP3   OH238483   6.432   4.535   6.551
12847TIP3    H138484   6.450   4.563   6.640
12847TIP3    H238485   6.338   4.549   6.539
12848TIP3   OH238486   6.921   4.591   6.010
12848TIP3    H138487   6.995   4.564   5.956
12848TIP3    H238488   6.844   4.574   5.956
12849TIP3   OH238489   6.098   5.576   3.167
12849TIP3    H138490   6.174   5.596   3.222
12849TIP3    H238491   6.125   5.602   3.079
12850TIP3   OH238492   1.051   1.305   5.243
12850TIP3    H138493   0.983   1.300   5.175
12850TIP3    H238494   1.083   1.215   5.251
12851TIP3   OH238495   6.254   2.460   4.955
12851TIP3    H138496   6.271   2.402   4.880
12851TIP3    H238497   6.339   2.469   4.998
12852TIP3   OH238498   7.996   0.667   1.340
12852TIP3    H138499   8.068   0.624   1.294
12852TIP3    H238500   8.021   0.759   1.343
12853TIP3   OH238501   4.969   2.871   0.177
12853TIP3    H138502   4.993   2.908   0.263
12853TIP3    H238503   4.950   2.779   0.195
12854TIP3   OH238504   4.629   1.191   1.889
12854TIP3    H138505   4.607   1.284   1.886
12854TIP3    H238506   4.662   1.171   1.801
12855TIP3   OH238507   7.440   7.512   4.633
12855TIP3    H138508   7.530   7.481   4.636
12855TIP3    H238509   7.399   7.477   4.712
12856TIP3   OH238510   6.007   5.343   4.781
12856TIP3    H138511   6.098   5.362   4.755
12856TIP3    H238512   5.954   5.395   4.720
12857TIP3   OH238513   4.095   2.760   0.182
12857TIP3    H138514   4.045   2.830   0.140
12857TIP3    H238515   4.043   2.734   0.257
12858TIP3   OH238516   5.906   1.153   4.777
12858TIP3    H138517   5.879   1.244   4.765
12858TIP3    H238518   5.997   1.157   4.805
12859TIP3   OH238519   4.096   4.379   4.651
12859TIP3    H138520   4.047   4.326   4.588
12859TIP3    H238521   4.062   4.353   4.736
12860TIP3   OH238522   8.033   6.818   4.296
12860TIP3    H138523   8.053   6.780   4.382
12860TIP3    H238524   7.978   6.752   4.253
12861TIP3   OH238525   4.779   6.542   0.561
12861TIP3    H138526   4.702   6.535   0.618
12861TIP3    H238527   4.853   6.545   0.622
12862TIP3   OH238528   1.327   2.287   4.574
12862TIP3    H138529   1.234   2.290   4.593
12862TIP3    H238530   1.340   2.206   4.526
12863TIP3   OH238531   5.544   6.081   5.422
12863TIP3    H138532   5.639   6.093   5.422
12863TIP3    H238533   5.519   6.090   5.330
12864TIP3   OH238534   7.940   6.207   0.983
12864TIP3    H138535   7.906   6.128   0.943
12864TIP3    H238536   7.899   6.279   0.934
12865TIP3   OH238537   0.384   0.570   4.462
12865TIP3    H138538   0.443   0.643   4.483
12865TIP3    H238539   0.301   0.611   4.439
12866TIP3   OH238540   7.363   3.141   1.432
12866TIP3    H138541   7.353   3.209   1.365
12866TIP3    H238542   7.456   3.117   1.428
12867TIP3   OH238543   2.252   3.597   1.014
12867TIP3    H138544   2.334   3.588   1.063
12867TIP3    H238545   2.184   3.589   1.081
12868TIP3   OH238546   8.105   6.124   2.905
12868TIP3    H138547   8.023   6.172   2.892
12868TIP3    H238548   8.077   6.032   2.915
12869TIP3   OH238549   0.468   3.107   1.798
12869TIP3    H138550   0.419   3.185   1.824
12869TIP3    H238551   0.512   3.079   1.878
12870TIP3   OH238552   6.524   2.838   3.004
12870TIP3    H138553   6.573   2.918   3.020
12870TIP3    H238554   6.561   2.775   3.066
12871TIP3   OH238555   0.907   0.283   3.704
12871TIP3    H138556   0.817   0.273   3.674
12871TIP3    H238557   0.942   0.194   3.705
12872TIP3   OH238558   1.978   7.308   2.598
12872TIP3    H138559   1.886   7.302   2.624
12872TIP3    H238560   1.978   7.295   2.503
12873TIP3   OH238561   4.758   5.871   1.194
12873TIP3    H138562   4.729   5.832   1.276
12873TIP3    H238563   4.853   5.859   1.193
12874TIP3   OH238564   2.208   7.446   6.327
12874TIP3    H138565   2.142   7.484   6.386
12874TIP3    H238566   2.262   7.392   6.384
12875TIP3   OH238567   6.841   2.909   6.668
12875TIP3    H138568   6.816   2.818   6.684
12875TIP3    H238569   6.934   2.905   6.646
12876TIP3   OH238570   1.778   2.213   5.726
12876TIP3    H138571   1.703   2.155   5.738
12876TIP3    H238572   1.751   2.296   5.767
12877TIP3   OH238573   0.874   0.526   3.843
12877TIP3    H138574   0.907   0.450   3.794
12877TIP3    H238575   0.794   0.494   3.885
12878TIP3   OH238576   3.447   4.790   6.241
12878TIP3    H138577   3.458   4.702   6.279
12878TIP3    H238578   3.370   4.781   6.184
12879TIP3   OH238579   2.607   0.740   2.297
12879TIP3    H138580   2.555   0.660   2.301
12879TIP3    H238581   2.582   0.781   2.214
12880TIP3   OH238582   6.618   4.931   3.817
12880TIP3    H138583   6.550   4.979   3.770
12880TIP3    H238584   6.633   4.852   3.765
12881TIP3   OH238585   3.833   3.126   2.663
12881TIP3    H138586   3.825   3.186   2.589
12881TIP3    H238587   3.852   3.183   2.738
12882TIP3   OH238588   1.669   0.448   1.431
12882TIP3    H138589   1.582   0.410   1.441
12882TIP3    H238590   1.686   0.444   1.336
12883TIP3   OH238591   7.438   4.297   5.379
12883TIP3    H138592   7.398   4.325   5.461
12883TIP3    H238593   7.369   4.309   5.313
12884TIP3   OH238594   3.286   0.875   2.970
12884TIP3    H138595   3.288   0.829   3.054
12884TIP3    H238596   3.272   0.966   2.993
12885TIP3   OH238597   1.048   3.509   5.778
12885TIP3    H138598   1.008   3.567   5.842
12885TIP3    H238599   1.086   3.438   5.830
12886TIP3   OH238600   4.808   3.621   2.708
12886TIP3    H138601   4.793   3.690   2.643
12886TIP3    H238602   4.749   3.551   2.682
12887TIP3   OH238603   4.726   0.451   0.644
12887TIP3    H138604   4.701   0.487   0.729
12887TIP3    H238605   4.642   0.425   0.604
12888TIP3   OH238606   0.527   3.000   4.202
12888TIP3    H138607   0.601   3.032   4.151
12888TIP3    H238608   0.549   3.019   4.293
12889TIP3   OH238609   2.598   4.641   5.525
12889TIP3    H138610   2.546   4.720   5.508
12889TIP3    H238611   2.538   4.583   5.571
12890TIP3   OH238612   5.503   2.592   4.885
12890TIP3    H138613   5.536   2.504   4.866
12890TIP3    H238614   5.578   2.638   4.922
12891TIP3   OH238615   3.528   6.092   0.476
12891TIP3    H138616   3.609   6.131   0.509
12891TIP3    H238617   3.542   6.086   0.381
12892TIP3   OH238618   4.998   1.730   4.547
12892TIP3    H138619   4.944   1.808   4.539
12892TIP3    H238620   5.082   1.754   4.507
12893TIP3   OH238621   4.826   2.025   0.923
12893TIP3    H138622   4.738   2.059   0.908
12893TIP3    H238623   4.821   1.932   0.900
12894TIP3   OH238624   5.899   3.193   5.106
12894TIP3    H138625   5.819   3.141   5.103
12894TIP3    H238626   5.877   3.273   5.057
12895TIP3   OH238627   3.062   1.389   5.900
12895TIP3    H138628   3.060   1.301   5.937
12895TIP3    H238629   3.119   1.382   5.823
12896TIP3   OH238630   1.769   2.906   5.590
12896TIP3    H138631   1.845   2.932   5.642
12896TIP3    H238632   1.796   2.824   5.547
12897TIP3   OH238633   4.567   4.379   1.672
12897TIP3    H138634   4.502   4.308   1.665
12897TIP3    H238635   4.631   4.358   1.604
12898TIP3   OH238636   4.267   6.742   5.822
12898TIP3    H138637   4.265   6.815   5.760
12898TIP3    H238638   4.322   6.677   5.779
12899TIP3   OH238639   7.033   0.151   0.467
12899TIP3    H138640   6.995   0.236   0.445
12899TIP3    H238641   7.126   0.169   0.478
12900TIP3   OH238642   6.267   2.918   4.953
12900TIP3    H138643   6.219   2.989   4.997
12900TIP3    H238644   6.254   2.842   5.010
12901TIP3   OH238645   6.059   6.961   0.520
12901TIP3    H138646   6.118   7.033   0.499
12901TIP3    H238647   6.098   6.920   0.597
12902TIP3   OH238648   5.679   3.055   1.025
12902TIP3    H138649   5.621   3.116   1.070
12902TIP3    H238650   5.760   3.056   1.076
12903TIP3   OH238651   3.405   6.696   2.256
12903TIP3    H138652   3.478   6.643   2.287
12903TIP3    H238653   3.399   6.768   2.320
12904TIP3   OH238654   6.992   5.402   5.432
12904TIP3    H138655   7.007   5.334   5.497
12904TIP3    H238656   7.027   5.366   5.350
12905TIP3   OH238657   1.189   0.701   0.313
12905TIP3    H138658   1.136   0.753   0.373
12905TIP3    H238659   1.238   0.765   0.261
12906TIP3   OH238660   5.183   0.110   1.157
12906TIP3    H138661   5.110   0.172   1.160
12906TIP3    H238662   5.231   0.134   1.077
12907TIP3   OH238663   8.088   5.417   2.760
12907TIP3    H138664   8.039   5.468   2.695
12907TIP3    H238665   8.150   5.366   2.708
12908TIP3   OH238666   2.728   5.544   6.549
12908TIP3    H138667   2.733   5.471   6.487
12908TIP3    H238668   2.732   5.502   6.635
12909TIP3   OH238669   0.079   6.706   4.168
12909TIP3    H138670   0.012   6.742   4.110
12909TIP3    H238671   0.109   6.781   4.219
12910TIP3   OH238672   1.081   5.296   2.471
12910TIP3    H138673   1.003   5.245   2.493
12910TIP3    H238674   1.151   5.231   2.466
12911TIP3   OH238675   1.390   1.205   5.121
12911TIP3    H138676   1.353   1.119   5.141
12911TIP3    H238677   1.327   1.244   5.061
12912TIP3   OH238678   0.072   6.874   1.689
12912TIP3    H138679   0.033   6.791   1.660
12912TIP3    H238680   0.047   6.937   1.622
12913TIP3   OH238681   1.579   2.177   2.665
12913TIP3    H138682   1.492   2.215   2.677
12913TIP3    H238683   1.629   2.208   2.741
12914TIP3   OH238684   7.108   7.374   4.476
12914TIP3    H138685   7.118   7.365   4.571
12914TIP3    H238686   7.134   7.464   4.458
12915TIP3   OH238687   0.503   5.921   3.459
12915TIP3    H138688   0.439   5.966   3.515
12915TIP3    H238689   0.450   5.882   3.389
12916TIP3   OH238690   1.337   0.407   3.482
12916TIP3    H138691   1.411   0.373   3.432
12916TIP3    H238692   1.354   0.501   3.488
12917TIP3   OH238693   4.761   1.680   6.441
12917TIP3    H138694   4.681   1.646   6.401
12917TIP3    H238695   4.745   1.774   6.451
12918TIP3   OH238696   6.380   4.876   0.933
12918TIP3    H138697   6.337   4.826   0.863
12918TIP3    H238698   6.472   4.874   0.910
12919TIP3   OH238699   3.996   3.596   3.911
12919TIP3    H138700   4.055   3.670   3.898
12919TIP3    H238701   4.026   3.530   3.849
12920TIP3   OH238702   6.634   7.205   3.917
12920TIP3    H138703   6.593   7.257   3.847
12920TIP3    H238704   6.728   7.211   3.898
12921TIP3   OH238705   2.928   3.181   6.753
12921TIP3    H138706   2.983   3.260   6.758
12921TIP3    H238707   2.840   3.213   6.773
12922TIP3   OH238708   5.928   3.036   5.766
12922TIP3    H138709   5.849   2.998   5.804
12922TIP3    H238710   5.982   3.061   5.841
12923TIP3   OH238711   6.341   4.455   5.143
12923TIP3    H138712   6.302   4.542   5.147
12923TIP3    H238713   6.267   4.397   5.122
12924TIP3   OH238714   0.978   0.044   3.476
12924TIP3    H138715   1.040   0.097   3.425
12924TIP3    H238716   0.893   0.084   3.459
12925TIP3   OH238717   2.952   1.229   5.201
12925TIP3    H138718   2.864   1.261   5.178
12925TIP3    H238719   2.996   1.306   5.238
12926TIP3   OH238720   7.552   2.288   2.612
12926TIP3    H138721   7.613   2.274   2.684
12926TIP3    H238722   7.470   2.313   2.655
12927TIP3   OH238723   2.564   1.861   0.474
12927TIP3    H138724   2.489   1.838   0.528
12927TIP3    H238725   2.525   1.896   0.393
12928TIP3   OH238726   0.412   4.305   3.807
12928TIP3    H138727   0.455   4.234   3.855
12928TIP3    H238728   0.382   4.366   3.875
12929TIP3   OH238729   5.554   1.543   2.059
12929TIP3    H138730   5.515   1.561   2.145
12929TIP3    H238731   5.531   1.451   2.042
12930TIP3   OH238732   0.672   1.483   3.693
12930TIP3    H138733   0.592   1.505   3.645
12930TIP3    H238734   0.730   1.558   3.678
12931TIP3   OH238735   0.876   0.144   2.640
12931TIP3    H138736   0.816   0.070   2.628
12931TIP3    H238737   0.819   0.220   2.652
12932TIP3   OH238738   6.869   1.821   3.199
12932TIP3    H138739   6.908   1.850   3.282
12932TIP3    H238740   6.823   1.898   3.166
12933TIP3   OH238741   0.607   6.577   1.590
12933TIP3    H138742   0.587   6.616   1.675
12933TIP3    H238743   0.529   6.592   1.538
12934TIP3   OH238744   4.611   6.467   3.610
12934TIP3    H138745   4.630   6.374   3.622
12934TIP3    H238746   4.626   6.505   3.696
12935TIP3   OH238747   4.971   4.077   6.384
12935TIP3    H138748   5.040   4.116   6.438
12935TIP3    H238749   4.998   4.094   6.294
12936TIP3   OH238750   2.263   5.185   4.246
12936TIP3    H138751   2.196   5.120   4.225
12936TIP3    H238752   2.346   5.141   4.227
12937TIP3   OH238753   7.677   3.552   3.109
12937TIP3    H138754   7.629   3.479   3.069
12937TIP3    H238755   7.676   3.533   3.203
12938TIP3   OH238756   5.533   1.660   3.619
12938TIP3    H138757   5.598   1.694   3.557
12938TIP3    H238758   5.491   1.587   3.572
12939TIP3   OH238759   2.785   1.166   0.374
12939TIP3    H138760   2.690   1.172   0.365
12939TIP3    H238761   2.819   1.202   0.292
12940TIP3   OH238762   8.038   7.083   2.911
12940TIP3    H138763   8.113   7.080   2.970
12940TIP3    H238764   8.023   7.176   2.895
12941TIP3   OH238765   2.157   5.075   2.963
12941TIP3    H138766   2.110   4.997   2.933
12941TIP3    H238767   2.100   5.113   3.030
12942TIP3   OH238768   1.062   5.349   1.713
12942TIP3    H138769   1.091   5.432   1.675
12942TIP3    H238770   0.968   5.345   1.696
12943TIP3   OH238771   2.777   6.130   4.665
12943TIP3    H138772   2.833   6.144   4.588
12943TIP3    H238773   2.822   6.061   4.714
12944TIP3   OH238774   1.503   3.091   0.088
12944TIP3    H138775   1.520   3.159   0.153
12944TIP3    H238776   1.587   3.076   0.046
12945TIP3   OH238777   3.684   0.049   1.382
12945TIP3    H138778   3.636   0.002   1.315
12945TIP3    H238779   3.617   0.094   1.433
12946TIP3   OH238780   5.751   5.863   1.295
12946TIP3    H138781   5.751   5.871   1.391
12946TIP3    H238782   5.844   5.864   1.272
12947TIP3   OH238783   0.812   1.219   3.286
12947TIP3    H138784   0.724   1.228   3.322
12947TIP3    H238785   0.862   1.290   3.328
12948TIP3   OH238786   4.255   3.244   3.499
12948TIP3    H138787   4.281   3.162   3.542
12948TIP3    H238788   4.327   3.304   3.517
12949TIP3   OH238789   4.917   7.518   5.247
12949TIP3    H138790   4.908   7.584   5.315
12949TIP3    H238791   4.907   7.434   5.293
12950TIP3   OH238792   2.771   2.922   6.155
12950TIP3    H138793   2.682   2.954   6.139
12950TIP3    H238794   2.790   2.866   6.079
12951TIP3   OH238795   7.921   7.020   3.322
12951TIP3    H138796   7.989   7.057   3.379
12951TIP3    H238797   7.898   6.937   3.365
12952TIP3   OH238798   7.261   6.830   3.901
12952TIP3    H138799   7.256   6.851   3.994
12952TIP3    H238800   7.334   6.769   3.894
12953TIP3   OH238801   0.061   2.453   3.200
12953TIP3    H138802   0.051   2.381   3.138
12953TIP3    H238803   0.151   2.445   3.231
12954TIP3   OH238804   6.752   0.185   1.316
12954TIP3    H138805   6.665   0.189   1.277
12954TIP3    H238806   6.809   0.229   1.253
12955TIP3   OH238807   5.212   5.874   1.393
12955TIP3    H138808   5.139   5.850   1.337
12955TIP3    H238809   5.265   5.795   1.400
12956TIP3   OH238810   0.835   4.780   0.165
12956TIP3    H138811   0.856   4.687   0.166
12956TIP3    H238812   0.787   4.795   0.247
12957TIP3   OH238813   6.533   7.095   1.865
12957TIP3    H138814   6.546   7.164   1.800
12957TIP3    H238815   6.541   7.139   1.949
12958TIP3   OH238816   2.511   6.336   6.305
12958TIP3    H138817   2.596   6.304   6.275
12958TIP3    H238818   2.461   6.349   6.224
12959TIP3   OH238819   0.332   2.850   5.479
12959TIP3    H138820   0.298   2.833   5.567
12959TIP3    H238821   0.424   2.827   5.484
12960TIP3   OH238822   3.437   7.813   5.917
12960TIP3    H138823   3.501   7.749   5.887
12960TIP3    H238824   3.418   7.789   6.007
12961TIP3   OH238825   0.763   7.094   0.447
12961TIP3    H138826   0.838   7.069   0.502
12961TIP3    H238827   0.801   7.108   0.360
12962TIP3   OH238828   2.860   3.432   1.535
12962TIP3    H138829   2.812   3.349   1.524
12962TIP3    H238830   2.859   3.471   1.447
12963TIP3   OH238831   7.888   3.050   4.837
12963TIP3    H138832   7.958   3.075   4.776
12963TIP3    H238833   7.808   3.075   4.792
12964TIP3   OH238834   1.917   2.706   2.869
12964TIP3    H138835   1.895   2.613   2.856
12964TIP3    H238836   2.010   2.712   2.848
12965TIP3   OH238837   1.228   6.841   3.692
12965TIP3    H138838   1.200   6.767   3.639
12965TIP3    H238839   1.165   6.845   3.764
12966TIP3   OH238840   7.315   6.174   0.473
12966TIP3    H138841   7.400   6.149   0.510
12966TIP3    H238842   7.333   6.251   0.420
12967TIP3   OH238843   5.273   7.760   3.106
12967TIP3    H138844   5.192   7.744   3.058
12967TIP3    H238845   5.245   7.786   3.194
12968TIP3   OH238846   4.068   7.523   4.537
12968TIP3    H138847   4.079   7.617   4.555
12968TIP3    H238848   4.151   7.497   4.496
12969TIP3   OH238849   3.450   3.377   0.701
12969TIP3    H138850   3.379   3.436   0.727
12969TIP3    H238851   3.413   3.290   0.712
12970TIP3   OH238852   4.214   3.894   6.564
12970TIP3    H138853   4.309   3.901   6.571
12970TIP3    H238854   4.188   3.972   6.515
12971TIP3   OH238855   4.174   6.700   4.304
12971TIP3    H138856   4.258   6.729   4.338
12971TIP3    H238857   4.152   6.622   4.355
12972TIP3   OH238858   2.550   1.582   4.907
12972TIP3    H138859   2.550   1.504   4.963
12972TIP3    H238860   2.470   1.629   4.933
12973TIP3   OH238861   2.023   3.021   3.046
12973TIP3    H138862   2.037   3.048   2.955
12973TIP3    H238863   2.004   2.927   3.041
12974TIP3   OH238864   2.636   4.634   1.439
12974TIP3    H138865   2.660   4.657   1.349
12974TIP3    H238866   2.714   4.588   1.472
12975TIP3   OH238867   5.226   1.283   4.648
12975TIP3    H138868   5.138   1.265   4.679
12975TIP3    H238869   5.243   1.374   4.674
12976TIP3   OH238870   3.433   0.994   5.499
12976TIP3    H138871   3.522   0.992   5.534
12976TIP3    H238872   3.382   0.940   5.560
12977TIP3   OH238873   3.053   3.872   5.218
12977TIP3    H138874   3.109   3.927   5.272
12977TIP3    H238875   2.966   3.879   5.258
12978TIP3   OH238876   6.373   1.360   0.831
12978TIP3    H138877   6.431   1.436   0.822
12978TIP3    H238878   6.432   1.285   0.839
12979TIP3   OH238879   5.745   4.010   1.014
12979TIP3    H138880   5.791   3.965   1.085
12979TIP3    H238881   5.790   4.094   1.006
12980TIP3   OH238882   5.727   3.197   5.532
12980TIP3    H138883   5.740   3.230   5.621
12980TIP3    H238884   5.724   3.275   5.477
12981TIP3   OH238885   2.904   2.163   2.070
12981TIP3    H138886   2.817   2.195   2.046
12981TIP3    H238887   2.947   2.147   1.986
12982TIP3   OH238888   6.565   7.608   4.689
12982TIP3    H138889   6.660   7.619   4.697
12982TIP3    H238890   6.541   7.549   4.761
12983TIP3   OH238891   4.202   0.130   6.246
12983TIP3    H138892   4.158   0.086   6.320
12983TIP3    H238893   4.243   0.207   6.286
12984TIP3   OH238894   3.386   4.358   5.442
12984TIP3    H138895   3.394   4.275   5.490
12984TIP3    H238896   3.411   4.425   5.506
12985TIP3   OH238897   6.654   3.553   5.440
12985TIP3    H138898   6.614   3.634   5.472
12985TIP3    H238899   6.741   3.580   5.409
12986TIP3   OH238900   7.521   0.977   3.211
12986TIP3    H138901   7.485   0.941   3.292
12986TIP3    H238902   7.595   1.031   3.239
12987TIP3   OH238903   5.243   7.018   0.517
12987TIP3    H138904   5.253   7.069   0.598
12987TIP3    H238905   5.322   7.038   0.467
12988TIP3   OH238906   2.902   4.299   2.143
12988TIP3    H138907   2.993   4.272   2.154
12988TIP3    H238908   2.901   4.346   2.060
12989TIP3   OH238909   0.703   3.621   6.751
12989TIP3    H138910   0.719   3.673   6.829
12989TIP3    H238911   0.791   3.603   6.716
12990TIP3   OH238912   5.641   4.705   4.484
12990TIP3    H138913   5.723   4.755   4.479
12990TIP3    H238914   5.613   4.715   4.574
12991TIP3   OH238915   5.791   6.602   1.856
12991TIP3    H138916   5.815   6.535   1.919
12991TIP3    H238917   5.851   6.674   1.873
12992TIP3   OH238918   7.042   6.093   5.917
12992TIP3    H138919   7.109   6.106   5.849
12992TIP3    H238920   6.988   6.021   5.883
12993TIP3   OH238921   7.742   3.256   2.039
12993TIP3    H138922   7.659   3.213   2.061
12993TIP3    H238923   7.722   3.307   1.961
12994TIP3   OH238924   5.841   0.252   4.776
12994TIP3    H138925   5.933   0.259   4.749
12994TIP3    H238926   5.792   0.293   4.705
12995TIP3   OH238927   7.599   5.974   4.204
12995TIP3    H138928   7.678   6.013   4.242
12995TIP3    H238929   7.564   5.919   4.275
12996TIP3   OH238930   8.007   2.039   1.757
12996TIP3    H138931   7.986   2.056   1.849
12996TIP3    H238932   8.096   2.006   1.758
12997TIP3   OH238933   3.621   3.087   1.713
12997TIP3    H138934   3.618   3.143   1.636
12997TIP3    H238935   3.547   3.027   1.701
12998TIP3   OH238936   0.766   0.996   6.582
12998TIP3    H138937   0.712   0.923   6.612
12998TIP3    H238938   0.702   1.063   6.557
12999TIP3   OH238939   7.022   4.946   0.813
12999TIP3    H138940   7.096   4.995   0.775
12999TIP3    H238941   6.945   4.983   0.770
13000TIP3   OH238942   3.587   3.114   1.172
13000TIP3    H138943   3.575   3.021   1.191
13000TIP3    H238944   3.666   3.118   1.119
13001TIP3   OH238945   7.103   5.671   1.940
13001TIP3    H138946   7.160   5.670   2.017
13001TIP3    H238947   7.118   5.588   1.896
13002TIP3   OH238948   5.814   6.065   5.409
13002TIP3    H138949   5.796   5.972   5.396
13002TIP3    H238950   5.853   6.070   5.496
13003TIP3   OH238951   0.491   6.934   0.201
13003TIP3    H138952   0.481   7.029   0.202
13003TIP3    H238953   0.446   6.904   0.279
13004TIP3   OH238954   4.430   2.191   4.797
13004TIP3    H138955   4.357   2.225   4.745
13004TIP3    H238956   4.447   2.104   4.761
13005TIP3   OH238957   5.684   6.283   4.245
13005TIP3    H138958   5.715   6.358   4.295
13005TIP3    H238959   5.729   6.289   4.161
13006TIP3   OH238960   3.891   7.357   2.637
13006TIP3    H138961   3.799   7.368   2.612
13006TIP3    H238962   3.920   7.280   2.587
13007TIP3   OH238963   5.893   6.197   5.704
13007TIP3    H138964   5.944   6.268   5.666
13007TIP3    H238965   5.805   6.233   5.714
13008TIP3   OH238966   0.220   1.228   2.238
13008TIP3    H138967   0.127   1.205   2.235
13008TIP3    H238968   0.264   1.146   2.261
13009TIP3   OH238969   7.315   4.380   3.400
13009TIP3    H138970   7.249   4.392   3.468
13009TIP3    H238971   7.399   4.391   3.445
13010TIP3   OH238972   0.868   2.693   0.674
13010TIP3    H138973   0.868   2.647   0.758
13010TIP3    H238974   0.861   2.786   0.697
13011TIP3   OH238975   5.530   3.211   1.184
13011TIP3    H138976   5.579   3.263   1.248
13011TIP3    H238977   5.452   3.182   1.231
13012TIP3   OH238978   3.767   3.574   0.056
13012TIP3    H138979   3.676   3.601   0.069
13012TIP3    H238980   3.760   3.495   0.003
13013TIP3   OH238981   3.840   3.398   1.475
13013TIP3    H138982   3.891   3.351   1.408
13013TIP3    H238983   3.842   3.489   1.445
13014TIP3   OH238984   3.695   1.371   0.692
13014TIP3    H138985   3.698   1.304   0.760
13014TIP3    H238986   3.735   1.331   0.616
13015TIP3   OH238987   6.616   6.025   6.470
13015TIP3    H138988   6.576   5.953   6.518
13015TIP3    H238989   6.567   6.030   6.388
13016TIP3   OH238990   4.082   0.168   2.553
13016TIP3    H138991   4.083   0.205   2.642
13016TIP3    H238992   4.025   0.226   2.503
13017TIP3   OH238993   0.452   0.792   4.240
13017TIP3    H138994   0.486   0.873   4.203
13017TIP3    H238995   0.386   0.762   4.177
13018TIP3   OH238996   5.220   6.524   6.670
13018TIP3    H138997   5.142   6.501   6.620
13018TIP3    H238998   5.293   6.506   6.610
13019TIP3   OH238999   8.018   6.448   1.142
13019TIP3    H139000   7.945   6.505   1.118
13019TIP3    H239001   8.005   6.370   1.087
13020TIP3   OH239002   6.808   1.011   5.979
13020TIP3    H139003   6.850   0.958   5.911
13020TIP3    H239004   6.879   1.037   6.037
13021TIP3   OH239005   3.170   6.838   0.258
13021TIP3    H139006   3.241   6.823   0.321
13021TIP3    H239007   3.201   6.910   0.204
13022TIP3   OH239008   3.981   0.612   2.128
13022TIP3    H139009   4.009   0.676   2.062
13022TIP3    H239010   3.890   0.591   2.104
13023TIP3   OH239011   4.583   5.715   3.248
13023TIP3    H139012   4.531   5.672   3.181
13023TIP3    H239013   4.650   5.763   3.200
13024TIP3   OH239014   5.306   1.538   3.153
13024TIP3    H139015   5.213   1.533   3.131
13024TIP3    H239016   5.351   1.517   3.071
13025TIP3   OH239017   4.735   6.956   3.615
13025TIP3    H139018   4.708   6.958   3.707
13025TIP3    H239019   4.656   6.931   3.568
13026TIP3   OH239020   5.531   2.109   1.066
13026TIP3    H139021   5.437   2.119   1.051
13026TIP3    H239022   5.556   2.036   1.010
13027TIP3   OH239023   6.069   0.686   0.616
13027TIP3    H139024   6.034   0.608   0.659
13027TIP3    H239025   6.019   0.759   0.654
13028TIP3   OH239026   3.524   5.947   3.064
13028TIP3    H139027   3.510   6.027   3.014
13028TIP3    H239028   3.619   5.935   3.065
13029TIP3   OH239029   1.749   5.695   4.219
13029TIP3    H139030   1.663   5.652   4.211
13029TIP3    H239031   1.739   5.754   4.293
13030TIP3   OH239032   3.171   4.044   5.877
13030TIP3    H139033   3.179   3.985   5.802
13030TIP3    H239034   3.077   4.050   5.893
13031TIP3   OH239035   0.626   2.774   3.348
13031TIP3    H139036   0.688   2.800   3.417
13031TIP3    H239037   0.599   2.857   3.309
13032TIP3   OH239038   2.058   2.444   0.337
13032TIP3    H139039   2.007   2.367   0.313
13032TIP3    H239040   2.127   2.410   0.394
13033TIP3   OH239041   8.018   3.873   3.432
13033TIP3    H139042   8.107   3.908   3.436
13033TIP3    H239043   8.029   3.778   3.441
13034TIP3   OH239044   6.450   3.198   4.951
13034TIP3    H139045   6.361   3.206   4.986
13034TIP3    H239046   6.442   3.136   4.878
13035TIP3   OH239047   2.994   3.186   2.208
13035TIP3    H139048   3.041   3.256   2.162
13035TIP3    H239049   2.997   3.112   2.147
13036TIP3   OH239050   2.959   0.514   3.043
13036TIP3    H139051   3.051   0.524   3.018
13036TIP3    H239052   2.912   0.575   2.985
13037TIP3   OH239053   3.739   0.367   4.663
13037TIP3    H139054   3.683   0.296   4.634
13037TIP3    H239055   3.679   0.429   4.705
13038TIP3   OH239056   7.819   1.464   2.514
13038TIP3    H139057   7.815   1.528   2.443
13038TIP3    H239058   7.896   1.491   2.565
13039TIP3   OH239059   0.311   5.001   5.996
13039TIP3    H139060   0.226   4.959   6.010
13039TIP3    H239061   0.375   4.933   6.018
13040TIP3   OH239062   3.195   1.624   5.000
13040TIP3    H139063   3.241   1.557   4.949
13040TIP3    H239064   3.161   1.577   5.076
13041TIP3   OH239065   4.671   2.147   4.940
13041TIP3    H139066   4.579   2.161   4.917
13041TIP3    H239067   4.672   2.141   5.035
13042TIP3   OH239068   1.854   0.635   5.978
13042TIP3    H139069   1.908   0.706   5.943
13042TIP3    H239070   1.848   0.572   5.907
13043TIP3   OH239071   7.236   6.302   3.078
13043TIP3    H139072   7.264   6.228   3.025
13043TIP3    H239073   7.252   6.275   3.169
13044TIP3   OH239074   6.277   3.927   3.832
13044TIP3    H139075   6.245   3.955   3.747
13044TIP3    H239076   6.372   3.937   3.828
13045TIP3   OH239077   2.289   3.918   3.805
13045TIP3    H139078   2.207   3.931   3.758
13045TIP3    H239079   2.351   3.889   3.738
13046TIP3   OH239080   3.392   2.284   6.682
13046TIP3    H139081   3.368   2.201   6.724
13046TIP3    H239082   3.339   2.350   6.726
13047TIP3   OH239083   2.017   4.586   3.008
13047TIP3    H139084   1.924   4.601   3.028
13047TIP3    H239085   2.034   4.498   3.040
13048TIP3   OH239086   4.056   3.182   5.096
13048TIP3    H139087   4.127   3.149   5.043
13048TIP3    H239088   3.976   3.149   5.054
13049TIP3   OH239089   3.319   4.431   5.180
13049TIP3    H139090   3.343   4.423   5.272
13049TIP3    H239091   3.337   4.522   5.158
13050TIP3   OH239092   6.972   1.336   5.454
13050TIP3    H139093   6.912   1.354   5.526
13050TIP3    H239094   7.003   1.247   5.470
13051TIP3   OH239095   3.668   6.718   4.168
13051TIP3    H139096   3.734   6.784   4.186
13051TIP3    H239097   3.698   6.675   4.088
13052TIP3   OH239098   6.115   3.199   5.652
13052TIP3    H139099   6.046   3.144   5.688
13052TIP3    H239100   6.154   3.146   5.582
13053TIP3   OH239101   2.922   1.235   4.735
13053TIP3    H139102   2.872   1.295   4.790
13053TIP3    H239103   3.013   1.248   4.763
13054TIP3   OH239104   2.938   0.661   5.479
13054TIP3    H139105   3.028   0.650   5.508
13054TIP3    H239106   2.924   0.756   5.476
13055TIP3   OH239107   1.275   1.445   4.326
13055TIP3    H139108   1.241   1.364   4.287
13055TIP3    H239109   1.324   1.415   4.403
13056TIP3   OH239110   6.489   6.500   5.067
13056TIP3    H139111   6.521   6.452   4.991
13056TIP3    H239112   6.393   6.494   5.061
13057TIP3   OH239113   1.691   3.126   2.272
13057TIP3    H139114   1.745   3.048   2.255
13057TIP3    H239115   1.752   3.199   2.263
13058TIP3   OH239116   1.306   3.458   5.112
13058TIP3    H139117   1.334   3.546   5.137
13058TIP3    H239118   1.331   3.451   5.020
13059TIP3   OH239119   0.714   2.176   1.095
13059TIP3    H139120   0.719   2.148   1.186
13059TIP3    H239121   0.632   2.224   1.089
13060TIP3   OH239122   2.681   3.922   1.050
13060TIP3    H139123   2.620   3.887   0.985
13060TIP3    H239124   2.624   3.953   1.121
13061TIP3   OH239125   2.289   0.941   0.463
13061TIP3    H139126   2.349   0.959   0.536
13061TIP3    H239127   2.299   1.017   0.405
13062TIP3   OH239128   7.646   5.709   5.950
13062TIP3    H139129   7.646   5.768   6.026
13062TIP3    H239130   7.572   5.651   5.965
13063TIP3   OH239131   4.569   3.902   0.299
13063TIP3    H139132   4.573   3.816   0.257
13063TIP3    H239133   4.590   3.886   0.390
13064TIP3   OH239134   5.023   3.417   1.318
13064TIP3    H139135   5.009   3.464   1.237
13064TIP3    H239136   4.994   3.327   1.300
13065TIP3   OH239137   7.550   3.895   0.923
13065TIP3    H139138   7.476   3.876   0.981
13065TIP3    H239139   7.515   3.956   0.859
13066TIP3   OH239140   0.428   5.625   5.177
13066TIP3    H139141   0.334   5.614   5.189
13066TIP3    H239142   0.454   5.687   5.245
13067TIP3   OH239143   3.707   0.837   0.669
13067TIP3    H139144   3.651   0.910   0.639
13067TIP3    H239145   3.735   0.863   0.756
13068TIP3   OH239146   1.058   6.512   1.685
13068TIP3    H139147   1.070   6.606   1.672
13068TIP3    H239148   0.971   6.494   1.650
13069TIP3   OH239149   3.879   6.894   0.025
13069TIP3    H139150   3.885   6.977  -0.022
13069TIP3    H239151   3.967   6.858   0.023
13070TIP3   OH239152   0.023   5.598   6.295
13070TIP3    H139153  -0.002   5.512   6.330
13070TIP3    H239154   0.119   5.600   6.304
13071TIP3   OH239155   3.176   5.008   0.833
13071TIP3    H139156   3.186   4.945   0.904
13071TIP3    H239157   3.106   5.066   0.862
13072TIP3   OH239158   7.255   4.972   5.487
13072TIP3    H139159   7.229   4.903   5.426
13072TIP3    H239160   7.184   5.036   5.483
13073TIP3   OH239161   1.938   2.135   1.606
13073TIP3    H139162   1.860   2.099   1.648
13073TIP3    H239163   1.996   2.060   1.595
13074TIP3   OH239164   3.796   3.476   4.075
13074TIP3    H139165   3.857   3.411   4.040
13074TIP3    H239166   3.842   3.559   4.066
13075TIP3   OH239167   6.888   4.189   1.730
13075TIP3    H139168   6.972   4.230   1.752
13075TIP3    H239169   6.832   4.263   1.703
13076TIP3   OH239170   2.778   1.011   1.758
13076TIP3    H139171   2.848   1.063   1.799
13076TIP3    H239172   2.750   1.064   1.684
13077TIP3   OH239173   3.476   5.905   4.327
13077TIP3    H139174   3.512   5.873   4.410
13077TIP3    H239175   3.523   5.986   4.310
13078TIP3   OH239176   1.591   6.225   2.470
13078TIP3    H139177   1.643   6.297   2.434
13078TIP3    H239178   1.551   6.184   2.393
13079TIP3   OH239179   6.833   0.943   3.555
13079TIP3    H139180   6.778   1.000   3.609
13079TIP3    H239181   6.853   0.996   3.477
13080TIP3   OH239182   2.083   1.358   2.230
13080TIP3    H139183   2.037   1.303   2.166
13080TIP3    H239184   2.065   1.318   2.315
13081TIP3   OH239185   8.195   2.819   0.545
13081TIP3    H139186   8.190   2.912   0.565
13081TIP3    H239187   8.275   2.789   0.588
13082TIP3   OH239188   5.575   1.715   2.995
13082TIP3    H139189   5.554   1.632   2.953
13082TIP3    H239190   5.666   1.733   2.969
13083TIP3   OH239191   4.624   4.880   3.331
13083TIP3    H139192   4.613   4.795   3.373
13083TIP3    H239193   4.540   4.924   3.344
13084TIP3   OH239194   0.098   3.372   6.664
13084TIP3    H139195   0.030   3.384   6.598
13084TIP3    H239196   0.179   3.363   6.613
13085TIP3   OH239197   2.536   5.647   2.088
13085TIP3    H139198   2.545   5.569   2.144
13085TIP3    H239199   2.487   5.709   2.142
13086TIP3   OH239200   0.482   1.415   6.614
13086TIP3    H139201   0.538   1.490   6.635
13086TIP3    H239202   0.393   1.450   6.619
13087TIP3   OH239203   4.785   1.637   5.005
13087TIP3    H139204   4.793   1.604   5.095
13087TIP3    H239205   4.838   1.716   5.004
13088TIP3   OH239206   5.798   0.201   0.718
13088TIP3    H139207   5.852   0.181   0.641
13088TIP3    H239208   5.808   0.124   0.774
13089TIP3   OH239209   3.993   2.365   5.143
13089TIP3    H139210   4.000   2.436   5.079
13089TIP3    H239211   4.071   2.375   5.198
13090TIP3   OH239212   0.054   1.884   2.938
13090TIP3    H139213  -0.012   1.853   2.876
13090TIP3    H239214   0.085   1.805   2.982
13091TIP3   OH239215   5.697   3.548   4.040
13091TIP3    H139216   5.786   3.512   4.033
13091TIP3    H239217   5.697   3.624   3.982
13092TIP3   OH239218   5.860   7.663   3.771
13092TIP3    H139219   5.837   7.654   3.863
13092TIP3    H239220   5.791   7.618   3.724
13093TIP3   OH239221   0.055   0.207   2.561
13093TIP3    H139222   0.071   0.115   2.579
13093TIP3    H239223   0.125   0.253   2.608
13094TIP3   OH239224   3.597   6.707   2.659
13094TIP3    H139225   3.547   6.629   2.634
13094TIP3    H239226   3.545   6.749   2.727
13095TIP3   OH239227   0.072   3.385   2.167
13095TIP3    H139228   0.044   3.476   2.177
13095TIP3    H239229  -0.009   3.336   2.150
13096TIP3   OH239230   4.141   6.750   3.932
13096TIP3    H139231   4.054   6.787   3.943
13096TIP3    H239232   4.126   6.657   3.915
13097TIP3   OH239233   2.955   0.915   3.003
13097TIP3    H139234   2.919   0.868   3.078
13097TIP3    H239235   3.021   0.974   3.041
13098TIP3   OH239236   7.727   5.362   3.761
13098TIP3    H139237   7.654   5.425   3.762
13098TIP3    H239238   7.745   5.344   3.853
13099TIP3   OH239239   0.341   4.523   5.867
13099TIP3    H139240   0.340   4.587   5.796
13099TIP3    H239241   0.254   4.529   5.907
13100TIP3   OH239242   8.096   2.054   4.118
13100TIP3    H139243   8.094   2.100   4.202
13100TIP3    H239244   8.189   2.036   4.103
13101TIP3   OH239245   3.549   0.056   3.555
13101TIP3    H139246   3.586   0.096   3.476
13101TIP3    H239247   3.623   0.008   3.594
13102TIP3   OH239248   3.764   2.155   1.251
13102TIP3    H139249   3.812   2.115   1.324
13102TIP3    H239250   3.772   2.249   1.266
13103TIP3   OH239251   6.336   3.493   3.422
13103TIP3    H139252   6.249   3.465   3.392
13103TIP3    H239253   6.373   3.415   3.464
13104TIP3   OH239254   0.657   6.596   2.628
13104TIP3    H139255   0.618   6.520   2.585
13104TIP3    H239256   0.651   6.576   2.722
13105TIP3   OH239257   2.893   7.549   2.960
13105TIP3    H139258   2.973   7.497   2.967
13105TIP3    H239259   2.924   7.639   2.950
13106TIP3   OH239260   2.308   0.361   5.511
13106TIP3    H139261   2.222   0.400   5.532
13106TIP3    H239262   2.316   0.289   5.573
13107TIP3   OH239263   1.896   0.402   3.771
13107TIP3    H139264   1.936   0.472   3.822
13107TIP3    H239265   1.825   0.445   3.723
13108TIP3   OH239266   7.955   5.400   6.173
13108TIP3    H139267   8.015   5.452   6.226
13108TIP3    H239268   7.933   5.325   6.227
13109TIP3   OH239269   4.242   1.349   1.845
13109TIP3    H139270   4.168   1.409   1.855
13109TIP3    H239271   4.298   1.366   1.921
13110TIP3   OH239272   5.807   7.047   0.523
13110TIP3    H139273   5.771   7.006   0.602
13110TIP3    H239274   5.896   7.011   0.516
13111TIP3   OH239275   1.746   0.036   2.624
13111TIP3    H139276   1.833   0.036   2.665
13111TIP3    H239277   1.730   0.127   2.602
13112TIP3   OH239278   2.289   4.731   4.570
13112TIP3    H139279   2.294   4.764   4.481
13112TIP3    H239280   2.350   4.785   4.620
13113TIP3   OH239281   2.907   2.122   1.328
13113TIP3    H139282   2.853   2.091   1.401
13113TIP3    H239283   2.870   2.079   1.251
13114TIP3   OH239284   2.675   3.437   5.518
13114TIP3    H139285   2.658   3.499   5.589
13114TIP3    H239286   2.680   3.492   5.439
13115TIP3   OH239287   2.186   2.032   6.008
13115TIP3    H139288   2.269   2.080   6.004
13115TIP3    H239289   2.128   2.081   5.950
13116TIP3   OH239290   1.632   1.127   4.704
13116TIP3    H139291   1.614   1.135   4.798
13116TIP3    H239292   1.676   1.043   4.695
13117TIP3   OH239293   6.428   2.350   2.845
13117TIP3    H139294   6.467   2.348   2.933
13117TIP3    H239295   6.475   2.420   2.800
13118TIP3   OH239296   5.882   4.193   4.911
13118TIP3    H139297   5.838   4.211   4.828
13118TIP3    H239298   5.949   4.128   4.890
13119TIP3   OH239299   6.881   5.087   2.221
13119TIP3    H139300   6.801   5.038   2.244
13119TIP3    H239301   6.871   5.106   2.127
13120TIP3   OH239302   1.094   2.939   1.647
13120TIP3    H139303   1.093   3.014   1.706
13120TIP3    H239304   1.011   2.944   1.599
13121TIP3   OH239305   0.878   2.777   4.082
13121TIP3    H139306   0.880   2.834   4.005
13121TIP3    H239307   0.925   2.698   4.054
13122TIP3   OH239308   2.503   3.953   2.624
13122TIP3    H139309   2.597   3.934   2.620
13122TIP3    H239310   2.498   4.048   2.617
13123TIP3   OH239311   5.996   6.686   4.770
13123TIP3    H139312   5.956   6.626   4.707
13123TIP3    H239313   5.926   6.706   4.832
13124TIP3   OH239314   6.303   6.457   1.190
13124TIP3    H139315   6.383   6.407   1.174
13124TIP3    H239316   6.232   6.395   1.172
13125TIP3   OH239317   4.216   4.804   5.902
13125TIP3    H139318   4.140   4.755   5.870
13125TIP3    H239319   4.216   4.885   5.850
13126TIP3   OH239320   5.824   2.742   3.180
13126TIP3    H139321   5.826   2.662   3.232
13126TIP3    H239322   5.832   2.812   3.244
13127TIP3   OH239323   1.874   6.171   3.279
13127TIP3    H139324   1.793   6.135   3.316
13127TIP3    H239325   1.859   6.265   3.274
13128TIP3   OH239326   0.626   4.490   5.802
13128TIP3    H139327   0.541   4.524   5.832
13128TIP3    H239328   0.689   4.525   5.865
13129TIP3   OH239329   1.797   6.988   2.636
13129TIP3    H139330   1.862   6.979   2.567
13129TIP3    H239331   1.785   6.899   2.670
13130TIP3   OH239332   7.721   3.699   1.869
13130TIP3    H139333   7.734   3.746   1.786
13130TIP3    H239334   7.795   3.639   1.874
13131TIP3   OH239335   3.394   0.366   3.375
13131TIP3    H139336   3.398   0.305   3.301
13131TIP3    H239337   3.314   0.416   3.360
13132TIP3   OH239338   4.571   4.581   2.505
13132TIP3    H139339   4.524   4.595   2.587
13132TIP3    H239340   4.597   4.489   2.508
13133TIP3   OH239341   2.202   3.295   3.441
13133TIP3    H139342   2.259   3.237   3.390
13133TIP3    H239343   2.261   3.347   3.494
13134TIP3   OH239344   3.527   4.552   6.453
13134TIP3    H139345   3.610   4.505   6.460
13134TIP3    H239346   3.473   4.497   6.397
13135TIP3   OH239347   7.875   2.727   1.398
13135TIP3    H139348   7.822   2.704   1.321
13135TIP3    H239349   7.837   2.809   1.429
13136TIP3   OH239350   1.986   4.591   5.775
13136TIP3    H139351   2.033   4.601   5.857
13136TIP3    H239352   2.033   4.646   5.713
13137TIP3   OH239353   1.677   6.534   1.966
13137TIP3    H139354   1.735   6.607   1.989
13137TIP3    H239355   1.612   6.573   1.908
13138TIP3   OH239356   0.442   4.368   3.560
13138TIP3    H139357   0.352   4.377   3.528
13138TIP3    H239358   0.434   4.364   3.655
13139TIP3   OH239359   2.302   2.917   6.357
13139TIP3    H139360   2.312   2.854   6.429
13139TIP3    H239361   2.256   2.991   6.397
13140TIP3   OH239362   4.638   4.533   5.390
13140TIP3    H139363   4.676   4.593   5.454
13140TIP3    H239364   4.713   4.502   5.339
13141TIP3   OH239365   4.147   5.623   3.861
13141TIP3    H139366   4.173   5.568   3.787
13141TIP3    H239367   4.127   5.708   3.822
13142TIP3   OH239368   7.700   3.655   1.600
13142TIP3    H139369   7.748   3.642   1.519
13142TIP3    H239370   7.646   3.733   1.584
13143TIP3   OH239371   2.342   6.383   1.864
13143TIP3    H139372   2.357   6.372   1.959
13143TIP3    H239373   2.316   6.296   1.835
13144TIP3   OH239374   0.321   4.624   4.812
13144TIP3    H139375   0.368   4.550   4.851
13144TIP3    H239376   0.233   4.619   4.850
13145TIP3   OH239377   5.127   1.340   6.210
13145TIP3    H139378   5.169   1.320   6.293
13145TIP3    H239379   5.096   1.255   6.178
13146TIP3   OH239380   5.462   0.527   6.023
13146TIP3    H139381   5.372   0.527   6.055
13146TIP3    H239382   5.455   0.503   5.931
13147TIP3   OH239383   5.007   7.777   4.641
13147TIP3    H139384   4.950   7.756   4.567
13147TIP3    H239385   4.952   7.763   4.718
13148TIP3   OH239386   4.034   5.272   2.873
13148TIP3    H139387   4.063   5.261   2.783
13148TIP3    H239388   4.061   5.360   2.897
13149TIP3   OH239389   4.738   0.009   2.650
13149TIP3    H139390   4.809   0.070   2.670
13149TIP3    H239391   4.719   0.023   2.558
13150TIP3   OH239392   8.236   4.282   2.939
13150TIP3    H139393   8.226   4.335   2.861
13150TIP3    H239394   8.215   4.341   3.012
13151TIP3   OH239395   2.015   0.120   2.680
13151TIP3    H139396   1.998   0.105   2.587
13151TIP3    H239397   2.092   0.177   2.681
13152TIP3   OH239398   7.985   6.187   2.488
13152TIP3    H139399   7.909   6.232   2.524
13152TIP3    H239400   8.050   6.255   2.475
13153TIP3   OH239401   2.119   2.989   1.631
13153TIP3    H139402   2.072   2.908   1.652
13153TIP3    H239403   2.128   3.034   1.714
13154TIP3   OH239404   0.834   0.119   1.135
13154TIP3    H139405   0.892   0.195   1.130
13154TIP3    H239406   0.748   0.153   1.112
13155TIP3   OH239407   2.355   2.289   2.365
13155TIP3    H139408   2.391   2.211   2.321
13155TIP3    H239409   2.400   2.362   2.324
13156TIP3   OH239410   7.915   1.441   4.804
13156TIP3    H139411   7.823   1.430   4.828
13156TIP3    H239412   7.929   1.536   4.808
13157TIP3   OH239413   7.850   5.223   0.584
13157TIP3    H139414   7.837   5.271   0.666
13157TIP3    H239415   7.887   5.288   0.524
13158TIP3   OH239416   6.462   2.022   3.542
13158TIP3    H139417   6.488   1.966   3.468
13158TIP3    H239418   6.370   1.999   3.558
13159TIP3   OH239419   2.195   2.084   5.314
13159TIP3    H139420   2.155   2.000   5.339
13159TIP3    H239421   2.125   2.149   5.330
13160TIP3   OH239422   5.392   0.808   1.482
13160TIP3    H139423   5.313   0.861   1.494
13160TIP3    H239424   5.361   0.729   1.437
13161TIP3   OH239425   7.459   0.479   1.230
13161TIP3    H139426   7.518   0.552   1.210
13161TIP3    H239427   7.429   0.448   1.145
13162TIP3   OH239428   5.074   0.542   3.497
13162TIP3    H139429   5.014   0.532   3.571
13162TIP3    H239430   5.037   0.486   3.428
13163TIP3   OH239431   0.055   6.302   2.825
13163TIP3    H139432   0.086   6.315   2.736
13163TIP3    H239433   0.040   6.390   2.858
13164TIP3   OH239434   2.711   4.757   1.207
13164TIP3    H139435   2.797   4.747   1.167
13164TIP3    H239436   2.690   4.850   1.196
13165TIP3   OH239437   5.978   3.793   5.091
13165TIP3    H139438   6.038   3.743   5.146
13165TIP3    H239439   6.035   3.847   5.036
13166TIP3   OH239440   7.764   2.725   1.983
13166TIP3    H139441   7.853   2.727   2.018
13166TIP3    H239442   7.720   2.799   2.025
13167TIP3   OH239443   2.056   0.485   5.593
13167TIP3    H139444   1.978   0.539   5.608
13167TIP3    H239445   2.048   0.413   5.655
13168TIP3   OH239446   4.630   1.198   4.996
13168TIP3    H139447   4.661   1.123   4.946
13168TIP3    H239448   4.682   1.272   4.963
13169TIP3   OH239449   0.664   5.925   4.846
13169TIP3    H139450   0.611   5.957   4.773
13169TIP3    H239451   0.609   5.858   4.888
13170TIP3   OH239452   4.172   7.042   3.032
13170TIP3    H139453   4.161   6.972   3.096
13170TIP3    H239454   4.254   7.019   2.986
13171TIP3   OH239455   7.513   4.337   0.843
13171TIP3    H139456   7.492   4.371   0.930
13171TIP3    H239457   7.469   4.397   0.783
13172TIP3   OH239458   0.809   4.456   6.141
13172TIP3    H139459   0.746   4.386   6.123
13172TIP3    H239460   0.800   4.516   6.067
13173TIP3   OH239461   3.000   1.354   6.415
13173TIP3    H139462   3.013   1.444   6.387
13173TIP3    H239463   2.934   1.359   6.483
13174TIP3   OH239464   7.236   3.574   4.833
13174TIP3    H139465   7.149   3.571   4.794
13174TIP3    H239466   7.273   3.657   4.802
13175TIP3   OH239467   4.866   4.008   0.772
13175TIP3    H139468   4.865   3.915   0.748
13175TIP3    H239469   4.857   4.054   0.689
13176TIP3   OH239470   6.938   3.994   5.085
13176TIP3    H139471   6.971   3.919   5.134
13176TIP3    H239472   7.002   4.007   5.015
13177TIP3   OH239473   5.244   7.706   0.774
13177TIP3    H139474   5.250   7.613   0.792
13177TIP3    H239475   5.334   7.739   0.782
13178TIP3   OH239476   4.017   3.635   1.432
13178TIP3    H139477   4.096   3.634   1.379
13178TIP3    H239478   4.034   3.571   1.502
13179TIP3   OH239479   0.521   5.578   6.398
13179TIP3    H139480   0.592   5.540   6.346
13179TIP3    H239481   0.541   5.552   6.488
13180TIP3   OH239482   5.286   3.282   4.164
13180TIP3    H139483   5.291   3.197   4.120
13180TIP3    H239484   5.335   3.342   4.107
13181TIP3   OH239485   3.093   0.288   5.964
13181TIP3    H139486   3.010   0.335   5.963
13181TIP3    H239487   3.097   0.245   5.878
13182TIP3   OH239488   4.305   4.912   2.264
13182TIP3    H139489   4.323   4.999   2.300
13182TIP3    H239490   4.337   4.915   2.174
13183TIP3   OH239491   3.441   1.919   2.338
13183TIP3    H139492   3.363   1.923   2.282
13183TIP3    H239493   3.441   2.003   2.384
13184TIP3   OH239494   8.208   0.257   0.730
13184TIP3    H139495   8.121   0.281   0.699
13184TIP3    H239496   8.231   0.326   0.793
13185TIP3   OH239497   7.245   7.370   5.701
13185TIP3    H139498   7.213   7.364   5.791
13185TIP3    H239499   7.339   7.381   5.710
13186TIP3   OH239500   7.054   2.003   5.955
13186TIP3    H139501   7.058   1.938   6.024
13186TIP3    H239502   7.141   2.041   5.952
13187TIP3   OH239503   3.736   2.201   3.439
13187TIP3    H139504   3.782   2.147   3.375
13187TIP3    H239505   3.774   2.176   3.523
13188TIP3   OH239506   3.118   0.143   3.314
13188TIP3    H139507   3.128   0.177   3.403
13188TIP3    H239508   3.031   0.102   3.313
13189TIP3   OH239509   4.774   2.631   2.396
13189TIP3    H139510   4.765   2.555   2.339
13189TIP3    H239511   4.684   2.654   2.420
13190TIP3   OH239512   0.430   2.722   4.197
13190TIP3    H139513   0.377   2.711   4.276
13190TIP3    H239514   0.463   2.812   4.203
13191TIP3   OH239515   2.775   0.734   0.605
13191TIP3    H139516   2.783   0.646   0.641
13191TIP3    H239517   2.751   0.720   0.513
13192TIP3   OH239518   7.517   4.378   4.035
13192TIP3    H139519   7.509   4.423   3.950
13192TIP3    H239520   7.609   4.390   4.060
13193TIP3   OH239521   3.571   4.359   2.562
13193TIP3    H139522   3.604   4.342   2.650
13193TIP3    H239523   3.610   4.442   2.536
13194TIP3   OH239524   7.401   7.266   4.501
13194TIP3    H139525   7.413   7.348   4.548
13194TIP3    H239526   7.312   7.238   4.524
13195TIP3   OH239527   1.198   1.548   2.615
13195TIP3    H139528   1.116   1.564   2.662
13195TIP3    H239529   1.205   1.623   2.555
13196TIP3   OH239530   7.666   6.252   3.101
13196TIP3    H139531   7.682   6.168   3.057
13196TIP3    H239532   7.648   6.227   3.192
13197TIP3   OH239533   2.126   5.926   2.319
13197TIP3    H139534   2.055   5.930   2.254
13197TIP3    H239535   2.119   5.839   2.357
13198TIP3   OH239536   6.154   5.988   4.276
13198TIP3    H139537   6.208   6.062   4.249
13198TIP3    H239538   6.064   6.016   4.257
13199TIP3   OH239539   1.403   4.020   0.439
13199TIP3    H139540   1.342   4.045   0.369
13199TIP3    H239541   1.489   4.024   0.397
13200TIP3   OH239542   0.856   4.314   0.736
13200TIP3    H139543   0.892   4.260   0.666
13200TIP3    H239544   0.923   4.381   0.752
13201TIP3   OH239545   4.373   1.343   4.082
13201TIP3    H139546   4.281   1.368   4.085
13201TIP3    H239547   4.421   1.425   4.090
13202TIP3   OH239548   7.628   4.719   0.102
13202TIP3    H139549   7.576   4.648   0.065
13202TIP3    H239550   7.697   4.675   0.151
13203TIP3   OH239551   6.711   2.109   3.603
13203TIP3    H139552   6.702   2.195   3.643
13203TIP3    H239553   6.621   2.082   3.583
13204TIP3   OH239554   6.638   1.556   4.621
13204TIP3    H139555   6.559   1.610   4.608
13204TIP3    H239556   6.640   1.539   4.715
13205TIP3   OH239557   2.217   4.820   1.951
13205TIP3    H139558   2.125   4.813   1.925
13205TIP3    H239559   2.221   4.900   2.003
13206TIP3   OH239560   1.976   1.526   1.561
13206TIP3    H139561   1.925   1.597   1.601
13206TIP3    H239562   2.063   1.533   1.601
13207TIP3   OH239563   2.317   2.874   4.312
13207TIP3    H139564   2.269   2.793   4.328
13207TIP3    H239565   2.396   2.846   4.266
13208TIP3   OH239566   2.453   2.340   3.761
13208TIP3    H139567   2.389   2.329   3.831
13208TIP3    H239568   2.402   2.372   3.686
13209TIP3   OH239569   4.910   3.148   0.128
13209TIP3    H139570   4.852   3.166   0.055
13209TIP3    H239571   4.943   3.060   0.113
13210TIP3   OH239572   4.357   4.027   0.098
13210TIP3    H139573   4.389   3.951   0.146
13210TIP3    H239574   4.357   3.999   0.007
13211TIP3   OH239575   1.639   6.966   1.755
13211TIP3    H139576   1.700   7.027   1.798
13211TIP3    H239577   1.588   7.021   1.696
13212TIP3   OH239578   5.886   2.818   6.427
13212TIP3    H139579   5.931   2.740   6.394
13212TIP3    H239580   5.956   2.878   6.452
13213TIP3   OH239581   3.904   3.942   0.527
13213TIP3    H139582   3.942   3.995   0.597
13213TIP3    H239583   3.922   3.852   0.553
13214TIP3   OH239584   2.453   6.700   0.714
13214TIP3    H139585   2.497   6.700   0.800
13214TIP3    H239586   2.498   6.632   0.664
13215TIP3   OH239587   0.365   3.948   5.914
13215TIP3    H139588   0.350   3.879   5.849
13215TIP3    H239589   0.459   3.965   5.909
13216TIP3   OH239590   3.899   4.310   3.474
13216TIP3    H139591   3.924   4.329   3.384
13216TIP3    H239592   3.972   4.261   3.510
13217TIP3   OH239593   1.208   7.518   3.414
13217TIP3    H139594   1.186   7.445   3.356
13217TIP3    H239595   1.296   7.545   3.386
13218TIP3   OH239596   6.810   2.248   3.281
13218TIP3    H139597   6.882   2.301   3.245
13218TIP3    H239598   6.795   2.181   3.215
13219TIP3   OH239599   6.477   4.110   1.131
13219TIP3    H139600   6.424   4.059   1.192
13219TIP3    H239601   6.413   4.164   1.084
13220TIP3   OH239602   2.575   0.545   2.027
13220TIP3    H139603   2.561   0.476   1.963
13220TIP3    H239604   2.614   0.617   1.977
13221TIP3   OH239605   0.280   4.102   1.607
13221TIP3    H139606   0.335   4.023   1.604
13221TIP3    H239607   0.190   4.069   1.608
13222TIP3   OH239608   5.874   5.830   3.728
13222TIP3    H139609   5.936   5.890   3.687
13222TIP3    H239610   5.882   5.749   3.679
13223TIP3   OH239611   7.824   6.982   4.894
13223TIP3    H139612   7.894   6.918   4.907
13223TIP3    H239613   7.868   7.063   4.871
13224TIP3   OH239614   8.244   5.978   5.262
13224TIP3    H139615   8.326   5.938   5.290
13224TIP3    H239616   8.256   6.072   5.280
13225TIP3   OH239617   4.554   3.406   1.777
13225TIP3    H139618   4.486   3.413   1.843
13225TIP3    H239619   4.590   3.318   1.789
13226TIP3   OH239620   1.878   5.396   4.329
13226TIP3    H139621   1.908   5.376   4.240
13226TIP3    H239622   1.959   5.413   4.378
13227TIP3   OH239623   1.361   4.175   2.270
13227TIP3    H139624   1.289   4.237   2.275
13227TIP3    H239625   1.402   4.177   2.356
13228TIP3   OH239626   3.455   0.946   0.904
13228TIP3    H139627   3.454   0.883   0.976
13228TIP3    H239628   3.397   0.908   0.838
13229TIP3   OH239629   6.207   1.233   1.214
13229TIP3    H139630   6.260   1.293   1.161
13229TIP3    H239631   6.256   1.223   1.295
13230TIP3   OH239632   5.467   5.406   3.310
13230TIP3    H139633   5.456   5.501   3.298
13230TIP3    H239634   5.428   5.368   3.231
13231TIP3   OH239635   2.471   1.250   2.356
13231TIP3    H139636   2.406   1.222   2.292
13231TIP3    H239637   2.534   1.178   2.358
13232TIP3   OH239638   5.849   3.318   0.513
13232TIP3    H139639   5.848   3.254   0.584
13232TIP3    H239640   5.904   3.389   0.545
13233TIP3   OH239641   4.295   3.438   5.588
13233TIP3    H139642   4.208   3.468   5.561
13233TIP3    H239643   4.281   3.399   5.675
13234TIP3   OH239644   0.926   5.254   5.015
13234TIP3    H139645   0.838   5.223   5.039
13234TIP3    H239646   0.949   5.316   5.084
13235TIP3   OH239647   2.122   7.635   6.091
13235TIP3    H139648   2.062   7.693   6.137
13235TIP3    H239649   2.144   7.567   6.154
13236TIP3   OH239650   7.779   7.138   2.488
13236TIP3    H139651   7.802   7.062   2.542
13236TIP3    H239652   7.719   7.102   2.422
13237TIP3   OH239653   6.028   7.314   0.162
13237TIP3    H139654   6.007   7.301   0.069
13237TIP3    H239655   6.064   7.403   0.165
13238TIP3   OH239656   1.391   5.160   4.270
13238TIP3    H139657   1.372   5.092   4.335
13238TIP3    H239658   1.408   5.112   4.189
13239TIP3   OH239659   2.938   1.641   4.303
13239TIP3    H139660   2.914   1.714   4.360
13239TIP3    H239661   2.911   1.563   4.350
13240TIP3   OH239662   7.507   7.617   3.480
13240TIP3    H139663   7.485   7.625   3.387
13240TIP3    H239664   7.455   7.543   3.511
13241TIP3   OH239665   3.456   1.244   3.146
13241TIP3    H139666   3.496   1.165   3.183
13241TIP3    H239667   3.530   1.301   3.127
13242TIP3   OH239668   7.350   3.356   0.126
13242TIP3    H139669   7.313   3.294   0.189
13242TIP3    H239670   7.323   3.323   0.041
13243TIP3   OH239671   7.897   6.730   4.680
13243TIP3    H139672   7.882   6.687   4.764
13243TIP3    H239673   7.816   6.778   4.663
13244TIP3   OH239674   1.565   7.621   4.564
13244TIP3    H139675   1.483   7.669   4.568
13244TIP3    H239676   1.564   7.578   4.479
13245TIP3   OH239677   3.476   0.823   5.257
13245TIP3    H139678   3.538   0.848   5.188
13245TIP3    H239679   3.497   0.882   5.330
13246TIP3   OH239680   0.913   1.129   3.030
13246TIP3    H139681   0.834   1.127   2.976
13246TIP3    H239682   0.881   1.145   3.119
13247TIP3   OH239683   0.306   7.280   0.936
13247TIP3    H139684   0.395   7.293   0.902
13247TIP3    H239685   0.281   7.364   0.973
13248TIP3   OH239686   0.293   3.260   0.282
13248TIP3    H139687   0.289   3.353   0.304
13248TIP3    H239688   0.379   3.231   0.312
13249TIP3   OH239689   7.871   5.237   5.658
13249TIP3    H139690   7.805   5.276   5.715
13249TIP3    H239691   7.948   5.226   5.713
13250TIP3   OH239692   5.275   0.854   5.894
13250TIP3    H139693   5.316   0.935   5.861
13250TIP3    H239694   5.229   0.818   5.818
13251TIP3   OH239695   5.852   6.116   3.310
13251TIP3    H139696   5.777   6.060   3.291
13251TIP3    H239697   5.888   6.138   3.223
13252TIP3   OH239698   6.601   0.676   4.307
13252TIP3    H139699   6.523   0.633   4.272
13252TIP3    H239700   6.570   0.721   4.386
13253TIP3   OH239701   1.753   5.509   3.089
13253TIP3    H139702   1.833   5.480   3.045
13253TIP3    H239703   1.758   5.472   3.177
13254TIP3   OH239704   5.020   4.422   2.459
13254TIP3    H139705   5.099   4.376   2.486
13254TIP3    H239706   4.976   4.446   2.541
13255TIP3   OH239707   5.471   5.674   5.315
13255TIP3    H139708   5.518   5.752   5.285
13255TIP3    H239709   5.487   5.608   5.248
13256TIP3   OH239710   7.264   0.908   3.106
13256TIP3    H139711   7.352   0.923   3.139
13256TIP3    H239712   7.209   0.970   3.154
13257TIP3   OH239713   7.182   7.636   5.221
13257TIP3    H139714   7.241   7.650   5.146
13257TIP3    H239715   7.179   7.720   5.265
13258TIP3   OH239716   6.708   7.283   5.632
13258TIP3    H139717   6.747   7.328   5.557
13258TIP3    H239718   6.723   7.190   5.615
13259TIP3   OH239719   2.635   2.686   5.631
13259TIP3    H139720   2.635   2.679   5.536
13259TIP3    H239721   2.550   2.726   5.652
13260TIP3   OH239722   0.771   3.721   5.093
13260TIP3    H139723   0.806   3.694   5.008
13260TIP3    H239724   0.815   3.664   5.157
13261TIP3   OH239725   7.105   2.396   0.889
13261TIP3    H139726   7.024   2.385   0.938
13261TIP3    H239727   7.153   2.465   0.935
13262TIP3   OH239728   2.916   5.927   5.677
13262TIP3    H139729   2.886   5.838   5.694
13262TIP3    H239730   2.904   5.973   5.760
13263TIP3   OH239731   4.388   7.723   4.790
13263TIP3    H139732   4.297   7.703   4.810
13263TIP3    H239733   4.406   7.675   4.709
13264TIP3   OH239734   7.233   1.562   1.087
13264TIP3    H139735   7.310   1.620   1.088
13264TIP3    H239736   7.205   1.559   1.179
13265TIP3   OH239737   3.704   0.524   5.479
13265TIP3    H139738   3.795   0.510   5.506
13265TIP3    H239739   3.705   0.512   5.384
13266TIP3   OH239740   0.784   7.492   2.559
13266TIP3    H139741   0.745   7.427   2.500
13266TIP3    H239742   0.740   7.477   2.643
13267TIP3   OH239743   6.148   3.204   4.973
13267TIP3    H139744   6.137   3.231   4.882
13267TIP3    H239745   6.060   3.185   5.004
13268TIP3   OH239746   2.272   6.723   3.368
13268TIP3    H139747   2.257   6.716   3.274
13268TIP3    H239748   2.245   6.638   3.403
13269TIP3   OH239749   5.021   7.532   5.801
13269TIP3    H139750   4.995   7.615   5.840
13269TIP3    H239751   4.940   7.481   5.795
13270TIP3   OH239752   8.050   1.654   4.276
13270TIP3    H139753   7.970   1.634   4.228
13270TIP3    H239754   8.110   1.583   4.253
13271TIP3   OH239755   1.762   5.033   1.242
13271TIP3    H139756   1.845   5.075   1.266
13271TIP3    H239757   1.732   4.991   1.322
13272TIP3   OH239758   5.062   0.557   4.236
13272TIP3    H139759   4.988   0.507   4.272
13272TIP3    H239760   5.021   0.633   4.194
13273TIP3   OH239761   0.273   6.691   6.635
13273TIP3    H139762   0.273   6.693   6.539
13273TIP3    H239763   0.334   6.621   6.658
13274TIP3   OH239764   6.904   4.195   6.757
13274TIP3    H139765   6.909   4.290   6.749
13274TIP3    H239766   6.990   4.164   6.731
13275TIP3   OH239767   7.368   3.879   6.156
13275TIP3    H139768   7.353   3.785   6.155
13275TIP3    H239769   7.291   3.915   6.201
13276TIP3   OH239770   2.102   2.832   6.742
13276TIP3    H139771   2.172   2.799   6.685
13276TIP3    H239772   2.115   2.927   6.743
13277TIP3   OH239773   2.183   2.537   4.909
13277TIP3    H139774   2.238   2.615   4.900
13277TIP3    H239775   2.245   2.464   4.909
13278TIP3   OH239776   0.184   4.631   2.709
13278TIP3    H139777   0.165   4.718   2.675
13278TIP3    H239778   0.184   4.642   2.804
13279TIP3   OH239779   5.516   0.724   3.746
13279TIP3    H139780   5.534   0.794   3.684
13279TIP3    H239781   5.435   0.683   3.714
13280TIP3   OH239782   6.839   6.316   3.022
13280TIP3    H139783   6.905   6.347   2.959
13280TIP3    H239784   6.854   6.222   3.027
13281TIP3   OH239785   4.658   3.148   2.168
13281TIP3    H139786   4.639   3.172   2.259
13281TIP3    H239787   4.644   3.053   2.165
13282TIP3   OH239788   4.242   3.706   0.950
13282TIP3    H139789   4.171   3.757   0.989
13282TIP3    H239790   4.206   3.618   0.938
13283TIP3   OH239791   0.529   2.620   3.744
13283TIP3    H139792   0.507   2.709   3.719
13283TIP3    H239793   0.622   2.611   3.721
13284TIP3   OH239794   8.098   6.332   5.547
13284TIP3    H139795   8.159   6.258   5.546
13284TIP3    H239796   8.092   6.360   5.456
13285TIP3   OH239797   6.643   4.765   1.999
13285TIP3    H139798   6.717   4.707   1.980
13285TIP3    H239799   6.661   4.799   2.087
13286TIP3   OH239800   5.624   2.226   6.076
13286TIP3    H139801   5.556   2.294   6.074
13286TIP3    H239802   5.651   2.217   5.984
13287TIP3   OH239803   0.164   3.145   0.997
13287TIP3    H139804   0.180   3.080   0.929
13287TIP3    H239805   0.099   3.204   0.959
13288TIP3   OH239806   6.757   2.719   4.830
13288TIP3    H139807   6.805   2.785   4.881
13288TIP3    H239808   6.803   2.717   4.746
13289TIP3   OH239809   6.872   6.388   1.753
13289TIP3    H139810   6.830   6.423   1.832
13289TIP3    H239811   6.954   6.436   1.746
13290TIP3   OH239812   7.861   7.140   5.766
13290TIP3    H139813   7.793   7.158   5.701
13290TIP3    H239814   7.823   7.169   5.849
13291TIP3   OH239815   2.802   4.628   2.061
13291TIP3    H139816   2.743   4.608   1.989
13291TIP3    H239817   2.890   4.612   2.026
13292TIP3   OH239818   0.214   1.127   4.305
13292TIP3    H139819   0.215   1.044   4.352
13292TIP3    H239820   0.280   1.117   4.236
13293TIP3   OH239821   7.378   3.520   2.817
13293TIP3    H139822   7.360   3.579   2.890
13293TIP3    H239823   7.474   3.515   2.813
13294TIP3   OH239824   7.958   6.392   3.123
13294TIP3    H139825   7.930   6.380   3.214
13294TIP3    H239826   7.907   6.327   3.074
13295TIP3   OH239827   4.528   6.924   3.085
13295TIP3    H139828   4.537   6.979   3.163
13295TIP3    H239829   4.562   6.839   3.112
13296TIP3   OH239830   0.867   4.776   1.067
13296TIP3    H139831   0.813   4.830   1.125
13296TIP3    H239832   0.805   4.743   1.001
13297TIP3   OH239833   5.366   6.417   4.395
13297TIP3    H139834   5.366   6.340   4.452
13297TIP3    H239835   5.311   6.391   4.320
13298TIP3   OH239836   2.628   4.680   5.815
13298TIP3    H139837   2.629   4.694   5.910
13298TIP3    H239838   2.637   4.586   5.804
13299TIP3   OH239839   4.850   6.815   3.908
13299TIP3    H139840   4.816   6.904   3.905
13299TIP3    H239841   4.794   6.770   3.971
13300TIP3   OH239842   0.710   1.580   0.901
13300TIP3    H139843   0.767   1.505   0.915
13300TIP3    H239844   0.686   1.609   0.989
13301TIP3   OH239845   7.221   4.475   1.178
13301TIP3    H139846   7.284   4.403   1.172
13301TIP3    H239847   7.268   4.545   1.223
13302TIP3   OH239848   2.182   5.655   3.102
13302TIP3    H139849   2.253   5.706   3.063
13302TIP3    H239850   2.139   5.716   3.163
13303TIP3   OH239851   5.425   3.596   2.676
13303TIP3    H139852   5.517   3.613   2.696
13303TIP3    H239853   5.404   3.658   2.605
13304TIP3   OH239854   6.690   3.135   1.631
13304TIP3    H139855   6.657   3.128   1.721
13304TIP3    H239856   6.626   3.192   1.587
13305TIP3   OH239857   3.220   0.519   2.390
13305TIP3    H139858   3.192   0.524   2.481
13305TIP3    H239859   3.148   0.473   2.346
13306TIP3   OH239860   0.354   3.660   4.232
13306TIP3    H139861   0.274   3.652   4.285
13306TIP3    H239862   0.424   3.674   4.295
13307TIP3   OH239863   4.453   6.885   6.705
13307TIP3    H139864   4.528   6.941   6.683
13307TIP3    H239865   4.481   6.797   6.679
13308TIP3   OH239866   5.241   0.244   1.377
13308TIP3    H139867   5.224   0.191   1.299
13308TIP3    H239868   5.318   0.295   1.355
13309TIP3   OH239869   7.520   1.331   1.354
13309TIP3    H139870   7.539   1.409   1.407
13309TIP3    H239871   7.540   1.258   1.413
13310TIP3   OH239872   4.864   2.926   3.735
13310TIP3    H139873   4.791   2.930   3.796
13310TIP3    H239874   4.835   2.867   3.666
13311TIP3   OH239875   7.491   6.606   5.878
13311TIP3    H139876   7.419   6.616   5.816
13311TIP3    H239877   7.475   6.521   5.920
13312TIP3   OH239878   0.970   5.723   4.771
13312TIP3    H139879   1.028   5.759   4.839
13312TIP3    H239880   1.000   5.765   4.690
13313TIP3   OH239881   7.991   4.036   0.037
13313TIP3    H139882   7.992   4.130   0.017
13313TIP3    H239883   8.081   4.015   0.060
13314TIP3   OH239884   5.145   5.144   5.065
13314TIP3    H139885   5.085   5.073   5.043
13314TIP3    H239886   5.130   5.161   5.158
13315TIP3   OH239887   4.032   1.413   0.183
13315TIP3    H139888   4.111   1.408   0.131
13315TIP3    H239889   4.060   1.454   0.265
13316TIP3   OH239890   3.908   3.906   6.529
13316TIP3    H139891   3.850   3.879   6.600
13316TIP3    H239892   3.987   3.938   6.572
13317TIP3   OH239893   4.397   4.142   1.637
13317TIP3    H139894   4.329   4.095   1.589
13317TIP3    H239895   4.350   4.194   1.702
13318TIP3   OH239896   7.779   1.183   2.112
13318TIP3    H139897   7.741   1.097   2.132
13318TIP3    H239898   7.835   1.202   2.187
13319TIP3   OH239899   3.287   7.462   5.380
13319TIP3    H139900   3.284   7.544   5.331
13319TIP3    H239901   3.333   7.483   5.461
13320TIP3   OH239902   6.876   3.729   0.786
13320TIP3    H139903   6.861   3.699   0.696
13320TIP3    H239904   6.802   3.787   0.804
13321TIP3   OH239905   4.966   4.167   4.188
13321TIP3    H139906   4.914   4.113   4.127
13321TIP3    H239907   5.057   4.146   4.167
13322TIP3   OH239908   5.239   5.623   3.579
13322TIP3    H139909   5.169   5.672   3.621
13322TIP3    H239910   5.251   5.546   3.635
13323TIP3   OH239911   6.516   0.258   2.700
13323TIP3    H139912   6.584   0.206   2.743
13323TIP3    H239913   6.485   0.202   2.628
13324TIP3   OH239914   4.042   0.979   3.822
13324TIP3    H139915   4.048   1.015   3.911
13324TIP3    H239916   4.026   0.885   3.836
13325TIP3   OH239917   0.857   4.905   2.763
13325TIP3    H139918   0.933   4.955   2.794
13325TIP3    H239919   0.869   4.901   2.668
13326TIP3   OH239920   2.072   1.745   2.915
13326TIP3    H139921   2.043   1.796   2.839
13326TIP3    H239922   2.019   1.666   2.912
13327TIP3   OH239923   2.415   0.206   0.529
13327TIP3    H139924   2.350   0.136   0.521
13327TIP3    H239925   2.362   0.286   0.534
13328TIP3   OH239926   0.175   0.515   0.364
13328TIP3    H139927   0.094   0.510   0.415
13328TIP3    H239928   0.165   0.449   0.296
13329TIP3   OH239929   7.614   1.112   0.108
13329TIP3    H139930   7.528   1.134   0.144
13329TIP3    H239931   7.610   1.139   0.016
13330TIP3   OH239932   0.645   5.984   6.193
13330TIP3    H139933   0.594   6.064   6.186
13330TIP3    H239934   0.640   5.961   6.286
13331TIP3   OH239935   2.540   6.462   2.953
13331TIP3    H139936   2.477   6.494   2.888
13331TIP3    H239937   2.559   6.538   3.008
13332TIP3   OH239938   5.596   6.593   2.752
13332TIP3    H139939   5.537   6.543   2.696
13332TIP3    H239940   5.584   6.557   2.840
13333TIP3   OH239941   3.075   6.353   3.200
13333TIP3    H139942   3.165   6.386   3.196
13333TIP3    H239943   3.068   6.312   3.286
13334TIP3   OH239944   0.959   2.517   4.001
13334TIP3    H139945   0.894   2.448   3.993
13334TIP3    H239946   1.034   2.487   3.950
13335TIP3   OH239947   2.840   4.452   1.423
13335TIP3    H139948   2.891   4.451   1.342
13335TIP3    H239949   2.770   4.389   1.408
13336TIP3   OH239950   5.946   5.867   5.069
13336TIP3    H139951   5.892   5.936   5.108
13336TIP3    H239952   6.027   5.867   5.121
13337TIP3   OH239953   7.533   4.531   3.814
13337TIP3    H139954   7.517   4.519   3.720
13337TIP3    H239955   7.541   4.626   3.825
13338TIP3   OH239956   6.494   5.436   1.602
13338TIP3    H139957   6.580   5.440   1.561
13338TIP3    H239958   6.441   5.383   1.542
13339TIP3   OH239959   5.630   2.256   5.229
13339TIP3    H139960   5.632   2.179   5.172
13339TIP3    H239961   5.691   2.234   5.300
13340TIP3   OH239962   6.735   0.454   2.897
13340TIP3    H139963   6.717   0.364   2.871
13340TIP3    H239964   6.782   0.491   2.822
13341TIP3   OH239965   1.388   1.705   0.748
13341TIP3    H139966   1.361   1.796   0.745
13341TIP3    H239967   1.310   1.655   0.727
13342TIP3   OH239968   6.504   5.219   3.038
13342TIP3    H139969   6.574   5.217   3.103
13342TIP3    H239970   6.548   5.202   2.954
13343TIP3   OH239971   3.750   6.977   0.797
13343TIP3    H139972   3.659   6.964   0.772
13343TIP3    H239973   3.794   6.897   0.768
13344TIP3   OH239974   3.949   1.447   1.724
13344TIP3    H139975   3.874   1.435   1.783
13344TIP3    H239976   4.011   1.499   1.774
13345TIP3   OH239977   6.803   1.736   2.260
13345TIP3    H139978   6.872   1.695   2.209
13345TIP3    H239979   6.721   1.700   2.224
13346TIP3   OH239980   1.897   4.236   0.688
13346TIP3    H139981   1.957   4.310   0.695
13346TIP3    H239982   1.948   4.169   0.643
13347TIP3   OH239983   8.192   0.251   3.727
13347TIP3    H139984   8.268   0.244   3.669
13347TIP3    H239985   8.120   0.276   3.669
13348TIP3   OH239986   5.384   7.413   2.706
13348TIP3    H139987   5.415   7.472   2.774
13348TIP3    H239988   5.339   7.470   2.644
13349TIP3   OH239989   7.426   4.367   5.647
13349TIP3    H139990   7.457   4.277   5.637
13349TIP3    H239991   7.492   4.409   5.703
13350TIP3   OH239992   2.444   5.855   5.375
13350TIP3    H139993   2.501   5.887   5.445
13350TIP3    H239994   2.486   5.885   5.294
13351TIP3   OH239995   3.022   4.262   1.885
13351TIP3    H139996   2.943   4.206   1.882
13351TIP3    H239997   3.030   4.297   1.797
13352TIP3   OH239998   0.580   3.055   6.309
13352TIP3    H139999   0.507   3.105   6.272
13352TIP3    H240000   0.549   3.028   6.396
13353TIP3   OH240001   8.048   1.051   0.321
13353TIP3    H140002   8.045   1.119   0.388
13353TIP3    H240003   8.008   1.092   0.244
13354TIP3   OH240004   0.741   1.727   0.661
13354TIP3    H140005   0.751   1.701   0.753
13354TIP3    H240006   0.712   1.647   0.616
13355TIP3   OH240007   5.733   2.905   5.536
13355TIP3    H140008   5.774   2.991   5.536
13355TIP3    H240009   5.695   2.897   5.624
13356TIP3   OH240010   2.795   6.565   0.217
13356TIP3    H140011   2.870   6.545   0.162
13356TIP3    H240012   2.798   6.660   0.229
13357TIP3   OH240013   7.804   1.114   5.171
13357TIP3    H140014   7.866   1.044   5.194
13357TIP3    H240015   7.847   1.161   5.100
13358TIP3   OH240016   0.933   3.244   6.713
13358TIP3    H140017   0.924   3.216   6.623
13358TIP3    H240018   1.028   3.253   6.726
13359TIP3   OH240019   1.673   0.950   0.329
13359TIP3    H140020   1.734   1.007   0.375
13359TIP3    H240021   1.636   0.894   0.398
13360TIP3   OH240022   1.897   7.152   1.054
13360TIP3    H140023   1.802   7.169   1.051
13360TIP3    H240024   1.936   7.239   1.053
13361TIP3   OH240025   4.422   1.241   5.691
13361TIP3    H140026   4.475   1.298   5.746
13361TIP3    H240027   4.343   1.224   5.742
13362TIP3   OH240028   4.054   0.198   3.725
13362TIP3    H140029   4.141   0.223   3.757
13362TIP3    H240030   4.068   0.180   3.632
13363TIP3   OH240031   6.844   2.344   4.226
13363TIP3    H140032   6.919   2.376   4.276
13363TIP3    H240033   6.778   2.321   4.292
13364TIP3   OH240034   5.948   4.299   1.477
13364TIP3    H140035   5.992   4.215   1.490
13364TIP3    H240036   5.877   4.299   1.541
13365TIP3   OH240037   4.308   0.098   4.298
13365TIP3    H140038   4.254   0.024   4.323
13365TIP3    H240039   4.373   0.062   4.239
13366TIP3   OH240040   3.243   3.435   0.054
13366TIP3    H140041   3.149   3.417   0.060
13366TIP3    H240042   3.251   3.507  -0.008
13367TIP3   OH240043   7.220   6.884   4.609
13367TIP3    H140044   7.222   6.819   4.679
13367TIP3    H240045   7.235   6.834   4.529
13368TIP3   OH240046   5.016   0.586   6.661
13368TIP3    H140047   5.077   0.513   6.660
13368TIP3    H240048   4.943   0.555   6.715
13369TIP3   OH240049   5.671   2.719   5.886
13369TIP3    H140050   5.617   2.640   5.888
13369TIP3    H240051   5.609   2.790   5.901
13370TIP3   OH240052   2.135   0.828   1.098
13370TIP3    H140053   2.104   0.847   1.186
13370TIP3    H240054   2.132   0.732   1.092
13371TIP3   OH240055   1.850   1.572   3.003
13371TIP3    H140056   1.856   1.480   3.030
13371TIP3    H240057   1.779   1.573   2.938
13372TIP3   OH240058   2.946   5.379   4.405
13372TIP3    H140059   2.969   5.355   4.315
13372TIP3    H240060   3.016   5.437   4.433
13373TIP3   OH240061   0.308   7.756   6.357
13373TIP3    H140062   0.396   7.782   6.331
13373TIP3    H240063   0.278   7.699   6.286
13374TIP3   OH240064   3.645   6.211   4.712
13374TIP3    H140065   3.606   6.173   4.791
13374TIP3    H240066   3.628   6.305   4.719
13375TIP3   OH240067   2.405   2.304   5.659
13375TIP3    H140068   2.325   2.259   5.632
13375TIP3    H240069   2.375   2.388   5.693
13376TIP3   OH240070   4.020   6.521   5.617
13376TIP3    H140071   4.065   6.450   5.663
13376TIP3    H240072   3.960   6.477   5.557
13377TIP3   OH240073   5.953   3.633   3.680
13377TIP3    H140074   6.001   3.552   3.694
13377TIP3    H240075   6.014   3.702   3.706
13378TIP3   OH240076   7.024   2.156   4.014
13378TIP3    H140077   7.000   2.163   4.106
13378TIP3    H240078   7.039   2.062   4.001
13379TIP3   OH240079   4.492   7.627   1.774
13379TIP3    H140080   4.426   7.633   1.843
13379TIP3    H240081   4.441   7.614   1.694
13380TIP3   OH240082   5.892   0.966   5.364
13380TIP3    H140083   5.901   0.964   5.269
13380TIP3    H240084   5.800   0.942   5.380
13381TIP3   OH240085   1.835   6.072   0.622
13381TIP3    H140086   1.803   6.142   0.679
13381TIP3    H240087   1.913   6.108   0.580
13382TIP3   OH240088   7.124   6.724  -0.001
13382TIP3    H140089   7.101   6.635  -0.027
13382TIP3    H240090   7.072   6.740   0.078
13383TIP3   OH240091   0.358   2.241   0.381
13383TIP3    H140092   0.411   2.298   0.436
13383TIP3    H240093   0.364   2.279   0.294
13384TIP3   OH240094   6.730   1.329   1.073
13384TIP3    H140095   6.806   1.339   1.131
13384TIP3    H240096   6.690   1.416   1.069
13385TIP3   OH240097   4.866   2.725   5.513
13385TIP3    H140098   4.945   2.724   5.459
13385TIP3    H240099   4.808   2.661   5.471
13386TIP3   OH240100   3.506   0.507   1.853
13386TIP3    H140101   3.425   0.464   1.881
13386TIP3    H240102   3.477   0.592   1.820
13387TIP3   OH240103   7.402   4.825   5.917
13387TIP3    H140104   7.325   4.791   5.872
13387TIP3    H240105   7.395   4.790   6.006
13388TIP3   OH240106   1.830   3.559   5.404
13388TIP3    H140107   1.793   3.500   5.470
13388TIP3    H240108   1.801   3.646   5.430
13389TIP3   OH240109   6.808   1.247   2.002
13389TIP3    H140110   6.794   1.153   2.000
13389TIP3    H240111   6.903   1.257   2.005
13390TIP3   OH240112   8.267   4.243   4.314
13390TIP3    H140113   8.344   4.278   4.271
13390TIP3    H240114   8.299   4.205   4.396
13391TIP3   OH240115   3.601   4.528   0.122
13391TIP3    H140116   3.538   4.473   0.169
13391TIP3    H240117   3.646   4.577   0.190
13392TIP3   OH240118   0.933   4.318   1.613
13392TIP3    H140119   0.941   4.413   1.613
13392TIP3    H240120   0.849   4.301   1.571
13393TIP3   OH240121   4.041   2.277   1.140
13393TIP3    H140122   4.017   2.184   1.140
13393TIP3    H240123   4.133   2.278   1.112
13394TIP3   OH240124   0.992   5.508   6.229
13394TIP3    H140125   0.897   5.522   6.232
13394TIP3    H240126   1.027   5.565   6.297
13395TIP3   OH240127   7.626   6.540   1.292
13395TIP3    H140128   7.668   6.553   1.207
13395TIP3    H240129   7.596   6.449   1.291
13396TIP3   OH240130   0.746   1.874   1.319
13396TIP3    H140131   0.706   1.896   1.404
13396TIP3    H240132   0.812   1.941   1.306
13397TIP3   OH240133   7.608   5.815   0.984
13397TIP3    H140134   7.668   5.754   1.027
13397TIP3    H240135   7.570   5.765   0.911
13398TIP3   OH240136   3.094   3.506   6.328
13398TIP3    H140137   3.067   3.580   6.382
13398TIP3    H240138   3.064   3.429   6.377
13399TIP3   OH240139   1.275   5.660   5.692
13399TIP3    H140140   1.266   5.754   5.675
13399TIP3    H240141   1.327   5.627   5.618
13400TIP3   OH240142   7.708   4.601   5.640
13400TIP3    H140143   7.622   4.630   5.610
13400TIP3    H240144   7.688   4.534   5.706
13401TIP3   OH240145   2.190   2.145   1.311
13401TIP3    H140146   2.116   2.087   1.296
13401TIP3    H240147   2.258   2.089   1.349
13402TIP3   OH240148   1.995   4.361   2.743
13402TIP3    H140149   2.015   4.454   2.732
13402TIP3    H240150   2.050   4.316   2.679
13403TIP3   OH240151   1.680   4.579   0.058
13403TIP3    H140152   1.585   4.574   0.046
13403TIP3    H240153   1.692   4.570   0.153
13404TIP3   OH240154   7.608   7.761   1.308
13404TIP3    H140155   7.533   7.821   1.304
13404TIP3    H240156   7.608   7.728   1.397
13405TIP3   OH240157   1.766   6.917   1.119
13405TIP3    H140158   1.732   6.918   1.209
13405TIP3    H240159   1.690   6.895   1.065
13406TIP3   OH240160   1.154   6.347   1.071
13406TIP3    H140161   1.149   6.426   1.016
13406TIP3    H240162   1.139   6.275   1.011
13407TIP3   OH240163   7.912   5.104   4.602
13407TIP3    H140164   7.851   5.048   4.649
13407TIP3    H240165   7.880   5.105   4.512
13408TIP3   OH240166   5.956   0.166   2.346
13408TIP3    H140167   5.975   0.116   2.266
13408TIP3    H240168   6.001   0.118   2.416
13409TIP3   OH240169   6.466   4.957   0.311
13409TIP3    H140170   6.421   5.020   0.368
13409TIP3    H240171   6.543   5.005   0.279
13410TIP3   OH240172   3.337   1.727   5.942
13410TIP3    H140173   3.336   1.653   6.003
13410TIP3    H240174   3.345   1.804   5.997
13411TIP3   OH240175   0.278   7.797   5.333
13411TIP3    H140176   0.313   7.886   5.327
13411TIP3    H240177   0.355   7.740   5.327
13412TIP3   OH240178   2.479   5.865   0.363
13412TIP3    H140179   2.556   5.816   0.334
13412TIP3    H240180   2.407   5.801   0.359
13413TIP3   OH240181   6.510   7.604   5.530
13413TIP3    H140182   6.545   7.595   5.442
13413TIP3    H240183   6.467   7.520   5.548
13414TIP3   OH240184   6.578   2.290   2.424
13414TIP3    H140185   6.622   2.238   2.357
13414TIP3    H240186   6.546   2.226   2.487
13415TIP3   OH240187   1.667   6.723   2.356
13415TIP3    H140188   1.593   6.711   2.295
13415TIP3    H240189   1.708   6.805   2.328
13416TIP3   OH240190   3.456   3.051   0.186
13416TIP3    H140191   3.363   3.035   0.205
13416TIP3    H240192   3.457   3.132   0.135
13417TIP3   OH240193   0.315   1.297   3.461
13417TIP3    H140194   0.262   1.308   3.382
13417TIP3    H240195   0.252   1.285   3.531
13418TIP3   OH240196   4.244   5.439   2.431
13418TIP3    H140197   4.320   5.478   2.474
13418TIP3    H240198   4.179   5.509   2.429
13419TIP3   OH240199   6.148   7.751   3.760
13419TIP3    H140200   6.063   7.712   3.779
13419TIP3    H240201   6.202   7.732   3.837
13420TIP3   OH240202   5.292   5.410   3.755
13420TIP3    H140203   5.225   5.392   3.820
13420TIP3    H240204   5.289   5.335   3.695
13421TIP3   OH240205   2.066   1.361   4.174
13421TIP3    H140206   2.051   1.375   4.081
13421TIP3    H240207   2.133   1.425   4.198
13422TIP3   OH240208   5.975   4.326   5.332
13422TIP3    H140209   6.028   4.249   5.353
13422TIP3    H240210   6.009   4.394   5.390
13423TIP3   OH240211   1.806   1.246   0.964
13423TIP3    H140212   1.854   1.182   1.016
13423TIP3    H240213   1.764   1.303   1.028
13424TIP3   OH240214   3.328   5.074   3.601
13424TIP3    H140215   3.357   5.032   3.682
13424TIP3    H240216   3.367   5.020   3.532
13425TIP3   OH240217   3.467   7.657   1.437
13425TIP3    H140218   3.539   7.658   1.500
13425TIP3    H240219   3.484   7.580   1.383
13426TIP3   OH240220   3.225   4.000   3.894
13426TIP3    H140221   3.169   4.033   3.823
13426TIP3    H240222   3.255   4.079   3.939
13427TIP3   OH240223   0.476   1.935   5.876
13427TIP3    H140224   0.391   1.979   5.873
13427TIP3    H240225   0.497   1.929   5.969
13428TIP3   OH240226   5.090   5.352   2.041
13428TIP3    H140227   5.002   5.363   2.076
13428TIP3    H240228   5.143   5.328   2.116
13429TIP3   OH240229   1.399   7.029   2.451
13429TIP3    H140230   1.381   7.003   2.361
13429TIP3    H240231   1.313   7.028   2.494
13430TIP3   OH240232   5.402   1.062   5.751
13430TIP3    H140233   5.496   1.065   5.731
13430TIP3    H240234   5.359   1.089   5.670
13431TIP3   OH240235   2.382   4.790   5.716
13431TIP3    H140236   2.370   4.874   5.759
13431TIP3    H240237   2.468   4.759   5.746
13432TIP3   OH240238   4.920   1.804   5.571
13432TIP3    H140239   4.836   1.821   5.613
13432TIP3    H240240   4.982   1.799   5.643
13433TIP3   OH240241   7.158   3.559   6.034
13433TIP3    H140242   7.235   3.566   6.090
13433TIP3    H240243   7.084   3.573   6.092
13434TIP3   OH240244   7.527   2.462   3.854
13434TIP3    H140245   7.598   2.508   3.899
13434TIP3    H240246   7.570   2.384   3.816
13435TIP3   OH240247   0.154   0.691   5.380
13435TIP3    H140248   0.169   0.703   5.286
13435TIP3    H240249   0.110   0.606   5.387
13436TIP3   OH240250   7.986   2.597   5.342
13436TIP3    H140251   8.035   2.526   5.299
13436TIP3    H240252   7.903   2.558   5.366
13437TIP3   OH240253   2.433   6.546   0.320
13437TIP3    H140254   2.451   6.454   0.300
13437TIP3    H240255   2.502   6.572   0.380
13438TIP3   OH240256   5.903   0.494   0.152
13438TIP3    H140257   5.931   0.482   0.061
13438TIP3    H240258   5.858   0.578   0.153
13439TIP3   OH240259   0.564   4.240   3.164
13439TIP3    H140260   0.632   4.278   3.219
13439TIP3    H240261   0.514   4.315   3.132
13440TIP3   OH240262   2.756   0.816   4.233
13440TIP3    H140263   2.700   0.844   4.305
13440TIP3    H240264   2.784   0.728   4.258
13441TIP3   OH240265   3.691   4.454   4.269
13441TIP3    H140266   3.705   4.544   4.239
13441TIP3    H240267   3.664   4.406   4.191
13442TIP3   OH240268   5.887   2.739   0.497
13442TIP3    H140269   5.970   2.780   0.477
13442TIP3    H240270   5.871   2.680   0.422
13443TIP3   OH240271   3.455   3.481   2.026
13443TIP3    H140272   3.508   3.514   2.099
13443TIP3    H240273   3.505   3.407   1.991
13444TIP3   OH240274   7.589   5.770   0.539
13444TIP3    H140275   7.608   5.857   0.504
13444TIP3    H240276   7.565   5.718   0.462
13445TIP3   OH240277   3.695   3.651   5.975
13445TIP3    H140278   3.691   3.560   5.946
13445TIP3    H240279   3.786   3.665   5.999
13446TIP3   OH240280   3.951   0.561   4.976
13446TIP3    H140281   3.942   0.625   5.046
13446TIP3    H240282   4.000   0.606   4.907
13447TIP3   OH240283   7.763   5.572   6.575
13447TIP3    H140284   7.854   5.557   6.599
13447TIP3    H240285   7.765   5.648   6.517
13448TIP3   OH240286   2.863   5.259   6.459
13448TIP3    H140287   2.788   5.281   6.514
13448TIP3    H240288   2.918   5.337   6.460
13449TIP3   OH240289   7.734   2.737   2.354
13449TIP3    H140290   7.786   2.713   2.277
13449TIP3    H240291   7.720   2.654   2.400
13450TIP3   OH240292   1.161   4.301   5.128
13450TIP3    H140293   1.081   4.325   5.081
13450TIP3    H240294   1.137   4.308   5.221
13451TIP3   OH240295   4.133   1.074   5.356
13451TIP3    H140296   4.191   1.014   5.402
13451TIP3    H240297   4.099   1.131   5.424
13452TIP3   OH240298   7.810   4.706   2.519
13452TIP3    H140299   7.854   4.771   2.463
13452TIP3    H240300   7.736   4.752   2.557
13453TIP3   OH240301   3.248   6.048   2.759
13453TIP3    H140302   3.194   5.980   2.720
13453TIP3    H240303   3.190   6.093   2.821
13454TIP3   OH240304   1.476   1.750   1.028
13454TIP3    H140305   1.543   1.812   0.999
13454TIP3    H240306   1.446   1.708   0.947
13455TIP3   OH240307   5.152   6.495   3.928
13455TIP3    H140308   5.200   6.434   3.872
13455TIP3    H240309   5.152   6.578   3.881
13456TIP3   OH240310   7.222   5.721   1.297
13456TIP3    H140311   7.170   5.687   1.370
13456TIP3    H240312   7.157   5.761   1.239
13457TIP3   OH240313   6.739   7.743   5.064
13457TIP3    H140314   6.774   7.682   5.000
13457TIP3    H240315   6.815   7.791   5.096
13458TIP3   OH240316   0.919   0.802   3.786
13458TIP3    H140317   0.957   0.715   3.774
13458TIP3    H240318   0.828   0.784   3.809
13459TIP3   OH240319   7.630   7.263   6.671
13459TIP3    H140320   7.724   7.253   6.654
13459TIP3    H240321   7.610   7.352   6.641
13460TIP3   OH240322   1.858   1.403   0.593
13460TIP3    H140323   1.923   1.370   0.655
13460TIP3    H240324   1.859   1.498   0.606
13461TIP3   OH240325   1.069   3.606   4.450
13461TIP3    H140326   1.058   3.684   4.396
13461TIP3    H240327   1.058   3.637   4.540
13462TIP3   OH240328   8.057   5.089   2.521
13462TIP3    H140329   8.025   5.171   2.483
13462TIP3    H240330   8.024   5.090   2.611
13463TIP3   OH240331   3.311   6.967   4.991
13463TIP3    H140332   3.271   7.010   4.914
13463TIP3    H240333   3.371   7.033   5.026
13464TIP3   OH240334   0.886   2.684   6.114
13464TIP3    H140335   0.799   2.657   6.144
13464TIP3    H240336   0.875   2.699   6.020
13465TIP3   OH240337   5.898   2.279   5.459
13465TIP3    H140338   5.954   2.344   5.417
13465TIP3    H240339   5.869   2.321   5.540
13466TIP3   OH240340   1.008   7.040   4.812
13466TIP3    H140341   0.941   7.099   4.777
13466TIP3    H240342   1.071   7.098   4.856
13467TIP3   OH240343   6.245   6.215   1.413
13467TIP3    H140344   6.228   6.282   1.479
13467TIP3    H240345   6.300   6.150   1.457
13468TIP3   OH240346   7.162   3.239   5.391
13468TIP3    H140347   7.225   3.168   5.405
13468TIP3    H240348   7.099   3.203   5.328
13469TIP3   OH240349   1.041   4.871   6.449
13469TIP3    H140350   0.995   4.933   6.393
13469TIP3    H240351   1.129   4.866   6.412
13470TIP3   OH240352   5.257   4.070   0.254
13470TIP3    H140353   5.258   3.989   0.203
13470TIP3    H240354   5.321   4.055   0.323
13471TIP3   OH240355   1.359   7.298   4.699
13471TIP3    H140356   1.306   7.226   4.667
13471TIP3    H240357   1.295   7.367   4.721
13472TIP3   OH240358   5.527   0.496   1.857
13472TIP3    H140359   5.455   0.433   1.868
13472TIP3    H240360   5.597   0.462   1.912
13473TIP3   OH240361   6.307   1.757   4.838
13473TIP3    H140362   6.255   1.677   4.832
13473TIP3    H240363   6.335   1.775   4.748
13474TIP3   OH240364   0.887   3.959   5.440
13474TIP3    H140365   0.837   4.031   5.479
13474TIP3    H240366   0.970   3.958   5.487
13475TIP3   OH240367   8.269   4.355   2.083
13475TIP3    H140368   8.338   4.288   2.088
13475TIP3    H240369   8.230   4.355   2.170
13476TIP3   OH240370   0.548   3.259   6.700
13476TIP3    H140371   0.580   3.185   6.648
13476TIP3    H240372   0.576   3.240   6.789
13477TIP3   OH240373   1.908   1.504   5.065
13477TIP3    H140374   1.942   1.415   5.064
13477TIP3    H240375   1.967   1.551   5.124
13478TIP3   OH240376   3.117   2.928   3.693
13478TIP3    H140377   3.161   2.987   3.632
13478TIP3    H240378   3.186   2.900   3.754
13479TIP3   OH240379   3.124   7.577   5.762
13479TIP3    H140380   3.033   7.562   5.738
13479TIP3    H240381   3.119   7.633   5.840
13480TIP3   OH240382   6.900   1.134   3.990
13480TIP3    H140383   6.938   1.222   3.994
13480TIP3    H240384   6.909   1.101   4.080
13481TIP3   OH240385   3.640   4.838   2.680
13481TIP3    H140386   3.662   4.884   2.599
13481TIP3    H240387   3.704   4.872   2.743
13482TIP3   OH240388   3.844   1.820   4.491
13482TIP3    H140389   3.927   1.868   4.483
13482TIP3    H240390   3.777   1.888   4.482
13483TIP3   OH240391   3.559   6.491   0.599
13483TIP3    H140392   3.567   6.571   0.651
13483TIP3    H240393   3.649   6.470   0.573
13484TIP3   OH240394   3.321   2.701   4.946
13484TIP3    H140395   3.329   2.712   4.852
13484TIP3    H240396   3.390   2.639   4.970
13485TIP3   OH240397   1.965   5.096   1.759
13485TIP3    H140398   1.883   5.052   1.738
13485TIP3    H240399   1.972   5.089   1.854
13486TIP3   OH240400   3.105   3.643   5.609
13486TIP3    H140401   3.015   3.639   5.642
13486TIP3    H240402   3.112   3.566   5.552
13487TIP3   OH240403   1.480   3.920   1.492
13487TIP3    H140404   1.444   3.993   1.542
13487TIP3    H240405   1.408   3.891   1.437
13488TIP3   OH240406   4.261   3.059   4.967
13488TIP3    H140407   4.260   2.976   4.920
13488TIP3    H240408   4.270   3.125   4.898
13489TIP3   OH240409   7.415   0.158   1.166
13489TIP3    H140410   7.502   0.192   1.184
13489TIP3    H240411   7.430   0.072   1.125
13490TIP3   OH240412   2.363   7.238   4.272
13490TIP3    H140413   2.334   7.181   4.342
13490TIP3    H240414   2.366   7.325   4.311
13491TIP3   OH240415   7.106   1.301   1.539
13491TIP3    H140416   7.158   1.242   1.595
13491TIP3    H240417   7.034   1.330   1.595
13492TIP3   OH240418   5.847   4.703   2.693
13492TIP3    H140419   5.938   4.727   2.710
13492TIP3    H240420   5.804   4.708   2.778
13493TIP3   OH240421   2.367   7.803   1.662
13493TIP3    H140422   2.350   7.805   1.756
13493TIP3    H240423   2.291   7.757   1.625
13494TIP3   OH240424   1.406   6.877   4.087
13494TIP3    H140425   1.496   6.887   4.056
13494TIP3    H240426   1.357   6.944   4.039
13495TIP3   OH240427   1.926   0.225   2.005
13495TIP3    H140428   1.920   0.305   1.952
13495TIP3    H240429   1.994   0.243   2.069
13496TIP3   OH240430   1.410   3.298   1.845
13496TIP3    H140431   1.341   3.254   1.894
13496TIP3    H240432   1.370   3.317   1.759
13497TIP3   OH240433   8.190   2.247   5.271
13497TIP3    H140434   8.219   2.337   5.252
13497TIP3    H240435   8.094   2.254   5.276
13498TIP3   OH240436   8.137   5.583   4.983
13498TIP3    H140437   8.089   5.583   5.066
13498TIP3    H240438   8.227   5.602   5.008
13499TIP3   OH240439   1.848   6.546   4.358
13499TIP3    H140440   1.907   6.472   4.348
13499TIP3    H240441   1.902   6.623   4.338
13500TIP3   OH240442   6.516   6.584   5.364
13500TIP3    H140443   6.561   6.542   5.291
13500TIP3    H240444   6.570   6.564   5.441
13501TIP3   OH240445   4.096   3.362   1.970
13501TIP3    H140446   4.028   3.312   2.016
13501TIP3    H240447   4.154   3.296   1.933
13502TIP3   OH240448   5.498   0.607   2.945
13502TIP3    H140449   5.565   0.544   2.918
13502TIP3    H240450   5.415   0.568   2.916
13503TIP3   OH240451   3.932   4.172   2.080
13503TIP3    H140452   3.856   4.217   2.116
13503TIP3    H240453   3.949   4.218   1.997
13504TIP3   OH240454   5.843   3.590   6.724
13504TIP3    H140455   5.842   3.681   6.753
13504TIP3    H240456   5.915   3.585   6.662
13505TIP3   OH240457   4.510   4.057   3.557
13505TIP3    H140458   4.533   4.057   3.464
13505TIP3    H240459   4.420   4.025   3.561
13506TIP3   OH240460   3.675   6.077   1.710
13506TIP3    H140461   3.588   6.118   1.711
13506TIP3    H240462   3.686   6.047   1.619
13507TIP3   OH240463   2.928   1.859   1.811
13507TIP3    H140464   2.999   1.808   1.851
13507TIP3    H240465   2.850   1.806   1.825
13508TIP3   OH240466   0.660   7.802   4.819
13508TIP3    H140467   0.619   7.870   4.874
13508TIP3    H240468   0.739   7.777   4.867
13509TIP3   OH240469   1.627   3.007   6.393
13509TIP3    H140470   1.721   2.989   6.392
13509TIP3    H240471   1.593   2.949   6.461
13510TIP3   OH240472   2.688   2.331   3.069
13510TIP3    H140473   2.733   2.247   3.056
13510TIP3    H240474   2.596   2.308   3.079
13511TIP3   OH240475   0.227   4.364   2.308
13511TIP3    H140476   0.271   4.406   2.382
13511TIP3    H240477   0.206   4.276   2.340
13512TIP3   OH240478   2.797   2.347   2.727
13512TIP3    H140479   2.880   2.348   2.774
13512TIP3    H240480   2.820   2.368   2.636
13513TIP3   OH240481   4.917   3.156   1.287
13513TIP3    H140482   4.860   3.165   1.363
13513TIP3    H240483   4.971   3.079   1.307
13514TIP3   OH240484   3.213   7.006   1.615
13514TIP3    H140485   3.305   7.016   1.594
13514TIP3    H240486   3.203   7.046   1.701
13515TIP3   OH240487   5.627   1.314   3.066
13515TIP3    H140488   5.676   1.385   3.107
13515TIP3    H240489   5.556   1.358   3.019
13516TIP3   OH240490   2.227   0.552   0.025
13516TIP3    H140491   2.163   0.540   0.095
13516TIP3    H240492   2.303   0.590   0.068
13517TIP3   OH240493   5.418   3.766   2.225
13517TIP3    H140494   5.505   3.726   2.222
13517TIP3    H240495   5.367   3.707   2.281
13518TIP3   OH240496   3.362   0.240   2.972
13518TIP3    H140497   3.418   0.278   2.905
13518TIP3    H240498   3.288   0.301   2.979
13519TIP3   OH240499   7.776   2.421   5.448
13519TIP3    H140500   7.687   2.425   5.415
13519TIP3    H240501   7.774   2.471   5.529
13520TIP3   OH240502   6.145   3.298   6.416
13520TIP3    H140503   6.214   3.362   6.436
13520TIP3    H240504   6.184   3.242   6.349
13521TIP3   OH240505   7.016   1.419   4.044
13521TIP3    H140506   6.970   1.400   4.126
13521TIP3    H240507   7.092   1.361   4.046
13522TIP3   OH240508   8.238   4.291   0.496
13522TIP3    H140509   8.167   4.258   0.440
13522TIP3    H240510   8.280   4.360   0.444
13523TIP3   OH240511   3.027   3.707   4.753
13523TIP3    H140512   3.092   3.715   4.824
13523TIP3    H240513   2.959   3.769   4.778
13524TIP3   OH240514   3.675   3.077   6.533
13524TIP3    H140515   3.622   3.005   6.498
13524TIP3    H240516   3.750   3.033   6.574
13525TIP3   OH240517   2.649   0.539   4.661
13525TIP3    H140518   2.679   0.502   4.744
13525TIP3    H240519   2.651   0.466   4.599
13526TIP3   OH240520   4.267   0.981   0.234
13526TIP3    H140521   4.207   0.908   0.215
13526TIP3    H240522   4.292   1.014   0.148
13527TIP3   OH240523   1.831   4.348   1.295
13527TIP3    H140524   1.807   4.319   1.384
13527TIP3    H240525   1.755   4.324   1.241
13528TIP3   OH240526   2.330   2.777   5.630
13528TIP3    H140527   2.367   2.856   5.591
13528TIP3    H240528   2.255   2.755   5.574
13529TIP3   OH240529   0.834   6.744   0.116
13529TIP3    H140530   0.810   6.834   0.095
13529TIP3    H240531   0.791   6.727   0.200
13530TIP3   OH240532   7.654   7.387   3.468
13530TIP3    H140533   7.624   7.477   3.482
13530TIP3    H240534   7.748   7.395   3.455
13531TIP3   OH240535   1.217   6.698   1.372
13531TIP3    H140536   1.124   6.676   1.378
13531TIP3    H240537   1.259   6.617   1.345
13532TIP3   OH240538   6.311   6.453   2.068
13532TIP3    H140539   6.283   6.380   2.124
13532TIP3    H240540   6.389   6.488   2.112
13533TIP3   OH240541   1.446   1.974   3.581
13533TIP3    H140542   1.482   2.008   3.663
13533TIP3    H240543   1.404   1.892   3.605
13534TIP3   OH240544   0.598   2.659   6.367
13534TIP3    H140545   0.621   2.634   6.456
13534TIP3    H240546   0.632   2.589   6.312
13535TIP3   OH240547   7.311   5.567   3.530
13535TIP3    H140548   7.380   5.518   3.485
13535TIP3    H240549   7.241   5.574   3.466
13536TIP3   OH240550   7.207   4.366   3.127
13536TIP3    H140551   7.278   4.333   3.072
13536TIP3    H240552   7.242   4.361   3.216
13537TIP3   OH240553   7.064   5.675   0.960
13537TIP3    H140554   7.025   5.615   1.023
13537TIP3    H240555   7.017   5.657   0.878
13538TIP3   OH240556   7.322   5.133   0.968
13538TIP3    H140557   7.298   5.076   1.041
13538TIP3    H240558   7.305   5.081   0.889
13539TIP3   OH240559   3.244   5.436   6.264
13539TIP3    H140560   3.318   5.456   6.322
13539TIP3    H240561   3.174   5.408   6.323
13540TIP3   OH240562   7.314   5.522   0.659
13540TIP3    H140563   7.288   5.481   0.577
13540TIP3    H240564   7.286   5.459   0.727
13541TIP3   OH240565   1.473   7.594   2.658
13541TIP3    H140566   1.423   7.645   2.594
13541TIP3    H240567   1.414   7.522   2.682
13542TIP3   OH240568   0.794   5.476   2.235
13542TIP3    H140569   0.786   5.389   2.274
13542TIP3    H240570   0.869   5.469   2.176
13543TIP3   OH240571   0.539   6.389   2.497
13543TIP3    H140572   0.587   6.318   2.455
13543TIP3    H240573   0.481   6.346   2.559
13544TIP3   OH240574   3.557   1.830   1.936
13544TIP3    H140575   3.485   1.788   1.889
13544TIP3    H240576   3.606   1.877   1.868
13545TIP3   OH240577   5.297   0.449   4.168
13545TIP3    H140578   5.312   0.355   4.154
13545TIP3    H240579   5.209   0.454   4.205
13546TIP3   OH240580   4.712   3.466   0.631
13546TIP3    H140581   4.666   3.422   0.703
13546TIP3    H240582   4.803   3.437   0.639
13547TIP3   OH240583   4.995   0.229   1.588
13547TIP3    H140584   5.035   0.143   1.593
13547TIP3    H240585   5.059   0.282   1.540
13548TIP3   OH240586   5.629   2.740   1.781
13548TIP3    H140587   5.688   2.785   1.842
13548TIP3    H240588   5.568   2.809   1.754
13549TIP3   OH240589   6.796   2.470   3.580
13549TIP3    H140590   6.865   2.536   3.572
13549TIP3    H240591   6.839   2.395   3.623
13550TIP3   OH240592   8.160   4.860   5.826
13550TIP3    H140593   8.079   4.829   5.786
13550TIP3    H240594   8.133   4.934   5.880
13551TIP3   OH240595   2.811   3.672   4.421
13551TIP3    H140596   2.809   3.734   4.494
13551TIP3    H240597   2.727   3.627   4.425
13552TIP3   OH240598   7.333   2.113   1.664
13552TIP3    H140599   7.362   2.096   1.574
13552TIP3    H240600   7.307   2.205   1.663
13553TIP3   OH240601   1.713   0.242   3.620
13553TIP3    H140602   1.754   0.162   3.654
13553TIP3    H240603   1.659   0.211   3.547
13554TIP3   OH240604   7.391   7.187   2.217
13554TIP3    H140605   7.304   7.177   2.257
13554TIP3    H240606   7.449   7.137   2.275
13555TIP3   OH240607   4.308   0.590   3.378
13555TIP3    H140608   4.375   0.626   3.320
13555TIP3    H240609   4.254   0.535   3.321
13556TIP3   OH240610   5.517   2.643   1.154
13556TIP3    H140611   5.513   2.737   1.138
13556TIP3    H240612   5.600   2.630   1.200
13557TIP3   OH240613   3.479   6.730   0.005
13557TIP3    H140614   3.499   6.651  -0.045
13557TIP3    H240615   3.480   6.702   0.096
13558TIP3   OH240616   7.435   2.881   0.851
13558TIP3    H140617   7.445   2.973   0.876
13558TIP3    H240618   7.460   2.832   0.930
13559TIP3   OH240619   6.120   1.095   2.576
13559TIP3    H140620   6.030   1.063   2.569
13559TIP3    H240621   6.152   1.059   2.659
13560TIP3   OH240622   6.143   4.179   0.037
13560TIP3    H140623   6.135   4.138   0.123
13560TIP3    H240624   6.206   4.250   0.050
13561TIP3   OH240625   6.727   3.349   1.028
13561TIP3    H140626   6.786   3.291   1.076
13561TIP3    H240627   6.669   3.290   0.980
13562TIP3   OH240628   1.159   0.222   5.202
13562TIP3    H140629   1.238   0.191   5.159
13562TIP3    H240630   1.165   0.317   5.197
13563TIP3   OH240631   5.351   6.324   5.700
13563TIP3    H140632   5.319   6.383   5.769
13563TIP3    H240633   5.330   6.369   5.618
13564TIP3   OH240634   3.207   5.531   6.002
13564TIP3    H140635   3.185   5.624   6.010
13564TIP3    H240636   3.216   5.500   6.092
13565TIP3   OH240637   7.216   0.685   1.941
13565TIP3    H140638   7.199   0.673   1.847
13565TIP3    H240639   7.152   0.629   1.984
13566TIP3   OH240640   6.512   2.811   0.456
13566TIP3    H140641   6.483   2.746   0.392
13566TIP3    H240642   6.573   2.866   0.407
13567TIP3   OH240643   7.588   1.512   1.551
13567TIP3    H140644   7.599   1.598   1.510
13567TIP3    H240645   7.592   1.530   1.645
13568TIP3   OH240646   6.762   0.978   0.848
13568TIP3    H140647   6.856   0.978   0.828
13568TIP3    H240648   6.720   0.977   0.762
13569TIP3   OH240649   0.336   1.465   2.656
13569TIP3    H140650   0.329   1.541   2.598
13569TIP3    H240651   0.343   1.503   2.744
13570TIP3   OH240652   1.728   3.782   4.089
13570TIP3    H140653   1.679   3.702   4.107
13570TIP3    H240654   1.781   3.762   4.012
13571TIP3   OH240655   1.380   5.385   5.744
13571TIP3    H140656   1.313   5.411   5.808
13571TIP3    H240657   1.457   5.436   5.767
13572TIP3   OH240658   1.370   5.830   0.335
13572TIP3    H140659   1.283   5.847   0.370
13572TIP3    H240660   1.419   5.796   0.410
13573TIP3   OH240661   3.042   6.520   0.106
13573TIP3    H140662   3.128   6.554   0.129
13573TIP3    H240663   3.042   6.518   0.010
13574TIP3   OH240664   2.981   2.604   6.676
13574TIP3    H140665   2.942   2.649   6.602
13574TIP3    H240666   2.998   2.673   6.740
13575TIP3   OH240667   7.534   7.693   5.890
13575TIP3    H140668   7.486   7.754   5.947
13575TIP3    H240669   7.510   7.606   5.924
13576TIP3   OH240670   4.206   1.973   5.522
13576TIP3    H140671   4.185   1.992   5.613
13576TIP3    H240672   4.121   1.963   5.479
13577TIP3   OH240673   7.916   1.827   1.970
13577TIP3    H140674   7.840   1.839   1.913
13577TIP3    H240675   7.948   1.739   1.949
13578TIP3   OH240676   4.342   3.208   4.277
13578TIP3    H140677   4.257   3.241   4.248
13578TIP3    H240678   4.322   3.156   4.355
13579TIP3   OH240679   3.172   3.040   1.857
13579TIP3    H140680   3.243   3.064   1.916
13579TIP3    H240681   3.214   2.987   1.789
13580TIP3   OH240682   7.709   2.092   4.352
13580TIP3    H140683   7.641   2.032   4.381
13580TIP3    H240684   7.787   2.037   4.344
13581TIP3   OH240685   1.557   3.115   0.475
13581TIP3    H140686   1.574   3.045   0.537
13581TIP3    H240687   1.632   3.174   0.484
13582TIP3   OH240688   5.681   3.863   5.469
13582TIP3    H140689   5.605   3.806   5.483
13582TIP3    H240690   5.647   3.938   5.420
13583TIP3   OH240691   5.750   1.358   2.415
13583TIP3    H140692   5.790   1.336   2.499
13583TIP3    H240693   5.744   1.274   2.369
13584TIP3   OH240694   2.486   2.084   5.287
13584TIP3    H140695   2.514   2.087   5.196
13584TIP3    H240696   2.393   2.062   5.284
13585TIP3   OH240697   2.671   5.416   4.369
13585TIP3    H140698   2.766   5.413   4.362
13585TIP3    H240699   2.654   5.486   4.432
13586TIP3   OH240700   5.289   6.611   5.565
13586TIP3    H140701   5.371   6.578   5.530
13586TIP3    H240702   5.230   6.613   5.490
13587TIP3   OH240703   6.228   1.326   5.905
13587TIP3    H140704   6.184   1.242   5.896
13587TIP3    H240705   6.321   1.305   5.909
13588TIP3   OH240706   5.469   3.139   3.791
13588TIP3    H140707   5.556   3.120   3.754
13588TIP3    H240708   5.424   3.054   3.790
13589TIP3   OH240709   5.495   6.698   2.433
13589TIP3    H140710   5.568   6.684   2.373
13589TIP3    H240711   5.529   6.760   2.498
13590TIP3   OH240712   5.412   5.835   1.115
13590TIP3    H140713   5.453   5.911   1.156
13590TIP3    H240714   5.334   5.870   1.072
13591TIP3   OH240715   5.567   0.237   5.707
13591TIP3    H140716   5.584   0.232   5.801
13591TIP3    H240717   5.638   0.187   5.667
13592TIP3   OH240718   8.265   0.104   0.369
13592TIP3    H140719   8.303   0.034   0.316
13592TIP3    H240720   8.340   0.152   0.403
13593TIP3   OH240721   4.979   3.354   6.369
13593TIP3    H140722   5.011   3.290   6.306
13593TIP3    H240723   4.932   3.303   6.434
13594TIP3   OH240724   6.844   7.035   2.941
13594TIP3    H140725   6.936   7.038   2.916
13594TIP3    H240726   6.821   6.942   2.939
13595TIP3   OH240727   3.690   6.986   1.856
13595TIP3    H140728   3.754   7.054   1.878
13595TIP3    H240729   3.741   6.905   1.853
13596TIP3   OH240730   3.115   2.639   1.452
13596TIP3    H140731   3.209   2.644   1.469
13596TIP3    H240732   3.076   2.699   1.516
13597TIP3   OH240733   5.135   3.058   5.276
13597TIP3    H140734   5.164   3.013   5.355
13597TIP3    H240735   5.100   3.141   5.308
13598TIP3   OH240736   0.307   1.407   5.088
13598TIP3    H140737   0.247   1.472   5.125
13598TIP3    H240738   0.391   1.452   5.086
13599TIP3   OH240739   1.483   0.586   0.209
13599TIP3    H140740   1.412   0.643   0.179
13599TIP3    H240741   1.468   0.576   0.303
13600TIP3   OH240742   7.209   5.767   0.605
13600TIP3    H140743   7.253   5.682   0.611
13600TIP3    H240744   7.269   5.828   0.649
13601TIP3   OH240745   3.489   5.794   1.991
13601TIP3    H140746   3.440   5.745   2.058
13601TIP3    H240747   3.563   5.738   1.970
13602TIP3   OH240748   6.773   7.243   0.900
13602TIP3    H140749   6.745   7.182   0.833
13602TIP3    H240750   6.804   7.320   0.852
13603TIP3   OH240751   0.127   5.136   1.987
13603TIP3    H140752   0.153   5.190   1.912
13603TIP3    H240753   0.053   5.085   1.955
13604TIP3   OH240754   5.725   2.785   2.078
13604TIP3    H140755   5.662   2.714   2.089
13604TIP3    H240756   5.688   2.859   2.126
13605TIP3   OH240757   5.271   7.270   3.346
13605TIP3    H140758   5.278   7.195   3.405
13605TIP3    H240759   5.257   7.232   3.260
13606TIP3   OH240760   3.697   3.566   3.799
13606TIP3    H140761   3.746   3.530   3.725
13606TIP3    H240762   3.743   3.532   3.876
13607TIP3   OH240763   6.103   5.554   2.656
13607TIP3    H140764   6.009   5.549   2.638
13607TIP3    H240765   6.141   5.582   2.572
13608TIP3   OH240766   8.121   1.899   5.045
13608TIP3    H140767   8.194   1.960   5.042
13608TIP3    H240768   8.126   1.859   5.132
13609TIP3   OH240769   7.537   5.088   1.807
13609TIP3    H140770   7.467   5.091   1.741
13609TIP3    H240771   7.557   4.995   1.816
13610TIP3   OH240772   5.569   2.118   5.603
13610TIP3    H140773   5.477   2.092   5.597
13610TIP3    H240774   5.618   2.035   5.600
13611TIP3   OH240775   6.396   2.637   4.660
13611TIP3    H140776   6.314   2.664   4.620
13611TIP3    H240777   6.386   2.543   4.674
13612TIP3   OH240778   1.582   0.035   5.356
13612TIP3    H140779   1.642   0.089   5.407
13612TIP3    H240780   1.495   0.053   5.392
13613TIP3   OH240781   7.839   5.840   2.768
13613TIP3    H140782   7.930   5.844   2.796
13613TIP3    H240783   7.799   5.774   2.825
13614TIP3   OH240784   8.075   3.324   3.117
13614TIP3    H140785   7.997   3.328   3.172
13614TIP3    H240786   8.068   3.400   3.059
13615TIP3   OH240787   4.940   2.376   2.318
13615TIP3    H140788   4.986   2.428   2.252
13615TIP3    H240789   4.994   2.384   2.397
13616TIP3   OH240790   2.467   2.535   6.215
13616TIP3    H140791   2.496   2.569   6.130
13616TIP3    H240792   2.545   2.542   6.271
13617TIP3   OH240793   4.202   7.265   6.543
13617TIP3    H140794   4.281   7.256   6.596
13617TIP3    H240795   4.226   7.327   6.474
13618TIP3   OH240796   2.639   3.609   0.448
13618TIP3    H140797   2.564   3.648   0.403
13618TIP3    H240798   2.712   3.667   0.426
13619TIP3   OH240799   7.148   3.867   3.716
13619TIP3    H140800   7.120   3.882   3.806
13619TIP3    H240801   7.165   3.954   3.680
13620TIP3   OH240802   2.561   4.444   0.264
13620TIP3    H140803   2.616   4.412   0.192
13620TIP3    H240804   2.479   4.469   0.222
13621TIP3   OH240805   3.210   7.484   0.049
13621TIP3    H140806   3.165   7.516  -0.029
13621TIP3    H240807   3.302   7.478   0.022
13622TIP3   OH240808   2.464   3.494   1.823
13622TIP3    H140809   2.551   3.507   1.786
13622TIP3    H240810   2.426   3.422   1.771
13623TIP3   OH240811   5.791   7.648   6.171
13623TIP3    H140812   5.847   7.581   6.208
13623TIP3    H240813   5.737   7.678   6.244
13624TIP3   OH240814   2.132   2.642   0.685
13624TIP3    H140815   2.189   2.717   0.670
13624TIP3    H240816   2.049   2.666   0.643
13625TIP3   OH240817   4.308   7.641   3.545
13625TIP3    H140818   4.282   7.731   3.529
13625TIP3    H240819   4.251   7.589   3.487
13626TIP3   OH240820   6.182   6.117   5.117
13626TIP3    H140821   6.181   6.208   5.086
13626TIP3    H240822   6.239   6.071   5.055
13627TIP3   OH240823   5.763   4.350   4.258
13627TIP3    H140824   5.733   4.259   4.256
13627TIP3    H240825   5.797   4.365   4.169
13628TIP3   OH240826   3.745   3.909   5.759
13628TIP3    H140827   3.697   3.971   5.704
13628TIP3    H240828   3.827   3.954   5.779
13629TIP3   OH240829   1.925   4.637   6.753
13629TIP3    H140830   1.985   4.674   6.818
13629TIP3    H240831   1.926   4.543   6.771
13630TIP3   OH240832   3.827   6.911   1.057
13630TIP3    H140833   3.921   6.927   1.049
13630TIP3    H240834   3.788   6.968   0.990
13631TIP3   OH240835   2.864   2.133   6.358
13631TIP3    H140836   2.922   2.208   6.347
13631TIP3    H240837   2.864   2.091   6.271
13632TIP3   OH240838   0.309   4.364   0.289
13632TIP3    H140839   0.251   4.416   0.345
13632TIP3    H240840   0.396   4.375   0.329
13633TIP3   OH240841   4.810   4.282   6.466
13633TIP3    H140842   4.866   4.207   6.443
13633TIP3    H240843   4.791   4.269   6.559
13634TIP3   OH240844   7.973   4.454   4.379
13634TIP3    H140845   7.961   4.371   4.424
13634TIP3    H240846   7.889   4.499   4.387
13635TIP3   OH240847   1.111   1.502   1.628
13635TIP3    H140848   1.098   1.441   1.555
13635TIP3    H240849   1.147   1.580   1.586
13636TIP3   OH240850   7.945   4.017   4.988
13636TIP3    H140851   7.879   3.989   5.051
13636TIP3    H240852   8.025   4.028   5.039
13637TIP3   OH240853   2.584   1.248   4.444
13637TIP3    H140854   2.589   1.328   4.497
13637TIP3    H240855   2.674   1.216   4.441
13638TIP3   OH240856   1.075   6.857   2.853
13638TIP3    H140857   1.004   6.886   2.911
13638TIP3    H240858   1.031   6.820   2.777
13639TIP3   OH240859   4.685   3.807   2.903
13639TIP3    H140860   4.704   3.748   2.830
13639TIP3    H240861   4.643   3.751   2.968
13640TIP3   OH240862   0.189   0.032   2.285
13640TIP3    H140863   0.272   0.026   2.333
13640TIP3    H240864   0.127  -0.018   2.339
13641TIP3   OH240865   0.599   2.024   6.445
13641TIP3    H140866   0.631   2.009   6.356
13641TIP3    H240867   0.606   1.939   6.488
13642TIP3   OH240868   0.301   6.533   2.978
13642TIP3    H140869   0.299   6.478   3.055
13642TIP3    H240870   0.216   6.519   2.936
13643TIP3   OH240871   0.788   2.259   3.470
13643TIP3    H140872   0.692   2.258   3.475
13643TIP3    H240873   0.808   2.248   3.377
13644TIP3   OH240874   6.202   4.163   5.638
13644TIP3    H140875   6.122   4.185   5.685
13644TIP3    H240876   6.195   4.212   5.556
13645TIP3   OH240877   0.735   6.400   6.669
13645TIP3    H140878   0.787   6.340   6.616
13645TIP3    H240879   0.668   6.344   6.709
13646TIP3   OH240880   3.055   4.072   6.231
13646TIP3    H140881   2.997   4.051   6.158
13646TIP3    H240882   3.059   4.168   6.231
13647TIP3   OH240883   0.274   2.413   0.138
13647TIP3    H140884   0.265   2.491   0.083
13647TIP3    H240885   0.184   2.387   0.159
13648TIP3   OH240886   1.681   6.405   1.285
13648TIP3    H140887   1.635   6.385   1.366
13648TIP3    H240888   1.684   6.322   1.237
13649TIP3   OH240889   7.532   4.549   1.663
13649TIP3    H140890   7.593   4.483   1.629
13649TIP3    H240891   7.535   4.620   1.599
13650TIP3   OH240892   1.045   7.756   0.992
13650TIP3    H140893   1.119   7.796   1.039
13650TIP3    H240894   1.022   7.821   0.926
13651TIP3   OH240895   2.790   3.698   2.644
13651TIP3    H140896   2.809   3.791   2.632
13651TIP3    H240897   2.745   3.672   2.564
13652TIP3   OH240898   8.031   0.407   4.853
13652TIP3    H140899   8.001   0.352   4.781
13652TIP3    H240900   8.016   0.354   4.932
13653TIP3   OH240901   4.464   5.488   3.975
13653TIP3    H140902   4.436   5.531   3.895
13653TIP3    H240903   4.483   5.398   3.949
13654TIP3   OH240904   1.677   2.706   2.774
13654TIP3    H140905   1.644   2.794   2.792
13654TIP3    H240906   1.770   2.711   2.795
13655TIP3   OH240907   2.522   1.885   0.785
13655TIP3    H140908   2.558   1.958   0.734
13655TIP3    H240909   2.580   1.878   0.861
13656TIP3   OH240910   3.606   1.968   4.468
13656TIP3    H140911   3.559   2.049   4.487
13656TIP3    H240912   3.544   1.915   4.419
13657TIP3   OH240913   7.736   4.219   5.556
13657TIP3    H140914   7.696   4.146   5.509
13657TIP3    H240915   7.804   4.251   5.497
13658TIP3   OH240916   3.105   4.351   6.402
13658TIP3    H140917   3.134   4.362   6.311
13658TIP3    H240918   3.176   4.301   6.443
13659TIP3   OH240919   3.869   1.689   3.037
13659TIP3    H140920   3.904   1.600   3.038
13659TIP3    H240921   3.881   1.718   2.946
13660TIP3   OH240922   6.149   2.817   0.515
13660TIP3    H140923   6.227   2.772   0.483
13660TIP3    H240924   6.183   2.886   0.572
13661TIP3   OH240925   8.137   5.582   5.504
13661TIP3    H140926   8.159   5.490   5.517
13661TIP3    H240927   8.221   5.627   5.508
13662TIP3   OH240928   6.377   4.478   5.985
13662TIP3    H140929   6.437   4.436   6.046
13662TIP3    H240930   6.416   4.564   5.969
13663TIP3   OH240931   1.354   0.665   2.447
13663TIP3    H140932   1.291   0.654   2.519
13663TIP3    H240933   1.302   0.657   2.368
13664TIP3   OH240934   3.160   6.972   1.353
13664TIP3    H140935   3.234   7.019   1.313
13664TIP3    H240936   3.175   6.981   1.447
13665TIP3   OH240937   2.754   0.605   5.141
13665TIP3    H140938   2.721   0.682   5.093
13665TIP3    H240939   2.681   0.581   5.199
13666TIP3   OH240940   6.931   7.421   6.025
13666TIP3    H140941   6.884   7.464   5.953
13666TIP3    H240942   6.902   7.330   6.021
13667TIP3   OH240943   1.046   1.232   0.765
13667TIP3    H140944   1.135   1.267   0.767
13667TIP3    H240945   1.014   1.251   0.677
13668TIP3   OH240946   2.438   2.045   2.224
13668TIP3    H140947   2.510   2.019   2.281
13668TIP3    H240948   2.464   2.014   2.137
13669TIP3   OH240949   5.028   7.362   4.442
13669TIP3    H140950   4.974   7.361   4.363
13669TIP3    H240951   5.075   7.446   4.437
13670TIP3   OH240952   2.955   2.182   5.446
13670TIP3    H140953   2.895   2.232   5.500
13670TIP3    H240954   2.957   2.228   5.362
13671TIP3   OH240955   7.293   6.625   2.741
13671TIP3    H140956   7.214   6.678   2.745
13671TIP3    H240957   7.280   6.556   2.805
13672TIP3   OH240958   7.184   0.679   4.173
13672TIP3    H140959   7.189   0.774   4.185
13672TIP3    H240960   7.274   0.648   4.186
13673TIP3   OH240961   0.746   3.331   5.711
13673TIP3    H140962   0.840   3.341   5.697
13673TIP3    H240963   0.712   3.420   5.712
13674TIP3   OH240964   7.852   1.463   4.196
13674TIP3    H140965   7.815   1.526   4.134
13674TIP3    H240966   7.902   1.402   4.142
13675TIP3   OH240967   7.066   7.374   2.191
13675TIP3    H140968   7.005   7.447   2.203
13675TIP3    H240969   7.011   7.296   2.201
13676TIP3   OH240970   0.521   2.691   1.507
13676TIP3    H140971   0.443   2.657   1.462
13676TIP3    H240972   0.487   2.756   1.568
13677TIP3   OH240973   0.117   4.241   4.881
13677TIP3    H140974   0.049   4.178   4.908
13677TIP3    H240975   0.194   4.187   4.864
13678TIP3   OH240976   7.593   0.154   5.816
13678TIP3    H140977   7.613   0.207   5.893
13678TIP3    H240978   7.498   0.164   5.805
13679TIP3   OH240979   4.865   4.295   0.533
13679TIP3    H140980   4.866   4.382   0.493
13679TIP3    H240981   4.919   4.241   0.475
13680TIP3   OH240982   0.383   0.420   6.481
13680TIP3    H140983   0.435   0.477   6.538
13680TIP3    H240984   0.414   0.440   6.393
13681TIP3   OH240985   7.177   0.271   6.304
13681TIP3    H140986   7.151   0.329   6.232
13681TIP3    H240987   7.255   0.226   6.271
13682TIP3   OH240988   3.770   4.980   3.259
13682TIP3    H140989   3.703   5.029   3.211
13682TIP3    H240990   3.833   5.047   3.287
13683TIP3   OH240991   6.150   1.649   3.923
13683TIP3    H140992   6.190   1.728   3.961
13683TIP3    H240993   6.215   1.580   3.937
13684TIP3   OH240994   5.943   7.157   6.539
13684TIP3    H140995   5.960   7.130   6.629
13684TIP3    H240996   5.925   7.250   6.544
13685TIP3   OH240997   7.925   4.748   5.721
13685TIP3    H140998   7.868   4.685   5.676
13685TIP3    H240999   7.870   4.825   5.732
13686TIP3   OH241000   0.905   1.581   2.713
13686TIP3    H141001   0.826   1.539   2.679
13686TIP3    H241002   0.883   1.603   2.804
13687TIP3   OH241003   6.537   7.802   3.100
13687TIP3    H141004   6.461   7.848   3.136
13687TIP3    H241005   6.607   7.817   3.164
13688TIP3   OH241006   3.915   5.173   3.353
13688TIP3    H141007   3.875   5.253   3.317
13688TIP3    H241008   4.009   5.187   3.344
13689TIP3   OH241009   7.774   2.028   4.656
13689TIP3    H141010   7.767   1.932   4.650
13689TIP3    H241011   7.855   2.049   4.609
13690TIP3   OH241012   3.036   6.826   4.393
13690TIP3    H141013   3.036   6.803   4.486
13690TIP3    H241014   3.051   6.743   4.348
13691TIP3   OH241015   5.891   3.898   1.224
13691TIP3    H141016   5.837   3.872   1.299
13691TIP3    H241017   5.914   3.989   1.242
13692TIP3   OH241018   6.424   0.326   6.543
13692TIP3    H141019   6.515   0.303   6.523
13692TIP3    H241020   6.423   0.422   6.544
13693TIP3   OH241021   7.365   3.241   1.744
13693TIP3    H141022   7.389   3.332   1.726
13693TIP3    H241023   7.298   3.221   1.679
13694TIP3   OH241024   5.937   3.853   2.162
13694TIP3    H141025   5.927   3.772   2.213
13694TIP3    H241026   5.854   3.898   2.173
13695TIP3   OH241027   4.387   2.629   0.304
13695TIP3    H141028   4.301   2.650   0.266
13695TIP3    H241029   4.367   2.570   0.377
13696TIP3   OH241030   1.781   7.106   0.784
13696TIP3    H141031   1.828   7.181   0.823
13696TIP3    H241032   1.851   7.044   0.761
13697TIP3   OH241033   6.366   5.264   0.224
13697TIP3    H141034   6.325   5.248   0.139
13697TIP3    H241035   6.315   5.212   0.285
13698TIP3   OH241036   3.863   7.244   5.924
13698TIP3    H141037   3.783   7.281   5.960
13698TIP3    H241038   3.905   7.200   5.999
13699TIP3   OH241039   5.376   6.199   5.950
13699TIP3    H141040   5.308   6.253   5.910
13699TIP3    H241041   5.336   6.112   5.958
13700TIP3   OH241042   3.038   6.864   4.926
13700TIP3    H141043   3.094   6.851   5.003
13700TIP3    H241044   3.084   6.930   4.875
13701TIP3   OH241045   3.309   0.126   2.559
13701TIP3    H141046   3.366   0.177   2.502
13701TIP3    H241047   3.227   0.119   2.510
13702TIP3   OH241048   7.598   6.439   6.512
13702TIP3    H141049   7.691   6.460   6.519
13702TIP3    H241050   7.580   6.438   6.418
13703TIP3   OH241051   1.792   0.473   6.642
13703TIP3    H141052   1.822   0.479   6.733
13703TIP3    H241053   1.716   0.531   6.638
13704TIP3   OH241054   3.885   2.301   2.857
13704TIP3    H141055   3.823   2.316   2.929
13704TIP3    H241056   3.838   2.330   2.779
13705TIP3   OH241057   0.362   3.476   6.210
13705TIP3    H141058   0.285   3.512   6.165
13705TIP3    H241059   0.436   3.522   6.171
13706TIP3   OH241060   7.602   7.743   0.861
13706TIP3    H141061   7.690   7.706   0.848
13706TIP3    H241062   7.545   7.690   0.805
13707TIP3   OH241063   4.418   5.460   3.695
13707TIP3    H141064   4.368   5.386   3.658
13707TIP3    H241065   4.508   5.428   3.699
13708TIP3   OH241066   7.726   3.401   6.016
13708TIP3    H141067   7.754   3.470   5.955
13708TIP3    H241068   7.805   3.381   6.067
13709TIP3   OH241069   7.851   5.454   4.498
13709TIP3    H141070   7.923   5.395   4.479
13709TIP3    H241071   7.869   5.531   4.444
13710TIP3   OH241072   3.459   0.461   6.047
13710TIP3    H141073   3.547   0.442   6.079
13710TIP3    H241074   3.444   0.397   5.977
13711TIP3   OH241075   3.247   0.455   1.942
13711TIP3    H141076   3.253   0.366   1.977
13711TIP3    H241077   3.158   0.483   1.962
13712TIP3   OH241078   7.278   3.910   2.062
13712TIP3    H141079   7.345   3.928   1.997
13712TIP3    H241080   7.234   3.994   2.075
13713TIP3   OH241081   3.051   6.843   5.205
13713TIP3    H141082   2.998   6.764   5.207
13713TIP3    H241083   3.000   6.908   5.254
13714TIP3   OH241084   7.282   3.453   6.701
13714TIP3    H141085   7.278   3.357   6.708
13714TIP3    H241086   7.287   3.483   6.791
13715TIP3   OH241087   5.902   0.831   0.003
13715TIP3    H141088   5.937   0.902   0.057
13715TIP3    H241089   5.825   0.800   0.052
13716TIP3   OH241090   2.584   4.515   6.117
13716TIP3    H141091   2.588   4.428   6.156
13716TIP3    H241092   2.633   4.571   6.178
13717TIP3   OH241093   6.013   3.967   6.052
13717TIP3    H141094   5.992   3.915   5.974
13717TIP3    H241095   6.106   3.950   6.068
13718TIP3   OH241096   4.492   6.122   1.712
13718TIP3    H141097   4.478   6.179   1.637
13718TIP3    H241098   4.567   6.160   1.758
13719TIP3   OH241099   4.846   7.250   0.167
13719TIP3    H141100   4.904   7.176   0.187
13719TIP3    H241101   4.773   7.211   0.119
13720TIP3   OH241102   2.711   2.860   0.276
13720TIP3    H141103   2.712   2.780   0.329
13720TIP3    H241104   2.619   2.880   0.263
13721TIP3   OH241105   0.977   3.908   5.837
13721TIP3    H141106   0.965   3.988   5.888
13721TIP3    H241107   1.010   3.938   5.752
13722TIP3   OH241108   6.138   1.494   3.599
13722TIP3    H141109   6.196   1.568   3.615
13722TIP3    H241110   6.088   1.519   3.522
13723TIP3   OH241111   1.229   1.253   4.905
13723TIP3    H141112   1.222   1.337   4.858
13723TIP3    H241113   1.177   1.192   4.852
13724TIP3   OH241114   4.090   6.401   0.077
13724TIP3    H141115   4.144   6.404  -0.002
13724TIP3    H241116   4.003   6.427   0.049
13725TIP3   OH241117   6.864   5.590   4.807
13725TIP3    H141118   6.793   5.553   4.754
13725TIP3    H241119   6.820   5.646   4.871
13726TIP3   OH241120   6.225   4.015   1.299
13726TIP3    H141121   6.232   3.926   1.266
13726TIP3    H241122   6.160   4.009   1.369
13727TIP3   OH241123   3.898   7.618   3.373
13727TIP3    H141124   3.877   7.633   3.465
13727TIP3    H241125   3.985   7.579   3.373
13728TIP3   OH241126   7.842   3.529   2.170
13728TIP3    H141127   7.813   3.451   2.122
13728TIP3    H241128   7.899   3.495   2.239
13729TIP3   OH241129   2.465   3.911   2.003
13729TIP3    H141130   2.393   3.860   1.967
13729TIP3    H241131   2.543   3.862   1.978
13730TIP3   OH241132   1.592   1.192   2.586
13730TIP3    H141133   1.561   1.144   2.509
13730TIP3    H241134   1.531   1.264   2.596
13731TIP3   OH241135   2.020   3.926   2.149
13731TIP3    H141136   2.001   3.886   2.234
13731TIP3    H241137   2.105   3.969   2.161
13732TIP3   OH241138   4.004   2.675   1.207
13732TIP3    H141139   3.936   2.609   1.216
13732TIP3    H241140   4.057   2.645   1.134
13733TIP3   OH241141   0.597   1.198   6.516
13733TIP3    H141142   0.509   1.161   6.525
13733TIP3    H241143   0.586   1.291   6.535
13734TIP3   OH241144   3.181   5.440   3.869
13734TIP3    H141145   3.139   5.359   3.899
13734TIP3    H241146   3.217   5.419   3.783
13735TIP3   OH241147   2.893   1.641   5.939
13735TIP3    H141148   2.942   1.575   5.889
13735TIP3    H241149   2.895   1.608   6.029
13736TIP3   OH241150   3.361   2.566   6.323
13736TIP3    H141151   3.374   2.640   6.264
13736TIP3    H241152   3.282   2.522   6.289
13737TIP3   OH241153   0.843   4.708   0.773
13737TIP3    H141154   0.832   4.776   0.839
13737TIP3    H241155   0.756   4.672   0.760
13738TIP3   OH241156   6.148   0.900   2.813
13738TIP3    H141157   6.214   0.968   2.827
13738TIP3    H241158   6.178   0.853   2.735
13739TIP3   OH241159   6.891   5.615   1.372
13739TIP3    H141160   6.843   5.565   1.437
13739TIP3    H241161   6.921   5.694   1.418
13740TIP3   OH241162   0.056   7.312   5.701
13740TIP3    H141163  -0.031   7.346   5.719
13740TIP3    H241164   0.047   7.265   5.618
13741TIP3   OH241165   5.858   5.051   4.279
13741TIP3    H141166   5.898   5.131   4.247
13741TIP3    H241167   5.915   4.981   4.247
13742TIP3   OH241168   7.889   5.358   5.389
13742TIP3    H141169   7.807   5.406   5.404
13742TIP3    H241170   7.892   5.294   5.460
13743TIP3   OH241171   6.996   0.170   4.555
13743TIP3    H141172   6.970   0.249   4.507
13743TIP3    H241173   7.091   0.176   4.561
13744TIP3   OH241174   0.098   1.218   5.980
13744TIP3    H141175   0.088   1.178   6.067
13744TIP3    H241176   0.144   1.152   5.929
13745TIP3   OH241177   5.773   6.788   6.503
13745TIP3    H141178   5.800   6.763   6.591
13745TIP3    H241179   5.764   6.883   6.506
13746TIP3   OH241180   7.882   5.022   0.978
13746TIP3    H141181   7.820   4.980   0.918
13746TIP3    H241182   7.863   4.983   1.063
13747TIP3   OH241183   4.558   0.886   0.039
13747TIP3    H141184   4.613   0.840  -0.024
13747TIP3    H241185   4.471   0.889  -0.001
13748TIP3   OH241186   3.789   5.086   5.750
13748TIP3    H141187   3.813   5.094   5.657
13748TIP3    H241188   3.839   5.156   5.793
13749TIP3   OH241189   3.187   6.991   2.978
13749TIP3    H141190   3.132   7.064   3.007
13749TIP3    H241191   3.276   7.026   2.980
13750TIP3   OH241192   1.787   3.836   5.564
13750TIP3    H141193   1.702   3.871   5.536
13750TIP3    H241194   1.808   3.885   5.643
13751TIP3   OH241195   0.512   1.984   3.488
13751TIP3    H141196   0.507   2.078   3.472
13751TIP3    H241197   0.425   1.951   3.466
13752TIP3   OH241198   7.547   5.135   4.651
13752TIP3    H141199   7.580   5.050   4.679
13752TIP3    H241200   7.500   5.169   4.727
13753TIP3   OH241201   3.554   2.412   2.796
13753TIP3    H141202   3.592   2.326   2.812
13753TIP3    H241203   3.614   2.454   2.734
13754TIP3   OH241204   0.807   7.514   3.425
13754TIP3    H141205   0.846   7.519   3.513
13754TIP3    H241206   0.854   7.580   3.374
13755TIP3   OH241207   7.316   7.516   2.307
13755TIP3    H141208   7.240   7.485   2.257
13755TIP3    H241209   7.319   7.458   2.383
13756TIP3   OH241210   8.057   5.392   3.800
13756TIP3    H141211   8.049   5.481   3.766
13756TIP3    H241212   8.019   5.337   3.731
13757TIP3   OH241213   3.981   7.504   4.149
13757TIP3    H141214   3.933   7.510   4.231
13757TIP3    H241215   4.061   7.456   4.171
13758TIP3   OH241216   7.987   2.314   1.686
13758TIP3    H141217   7.928   2.356   1.748
13758TIP3    H241218   7.978   2.220   1.703
13759TIP3   OH241219   5.594   1.233   0.497
13759TIP3    H141220   5.671   1.192   0.457
13759TIP3    H241221   5.628   1.273   0.577
13760TIP3   OH241222   0.456   6.787   3.866
13760TIP3    H141223   0.452   6.878   3.837
13760TIP3    H241224   0.537   6.754   3.827
13761TIP3   OH241225   3.050   4.519   1.951
13761TIP3    H141226   3.132   4.547   1.911
13761TIP3    H241227   3.038   4.429   1.920
13762TIP3   OH241228   3.010   4.416   1.669
13762TIP3    H141229   3.091   4.459   1.641
13762TIP3    H241230   2.946   4.441   1.601
13763TIP3   OH241231   1.947   3.907   5.176
13763TIP3    H141232   2.000   3.916   5.254
13763TIP3    H241233   1.957   3.990   5.130
13764TIP3   OH241234   7.135   3.126   0.755
13764TIP3    H141235   7.223   3.088   0.748
13764TIP3    H241236   7.148   3.220   0.741
13765TIP3   OH241237   4.735   4.919   6.624
13765TIP3    H141238   4.784   4.837   6.612
13765TIP3    H241239   4.660   4.911   6.566
13766TIP3   OH241240   3.057   3.243   3.990
13766TIP3    H141241   3.059   3.159   4.036
13766TIP3    H241242   3.143   3.249   3.947
13767TIP3   OH241243   6.310   3.736   1.366
13767TIP3    H141244   6.240   3.694   1.417
13767TIP3    H241245   6.387   3.682   1.384
13768TIP3   OH241246   2.839   4.617   3.066
13768TIP3    H141247   2.894   4.690   3.095
13768TIP3    H241248   2.791   4.591   3.145
13769TIP3   OH241249   7.539   4.042   5.339
13769TIP3    H141250   7.486   4.010   5.267
13769TIP3    H241251   7.509   4.132   5.352
13770TIP3   OH241252   6.719   1.765   1.967
13770TIP3    H141253   6.675   1.716   1.898
13770TIP3    H241254   6.662   1.841   1.982
13771TIP3   OH241255   0.367   4.019   0.987
13771TIP3    H141256   0.336   3.936   1.023
13771TIP3    H241257   0.445   3.996   0.936
13772TIP3   OH241258   3.444   4.279   1.928
13772TIP3    H141259   3.502   4.336   1.979
13772TIP3    H241260   3.477   4.191   1.943
13773TIP3   OH241261   5.360   0.266   1.623
13773TIP3    H141262   5.357   0.239   1.531
13773TIP3    H241263   5.390   0.188   1.670
13774TIP3   OH241264   1.003   7.175   5.598
13774TIP3    H141265   1.074   7.127   5.556
13774TIP3    H241266   0.930   7.169   5.537
13775TIP3   OH241267   3.160   0.541   6.566
13775TIP3    H141268   3.146   0.454   6.528
13775TIP3    H241269   3.098   0.598   6.521
13776TIP3   OH241270   4.950   2.721   4.070
13776TIP3    H141271   4.955   2.688   4.160
13776TIP3    H241272   4.985   2.650   4.017
13777TIP3   OH241273   5.504   7.092   3.434
13777TIP3    H141274   5.570   7.029   3.462
13777TIP3    H241275   5.422   7.057   3.469
13778TIP3   OH241276   7.052   7.068   4.910
13778TIP3    H141277   6.963   7.057   4.874
13778TIP3    H241278   7.072   6.983   4.949
13779TIP3   OH241279   7.810   2.703   0.934
13779TIP3    H141280   7.715   2.701   0.949
13779TIP3    H241281   7.819   2.697   0.839
13780TIP3   OH241282   4.725   2.585   1.456
13780TIP3    H141283   4.704   2.533   1.379
13780TIP3    H241284   4.798   2.538   1.497
13781TIP3   OH241285   4.625   7.311   1.110
13781TIP3    H141286   4.644   7.229   1.064
13781TIP3    H241287   4.572   7.361   1.048
13782TIP3   OH241288   1.184   4.568   1.338
13782TIP3    H141289   1.149   4.571   1.249
13782TIP3    H241290   1.279   4.575   1.326
13783TIP3   OH241291   7.282   4.998   0.728
13783TIP3    H141292   7.336   4.922   0.706
13783TIP3    H241293   7.235   5.019   0.647
13784TIP3   OH241294   1.593   2.052   1.311
13784TIP3    H141295   1.562   2.085   1.396
13784TIP3    H241296   1.595   2.129   1.255
13785TIP3   OH241297   1.370   1.218   2.864
13785TIP3    H141298   1.283   1.215   2.905
13785TIP3    H241299   1.352   1.246   2.774
13786TIP3   OH241300   5.338   5.053   1.080
13786TIP3    H141301   5.413   5.101   1.047
13786TIP3    H241302   5.298   5.013   1.003
13787TIP3   OH241303   6.121   2.620   6.685
13787TIP3    H141304   6.083   2.698   6.726
13787TIP3    H241305   6.185   2.655   6.623
13788TIP3   OH241306   7.498   2.246   4.378
13788TIP3    H141307   7.585   2.209   4.359
13788TIP3    H241308   7.437   2.189   4.332
13789TIP3   OH241309   2.301   6.659   1.799
13789TIP3    H141310   2.212   6.648   1.763
13789TIP3    H241311   2.337   6.570   1.799
13790TIP3   OH241312   7.900   0.025   2.440
13790TIP3    H141313   7.918   0.117   2.463
13790TIP3    H241314   7.929   0.018   2.349
13791TIP3   OH241315   4.626   4.065   1.129
13791TIP3    H141316   4.631   3.973   1.104
13791TIP3    H241317   4.710   4.102   1.102
13792TIP3   OH241318   4.785   5.996   5.286
13792TIP3    H141319   4.750   5.912   5.317
13792TIP3    H241320   4.710   6.055   5.286
13793TIP3   OH241321   5.214   0.267   4.541
13793TIP3    H141322   5.293   0.242   4.493
13793TIP3    H241323   5.201   0.360   4.519
13794TIP3   OH241324   7.661   7.142   0.699
13794TIP3    H141325   7.673   7.097   0.615
13794TIP3    H241326   7.703   7.227   0.687
13795TIP3   OH241327   6.329   0.601   4.218
13795TIP3    H141328   6.322   0.542   4.142
13795TIP3    H241329   6.255   0.661   4.209
13796TIP3   OH241330   0.953   0.163   6.511
13796TIP3    H141331   0.924   0.123   6.593
13796TIP3    H241332   0.875   0.207   6.477
13797TIP3   OH241333   1.501   7.290   2.450
13797TIP3    H141334   1.472   7.199   2.447
13797TIP3    H241335   1.422   7.340   2.473
13798TIP3   OH241336   1.313   1.287   0.772
13798TIP3    H141337   1.381   1.253   0.713
13798TIP3    H241338   1.360   1.343   0.834
13799TIP3   OH241339   5.145   0.152   4.794
13799TIP3    H141340   5.168   0.245   4.791
13799TIP3    H241341   5.207   0.111   4.734
13800TIP3   OH241342   7.320   6.299   5.681
13800TIP3    H141343   7.242   6.335   5.639
13800TIP3    H241344   7.393   6.328   5.626
13801TIP3   OH241345   3.635   6.601   3.031
13801TIP3    H141346   3.639   6.506   3.027
13801TIP3    H241347   3.600   6.628   2.947
13802TIP3   OH241348   6.082   2.652   4.570
13802TIP3    H141349   6.088   2.712   4.644
13802TIP3    H241350   6.065   2.709   4.495
13803TIP3   OH241351   0.551   2.496   1.969
13803TIP3    H141352   0.482   2.471   1.908
13803TIP3    H241353   0.579   2.413   2.008
13804TIP3   OH241354   4.879   2.656   4.704
13804TIP3    H141355   4.830   2.720   4.653
13804TIP3    H241356   4.822   2.579   4.706
13805TIP3   OH241357   3.185   3.599   3.494
13805TIP3    H141358   3.167   3.551   3.575
13805TIP3    H241359   3.265   3.648   3.513
13806TIP3   OH241360   5.182   5.897   6.680
13806TIP3    H141361   5.138   5.978   6.706
13806TIP3    H241362   5.272   5.908   6.712
13807TIP3   OH241363   2.497   1.798   3.993
13807TIP3    H141364   2.551   1.759   4.062
13807TIP3    H241365   2.409   1.764   4.010
13808TIP3   OH241366   4.568   1.490   4.609
13808TIP3    H141367   4.531   1.409   4.573
13808TIP3    H241368   4.601   1.537   4.533
13809TIP3   OH241369   0.128   1.770   4.957
13809TIP3    H141370   0.064   1.738   4.894
13809TIP3    H241371   0.159   1.853   4.920
13810TIP3   OH241372   5.567   2.578   3.307
13810TIP3    H141373   5.505   2.586   3.235
13810TIP3    H241374   5.513   2.553   3.382
13811TIP3   OH241375   7.102   3.528   2.243
13811TIP3    H141376   7.114   3.524   2.338
13811TIP3    H241377   7.189   3.510   2.207
13812TIP3   OH241378   0.411   3.537   1.935
13812TIP3    H141379   0.478   3.595   1.972
13812TIP3    H241380   0.445   3.449   1.950
13813TIP3   OH241381   0.423   3.044   1.376
13813TIP3    H141382   0.419   3.025   1.470
13813TIP3    H241383   0.332   3.058   1.350
13814TIP3   OH241384   3.275   4.860   0.593
13814TIP3    H141385   3.206   4.842   0.529
13814TIP3    H241386   3.229   4.892   0.670
13815TIP3   OH241387   0.691   4.642   5.506
13815TIP3    H141388   0.779   4.673   5.528
13815TIP3    H241389   0.682   4.662   5.413
13816TIP3   OH241390   1.247   1.635   5.641
13816TIP3    H141391   1.171   1.692   5.649
13816TIP3    H241392   1.210   1.547   5.632
13817TIP3   OH241393   1.836   3.331   4.463
13817TIP3    H141394   1.787   3.413   4.467
13817TIP3    H241395   1.922   3.355   4.431
13818TIP3   OH241396   0.944   0.976   0.679
13818TIP3    H141397   0.930   0.902   0.738
13818TIP3    H241398   0.998   1.037   0.730
13819TIP3   OH241399   4.093   5.430   1.599
13819TIP3    H141400   4.017   5.377   1.577
13819TIP3    H241401   4.168   5.380   1.564
13820TIP3   OH241402   5.513   7.544   5.637
13820TIP3    H141403   5.424   7.570   5.613
13820TIP3    H241404   5.516   7.450   5.619
13821TIP3   OH241405   0.574   1.798   5.667
13821TIP3    H141406   0.548   1.841   5.749
13821TIP3    H241407   0.518   1.720   5.663
13822TIP3   OH241408   8.147   7.282   1.701
13822TIP3    H141409   8.062   7.240   1.686
13822TIP3    H241410   8.126   7.374   1.715
13823TIP3   OH241411   6.041   3.593   0.555
13823TIP3    H141412   6.077   3.565   0.639
13823TIP3    H241413   5.961   3.641   0.578
13824TIP3   OH241414   7.260   0.689   1.673
13824TIP3    H141415   7.287   0.766   1.623
13824TIP3    H241416   7.276   0.616   1.613
13825TIP3   OH241417   1.146   6.302   6.418
13825TIP3    H141418   1.093   6.358   6.362
13825TIP3    H241419   1.187   6.240   6.358
13826TIP3   OH241420   0.883   4.526   0.418
13826TIP3    H141421   0.937   4.515   0.497
13826TIP3    H241422   0.830   4.604   0.436
13827TIP3   OH241423   4.525   1.225   2.152
13827TIP3    H141424   4.574   1.182   2.082
13827TIP3    H241425   4.572   1.307   2.167
13828TIP3   OH241426   7.028   0.329   0.729
13828TIP3    H141427   7.018   0.389   0.655
13828TIP3    H241428   7.102   0.273   0.704
13829TIP3   OH241429   4.524   5.220   1.271
13829TIP3    H141430   4.616   5.230   1.298
13829TIP3    H241431   4.525   5.143   1.214
13830TIP3   OH241432   7.818   4.887   3.366
13830TIP3    H141433   7.773   4.941   3.432
13830TIP3    H241434   7.754   4.877   3.296
13831TIP3   OH241435   2.859   1.973   1.083
13831TIP3    H141436   2.795   1.952   1.150
13831TIP3    H241437   2.911   1.893   1.073
13832TIP3   OH241438   0.644   4.863   3.907
13832TIP3    H141439   0.589   4.866   3.829
13832TIP3    H241440   0.583   4.870   3.980
13833TIP3   OH241441   2.448   5.917   3.321
13833TIP3    H141442   2.364   5.894   3.362
13833TIP3    H241443   2.424   5.950   3.234
13834TIP3   OH241444   2.344   7.431   4.488
13834TIP3    H141445   2.372   7.518   4.517
13834TIP3    H241446   2.388   7.370   4.549
13835TIP3   OH241447   1.595   3.433   0.447
13835TIP3    H141448   1.599   3.527   0.468
13835TIP3    H241449   1.507   3.407   0.474
13836TIP3   OH241450   7.560   2.713   1.053
13836TIP3    H141451   7.549   2.743   1.144
13836TIP3    H241452   7.487   2.653   1.038
13837TIP3   OH241453   1.241   2.619   0.696
13837TIP3    H141454   1.157   2.574   0.684
13837TIP3    H241455   1.235   2.695   0.638
13838TIP3   OH241456   5.504   2.480   0.675
13838TIP3    H141457   5.591   2.447   0.697
13838TIP3    H241458   5.499   2.473   0.579
13839TIP3   OH241459   3.301   2.891   5.620
13839TIP3    H141460   3.349   2.929   5.546
13839TIP3    H241461   3.220   2.858   5.581
13840TIP3   OH241462   2.152   3.074   0.104
13840TIP3    H141463   2.191   3.017   0.038
13840TIP3    H241464   2.218   3.143   0.118
13841TIP3   OH241465   5.931   0.381   5.040
13841TIP3    H141466   6.022   0.357   5.058
13841TIP3    H241467   5.910   0.337   4.958
13842TIP3   OH241468   5.832   2.784   6.103
13842TIP3    H141469   5.761   2.781   6.167
13842TIP3    H241470   5.793   2.752   6.022
13843TIP3   OH241471   1.591   0.089   1.398
13843TIP3    H141472   1.533   0.109   1.472
13843TIP3    H241473   1.585  -0.006   1.389
13844TIP3   OH241474   6.391   6.612   2.376
13844TIP3    H141475   6.417   6.698   2.344
13844TIP3    H241476   6.474   6.566   2.392
13845TIP3   OH241477   2.696   4.385   4.622
13845TIP3    H141478   2.654   4.393   4.537
13845TIP3    H241479   2.680   4.470   4.665
13846TIP3   OH241480   1.119   4.254   1.829
13846TIP3    H141481   1.171   4.294   1.899
13846TIP3    H241482   1.133   4.310   1.753
13847TIP3   OH241483   1.858   4.740   2.474
13847TIP3    H141484   1.791   4.801   2.444
13847TIP3    H241485   1.887   4.696   2.394
13848TIP3   OH241486   5.402   1.568   0.852
13848TIP3    H141487   5.344   1.495   0.829
13848TIP3    H241488   5.344   1.642   0.869
13849TIP3   OH241489   2.638   3.117   3.701
13849TIP3    H141490   2.711   3.056   3.705
13849TIP3    H241491   2.560   3.063   3.717
13850TIP3   OH241492   7.827   6.899   2.640
13850TIP3    H141493   7.878   6.891   2.721
13850TIP3    H241494   7.834   6.812   2.600
13851TIP3   OH241495   6.822   7.557   2.931
13851TIP3    H141496   6.831   7.479   2.878
13851TIP3    H241497   6.728   7.565   2.948
13852TIP3   OH241498   1.038   5.545   0.331
13852TIP3    H141499   0.983   5.475   0.368
13852TIP3    H241500   0.983   5.585   0.263
13853TIP3   OH241501   1.980   7.721   4.355
13853TIP3    H141502   2.049   7.676   4.403
13853TIP3    H241503   1.936   7.776   4.420
13854TIP3   OH241504   7.654   0.748   3.898
13854TIP3    H141505   7.745   0.741   3.926
13854TIP3    H241506   7.649   0.832   3.853
13855TIP3   OH241507   4.570   6.506   4.694
13855TIP3    H141508   4.485   6.535   4.661
13855TIP3    H241509   4.596   6.436   4.635
13856TIP3   OH241510   5.974   3.861   0.739
13856TIP3    H141511   5.973   3.771   0.769
13856TIP3    H241512   6.008   3.911   0.813
13857TIP3   OH241513   7.748   4.934   5.707
13857TIP3    H141514   7.725   5.022   5.677
13857TIP3    H241515   7.709   4.929   5.794
13858TIP3   OH241516   2.749   2.827   0.775
13858TIP3    H141517   2.789   2.903   0.817
13858TIP3    H241518   2.717   2.774   0.848
13859TIP3   OH241519   1.709   2.673   4.750
13859TIP3    H141520   1.669   2.586   4.747
13859TIP3    H241521   1.802   2.657   4.763
13860TIP3   OH241522   2.393   2.917   3.706
13860TIP3    H141523   2.360   2.939   3.620
13860TIP3    H241524   2.337   2.845   3.736
13861TIP3   OH241525   6.346   7.077   1.542
13861TIP3    H141526   6.318   7.075   1.451
13861TIP3    H241527   6.417   7.013   1.546
13862TIP3   OH241528   8.269   6.755   4.884
13862TIP3    H141529   8.358   6.757   4.919
13862TIP3    H241530   8.267   6.679   4.826
13863TIP3   OH241531   5.932   0.706   1.463
13863TIP3    H141532   5.886   0.788   1.443
13863TIP3    H241533   5.870   0.657   1.518
13864TIP3   OH241534   3.198   2.737   1.998
13864TIP3    H141535   3.212   2.652   2.042
13864TIP3    H241536   3.272   2.791   2.027
13865TIP3   OH241537   5.786   6.481   6.166
13865TIP3    H141538   5.867   6.451   6.208
13865TIP3    H241539   5.721   6.415   6.189
13866TIP3   OH241540   2.648   5.415   5.337
13866TIP3    H141541   2.629   5.364   5.258
13866TIP3    H241542   2.744   5.420   5.339
13867TIP3   OH241543   5.247   7.666   4.759
13867TIP3    H141544   5.205   7.707   4.835
13867TIP3    H241545   5.179   7.667   4.691
13868TIP3   OH241546   6.605   3.295   0.685
13868TIP3    H141547   6.518   3.334   0.677
13868TIP3    H241548   6.592   3.221   0.744
13869TIP3   OH241549   2.152   2.722   2.737
13869TIP3    H141550   2.227   2.704   2.681
13869TIP3    H241551   2.122   2.808   2.710
13870TIP3   OH241552   8.198   0.945   5.853
13870TIP3    H141553   8.221   0.952   5.946
13870TIP3    H241554   8.128   0.880   5.850
13871TIP3   OH241555   8.259   7.044   1.880
13871TIP3    H141556   8.288   7.135   1.887
13871TIP3    H241557   8.303   7.011   1.802
13872TIP3   OH241558   6.341   4.199   3.274
13872TIP3    H141559   6.269   4.137   3.282
13872TIP3    H241560   6.412   4.160   3.326
13873TIP3   OH241561   1.778   3.560   3.071
13873TIP3    H141562   1.838   3.531   3.140
13873TIP3    H241563   1.819   3.639   3.036
13874TIP3   OH241564   2.835   0.059   2.348
13874TIP3    H141565   2.792  -0.020   2.380
13874TIP3    H241566   2.857   0.040   2.257
13875TIP3   OH241567   2.370   4.369   4.178
13875TIP3    H141568   2.309   4.394   4.108
13875TIP3    H241569   2.331   4.291   4.217
13876TIP3   OH241570   2.858   7.586   5.709
13876TIP3    H141571   2.768   7.594   5.740
13876TIP3    H241572   2.850   7.587   5.613
13877TIP3   OH241573   6.888   0.334   0.298
13877TIP3    H141574   6.905   0.349   0.205
13877TIP3    H241575   6.796   0.305   0.302
13878TIP3   OH241576   5.450   3.635   3.756
13878TIP3    H141577   5.378   3.684   3.716
13878TIP3    H241578   5.480   3.576   3.686
13879TIP3   OH241579   5.409   6.787   4.915
13879TIP3    H141580   5.352   6.719   4.878
13879TIP3    H241581   5.473   6.805   4.847
13880TIP3   OH241582   1.486   4.734   5.814
13880TIP3    H141583   1.505   4.820   5.851
13880TIP3    H241584   1.570   4.689   5.814
13881TIP3   OH241585   4.198   6.929   5.189
13881TIP3    H141586   4.117   6.878   5.184
13881TIP3    H241587   4.245   6.893   5.264
13882TIP3   OH241588   1.134   5.103   1.633
13882TIP3    H141589   1.072   5.039   1.669
13882TIP3    H241590   1.123   5.180   1.690
13883TIP3   OH241591   3.756   6.628   3.491
13883TIP3    H141592   3.775   6.711   3.447
13883TIP3    H241593   3.704   6.579   3.427
13884TIP3   OH241594   4.176   5.199   3.282
13884TIP3    H141595   4.165   5.135   3.211
13884TIP3    H241596   4.263   5.236   3.268
13885TIP3   OH241597   7.559   6.973   4.991
13885TIP3    H141598   7.644   6.999   4.955
13885TIP3    H241599   7.498   6.980   4.918
13886TIP3   OH241600   0.568   0.609   0.327
13886TIP3    H141601   0.656   0.572   0.326
13886TIP3    H241602   0.513   0.539   0.361
13887TIP3   OH241603   1.646   5.157   3.056
13887TIP3    H141604   1.630   5.214   3.132
13887TIP3    H241605   1.617   5.209   2.981
13888TIP3   OH241606   7.675   3.307   0.058
13888TIP3    H141607   7.615   3.238   0.087
13888TIP3    H241608   7.635   3.342  -0.021
13889TIP3   OH241609   1.615   5.608   6.265
13889TIP3    H141610   1.670   5.545   6.312
13889TIP3    H241611   1.675   5.675   6.235
13890TIP3   OH241612   3.586   5.818   2.297
13890TIP3    H141613   3.649   5.812   2.225
13890TIP3    H241614   3.561   5.910   2.300
13891TIP3   OH241615   6.014   0.305   6.607
13891TIP3    H141616   6.077   0.362   6.652
13891TIP3    H241617   6.069   0.246   6.555
13892TIP3   OH241618   7.729   3.310   1.440
13892TIP3    H141619   7.758   3.344   1.524
13892TIP3    H241620   7.724   3.215   1.452
13893TIP3   OH241621   2.414   6.296   2.117
13893TIP3    H141622   2.378   6.221   2.164
13893TIP3    H241623   2.441   6.357   2.185
13894TIP3   OH241624   5.331   1.677   4.558
13894TIP3    H141625   5.387   1.748   4.526
13894TIP3    H241626   5.293   1.639   4.479
13895TIP3   OH241627   5.314   4.524   0.445
13895TIP3    H141628   5.284   4.566   0.526
13895TIP3    H241629   5.233   4.511   0.394
13896TIP3   OH241630   1.529   3.773   6.702
13896TIP3    H141631   1.464   3.803   6.640
13896TIP3    H241632   1.499   3.807   6.787
13897TIP3   OH241633   0.069   4.129   4.538
13897TIP3    H141634   0.033   4.093   4.619
13897TIP3    H241635   0.137   4.066   4.512
13898TIP3   OH241636   7.317   2.884   1.208
13898TIP3    H141637   7.322   2.801   1.160
13898TIP3    H241638   7.317   2.858   1.300
13899TIP3   OH241639   2.059   2.495   3.214
13899TIP3    H141640   2.062   2.589   3.228
13899TIP3    H241641   2.149   2.466   3.227
13900TIP3   OH241642   6.278   5.058   1.843
13900TIP3    H141643   6.300   5.149   1.824
13900TIP3    H241644   6.292   5.013   1.760
13901TIP3   OH241645   2.043   2.567   4.157
13901TIP3    H141646   2.042   2.563   4.252
13901TIP3    H241647   1.981   2.500   4.129
13902TIP3   OH241648   5.196   1.000   0.568
13902TIP3    H141649   5.290   0.992   0.552
13902TIP3    H241650   5.163   1.047   0.492
13903TIP3   OH241651   7.660   1.240   1.851
13903TIP3    H141652   7.721   1.293   1.800
13903TIP3    H241653   7.704   1.227   1.935
13904TIP3   OH241654   6.637   3.206   5.157
13904TIP3    H141655   6.559   3.196   5.102
13904TIP3    H241656   6.633   3.133   5.218
13905TIP3   OH241657   3.995   2.080   1.659
13905TIP3    H141658   3.980   2.143   1.588
13905TIP3    H241659   4.085   2.050   1.644
13906TIP3   OH241660   4.982   2.842   1.702
13906TIP3    H141661   4.993   2.922   1.753
13906TIP3    H241662   4.911   2.861   1.641
13907TIP3   OH241663   7.907   3.615   1.414
13907TIP3    H141664   7.995   3.596   1.382
13907TIP3    H241665   7.908   3.588   1.506
13908TIP3   OH241666   2.068   5.139   6.614
13908TIP3    H141667   2.135   5.100   6.559
13908TIP3    H241668   1.996   5.158   6.554
13909TIP3   OH241669   8.182   3.729   2.960
13909TIP3    H141670   8.163   3.793   3.028
13909TIP3    H241671   8.258   3.765   2.914
13910TIP3   OH241672   5.781   3.650   0.647
13910TIP3    H141673   5.778   3.565   0.693
13910TIP3    H241674   5.704   3.697   0.680
13911TIP3   OH241675   2.027   4.854   1.122
13911TIP3    H141676   2.087   4.819   1.057
13911TIP3    H241677   1.957   4.894   1.071
13912TIP3   OH241678   1.350   5.913   3.127
13912TIP3    H141679   1.421   5.851   3.110
13912TIP3    H241680   1.321   5.891   3.216
13913TIP3   OH241681   0.804   0.886   0.306
13913TIP3    H141682   0.735   0.894   0.240
13913TIP3    H241683   0.808   0.793   0.326
13914TIP3   OH241684   1.609   5.535   0.633
13914TIP3    H141685   1.686   5.584   0.605
13914TIP3    H241686   1.539   5.564   0.575
13915TIP3   OH241687   7.045   6.141   5.176
13915TIP3    H141688   7.118   6.095   5.136
13915TIP3    H241689   7.063   6.234   5.161
13916TIP3   OH241690   7.401   6.041   1.199
13916TIP3    H141691   7.403   5.974   1.131
13916TIP3    H241692   7.314   6.034   1.236
13917TIP3   OH241693   7.128   7.458   0.635
13917TIP3    H141694   7.196   7.440   0.571
13917TIP3    H241695   7.154   7.541   0.674
13918TIP3   OH241696   4.864   1.580   2.309
13918TIP3    H141697   4.791   1.579   2.370
13918TIP3    H241698   4.937   1.616   2.360
13919TIP3   OH241699   7.189   1.209   5.820
13919TIP3    H141700   7.237   1.240   5.743
13919TIP3    H241701   7.174   1.287   5.872
13920TIP3   OH241702   5.897   2.673   0.240
13920TIP3    H141703   5.858   2.620   0.170
13920TIP3    H241704   5.861   2.760   0.227
13921TIP3   OH241705   6.788   6.688   1.558
13921TIP3    H141706   6.844   6.765   1.549
13921TIP3    H241707   6.842   6.615   1.529
13922TIP3   OH241708   6.867   7.473   1.323
13922TIP3    H141709   6.881   7.378   1.318
13922TIP3    H241710   6.955   7.510   1.329
13923TIP3   OH241711   7.330   3.210   4.076
13923TIP3    H141712   7.358   3.267   4.004
13923TIP3    H241713   7.330   3.122   4.038
13924TIP3   OH241714   0.390   6.304   0.175
13924TIP3    H141715   0.338   6.309   0.255
13924TIP3    H241716   0.345   6.361   0.113
13925TIP3   OH241717   5.197   0.108   5.586
13925TIP3    H141718   5.197   0.177   5.653
13925TIP3    H241719   5.262   0.136   5.522
13926TIP3   OH241720   0.237   7.506   1.313
13926TIP3    H141721   0.179   7.457   1.372
13926TIP3    H241722   0.197   7.593   1.307
13927TIP3   OH241723   5.133   3.627   1.631
13927TIP3    H141724   5.166   3.676   1.555
13927TIP3    H241725   5.210   3.614   1.687
13928TIP3   OH241726   6.652   4.122   2.680
13928TIP3    H141727   6.685   4.188   2.741
13928TIP3    H241728   6.709   4.129   2.604
13929TIP3   OH241729   4.164   3.208   1.555
13929TIP3    H141730   4.081   3.244   1.586
13929TIP3    H241731   4.142   3.167   1.471
13930TIP3   OH241732   3.802   0.745   2.908
13930TIP3    H141733   3.806   0.662   2.860
13930TIP3    H241734   3.880   0.793   2.880
13931TIP3   OH241735   4.139   2.629   0.970
13931TIP3    H141736   4.230   2.647   0.992
13931TIP3    H241737   4.137   2.536   0.947
13932TIP3   OH241738   3.229   5.471   3.347
13932TIP3    H141739   3.143   5.460   3.307
13932TIP3    H241740   3.227   5.559   3.385
13933TIP3   OH241741   5.012   2.032   1.692
13933TIP3    H141742   4.957   1.984   1.754
13933TIP3    H241743   4.950   2.069   1.629
13934TIP3   OH241744   1.388   4.052   3.329
13934TIP3    H141745   1.332   4.034   3.404
13934TIP3    H241746   1.364   3.986   3.264
13935TIP3   OH241747   6.217   1.533   4.662
13935TIP3    H141748   6.262   1.450   4.679
13935TIP3    H241749   6.138   1.508   4.614
13936TIP3   OH241750   0.409   0.187   1.328
13936TIP3    H141751   0.419   0.092   1.329
13936TIP3    H241752   0.315   0.201   1.322
13937TIP3   OH241753   2.283   0.687   1.913
13937TIP3    H141754   2.348   0.730   1.968
13937TIP3    H241755   2.209   0.748   1.910
13938TIP3   OH241756   3.098   1.991   0.297
13938TIP3    H141757   3.041   2.030   0.232
13938TIP3    H241758   3.185   2.025   0.278
13939TIP3   OH241759   1.894   6.166   5.406
13939TIP3    H141760   1.822   6.227   5.422
13939TIP3    H241761   1.923   6.139   5.493
13940TIP3   OH241762   4.177   1.921   2.103
13940TIP3    H141763   4.101   1.878   2.142
13940TIP3    H241764   4.141   1.997   2.058
13941TIP3   OH241765   3.045   0.726   4.193
13941TIP3    H141766   3.120   0.728   4.252
13941TIP3    H241767   2.993   0.650   4.222
13942TIP3   OH241768   7.089   5.854   4.803
13942TIP3    H141769   7.022   5.785   4.813
13942TIP3    H241770   7.120   5.844   4.713
13943TIP3   OH241771   3.953   6.692   1.458
13943TIP3    H141772   3.960   6.632   1.532
13943TIP3    H241773   4.040   6.728   1.448
13944TIP3   OH241774   1.914   0.128   0.568
13944TIP3    H141775   1.924   0.034   0.583
13944TIP3    H241776   1.852   0.135   0.497
13945TIP3   OH241777   1.848   3.887   0.532
13945TIP3    H141778   1.920   3.950   0.536
13945TIP3    H241779   1.889   3.806   0.501
13946TIP3   OH241780   7.028   4.889   3.955
13946TIP3    H141781   7.034   4.882   3.860
13946TIP3    H241782   6.961   4.956   3.971
13947TIP3   OH241783   1.050   5.633   1.617
13947TIP3    H141784   1.031   5.727   1.618
13947TIP3    H241785   1.098   5.619   1.536
13948TIP3   OH241786   7.529   1.519   0.509
13948TIP3    H141787   7.440   1.527   0.544
13948TIP3    H241788   7.535   1.587   0.442
13949TIP3   OH241789   7.282   6.032   6.045
13949TIP3    H141790   7.279   6.012   5.952
13949TIP3    H241791   7.193   6.060   6.066
13950TIP3   OH241792   8.078   2.043   6.063
13950TIP3    H141793   8.032   2.109   6.011
13950TIP3    H241794   8.058   1.960   6.019
13951TIP3   OH241795   4.328   6.031   6.470
13951TIP3    H141796   4.234   6.049   6.464
13951TIP3    H241797   4.335   5.937   6.456
13952TIP3   OH241798   7.135   5.146   5.821
13952TIP3    H141799   7.229   5.153   5.807
13952TIP3    H241800   7.122   5.059   5.859
13953TIP3   OH241801   0.072   5.311   3.830
13953TIP3    H141802   0.061   5.406   3.843
13953TIP3    H241803   0.149   5.289   3.882
13954TIP3   OH241804   2.021   3.017   0.697
13954TIP3    H141805   2.109   3.015   0.733
13954TIP3    H241806   2.033   3.000   0.603
13955TIP3   OH241807   3.173   7.266   0.706
13955TIP3    H141808   3.137   7.308   0.785
13955TIP3    H241809   3.168   7.173   0.724
13956TIP3   OH241810   1.465   4.387   0.916
13956TIP3    H141811   1.422   4.363   0.834
13956TIP3    H241812   1.512   4.468   0.896
13957TIP3   OH241813   8.294   1.432   6.482
13957TIP3    H141814   8.199   1.438   6.486
13957TIP3    H241815   8.314   1.416   6.390
13958TIP3   OH241816   6.960   2.109   6.368
13958TIP3    H141817   6.876   2.090   6.327
13958TIP3    H241818   7.020   2.044   6.332
13959TIP3   OH241819   6.425   6.688   6.261
13959TIP3    H141820   6.386   6.710   6.176
13959TIP3    H241821   6.365   6.624   6.299
13960TIP3   OH241822   6.745   4.745   5.188
13960TIP3    H141823   6.819   4.723   5.132
13960TIP3    H241824   6.751   4.684   5.262
13961TIP3   OH241825   6.609   4.863   2.878
13961TIP3    H141826   6.592   4.899   2.791
13961TIP3    H241827   6.621   4.770   2.864
13962TIP3   OH241828   0.701   1.330   4.344
13962TIP3    H141829   0.699   1.346   4.438
13962TIP3    H241830   0.623   1.376   4.310
13963TIP3   OH241831   8.219   4.047   5.014
13963TIP3    H141832   8.235   4.107   5.087
13963TIP3    H241833   8.251   3.962   5.046
13964TIP3   OH241834   2.663   3.833   4.607
13964TIP3    H141835   2.607   3.893   4.557
13964TIP3    H241836   2.604   3.790   4.668
13965TIP3   OH241837   2.659   4.954   6.378
13965TIP3    H141838   2.720   5.005   6.324
13965TIP3    H241839   2.572   4.986   6.352
13966TIP3   OH241840   3.054   1.291   2.207
13966TIP3    H141841   2.980   1.303   2.267
13966TIP3    H241842   3.066   1.377   2.166
13967TIP3   OH241843   4.953   4.735   3.907
13967TIP3    H141844   4.912   4.810   3.864
13967TIP3    H241845   4.881   4.674   3.923
13968TIP3   OH241846   2.321   6.108   5.723
13968TIP3    H141847   2.247   6.118   5.783
13968TIP3    H241848   2.288   6.143   5.640
13969TIP3   OH241849   4.702   6.190   2.386
13969TIP3    H141850   4.756   6.268   2.389
13969TIP3    H241851   4.746   6.127   2.443
13970TIP3   OH241852   6.236   7.817   2.220
13970TIP3    H141853   6.194   7.819   2.134
13970TIP3    H241854   6.329   7.828   2.201
13971TIP3   OH241855   4.707   0.427   4.908
13971TIP3    H141856   4.662   0.497   4.957
13971TIP3    H241857   4.744   0.472   4.832
13972TIP3   OH241858   3.863   2.321   1.788
13972TIP3    H141859   3.946   2.367   1.789
13972TIP3    H241860   3.876   2.246   1.847
13973TIP3   OH241861   7.318   3.024   5.477
13973TIP3    H141862   7.281   2.939   5.498
13973TIP3    H241863   7.344   3.061   5.561
13974TIP3   OH241864   7.567   4.181   0.090
13974TIP3    H141865   7.536   4.151   0.175
13974TIP3    H241866   7.573   4.101   0.037
13975TIP3   OH241867   4.383   7.489   4.311
13975TIP3    H141868   4.341   7.575   4.319
13975TIP3    H241869   4.310   7.429   4.296
13976TIP3   OH241870   3.154   7.325   6.023
13976TIP3    H141871   3.071   7.279   6.007
13976TIP3    H241872   3.216   7.282   5.964
13977TIP3   OH241873   6.252   5.669   4.826
13977TIP3    H141874   6.318   5.627   4.881
13977TIP3    H241875   6.180   5.689   4.886
13978TIP3   OH241876   5.123   6.759   3.836
13978TIP3    H141877   5.036   6.765   3.876
13978TIP3    H241878   5.109   6.787   3.745
13979TIP3   OH241879   1.721   3.240   3.593
13979TIP3    H141880   1.812   3.213   3.590
13979TIP3    H241881   1.725   3.335   3.605
13980TIP3   OH241882   3.512   1.562   5.163
13980TIP3    H141883   3.496   1.581   5.070
13980TIP3    H241884   3.606   1.545   5.167
13981TIP3   OH241885   3.458   4.453   5.703
13981TIP3    H141886   3.506   4.528   5.668
13981TIP3    H241887   3.516   4.417   5.770
13982TIP3   OH241888   7.255   5.113   3.229
13982TIP3    H141889   7.270   5.131   3.322
13982TIP3    H241890   7.267   5.197   3.186
13983TIP3   OH241891   2.482   0.800   2.664
13983TIP3    H141892   2.442   0.732   2.611
13983TIP3    H241893   2.576   0.792   2.649
13984TIP3   OH241894   5.640   2.815   6.313
13984TIP3    H141895   5.709   2.806   6.379
13984TIP3    H241896   5.564   2.846   6.362
13985TIP3   OH241897   2.108   4.926   5.482
13985TIP3    H141898   2.021   4.888   5.491
13985TIP3    H241899   2.095   5.003   5.426
13986TIP3   OH241900   2.600   4.076   3.956
13986TIP3    H141901   2.655   4.130   4.013
13986TIP3    H241902   2.515   4.072   4.001
13987TIP3   OH241903   4.744   7.659   3.134
13987TIP3    H141904   4.671   7.598   3.121
13987TIP3    H241905   4.718   7.738   3.087
13988TIP3   OH241906   6.675   6.718   0.047
13988TIP3    H141907   6.679   6.718  -0.048
13988TIP3    H241908   6.694   6.628   0.073
13989TIP3   OH241909   5.308   1.599   1.388
13989TIP3    H141910   5.370   1.540   1.430
13989TIP3    H241911   5.311   1.575   1.295
13990TIP3   OH241912   7.940   7.079   1.594
13990TIP3    H141913   7.876   7.060   1.525
13990TIP3    H241914   8.022   7.096   1.548
13991TIP3   OH241915   6.208   0.369   5.870
13991TIP3    H141916   6.170   0.374   5.782
13991TIP3    H241917   6.151   0.307   5.917
13992TIP3   OH241918   3.975   3.040   3.489
13992TIP3    H141919   4.010   2.992   3.414
13992TIP3    H241920   3.918   2.978   3.534
13993TIP3   OH241921   6.612   4.994   5.049
13993TIP3    H141922   6.634   5.055   5.120
13993TIP3    H241923   6.590   4.912   5.093
13994TIP3   OH241924   0.415   2.100   4.265
13994TIP3    H141925   0.451   2.186   4.286
13994TIP3    H241926   0.450   2.042   4.332
13995TIP3   OH241927   2.718   4.656   0.800
13995TIP3    H141928   2.763   4.579   0.834
13995TIP3    H241929   2.751   4.728   0.854
13996TIP3   OH241930   5.671   4.108   3.028
13996TIP3    H141931   5.736   4.058   3.078
13996TIP3    H241932   5.587   4.071   3.054
13997TIP3   OH241933   7.185   7.794   3.017
13997TIP3    H141934   7.161   7.706   2.989
13997TIP3    H241935   7.122   7.815   3.086
13998TIP3   OH241936   2.290   5.081   0.927
13998TIP3    H141937   2.231   5.103   0.999
13998TIP3    H241938   2.351   5.018   0.965
13999TIP3   OH241939   4.297   3.538   1.430
13999TIP3    H141940   4.364   3.476   1.400
13999TIP3    H241941   4.293   3.526   1.524
14000TIP3   OH241942   7.314   7.611   1.085
14000TIP3    H141943   7.334   7.575   0.998
14000TIP3    H241944   7.368   7.561   1.145
14001TIP3   OH241945   5.081   2.771   4.881
14001TIP3    H141946   4.987   2.770   4.860
14001TIP3    H241947   5.097   2.861   4.911
14002TIP3   OH241948   3.829   6.993   5.083
14002TIP3    H141949   3.870   7.069   5.043
14002TIP3    H241950   3.811   7.019   5.173
14003TIP3   OH241951   3.989   1.016   5.132
14003TIP3    H141952   4.052   1.020   5.205
14003TIP3    H241953   3.933   1.093   5.145
14004TIP3   OH241954   1.678   0.667   3.372
14004TIP3    H141955   1.606   0.710   3.418
14004TIP3    H241956   1.755   0.719   3.394
14005TIP3   OH241957   0.728   5.317   2.951
14005TIP3    H141958   0.681   5.400   2.958
14005TIP3    H241959   0.809   5.339   2.904
14006TIP3   OH241960   0.847   2.149   3.710
14006TIP3    H141961   0.907   2.090   3.664
14006TIP3    H241962   0.820   2.213   3.644
14007TIP3   OH241963   5.331   1.246   3.643
14007TIP3    H141964   5.422   1.276   3.647
14007TIP3    H241965   5.310   1.224   3.734
14008TIP3   OH241966   1.646   4.039   3.199
14008TIP3    H141967   1.591   4.086   3.137
14008TIP3    H241968   1.584   3.986   3.250
14009TIP3   OH241969   4.490   0.878   4.925
14009TIP3    H141970   4.404   0.919   4.931
14009TIP3    H241971   4.543   0.941   4.875
14010TIP3   OH241972   4.319   1.473   2.098
14010TIP3    H141973   4.357   1.418   2.167
14010TIP3    H241974   4.249   1.521   2.142
14011TIP3   OH241975   3.062   4.495   3.942
14011TIP3    H141976   3.123   4.426   3.968
14011TIP3    H241977   3.056   4.553   4.018
14012TIP3   OH241978   3.181   0.655   0.989
14012TIP3    H141979   3.086   0.639   0.987
14012TIP3    H241980   3.216   0.589   0.929
14013TIP3   OH241981   2.859   0.811   1.326
14013TIP3    H141982   2.835   0.877   1.262
14013TIP3    H241983   2.947   0.782   1.299
14014TIP3   OH241984   3.867   2.446   4.387
14014TIP3    H141985   3.809   2.380   4.348
14014TIP3    H241986   3.947   2.440   4.336
14015TIP3   OH241987   1.528   5.271   4.494
14015TIP3    H141988   1.557   5.360   4.472
14015TIP3    H241989   1.475   5.244   4.419
14016TIP3   OH241990   2.453   5.781   3.693
14016TIP3    H141991   2.463   5.765   3.787
14016TIP3    H241992   2.540   5.807   3.664
14017TIP3   OH241993   2.274   5.075   3.268
14017TIP3    H141994   2.210   5.004   3.266
14017TIP3    H241995   2.295   5.086   3.361
14018TIP3   OH241996   0.455   3.440   2.374
14018TIP3    H141997   0.511   3.501   2.422
14018TIP3    H241998   0.513   3.368   2.350
14019TIP3   OH241999   3.564   3.339   6.163
14019TIP3    H142000   3.569   3.398   6.088
14019TIP3    H242001   3.490   3.281   6.144
14020TIP3   OH242002   0.838   0.310   5.395
14020TIP3    H142003   0.891   0.359   5.331
14020TIP3    H242004   0.885   0.320   5.478
14021TIP3   OH242005   0.045   2.714   0.970
14021TIP3    H142006   0.011   2.643   0.916
14021TIP3    H242007   0.091   2.670   1.041
14022TIP3   OH242008   2.990   1.715   0.032
14022TIP3    H142009   2.960   1.634  -0.010
14022TIP3    H242010   2.915   1.774   0.026
14023TIP3   OH242011   0.924   2.390   6.037
14023TIP3    H142012   0.837   2.368   6.071
14023TIP3    H242013   0.976   2.412   6.114
14024TIP3   OH242014   4.827   3.998   4.005
14024TIP3    H142015   4.872   3.990   3.921
14024TIP3    H242016   4.734   3.993   3.983
14025TIP3   OH242017   5.208   5.231   4.015
14025TIP3    H142018   5.150   5.292   3.972
14025TIP3    H242019   5.276   5.212   3.950
14026TIP3   OH242020   0.311   6.079   3.604
14026TIP3    H142021   0.345   6.131   3.677
14026TIP3    H242022   0.250   6.017   3.645
14027TIP3   OH242023   4.825   6.668   2.980
14027TIP3    H142024   4.872   6.665   3.063
14027TIP3    H242025   4.819   6.762   2.960
14028TIP3   OH242026   4.646   4.084   2.756
14028TIP3    H142027   4.668   4.107   2.666
14028TIP3    H242028   4.651   3.988   2.758
14029TIP3   OH242029   8.010   0.529   1.612
14029TIP3    H142030   7.920   0.556   1.629
14029TIP3    H242031   8.020   0.534   1.517
14030TIP3   OH242032   1.325   2.188   2.207
14030TIP3    H142033   1.326   2.281   2.231
14030TIP3    H242034   1.417   2.166   2.196
14031TIP3   OH242035   2.170   0.944   3.200
14031TIP3    H142036   2.080   0.965   3.174
14031TIP3    H242037   2.208   1.028   3.227
14032TIP3   OH242038   4.591   1.072   1.443
14032TIP3    H142039   4.590   1.146   1.504
14032TIP3    H242040   4.658   1.094   1.379
14033TIP3   OH242041   2.100   6.167   5.854
14033TIP3    H142042   2.085   6.216   5.935
14033TIP3    H242043   2.025   6.187   5.799
14034TIP3   OH242044   7.065   6.425   5.181
14034TIP3    H142045   6.971   6.442   5.173
14034TIP3    H242046   7.101   6.508   5.213
14035TIP3   OH242047   4.791   4.966   1.374
14035TIP3    H142048   4.754   4.999   1.456
14035TIP3    H242049   4.839   4.887   1.400
14036TIP3   OH242050   6.618   7.634   6.089
14036TIP3    H142051   6.606   7.542   6.112
14036TIP3    H242052   6.703   7.657   6.127
14037TIP3   OH242053   3.550   0.423   6.452
14037TIP3    H142054   3.521   0.337   6.482
14037TIP3    H242055   3.526   0.482   6.524
14038TIP3   OH242056   8.061   6.847   2.792
14038TIP3    H142057   8.123   6.841   2.719
14038TIP3    H242058   8.083   6.929   2.835
14039TIP3   OH242059   1.557   5.566   0.200
14039TIP3    H142060   1.525   5.478   0.181
14039TIP3    H242061   1.499   5.599   0.268
14040TIP3   OH242062   6.198   5.673   2.431
14040TIP3    H142063   6.285   5.689   2.392
14040TIP3    H242064   6.138   5.723   2.376
14041TIP3   OH242065   3.764   4.854   4.564
14041TIP3    H142066   3.782   4.817   4.650
14041TIP3    H242067   3.713   4.787   4.519
14042TIP3   OH242068   6.839   5.989   2.598
14042TIP3    H142069   6.902   5.948   2.539
14042TIP3    H242070   6.799   5.916   2.645
14043TIP3   OH242071   2.519   4.704   2.218
14043TIP3    H142072   2.467   4.723   2.297
14043TIP3    H242073   2.570   4.783   2.204
14044TIP3   OH242074   4.466   5.052   4.973
14044TIP3    H142075   4.469   4.972   5.025
14044TIP3    H242076   4.453   5.121   5.037
14045TIP3   OH242077   1.457   4.671   4.057
14045TIP3    H142078   1.383   4.633   4.105
14045TIP3    H242079   1.432   4.665   3.965
14046TIP3   OH242080   5.518   5.256   5.269
14046TIP3    H142081   5.463   5.180   5.256
14046TIP3    H242082   5.601   5.221   5.302
14047TIP3   OH242083   6.010   4.811   4.225
14047TIP3    H142084   6.034   4.745   4.159
14047TIP3    H242085   6.062   4.787   4.302
14048TIP3   OH242086   8.106   5.267   2.131
14048TIP3    H142087   8.059   5.285   2.213
14048TIP3    H242088   8.098   5.348   2.080
14049TIP3   OH242089   6.890   5.753   2.139
14049TIP3    H142090   6.914   5.703   2.061
14049TIP3    H242091   6.835   5.824   2.106
14050TIP3   OH242092   7.249   6.038   5.721
14050TIP3    H142093   7.313   5.973   5.693
14050TIP3    H242094   7.286   6.121   5.692
14051TIP3   OH242095   4.763   2.025   6.769
14051TIP3    H142096   4.727   1.939   6.790
14051TIP3    H242097   4.716   2.052   6.690
14052TIP3   OH242098   0.885   0.817   6.416
14052TIP3    H142099   0.825   0.877   6.460
14052TIP3    H242100   0.905   0.750   6.481
14053TIP3   OH242101   0.935   6.729   0.532
14053TIP3    H142102   0.993   6.725   0.456
14053TIP3    H242103   0.963   6.656   0.587
14054TIP3   OH242104   3.692   1.776   0.034
14054TIP3    H142105   3.603   1.807   0.049
14054TIP3    H242106   3.697   1.692   0.080
14055TIP3   OH242107   8.268   5.496   0.902
14055TIP3    H142108   8.244   5.486   0.994
14055TIP3    H242109   8.197   5.455   0.853
14056TIP3   OH242110   6.518   5.005   5.458
14056TIP3    H142111   6.584   5.072   5.440
14056TIP3    H242112   6.466   5.001   5.378
14057TIP3   OH242113   0.064   1.370   0.891
14057TIP3    H142114  -0.006   1.378   0.956
14057TIP3    H242115   0.090   1.460   0.871
14058TIP3   OH242116   3.142   5.546   0.911
14058TIP3    H142117   3.235   5.548   0.935
14058TIP3    H242118   3.124   5.633   0.876
14059TIP3   OH242119   5.501   1.969   0.629
14059TIP3    H142120   5.450   2.037   0.673
14059TIP3    H242121   5.538   2.014   0.553
14060TIP3   OH242122   5.830   1.407   4.826
14060TIP3    H142123   5.902   1.407   4.888
14060TIP3    H242124   5.755   1.440   4.876
14061TIP3   OH242125   3.537   5.378   1.523
14061TIP3    H142126   3.569   5.314   1.460
14061TIP3    H242127   3.589   5.363   1.602
14062TIP3   OH242128   0.219   5.561   0.743
14062TIP3    H142129   0.132   5.558   0.785
14062TIP3    H242130   0.230   5.652   0.718
14063TIP3   OH242131   6.926   4.639   5.497
14063TIP3    H142132   6.946   4.733   5.503
14063TIP3    H242133   6.959   4.613   5.411
14064TIP3   OH242134   2.018   6.583   2.611
14064TIP3    H142135   1.978   6.608   2.695
14064TIP3    H242136   2.007   6.660   2.555
14065TIP3   OH242137   4.396   4.572   1.750
14065TIP3    H142138   4.331   4.523   1.800
14065TIP3    H242139   4.458   4.505   1.721
14066TIP3   OH242140   7.977   5.416   0.440
14066TIP3    H142141   7.937   5.504   0.436
14066TIP3    H242142   8.028   5.410   0.359
14067TIP3   OH242143   0.278   3.586   5.130
14067TIP3    H142144   0.225   3.542   5.064
14067TIP3    H242145   0.271   3.530   5.208
14068TIP3   OH242146   4.642   0.408   1.743
14068TIP3    H142147   4.674   0.494   1.771
14068TIP3    H242148   4.662   0.404   1.650
14069TIP3   OH242149   0.916   7.274   1.328
14069TIP3    H142150   0.886   7.189   1.297
14069TIP3    H242151   1.009   7.263   1.343
14070TIP3   OH242152   3.557   2.307   5.872
14070TIP3    H142153   3.492   2.240   5.893
14070TIP3    H242154   3.557   2.364   5.949
14071TIP3   OH242155   4.554   0.867   2.348
14071TIP3    H142156   4.512   0.889   2.264
14071TIP3    H242157   4.607   0.944   2.369
14072TIP3   OH242158   6.089   1.345   3.263
14072TIP3    H142159   6.134   1.285   3.322
14072TIP3    H242160   6.098   1.306   3.176
14073TIP3   OH242161   0.509   7.530   5.648
14073TIP3    H142162   0.571   7.531   5.720
14073TIP3    H242163   0.436   7.477   5.680
14074TIP3   OH242164   8.081   7.524   6.613
14074TIP3    H142165   8.035   7.484   6.687
14074TIP3    H242166   8.164   7.554   6.649
14075TIP3   OH242167   3.071   4.962   3.587
14075TIP3    H142168   3.074   4.938   3.495
14075TIP3    H242169   3.146   5.020   3.599
14076TIP3   OH242170   1.520   4.910   3.111
14076TIP3    H142171   1.526   4.998   3.072
14076TIP3    H242172   1.532   4.850   3.037
14077TIP3   OH242173   0.461   7.242   6.083
14077TIP3    H142174   0.503   7.204   6.161
14077TIP3    H242175   0.529   7.241   6.016
14078TIP3   OH242176   2.290   1.459   3.907
14078TIP3    H142177   2.329   1.518   3.842
14078TIP3    H242178   2.201   1.444   3.875
14079TIP3   OH242179   2.225   2.738   2.034
14079TIP3    H142180   2.146   2.695   2.064
14079TIP3    H242181   2.252   2.795   2.107
14080TIP3   OH242182   2.598   1.634   0.992
14080TIP3    H142183   2.530   1.567   1.001
14080TIP3    H242184   2.563   1.710   1.038
14081TIP3   OH242185   1.007   0.821   6.734
14081TIP3    H142186   1.059   0.786   6.807
14081TIP3    H242187   0.920   0.835   6.772
14082TIP3   OH242188   1.369   7.127   2.907
14082TIP3    H142189   1.378   7.078   2.824
14082TIP3    H242190   1.286   7.096   2.944
14083TIP3   OH242191   7.271   1.226   1.282
14083TIP3    H142192   7.229   1.275   1.352
14083TIP3    H242193   7.363   1.254   1.286
14084TIP3   OH242194   7.538   2.578   2.067
14084TIP3    H142195   7.542   2.488   2.035
14084TIP3    H242196   7.629   2.608   2.064
14085TIP3   OH242197   2.580   2.898   4.524
14085TIP3    H142198   2.571   2.971   4.463
14085TIP3    H242199   2.589   2.821   4.468
14086TIP3   OH242200   5.765   1.159   6.650
14086TIP3    H142201   5.773   1.214   6.728
14086TIP3    H242202   5.760   1.221   6.577
14087TIP3   OH242203   6.449   5.170   2.056
14087TIP3    H142204   6.372   5.128   2.095
14087TIP3    H242205   6.431   5.264   2.062
14088TIP3   OH242206   7.925   4.125   3.419
14088TIP3    H142207   7.920   4.032   3.442
14088TIP3    H242208   7.834   4.152   3.407
14089TIP3   OH242209   3.801   7.321   3.932
14089TIP3    H142210   3.724   7.264   3.931
14089TIP3    H242211   3.775   7.395   3.988
14090TIP3   OH242212   3.565   3.651   5.674
14090TIP3    H142213   3.625   3.675   5.603
14090TIP3    H242214   3.501   3.593   5.634
14091TIP3   OH242215   6.174   1.712   0.177
14091TIP3    H142216   6.193   1.627   0.137
14091TIP3    H242217   6.242   1.724   0.243
14092TIP3   OH242218   6.600   0.446   0.401
14092TIP3    H142219   6.599   0.387   0.325
14092TIP3    H242220   6.508   0.451   0.428
14093TIP3   OH242221   1.031   7.125   3.580
14093TIP3    H142222   1.110   7.151   3.532
14093TIP3    H242223   1.045   7.155   3.669
14094TIP3   OH242224   1.510   7.186   0.253
14094TIP3    H142225   1.592   7.198   0.300
14094TIP3    H242226   1.515   7.097   0.218
14095TIP3   OH242227   5.273   7.162   5.248
14095TIP3    H142228   5.210   7.211   5.195
14095TIP3    H242229   5.310   7.097   5.188
14096TIP3   OH242230   7.549   4.461   0.048
14096TIP3    H142231   7.459   4.478   0.077
14096TIP3    H242232   7.551   4.367   0.029
14097TIP3   OH242233   1.568   6.875   0.467
14097TIP3    H142234   1.477   6.903   0.466
14097TIP3    H242235   1.617   6.955   0.487
14098TIP3   OH242236   3.853   4.671   3.960
14098TIP3    H142237   3.811   4.684   4.044
14098TIP3    H242238   3.896   4.586   3.967
14099TIP3   OH242239   5.257   0.419   5.164
14099TIP3    H142240   5.202   0.497   5.163
14099TIP3    H242241   5.200   0.351   5.201
14100TIP3   OH242242   2.718   7.221   3.896
14100TIP3    H142243   2.654   7.216   3.825
14100TIP3    H242244   2.677   7.175   3.969
14101TIP3   OH242245   5.150   6.354   1.126
14101TIP3    H142246   5.188   6.385   1.045
14101TIP3    H242247   5.216   6.371   1.193
14102TIP3   OH242248   3.423   1.928   2.942
14102TIP3    H142249   3.484   1.877   2.995
14102TIP3    H242250   3.354   1.866   2.918
14103TIP3   OH242251   3.349   7.335   0.315
14103TIP3    H142252   3.399   7.399   0.365
14103TIP3    H242253   3.412   7.297   0.255
14104TIP3   OH242254   2.558   2.529   2.774
14104TIP3    H142255   2.494   2.495   2.836
14104TIP3    H242256   2.629   2.465   2.775
14105TIP3   OH242257   0.955   0.495   0.871
14105TIP3    H142258   0.980   0.574   0.918
14105TIP3    H242259   0.863   0.481   0.892
14106TIP3   OH242260   0.781   3.638   0.369
14106TIP3    H142261   0.737   3.707   0.418
14106TIP3    H242262   0.847   3.683   0.317
14107TIP3   OH242263   1.215   5.922   0.736
14107TIP3    H142264   1.297   5.955   0.698
14107TIP3    H242265   1.220   5.827   0.723
14108TIP3   OH242266   2.447   7.661   1.245
14108TIP3    H142267   2.516   7.629   1.186
14108TIP3    H242268   2.428   7.749   1.212
14109TIP3   OH242269   2.331   6.175   5.284
14109TIP3    H142270   2.384   6.119   5.226
14109TIP3    H242271   2.396   6.224   5.335
14110TIP3   OH242272   7.753   3.938   1.329
14110TIP3    H142273   7.823   3.874   1.329
14110TIP3    H242274   7.751   3.971   1.419
14111TIP3   OH242275   3.588   0.725   0.011
14111TIP3    H142276   3.629   0.699   0.093
14111TIP3    H242277   3.504   0.763   0.036
14112TIP3   OH242278   6.607   3.254   4.065
14112TIP3    H142279   6.650   3.217   4.142
14112TIP3    H242280   6.601   3.181   4.003
14113TIP3   OH242281   0.262   2.014   0.315
14113TIP3    H142282   0.282   2.095   0.362
14113TIP3    H242283   0.343   1.993   0.269
14114TIP3   OH242284   5.439   7.167   6.176
14114TIP3    H142285   5.490   7.248   6.184
14114TIP3    H242286   5.418   7.161   6.083
14115TIP3   OH242287   1.003   2.238   0.480
14115TIP3    H142288   1.033   2.321   0.517
14115TIP3    H242289   0.951   2.263   0.403
14116TIP3   OH242290   1.670   4.062   2.508
14116TIP3    H142291   1.641   3.992   2.449
14116TIP3    H242292   1.589   4.106   2.534
14117TIP3   OH242293   8.073   1.477   5.121
14117TIP3    H142294   8.166   1.459   5.136
14117TIP3    H242295   8.032   1.391   5.116
14118TIP3   OH242296   4.907   3.756   5.377
14118TIP3    H142297   4.906   3.850   5.361
14118TIP3    H242298   4.964   3.745   5.452
14119TIP3   OH242299   7.502   5.661   0.307
14119TIP3    H142300   7.544   5.580   0.280
14119TIP3    H242301   7.461   5.694   0.228
14120TIP3   OH242302   1.317   3.892   6.521
14120TIP3    H142303   1.323   3.985   6.543
14120TIP3    H242304   1.323   3.889   6.426
14121TIP3   OH242305   3.684   6.306   2.985
14121TIP3    H142306   3.594   6.273   2.976
14121TIP3    H242307   3.732   6.263   2.914
14122TIP3   OH242308   4.621   2.662   6.480
14122TIP3    H142309   4.571   2.635   6.557
14122TIP3    H242310   4.573   2.738   6.446
14123TIP3   OH242311   2.032   2.746   4.731
14123TIP3    H142312   2.124   2.722   4.726
14123TIP3    H242313   2.028   2.816   4.796
14124TIP3   OH242314   1.334   4.157   1.603
14124TIP3    H142315   1.277   4.140   1.528
14124TIP3    H242316   1.356   4.250   1.596
14125TIP3   OH242317   7.637   4.113   5.803
14125TIP3    H142318   7.563   4.055   5.784
14125TIP3    H242319   7.641   4.172   5.728
14126TIP3   OH242320   6.796   1.627   0.482
14126TIP3    H142321   6.786   1.718   0.508
14126TIP3    H242322   6.837   1.631   0.395
14127TIP3   OH242323   2.423   3.972   6.070
14127TIP3    H142324   2.383   3.890   6.098
14127TIP3    H242325   2.504   3.977   6.120
14128TIP3   OH242326   6.376   3.585   1.997
14128TIP3    H142327   6.343   3.672   2.020
14128TIP3    H242328   6.419   3.554   2.077
14129TIP3   OH242329   3.650   3.957   0.778
14129TIP3    H142330   3.606   3.996   0.854
14129TIP3    H242331   3.658   4.029   0.716
14130TIP3   OH242332   7.135   7.804   6.252
14130TIP3    H142333   7.152   7.730   6.310
14130TIP3    H242334   7.096   7.871   6.308
14131TIP3   OH242335   0.700   3.683   6.030
14131TIP3    H142336   0.681   3.642   6.114
14131TIP3    H242337   0.639   3.756   6.024
14132TIP3   OH242338   2.180   6.736   0.757
14132TIP3    H142339   2.131   6.733   0.676
14132TIP3    H242340   2.271   6.724   0.731
14133TIP3   OH242341   6.481   0.502   3.287
14133TIP3    H142342   6.513   0.419   3.255
14133TIP3    H242343   6.483   0.493   3.383
14134TIP3   OH242344   4.663   5.391   2.574
14134TIP3    H142345   4.756   5.373   2.588
14134TIP3    H242346   4.624   5.305   2.555
14135TIP3   OH242347   5.632   3.189   2.409
14135TIP3    H142348   5.539   3.199   2.430
14135TIP3    H242349   5.637   3.211   2.316
14136TIP3   OH242350   1.336   5.597   3.275
14136TIP3    H142351   1.327   5.587   3.180
14136TIP3    H242352   1.358   5.509   3.306
14137TIP3   OH242353   0.418   1.877   4.537
14137TIP3    H142354   0.467   1.916   4.610
14137TIP3    H242355   0.441   1.784   4.540
14138TIP3   OH242356   5.823   6.008   2.315
14138TIP3    H142357   5.734   5.982   2.290
14138TIP3    H242358   5.814   6.096   2.350
14139TIP3   OH242359   7.456   7.127   1.922
14139TIP3    H142360   7.482   7.142   2.013
14139TIP3    H242361   7.537   7.103   1.878
14140TIP3   OH242362   3.886   6.835   3.969
14140TIP3    H142363   3.879   6.908   3.907
14140TIP3    H242364   3.841   6.762   3.926
14141TIP3   OH242365   7.252   7.220   3.257
14141TIP3    H142366   7.343   7.247   3.269
14141TIP3    H242367   7.242   7.212   3.163
14142TIP3   OH242368   8.088   6.636   0.549
14142TIP3    H142369   8.179   6.643   0.520
14142TIP3    H242370   8.082   6.696   0.624
14143TIP3   OH242371   4.550   5.132   2.548
14143TIP3    H142372   4.587   5.056   2.592
14143TIP3    H242373   4.571   5.118   2.455
14144TIP3   OH242374   6.914   1.062   5.214
14144TIP3    H142375   7.009   1.060   5.227
14144TIP3    H242376   6.878   1.023   5.293
14145TIP3   OH242377   2.506   2.341   1.335
14145TIP3    H142378   2.489   2.421   1.285
14145TIP3    H242379   2.471   2.270   1.280
14146TIP3   OH242380   0.320   5.564   6.174
14146TIP3    H142381   0.411   5.591   6.185
14146TIP3    H242382   0.271   5.646   6.164
14147TIP3   OH242383   6.934   1.614   2.057
14147TIP3    H142384   6.857   1.655   2.018
14147TIP3    H242385   6.956   1.542   1.998
14148TIP3   OH242386   0.411   4.696   0.504
14148TIP3    H142387   0.432   4.789   0.496
14148TIP3    H242388   0.347   4.679   0.435
14149TIP3   OH242389   0.605   1.589   1.497
14149TIP3    H142390   0.683   1.621   1.543
14149TIP3    H242391   0.532   1.629   1.543
14150TIP3   OH242392   1.017   2.336   3.016
14150TIP3    H142393   0.980   2.285   2.944
14150TIP3    H242394   1.102   2.366   2.983
14151TIP3   OH242395   3.655   1.954   5.875
14151TIP3    H142396   3.574   1.958   5.824
14151TIP3    H242397   3.715   1.902   5.821
14152TIP3   OH242398   5.864   6.448   3.733
14152TIP3    H142399   5.868   6.389   3.657
14152TIP3    H242400   5.918   6.405   3.799
14153TIP3   OH242401   7.987   3.845   2.580
14153TIP3    H142402   8.018   3.754   2.578
14153TIP3    H242403   7.933   3.851   2.659
14154TIP3   OH242404   0.495   6.829   5.592
14154TIP3    H142405   0.450   6.780   5.662
14154TIP3    H242406   0.502   6.766   5.520
14155TIP3   OH242407   4.652   4.271   2.526
14155TIP3    H142408   4.581   4.217   2.492
14155TIP3    H242409   4.709   4.287   2.450
14156TIP3   OH242410   6.460   6.271   5.514
14156TIP3    H142411   6.539   6.318   5.488
14156TIP3    H242412   6.388   6.328   5.488
14157TIP3   OH242413   0.673   0.108   0.434
14157TIP3    H142414   0.598   0.090   0.490
14157TIP3    H242415   0.686   0.203   0.441
14158TIP3   OH242416   7.674   1.586   2.061
14158TIP3    H142417   7.622   1.655   2.102
14158TIP3    H242418   7.754   1.582   2.114
14159TIP3   OH242419   0.840   5.142   5.917
14159TIP3    H142420   0.936   5.146   5.921
14159TIP3    H242421   0.822   5.087   5.841
14160TIP3   OH242422   5.390   0.795   4.424
14160TIP3    H142423   5.438   0.866   4.381
14160TIP3    H242424   5.413   0.804   4.516
14161TIP3   OH242425   4.370   5.801   4.198
14161TIP3    H142426   4.345   5.892   4.216
14161TIP3    H242427   4.446   5.809   4.140
14162TIP3   OH242428   6.317   1.133   2.837
14162TIP3    H142429   6.380   1.082   2.888
14162TIP3    H242430   6.274   1.189   2.902
14163TIP3   OH242431   2.354   0.952   5.658
14163TIP3    H142432   2.263   0.980   5.659
14163TIP3    H242433   2.354   0.866   5.698
14164TIP3   OH242434   4.655   6.740   0.397
14164TIP3    H142435   4.730   6.774   0.349
14164TIP3    H242436   4.691   6.675   0.457
14165TIP3   OH242437   4.214   3.978   4.790
14165TIP3    H142438   4.124   3.990   4.818
14165TIP3    H242439   4.238   4.062   4.751
14166TIP3   OH242440   0.573   2.972   2.016
14166TIP3    H142441   0.512   2.939   2.083
14166TIP3    H242442   0.586   2.898   1.958
14167TIP3   OH242443   4.884   0.122   4.244
14167TIP3    H142444   4.867   0.055   4.310
14167TIP3    H242445   4.805   0.176   4.244
14168TIP3   OH242446   6.673   3.071   6.490
14168TIP3    H142447   6.741   3.045   6.553
14168TIP3    H242448   6.635   2.988   6.461
14169TIP3   OH242449   2.308   6.705   3.082
14169TIP3    H142450   2.402   6.686   3.080
14169TIP3    H242451   2.273   6.662   3.005
14170TIP3   OH242452   7.011   3.359   2.463
14170TIP3    H142453   7.008   3.274   2.420
14170TIP3    H242454   7.000   3.340   2.556
14171TIP3   OH242455   1.741   3.357   0.162
14171TIP3    H142456   1.815   3.297   0.153
14171TIP3    H242457   1.729   3.366   0.257
14172TIP3   OH242458   4.501   0.320   2.561
14172TIP3    H142459   4.592   0.322   2.590
14172TIP3    H242460   4.488   0.230   2.530
14173TIP3   OH242461   2.677   5.831   2.823
14173TIP3    H142462   2.616   5.758   2.837
14173TIP3    H242463   2.761   5.799   2.855
14174TIP3   OH242464   8.252   0.052   1.560
14174TIP3    H142465   8.244   0.022   1.651
14174TIP3    H242466   8.319  -0.005   1.522
14175TIP3   OH242467   0.446   7.402   4.667
14175TIP3    H142468   0.517   7.466   4.677
14175TIP3    H242469   0.463   7.337   4.735
14176TIP3   OH242470   1.654   7.315   1.531
14176TIP3    H142471   1.630   7.263   1.454
14176TIP3    H242472   1.573   7.321   1.582
14177TIP3   OH242473   3.213   0.229   5.543
14177TIP3    H142474   3.266   0.150   5.540
14177TIP3    H242475   3.268   0.296   5.502
14178TIP3   OH242476   1.784   3.601   0.057
14178TIP3    H142477   1.762   3.508   0.064
14178TIP3    H242478   1.879   3.602   0.049
14179TIP3   OH242479   5.851   4.288   0.996
14179TIP3    H142480   5.810   4.360   1.045
14179TIP3    H242481   5.881   4.329   0.914
14180TIP3   OH242482   6.324   0.461   2.670
14180TIP3    H142483   6.379   0.538   2.688
14180TIP3    H242484   6.381   0.386   2.684
14181TIP3   OH242485   2.531   7.343   4.701
14181TIP3    H142486   2.523   7.396   4.781
14181TIP3    H242487   2.481   7.263   4.721
14182TIP3   OH242488   3.210   3.227   4.226
14182TIP3    H142489   3.118   3.250   4.239
14182TIP3    H242490   3.233   3.175   4.303
14183TIP3   OH242491   5.756   6.410   5.312
14183TIP3    H142492   5.826   6.403   5.377
14183TIP3    H242493   5.802   6.419   5.228
14184TIP3   OH242494   4.359   1.131   6.614
14184TIP3    H142495   4.328   1.041   6.629
14184TIP3    H242496   4.454   1.125   6.622
14185TIP3   OH242497   5.995   7.602   0.178
14185TIP3    H142498   6.032   7.690   0.170
14185TIP3    H242499   5.986   7.588   0.272
14186TIP3   OH242500   4.393   5.007   3.288
14186TIP3    H142501   4.384   5.101   3.273
14186TIP3    H242502   4.307   4.971   3.267
14187TIP3   OH242503   4.128   5.648   0.492
14187TIP3    H142504   4.099   5.654   0.401
14187TIP3    H242505   4.080   5.573   0.527
14188TIP3   OH242506   3.648   3.999   3.051
14188TIP3    H142507   3.627   3.907   3.068
14188TIP3    H242508   3.579   4.047   3.097
14189TIP3   OH242509   5.703   0.327   1.989
14189TIP3    H142510   5.797   0.309   1.979
14189TIP3    H242511   5.662   0.241   1.997
14190TIP3   OH242512   6.141   3.626   1.815
14190TIP3    H142513   6.182   3.665   1.892
14190TIP3    H242514   6.178   3.538   1.809
14191TIP3   OH242515   5.267   5.379   5.870
14191TIP3    H142516   5.221   5.382   5.786
14191TIP3    H242517   5.244   5.293   5.907
14192TIP3   OH242518   8.021   5.050   3.766
14192TIP3    H142519   8.073   5.107   3.824
14192TIP3    H242520   8.045   4.961   3.792
14193TIP3   OH242521   6.840   0.138   1.570
14193TIP3    H142522   6.881   0.223   1.589
14193TIP3    H242523   6.794   0.153   1.487
14194TIP3   OH242524   3.358   2.971   3.881
14194TIP3    H142525   3.362   3.016   3.797
14194TIP3    H242526   3.448   2.968   3.911
14195TIP3   OH242527   8.031   1.730   2.509
14195TIP3    H142528   8.109   1.785   2.505
14195TIP3    H242529   8.041   1.680   2.590
14196TIP3   OH242530   7.002   2.401   1.882
14196TIP3    H142531   7.044   2.369   1.962
14196TIP3    H242532   6.940   2.333   1.858
14197TIP3   OH242533   1.766   6.810   6.266
14197TIP3    H142534   1.826   6.883   6.250
14197TIP3    H242535   1.711   6.840   6.339
14198TIP3   OH242536   4.167   6.358   1.516
14198TIP3    H142537   4.186   6.314   1.598
14198TIP3    H242538   4.214   6.442   1.522
14199TIP3   OH242539   0.970   4.351   5.775
14199TIP3    H142540   0.897   4.354   5.713
14199TIP3    H242541   1.037   4.407   5.737
14200TIP3   OH242542   0.708   7.776   2.245
14200TIP3    H142543   0.727   7.784   2.339
14200TIP3    H242544   0.622   7.734   2.242
14201TIP3   OH242545   2.761   1.348   5.508
14201TIP3    H142546   2.710   1.411   5.458
14201TIP3    H242547   2.705   1.270   5.513
14202TIP3   OH242548   4.579   0.677   5.113
14202TIP3    H142549   4.498   0.636   5.085
14202TIP3    H242550   4.572   0.768   5.083
14203TIP3   OH242551   2.208   5.035   1.177
14203TIP3    H142552   2.136   4.973   1.173
14203TIP3    H242553   2.173   5.109   1.227
14204TIP3   OH242554   6.951   5.664   2.957
14204TIP3    H142555   7.028   5.715   2.983
14204TIP3    H242556   6.985   5.599   2.896
14205TIP3   OH242557   7.598   4.064   1.137
14205TIP3    H142558   7.657   4.034   1.207
14205TIP3    H242559   7.609   3.998   1.068
14206TIP3   OH242560   0.091   0.958   6.585
14206TIP3    H142561   0.085   0.865   6.610
14206TIP3    H242562   0.001   0.990   6.590
14207TIP3   OH242563   4.536   3.799   1.894
14207TIP3    H142564   4.445   3.823   1.909
14207TIP3    H242565   4.562   3.849   1.817
14208TIP3   OH242566   3.368   5.379   2.031
14208TIP3    H142567   3.365   5.325   2.110
14208TIP3    H242568   3.363   5.469   2.063
14209TIP3   OH242569   0.908   2.429   0.275
14209TIP3    H142570   0.840   2.379   0.229
14209TIP3    H242571   0.860   2.492   0.328
14210TIP3   OH242572   4.732   5.327   4.431
14210TIP3    H142573   4.699   5.350   4.344
14210TIP3    H242574   4.754   5.411   4.472
14211TIP3   OH242575   2.038   1.384   6.077
14211TIP3    H142576   2.084   1.468   6.077
14211TIP3    H242577   1.957   1.401   6.029
14212TIP3   OH242578   1.773   4.063   1.638
14212TIP3    H142579   1.856   4.106   1.658
14212TIP3    H242580   1.715   4.135   1.610
14213TIP3   OH242581   6.908   7.019   0.249
14213TIP3    H142582   6.926   6.926   0.242
14213TIP3    H242583   6.857   7.040   0.170
14214TIP3   OH242584   1.996   1.018   0.697
14214TIP3    H142585   2.066   1.084   0.695
14214TIP3    H242586   2.040   0.938   0.726
14215TIP3   OH242587   4.303   3.184   2.958
14215TIP3    H142588   4.336   3.260   3.006
14215TIP3    H242589   4.243   3.142   3.019
14216TIP3   OH242590   1.308   2.780   3.910
14216TIP3    H142591   1.358   2.758   3.988
14216TIP3    H242592   1.358   2.741   3.838
14217TIP3   OH242593   6.387   4.340   6.749
14217TIP3    H142594   6.440   4.261   6.748
14217TIP3    H242595   6.417   4.391   6.674
14218TIP3   OH242596   2.082   2.504   5.197
14218TIP3    H142597   2.027   2.565   5.147
14218TIP3    H242598   2.166   2.504   5.151
14219TIP3   OH242599   3.544   6.251   3.530
14219TIP3    H142600   3.452   6.258   3.557
14219TIP3    H242601   3.544   6.281   3.439
14220TIP3   OH242602   0.764   7.377   6.166
14220TIP3    H142603   0.744   7.354   6.257
14220TIP3    H242604   0.686   7.423   6.135
14221TIP3   OH242605   0.297   0.102   1.693
14221TIP3    H142606   0.248   0.025   1.665
14221TIP3    H242607   0.231   0.168   1.713
14222TIP3   OH242608   2.890   7.177   5.693
14222TIP3    H142609   2.818   7.125   5.657
14222TIP3    H242610   2.897   7.149   5.784
14223TIP3   OH242611   5.092   0.780   5.680
14223TIP3    H142612   5.022   0.846   5.681
14223TIP3    H242613   5.046   0.697   5.664
14224TIP3   OH242614   2.772   5.989   1.097
14224TIP3    H142615   2.766   5.963   1.189
14224TIP3    H242616   2.730   6.075   1.094
14225TIP3   OH242617   1.237   5.377   1.041
14225TIP3    H142618   1.141   5.374   1.044
14225TIP3    H242619   1.266   5.311   1.104
14226TIP3   OH242620   7.004   3.594   2.851
14226TIP3    H142621   7.046   3.675   2.876
14226TIP3    H242622   7.036   3.529   2.913
14227TIP3   OH242623   2.189   2.852   2.314
14227TIP3    H142624   2.139   2.927   2.282
14227TIP3    H242625   2.125   2.797   2.359
14228TIP3   OH242626   4.743   6.232   1.795
14228TIP3    H142627   4.770   6.141   1.785
14228TIP3    H242628   4.816   6.274   1.841
14229TIP3   OH242629   2.349   7.312   6.539
14229TIP3    H142630   2.396   7.229   6.537
14229TIP3    H242631   2.398   7.366   6.601
14230TIP3   OH242632   7.449   5.603   2.806
14230TIP3    H142633   7.410   5.606   2.893
14230TIP3    H242634   7.544   5.606   2.822
14231TIP3   OH242635   6.165   0.772   1.591
14231TIP3    H142636   6.134   0.801   1.677
14231TIP3    H242637   6.086   0.769   1.537
14232TIP3   OH242638   0.791   4.997   5.671
14232TIP3    H142639   0.825   5.035   5.590
14232TIP3    H242640   0.697   4.986   5.654
14233TIP3   OH242641   4.497   4.090   2.140
14233TIP3    H142642   4.465   4.173   2.104
14233TIP3    H242643   4.576   4.072   2.091
14234TIP3   OH242644   1.215   1.176   0.364
14234TIP3    H142645   1.262   1.125   0.299
14234TIP3    H242646   1.234   1.267   0.342
14235TIP3   OH242647   7.948   4.318   5.999
14235TIP3    H142648   7.887   4.294   6.068
14235TIP3    H242649   7.924   4.261   5.925
14236TIP3   OH242650   1.751   1.254   3.249
14236TIP3    H142651   1.700   1.179   3.279
14236TIP3    H242652   1.686   1.322   3.231
14237TIP3   OH242653   7.215   7.088   6.115
14237TIP3    H142654   7.163   7.017   6.078
14237TIP3    H242655   7.190   7.091   6.208
14238TIP3   OH242656   4.046   6.626   6.473
14238TIP3    H142657   3.979   6.689   6.448
14238TIP3    H242658   4.071   6.584   6.390
14239TIP3   OH242659   4.163   7.772   2.368
14239TIP3    H142660   4.179   7.723   2.288
14239TIP3    H242661   4.196   7.716   2.438
14240TIP3   OH242662   5.533   7.697   2.462
14240TIP3    H142663   5.570   7.614   2.432
14240TIP3    H242664   5.439   7.684   2.458
14241TIP3   OH242665   0.247   7.304   4.243
14241TIP3    H142666   0.242   7.312   4.339
14241TIP3    H242667   0.158   7.322   4.213
14242TIP3   OH242668   2.573   6.934   2.412
14242TIP3    H142669   2.636   7.004   2.430
14242TIP3    H242670   2.527   6.963   2.333
14243TIP3   OH242671   6.704   1.165   2.647
14243TIP3    H142672   6.631   1.222   2.669
14243TIP3    H242673   6.782   1.213   2.673
14244TIP3   OH242674   5.783   1.648   2.200
14244TIP3    H142675   5.824   1.563   2.218
14244TIP3    H242676   5.709   1.628   2.144
14245TIP3   OH242677   6.543   4.711   6.054
14245TIP3    H142678   6.596   4.690   6.130
14245TIP3    H242679   6.606   4.736   5.987
14246TIP3   OH242680   4.190   4.388   2.563
14246TIP3    H142681   4.150   4.377   2.650
14246TIP3    H242682   4.241   4.469   2.571
14247TIP3   OH242683   2.761   5.110   2.798
14247TIP3    H142684   2.845   5.066   2.784
14247TIP3    H242685   2.748   5.104   2.893
14248TIP3   OH242686   3.537   6.936   4.691
14248TIP3    H142687   3.535   7.028   4.718
14248TIP3    H242688   3.630   6.916   4.681
14249TIP3   OH242689   2.129   3.368   2.432
14249TIP3    H142690   2.118   3.439   2.369
14249TIP3    H242691   2.200   3.314   2.396
14250TIP3   OH242692   2.368   1.975   3.479
14250TIP3    H142693   2.286   2.023   3.495
14250TIP3    H242694   2.345   1.907   3.417
14251TIP3   OH242695   2.464   3.260   3.523
14251TIP3    H142696   2.491   3.193   3.460
14251TIP3    H242697   2.525   3.250   3.596
14252TIP3   OH242698   7.179   0.908   5.804
14252TIP3    H142699   7.087   0.884   5.798
14252TIP3    H242700   7.179   1.002   5.823
14253TIP3   OH242701   4.404   2.140   6.015
14253TIP3    H142702   4.339   2.108   6.078
14253TIP3    H242703   4.353   2.188   5.950
14254TIP3   OH242704   6.689   3.083   4.265
14254TIP3    H142705   6.663   3.011   4.207
14254TIP3    H242706   6.770   3.052   4.307
14255TIP3   OH242707   2.779   3.962   2.600
14255TIP3    H142708   2.803   3.973   2.508
14255TIP3    H242709   2.805   4.044   2.642
14256TIP3   OH242710   6.965   0.968   2.675
14256TIP3    H142711   6.896   0.904   2.696
14256TIP3    H242712   7.044   0.932   2.716
14257TIP3   OH242713   2.551   5.374   2.245
14257TIP3    H142714   2.644   5.393   2.262
14257TIP3    H242715   2.541   5.282   2.265
14258TIP3   OH242716   2.903   5.925   6.667
14258TIP3    H142717   2.949   5.931   6.583
14258TIP3    H242718   2.828   5.869   6.650
14259TIP3   OH242719   0.239   0.624   4.757
14259TIP3    H142720   0.267   0.714   4.775
14259TIP3    H242721   0.254   0.577   4.839
14260TIP3   OH242722   5.806   6.502   5.895
14260TIP3    H142723   5.725   6.455   5.875
14260TIP3    H242724   5.824   6.481   5.987
14261TIP3   OH242725   4.225   6.999   1.559
14261TIP3    H142726   4.312   7.033   1.582
14261TIP3    H242727   4.179   7.075   1.524
14262TIP3   OH242728   5.525   1.512   2.334
14262TIP3    H142729   5.610   1.484   2.367
14262TIP3    H242730   5.461   1.459   2.381
14263TIP3   OH242731   6.262   3.008   1.412
14263TIP3    H142732   6.214   3.069   1.354
14263TIP3    H242733   6.212   2.927   1.407
14264TIP3   OH242734   7.358   6.106   2.960
14264TIP3    H142735   7.344   6.095   2.866
14264TIP3    H242736   7.425   6.042   2.982
14265TIP3   OH242737   4.553   5.488   0.149
14265TIP3    H142738   4.565   5.422   0.217
14265TIP3    H242739   4.494   5.552   0.188
14266TIP3   OH242740   0.021   6.520   4.353
14266TIP3    H142741   0.108   6.484   4.371
14266TIP3    H242742   0.030   6.564   4.268
14267TIP3   OH242743   1.186   1.647   6.022
14267TIP3    H142744   1.134   1.592   6.079
14267TIP3    H242745   1.274   1.610   6.026
14268TIP3   OH242746   7.515   1.795   5.215
14268TIP3    H142747   7.434   1.746   5.228
14268TIP3    H242748   7.543   1.818   5.303
14269TIP3   OH242749   4.937   1.127   1.912
14269TIP3    H142750   4.974   1.040   1.927
14269TIP3    H242751   4.848   1.122   1.946
14270TIP3   OH242752   1.118   4.454   2.404
14270TIP3    H142753   1.120   4.465   2.499
14270TIP3    H242754   1.076   4.369   2.391
14271TIP3   OH242755   5.459   0.723   5.131
14271TIP3    H142756   5.484   0.648   5.077
14271TIP3    H242757   5.398   0.773   5.078
14272TIP3   OH242758   6.429   3.096   3.763
14272TIP3    H142759   6.407   3.017   3.715
14272TIP3    H242760   6.504   3.072   3.817
14273TIP3   OH242761   1.906   4.581   6.332
14273TIP3    H142762   1.846   4.579   6.407
14273TIP3    H242763   1.913   4.489   6.306
14274TIP3   OH242764   5.160   5.299   2.659
14274TIP3    H142765   5.213   5.371   2.625
14274TIP3    H242766   5.209   5.267   2.735
14275TIP3   OH242767   7.668   5.104   2.487
14275TIP3    H142768   7.663   5.179   2.546
14275TIP3    H242769   7.702   5.138   2.405
14276TIP3   OH242770   1.516   4.615   6.719
14276TIP3    H142771   1.550   4.698   6.751
14276TIP3    H242772   1.565   4.548   6.768
14277TIP3   OH242773   0.021   0.103   5.053
14277TIP3    H142774   0.046   0.186   5.013
14277TIP3    H242775   0.035   0.038   4.984
14278TIP3   OH242776   7.352   4.738   4.353
14278TIP3    H142777   7.334   4.696   4.269
14278TIP3    H242778   7.322   4.828   4.342
14279TIP3   OH242779   5.067   2.215   0.168
14279TIP3    H142780   5.049   2.121   0.165
14279TIP3    H242781   4.987   2.253   0.206
14280TIP3   OH242782   7.982   6.336   3.683
14280TIP3    H142783   8.036   6.367   3.755
14280TIP3    H242784   7.898   6.315   3.724
14281TIP3   OH242785   5.903   4.129   3.492
14281TIP3    H142786   5.918   4.188   3.418
14281TIP3    H242787   5.897   4.042   3.453
14282TIP3   OH242788   2.845   1.619   1.605
14282TIP3    H142789   2.805   1.587   1.686
14282TIP3    H242790   2.775   1.665   1.559
14283TIP3   OH242791   6.962   1.785   0.777
14283TIP3    H142792   6.906   1.788   0.699
14283TIP3    H242793   7.022   1.712   0.760
14284TIP3   OH242794   6.460   6.010   4.128
14284TIP3    H142795   6.421   6.092   4.158
14284TIP3    H242796   6.390   5.967   4.079
14285TIP3   OH242797   0.963   7.394   4.963
14285TIP3    H142798   0.917   7.318   4.998
14285TIP3    H242799   0.905   7.468   4.982
14286TIP3   OH242800   1.440   2.690   4.422
14286TIP3    H142801   1.485   2.773   4.401
14286TIP3    H242802   1.419   2.652   4.337
14287TIP3   OH242803   5.690   1.409   6.516
14287TIP3    H142804   5.659   1.409   6.425
14287TIP3    H242805   5.755   1.479   6.520
14288TIP3   OH242806   2.812   0.311   0.938
14288TIP3    H142807   2.735   0.281   0.988
14288TIP3    H242808   2.886   0.282   0.991
14289TIP3   OH242809   1.334   7.071   3.573
14289TIP3    H142810   1.396   7.120   3.628
14289TIP3    H242811   1.315   6.991   3.623
14290TIP3   OH242812   2.869   4.211   2.666
14290TIP3    H142813   2.940   4.231   2.604
14290TIP3    H242814   2.790   4.243   2.622
14291TIP3   OH242815   2.929   7.450   0.091
14291TIP3    H142816   2.896   7.382   0.033
14291TIP3    H242817   3.021   7.428   0.104
14292TIP3   OH242818   4.587   3.476   2.602
14292TIP3    H142819   4.553   3.547   2.548
14292TIP3    H242820   4.589   3.400   2.543
14293TIP3   OH242821   6.908   4.846   4.672
14293TIP3    H142822   6.991   4.824   4.713
14293TIP3    H242823   6.857   4.886   4.741
14294TIP3   OH242824   1.238   3.010   2.058
14294TIP3    H142825   1.327   2.975   2.051
14294TIP3    H242826   1.197   2.987   1.974
14295TIP3   OH242827   8.083   4.857   6.131
14295TIP3    H142828   7.991   4.885   6.131
14295TIP3    H242829   8.080   4.767   6.100
14296TIP3   OH242830   5.575   1.802   6.655
14296TIP3    H142831   5.598   1.792   6.562
14296TIP3    H242832   5.561   1.896   6.666
14297TIP3   OH242833   6.460   5.545   1.287
14297TIP3    H142834   6.379   5.497   1.273
14297TIP3    H242835   6.505   5.541   1.202
14298TIP3   OH242836   3.471   5.606   5.078
14298TIP3    H142837   3.430   5.524   5.106
14298TIP3    H242838   3.498   5.648   5.159
14299TIP3   OH242839   6.710   0.275   4.680
14299TIP3    H142840   6.665   0.314   4.605
14299TIP3    H242841   6.799   0.309   4.674
14300TIP3   OH242842   4.399   0.011   1.644
14300TIP3    H142843   4.347  -0.048   1.591
14300TIP3    H242844   4.350   0.019   1.726
14301TIP3   OH242845   6.569   2.088   0.243
14301TIP3    H142846   6.549   1.995   0.247
14301TIP3    H242847   6.611   2.100   0.158
14302TIP3   OH242848   6.881   2.398   4.836
14302TIP3    H142849   6.934   2.468   4.797
14302TIP3    H242850   6.869   2.426   4.927
14303TIP3   OH242851   0.318   0.334   2.985
14303TIP3    H142852   0.371   0.414   2.984
14303TIP3    H242853   0.336   0.294   3.070
14304TIP3   OH242854   7.394   7.269   1.690
14304TIP3    H142855   7.407   7.358   1.723
14304TIP3    H242856   7.401   7.213   1.768
14305TIP3   OH242857   2.042   3.672   6.200
14305TIP3    H142858   2.085   3.731   6.138
14305TIP3    H242859   2.006   3.602   6.146
14306TIP3   OH242860   1.156   5.547   5.009
14306TIP3    H142861   1.154   5.500   4.926
14306TIP3    H242862   1.116   5.487   5.072
14307TIP3   OH242863   2.761   2.891   2.273
14307TIP3    H142864   2.769   2.985   2.288
14307TIP3    H242865   2.684   2.865   2.324
14308TIP3   OH242866   2.153   4.299   6.574
14308TIP3    H142867   2.208   4.295   6.653
14308TIP3    H242868   2.213   4.280   6.502
14309TIP3   OH242869   3.922   2.680   4.521
14309TIP3    H142870   3.889   2.601   4.478
14309TIP3    H242871   3.847   2.740   4.524
14310TIP3   OH242872   5.317   4.500   1.242
14310TIP3    H142873   5.392   4.555   1.220
14310TIP3    H242874   5.320   4.494   1.338
14311TIP3   OH242875   2.229   0.421   6.673
14311TIP3    H142876   2.219   0.490   6.607
14311TIP3    H242877   2.212   0.466   6.756
14312TIP3   OH242878   0.338   7.306   5.703
14312TIP3    H142879   0.359   7.281   5.793
14312TIP3    H242880   0.251   7.343   5.707
14313TIP3   OH242881   1.730   3.065   4.902
14313TIP3    H142882   1.787   3.116   4.845
14313TIP3    H242883   1.688   3.130   4.958
14314TIP3   OH242884   0.402   1.690   4.806
14314TIP3    H142885   0.396   1.701   4.901
14314TIP3    H242886   0.448   1.768   4.776
14315TIP3   OH242887   6.285   7.679   3.995
14315TIP3    H142888   6.378   7.699   3.986
14315TIP3    H242889   6.260   7.717   4.079
14316TIP3   OH242890   0.097   4.357   3.758
14316TIP3    H142891   0.158   4.399   3.819
14316TIP3    H242892   0.153   4.313   3.694
14317TIP3   OH242893   3.909   7.073   5.714
14317TIP3    H142894   3.885   7.117   5.796
14317TIP3    H242895   3.832   7.085   5.658
14318TIP3   OH242896   6.335   6.228   4.236
14318TIP3    H142897   6.271   6.289   4.200
14318TIP3    H242898   6.391   6.282   4.292
14319TIP3   OH242899   5.591   5.371   1.161
14319TIP3    H142900   5.656   5.439   1.142
14319TIP3    H242901   5.507   5.410   1.138
14320TIP3   OH242902   7.694   7.414   0.971
14320TIP3    H142903   7.715   7.452   1.056
14320TIP3    H242904   7.775   7.422   0.920
14321TIP3   OH242905   6.935   4.226   3.351
14321TIP3    H142906   6.932   4.279   3.431
14321TIP3    H242907   6.878   4.272   3.290
14322TIP3   OH242908   7.337   2.820   4.687
14322TIP3    H142909   7.346   2.817   4.783
14322TIP3    H242910   7.249   2.853   4.673
14323TIP3   OH242911   6.144   1.072   5.918
14323TIP3    H142912   6.216   1.015   5.891
14323TIP3    H242913   6.067   1.037   5.873
14324TIP3   OH242914   7.127   1.235   2.972
14324TIP3    H142915   7.157   1.325   2.964
14324TIP3    H242916   7.195   1.183   2.929
14325TIP3   OH242917   7.369   2.777   3.659
14325TIP3    H142918   7.464   2.780   3.666
14325TIP3    H242919   7.345   2.693   3.699
14326TIP3   OH242920   5.229   2.888   0.396
14326TIP3    H142921   5.170   2.895   0.471
14326TIP3    H242922   5.269   2.974   0.389
14327TIP3   OH242923   2.325   4.669   1.212
14327TIP3    H142924   2.240   4.628   1.228
14327TIP3    H242925   2.388   4.610   1.253
14328TIP3   OH242926   2.360   6.059   2.618
14328TIP3    H142927   2.418   6.054   2.693
14328TIP3    H242928   2.339   5.968   2.598
14329TIP3   OH242929   1.849   2.001   5.294
14329TIP3    H142930   1.788   1.968   5.229
14329TIP3    H242931   1.797   2.059   5.349
14330TIP3   OH242932   3.952   0.179   1.345
14330TIP3    H142933   3.996   0.135   1.418
14330TIP3    H242934   3.862   0.145   1.348
14331TIP3   OH242935   7.697   0.180   4.862
14331TIP3    H142936   7.770   0.214   4.809
14331TIP3    H242937   7.739   0.130   4.931
14332TIP3   OH242938   0.456   0.062   2.392
14332TIP3    H142939   0.454  -0.033   2.378
14332TIP3    H242940   0.505   0.073   2.473
14333TIP3   OH242941   1.720   2.117   2.433
14333TIP3    H142942   1.675   2.144   2.513
14333TIP3    H242943   1.805   2.084   2.463
14334TIP3   OH242944   4.889   7.233   4.651
14334TIP3    H142945   4.927   7.151   4.621
14334TIP3    H242946   4.941   7.301   4.608
14335TIP3   OH242947   0.337   0.545   3.386
14335TIP3    H142948   0.280   0.576   3.456
14335TIP3    H242949   0.297   0.580   3.306
14336TIP3   OH242950   3.595   2.652   2.649
14336TIP3    H142951   3.614   2.745   2.637
14336TIP3    H242952   3.681   2.609   2.646
14337TIP3   OH242953   7.572   4.778   3.898
14337TIP3    H142954   7.607   4.750   3.982
14337TIP3    H242955   7.502   4.838   3.920
14338TIP3   OH242956   3.727   3.631   3.458
14338TIP3    H142957   3.759   3.553   3.503
14338TIP3    H242958   3.791   3.699   3.480
14339TIP3   OH242959   3.600   0.523   3.230
14339TIP3    H142960   3.645   0.443   3.205
14339TIP3    H242961   3.532   0.495   3.292
14340TIP3   OH242962   2.495   7.412   5.411
14340TIP3    H142963   2.520   7.359   5.487
14340TIP3    H242964   2.544   7.375   5.338
14341TIP3   OH242965   1.544   5.688   3.454
14341TIP3    H142966   1.611   5.626   3.424
14341TIP3    H242967   1.477   5.687   3.386
14342TIP3   OH242968   2.257   2.322   0.471
14342TIP3    H142969   2.260   2.351   0.562
14342TIP3    H242970   2.303   2.238   0.471
14343TIP3   OH242971   4.315   3.138   6.152
14343TIP3    H142972   4.308   3.091   6.235
14343TIP3    H242973   4.249   3.098   6.095
14344TIP3   OH242974   7.220   5.244   3.702
14344TIP3    H142975   7.247   5.208   3.617
14344TIP3    H242976   7.285   5.211   3.764
14345TIP3   OH242977   4.521   6.536   1.401
14345TIP3    H142978   4.448   6.580   1.443
14345TIP3    H242979   4.583   6.606   1.381
14346TIP3   OH242980   1.450   2.783   3.669
14346TIP3    H142981   1.492   2.859   3.629
14346TIP3    H242982   1.492   2.708   3.626
14347TIP3   OH242983   8.247   1.089   5.544
14347TIP3    H142984   8.248   0.994   5.545
14347TIP3    H242985   8.230   1.114   5.635
14348TIP3   OH242986   0.339   1.766   2.715
14348TIP3    H142987   0.383   1.848   2.738
14348TIP3    H242988   0.261   1.793   2.668
14349TIP3   OH242989   5.606   1.655   0.998
14349TIP3    H142990   5.661   1.661   0.920
14349TIP3    H242991   5.529   1.606   0.969
14350TIP3   OH242992   3.046   4.783   2.492
14350TIP3    H142993   2.975   4.722   2.474
14350TIP3    H242994   3.077   4.758   2.579
14351TIP3   OH242995   6.075   2.033   2.652
14351TIP3    H142996   6.157   2.048   2.699
14351TIP3    H242997   6.007   2.049   2.717
14352TIP3   OH242998   3.899   5.609   5.703
14352TIP3    H142999   3.968   5.544   5.686
14352TIP3    H243000   3.833   5.590   5.636
14353TIP3   OH243001   6.429   3.743   6.637
14353TIP3    H143002   6.352   3.735   6.581
14353TIP3    H243003   6.445   3.655   6.670
14354TIP3   OH243004   7.650   5.236   6.268
14354TIP3    H143005   7.735   5.272   6.295
14354TIP3    H243006   7.587   5.274   6.329
14355TIP3   OH243007   3.846   2.966   1.699
14355TIP3    H143008   3.762   2.999   1.732
14355TIP3    H243009   3.895   3.046   1.677
14356TIP3   OH243010   2.675   0.069   0.719
14356TIP3    H143011   2.706   0.000   0.660
14356TIP3    H243012   2.692   0.150   0.671
14357TIP3   OH243013   1.277   5.727   2.848
14357TIP3    H143014   1.367   5.698   2.866
14357TIP3    H243015   1.271   5.729   2.753
14358TIP3   OH243016   2.668   0.140   2.637
14358TIP3    H143017   2.635   0.124   2.549
14358TIP3    H243018   2.645   0.231   2.656
14359TIP3   OH243019   0.366   5.828   3.944
14359TIP3    H143020   0.431   5.772   3.902
14359TIP3    H243021   0.416   5.906   3.971
14360TIP3   OH243022   4.488   0.054   5.374
14360TIP3    H143023   4.516   0.114   5.443
14360TIP3    H243024   4.426  -0.005   5.417
14361TIP3   OH243025   5.387   5.329   6.247
14361TIP3    H143026   5.296   5.302   6.235
14361TIP3    H243027   5.384   5.388   6.322
14362TIP3   OH243028   0.045   3.245   4.216
14362TIP3    H143029   0.018   3.231   4.125
14362TIP3    H243030   0.139   3.228   4.215
14363TIP3   OH243031   1.404   7.173   5.959
14363TIP3    H143032   1.461   7.124   6.018
14363TIP3    H243033   1.389   7.256   6.004
14364TIP3   OH243034   4.509   5.738   1.543
14364TIP3    H143035   4.503   5.743   1.447
14364TIP3    H243036   4.422   5.764   1.573
14365TIP3   OH243037   6.875   0.307   5.107
14365TIP3    H143038   6.799   0.358   5.135
14365TIP3    H243039   6.840   0.220   5.088
14366TIP3   OH243040   0.300   0.039   2.034
14366TIP3    H143041   0.270  -0.046   2.003
14366TIP3    H243042   0.264   0.046   2.123
14367TIP3   OH243043   6.991   0.984   1.601
14367TIP3    H143044   7.009   1.019   1.513
14367TIP3    H243045   7.075   0.993   1.647
14368TIP3   OH243046   6.990   6.110   2.303
14368TIP3    H143047   7.075   6.136   2.339
14368TIP3    H243048   7.008   6.088   2.212
14369TIP3   OH243049   0.376   6.630   5.752
14369TIP3    H143050   0.356   6.554   5.699
14369TIP3    H243051   0.464   6.614   5.786
14370TIP3   OH243052   5.098   0.480   1.471
14370TIP3    H143053   5.192   0.475   1.483
14370TIP3    H243054   5.080   0.428   1.393
14371TIP3   OH243055   5.079   3.750   2.745
14371TIP3    H143056   5.026   3.676   2.774
14371TIP3    H243057   5.091   3.736   2.651
14372TIP3   OH243058   7.097   1.102   5.480
14372TIP3    H143059   7.153   1.088   5.403
14372TIP3    H243060   7.158   1.133   5.548
14373TIP3   OH243061   1.944   5.430   6.539
14373TIP3    H143062   1.934   5.525   6.540
14373TIP3    H243063   1.948   5.408   6.445
14374TIP3   OH243064   4.348   3.611   6.726
14374TIP3    H143065   4.369   3.564   6.645
14374TIP3    H243066   4.293   3.550   6.776
14375TIP3   OH243067   4.259   2.182   1.037
14375TIP3    H143068   4.228   2.095   1.015
14375TIP3    H243069   4.352   2.171   1.058
14376TIP3   OH243070   6.501   2.872   4.803
14376TIP3    H143071   6.429   2.885   4.865
14376TIP3    H243072   6.470   2.803   4.744
14377TIP3   OH243073   5.450   5.724   1.360
14377TIP3    H143074   5.445   5.755   1.269
14377TIP3    H243075   5.495   5.640   1.354
14378TIP3   OH243076   2.338   1.466   2.251
14378TIP3    H143077   2.388   1.391   2.284
14378TIP3    H243078   2.250   1.431   2.237
14379TIP3   OH243079   5.357   4.211   1.228
14379TIP3    H143080   5.358   4.182   1.137
14379TIP3    H243081   5.326   4.302   1.224
14380TIP3   OH243082   5.439   7.661   2.867
14380TIP3    H143083   5.502   7.628   2.930
14380TIP3    H243084   5.369   7.699   2.920
14381TIP3   OH243085   0.831   0.718   1.129
14381TIP3    H143086   0.809   0.658   1.201
14381TIP3    H243087   0.883   0.787   1.171
14382TIP3   OH243088   2.370   4.886   6.722
14382TIP3    H143089   2.316   4.814   6.689
14382TIP3    H243090   2.460   4.854   6.714
14383TIP3   OH243091   3.340   1.470   4.854
14383TIP3    H143092   3.314   1.493   4.765
14383TIP3    H243093   3.416   1.412   4.842
14384TIP3   OH243094   4.810   2.434   0.036
14384TIP3    H143095   4.859   2.498   0.088
14384TIP3    H243096   4.824   2.461  -0.054
14385TIP3   OH243097   1.088   4.257   0.505
14385TIP3    H143098   1.076   4.319   0.433
14385TIP3    H243099   1.119   4.177   0.463
14386TIP3   OH243100   1.487   1.578   5.835
14386TIP3    H143101   1.414   1.593   5.775
14386TIP3    H243102   1.555   1.536   5.782
14387TIP3   OH243103   3.878   2.949   5.934
14387TIP3    H143104   3.824   3.010   5.984
14387TIP3    H243105   3.831   2.866   5.938
14388TIP3   OH243106   7.126   0.433   3.094
14388TIP3    H143107   7.098   0.455   3.183
14388TIP3    H243108   7.214   0.398   3.104
14389TIP3   OH243109   0.706   5.190   4.564
14389TIP3    H143110   0.694   5.272   4.612
14389TIP3    H243111   0.648   5.198   4.488
14390TIP3   OH243112   2.846   3.374   0.374
14390TIP3    H143113   2.802   3.457   0.355
14390TIP3    H243114   2.790   3.330   0.437
14391TIP3   OH243115   4.114   6.118   5.136
14391TIP3    H143116   4.168   6.047   5.102
14391TIP3    H243117   4.134   6.192   5.079
14392TIP3   OH243118   7.420   1.787   5.719
14392TIP3    H143119   7.473   1.721   5.674
14392TIP3    H243120   7.332   1.774   5.684
14393TIP3   OH243121   6.959   2.953   4.264
14393TIP3    H143122   6.977   2.979   4.174
14393TIP3    H243123   6.979   2.859   4.266
14394TIP3   OH243124   2.146   0.227   6.137
14394TIP3    H143125   2.209   0.295   6.160
14394TIP3    H243126   2.078   0.233   6.204
14395TIP3   OH243127   5.936   4.855   1.638
14395TIP3    H143128   5.847   4.886   1.650
14395TIP3    H243129   5.969   4.842   1.728
14396TIP3   OH243130   2.133   3.472   1.688
14396TIP3    H143131   2.193   3.532   1.643
14396TIP3    H243132   2.104   3.411   1.620
14397TIP3   OH243133   8.036   0.118   6.002
14397TIP3    H143134   8.093   0.125   5.925
14397TIP3    H243135   8.094   0.088   6.072
14398TIP3   OH243136   7.096   0.816   6.421
14398TIP3    H143137   7.177   0.786   6.462
14398TIP3    H243138   7.109   0.799   6.327
14399TIP3   OH243139   3.601   7.475   0.952
14399TIP3    H143140   3.605   7.559   0.905
14399TIP3    H243141   3.665   7.420   0.907
14400TIP3   OH243142   7.464   7.654   0.632
14400TIP3    H143143   7.527   7.656   0.560
14400TIP3    H243144   7.392   7.600   0.600
14401TIP3   OH243145   4.688   1.306   0.583
14401TIP3    H143146   4.732   1.319   0.498
14401TIP3    H243147   4.756   1.270   0.640
14402TIP3   OH243148   1.781   4.649   4.707
14402TIP3    H143149   1.712   4.713   4.722
14402TIP3    H243150   1.852   4.677   4.765
14403TIP3   OH243151   5.606   6.310   1.349
14403TIP3    H143152   5.622   6.234   1.405
14403TIP3    H243153   5.626   6.280   1.260
14404TIP3   OH243154   6.105   3.239   5.312
14404TIP3    H143155   6.084   3.146   5.319
14404TIP3    H243156   6.049   3.271   5.242
14405TIP3   OH243157   8.247   1.655   5.763
14405TIP3    H143158   8.245   1.733   5.708
14405TIP3    H243159   8.197   1.590   5.714
14406TIP3   OH243160   6.499   6.874   5.372
14406TIP3    H143161   6.440   6.878   5.448
14406TIP3    H243162   6.530   6.783   5.371
14407TIP3   OH243163   1.574   4.263   6.346
14407TIP3    H143164   1.499   4.288   6.291
14407TIP3    H243165   1.547   4.287   6.435
14408TIP3   OH243166   5.346   2.450   6.005
14408TIP3    H143167   5.290   2.375   6.026
14408TIP3    H243168   5.286   2.523   5.992
14409TIP3   OH243169   6.888   0.586   4.194
14409TIP3    H143170   6.959   0.645   4.218
14409TIP3    H243171   6.808   0.633   4.218
14410TIP3   OH243172   7.471   5.867   5.640
14410TIP3    H143173   7.546   5.867   5.698
14410TIP3    H243174   7.508   5.879   5.552
14411TIP3   OH243175   5.533   6.415   3.239
14411TIP3    H143176   5.443   6.383   3.232
14411TIP3    H243177   5.567   6.374   3.318
14412TIP3   OH243178   0.244   4.572   6.320
14412TIP3    H143179   0.258   4.629   6.396
14412TIP3    H243180   0.291   4.615   6.249
14413TIP3   OH243181   6.265   0.016   1.223
14413TIP3    H143182   6.242  -0.019   1.310
14413TIP3    H243183   6.266   0.111   1.234
14414TIP3   OH243184   7.509   7.347   5.665
14414TIP3    H143185   7.548   7.433   5.677
14414TIP3    H243186   7.578   7.294   5.625
14415TIP3   OH243187   2.404   2.919   5.895
14415TIP3    H143188   2.479   2.868   5.862
14415TIP3    H243189   2.368   2.866   5.966
14416TIP3   OH243190   8.006   6.450   6.021
14416TIP3    H143191   7.911   6.451   6.019
14416TIP3    H243192   8.032   6.454   5.929
14417TIP3   OH243193   6.226   3.434   0.349
14417TIP3    H143194   6.151   3.487   0.376
14417TIP3    H243195   6.275   3.418   0.429
14418TIP3   OH243196   4.716   4.947   2.670
14418TIP3    H143197   4.794   4.997   2.649
14418TIP3    H243198   4.725   4.925   2.763
14419TIP3   OH243199   2.748   4.931   4.316
14419TIP3    H143200   2.759   5.006   4.257
14419TIP3    H243201   2.756   4.967   4.404
14420TIP3   OH243202   1.725   2.076   4.768
14420TIP3    H143203   1.722   2.058   4.674
14420TIP3    H243204   1.807   2.122   4.781
14421TIP3   OH243205   3.477   3.598   1.290
14421TIP3    H143206   3.511   3.509   1.293
14421TIP3    H243207   3.463   3.621   1.382
14422TIP3   OH243208   5.525   6.901   1.968
14422TIP3    H143209   5.536   6.991   1.936
14422TIP3    H243210   5.534   6.847   1.890
14423TIP3   OH243211   0.966   3.093   1.188
14423TIP3    H143212   0.903   3.071   1.257
14423TIP3    H243213   1.017   3.013   1.174
14424TIP3   OH243214   0.349   5.803   6.021
14424TIP3    H143215   0.389   5.889   6.011
14424TIP3    H243216   0.423   5.743   6.027
14425TIP3   OH243217   6.063   5.008   3.364
14425TIP3    H143218   6.117   4.937   3.331
14425TIP3    H243219   6.090   5.084   3.312
14426TIP3   OH243220   4.870   0.023   0.554
14426TIP3    H143221   4.779   0.037   0.528
14426TIP3    H243222   4.915   0.004   0.472
14427TIP3   OH243223   1.588   6.976   1.329
14427TIP3    H143224   1.541   7.058   1.319
14427TIP3    H243225   1.554   6.938   1.410
14428TIP3   OH243226   2.728   0.981   3.823
14428TIP3    H143227   2.638   0.958   3.848
14428TIP3    H243228   2.723   1.074   3.800
14429TIP3   OH243229   3.200   0.407   0.796
14429TIP3    H143230   3.175   0.331   0.848
14429TIP3    H243231   3.204   0.375   0.706
14430TIP3   OH243232   8.270   7.652   3.063
14430TIP3    H143233   8.242   7.567   3.030
14430TIP3    H243234   8.205   7.714   3.030
14431TIP3   OH243235   0.858   4.517   0.042
14431TIP3    H143236   0.897   4.544  -0.041
14431TIP3    H243237   0.908   4.440   0.068
14432TIP3   OH243238   4.670   6.460   6.480
14432TIP3    H143239   4.634   6.382   6.521
14432TIP3    H243240   4.599   6.524   6.485
14433TIP3   OH243241   3.290   6.169   6.206
14433TIP3    H143242   3.275   6.262   6.226
14433TIP3    H243243   3.266   6.161   6.114
14434TIP3   OH243244   1.431   4.550   3.030
14434TIP3    H143245   1.371   4.527   3.101
14434TIP3    H243246   1.374   4.574   2.957
14435TIP3   OH243247   6.898   3.692   6.201
14435TIP3    H143248   6.888   3.682   6.295
14435TIP3    H243249   6.828   3.753   6.175
14436TIP3   OH243250   0.232   2.769   5.046
14436TIP3    H143251   0.221   2.691   5.102
14436TIP3    H243252   0.148   2.780   5.003
14437TIP3   OH243253   3.029   4.576   0.174
14437TIP3    H143254   2.940   4.591   0.142
14437TIP3    H243255   3.018   4.536   0.260
14438TIP3   OH243256   1.505   1.418   4.509
14438TIP3    H143257   1.514   1.340   4.454
14438TIP3    H243258   1.595   1.451   4.519
14439TIP3   OH243259   6.692   5.601   0.671
14439TIP3    H143260   6.636   5.609   0.594
14439TIP3    H243261   6.631   5.582   0.743
14440TIP3   OH243262   7.783   3.863   5.189
14440TIP3    H143263   7.855   3.821   5.238
14440TIP3    H243264   7.735   3.789   5.152
14441TIP3   OH243265   6.015   5.578   6.072
14441TIP3    H143266   5.929   5.562   6.032
14441TIP3    H243267   6.075   5.522   6.024
14442TIP3   OH243268   7.422   0.365   5.558
14442TIP3    H143269   7.413   0.436   5.621
14442TIP3    H243270   7.516   0.348   5.554
14443TIP3   OH243271   3.691   2.349   3.044
14443TIP3    H143272   3.648   2.271   3.077
14443TIP3    H243273   3.715   2.399   3.122
14444TIP3   OH243274   4.648   5.761   5.275
14444TIP3    H143275   4.669   5.788   5.186
14444TIP3    H243276   4.588   5.688   5.265
14445TIP3   OH243277   5.232   3.922   6.100
14445TIP3    H143278   5.183   4.004   6.099
14445TIP3    H243279   5.275   3.921   6.185
14446TIP3   OH243280   4.242   5.714   6.378
14446TIP3    H143281   4.232   5.623   6.406
14446TIP3    H243282   4.332   5.736   6.403
14447TIP3   OH243283   5.016   5.402   3.448
14447TIP3    H143284   4.967   5.320   3.440
14447TIP3    H243285   5.108   5.375   3.456
14448TIP3   OH243286   6.058   4.416   5.095
14448TIP3    H143287   6.077   4.339   5.041
14448TIP3    H243288   6.024   4.379   5.177
14449TIP3   OH243289   8.185   1.787   2.757
14449TIP3    H143290   8.173   1.692   2.751
14449TIP3    H243291   8.259   1.805   2.699
14450TIP3   OH243292   6.651   0.281   3.930
14450TIP3    H143293   6.597   0.204   3.947
14450TIP3    H243294   6.708   0.287   4.007
14451TIP3   OH243295   7.585   4.425   3.482
14451TIP3    H143296   7.633   4.352   3.523
14451TIP3    H243297   7.650   4.495   3.473
14452TIP3   OH243298   2.608   1.062   3.183
14452TIP3    H143299   2.670   0.989   3.186
14452TIP3    H243300   2.571   1.065   3.271
14453TIP3   OH243301   0.987   2.491   2.467
14453TIP3    H143302   0.974   2.464   2.558
14453TIP3    H243303   0.987   2.410   2.417
14454TIP3   OH243304   4.210   0.379   4.337
14454TIP3    H143305   4.268   0.303   4.330
14454TIP3    H243306   4.122   0.343   4.324
14455TIP3   OH243307   4.909   3.435   1.621
14455TIP3    H143308   4.968   3.499   1.582
14455TIP3    H243309   4.862   3.484   1.689
14456TIP3   OH243310   3.629   6.178   5.611
14456TIP3    H143311   3.683   6.136   5.545
14456TIP3    H243312   3.629   6.271   5.587
14457TIP3   OH243313   8.219   2.489   4.571
14457TIP3    H143314   8.230   2.418   4.508
14457TIP3    H243315   8.149   2.543   4.535
14458TIP3   OH243316   6.372   1.397   6.306
14458TIP3    H143317   6.350   1.455   6.233
14458TIP3    H243318   6.361   1.309   6.271
14459TIP3   OH243319   2.099   7.738   0.826
14459TIP3    H143320   2.087   7.766   0.735
14459TIP3    H243321   2.150   7.809   0.866
14460TIP3   OH243322   1.979   3.789   4.528
14460TIP3    H143323   1.971   3.749   4.441
14460TIP3    H243324   1.889   3.793   4.560
14461TIP3   OH243325   2.741   7.466   1.483
14461TIP3    H143326   2.724   7.470   1.389
14461TIP3    H243327   2.834   7.443   1.490
14462TIP3   OH243328   5.624   7.322   3.347
14462TIP3    H143329   5.705   7.321   3.397
14462TIP3    H243330   5.582   7.238   3.368
14463TIP3   OH243331   5.524   3.555   1.003
14463TIP3    H143332   5.492   3.464   1.005
14463TIP3    H243333   5.567   3.567   1.088
14464TIP3   OH243334   4.919   4.605   2.735
14464TIP3    H143335   4.890   4.516   2.755
14464TIP3    H243336   4.840   4.658   2.737
14465TIP3   OH243337   4.910   1.296   3.171
14465TIP3    H143338   4.982   1.316   3.110
14465TIP3    H243339   4.954   1.283   3.255
14466TIP3   OH243340   5.827   7.473   3.236
14466TIP3    H143341   5.788   7.551   3.196
14466TIP3    H243342   5.753   7.420   3.263
14467TIP3   OH243343   4.899   4.326   4.913
14467TIP3    H143344   4.850   4.383   4.972
14467TIP3    H243345   4.866   4.348   4.826
14468TIP3   OH243346   2.563   1.552   5.720
14468TIP3    H143347   2.476   1.527   5.750
14468TIP3    H243348   2.552   1.637   5.679
14469TIP3   OH243349   2.487   7.049   0.472
14469TIP3    H143350   2.446   6.963   0.467
14469TIP3    H243351   2.549   7.051   0.399
14470TIP3   OH243352   2.724   6.162   0.225
14470TIP3    H143353   2.661   6.125   0.163
14470TIP3    H243354   2.720   6.104   0.300
14471TIP3   OH243355   4.914   2.096   2.234
14471TIP3    H143356   4.933   2.186   2.260
14471TIP3    H243357   4.823   2.098   2.203
14472TIP3   OH243358   3.681   0.296   3.061
14472TIP3    H143359   3.682   0.200   3.054
14472TIP3    H243360   3.627   0.325   2.987
14473TIP3   OH243361   2.349   4.792   3.109
14473TIP3    H143362   2.320   4.736   3.181
14473TIP3    H243363   2.314   4.878   3.129
14474TIP3   OH243364   3.777   5.767   3.433
14474TIP3    H143365   3.818   5.769   3.519
14474TIP3    H243366   3.706   5.703   3.441
14475TIP3   OH243367   3.904   5.419   2.366
14475TIP3    H143368   3.814   5.407   2.336
14475TIP3    H243369   3.899   5.411   2.461
14476TIP3   OH243370   4.435   1.198   3.857
14476TIP3    H143371   4.352   1.232   3.823
14476TIP3    H243372   4.456   1.257   3.931
14477TIP3   OH243373   0.712   6.202   5.337
14477TIP3    H143374   0.804   6.187   5.316
14477TIP3    H243375   0.706   6.190   5.432
14478TIP3   OH243376   7.959   0.862   0.702
14478TIP3    H143377   7.945   0.768   0.709
14478TIP3    H243378   8.028   0.872   0.637
14479TIP3   OH243379   6.256   7.434   3.790
14479TIP3    H143380   6.351   7.430   3.776
14479TIP3    H243381   6.229   7.516   3.748
14480TIP3   OH243382   6.177   1.830   6.228
14480TIP3    H143383   6.179   1.858   6.320
14480TIP3    H243384   6.266   1.844   6.196
14481TIP3   OH243385   3.476   5.653   1.624
14481TIP3    H143386   3.479   5.572   1.574
14481TIP3    H243387   3.534   5.637   1.698
14482TIP3   OH243388   0.050   5.334   2.369
14482TIP3    H143389   0.116   5.365   2.307
14482TIP3    H243390   0.008   5.260   2.324
14483TIP3   OH243391   3.329   0.889   2.231
14483TIP3    H143392   3.397   0.924   2.174
14483TIP3    H243393   3.351   0.797   2.242
14484TIP3   OH243394   1.550   2.860   0.273
14484TIP3    H143395   1.582   2.911   0.348
14484TIP3    H243396   1.548   2.922   0.201
14485TIP3   OH243397   1.144   4.008   5.547
14485TIP3    H143398   1.203   4.026   5.621
14485TIP3    H243399   1.199   3.961   5.484
14486TIP3   OH243400   5.155   4.564   4.125
14486TIP3    H143401   5.129   4.649   4.161
14486TIP3    H243402   5.073   4.520   4.104
14487TIP3   OH243403   2.367   1.653   0.753
14487TIP3    H143404   2.298   1.681   0.813
14487TIP3    H243405   2.430   1.725   0.755
14488TIP3   OH243406   8.056   1.497   0.115
14488TIP3    H143407   8.079   1.526   0.203
14488TIP3    H243408   7.962   1.515   0.108
14489TIP3   OH243409   5.375   6.001   4.927
14489TIP3    H143410   5.321   5.930   4.960
14489TIP3    H243411   5.437   5.958   4.868
14490TIP3   OH243412   3.657   0.524   3.579
14490TIP3    H143413   3.701   0.440   3.570
14490TIP3    H243414   3.565   0.505   3.562
14491TIP3   OH243415   6.192   1.751   5.368
14491TIP3    H143416   6.199   1.843   5.344
14491TIP3    H243417   6.227   1.746   5.457
14492TIP3   OH243418   4.035   4.114   1.088
14492TIP3    H143419   4.126   4.132   1.112
14492TIP3    H243420   3.983   4.168   1.147
14493TIP3   OH243421   5.639   3.824   4.799
14493TIP3    H143422   5.719   3.871   4.775
14493TIP3    H243423   5.631   3.755   4.733
14494TIP3   OH243424   7.385   3.819   4.114
14494TIP3    H143425   7.474   3.809   4.080
14494TIP3    H243426   7.367   3.735   4.157
14495TIP3   OH243427   2.384   2.765   0.598
14495TIP3    H143428   2.359   2.711   0.523
14495TIP3    H243429   2.450   2.825   0.563
14496TIP3   OH243430   0.136   5.154   2.578
14496TIP3    H143431   0.078   5.215   2.623
14496TIP3    H243432   0.131   5.178   2.486
14497TIP3   OH243433   2.899   2.960   3.145
14497TIP3    H143434   2.833   2.945   3.213
14497TIP3    H243435   2.894   2.882   3.090
14498TIP3   OH243436   1.510   6.254   6.471
14498TIP3    H143437   1.491   6.168   6.507
14498TIP3    H243438   1.437   6.309   6.499
14499TIP3   OH243439   2.386   4.212   3.546
14499TIP3    H143440   2.436   4.158   3.484
14499TIP3    H243441   2.381   4.159   3.625
14500TIP3   OH243442   6.078   1.759   6.482
14500TIP3    H143443   5.985   1.779   6.493
14500TIP3    H243444   6.117   1.781   6.566
14501TIP3   OH243445   3.738   5.548   4.710
14501TIP3    H143446   3.755   5.613   4.642
14501TIP3    H243447   3.780   5.583   4.788
14502TIP3   OH243448   0.546   5.997   4.622
14502TIP3    H143449   0.515   5.913   4.586
14502TIP3    H243450   0.622   6.019   4.570
14503TIP3   OH243451   3.861   4.247   0.623
14503TIP3    H143452   3.766   4.235   0.630
14503TIP3    H243453   3.874   4.340   0.638
14504TIP3   OH243454   6.364   5.449   2.061
14504TIP3    H143455   6.298   5.518   2.051
14504TIP3    H243456   6.447   5.497   2.074
14505TIP3   OH243457   2.792   1.073   2.874
14505TIP3    H143458   2.713   1.038   2.915
14505TIP3    H243459   2.863   1.023   2.914
14506TIP3   OH243460   1.652   5.857   3.950
14506TIP3    H143461   1.663   5.766   3.921
14506TIP3    H243462   1.627   5.850   4.042
14507TIP3   OH243463   6.958   4.248   0.468
14507TIP3    H143464   7.021   4.307   0.510
14507TIP3    H243465   6.971   4.262   0.375
14508TIP3   OH243466   6.851   2.729   2.703
14508TIP3    H143467   6.830   2.670   2.632
14508TIP3    H243468   6.934   2.769   2.677
14509TIP3   OH243469   4.243   2.713   5.273
14509TIP3    H143470   4.311   2.669   5.222
14509TIP3    H243471   4.268   2.805   5.274
14510TIP3   OH243472   7.733   2.567   4.309
14510TIP3    H143473   7.739   2.525   4.223
14510TIP3    H243474   7.645   2.545   4.340
14511TIP3   OH243475   6.941   0.930   2.237
14511TIP3    H143476   6.911   0.983   2.311
14511TIP3    H243477   7.018   0.884   2.269
14512TIP3   OH243478   1.558   6.809   5.104
14512TIP3    H143479   1.589   6.838   5.189
14512TIP3    H243480   1.635   6.773   5.060
14513TIP3   OH243481   8.026   4.409   1.957
14513TIP3    H143482   8.031   4.370   1.870
14513TIP3    H243483   8.117   4.428   1.980
14514TIP3   OH243484   1.345   2.157   4.063
14514TIP3    H143485   1.304   2.113   4.137
14514TIP3    H243486   1.350   2.249   4.090
14515TIP3   OH243487   0.034   3.800   4.042
14515TIP3    H143488  -0.007   3.860   3.979
14515TIP3    H243489   0.053   3.854   4.119
14516TIP3   OH243490   3.932   6.925   6.410
14516TIP3    H143491   3.968   6.980   6.480
14516TIP3    H243492   3.849   6.894   6.445
14517TIP3   OH243493   8.238   7.724   3.548
14517TIP3    H143494   8.265   7.726   3.640
14517TIP3    H243495   8.156   7.674   3.549
14518TIP3   OH243496   1.539   4.489   3.545
14518TIP3    H143497   1.531   4.402   3.505
14518TIP3    H243498   1.616   4.483   3.601
14519TIP3   OH243499   5.278   7.449   0.429
14519TIP3    H143500   5.293   7.543   0.429
14519TIP3    H243501   5.214   7.435   0.359
14520TIP3   OH243502   6.403   2.061   2.391
14520TIP3    H143503   6.353   1.982   2.372
14520TIP3    H243504   6.494   2.031   2.398
14521TIP3   OH243505   6.481   3.491   6.704
14521TIP3    H143506   6.398   3.448   6.722
14521TIP3    H243507   6.547   3.436   6.746
14522TIP3   OH243508   4.273   4.946   6.134
14522TIP3    H143509   4.182   4.960   6.161
14522TIP3    H243510   4.266   4.890   6.057
14523TIP3   OH243511   1.355   1.321   2.612
14523TIP3    H143512   1.305   1.400   2.633
14523TIP3    H243513   1.292   1.263   2.569
14524TIP3   OH243514   5.493   1.176   6.376
14524TIP3    H143515   5.506   1.258   6.330
14524TIP3    H243516   5.570   1.123   6.354
14525TIP3   OH243517   6.502   6.669   1.078
14525TIP3    H143518   6.473   6.701   1.164
14525TIP3    H243519   6.475   6.737   1.017
14526TIP3   OH243520   5.350   6.651   0.974
14526TIP3    H143521   5.354   6.556   0.980
14526TIP3    H243522   5.312   6.669   0.888
14527TIP3   OH243523   1.983   0.425   2.388
14527TIP3    H143524   1.966   0.468   2.304
14527TIP3    H243525   1.995   0.333   2.366
14528TIP3   OH243526   3.434   3.732   3.743
14528TIP3    H143527   3.473   3.681   3.815
14528TIP3    H243528   3.438   3.673   3.668
14529TIP3   OH243529   6.644   7.167   2.100
14529TIP3    H143530   6.734   7.174   2.132
14529TIP3    H243531   6.593   7.224   2.159
14530TIP3   OH243532   1.820   2.895   2.216
14530TIP3    H143533   1.799   2.837   2.289
14530TIP3    H243534   1.912   2.918   2.230
14531TIP3   OH243535   7.231   3.611   0.555
14531TIP3    H143536   7.323   3.590   0.542
14531TIP3    H243537   7.230   3.664   0.634
14532TIP3   OH243538   3.788   6.913   3.423
14532TIP3    H143539   3.873   6.874   3.404
14532TIP3    H243540   3.808   7.004   3.444
14533TIP3   OH243541   5.298   5.840   5.482
14533TIP3    H143542   5.286   5.877   5.394
14533TIP3    H243543   5.229   5.881   5.534
14534TIP3   OH243544   3.473   3.906   5.381
14534TIP3    H143545   3.437   3.822   5.353
14534TIP3    H243546   3.411   3.972   5.350
14535TIP3   OH243547   2.105   0.428   3.405
14535TIP3    H143548   2.062   0.378   3.336
14535TIP3    H243549   2.111   0.517   3.370
14536TIP3   OH243550   6.115   2.977   5.353
14536TIP3    H143551   6.022   2.954   5.342
14536TIP3    H243552   6.141   2.933   5.434
14537TIP3   OH243553   6.805   4.261   1.277
14537TIP3    H143554   6.721   4.299   1.303
14537TIP3    H243555   6.792   4.166   1.286
14538TIP3   OH243556   3.301   0.450   3.829
14538TIP3    H143557   3.219   0.402   3.838
14538TIP3    H243558   3.363   0.384   3.796
14539TIP3   OH243559   2.051   0.154   5.714
14539TIP3    H143560   2.126   0.128   5.767
14539TIP3    H243561   1.992   0.199   5.775
14540TIP3   OH243562   1.216   5.923   5.637
14540TIP3    H143563   1.244   6.012   5.615
14540TIP3    H243564   1.210   5.878   5.553
14541TIP3   OH243565   4.331   7.291   3.503
14541TIP3    H143566   4.390   7.233   3.455
14541TIP3    H243567   4.302   7.238   3.578
14542TIP3   OH243568   0.590   2.867   0.798
14542TIP3    H143569   0.526   2.898   0.863
14542TIP3    H243570   0.672   2.857   0.848
14543TIP3   OH243571   7.277   0.451   4.409
14543TIP3    H143572   7.209   0.403   4.362
14543TIP3    H243573   7.232   0.526   4.447
14544TIP3   OH243574   5.056   3.712   2.438
14544TIP3    H143575   4.992   3.713   2.368
14544TIP3    H243576   5.126   3.770   2.408
14545TIP3   OH243577   0.765   0.424   0.417
14545TIP3    H143578   0.831   0.486   0.449
14545TIP3    H243579   0.713   0.403   0.494
14546TIP3   OH243580   1.063   5.071   3.863
14546TIP3    H143581   1.089   5.163   3.863
14546TIP3    H243582   0.980   5.069   3.910
14547TIP3   OH243583   0.510   0.081   3.485
14547TIP3    H143584   0.480  -0.008   3.503
14547TIP3    H243585   0.505   0.089   3.390
14548TIP3   OH243586   2.586   1.027   1.970
14548TIP3    H143587   2.647   1.044   2.042
14548TIP3    H243588   2.641   1.029   1.891
14549TIP3   OH243589   5.000   7.497   1.808
14549TIP3    H143590   4.917   7.516   1.852
14549TIP3    H243591   4.997   7.550   1.729
14550TIP3   OH243592   2.241   6.157   4.340
14550TIP3    H143593   2.166   6.201   4.302
14550TIP3    H243594   2.206   6.114   4.418
14551TIP3   OH243595   7.239   3.064   1.914
14551TIP3    H143596   7.288   3.124   1.856
14551TIP3    H243597   7.306   3.005   1.949
14552TIP3   OH243598   5.290   4.516   1.515
14552TIP3    H143599   5.202   4.479   1.513
14552TIP3    H243600   5.328   4.482   1.596
14553TIP3   OH243601   3.356   5.055   0.370
14553TIP3    H143602   3.274   5.104   0.362
14553TIP3    H243603   3.343   4.976   0.317
14554TIP3   OH243604   4.074   7.203   3.935
14554TIP3    H143605   4.112   7.210   4.023
14554TIP3    H243606   3.983   7.228   3.947
14555TIP3   OH243607   4.745   5.547   4.966
14555TIP3    H143608   4.766   5.510   5.052
14555TIP3    H243609   4.692   5.624   4.985
14556TIP3   OH243610   2.577   2.003   6.257
14556TIP3    H143611   2.495   2.034   6.295
14556TIP3    H243612   2.627   2.082   6.239
14557TIP3   OH243613   4.774   1.670   0.730
14557TIP3    H143614   4.751   1.578   0.732
14557TIP3    H243615   4.793   1.692   0.822
14558TIP3   OH243616   2.176   3.977   1.566
14558TIP3    H143617   2.112   3.940   1.505
14558TIP3    H243618   2.131   3.980   1.650
14559TIP3   OH243619   3.519   4.699   4.764
14559TIP3    H143620   3.571   4.653   4.698
14559TIP3    H243621   3.432   4.708   4.725
14560TIP3   OH243622   6.001   4.874   6.134
14560TIP3    H143623   5.924   4.893   6.188
14560TIP3    H243624   6.066   4.938   6.163
14561TIP3   OH243625   2.154   6.973   5.424
14561TIP3    H143626   2.100   7.052   5.431
14561TIP3    H243627   2.231   7.002   5.374
14562TIP3   OH243628   3.436   0.154   3.213
14562TIP3    H143629   3.424   0.172   3.120
14562TIP3    H243630   3.363   0.096   3.236
14563TIP3   OH243631   0.867   2.571   5.299
14563TIP3    H143632   0.828   2.502   5.244
14563TIP3    H243633   0.855   2.651   5.249
14564TIP3   OH243634   7.368   6.560   3.068
14564TIP3    H143635   7.445   6.541   3.014
14564TIP3    H243636   7.327   6.475   3.082
14565TIP3   OH243637   6.383   6.781   5.990
14565TIP3    H143638   6.448   6.850   6.001
14565TIP3    H243639   6.414   6.729   5.917
14566TIP3   OH243640   8.114   2.489   5.989
14566TIP3    H143641   8.186   2.517   5.933
14566TIP3    H243642   8.154   2.480   6.076
14567TIP3   OH243643   4.927   5.642   1.712
14567TIP3    H143644   4.993   5.589   1.758
14567TIP3    H243645   4.850   5.585   1.709
14568TIP3   OH243646   2.444   0.635   3.680
14568TIP3    H143647   2.380   0.565   3.692
14568TIP3    H243648   2.392   0.712   3.659
14569TIP3   OH243649   6.821   5.100   3.889
14569TIP3    H143650   6.756   5.030   3.891
14569TIP3    H243651   6.773   5.177   3.919
14570TIP3   OH243652   2.915   3.468   4.269
14570TIP3    H143653   2.856   3.519   4.324
14570TIP3    H243654   2.917   3.381   4.310
14571TIP3   OH243655   7.670   4.461   4.936
14571TIP3    H143656   7.652   4.489   5.026
14571TIP3    H243657   7.765   4.455   4.931
14572TIP3   OH243658   6.149   0.781   4.107
14572TIP3    H143659   6.161   0.827   4.190
14572TIP3    H243660   6.055   0.785   4.089
14573TIP3   OH243661   3.084   7.190   0.267
14573TIP3    H143662   3.169   7.232   0.258
14573TIP3    H243663   3.065   7.155   0.180
14574TIP3   OH243664   7.264   3.992   0.076
14574TIP3    H143665   7.214   3.932   0.022
14574TIP3    H243666   7.299   4.056   0.015
14575TIP3   OH243667   4.346   7.074   6.236
14575TIP3    H143668   4.417   7.108   6.291
14575TIP3    H243669   4.298   7.014   6.293
14576TIP3   OH243670   6.719   0.387   6.751
14576TIP3    H143671   6.708   0.396   6.656
14576TIP3    H243672   6.812   0.372   6.763
14577TIP3   OH243673   2.568   0.244   6.521
14577TIP3    H143674   2.543   0.152   6.508
14577TIP3    H243675   2.550   0.260   6.614
14578TIP3   OH243676   1.182   1.785   5.182
14578TIP3    H143677   1.218   1.821   5.101
14578TIP3    H243678   1.260   1.762   5.234
14579TIP3   OH243679   2.033   1.306   6.416
14579TIP3    H143680   2.008   1.396   6.440
14579TIP3    H243681   2.010   1.299   6.323
14580TIP3   OH243682   2.087   5.790   4.968
14580TIP3    H143683   1.992   5.781   4.977
14580TIP3    H243684   2.117   5.815   5.056
14581TIP3   OH243685   5.048   4.750   2.012
14581TIP3    H143686   4.969   4.799   2.037
14581TIP3    H243687   5.117   4.816   2.013
14582TIP3   OH243688   0.904   4.905   2.447
14582TIP3    H143689   0.836   4.899   2.379
14582TIP3    H243690   0.894   4.994   2.482
14583TIP3   OH243691   0.832   2.608   3.144
14583TIP3    H143692   0.750   2.657   3.154
14583TIP3    H243693   0.868   2.603   3.232
14584TIP3   OH243694   4.932   6.845   0.775
14584TIP3    H143695   4.859   6.807   0.824
14584TIP3    H243696   4.989   6.881   0.842
14585TIP3   OH243697   0.295   1.533   5.411
14585TIP3    H143698   0.258   1.463   5.465
14585TIP3    H243699   0.232   1.544   5.339
14586TIP3   OH243700   1.054   7.244   2.719
14586TIP3    H143701   0.960   7.252   2.707
14586TIP3    H243702   1.066   7.238   2.814
14587TIP3   OH243703   1.031   1.616   4.385
14587TIP3    H143704   1.104   1.564   4.352
14587TIP3    H243705   1.071   1.697   4.415
14588TIP3   OH243706   2.842   1.281   2.375
14588TIP3    H143707   2.884   1.251   2.456
14588TIP3    H243708   2.775   1.343   2.405
14589TIP3   OH243709   6.132   2.108   4.112
14589TIP3    H143710   6.168   2.023   4.086
14589TIP3    H243711   6.148   2.114   4.206
14590TIP3   OH243712   0.001   6.129   5.523
14590TIP3    H143713   0.025   6.141   5.615
14590TIP3    H243714   0.072   6.075   5.487
14591TIP3   OH243715   8.140   4.448   3.819
14591TIP3    H143716   8.103   4.410   3.739
14591TIP3    H243717   8.232   4.424   3.817
14592TIP3   OH243718   7.615   4.283   0.512
14592TIP3    H143719   7.679   4.219   0.542
14592TIP3    H243720   7.615   4.350   0.580
14593TIP3   OH243721   0.979   7.808   3.723
14593TIP3    H143722   0.932   7.816   3.806
14593TIP3    H243723   1.071   7.799   3.748
14594TIP3   OH243724   5.813   7.139   2.465
14594TIP3    H143725   5.897   7.180   2.444
14594TIP3    H243726   5.798   7.162   2.557
14595TIP3   OH243727   5.610   5.593   6.170
14595TIP3    H143728   5.665   5.560   6.241
14595TIP3    H243729   5.564   5.668   6.208
14596TIP3   OH243730   6.211   5.101   5.964
14596TIP3    H143731   6.270   5.036   6.002
14596TIP3    H243732   6.229   5.096   5.870
14597TIP3   OH243733   5.691   0.159   5.961
14597TIP3    H143734   5.668   0.233   6.017
14597TIP3    H243735   5.784   0.171   5.943
14598TIP3   OH243736   4.437   4.555   0.504
14598TIP3    H143737   4.482   4.488   0.556
14598TIP3    H243738   4.354   4.570   0.550
14599TIP3   OH243739   0.886   2.826   5.169
14599TIP3    H143740   0.840   2.894   5.120
14599TIP3    H243741   0.972   2.865   5.189
14600TIP3   OH243742   6.229   5.163   6.429
14600TIP3    H143743   6.300   5.135   6.371
14600TIP3    H243744   6.149   5.129   6.387
14601TIP3   OH243745   0.745   5.864   3.353
14601TIP3    H143746   0.771   5.936   3.294
14601TIP3    H243747   0.660   5.892   3.387
14602TIP3   OH243748   0.030   2.398   6.177
14602TIP3    H143749   0.085   2.472   6.151
14602TIP3    H243750   0.084   2.349   6.239
14603TIP3   OH243751   4.520   0.350   0.485
14603TIP3    H143752   4.437   0.398   0.483
14603TIP3    H243753   4.555   0.358   0.396
14604TIP3   OH243754   6.433   2.543   2.296
14604TIP3    H143755   6.385   2.477   2.346
14604TIP3    H243756   6.419   2.624   2.345
14605TIP3   OH243757   0.692   0.710   3.538
14605TIP3    H143758   0.651   0.627   3.563
14605TIP3    H243759   0.752   0.687   3.467
14606TIP3   OH243760   0.613   5.036   1.556
14606TIP3    H143761   0.537   5.038   1.614
14606TIP3    H243762   0.670   4.969   1.595
14607TIP3   OH243763   5.747   3.273   5.802
14607TIP3    H143764   5.762   3.367   5.802
14607TIP3    H243765   5.755   3.247   5.893
14608TIP3   OH243766   0.983   2.759   2.425
14608TIP3    H143767   0.998   2.677   2.378
14608TIP3    H243768   0.929   2.734   2.500
14609TIP3   OH243769   7.890   3.132   1.687
14609TIP3    H143770   7.922   3.215   1.651
14609TIP3    H243771   7.862   3.082   1.610
14610TIP3   OH243772   6.570   6.704   4.326
14610TIP3    H143773   6.641   6.758   4.361
14610TIP3    H243774   6.490   6.753   4.346
14611TIP3   OH243775   0.430   2.670   6.018
14611TIP3    H143776   0.496   2.605   5.995
14611TIP3    H243777   0.400   2.705   5.934
14612TIP3   OH243778   6.804   3.503   1.475
14612TIP3    H143779   6.806   3.430   1.413
14612TIP3    H243780   6.890   3.545   1.465
14613TIP3   OH243781   3.807   0.615   4.238
14613TIP3    H143782   3.876   0.625   4.172
14613TIP3    H243783   3.730   0.656   4.199
14614TIP3   OH243784   1.819   1.347   2.689
14614TIP3    H143785   1.800   1.360   2.596
14614TIP3    H243786   1.806   1.254   2.704
14615TIP3   OH243787   7.841   4.951   6.129
14615TIP3    H143788   7.836   5.033   6.179
14615TIP3    H243789   7.757   4.946   6.083
14616TIP3   OH243790   0.263   1.762   1.389
14616TIP3    H143791   0.174   1.788   1.367
14616TIP3    H243792   0.268   1.670   1.367
14617TIP3   OH243793   1.125   6.082   3.124
14617TIP3    H143794   1.138   6.132   3.043
14617TIP3    H243795   1.201   6.025   3.131
14618TIP3   OH243796   3.582   4.818   0.499
14618TIP3    H143797   3.495   4.780   0.514
14618TIP3    H243798   3.582   4.896   0.555
14619TIP3   OH243799   1.151   0.254   1.936
14619TIP3    H143800   1.148   0.304   2.018
14619TIP3    H243801   1.213   0.183   1.954
14620TIP3   OH243802   5.502   2.130   2.201
14620TIP3    H143803   5.462   2.202   2.248
14620TIP3    H243804   5.544   2.170   2.125
14621TIP3   OH243805   7.129   6.342   5.482
14621TIP3    H143806   7.192   6.317   5.415
14621TIP3    H243807   7.046   6.305   5.452
14622TIP3   OH243808   3.308   7.522   0.931
14622TIP3    H143809   3.299   7.604   0.979
14622TIP3    H243810   3.402   7.513   0.917
14623TIP3   OH243811   7.149   4.570   4.504
14623TIP3    H143812   7.165   4.493   4.449
14623TIP3    H243813   7.200   4.639   4.462
14624TIP3   OH243814   7.367   5.109   4.408
14624TIP3    H143815   7.412   5.138   4.487
14624TIP3    H243816   7.285   5.071   4.440
14625TIP3   OH243817   0.251   5.285   0.049
14625TIP3    H143818   0.210   5.369   0.069
14625TIP3    H243819   0.331   5.307   0.002
14626TIP3   OH243820   1.590   4.132   5.188
14626TIP3    H143821   1.574   4.205   5.129
14626TIP3    H243822   1.537   4.151   5.266
14627TIP3   OH243823   8.060   2.189   5.741
14627TIP3    H143824   8.002   2.187   5.816
14627TIP3    H243825   8.002   2.175   5.665
14628TIP3   OH243826   3.048   6.800   6.088
14628TIP3    H143827   3.142   6.808   6.072
14628TIP3    H243828   3.007   6.834   6.010
14629TIP3   OH243829   0.545   3.169   0.397
14629TIP3    H143830   0.546   3.124   0.482
14629TIP3    H243831   0.624   3.223   0.398
14630TIP3   OH243832   4.559   5.108   3.581
14630TIP3    H143833   4.536   5.047   3.651
14630TIP3    H243834   4.513   5.075   3.504
14631TIP3   OH243835   7.772   1.271   0.282
14631TIP3    H143836   7.838   1.251   0.216
14631TIP3    H243837   7.713   1.195   0.281
14632TIP3   OH243838   3.488   1.647   2.387
14632TIP3    H143839   3.499   1.628   2.294
14632TIP3    H243840   3.469   1.741   2.391
14633TIP3   OH243841   7.186   5.782   4.549
14633TIP3    H143842   7.238   5.823   4.479
14633TIP3    H243843   7.103   5.761   4.508
14634TIP3   OH243844   4.023   5.422   0.671
14634TIP3    H143845   4.006   5.346   0.615
14634TIP3    H243846   4.088   5.390   0.734
14635TIP3   OH243847   4.709   2.074   2.480
14635TIP3    H143848   4.632   2.022   2.458
14635TIP3    H243849   4.759   2.020   2.542
14636TIP3   OH243850   0.682   1.170   1.853
14636TIP3    H143851   0.637   1.153   1.935
14636TIP3    H243852   0.769   1.202   1.880
14637TIP3   OH243853   7.504   3.847   1.590
14637TIP3    H143854   7.486   3.914   1.523
14637TIP3    H243855   7.429   3.853   1.649
14638TIP3   OH243856   3.751   1.298   5.831
14638TIP3    H143857   3.657   1.313   5.842
14638TIP3    H243858   3.767   1.214   5.872
14639TIP3   OH243859   3.239   5.855   0.454
14639TIP3    H143860   3.223   5.791   0.523
14639TIP3    H243861   3.163   5.847   0.396
14640TIP3   OH243862   5.953   5.125   6.491
14640TIP3    H143863   5.898   5.082   6.425
14640TIP3    H243864   5.963   5.215   6.459
14641TIP3   OH243865   5.378   7.051   5.931
14641TIP3    H143866   5.307   7.014   5.877
14641TIP3    H243867   5.447   6.985   5.927
14642TIP3   OH243868   4.907   0.802   6.465
14642TIP3    H143869   4.955   0.738   6.519
14642TIP3    H243870   4.920   0.886   6.511
14643TIP3   OH243871   6.630   0.308   0.986
14643TIP3    H143872   6.575   0.246   1.033
14643TIP3    H243873   6.691   0.254   0.936
14644TIP3   OH243874   6.050   6.002   3.587
14644TIP3    H143875   6.108   6.056   3.640
14644TIP3    H243876   6.027   6.058   3.513
14645TIP3   OH243877   6.550   1.610   0.806
14645TIP3    H143878   6.470   1.662   0.818
14645TIP3    H243879   6.616   1.656   0.858
14646TIP3   OH243880   4.964   1.550   5.497
14646TIP3    H143881   4.951   1.644   5.512
14646TIP3    H243882   5.024   1.523   5.566
14647TIP3   OH243883   3.045   0.581   5.195
14647TIP3    H143884   2.960   0.625   5.189
14647TIP3    H243885   3.108   0.653   5.204
14648TIP3   OH243886   5.440   5.360   2.749
14648TIP3    H143887   5.518   5.359   2.805
14648TIP3    H243888   5.435   5.450   2.716
14649TIP3   OH243889   6.571   0.282   6.134
14649TIP3    H143890   6.551   0.255   6.045
14649TIP3    H243891   6.578   0.201   6.184
14650TIP3   OH243892   3.218   6.699   1.932
14650TIP3    H143893   3.303   6.740   1.913
14650TIP3    H243894   3.182   6.678   1.846
14651TIP3   OH243895   4.579   5.207   2.025
14651TIP3    H143896   4.548   5.275   2.085
14651TIP3    H243897   4.499   5.161   1.998
14652TIP3   OH243898   2.895   3.028   4.609
14652TIP3    H143899   2.960   2.977   4.657
14652TIP3    H243900   2.854   3.082   4.676
14653TIP3   OH243901   4.790   0.053   1.102
14653TIP3    H143902   4.838   0.130   1.074
14653TIP3    H243903   4.707   0.057   1.053
14654TIP3   OH243904   6.129   7.193   5.636
14654TIP3    H143905   6.052   7.230   5.678
14654TIP3    H243906   6.180   7.157   5.709
14655TIP3   OH243907   5.481   1.490   2.897
14655TIP3    H143908   5.525   1.415   2.857
14655TIP3    H243909   5.427   1.526   2.826
14656TIP3   OH243910   7.475   7.742   1.975
14656TIP3    H143911   7.511   7.735   2.063
14656TIP3    H243912   7.486   7.834   1.952
14657TIP3   OH243913   7.514   7.288   3.989
14657TIP3    H143914   7.568   7.303   3.911
14657TIP3    H243915   7.509   7.193   3.997
14658TIP3   OH243916   4.245   5.481   6.106
14658TIP3    H143917   4.214   5.406   6.056
14658TIP3    H243918   4.172   5.543   6.104
14659TIP3   OH243919   2.275   5.164   1.444
14659TIP3    H143920   2.213   5.100   1.478
14659TIP3    H243921   2.350   5.111   1.416
14660TIP3   OH243922   1.390   1.039   5.505
14660TIP3    H143923   1.354   1.067   5.421
14660TIP3    H243924   1.475   1.001   5.483
14661TIP3   OH243925   5.183   1.167   4.368
14661TIP3    H143926   5.240   1.217   4.309
14661TIP3    H243927   5.214   1.189   4.456
14662TIP3   OH243928   6.815   6.968   4.185
14662TIP3    H143929   6.746   7.016   4.139
14662TIP3    H243930   6.837   7.023   4.260
14663TIP3   OH243931   7.016   4.239   0.935
14663TIP3    H143932   6.928   4.209   0.958
14663TIP3    H243933   7.011   4.335   0.942
14664TIP3   OH243934   5.350   2.549   1.615
14664TIP3    H143935   5.292   2.602   1.668
14664TIP3    H243936   5.299   2.471   1.594
14665TIP3   OH243937   7.335   2.191   3.773
14665TIP3    H143938   7.377   2.223   3.693
14665TIP3    H243939   7.262   2.252   3.788
14666TIP3   OH243940   7.110   1.720   6.443
14666TIP3    H143941   7.052   1.761   6.507
14666TIP3    H243942   7.187   1.692   6.493
14667TIP3   OH243943   4.139   3.628   3.602
14667TIP3    H143944   4.064   3.589   3.559
14667TIP3    H243945   4.187   3.674   3.533
14668TIP3   OH243946   2.888   3.012   3.545
14668TIP3    H143947   2.836   2.950   3.494
14668TIP3    H243948   2.967   2.963   3.567
14669TIP3   OH243949   8.007   5.034   0.474
14669TIP3    H143950   8.032   5.086   0.551
14669TIP3    H243951   7.912   5.043   0.469
14670TIP3   OH243952   4.444   4.880   0.616
14670TIP3    H143953   4.507   4.951   0.617
14670TIP3    H243954   4.492   4.806   0.577
14671TIP3   OH243955   0.939   2.922   5.822
14671TIP3    H143956   0.929   2.972   5.903
14671TIP3    H243957   0.891   2.840   5.837
14672TIP3   OH243958   7.108   1.058   1.940
14672TIP3    H143959   7.047   1.008   1.887
14672TIP3    H243960   7.123   1.004   2.018
14673TIP3   OH243961   1.282   2.751   3.284
14673TIP3    H143962   1.366   2.715   3.257
14673TIP3    H243963   1.229   2.752   3.204
14674TIP3   OH243964   6.025   4.341   5.724
14674TIP3    H143965   6.077   4.396   5.665
14674TIP3    H243966   6.064   4.355   5.810
14675TIP3   OH243967   1.679   5.277   5.939
14675TIP3    H143968   1.664   5.354   5.884
14675TIP3    H243969   1.677   5.203   5.879
14676TIP3   OH243970   8.018   4.934   4.133
14676TIP3    H143971   7.931   4.954   4.098
14676TIP3    H243972   8.078   4.991   4.083
14677TIP3   OH243973   4.626   0.092   0.471
14677TIP3    H143974   4.588   0.171   0.510
14677TIP3    H243975   4.551   0.044   0.435
14678TIP3   OH243976   7.910   0.046   5.559
14678TIP3    H143977   7.825   0.009   5.583
14678TIP3    H243978   7.973  -0.002   5.612
14679TIP3   OH243979   6.995   5.313   6.772
14679TIP3    H143980   7.043   5.391   6.743
14679TIP3    H243981   6.941   5.288   6.697
14680TIP3   OH243982   7.167   3.633   6.533
14680TIP3    H143983   7.174   3.554   6.587
14680TIP3    H243984   7.073   3.649   6.526
14681TIP3   OH243985   4.297   1.315   2.947
14681TIP3    H143986   4.233   1.251   2.977
14681TIP3    H243987   4.340   1.346   3.027
14682TIP3   OH243988   7.346   2.011   4.812
14682TIP3    H143989   7.277   2.037   4.751
14682TIP3    H243990   7.299   1.984   4.891
14683TIP3   OH243991   2.053   3.079   2.208
14683TIP3    H143992   2.108   3.134   2.263
14683TIP3    H243993   2.004   3.140   2.154
14684TIP3   OH243994   1.544   4.327   4.989
14684TIP3    H143995   1.598   4.366   4.921
14684TIP3    H243996   1.469   4.290   4.943
14685TIP3   OH243997   7.704   6.439   6.024
14685TIP3    H143998   7.652   6.510   5.986
14685TIP3    H243999   7.661   6.359   5.995
14686TIP3   OH244000   1.712   3.287   6.258
14686TIP3    H144001   1.757   3.344   6.320
14686TIP3    H244002   1.694   3.207   6.308
14687TIP3   OH244003   1.475   5.271   6.174
14687TIP3    H144004   1.440   5.355   6.142
14687TIP3    H244005   1.537   5.244   6.107
14688TIP3   OH244006   2.588   4.841   3.238
14688TIP3    H144007   2.515   4.814   3.182
14688TIP3    H244008   2.591   4.776   3.308
14689TIP3   OH244009   1.922   0.162   0.219
14689TIP3    H144010   1.899   0.248   0.254
14689TIP3    H244011   1.839   0.124   0.192
14690TIP3   OH244012   5.027   6.230   4.605
14690TIP3    H144013   5.065   6.146   4.580
14690TIP3    H244014   4.946   6.208   4.652
14691TIP3   OH244015   5.865   6.891   0.789
14691TIP3    H144016   5.806   6.868   0.861
14691TIP3    H244017   5.897   6.978   0.811
14692TIP3   OH244018   0.011   5.517   6.623
14692TIP3    H144019   0.038   5.452   6.558
14692TIP3    H244020  -0.083   5.530   6.606
14693TIP3   OH244021   0.667   4.902   6.209
14693TIP3    H144022   0.634   4.832   6.266
14693TIP3    H244023   0.684   4.858   6.126
14694TIP3   OH244024   3.509   4.025   2.762
14694TIP3    H144025   3.454   4.064   2.830
14694TIP3    H244026   3.541   3.943   2.801
14695TIP3   OH244027   3.073   0.821   3.337
14695TIP3    H144028   3.112   0.737   3.314
14695TIP3    H244029   3.141   0.885   3.318
14696TIP3   OH244030   3.142   1.845   4.364
14696TIP3    H144031   3.133   1.832   4.459
14696TIP3    H244032   3.072   1.905   4.341
14697TIP3   OH244033   3.620   5.294   5.642
14697TIP3    H144034   3.571   5.346   5.578
14697TIP3    H244035   3.619   5.347   5.721
14698TIP3   OH244036   0.584   2.393   0.281
14698TIP3    H144037   0.624   2.452   0.345
14698TIP3    H244038   0.522   2.447   0.233
14699TIP3   OH244039   5.808   2.622   2.765
14699TIP3    H144040   5.741   2.656   2.823
14699TIP3    H244041   5.889   2.662   2.796
14700TIP3   OH244042   5.924   3.400   6.052
14700TIP3    H144043   5.930   3.420   6.146
14700TIP3    H244044   5.862   3.465   6.018
14701TIP3   OH244045   7.875   3.852   2.048
14701TIP3    H144046   7.860   3.947   2.050
14701TIP3    H244047   7.792   3.815   2.018
14702TIP3   OH244048   4.157   1.078   2.075
14702TIP3    H144049   4.196   1.091   2.162
14702TIP3    H244050   4.144   1.166   2.041
14703TIP3   OH244051   7.303   3.618   6.259
14703TIP3    H144052   7.258   3.599   6.341
14703TIP3    H244053   7.378   3.558   6.258
14704TIP3   OH244054   3.379   7.608   3.722
14704TIP3    H144055   3.331   7.525   3.720
14704TIP3    H244056   3.312   7.673   3.745
14705TIP3   OH244057   1.944   4.153   0.126
14705TIP3    H144058   2.004   4.103   0.069
14705TIP3    H244059   1.859   4.146   0.083
14706TIP3   OH244060   1.745   3.271   3.998
14706TIP3    H144061   1.698   3.234   3.923
14706TIP3    H244062   1.815   3.323   3.959
14707TIP3   OH244063   4.945   1.097   0.124
14707TIP3    H144064   4.852   1.098   0.148
14707TIP3    H244065   4.956   1.014   0.077
14708TIP3   OH244066   6.769   1.596   6.551
14708TIP3    H144067   6.726   1.663   6.497
14708TIP3    H244068   6.759   1.515   6.501
14709TIP3   OH244069   3.488   5.307   2.518
14709TIP3    H144070   3.518   5.398   2.520
14709TIP3    H244071   3.537   5.267   2.446
14710TIP3   OH244072   1.815   5.744   4.983
14710TIP3    H144073   1.756   5.750   5.058
14710TIP3    H244074   1.772   5.682   4.923
14711TIP3   OH244075   3.548   7.202   0.179
14711TIP3    H144076   3.596   7.170   0.102
14711TIP3    H244077   3.615   7.241   0.235
14712TIP3   OH244078   6.060   4.264   2.988
14712TIP3    H144079   6.046   4.172   2.965
14712TIP3    H244080   5.985   4.310   2.953
14713TIP3   OH244081   0.421   4.831   2.793
14713TIP3    H144082   0.456   4.886   2.863
14713TIP3    H244083   0.339   4.795   2.828
14714TIP3   OH244084   3.279   5.358   6.622
14714TIP3    H144085   3.341   5.322   6.685
14714TIP3    H244086   3.200   5.305   6.632
14715TIP3   OH244087   1.070   3.275   0.799
14715TIP3    H144088   1.116   3.192   0.808
14715TIP3    H244089   1.137   3.336   0.769
14716TIP3   OH244090   3.202   4.908   3.924
14716TIP3    H144091   3.186   4.824   3.881
14716TIP3    H244092   3.292   4.930   3.900
14717TIP3   OH244093   7.753   5.843   0.188
14717TIP3    H144094   7.831   5.793   0.164
14717TIP3    H244095   7.696   5.836   0.111
14718TIP3   OH244096   7.724   7.473   4.709
14718TIP3    H144097   7.809   7.513   4.693
14718TIP3    H244098   7.700   7.501   4.797
14719TIP3   OH244099   6.747   0.109   2.573
14719TIP3    H144100   6.786   0.158   2.645
14719TIP3    H244101   6.674   0.062   2.612
14720TIP3   OH244102   6.199   2.038   3.578
14720TIP3    H144103   6.144   2.051   3.656
14720TIP3    H244104   6.136   2.026   3.507
14721TIP3   OH244105   2.950   6.080   4.471
14721TIP3    H144106   3.034   6.123   4.452
14721TIP3    H244107   2.960   5.992   4.434
14722TIP3   OH244108   0.689   2.284   2.262
14722TIP3    H144109   0.739   2.365   2.257
14722TIP3    H244110   0.667   2.264   2.171
14723TIP3   OH244111   4.894   7.164   2.770
14723TIP3    H144112   4.961   7.163   2.839
14723TIP3    H244113   4.940   7.194   2.692
14724TIP3   OH244114   0.897   2.703   1.242
14724TIP3    H144115   0.875   2.611   1.253
14724TIP3    H244116   0.874   2.743   1.326
14725TIP3   OH244117   0.101   2.178   2.981
14725TIP3    H144118   0.047   2.099   2.973
14725TIP3    H244119   0.040   2.250   2.968
14726TIP3   OH244120   5.472   3.247   0.639
14726TIP3    H144121   5.553   3.243   0.689
14726TIP3    H244122   5.471   3.167   0.587
14727TIP3   OH244123   0.873   2.759   2.694
14727TIP3    H144124   0.876   2.677   2.745
14727TIP3    H244125   0.910   2.825   2.754
14728TIP3   OH244126   2.496   6.383   3.620
14728TIP3    H144127   2.540   6.432   3.550
14728TIP3    H244128   2.427   6.334   3.576
14729TIP3   OH244129   6.185   0.581   5.130
14729TIP3    H144130   6.220   0.499   5.097
14729TIP3    H244131   6.095   0.561   5.156
14730TIP3   OH244132   7.709   4.031   4.818
14730TIP3    H144133   7.794   4.036   4.860
14730TIP3    H244134   7.714   4.094   4.745
14731TIP3   OH244135   6.993   7.227   6.478
14731TIP3    H144136   7.032   7.239   6.391
14731TIP3    H244137   7.042   7.287   6.534
14732TIP3   OH244138   6.612   2.316   3.060
14732TIP3    H144139   6.620   2.318   3.155
14732TIP3    H244140   6.701   2.298   3.029
14733TIP3   OH244141   0.086   0.823   3.276
14733TIP3    H144142   0.007   0.806   3.327
14733TIP3    H244143   0.086   0.755   3.209
14734TIP3   OH244144   3.047   0.722   4.792
14734TIP3    H144145   3.142   0.731   4.798
14734TIP3    H244146   3.014   0.812   4.796
14735TIP3   OH244147   3.405   5.566   4.439
14735TIP3    H144148   3.435   5.648   4.479
14735TIP3    H244149   3.459   5.498   4.481
14736TIP3   OH244150   5.500   4.954   5.350
14736TIP3    H144151   5.441   4.981   5.280
14736TIP3    H244152   5.448   4.894   5.404
14737TIP3   OH244153   5.032   6.960   3.075
14737TIP3    H144154   4.946   6.988   3.044
14737TIP3    H244155   5.061   6.896   3.009
14738TIP3   OH244156   1.297   2.307   2.955
14738TIP3    H144157   1.310   2.270   2.867
14738TIP3    H244158   1.340   2.244   3.014
14739TIP3   OH244159   7.507   0.590   5.704
14739TIP3    H144160   7.574   0.627   5.647
14739TIP3    H244161   7.556   0.559   5.780
14740TIP3   OH244162   0.817   6.298   2.458
14740TIP3    H144163   0.881   6.336   2.519
14740TIP3    H244164   0.808   6.207   2.487
14741TIP3   OH244165   3.989   4.805   6.209
14741TIP3    H144166   3.975   4.868   6.138
14741TIP3    H244167   3.949   4.846   6.286
14742TIP3   OH244168   5.659   0.890   3.568
14742TIP3    H144169   5.669   0.815   3.508
14742TIP3    H244170   5.734   0.884   3.626
14743TIP3   OH244171   3.166   1.789   5.647
14743TIP3    H144172   3.203   1.774   5.734
14743TIP3    H244173   3.097   1.854   5.661
14744TIP3   OH244174   7.776   5.552   3.288
14744TIP3    H144175   7.734   5.557   3.374
14744TIP3    H244176   7.747   5.468   3.251
14745TIP3   OH244177   6.842   5.851   4.152
14745TIP3    H144178   6.839   5.784   4.083
14745TIP3    H244179   6.817   5.932   4.108
14746TIP3   OH244180   5.428   2.920   6.103
14746TIP3    H144181   5.404   2.833   6.135
14746TIP3    H244182   5.520   2.931   6.127
14747TIP3   OH244183   4.274   7.402   0.073
14747TIP3    H144184   4.360   7.441   0.092
14747TIP3    H244185   4.236   7.458   0.006
14748TIP3   OH244186   5.483   2.751   3.732
14748TIP3    H144187   5.541   2.739   3.657
14748TIP3    H244188   5.435   2.668   3.740
14749TIP3   OH244189   4.710   4.864   4.884
14749TIP3    H144190   4.770   4.829   4.950
14749TIP3    H244191   4.654   4.925   4.931
14750TIP3   OH244192   4.163   3.232   4.764
14750TIP3    H144193   4.186   3.214   4.673
14750TIP3    H244194   4.175   3.327   4.774
14751TIP3   OH244195   3.778   2.088   6.661
14751TIP3    H144196   3.827   2.089   6.578
14751TIP3    H244197   3.763   2.181   6.681
14752TIP3   OH244198   2.580   6.739   3.960
14752TIP3    H144199   2.529   6.784   3.892
14752TIP3    H244200   2.659   6.792   3.970
14753TIP3   OH244201   1.140   2.351   5.570
14753TIP3    H144202   1.207   2.284   5.559
14753TIP3    H244203   1.084   2.317   5.641
14754TIP3   OH244204   5.586   1.608   5.783
14754TIP3    H144205   5.585   1.704   5.774
14754TIP3    H244206   5.672   1.589   5.821
14755TIP3   OH244207   4.896   0.711   2.652
14755TIP3    H144208   4.949   0.744   2.579
14755TIP3    H244209   4.838   0.783   2.674
14756TIP3   OH244210   0.605   6.624   5.895
14756TIP3    H144211   0.553   6.640   5.973
14756TIP3    H244212   0.695   6.646   5.920
14757TIP3   OH244213   0.255   3.173   2.577
14757TIP3    H144214   0.351   3.171   2.572
14757TIP3    H244215   0.229   3.249   2.524
14758TIP3   OH244216   0.108   5.637   5.844
14758TIP3    H144217   0.137   5.698   5.911
14758TIP3    H244218   0.087   5.692   5.768
14759TIP3   OH244219   7.057   4.930   5.969
14759TIP3    H144220   7.060   4.838   5.944
14759TIP3    H244221   7.117   4.937   6.043
14760TIP3   OH244222   0.304   3.217   3.472
14760TIP3    H144223   0.340   3.226   3.560
14760TIP3    H244224   0.314   3.303   3.432
14761TIP3   OH244225   0.322   2.226   0.957
14761TIP3    H144226   0.293   2.313   0.927
14761TIP3    H244227   0.387   2.199   0.893
14762TIP3   OH244228   6.921   1.301   3.630
14762TIP3    H144229   6.857   1.265   3.691
14762TIP3    H244230   6.875   1.372   3.585
14763TIP3   OH244231   1.758   5.466   5.280
14763TIP3    H144232   1.813   5.401   5.325
14763TIP3    H244233   1.718   5.417   5.208
14764TIP3   OH244234   7.108   7.628   2.661
14764TIP3    H144235   7.156   7.711   2.659
14764TIP3    H244236   7.074   7.618   2.572
14765TIP3   OH244237   6.263   2.326   2.353
14765TIP3    H144238   6.186   2.271   2.368
14765TIP3    H244239   6.335   2.263   2.346
14766TIP3   OH244240   0.901   1.256   1.970
14766TIP3    H144241   0.855   1.301   2.041
14766TIP3    H244242   0.981   1.307   1.957
14767TIP3   OH244243   0.703   4.129   5.557
14767TIP3    H144244   0.721   4.221   5.577
14767TIP3    H244245   0.630   4.130   5.496
14768TIP3   OH244246   6.172   1.986   2.210
14768TIP3    H144247   6.152   2.038   2.288
14768TIP3    H244248   6.090   1.939   2.191
14769TIP3   OH244249   6.339   5.362   5.901
14769TIP3    H144250   6.267   5.335   5.957
14769TIP3    H244251   6.411   5.381   5.961
14770TIP3   OH244252   5.567   6.660   0.805
14770TIP3    H144253   5.488   6.682   0.756
14770TIP3    H244254   5.601   6.744   0.836
14771TIP3   OH244255   4.329   0.614   4.266
14771TIP3    H144256   4.286   0.534   4.295
14771TIP3    H244257   4.419   0.605   4.297
14772TIP3   OH244258   5.188   2.249   4.964
14772TIP3    H144259   5.124   2.274   4.897
14772TIP3    H244260   5.229   2.331   4.990
14773TIP3   OH244261   8.143   5.192   4.004
14773TIP3    H144262   8.149   5.262   3.939
14773TIP3    H244263   8.229   5.191   4.046
14774TIP3   OH244264   4.928   3.926   3.757
14774TIP3    H144265   4.945   3.832   3.758
14774TIP3    H244266   4.832   3.933   3.757
14775TIP3   OH244267   2.288   5.833   6.591
14775TIP3    H144268   2.237   5.775   6.648
14775TIP3    H244269   2.374   5.836   6.632
14776TIP3   OH244270   3.649   0.217   0.341
14776TIP3    H144271   3.670   0.268   0.420
14776TIP3    H244272   3.587   0.272   0.293
14777TIP3   OH244273   6.480   2.207   1.366
14777TIP3    H144274   6.535   2.219   1.289
14777TIP3    H244275   6.535   2.234   1.440
14778TIP3   OH244276   5.079   5.495   6.425
14778TIP3    H144277   5.020   5.458   6.491
14778TIP3    H244278   5.100   5.583   6.458
14779TIP3   OH244279   8.244   0.007   1.842
14779TIP3    H144280   8.223  -0.084   1.820
14779TIP3    H244281   8.274   0.003   1.933
14780TIP3   OH244282   6.780   7.504   5.786
14780TIP3    H144283   6.788   7.543   5.699
14780TIP3    H244284   6.756   7.413   5.769
14781TIP3   OH244285   6.760   0.888   4.649
14781TIP3    H144286   6.686   0.865   4.593
14781TIP3    H244287   6.744   0.979   4.674
14782TIP3   OH244288   4.093   3.436   3.337
14782TIP3    H144289   4.112   3.370   3.403
14782TIP3    H244290   4.170   3.494   3.338
14783TIP3   OH244291   4.663   7.030   6.634
14783TIP3    H144292   4.729   6.998   6.573
14783TIP3    H244293   4.705   7.026   6.720
14784TIP3   OH244294   4.498   5.489   1.662
14784TIP3    H144295   4.508   5.565   1.605
14784TIP3    H244296   4.451   5.425   1.608
14785TIP3   OH244297   6.300   0.672   4.531
14785TIP3    H144298   6.338   0.614   4.464
14785TIP3    H244299   6.345   0.648   4.612
14786TIP3   OH244300   5.612   1.886   5.812
14786TIP3    H144301   5.521   1.917   5.806
14786TIP3    H244302   5.633   1.896   5.905
14787TIP3   OH244303   0.673   5.181   1.348
14787TIP3    H144304   0.630   5.125   1.412
14787TIP3    H244305   0.763   5.189   1.380
14788TIP3   OH244306   0.533   3.350   4.181
14788TIP3    H144307   0.530   3.289   4.108
14788TIP3    H244308   0.603   3.317   4.237
14789TIP3   OH244309   6.177   6.039   0.456
14789TIP3    H144310   6.151   6.035   0.547
14789TIP3    H244311   6.157   6.129   0.429
14790TIP3   OH244312   7.455   3.491   0.437
14790TIP3    H144313   7.455   3.484   0.342
14790TIP3    H244314   7.541   3.527   0.459
14791TIP3   OH244315   0.929   0.373   5.076
14791TIP3    H144316   0.928   0.437   5.005
14791TIP3    H244317   0.968   0.295   5.038
14792TIP3   OH244318   8.288   5.670   4.196
14792TIP3    H144319   8.193   5.681   4.185
14792TIP3    H244320   8.303   5.678   4.290
14793TIP3   OH244321   5.199   2.867   6.699
14793TIP3    H144322   5.126   2.909   6.744
14793TIP3    H244323   5.158   2.802   6.642
14794TIP3   OH244324   7.126   2.741   0.840
14794TIP3    H144325   7.216   2.746   0.874
14794TIP3    H244326   7.073   2.718   0.916
14795TIP3   OH244327   7.324   3.733   2.260
14795TIP3    H144328   7.417   3.739   2.235
14795TIP3    H244329   7.277   3.768   2.185
14796TIP3   OH244330   0.889   0.225   0.632
14796TIP3    H144331   0.949   0.198   0.702
14796TIP3    H244332   0.803   0.223   0.673
14797TIP3   OH244333   0.103   7.740   1.360
14797TIP3    H144334   0.020   7.713   1.398
14797TIP3    H244335   0.105   7.835   1.370
14798TIP3   OH244336   8.073   4.116   1.885
14798TIP3    H144337   8.017   4.132   1.960
14798TIP3    H244338   8.036   4.171   1.815
14799TIP3   OH244339   1.992   1.161   2.067
14799TIP3    H144340   1.969   1.213   1.989
14799TIP3    H244341   1.914   1.109   2.084
14800TIP3   OH244342   2.831   3.406   3.993
14800TIP3    H144343   2.844   3.468   4.065
14800TIP3    H244344   2.912   3.356   3.990
14801TIP3   OH244345   2.407   5.736   6.214
14801TIP3    H144346   2.312   5.742   6.228
14801TIP3    H244347   2.439   5.826   6.221
14802TIP3   OH244348   4.139   3.556   4.144
14802TIP3    H144349   4.073   3.595   4.086
14802TIP3    H244350   4.201   3.628   4.160
14803TIP3   OH244351   0.964   3.542   5.205
14803TIP3    H144352   1.021   3.610   5.171
14803TIP3    H244353   1.008   3.510   5.284
14804TIP3   OH244354   3.582   4.274   5.872
14804TIP3    H144355   3.638   4.323   5.933
14804TIP3    H244356   3.502   4.256   5.922
14805TIP3   OH244357   7.354   5.022   5.174
14805TIP3    H144358   7.318   4.949   5.224
14805TIP3    H244359   7.373   5.089   5.239
14806TIP3   OH244360   3.835   0.006   0.510
14806TIP3    H144361   3.878   0.004   0.425
14806TIP3    H244362   3.775   0.080   0.505
14807TIP3   OH244363   3.084   0.988   1.095
14807TIP3    H144364   3.113   1.047   1.025
14807TIP3    H244365   3.139   1.011   1.170
14808TIP3   OH244366   2.501   1.144   0.344
14808TIP3    H144367   2.435   1.146   0.275
14808TIP3    H244368   2.460   1.190   0.418
14809TIP3   OH244369   6.069   0.636   5.545
14809TIP3    H144370   5.992   0.676   5.586
14809TIP3    H244371   6.137   0.640   5.612
14810TIP3   OH244372   4.245   1.935   4.579
14810TIP3    H144373   4.278   1.873   4.513
14810TIP3    H244374   4.299   1.918   4.656
14811TIP3   OH244375   3.103   2.526   3.385
14811TIP3    H144376   3.118   2.500   3.294
14811TIP3    H244377   3.033   2.468   3.416
14812TIP3   OH244378   4.062   3.541   1.720
14812TIP3    H144379   4.075   3.469   1.782
14812TIP3    H244380   4.136   3.600   1.736
14813TIP3   OH244381   3.574   5.100   0.070
14813TIP3    H144382   3.645   5.119   0.008
14813TIP3    H244383   3.556   5.007   0.057
14814TIP3   OH244384   5.667   0.181   1.396
14814TIP3    H144385   5.673   0.094   1.355
14814TIP3    H244386   5.587   0.218   1.358
14815TIP3   OH244387   7.614   3.766   5.701
14815TIP3    H144388   7.560   3.832   5.745
14815TIP3    H244389   7.622   3.797   5.611
14816TIP3   OH244390   8.074   4.921   0.811
14816TIP3    H144391   8.011   4.951   0.875
14816TIP3    H244392   8.091   4.997   0.756
14817TIP3   OH244393   7.753   3.255   0.389
14817TIP3    H144394   7.684   3.208   0.342
14817TIP3    H244395   7.788   3.318   0.326
14818TIP3   OH244396   3.877   4.935   1.867
14818TIP3    H144397   3.804   4.904   1.813
14818TIP3    H244398   3.835   4.976   1.943
14819TIP3   OH244399   0.263   6.680   6.320
14819TIP3    H144400   0.233   6.590   6.310
14819TIP3    H244401   0.206   6.730   6.261
14820TIP3   OH244402   0.606   1.517   4.728
14820TIP3    H144403   0.636   1.482   4.811
14820TIP3    H244404   0.531   1.573   4.750
14821TIP3   OH244405   2.924   5.410   5.356
14821TIP3    H144406   2.932   5.462   5.436
14821TIP3    H244407   2.995   5.442   5.300
14822TIP3   OH244408   3.923   5.865   5.614
14822TIP3    H144409   3.915   5.781   5.659
14822TIP3    H244410   3.912   5.930   5.683
14823TIP3   OH244411   2.275   6.819   3.609
14823TIP3    H144412   2.197   6.787   3.655
14823TIP3    H244413   2.259   6.797   3.517
14824TIP3   OH244414   7.993   1.135   4.305
14824TIP3    H144415   8.012   1.127   4.212
14824TIP3    H244416   7.897   1.138   4.310
14825TIP3   OH244417   5.178   7.485   2.302
14825TIP3    H144418   5.205   7.522   2.218
14825TIP3    H244419   5.083   7.488   2.301
14826TIP3   OH244420   1.182   0.739   4.902
14826TIP3    H144421   1.165   0.832   4.889
14826TIP3    H244422   1.277   0.729   4.890
14827TIP3   OH244423   8.245   3.840   3.678
14827TIP3    H144424   8.259   3.747   3.697
14827TIP3    H244425   8.320   3.866   3.625
14828TIP3   OH244426   0.257   0.965   2.358
14828TIP3    H144427   0.236   0.879   2.323
14828TIP3    H244428   0.193   0.979   2.428
14829TIP3   OH244429   5.495   1.548   0.474
14829TIP3    H144430   5.562   1.481   0.488
14829TIP3    H244431   5.425   1.503   0.427
14830TIP3   OH244432   0.788   6.469   3.979
14830TIP3    H144433   0.720   6.480   4.045
14830TIP3    H244434   0.748   6.415   3.911
   8.29471   7.82033   6.77260   0.00000   0.00000  -2.76490   0.00000  -2.76490  -3.91016
