;;
;; Generated by CHARMM-GUI FF-Converter
;;
;; Correspondance:
;; jul316@lehigh.edu or wonpil@lehigh.edu
;;
;; GROMACS topology file for PROA
;;


[ moleculetype ]
; name	nrexcl
PROA	     3

[ atoms ]
; nr	type	resnr	residu	atom	cgnr	charge	mass
     1        NH3      1      GLY      N      1    -0.300000    14.0070   ; qtot -0.300
     2         HC      1      GLY    HT1      2     0.330000     1.0080   ; qtot  0.030
     3         HC      1      GLY    HT2      3     0.330000     1.0080   ; qtot  0.360
     4         HC      1      GLY    HT3      4     0.330000     1.0080   ; qtot  0.690
     5        CT2      1      GLY     CA      5     0.130000    12.0110   ; qtot  0.820
     6        HB2      1      GLY    HA1      6     0.090000     1.0080   ; qtot  0.910
     7        HB2      1      GLY    HA2      7     0.090000     1.0080   ; qtot  1.000
     8          C      1      GLY      C      8     0.510000    12.0110   ; qtot  1.510
     9          O      1      GLY      O      9    -0.510000    15.9994   ; qtot  1.000
    10          N      2      PRO      N     10    -0.290000    14.0070   ; qtot  0.710
    11        CP3      2      PRO     CD     11     0.000000    12.0110   ; qtot  0.710
    12        HA2      2      PRO    HD1     12     0.090000     1.0080   ; qtot  0.800
    13        HA2      2      PRO    HD2     13     0.090000     1.0080   ; qtot  0.890
    14        CP1      2      PRO     CA     14     0.020000    12.0110   ; qtot  0.910
    15        HB1      2      PRO     HA     15     0.090000     1.0080   ; qtot  1.000
    16        CP2      2      PRO     CB     16    -0.180000    12.0110   ; qtot  0.820
    17        HA2      2      PRO    HB1     17     0.090000     1.0080   ; qtot  0.910
    18        HA2      2      PRO    HB2     18     0.090000     1.0080   ; qtot  1.000
    19        CP2      2      PRO     CG     19    -0.180000    12.0110   ; qtot  0.820
    20        HA2      2      PRO    HG1     20     0.090000     1.0080   ; qtot  0.910
    21        HA2      2      PRO    HG2     21     0.090000     1.0080   ; qtot  1.000
    22          C      2      PRO      C     22     0.510000    12.0110   ; qtot  1.510
    23          O      2      PRO      O     23    -0.510000    15.9994   ; qtot  1.000
    24        NH1      3      GLY      N     24    -0.470000    14.0070   ; qtot  0.530
    25          H      3      GLY     HN     25     0.310000     1.0080   ; qtot  0.840
    26        CT2      3      GLY     CA     26    -0.020000    12.0110   ; qtot  0.820
    27        HB2      3      GLY    HA1     27     0.090000     1.0080   ; qtot  0.910
    28        HB2      3      GLY    HA2     28     0.090000     1.0080   ; qtot  1.000
    29          C      3      GLY      C     29     0.510000    12.0110   ; qtot  1.510
    30          O      3      GLY      O     30    -0.510000    15.9994   ; qtot  1.000
    31        NH1      4      ALA      N     31    -0.470000    14.0070   ; qtot  0.530
    32          H      4      ALA     HN     32     0.310000     1.0080   ; qtot  0.840
    33        CT1      4      ALA     CA     33     0.070000    12.0110   ; qtot  0.910
    34        HB1      4      ALA     HA     34     0.090000     1.0080   ; qtot  1.000
    35        CT3      4      ALA     CB     35    -0.270000    12.0110   ; qtot  0.730
    36        HA3      4      ALA    HB1     36     0.090000     1.0080   ; qtot  0.820
    37        HA3      4      ALA    HB2     37     0.090000     1.0080   ; qtot  0.910
    38        HA3      4      ALA    HB3     38     0.090000     1.0080   ; qtot  1.000
    39          C      4      ALA      C     39     0.510000    12.0110   ; qtot  1.510
    40          O      4      ALA      O     40    -0.510000    15.9994   ; qtot  1.000
    41          N      5      PRO      N     41    -0.290000    14.0070   ; qtot  0.710
    42        CP3      5      PRO     CD     42     0.000000    12.0110   ; qtot  0.710
    43        HA2      5      PRO    HD1     43     0.090000     1.0080   ; qtot  0.800
    44        HA2      5      PRO    HD2     44     0.090000     1.0080   ; qtot  0.890
    45        CP1      5      PRO     CA     45     0.020000    12.0110   ; qtot  0.910
    46        HB1      5      PRO     HA     46     0.090000     1.0080   ; qtot  1.000
    47        CP2      5      PRO     CB     47    -0.180000    12.0110   ; qtot  0.820
    48        HA2      5      PRO    HB1     48     0.090000     1.0080   ; qtot  0.910
    49        HA2      5      PRO    HB2     49     0.090000     1.0080   ; qtot  1.000
    50        CP2      5      PRO     CG     50    -0.180000    12.0110   ; qtot  0.820
    51        HA2      5      PRO    HG1     51     0.090000     1.0080   ; qtot  0.910
    52        HA2      5      PRO    HG2     52     0.090000     1.0080   ; qtot  1.000
    53          C      5      PRO      C     53     0.510000    12.0110   ; qtot  1.510
    54          O      5      PRO      O     54    -0.510000    15.9994   ; qtot  1.000
    55        NH1      6      GLY      N     55    -0.470000    14.0070   ; qtot  0.530
    56          H      6      GLY     HN     56     0.310000     1.0080   ; qtot  0.840
    57        CT2      6      GLY     CA     57    -0.020000    12.0110   ; qtot  0.820
    58        HB2      6      GLY    HA1     58     0.090000     1.0080   ; qtot  0.910
    59        HB2      6      GLY    HA2     59     0.090000     1.0080   ; qtot  1.000
    60          C      6      GLY      C     60     0.510000    12.0110   ; qtot  1.510
    61          O      6      GLY      O     61    -0.510000    15.9994   ; qtot  1.000
    62        NH1      7      SER      N     62    -0.470000    14.0070   ; qtot  0.530
    63          H      7      SER     HN     63     0.310000     1.0080   ; qtot  0.840
    64        CT1      7      SER     CA     64     0.070000    12.0110   ; qtot  0.910
    65        HB1      7      SER     HA     65     0.090000     1.0080   ; qtot  1.000
    66        CT2      7      SER     CB     66     0.050000    12.0110   ; qtot  1.050
    67        HA2      7      SER    HB1     67     0.090000     1.0080   ; qtot  1.140
    68        HA2      7      SER    HB2     68     0.090000     1.0080   ; qtot  1.230
    69        OH1      7      SER     OG     69    -0.660000    15.9994   ; qtot  0.570
    70          H      7      SER    HG1     70     0.430000     1.0080   ; qtot  1.000
    71          C      7      SER      C     71     0.510000    12.0110   ; qtot  1.510
    72          O      7      SER      O     72    -0.510000    15.9994   ; qtot  1.000
    73        NH1      8      GLY      N     73    -0.470000    14.0070   ; qtot  0.530
    74          H      8      GLY     HN     74     0.310000     1.0080   ; qtot  0.840
    75        CT2      8      GLY     CA     75    -0.020000    12.0110   ; qtot  0.820
    76        HB2      8      GLY    HA1     76     0.090000     1.0080   ; qtot  0.910
    77        HB2      8      GLY    HA2     77     0.090000     1.0080   ; qtot  1.000
    78          C      8      GLY      C     78     0.510000    12.0110   ; qtot  1.510
    79          O      8      GLY      O     79    -0.510000    15.9994   ; qtot  1.000
    80          N      9      PRO      N     80    -0.290000    14.0070   ; qtot  0.710
    81        CP3      9      PRO     CD     81     0.000000    12.0110   ; qtot  0.710
    82        HA2      9      PRO    HD1     82     0.090000     1.0080   ; qtot  0.800
    83        HA2      9      PRO    HD2     83     0.090000     1.0080   ; qtot  0.890
    84        CP1      9      PRO     CA     84     0.020000    12.0110   ; qtot  0.910
    85        HB1      9      PRO     HA     85     0.090000     1.0080   ; qtot  1.000
    86        CP2      9      PRO     CB     86    -0.180000    12.0110   ; qtot  0.820
    87        HA2      9      PRO    HB1     87     0.090000     1.0080   ; qtot  0.910
    88        HA2      9      PRO    HB2     88     0.090000     1.0080   ; qtot  1.000
    89        CP2      9      PRO     CG     89    -0.180000    12.0110   ; qtot  0.820
    90        HA2      9      PRO    HG1     90     0.090000     1.0080   ; qtot  0.910
    91        HA2      9      PRO    HG2     91     0.090000     1.0080   ; qtot  1.000
    92          C      9      PRO      C     92     0.510000    12.0110   ; qtot  1.510
    93          O      9      PRO      O     93    -0.510000    15.9994   ; qtot  1.000
    94        NH1     10      GLY      N     94    -0.470000    14.0070   ; qtot  0.530
    95          H     10      GLY     HN     95     0.310000     1.0080   ; qtot  0.840
    96        CT2     10      GLY     CA     96    -0.020000    12.0110   ; qtot  0.820
    97        HB2     10      GLY    HA1     97     0.090000     1.0080   ; qtot  0.910
    98        HB2     10      GLY    HA2     98     0.090000     1.0080   ; qtot  1.000
    99          C     10      GLY      C     99     0.510000    12.0110   ; qtot  1.510
   100          O     10      GLY      O    100    -0.510000    15.9994   ; qtot  1.000
   101        NH1     11      ALA      N    101    -0.470000    14.0070   ; qtot  0.530
   102          H     11      ALA     HN    102     0.310000     1.0080   ; qtot  0.840
   103        CT1     11      ALA     CA    103     0.070000    12.0110   ; qtot  0.910
   104        HB1     11      ALA     HA    104     0.090000     1.0080   ; qtot  1.000
   105        CT3     11      ALA     CB    105    -0.270000    12.0110   ; qtot  0.730
   106        HA3     11      ALA    HB1    106     0.090000     1.0080   ; qtot  0.820
   107        HA3     11      ALA    HB2    107     0.090000     1.0080   ; qtot  0.910
   108        HA3     11      ALA    HB3    108     0.090000     1.0080   ; qtot  1.000
   109          C     11      ALA      C    109     0.510000    12.0110   ; qtot  1.510
   110          O     11      ALA      O    110    -0.510000    15.9994   ; qtot  1.000
   111          N     12      PRO      N    111    -0.290000    14.0070   ; qtot  0.710
   112        CP3     12      PRO     CD    112     0.000000    12.0110   ; qtot  0.710
   113        HA2     12      PRO    HD1    113     0.090000     1.0080   ; qtot  0.800
   114        HA2     12      PRO    HD2    114     0.090000     1.0080   ; qtot  0.890
   115        CP1     12      PRO     CA    115     0.020000    12.0110   ; qtot  0.910
   116        HB1     12      PRO     HA    116     0.090000     1.0080   ; qtot  1.000
   117        CP2     12      PRO     CB    117    -0.180000    12.0110   ; qtot  0.820
   118        HA2     12      PRO    HB1    118     0.090000     1.0080   ; qtot  0.910
   119        HA2     12      PRO    HB2    119     0.090000     1.0080   ; qtot  1.000
   120        CP2     12      PRO     CG    120    -0.180000    12.0110   ; qtot  0.820
   121        HA2     12      PRO    HG1    121     0.090000     1.0080   ; qtot  0.910
   122        HA2     12      PRO    HG2    122     0.090000     1.0080   ; qtot  1.000
   123          C     12      PRO      C    123     0.510000    12.0110   ; qtot  1.510
   124          O     12      PRO      O    124    -0.510000    15.9994   ; qtot  1.000
   125        NH1     13      GLY      N    125    -0.470000    14.0070   ; qtot  0.530
   126          H     13      GLY     HN    126     0.310000     1.0080   ; qtot  0.840
   127        CT2     13      GLY     CA    127    -0.020000    12.0110   ; qtot  0.820
   128        HB2     13      GLY    HA1    128     0.090000     1.0080   ; qtot  0.910
   129        HB2     13      GLY    HA2    129     0.090000     1.0080   ; qtot  1.000
   130          C     13      GLY      C    130     0.510000    12.0110   ; qtot  1.510
   131          O     13      GLY      O    131    -0.510000    15.9994   ; qtot  1.000
   132        NH1     14      SER      N    132    -0.470000    14.0070   ; qtot  0.530
   133          H     14      SER     HN    133     0.310000     1.0080   ; qtot  0.840
   134        CT1     14      SER     CA    134     0.070000    12.0110   ; qtot  0.910
   135        HB1     14      SER     HA    135     0.090000     1.0080   ; qtot  1.000
   136        CT2     14      SER     CB    136     0.050000    12.0110   ; qtot  1.050
   137        HA2     14      SER    HB1    137     0.090000     1.0080   ; qtot  1.140
   138        HA2     14      SER    HB2    138     0.090000     1.0080   ; qtot  1.230
   139        OH1     14      SER     OG    139    -0.660000    15.9994   ; qtot  0.570
   140          H     14      SER    HG1    140     0.430000     1.0080   ; qtot  1.000
   141          C     14      SER      C    141     0.510000    12.0110   ; qtot  1.510
   142          O     14      SER      O    142    -0.510000    15.9994   ; qtot  1.000
   143        NH1     15      GLY      N    143    -0.470000    14.0070   ; qtot  0.530
   144          H     15      GLY     HN    144     0.310000     1.0080   ; qtot  0.840
   145        CT2     15      GLY     CA    145    -0.020000    12.0110   ; qtot  0.820
   146        HB2     15      GLY    HA1    146     0.090000     1.0080   ; qtot  0.910
   147        HB2     15      GLY    HA2    147     0.090000     1.0080   ; qtot  1.000
   148          C     15      GLY      C    148     0.510000    12.0110   ; qtot  1.510
   149          O     15      GLY      O    149    -0.510000    15.9994   ; qtot  1.000
   150          N     16      PRO      N    150    -0.290000    14.0070   ; qtot  0.710
   151        CP3     16      PRO     CD    151     0.000000    12.0110   ; qtot  0.710
   152        HA2     16      PRO    HD1    152     0.090000     1.0080   ; qtot  0.800
   153        HA2     16      PRO    HD2    153     0.090000     1.0080   ; qtot  0.890
   154        CP1     16      PRO     CA    154     0.020000    12.0110   ; qtot  0.910
   155        HB1     16      PRO     HA    155     0.090000     1.0080   ; qtot  1.000
   156        CP2     16      PRO     CB    156    -0.180000    12.0110   ; qtot  0.820
   157        HA2     16      PRO    HB1    157     0.090000     1.0080   ; qtot  0.910
   158        HA2     16      PRO    HB2    158     0.090000     1.0080   ; qtot  1.000
   159        CP2     16      PRO     CG    159    -0.180000    12.0110   ; qtot  0.820
   160        HA2     16      PRO    HG1    160     0.090000     1.0080   ; qtot  0.910
   161        HA2     16      PRO    HG2    161     0.090000     1.0080   ; qtot  1.000
   162          C     16      PRO      C    162     0.510000    12.0110   ; qtot  1.510
   163          O     16      PRO      O    163    -0.510000    15.9994   ; qtot  1.000
   164        NH1     17      GLY      N    164    -0.470000    14.0070   ; qtot  0.530
   165          H     17      GLY     HN    165     0.310000     1.0080   ; qtot  0.840
   166        CT2     17      GLY     CA    166    -0.020000    12.0110   ; qtot  0.820
   167        HB2     17      GLY    HA1    167     0.090000     1.0080   ; qtot  0.910
   168        HB2     17      GLY    HA2    168     0.090000     1.0080   ; qtot  1.000
   169          C     17      GLY      C    169     0.510000    12.0110   ; qtot  1.510
   170          O     17      GLY      O    170    -0.510000    15.9994   ; qtot  1.000
   171        NH1     18      ALA      N    171    -0.470000    14.0070   ; qtot  0.530
   172          H     18      ALA     HN    172     0.310000     1.0080   ; qtot  0.840
   173        CT1     18      ALA     CA    173     0.070000    12.0110   ; qtot  0.910
   174        HB1     18      ALA     HA    174     0.090000     1.0080   ; qtot  1.000
   175        CT3     18      ALA     CB    175    -0.270000    12.0110   ; qtot  0.730
   176        HA3     18      ALA    HB1    176     0.090000     1.0080   ; qtot  0.820
   177        HA3     18      ALA    HB2    177     0.090000     1.0080   ; qtot  0.910
   178        HA3     18      ALA    HB3    178     0.090000     1.0080   ; qtot  1.000
   179          C     18      ALA      C    179     0.510000    12.0110   ; qtot  1.510
   180          O     18      ALA      O    180    -0.510000    15.9994   ; qtot  1.000
   181          N     19      PRO      N    181    -0.290000    14.0070   ; qtot  0.710
   182        CP3     19      PRO     CD    182     0.000000    12.0110   ; qtot  0.710
   183        HA2     19      PRO    HD1    183     0.090000     1.0080   ; qtot  0.800
   184        HA2     19      PRO    HD2    184     0.090000     1.0080   ; qtot  0.890
   185        CP1     19      PRO     CA    185     0.020000    12.0110   ; qtot  0.910
   186        HB1     19      PRO     HA    186     0.090000     1.0080   ; qtot  1.000
   187        CP2     19      PRO     CB    187    -0.180000    12.0110   ; qtot  0.820
   188        HA2     19      PRO    HB1    188     0.090000     1.0080   ; qtot  0.910
   189        HA2     19      PRO    HB2    189     0.090000     1.0080   ; qtot  1.000
   190        CP2     19      PRO     CG    190    -0.180000    12.0110   ; qtot  0.820
   191        HA2     19      PRO    HG1    191     0.090000     1.0080   ; qtot  0.910
   192        HA2     19      PRO    HG2    192     0.090000     1.0080   ; qtot  1.000
   193         CC     19      PRO      C    193     0.340000    12.0110   ; qtot  1.340
   194         OC     19      PRO    OT1    194    -0.670000    15.9994   ; qtot  0.670
   195         OC     19      PRO    OT2    195    -0.670000    15.9994   ; qtot -0.000

[ bonds ]
; ai	aj	funct	b0	Kb
    2     1     1
    3     1     1
    4     1     1
    1     5     1
    5     6     1
    5     7     1
    8     5     1
    9     8     1
    8    10     1
   10    11     1
   10    14     1
   12    11     1
   13    11     1
   19    11     1
   15    14     1
   14    16     1
   22    14     1
   17    16     1
   18    16     1
   16    19     1
   20    19     1
   21    19     1
   23    22     1
   22    24     1
   24    25     1
   24    26     1
   26    27     1
   26    28     1
   29    26     1
   30    29     1
   29    31     1
   31    32     1
   31    33     1
   33    34     1
   35    33     1
   39    33     1
   35    36     1
   35    37     1
   35    38     1
   40    39     1
   39    41     1
   41    42     1
   41    45     1
   43    42     1
   44    42     1
   50    42     1
   46    45     1
   45    47     1
   53    45     1
   48    47     1
   49    47     1
   47    50     1
   51    50     1
   52    50     1
   54    53     1
   53    55     1
   55    56     1
   55    57     1
   57    58     1
   57    59     1
   60    57     1
   61    60     1
   60    62     1
   62    63     1
   62    64     1
   64    65     1
   66    64     1
   71    64     1
   66    67     1
   66    68     1
   69    66     1
   69    70     1
   72    71     1
   71    73     1
   73    74     1
   73    75     1
   75    76     1
   75    77     1
   78    75     1
   79    78     1
   78    80     1
   80    81     1
   80    84     1
   82    81     1
   83    81     1
   89    81     1
   85    84     1
   84    86     1
   92    84     1
   87    86     1
   88    86     1
   86    89     1
   90    89     1
   91    89     1
   93    92     1
   92    94     1
   94    95     1
   94    96     1
   96    97     1
   96    98     1
   99    96     1
  100    99     1
   99   101     1
  101   102     1
  101   103     1
  103   104     1
  105   103     1
  109   103     1
  105   106     1
  105   107     1
  105   108     1
  110   109     1
  109   111     1
  111   112     1
  111   115     1
  113   112     1
  114   112     1
  120   112     1
  116   115     1
  115   117     1
  123   115     1
  118   117     1
  119   117     1
  117   120     1
  121   120     1
  122   120     1
  124   123     1
  123   125     1
  125   126     1
  125   127     1
  127   128     1
  127   129     1
  130   127     1
  131   130     1
  130   132     1
  132   133     1
  132   134     1
  134   135     1
  136   134     1
  141   134     1
  136   137     1
  136   138     1
  139   136     1
  139   140     1
  142   141     1
  141   143     1
  143   144     1
  143   145     1
  145   146     1
  145   147     1
  148   145     1
  149   148     1
  148   150     1
  150   151     1
  150   154     1
  152   151     1
  153   151     1
  159   151     1
  155   154     1
  154   156     1
  162   154     1
  157   156     1
  158   156     1
  156   159     1
  160   159     1
  161   159     1
  163   162     1
  162   164     1
  164   165     1
  164   166     1
  166   167     1
  166   168     1
  169   166     1
  170   169     1
  169   171     1
  171   172     1
  171   173     1
  173   174     1
  175   173     1
  179   173     1
  175   176     1
  175   177     1
  175   178     1
  180   179     1
  179   181     1
  181   182     1
  181   185     1
  183   182     1
  184   182     1
  190   182     1
  186   185     1
  185   187     1
  193   185     1
  188   187     1
  189   187     1
  187   190     1
  191   190     1
  192   190     1
  193   194     1
  193   195     1

[ pairs ]
; ai	aj	funct	c6	c12 or
; ai	aj	funct	fudgeQQ	q1	q2	c6	c12
    1     9     1
    1    10     1
    2     6     1
    2     7     1
    2     8     1
    3     6     1
    3     7     1
    3     8     1
    4     6     1
    4     7     1
    4     8     1
    5    11     1
    5    14     1
    6     9     1
    6    10     1
    7     9     1
    7    10     1
    8    12     1
    8    13     1
    8    15     1
    8    16     1
    8    19     1
    8    22     1
    9    11     1
    9    14     1
   10    17     1
   10    18     1
   10    20     1
   10    21     1
   10    23     1
   10    24     1
   11    15     1
   11    17     1
   11    18     1
   11    22     1
   12    14     1
   12    16     1
   12    20     1
   12    21     1
   13    14     1
   13    16     1
   13    20     1
   13    21     1
   14    20     1
   14    21     1
   14    25     1
   14    26     1
   15    17     1
   15    18     1
   15    19     1
   15    23     1
   15    24     1
   16    23     1
   16    24     1
   17    20     1
   17    21     1
   17    22     1
   18    20     1
   18    21     1
   18    22     1
   19    22     1
   22    27     1
   22    28     1
   22    29     1
   23    25     1
   23    26     1
   24    30     1
   24    31     1
   25    27     1
   25    28     1
   25    29     1
   26    32     1
   26    33     1
   27    30     1
   27    31     1
   28    30     1
   28    31     1
   29    34     1
   29    35     1
   29    39     1
   30    32     1
   30    33     1
   31    36     1
   31    37     1
   31    38     1
   31    40     1
   31    41     1
   32    34     1
   32    35     1
   32    39     1
   33    42     1
   33    45     1
   34    36     1
   34    37     1
   34    38     1
   34    40     1
   34    41     1
   35    40     1
   35    41     1
   36    39     1
   37    39     1
   38    39     1
   39    43     1
   39    44     1
   39    46     1
   39    47     1
   39    50     1
   39    53     1
   40    42     1
   40    45     1
   41    48     1
   41    49     1
   41    51     1
   41    52     1
   41    54     1
   41    55     1
   42    46     1
   42    48     1
   42    49     1
   42    53     1
   43    45     1
   43    47     1
   43    51     1
   43    52     1
   44    45     1
   44    47     1
   44    51     1
   44    52     1
   45    51     1
   45    52     1
   45    56     1
   45    57     1
   46    48     1
   46    49     1
   46    50     1
   46    54     1
   46    55     1
   47    54     1
   47    55     1
   48    51     1
   48    52     1
   48    53     1
   49    51     1
   49    52     1
   49    53     1
   50    53     1
   53    58     1
   53    59     1
   53    60     1
   54    56     1
   54    57     1
   55    61     1
   55    62     1
   56    58     1
   56    59     1
   56    60     1
   57    63     1
   57    64     1
   58    61     1
   58    62     1
   59    61     1
   59    62     1
   60    65     1
   60    66     1
   60    71     1
   61    63     1
   61    64     1
   62    67     1
   62    68     1
   62    69     1
   62    72     1
   62    73     1
   63    65     1
   63    66     1
   63    71     1
   64    70     1
   64    74     1
   64    75     1
   65    67     1
   65    68     1
   65    69     1
   65    72     1
   65    73     1
   66    72     1
   66    73     1
   67    70     1
   67    71     1
   68    70     1
   68    71     1
   69    71     1
   71    76     1
   71    77     1
   71    78     1
   72    74     1
   72    75     1
   73    79     1
   73    80     1
   74    76     1
   74    77     1
   74    78     1
   75    81     1
   75    84     1
   76    79     1
   76    80     1
   77    79     1
   77    80     1
   78    82     1
   78    83     1
   78    85     1
   78    86     1
   78    89     1
   78    92     1
   79    81     1
   79    84     1
   80    87     1
   80    88     1
   80    90     1
   80    91     1
   80    93     1
   80    94     1
   81    85     1
   81    87     1
   81    88     1
   81    92     1
   82    84     1
   82    86     1
   82    90     1
   82    91     1
   83    84     1
   83    86     1
   83    90     1
   83    91     1
   84    90     1
   84    91     1
   84    95     1
   84    96     1
   85    87     1
   85    88     1
   85    89     1
   85    93     1
   85    94     1
   86    93     1
   86    94     1
   87    90     1
   87    91     1
   87    92     1
   88    90     1
   88    91     1
   88    92     1
   89    92     1
   92    97     1
   92    98     1
   92    99     1
   93    95     1
   93    96     1
   94   100     1
   94   101     1
   95    97     1
   95    98     1
   95    99     1
   96   102     1
   96   103     1
   97   100     1
   97   101     1
   98   100     1
   98   101     1
   99   104     1
   99   105     1
   99   109     1
  100   102     1
  100   103     1
  101   106     1
  101   107     1
  101   108     1
  101   110     1
  101   111     1
  102   104     1
  102   105     1
  102   109     1
  103   112     1
  103   115     1
  104   106     1
  104   107     1
  104   108     1
  104   110     1
  104   111     1
  105   110     1
  105   111     1
  106   109     1
  107   109     1
  108   109     1
  109   113     1
  109   114     1
  109   116     1
  109   117     1
  109   120     1
  109   123     1
  110   112     1
  110   115     1
  111   118     1
  111   119     1
  111   121     1
  111   122     1
  111   124     1
  111   125     1
  112   116     1
  112   118     1
  112   119     1
  112   123     1
  113   115     1
  113   117     1
  113   121     1
  113   122     1
  114   115     1
  114   117     1
  114   121     1
  114   122     1
  115   121     1
  115   122     1
  115   126     1
  115   127     1
  116   118     1
  116   119     1
  116   120     1
  116   124     1
  116   125     1
  117   124     1
  117   125     1
  118   121     1
  118   122     1
  118   123     1
  119   121     1
  119   122     1
  119   123     1
  120   123     1
  123   128     1
  123   129     1
  123   130     1
  124   126     1
  124   127     1
  125   131     1
  125   132     1
  126   128     1
  126   129     1
  126   130     1
  127   133     1
  127   134     1
  128   131     1
  128   132     1
  129   131     1
  129   132     1
  130   135     1
  130   136     1
  130   141     1
  131   133     1
  131   134     1
  132   137     1
  132   138     1
  132   139     1
  132   142     1
  132   143     1
  133   135     1
  133   136     1
  133   141     1
  134   140     1
  134   144     1
  134   145     1
  135   137     1
  135   138     1
  135   139     1
  135   142     1
  135   143     1
  136   142     1
  136   143     1
  137   140     1
  137   141     1
  138   140     1
  138   141     1
  139   141     1
  141   146     1
  141   147     1
  141   148     1
  142   144     1
  142   145     1
  143   149     1
  143   150     1
  144   146     1
  144   147     1
  144   148     1
  145   151     1
  145   154     1
  146   149     1
  146   150     1
  147   149     1
  147   150     1
  148   152     1
  148   153     1
  148   155     1
  148   156     1
  148   159     1
  148   162     1
  149   151     1
  149   154     1
  150   157     1
  150   158     1
  150   160     1
  150   161     1
  150   163     1
  150   164     1
  151   155     1
  151   157     1
  151   158     1
  151   162     1
  152   154     1
  152   156     1
  152   160     1
  152   161     1
  153   154     1
  153   156     1
  153   160     1
  153   161     1
  154   160     1
  154   161     1
  154   165     1
  154   166     1
  155   157     1
  155   158     1
  155   159     1
  155   163     1
  155   164     1
  156   163     1
  156   164     1
  157   160     1
  157   161     1
  157   162     1
  158   160     1
  158   161     1
  158   162     1
  159   162     1
  162   167     1
  162   168     1
  162   169     1
  163   165     1
  163   166     1
  164   170     1
  164   171     1
  165   167     1
  165   168     1
  165   169     1
  166   172     1
  166   173     1
  167   170     1
  167   171     1
  168   170     1
  168   171     1
  169   174     1
  169   175     1
  169   179     1
  170   172     1
  170   173     1
  171   176     1
  171   177     1
  171   178     1
  171   180     1
  171   181     1
  172   174     1
  172   175     1
  172   179     1
  173   182     1
  173   185     1
  174   176     1
  174   177     1
  174   178     1
  174   180     1
  174   181     1
  175   180     1
  175   181     1
  176   179     1
  177   179     1
  178   179     1
  179   183     1
  179   184     1
  179   186     1
  179   187     1
  179   190     1
  179   193     1
  180   182     1
  180   185     1
  181   188     1
  181   189     1
  181   191     1
  181   192     1
  181   194     1
  181   195     1
  182   186     1
  182   188     1
  182   189     1
  182   193     1
  183   185     1
  183   187     1
  183   191     1
  183   192     1
  184   185     1
  184   187     1
  184   191     1
  184   192     1
  185   191     1
  185   192     1
  186   188     1
  186   189     1
  186   190     1
  186   194     1
  186   195     1
  187   194     1
  187   195     1
  188   191     1
  188   192     1
  188   193     1
  189   191     1
  189   192     1
  189   193     1
  190   193     1

[ angles ] 
; ai	aj	ak	funct	th0	cth	S0	Kub
    2     1     3     5
    2     1     4     5
    2     1     5     5
    3     1     4     5
    3     1     5     5
    4     1     5     5
    1     5     6     5
    1     5     7     5
    1     5     8     5
    6     5     7     5
    6     5     8     5
    7     5     8     5
    5     8     9     5
    5     8    10     5
    9     8    10     5
    8    10    11     5
    8    10    14     5
   11    10    14     5
   10    11    12     5
   10    11    13     5
   10    11    19     5
   12    11    13     5
   12    11    19     5
   13    11    19     5
   10    14    15     5
   10    14    16     5
   10    14    22     5
   15    14    16     5
   15    14    22     5
   16    14    22     5
   14    16    17     5
   14    16    18     5
   14    16    19     5
   17    16    18     5
   17    16    19     5
   18    16    19     5
   11    19    16     5
   11    19    20     5
   11    19    21     5
   16    19    20     5
   16    19    21     5
   20    19    21     5
   14    22    23     5
   14    22    24     5
   23    22    24     5
   22    24    25     5
   22    24    26     5
   25    24    26     5
   24    26    27     5
   24    26    28     5
   24    26    29     5
   27    26    28     5
   27    26    29     5
   28    26    29     5
   26    29    30     5
   26    29    31     5
   30    29    31     5
   29    31    32     5
   29    31    33     5
   32    31    33     5
   31    33    34     5
   31    33    35     5
   31    33    39     5
   34    33    35     5
   34    33    39     5
   35    33    39     5
   33    35    36     5
   33    35    37     5
   33    35    38     5
   36    35    37     5
   36    35    38     5
   37    35    38     5
   33    39    40     5
   33    39    41     5
   40    39    41     5
   39    41    42     5
   39    41    45     5
   42    41    45     5
   41    42    43     5
   41    42    44     5
   41    42    50     5
   43    42    44     5
   43    42    50     5
   44    42    50     5
   41    45    46     5
   41    45    47     5
   41    45    53     5
   46    45    47     5
   46    45    53     5
   47    45    53     5
   45    47    48     5
   45    47    49     5
   45    47    50     5
   48    47    49     5
   48    47    50     5
   49    47    50     5
   42    50    47     5
   42    50    51     5
   42    50    52     5
   47    50    51     5
   47    50    52     5
   51    50    52     5
   45    53    54     5
   45    53    55     5
   54    53    55     5
   53    55    56     5
   53    55    57     5
   56    55    57     5
   55    57    58     5
   55    57    59     5
   55    57    60     5
   58    57    59     5
   58    57    60     5
   59    57    60     5
   57    60    61     5
   57    60    62     5
   61    60    62     5
   60    62    63     5
   60    62    64     5
   63    62    64     5
   62    64    65     5
   62    64    66     5
   62    64    71     5
   65    64    66     5
   65    64    71     5
   66    64    71     5
   64    66    67     5
   64    66    68     5
   64    66    69     5
   67    66    68     5
   67    66    69     5
   68    66    69     5
   66    69    70     5
   64    71    72     5
   64    71    73     5
   72    71    73     5
   71    73    74     5
   71    73    75     5
   74    73    75     5
   73    75    76     5
   73    75    77     5
   73    75    78     5
   76    75    77     5
   76    75    78     5
   77    75    78     5
   75    78    79     5
   75    78    80     5
   79    78    80     5
   78    80    81     5
   78    80    84     5
   81    80    84     5
   80    81    82     5
   80    81    83     5
   80    81    89     5
   82    81    83     5
   82    81    89     5
   83    81    89     5
   80    84    85     5
   80    84    86     5
   80    84    92     5
   85    84    86     5
   85    84    92     5
   86    84    92     5
   84    86    87     5
   84    86    88     5
   84    86    89     5
   87    86    88     5
   87    86    89     5
   88    86    89     5
   81    89    86     5
   81    89    90     5
   81    89    91     5
   86    89    90     5
   86    89    91     5
   90    89    91     5
   84    92    93     5
   84    92    94     5
   93    92    94     5
   92    94    95     5
   92    94    96     5
   95    94    96     5
   94    96    97     5
   94    96    98     5
   94    96    99     5
   97    96    98     5
   97    96    99     5
   98    96    99     5
   96    99   100     5
   96    99   101     5
  100    99   101     5
   99   101   102     5
   99   101   103     5
  102   101   103     5
  101   103   104     5
  101   103   105     5
  101   103   109     5
  104   103   105     5
  104   103   109     5
  105   103   109     5
  103   105   106     5
  103   105   107     5
  103   105   108     5
  106   105   107     5
  106   105   108     5
  107   105   108     5
  103   109   110     5
  103   109   111     5
  110   109   111     5
  109   111   112     5
  109   111   115     5
  112   111   115     5
  111   112   113     5
  111   112   114     5
  111   112   120     5
  113   112   114     5
  113   112   120     5
  114   112   120     5
  111   115   116     5
  111   115   117     5
  111   115   123     5
  116   115   117     5
  116   115   123     5
  117   115   123     5
  115   117   118     5
  115   117   119     5
  115   117   120     5
  118   117   119     5
  118   117   120     5
  119   117   120     5
  112   120   117     5
  112   120   121     5
  112   120   122     5
  117   120   121     5
  117   120   122     5
  121   120   122     5
  115   123   124     5
  115   123   125     5
  124   123   125     5
  123   125   126     5
  123   125   127     5
  126   125   127     5
  125   127   128     5
  125   127   129     5
  125   127   130     5
  128   127   129     5
  128   127   130     5
  129   127   130     5
  127   130   131     5
  127   130   132     5
  131   130   132     5
  130   132   133     5
  130   132   134     5
  133   132   134     5
  132   134   135     5
  132   134   136     5
  132   134   141     5
  135   134   136     5
  135   134   141     5
  136   134   141     5
  134   136   137     5
  134   136   138     5
  134   136   139     5
  137   136   138     5
  137   136   139     5
  138   136   139     5
  136   139   140     5
  134   141   142     5
  134   141   143     5
  142   141   143     5
  141   143   144     5
  141   143   145     5
  144   143   145     5
  143   145   146     5
  143   145   147     5
  143   145   148     5
  146   145   147     5
  146   145   148     5
  147   145   148     5
  145   148   149     5
  145   148   150     5
  149   148   150     5
  148   150   151     5
  148   150   154     5
  151   150   154     5
  150   151   152     5
  150   151   153     5
  150   151   159     5
  152   151   153     5
  152   151   159     5
  153   151   159     5
  150   154   155     5
  150   154   156     5
  150   154   162     5
  155   154   156     5
  155   154   162     5
  156   154   162     5
  154   156   157     5
  154   156   158     5
  154   156   159     5
  157   156   158     5
  157   156   159     5
  158   156   159     5
  151   159   156     5
  151   159   160     5
  151   159   161     5
  156   159   160     5
  156   159   161     5
  160   159   161     5
  154   162   163     5
  154   162   164     5
  163   162   164     5
  162   164   165     5
  162   164   166     5
  165   164   166     5
  164   166   167     5
  164   166   168     5
  164   166   169     5
  167   166   168     5
  167   166   169     5
  168   166   169     5
  166   169   170     5
  166   169   171     5
  170   169   171     5
  169   171   172     5
  169   171   173     5
  172   171   173     5
  171   173   174     5
  171   173   175     5
  171   173   179     5
  174   173   175     5
  174   173   179     5
  175   173   179     5
  173   175   176     5
  173   175   177     5
  173   175   178     5
  176   175   177     5
  176   175   178     5
  177   175   178     5
  173   179   180     5
  173   179   181     5
  180   179   181     5
  179   181   182     5
  179   181   185     5
  182   181   185     5
  181   182   183     5
  181   182   184     5
  181   182   190     5
  183   182   184     5
  183   182   190     5
  184   182   190     5
  181   185   186     5
  181   185   187     5
  181   185   193     5
  186   185   187     5
  186   185   193     5
  187   185   193     5
  185   187   188     5
  185   187   189     5
  185   187   190     5
  188   187   189     5
  188   187   190     5
  189   187   190     5
  182   190   187     5
  182   190   191     5
  182   190   192     5
  187   190   191     5
  187   190   192     5
  191   190   192     5
  185   193   194     5
  185   193   195     5
  194   193   195     5

[ dihedrals ]
; ai	aj	ak	al	funct	phi0	cp	mult
    2     1     5     6     9
    2     1     5     7     9
    2     1     5     8     9
    3     1     5     6     9
    3     1     5     7     9
    3     1     5     8     9
    4     1     5     6     9
    4     1     5     7     9
    4     1     5     8     9
    1     5     8     9     9
    1     5     8    10     9
    6     5     8     9     9
    6     5     8    10     9
    7     5     8     9     9
    7     5     8    10     9
    5     8    10    11     9
    5     8    10    14     9
    9     8    10    11     9
    9     8    10    14     9
    8    10    11    12     9
    8    10    11    13     9
    8    10    11    19     9
   14    10    11    19     9
    8    10    14    15     9
    8    10    14    16     9
    8    10    14    22     9
   11    10    14    15     9
   11    10    14    16     9
   11    10    14    22     9
   12    11    10    14     9
   13    11    10    14     9
   10    11    19    16     9
   10    11    19    20     9
   10    11    19    21     9
   12    11    19    16     9
   12    11    19    20     9
   12    11    19    21     9
   13    11    19    16     9
   13    11    19    20     9
   13    11    19    21     9
   10    14    16    17     9
   10    14    16    18     9
   10    14    16    19     9
   15    14    16    17     9
   15    14    16    18     9
   15    14    16    19     9
   10    14    22    23     9
   10    14    22    24     9
   15    14    22    23     9
   15    14    22    24     9
   16    14    22    23     9
   16    14    22    24     9
   17    16    14    22     9
   18    16    14    22     9
   19    16    14    22     9
   14    16    19    20     9
   14    16    19    21     9
   17    16    19    20     9
   17    16    19    21     9
   18    16    19    20     9
   18    16    19    21     9
   11    19    16    14     9
   11    19    16    17     9
   11    19    16    18     9
   14    22    24    25     9
   14    22    24    26     9
   23    22    24    25     9
   23    22    24    26     9
   22    24    26    27     9
   22    24    26    28     9
   22    24    26    29     9
   25    24    26    27     9
   25    24    26    28     9
   25    24    26    29     9
   24    26    29    30     9
   24    26    29    31     9
   27    26    29    30     9
   27    26    29    31     9
   28    26    29    30     9
   28    26    29    31     9
   26    29    31    32     9
   26    29    31    33     9
   30    29    31    32     9
   30    29    31    33     9
   29    31    33    34     9
   29    31    33    35     9
   29    31    33    39     9
   32    31    33    34     9
   32    31    33    35     9
   32    31    33    39     9
   31    33    35    36     9
   31    33    35    37     9
   31    33    35    38     9
   34    33    35    36     9
   34    33    35    37     9
   34    33    35    38     9
   31    33    39    40     9
   31    33    39    41     9
   34    33    39    40     9
   34    33    39    41     9
   35    33    39    40     9
   35    33    39    41     9
   36    35    33    39     9
   37    35    33    39     9
   38    35    33    39     9
   33    39    41    42     9
   33    39    41    45     9
   40    39    41    42     9
   40    39    41    45     9
   39    41    42    43     9
   39    41    42    44     9
   39    41    42    50     9
   45    41    42    50     9
   39    41    45    46     9
   39    41    45    47     9
   39    41    45    53     9
   42    41    45    46     9
   42    41    45    47     9
   42    41    45    53     9
   43    42    41    45     9
   44    42    41    45     9
   41    42    50    47     9
   41    42    50    51     9
   41    42    50    52     9
   43    42    50    47     9
   43    42    50    51     9
   43    42    50    52     9
   44    42    50    47     9
   44    42    50    51     9
   44    42    50    52     9
   41    45    47    48     9
   41    45    47    49     9
   41    45    47    50     9
   46    45    47    48     9
   46    45    47    49     9
   46    45    47    50     9
   41    45    53    54     9
   41    45    53    55     9
   46    45    53    54     9
   46    45    53    55     9
   47    45    53    54     9
   47    45    53    55     9
   48    47    45    53     9
   49    47    45    53     9
   50    47    45    53     9
   45    47    50    51     9
   45    47    50    52     9
   48    47    50    51     9
   48    47    50    52     9
   49    47    50    51     9
   49    47    50    52     9
   42    50    47    45     9
   42    50    47    48     9
   42    50    47    49     9
   45    53    55    56     9
   45    53    55    57     9
   54    53    55    56     9
   54    53    55    57     9
   53    55    57    58     9
   53    55    57    59     9
   53    55    57    60     9
   56    55    57    58     9
   56    55    57    59     9
   56    55    57    60     9
   55    57    60    61     9
   55    57    60    62     9
   58    57    60    61     9
   58    57    60    62     9
   59    57    60    61     9
   59    57    60    62     9
   57    60    62    63     9
   57    60    62    64     9
   61    60    62    63     9
   61    60    62    64     9
   60    62    64    65     9
   60    62    64    66     9
   60    62    64    71     9
   63    62    64    65     9
   63    62    64    66     9
   63    62    64    71     9
   62    64    66    67     9
   62    64    66    68     9
   62    64    66    69     9
   65    64    66    67     9
   65    64    66    68     9
   65    64    66    69     9
   62    64    71    72     9
   62    64    71    73     9
   65    64    71    72     9
   65    64    71    73     9
   66    64    71    72     9
   66    64    71    73     9
   67    66    64    71     9
   68    66    64    71     9
   69    66    64    71     9
   64    66    69    70     9
   67    66    69    70     9
   68    66    69    70     9
   64    71    73    74     9
   64    71    73    75     9
   72    71    73    74     9
   72    71    73    75     9
   71    73    75    76     9
   71    73    75    77     9
   71    73    75    78     9
   74    73    75    76     9
   74    73    75    77     9
   74    73    75    78     9
   73    75    78    79     9
   73    75    78    80     9
   76    75    78    79     9
   76    75    78    80     9
   77    75    78    79     9
   77    75    78    80     9
   75    78    80    81     9
   75    78    80    84     9
   79    78    80    81     9
   79    78    80    84     9
   78    80    81    82     9
   78    80    81    83     9
   78    80    81    89     9
   84    80    81    89     9
   78    80    84    85     9
   78    80    84    86     9
   78    80    84    92     9
   81    80    84    85     9
   81    80    84    86     9
   81    80    84    92     9
   82    81    80    84     9
   83    81    80    84     9
   80    81    89    86     9
   80    81    89    90     9
   80    81    89    91     9
   82    81    89    86     9
   82    81    89    90     9
   82    81    89    91     9
   83    81    89    86     9
   83    81    89    90     9
   83    81    89    91     9
   80    84    86    87     9
   80    84    86    88     9
   80    84    86    89     9
   85    84    86    87     9
   85    84    86    88     9
   85    84    86    89     9
   80    84    92    93     9
   80    84    92    94     9
   85    84    92    93     9
   85    84    92    94     9
   86    84    92    93     9
   86    84    92    94     9
   87    86    84    92     9
   88    86    84    92     9
   89    86    84    92     9
   84    86    89    90     9
   84    86    89    91     9
   87    86    89    90     9
   87    86    89    91     9
   88    86    89    90     9
   88    86    89    91     9
   81    89    86    84     9
   81    89    86    87     9
   81    89    86    88     9
   84    92    94    95     9
   84    92    94    96     9
   93    92    94    95     9
   93    92    94    96     9
   92    94    96    97     9
   92    94    96    98     9
   92    94    96    99     9
   95    94    96    97     9
   95    94    96    98     9
   95    94    96    99     9
   94    96    99   100     9
   94    96    99   101     9
   97    96    99   100     9
   97    96    99   101     9
   98    96    99   100     9
   98    96    99   101     9
   96    99   101   102     9
   96    99   101   103     9
  100    99   101   102     9
  100    99   101   103     9
   99   101   103   104     9
   99   101   103   105     9
   99   101   103   109     9
  102   101   103   104     9
  102   101   103   105     9
  102   101   103   109     9
  101   103   105   106     9
  101   103   105   107     9
  101   103   105   108     9
  104   103   105   106     9
  104   103   105   107     9
  104   103   105   108     9
  101   103   109   110     9
  101   103   109   111     9
  104   103   109   110     9
  104   103   109   111     9
  105   103   109   110     9
  105   103   109   111     9
  106   105   103   109     9
  107   105   103   109     9
  108   105   103   109     9
  103   109   111   112     9
  103   109   111   115     9
  110   109   111   112     9
  110   109   111   115     9
  109   111   112   113     9
  109   111   112   114     9
  109   111   112   120     9
  115   111   112   120     9
  109   111   115   116     9
  109   111   115   117     9
  109   111   115   123     9
  112   111   115   116     9
  112   111   115   117     9
  112   111   115   123     9
  113   112   111   115     9
  114   112   111   115     9
  111   112   120   117     9
  111   112   120   121     9
  111   112   120   122     9
  113   112   120   117     9
  113   112   120   121     9
  113   112   120   122     9
  114   112   120   117     9
  114   112   120   121     9
  114   112   120   122     9
  111   115   117   118     9
  111   115   117   119     9
  111   115   117   120     9
  116   115   117   118     9
  116   115   117   119     9
  116   115   117   120     9
  111   115   123   124     9
  111   115   123   125     9
  116   115   123   124     9
  116   115   123   125     9
  117   115   123   124     9
  117   115   123   125     9
  118   117   115   123     9
  119   117   115   123     9
  120   117   115   123     9
  115   117   120   121     9
  115   117   120   122     9
  118   117   120   121     9
  118   117   120   122     9
  119   117   120   121     9
  119   117   120   122     9
  112   120   117   115     9
  112   120   117   118     9
  112   120   117   119     9
  115   123   125   126     9
  115   123   125   127     9
  124   123   125   126     9
  124   123   125   127     9
  123   125   127   128     9
  123   125   127   129     9
  123   125   127   130     9
  126   125   127   128     9
  126   125   127   129     9
  126   125   127   130     9
  125   127   130   131     9
  125   127   130   132     9
  128   127   130   131     9
  128   127   130   132     9
  129   127   130   131     9
  129   127   130   132     9
  127   130   132   133     9
  127   130   132   134     9
  131   130   132   133     9
  131   130   132   134     9
  130   132   134   135     9
  130   132   134   136     9
  130   132   134   141     9
  133   132   134   135     9
  133   132   134   136     9
  133   132   134   141     9
  132   134   136   137     9
  132   134   136   138     9
  132   134   136   139     9
  135   134   136   137     9
  135   134   136   138     9
  135   134   136   139     9
  132   134   141   142     9
  132   134   141   143     9
  135   134   141   142     9
  135   134   141   143     9
  136   134   141   142     9
  136   134   141   143     9
  137   136   134   141     9
  138   136   134   141     9
  139   136   134   141     9
  134   136   139   140     9
  137   136   139   140     9
  138   136   139   140     9
  134   141   143   144     9
  134   141   143   145     9
  142   141   143   144     9
  142   141   143   145     9
  141   143   145   146     9
  141   143   145   147     9
  141   143   145   148     9
  144   143   145   146     9
  144   143   145   147     9
  144   143   145   148     9
  143   145   148   149     9
  143   145   148   150     9
  146   145   148   149     9
  146   145   148   150     9
  147   145   148   149     9
  147   145   148   150     9
  145   148   150   151     9
  145   148   150   154     9
  149   148   150   151     9
  149   148   150   154     9
  148   150   151   152     9
  148   150   151   153     9
  148   150   151   159     9
  154   150   151   159     9
  148   150   154   155     9
  148   150   154   156     9
  148   150   154   162     9
  151   150   154   155     9
  151   150   154   156     9
  151   150   154   162     9
  152   151   150   154     9
  153   151   150   154     9
  150   151   159   156     9
  150   151   159   160     9
  150   151   159   161     9
  152   151   159   156     9
  152   151   159   160     9
  152   151   159   161     9
  153   151   159   156     9
  153   151   159   160     9
  153   151   159   161     9
  150   154   156   157     9
  150   154   156   158     9
  150   154   156   159     9
  155   154   156   157     9
  155   154   156   158     9
  155   154   156   159     9
  150   154   162   163     9
  150   154   162   164     9
  155   154   162   163     9
  155   154   162   164     9
  156   154   162   163     9
  156   154   162   164     9
  157   156   154   162     9
  158   156   154   162     9
  159   156   154   162     9
  154   156   159   160     9
  154   156   159   161     9
  157   156   159   160     9
  157   156   159   161     9
  158   156   159   160     9
  158   156   159   161     9
  151   159   156   154     9
  151   159   156   157     9
  151   159   156   158     9
  154   162   164   165     9
  154   162   164   166     9
  163   162   164   165     9
  163   162   164   166     9
  162   164   166   167     9
  162   164   166   168     9
  162   164   166   169     9
  165   164   166   167     9
  165   164   166   168     9
  165   164   166   169     9
  164   166   169   170     9
  164   166   169   171     9
  167   166   169   170     9
  167   166   169   171     9
  168   166   169   170     9
  168   166   169   171     9
  166   169   171   172     9
  166   169   171   173     9
  170   169   171   172     9
  170   169   171   173     9
  169   171   173   174     9
  169   171   173   175     9
  169   171   173   179     9
  172   171   173   174     9
  172   171   173   175     9
  172   171   173   179     9
  171   173   175   176     9
  171   173   175   177     9
  171   173   175   178     9
  174   173   175   176     9
  174   173   175   177     9
  174   173   175   178     9
  171   173   179   180     9
  171   173   179   181     9
  174   173   179   180     9
  174   173   179   181     9
  175   173   179   180     9
  175   173   179   181     9
  176   175   173   179     9
  177   175   173   179     9
  178   175   173   179     9
  173   179   181   182     9
  173   179   181   185     9
  180   179   181   182     9
  180   179   181   185     9
  179   181   182   183     9
  179   181   182   184     9
  179   181   182   190     9
  185   181   182   190     9
  179   181   185   186     9
  179   181   185   187     9
  179   181   185   193     9
  182   181   185   186     9
  182   181   185   187     9
  182   181   185   193     9
  183   182   181   185     9
  184   182   181   185     9
  181   182   190   187     9
  181   182   190   191     9
  181   182   190   192     9
  183   182   190   187     9
  183   182   190   191     9
  183   182   190   192     9
  184   182   190   187     9
  184   182   190   191     9
  184   182   190   192     9
  181   185   187   188     9
  181   185   187   189     9
  181   185   187   190     9
  186   185   187   188     9
  186   185   187   189     9
  186   185   187   190     9
  181   185   193   194     9
  181   185   193   195     9
  186   185   193   194     9
  186   185   193   195     9
  187   185   193   194     9
  187   185   193   195     9
  188   187   185   193     9
  189   187   185   193     9
  190   187   185   193     9
  185   187   190   191     9
  185   187   190   192     9
  188   187   190   191     9
  188   187   190   192     9
  189   187   190   191     9
  189   187   190   192     9
  182   190   187   185     9
  182   190   187   188     9
  182   190   187   189     9

[ dihedrals ]
; ai	aj	ak	al	funct	q0	cq
    8     5    10     9     2
   10     8    14    11     2
   22    14    24    23     2
   24    22    26    25     2
   29    26    31    30     2
   31    29    33    32     2
   39    33    41    40     2
   41    39    45    42     2
   53    45    55    54     2
   55    53    57    56     2
   60    57    62    61     2
   62    60    64    63     2
   71    64    73    72     2
   73    71    75    74     2
   78    75    80    79     2
   80    78    84    81     2
   92    84    94    93     2
   94    92    96    95     2
   99    96   101   100     2
  101    99   103   102     2
  109   103   111   110     2
  111   109   115   112     2
  123   115   125   124     2
  125   123   127   126     2
  130   127   132   131     2
  132   130   134   133     2
  141   134   143   142     2
  143   141   145   144     2
  148   145   150   149     2
  150   148   154   151     2
  162   154   164   163     2
  164   162   166   165     2
  169   166   171   170     2
  171   169   173   172     2
  179   173   181   180     2
  181   179   185   182     2
  193   185   195   194     2

[ cmap ] 
; ai	aj	ak	al	am	funct
    8    10    14    22    24     1
   22    24    26    29    31     1
   29    31    33    39    41     1
   39    41    45    53    55     1
   53    55    57    60    62     1
   60    62    64    71    73     1
   71    73    75    78    80     1
   78    80    84    92    94     1
   92    94    96    99   101     1
   99   101   103   109   111     1
  109   111   115   123   125     1
  123   125   127   130   132     1
  130   132   134   141   143     1
  141   143   145   148   150     1
  148   150   154   162   164     1
  162   164   166   169   171     1
  169   171   173   179   181     1

#ifdef POSRES
[ position_restraints ]
    1     1    POSRES_FC_BB    POSRES_FC_BB    POSRES_FC_BB   
    5     1    POSRES_FC_BB    POSRES_FC_BB    POSRES_FC_BB   
    8     1    POSRES_FC_BB    POSRES_FC_BB    POSRES_FC_BB   
    9     1    POSRES_FC_BB    POSRES_FC_BB    POSRES_FC_BB   
   10     1    POSRES_FC_BB    POSRES_FC_BB    POSRES_FC_BB   
   11     1    POSRES_FC_SC    POSRES_FC_SC    POSRES_FC_SC   
   14     1    POSRES_FC_BB    POSRES_FC_BB    POSRES_FC_BB   
   16     1    POSRES_FC_SC    POSRES_FC_SC    POSRES_FC_SC   
   19     1    POSRES_FC_SC    POSRES_FC_SC    POSRES_FC_SC   
   22     1    POSRES_FC_BB    POSRES_FC_BB    POSRES_FC_BB   
   23     1    POSRES_FC_BB    POSRES_FC_BB    POSRES_FC_BB   
   24     1    POSRES_FC_BB    POSRES_FC_BB    POSRES_FC_BB   
   26     1    POSRES_FC_BB    POSRES_FC_BB    POSRES_FC_BB   
   29     1    POSRES_FC_BB    POSRES_FC_BB    POSRES_FC_BB   
   30     1    POSRES_FC_BB    POSRES_FC_BB    POSRES_FC_BB   
   31     1    POSRES_FC_BB    POSRES_FC_BB    POSRES_FC_BB   
   33     1    POSRES_FC_BB    POSRES_FC_BB    POSRES_FC_BB   
   35     1    POSRES_FC_SC    POSRES_FC_SC    POSRES_FC_SC   
   39     1    POSRES_FC_BB    POSRES_FC_BB    POSRES_FC_BB   
   40     1    POSRES_FC_BB    POSRES_FC_BB    POSRES_FC_BB   
   41     1    POSRES_FC_BB    POSRES_FC_BB    POSRES_FC_BB   
   42     1    POSRES_FC_SC    POSRES_FC_SC    POSRES_FC_SC   
   45     1    POSRES_FC_BB    POSRES_FC_BB    POSRES_FC_BB   
   47     1    POSRES_FC_SC    POSRES_FC_SC    POSRES_FC_SC   
   50     1    POSRES_FC_SC    POSRES_FC_SC    POSRES_FC_SC   
   53     1    POSRES_FC_BB    POSRES_FC_BB    POSRES_FC_BB   
   54     1    POSRES_FC_BB    POSRES_FC_BB    POSRES_FC_BB   
   55     1    POSRES_FC_BB    POSRES_FC_BB    POSRES_FC_BB   
   57     1    POSRES_FC_BB    POSRES_FC_BB    POSRES_FC_BB   
   60     1    POSRES_FC_BB    POSRES_FC_BB    POSRES_FC_BB   
   61     1    POSRES_FC_BB    POSRES_FC_BB    POSRES_FC_BB   
   62     1    POSRES_FC_BB    POSRES_FC_BB    POSRES_FC_BB   
   64     1    POSRES_FC_BB    POSRES_FC_BB    POSRES_FC_BB   
   66     1    POSRES_FC_SC    POSRES_FC_SC    POSRES_FC_SC   
   69     1    POSRES_FC_SC    POSRES_FC_SC    POSRES_FC_SC   
   71     1    POSRES_FC_BB    POSRES_FC_BB    POSRES_FC_BB   
   72     1    POSRES_FC_BB    POSRES_FC_BB    POSRES_FC_BB   
   73     1    POSRES_FC_BB    POSRES_FC_BB    POSRES_FC_BB   
   75     1    POSRES_FC_BB    POSRES_FC_BB    POSRES_FC_BB   
   78     1    POSRES_FC_BB    POSRES_FC_BB    POSRES_FC_BB   
   79     1    POSRES_FC_BB    POSRES_FC_BB    POSRES_FC_BB   
   80     1    POSRES_FC_BB    POSRES_FC_BB    POSRES_FC_BB   
   81     1    POSRES_FC_SC    POSRES_FC_SC    POSRES_FC_SC   
   84     1    POSRES_FC_BB    POSRES_FC_BB    POSRES_FC_BB   
   86     1    POSRES_FC_SC    POSRES_FC_SC    POSRES_FC_SC   
   89     1    POSRES_FC_SC    POSRES_FC_SC    POSRES_FC_SC   
   92     1    POSRES_FC_BB    POSRES_FC_BB    POSRES_FC_BB   
   93     1    POSRES_FC_BB    POSRES_FC_BB    POSRES_FC_BB   
   94     1    POSRES_FC_BB    POSRES_FC_BB    POSRES_FC_BB   
   96     1    POSRES_FC_BB    POSRES_FC_BB    POSRES_FC_BB   
   99     1    POSRES_FC_BB    POSRES_FC_BB    POSRES_FC_BB   
  100     1    POSRES_FC_BB    POSRES_FC_BB    POSRES_FC_BB   
  101     1    POSRES_FC_BB    POSRES_FC_BB    POSRES_FC_BB   
  103     1    POSRES_FC_BB    POSRES_FC_BB    POSRES_FC_BB   
  105     1    POSRES_FC_SC    POSRES_FC_SC    POSRES_FC_SC   
  109     1    POSRES_FC_BB    POSRES_FC_BB    POSRES_FC_BB   
  110     1    POSRES_FC_BB    POSRES_FC_BB    POSRES_FC_BB   
  111     1    POSRES_FC_BB    POSRES_FC_BB    POSRES_FC_BB   
  112     1    POSRES_FC_SC    POSRES_FC_SC    POSRES_FC_SC   
  115     1    POSRES_FC_BB    POSRES_FC_BB    POSRES_FC_BB   
  117     1    POSRES_FC_SC    POSRES_FC_SC    POSRES_FC_SC   
  120     1    POSRES_FC_SC    POSRES_FC_SC    POSRES_FC_SC   
  123     1    POSRES_FC_BB    POSRES_FC_BB    POSRES_FC_BB   
  124     1    POSRES_FC_BB    POSRES_FC_BB    POSRES_FC_BB   
  125     1    POSRES_FC_BB    POSRES_FC_BB    POSRES_FC_BB   
  127     1    POSRES_FC_BB    POSRES_FC_BB    POSRES_FC_BB   
  130     1    POSRES_FC_BB    POSRES_FC_BB    POSRES_FC_BB   
  131     1    POSRES_FC_BB    POSRES_FC_BB    POSRES_FC_BB   
  132     1    POSRES_FC_BB    POSRES_FC_BB    POSRES_FC_BB   
  134     1    POSRES_FC_BB    POSRES_FC_BB    POSRES_FC_BB   
  136     1    POSRES_FC_SC    POSRES_FC_SC    POSRES_FC_SC   
  139     1    POSRES_FC_SC    POSRES_FC_SC    POSRES_FC_SC   
  141     1    POSRES_FC_BB    POSRES_FC_BB    POSRES_FC_BB   
  142     1    POSRES_FC_BB    POSRES_FC_BB    POSRES_FC_BB   
  143     1    POSRES_FC_BB    POSRES_FC_BB    POSRES_FC_BB   
  145     1    POSRES_FC_BB    POSRES_FC_BB    POSRES_FC_BB   
  148     1    POSRES_FC_BB    POSRES_FC_BB    POSRES_FC_BB   
  149     1    POSRES_FC_BB    POSRES_FC_BB    POSRES_FC_BB   
  150     1    POSRES_FC_BB    POSRES_FC_BB    POSRES_FC_BB   
  151     1    POSRES_FC_SC    POSRES_FC_SC    POSRES_FC_SC   
  154     1    POSRES_FC_BB    POSRES_FC_BB    POSRES_FC_BB   
  156     1    POSRES_FC_SC    POSRES_FC_SC    POSRES_FC_SC   
  159     1    POSRES_FC_SC    POSRES_FC_SC    POSRES_FC_SC   
  162     1    POSRES_FC_BB    POSRES_FC_BB    POSRES_FC_BB   
  163     1    POSRES_FC_BB    POSRES_FC_BB    POSRES_FC_BB   
  164     1    POSRES_FC_BB    POSRES_FC_BB    POSRES_FC_BB   
  166     1    POSRES_FC_BB    POSRES_FC_BB    POSRES_FC_BB   
  169     1    POSRES_FC_BB    POSRES_FC_BB    POSRES_FC_BB   
  170     1    POSRES_FC_BB    POSRES_FC_BB    POSRES_FC_BB   
  171     1    POSRES_FC_BB    POSRES_FC_BB    POSRES_FC_BB   
  173     1    POSRES_FC_BB    POSRES_FC_BB    POSRES_FC_BB   
  175     1    POSRES_FC_SC    POSRES_FC_SC    POSRES_FC_SC   
  179     1    POSRES_FC_BB    POSRES_FC_BB    POSRES_FC_BB   
  180     1    POSRES_FC_BB    POSRES_FC_BB    POSRES_FC_BB   
  181     1    POSRES_FC_BB    POSRES_FC_BB    POSRES_FC_BB   
  182     1    POSRES_FC_SC    POSRES_FC_SC    POSRES_FC_SC   
  185     1    POSRES_FC_BB    POSRES_FC_BB    POSRES_FC_BB   
  187     1    POSRES_FC_SC    POSRES_FC_SC    POSRES_FC_SC   
  190     1    POSRES_FC_SC    POSRES_FC_SC    POSRES_FC_SC   
  193     1    POSRES_FC_BB    POSRES_FC_BB    POSRES_FC_BB   
  194     1    POSRES_FC_SC    POSRES_FC_SC    POSRES_FC_SC   
  195     1    POSRES_FC_SC    POSRES_FC_SC    POSRES_FC_SC   
#endif
