Title t= 227.00000 step= 113500
29212
    1ASP      N    1   2.344   1.623   2.621
    1ASP    HT1    2   2.444   1.636   2.644
    1ASP    HT2    3   2.304   1.678   2.699
    1ASP    HT3    4   2.329   1.664   2.526
    1ASP     CA    5   2.320   1.478   2.641
    1ASP     HA    6   2.368   1.412   2.570
    1ASP     CB    7   2.371   1.432   2.782
    1ASP    HB1    8   2.342   1.325   2.789
    1ASP    HB2    9   2.322   1.497   2.857
    1ASP     CG   10   2.520   1.455   2.786
    1ASP    OD1   11   2.571   1.517   2.692
    1ASP    OD2   12   2.587   1.423   2.894
    1ASP      C   13   2.167   1.451   2.623
    1ASP      O   14   2.100   1.548   2.617
    2GLY      N   15   2.123   1.322   2.628
    2GLY     HN   16   2.181   1.241   2.627
    2GLY     CA   17   1.982   1.285   2.605
    2GLY    HA1   18   1.922   1.333   2.681
    2GLY    HA2   19   1.961   1.179   2.616
    2GLY      C   20   1.936   1.324   2.463
    2GLY      O   21   2.021   1.381   2.386
    3ASP      N   22   1.807   1.292   2.426
    3ASP     HN   23   1.748   1.232   2.479
    3ASP     CA   24   1.734   1.328   2.309
    3ASP     HA   25   1.793   1.274   2.237
    3ASP     CB   26   1.595   1.281   2.307
    3ASP    HB1   27   1.542   1.295   2.211
    3ASP    HB2   28   1.545   1.330   2.393
    3ASP     CG   29   1.590   1.129   2.326
    3ASP    OD1   30   1.483   1.085   2.384
    3ASP    OD2   31   1.677   1.052   2.276
    3ASP      C   32   1.738   1.476   2.277
    3ASP      O   33   1.743   1.556   2.368
    4GLY      N   34   1.738   1.513   2.151
    4GLY     HN   35   1.749   1.450   2.074
    4GLY     CA   36   1.743   1.650   2.097
    4GLY    HA1   37   1.729   1.642   1.990
    4GLY    HA2   38   1.840   1.686   2.126
    4GLY      C   39   1.628   1.739   2.139
    4GLY      O   40   1.542   1.695   2.212
    5PRO      N   41   1.634   1.875   2.106
    5PRO     CD   42   1.748   1.939   2.044
    5PRO    HD1   43   1.753   1.906   1.937
    5PRO    HD2   44   1.842   1.901   2.090
    5PRO     CA   45   1.538   1.976   2.162
    5PRO     HA   46   1.561   1.997   2.265
    5PRO     CB   47   1.577   2.102   2.086
    5PRO    HB1   48   1.564   2.194   2.147
    5PRO    HB2   49   1.508   2.112   1.999
    5PRO     CG   50   1.725   2.086   2.044
    5PRO    HG1   51   1.752   2.136   1.948
    5PRO    HG2   52   1.795   2.135   2.116
    5PRO      C   53   1.391   1.940   2.168
    5PRO      O   54   1.335   1.874   2.082
    6GLY      N   55   1.323   1.985   2.275
    6GLY     HN   56   1.378   2.033   2.342
    6GLY     CA   57   1.183   1.968   2.309
    6GLY    HA1   58   1.166   1.874   2.359
    6GLY    HA2   59   1.123   1.968   2.219
    6GLY      C   60   1.117   2.067   2.399
    6GLY      O   61   1.174   2.173   2.432
    7ASP      N   62   0.993   2.034   2.449
    7ASP     HN   63   0.937   1.965   2.404
    7ASP     CA   64   0.928   2.115   2.550
    7ASP     HA   65   0.926   2.217   2.514
    7ASP     CB   66   0.780   2.076   2.548
    7ASP    HB1   67   0.734   2.112   2.642
    7ASP    HB2   68   0.774   1.965   2.548
    7ASP     CG   69   0.698   2.138   2.439
    7ASP    OD1   70   0.574   2.114   2.443
    7ASP    OD2   71   0.754   2.206   2.351
    7ASP      C   72   0.996   2.104   2.688
    7ASP      O   73   1.060   2.005   2.717
    8PRO      N   74   1.004   2.200   2.781
    8PRO     CD   75   0.961   2.338   2.745
    8PRO    HD1   76   0.850   2.345   2.749
    8PRO    HD2   77   0.990   2.368   2.642
    8PRO     CA   78   1.044   2.197   2.924
    8PRO     HA   79   1.150   2.178   2.922
    8PRO     CB   80   1.010   2.343   2.982
    8PRO    HB1   81   1.080   2.372   3.063
    8PRO    HB2   82   0.909   2.345   3.030
    8PRO     CG   83   1.016   2.434   2.856
    8PRO    HG1   84   0.960   2.528   2.874
    8PRO    HG2   85   1.114   2.467   2.815
    8PRO      C   86   0.991   2.094   3.016
    8PRO      O   87   0.873   2.069   3.009
    9GLY      N   88   1.079   2.054   3.115
    9GLY     HN   89   1.176   2.078   3.106
    9GLY     CA   90   1.045   1.973   3.227
    9GLY    HA1   91   1.141   1.959   3.276
    9GLY    HA2   92   0.993   1.885   3.193
    9GLY      C   93   0.965   2.048   3.325
    9GLY      O   94   0.907   2.158   3.307
   10ASP      N   95   0.951   1.983   3.439
   10ASP     HN   96   1.001   1.896   3.444
   10ASP     CA   97   0.865   2.023   3.549
   10ASP     HA   98   0.773   2.057   3.504
   10ASP     CB   99   0.832   1.906   3.644
   10ASP    HB1  100   0.787   1.927   3.743
   10ASP    HB2  101   0.934   1.865   3.663
   10ASP     CG  102   0.754   1.796   3.580
   10ASP    OD1  103   0.682   1.816   3.481
   10ASP    OD2  104   0.779   1.678   3.619
   10ASP      C  105   0.917   2.137   3.638
   10ASP      O  106   1.029   2.142   3.688
   11GLY      N  107   0.829   2.234   3.666
   11GLY     HN  108   0.734   2.212   3.644
   11GLY     CA  109   0.862   2.343   3.761
   11GLY    HA1  110   0.958   2.325   3.808
   11GLY    HA2  111   0.782   2.349   3.834
   11GLY      C  112   0.885   2.477   3.696
   11GLY    OT1  113   0.887   2.486   3.571
   11GLY    OT2  114   0.901   2.577   3.774
   12LIT    LIT  115   0.259   1.039   1.319
   13LIT    LIT  116   4.757   6.595   1.072
   14LIT    LIT  117   4.619   1.949   4.940
   15LIT    LIT  118   0.364   5.799   2.863
   16LIT    LIT  119   0.966   2.672   3.611
   17LIT    LIT  120   4.462   6.132   2.555
   18LIT    LIT  121   2.805   3.177   4.091
   19LIT    LIT  122   1.034   3.915   0.527
   20LIT    LIT  123   0.648   1.444   5.389
   21LIT    LIT  124   7.012   5.998   3.930
   22LIT    LIT  125   5.021   1.871   4.284
   23LIT    LIT  126   3.998   6.670   1.595
   24LIT    LIT  127   5.968   4.567   5.437
   25LIT    LIT  128   7.212   1.911   2.135
   26LIT    LIT  129   0.702   1.629   3.440
   27LIT    LIT  130   2.502   1.062   2.894
   28LIT    LIT  131   1.929   5.119   5.759
   29LIT    LIT  132   5.710   2.925   3.296
   30LIT    LIT  133   6.887   1.159   1.713
   31LIT    LIT  134   4.843   1.472   2.161
   32LIT    LIT  135   5.523   2.657   0.482
   33LIT    LIT  136   3.804   4.408   2.811
   34LIT    LIT  137   6.006   1.106   4.385
   35LIT    LIT  138   1.138   1.522   2.214
   36LIT    LIT  139   6.165   6.251   3.075
   37LIT    LIT  140   3.358   6.097   5.750
   38LIT    LIT  141  -0.005   0.147   0.691
   39LIT    LIT  142   2.752   1.514   2.757
   40LIT    LIT  143   1.621   4.521   1.965
   41LIT    LIT  144   1.588   2.000   4.715
   42LIT    LIT  145   1.563   0.903   2.332
   43CLA    CLA  146   1.826   4.624   1.941
   44CLA    CLA  147   2.709   0.675   3.939
   45CLA    CLA  148   2.387   3.489   3.766
   46CLA    CLA  149   5.655   3.414   0.133
   47CLA    CLA  150   0.756   1.843   2.058
   48CLA    CLA  151   3.615   6.692   1.828
   49CLA    CLA  152   2.143   4.472   3.523
   50CLA    CLA  153   0.427   3.370   2.514
   51CLA    CLA  154   6.404   1.242   2.231
   52CLA    CLA  155   3.909   4.559   3.229
   53CLA    CLA  156   2.545   2.135   3.933
   54CLA    CLA  157   3.461   1.649   0.954
   55CLA    CLA  158   5.801   1.499   4.633
   56CLA    CLA  159   6.420   1.413   4.207
   57CLA    CLA  160   4.639   2.469   4.926
   58CLA    CLA  161   3.713   4.564   2.664
   59CLA    CLA  162   4.564   0.766   2.730
   60CLA    CLA  163   2.605  -0.022   3.260
   61CLA    CLA  164   1.284   0.269   1.534
   62CLA    CLA  165   1.651   0.496   2.419
   63CLA    CLA  166   1.955   4.751   4.899
   64CLA    CLA  167   3.249   3.662   0.213
   65CLA    CLA  168   6.185   4.236   4.427
   66CLA    CLA  169   1.479   4.960   2.835
   67CLA    CLA  170   6.221   1.211   0.879
   68CLA    CLA  171   4.227   4.730   5.374
   69CLA    CLA  172   3.041   4.735   3.564
   70TIP3   OH2  173   1.563   0.980   5.550
   70TIP3    H1  174   1.627   1.004   5.617
   70TIP3    H2  175   1.598   0.899   5.512
   71TIP3   OH2  176   3.723   2.054   2.794
   71TIP3    H1  177   3.702   1.976   2.844
   71TIP3    H2  178   3.815   2.043   2.769
   72TIP3   OH2  179   1.226   5.053   3.249
   72TIP3    H1  180   1.188   4.983   3.196
   72TIP3    H2  181   1.315   5.062   3.216
   73TIP3   OH2  182   5.382   4.095   5.120
   73TIP3    H1  183   5.398   4.170   5.177
   73TIP3    H2  184   5.287   4.098   5.103
   74TIP3   OH2  185   2.300   5.071   5.728
   74TIP3    H1  186   2.287   4.992   5.781
   74TIP3    H2  187   2.338   5.039   5.646
   75TIP3   OH2  188   4.818   3.804   1.225
   75TIP3    H1  189   4.792   3.743   1.294
   75TIP3    H2  190   4.810   3.754   1.144
   76TIP3   OH2  191   2.306   6.028   5.133
   76TIP3    H1  192   2.216   6.058   5.141
   76TIP3    H2  193   2.309   5.985   5.047
   77TIP3   OH2  194   4.477   2.094   1.023
   77TIP3    H1  195   4.493   2.016   1.076
   77TIP3    H2  196   4.383   2.109   1.031
   78TIP3   OH2  197   2.532   4.325   3.081
   78TIP3    H1  198   2.577   4.406   3.057
   78TIP3    H2  199   2.439   4.347   3.072
   79TIP3   OH2  200   0.149   5.678   5.427
   79TIP3    H1  201   0.232   5.725   5.418
   79TIP3    H2  202   0.099   5.702   5.349
   80TIP3   OH2  203   5.772   2.657   0.998
   80TIP3    H1  204   5.776   2.562   1.010
   80TIP3    H2  205   5.829   2.673   0.922
   81TIP3   OH2  206   6.787   4.458   2.292
   81TIP3    H1  207   6.807   4.400   2.366
   81TIP3    H2  208   6.752   4.400   2.225
   82TIP3   OH2  209   2.853   5.685   5.608
   82TIP3    H1  210   2.854   5.695   5.513
   82TIP3    H2  211   2.861   5.775   5.641
   83TIP3   OH2  212   2.909   5.256   4.953
   83TIP3    H1  213   2.990   5.225   4.992
   83TIP3    H2  214   2.886   5.190   4.888
   84TIP3   OH2  215   3.958   1.955   3.745
   84TIP3    H1  216   4.015   1.878   3.741
   84TIP3    H2  217   3.895   1.936   3.815
   85TIP3   OH2  218   7.122   1.761   3.114
   85TIP3    H1  219   7.176   1.828   3.158
   85TIP3    H2  220   7.145   1.679   3.158
   86TIP3   OH2  221   1.761   0.227   0.212
   86TIP3    H1  222   1.769   0.169   0.288
   86TIP3    H2  223   1.690   0.190   0.160
   87TIP3   OH2  224   4.844   5.812   1.557
   87TIP3    H1  225   4.929   5.841   1.591
   87TIP3    H2  226   4.835   5.858   1.473
   88TIP3   OH2  227   1.907   4.769   4.276
   88TIP3    H1  228   1.851   4.692   4.275
   88TIP3    H2  229   1.959   4.762   4.196
   89TIP3   OH2  230   6.689   6.495   1.462
   89TIP3    H1  231   6.706   6.404   1.439
   89TIP3    H2  232   6.729   6.506   1.548
   90TIP3   OH2  233   4.400   3.091   1.936
   90TIP3    H1  234   4.449   3.161   1.892
   90TIP3    H2  235   4.366   3.037   1.865
   91TIP3   OH2  236   3.676   3.421   5.456
   91TIP3    H1  237   3.640   3.344   5.499
   91TIP3    H2  238   3.749   3.388   5.404
   92TIP3   OH2  239   1.656   6.472   0.910
   92TIP3    H1  240   1.640   6.440   0.998
   92TIP3    H2  241   1.585   6.437   0.857
   93TIP3   OH2  242   2.353   1.024   3.962
   93TIP3    H1  243   2.374   1.088   4.030
   93TIP3    H2  244   2.336   0.943   4.009
   94TIP3   OH2  245   2.500   5.147   0.993
   94TIP3    H1  246   2.473   5.122   1.081
   94TIP3    H2  247   2.448   5.225   0.973
   95TIP3   OH2  248   1.757   3.436   5.178
   95TIP3    H1  249   1.724   3.443   5.268
   95TIP3    H2  250   1.825   3.503   5.172
   96TIP3   OH2  251   0.285   5.493   3.124
   96TIP3    H1  252   0.210   5.553   3.124
   96TIP3    H2  253   0.321   5.500   3.212
   97TIP3   OH2  254   1.298   4.396   3.643
   97TIP3    H1  255   1.387   4.383   3.677
   97TIP3    H2  256   1.303   4.481   3.598
   98TIP3   OH2  257   0.206   3.674   0.973
   98TIP3    H1  258   0.183   3.718   0.891
   98TIP3    H2  259   0.190   3.740   1.041
   99TIP3   OH2  260   2.911   3.994   3.302
   99TIP3    H1  261   2.848   4.065   3.289
   99TIP3    H2  262   2.861   3.926   3.348
  100TIP3   OH2  263   3.343   5.491   5.073
  100TIP3    H1  264   3.260   5.532   5.096
  100TIP3    H2  265   3.317   5.411   5.026
  101TIP3   OH2  266   6.149   3.499   3.244
  101TIP3    H1  267   6.230   3.515   3.194
  101TIP3    H2  268   6.086   3.468   3.178
  102TIP3   OH2  269   6.236   2.689   0.834
  102TIP3    H1  270   6.193   2.774   0.845
  102TIP3    H2  271   6.316   2.710   0.786
  103TIP3   OH2  272   0.151   0.636   0.618
  103TIP3    H1  273   0.077   0.687   0.584
  103TIP3    H2  274   0.214   0.701   0.647
  104TIP3   OH2  275   6.475   2.468   4.947
  104TIP3    H1  276   6.385   2.494   4.967
  104TIP3    H2  277   6.496   2.403   5.014
  105TIP3   OH2  278   5.623   0.858   2.170
  105TIP3    H1  279   5.605   0.927   2.234
  105TIP3    H2  280   5.583   0.779   2.208
  106TIP3   OH2  281   4.858   6.664   4.712
  106TIP3    H1  282   4.888   6.748   4.745
  106TIP3    H2  283   4.922   6.640   4.645
  107TIP3   OH2  284   0.524   6.692   5.484
  107TIP3    H1  285   0.539   6.729   5.571
  107TIP3    H2  286   0.522   6.768   5.426
  108TIP3   OH2  287   2.852   6.136   1.551
  108TIP3    H1  288   2.830   6.063   1.609
  108TIP3    H2  289   2.805   6.211   1.587
  109TIP3   OH2  290   0.227   4.079   4.641
  109TIP3    H1  291   0.309   4.029   4.649
  109TIP3    H2  292   0.236   4.127   4.559
  110TIP3   OH2  293   6.387   6.338   3.742
  110TIP3    H1  294   6.418   6.299   3.824
  110TIP3    H2  295   6.440   6.296   3.674
  111TIP3   OH2  296   7.212   2.726   0.747
  111TIP3    H1  297   7.160   2.764   0.676
  111TIP3    H2  298   7.147   2.694   0.810
  112TIP3   OH2  299   3.355   6.432   0.819
  112TIP3    H1  300   3.380   6.396   0.733
  112TIP3    H2  301   3.305   6.362   0.860
  113TIP3   OH2  302   0.694   5.780   2.185
  113TIP3    H1  303   0.688   5.735   2.269
  113TIP3    H2  304   0.729   5.866   2.206
  114TIP3   OH2  305   1.545   2.986   5.499
  114TIP3    H1  306   1.534   3.038   5.579
  114TIP3    H2  307   1.555   3.051   5.430
  115TIP3   OH2  308   1.564   6.123   3.200
  115TIP3    H1  309   1.620   6.082   3.266
  115TIP3    H2  310   1.607   6.102   3.117
  116TIP3   OH2  311   6.085   6.746   5.288
  116TIP3    H1  312   6.165   6.773   5.332
  116TIP3    H2  313   6.031   6.825   5.285
  117TIP3   OH2  314   4.313   6.447   1.748
  117TIP3    H1  315   4.393   6.478   1.705
  117TIP3    H2  316   4.329   6.356   1.768
  118TIP3   OH2  317   6.504   1.995   0.208
  118TIP3    H1  318   6.473   1.914   0.167
  118TIP3    H2  319   6.447   2.006   0.284
  119TIP3   OH2  320   2.354   2.131   3.154
  119TIP3    H1  321   2.269   2.140   3.197
  119TIP3    H2  322   2.404   2.207   3.182
  120TIP3   OH2  323   2.548   4.555   2.257
  120TIP3    H1  324   2.474   4.497   2.238
  120TIP3    H2  325   2.557   4.608   2.178
  121TIP3   OH2  326   5.184   0.071   0.336
  121TIP3    H1  327   5.236   0.123   0.397
  121TIP3    H2  328   5.118   0.029   0.390
  122TIP3   OH2  329   4.641   4.366   2.497
  122TIP3    H1  330   4.602   4.428   2.559
  122TIP3    H2  331   4.698   4.419   2.442
  123TIP3   OH2  332   4.327   0.378   5.562
  123TIP3    H1  333   4.347   0.401   5.652
  123TIP3    H2  334   4.318   0.283   5.562
  124TIP3   OH2  335   1.532   3.765   5.656
  124TIP3    H1  336   1.473   3.826   5.702
  124TIP3    H2  337   1.483   3.683   5.653
  125TIP3   OH2  338   4.670   1.339   4.555
  125TIP3    H1  339   4.708   1.268   4.503
  125TIP3    H2  340   4.600   1.297   4.605
  126TIP3   OH2  341   0.435   4.701   1.713
  126TIP3    H1  342   0.429   4.751   1.632
  126TIP3    H2  343   0.444   4.767   1.782
  127TIP3   OH2  344   0.436   2.522   4.014
  127TIP3    H1  345   0.506   2.577   4.049
  127TIP3    H2  346   0.406   2.470   4.088
  128TIP3   OH2  347   1.324   1.781   5.778
  128TIP3    H1  348   1.371   1.722   5.837
  128TIP3    H2  349   1.234   1.781   5.809
  129TIP3   OH2  350   1.762   0.773   1.113
  129TIP3    H1  351   1.791   0.852   1.159
  129TIP3    H2  352   1.823   0.705   1.143
  130TIP3   OH2  353   0.360   0.384   2.074
  130TIP3    H1  354   0.312   0.304   2.052
  130TIP3    H2  355   0.376   0.376   2.169
  131TIP3   OH2  356   0.686   1.391   5.197
  131TIP3    H1  357   0.639   1.419   5.119
  131TIP3    H2  358   0.778   1.408   5.178
  132TIP3   OH2  359   5.493   1.785   2.964
  132TIP3    H1  360   5.566   1.846   2.973
  132TIP3    H2  361   5.417   1.841   2.944
  133TIP3   OH2  362   1.624   2.845   2.740
  133TIP3    H1  363   1.701   2.901   2.741
  133TIP3    H2  364   1.560   2.891   2.686
  134TIP3   OH2  365   4.158   4.035   5.915
  134TIP3    H1  366   4.143   4.059   5.824
  134TIP3    H2  367   4.096   4.088   5.965
  135TIP3   OH2  368   0.725   5.551   5.067
  135TIP3    H1  369   0.791   5.542   5.136
  135TIP3    H2  370   0.663   5.615   5.101
  136TIP3   OH2  371   3.365   4.234   3.260
  136TIP3    H1  372   3.446   4.275   3.291
  136TIP3    H2  373   3.370   4.241   3.164
  137TIP3   OH2  374   5.680   0.140   4.262
  137TIP3    H1  375   5.688   0.113   4.170
  137TIP3    H2  376   5.658   0.233   4.257
  138TIP3   OH2  377   5.318   1.230   1.983
  138TIP3    H1  378   5.408   1.220   1.951
  138TIP3    H2  379   5.307   1.159   2.046
  139TIP3   OH2  380   6.666   1.814   5.213
  139TIP3    H1  381   6.609   1.756   5.263
  139TIP3    H2  382   6.738   1.834   5.273
  140TIP3   OH2  383   2.994   4.246   2.876
  140TIP3    H1  384   2.917   4.243   2.818
  140TIP3    H2  385   2.968   4.306   2.946
  141TIP3   OH2  386   5.603   2.489   0.121
  141TIP3    H1  387   5.513   2.479   0.152
  141TIP3    H2  388   5.636   2.400   0.113
  142TIP3   OH2  389   0.045   5.963   3.533
  142TIP3    H1  390   0.116   6.027   3.527
  142TIP3    H2  391  -0.013   5.984   3.460
  143TIP3   OH2  392   0.623   5.003   2.429
  143TIP3    H1  393   0.588   5.055   2.501
  143TIP3    H2  394   0.718   5.005   2.441
  144TIP3   OH2  395   1.249   3.746   3.711
  144TIP3    H1  396   1.255   3.758   3.616
  144TIP3    H2  397   1.335   3.716   3.737
  145TIP3   OH2  398   4.975   4.740   3.468
  145TIP3    H1  399   5.071   4.734   3.466
  145TIP3    H2  400   4.952   4.792   3.391
  146TIP3   OH2  401   3.940   3.130   4.690
  146TIP3    H1  402   4.002   3.165   4.753
  146TIP3    H2  403   3.981   3.049   4.658
  147TIP3   OH2  404   3.667   4.608   1.067
  147TIP3    H1  405   3.631   4.615   1.156
  147TIP3    H2  406   3.609   4.662   1.013
  148TIP3   OH2  407   4.690   0.896   2.987
  148TIP3    H1  408   4.639   0.854   2.918
  148TIP3    H2  409   4.780   0.891   2.956
  149TIP3   OH2  410   0.139   1.697   4.888
  149TIP3    H1  411   0.069   1.735   4.941
  149TIP3    H2  412   0.219   1.734   4.925
  150TIP3   OH2  413   1.521   4.360   2.814
  150TIP3    H1  414   1.512   4.380   2.907
  150TIP3    H2  415   1.588   4.420   2.782
  151TIP3   OH2  416   0.572   2.040   4.238
  151TIP3    H1  417   0.525   2.012   4.159
  151TIP3    H2  418   0.611   1.959   4.272
  152TIP3   OH2  419   2.390   6.638   5.383
  152TIP3    H1  420   2.312   6.694   5.383
  152TIP3    H2  421   2.423   6.644   5.473
  153TIP3   OH2  422   0.657   3.326   4.497
  153TIP3    H1  423   0.595   3.369   4.556
  153TIP3    H2  424   0.663   3.236   4.531
  154TIP3   OH2  425   0.788   5.128   4.821
  154TIP3    H1  426   0.865   5.167   4.862
  154TIP3    H2  427   0.806   5.034   4.819
  155TIP3   OH2  428   3.141   5.135   5.067
  155TIP3    H1  429   3.182   5.177   4.991
  155TIP3    H2  430   3.214   5.098   5.117
  156TIP3   OH2  431   0.906   4.126   5.159
  156TIP3    H1  432   0.943   4.207   5.194
  156TIP3    H2  433   0.918   4.134   5.064
  157TIP3   OH2  434   6.972   6.036   1.502
  157TIP3    H1  435   6.941   6.031   1.592
  157TIP3    H2  436   6.953   6.125   1.474
  158TIP3   OH2  437   1.772   6.143   1.058
  158TIP3    H1  438   1.803   6.172   0.973
  158TIP3    H2  439   1.851   6.125   1.109
  159TIP3   OH2  440   4.535   0.330   1.534
  159TIP3    H1  441   4.602   0.269   1.504
  159TIP3    H2  442   4.452   0.293   1.502
  160TIP3   OH2  443   5.770  -0.055   5.414
  160TIP3    H1  444   5.809  -0.142   5.423
  160TIP3    H2  445   5.843   0.002   5.388
  161TIP3   OH2  446   6.508   1.738   1.043
  161TIP3    H1  447   6.572   1.762   1.110
  161TIP3    H2  448   6.427   1.781   1.072
  162TIP3   OH2  449   2.362   6.504   3.765
  162TIP3    H1  450   2.413   6.539   3.693
  162TIP3    H2  451   2.412   6.428   3.796
  163TIP3   OH2  452   1.482   5.525   3.498
  163TIP3    H1  453   1.441   5.438   3.508
  163TIP3    H2  454   1.556   5.524   3.558
  164TIP3   OH2  455   4.170   5.708   2.856
  164TIP3    H1  456   4.122   5.710   2.939
  164TIP3    H2  457   4.258   5.738   2.879
  165TIP3   OH2  458   3.239   6.347   1.065
  165TIP3    H1  459   3.211   6.303   0.985
  165TIP3    H2  460   3.175   6.417   1.078
  166TIP3   OH2  461   6.966   0.049   4.889
  166TIP3    H1  462   7.053   0.008   4.890
  166TIP3    H2  463   6.978   0.131   4.937
  167TIP3   OH2  464   5.196   3.638   2.619
  167TIP3    H1  465   5.151   3.700   2.562
  167TIP3    H2  466   5.148   3.643   2.702
  168TIP3   OH2  467   4.499   4.881   3.533
  168TIP3    H1  468   4.483   4.910   3.443
  168TIP3    H2  469   4.419   4.907   3.581
  169TIP3   OH2  470   6.112   4.874   5.835
  169TIP3    H1  471   6.178   4.818   5.877
  169TIP3    H2  472   6.148   4.962   5.842
  170TIP3   OH2  473   5.229   0.153   2.404
  170TIP3    H1  474   5.279   0.147   2.323
  170TIP3    H2  475   5.248   0.072   2.450
  171TIP3   OH2  476   2.819   1.985   5.864
  171TIP3    H1  477   2.896   1.938   5.897
  171TIP3    H2  478   2.855   2.055   5.811
  172TIP3   OH2  479   4.862   1.893   4.809
  172TIP3    H1  480   4.839   1.975   4.766
  172TIP3    H2  481   4.951   1.874   4.779
  173TIP3   OH2  482   4.171   6.335   4.845
  173TIP3    H1  483   4.142   6.266   4.786
  173TIP3    H2  484   4.099   6.398   4.845
  174TIP3   OH2  485   5.661   4.765   1.137
  174TIP3    H1  486   5.704   4.706   1.199
  174TIP3    H2  487   5.587   4.801   1.185
  175TIP3   OH2  488   0.401   0.226   0.392
  175TIP3    H1  489   0.477   0.247   0.446
  175TIP3    H2  490   0.338   0.296   0.411
  176TIP3   OH2  491   4.631   6.124   0.639
  176TIP3    H1  492   4.725   6.140   0.637
  176TIP3    H2  493   4.595   6.200   0.686
  177TIP3   OH2  494   2.575   4.827   2.778
  177TIP3    H1  495   2.549   4.786   2.861
  177TIP3    H2  496   2.495   4.871   2.748
  178TIP3   OH2  497   2.774   5.223   3.444
  178TIP3    H1  498   2.706   5.172   3.489
  178TIP3    H2  499   2.822   5.266   3.514
  179TIP3   OH2  500   1.557   5.210   5.904
  179TIP3    H1  501   1.578   5.126   5.946
  179TIP3    H2  502   1.577   5.196   5.812
  180TIP3   OH2  503   1.830   1.283   1.930
  180TIP3    H1  504   1.922   1.304   1.950
  180TIP3    H2  505   1.804   1.348   1.866
  181TIP3   OH2  506   6.587   5.969   4.828
  181TIP3    H1  507   6.625   5.905   4.887
  181TIP3    H2  508   6.617   5.943   4.741
  182TIP3   OH2  509   1.480   0.112   1.918
  182TIP3    H1  510   1.411   0.064   1.872
  182TIP3    H2  511   1.561   0.076   1.883
  183TIP3   OH2  512   1.495   6.412   2.764
  183TIP3    H1  513   1.536   6.326   2.781
  183TIP3    H2  514   1.444   6.429   2.843
  184TIP3   OH2  515   6.705   4.785   2.398
  184TIP3    H1  516   6.674   4.875   2.387
  184TIP3    H2  517   6.675   4.740   2.319
  185TIP3   OH2  518   3.930   2.770   3.016
  185TIP3    H1  519   3.959   2.786   3.105
  185TIP3    H2  520   3.874   2.844   2.995
  186TIP3   OH2  521   2.757   2.090   2.340
  186TIP3    H1  522   2.667   2.102   2.369
  186TIP3    H2  523   2.810   2.118   2.414
  187TIP3   OH2  524   6.505   4.823   3.938
  187TIP3    H1  525   6.543   4.756   3.996
  187TIP3    H2  526   6.438   4.776   3.888
  188TIP3   OH2  527   2.304   1.512   5.351
  188TIP3    H1  528   2.381   1.564   5.330
  188TIP3    H2  529   2.339   1.430   5.387
  189TIP3   OH2  530   4.633   0.179   1.030
  189TIP3    H1  531   4.572   0.126   1.081
  189TIP3    H2  532   4.708   0.193   1.087
  190TIP3   OH2  533   2.763   0.722   5.194
  190TIP3    H1  534   2.857   0.741   5.191
  190TIP3    H2  535   2.752   0.669   5.274
  191TIP3   OH2  536   3.080   1.943   1.190
  191TIP3    H1  537   3.059   1.877   1.256
  191TIP3    H2  538   2.995   1.981   1.166
  192TIP3   OH2  539   2.205   0.148   0.359
  192TIP3    H1  540   2.161   0.101   0.287
  192TIP3    H2  541   2.186   0.240   0.342
  193TIP3   OH2  542   5.074   0.625   4.138
  193TIP3    H1  543   5.160   0.621   4.096
  193TIP3    H2  544   5.012   0.601   4.068
  194TIP3   OH2  545   6.172   2.614   5.528
  194TIP3    H1  546   6.230   2.601   5.602
  194TIP3    H2  547   6.139   2.704   5.538
  195TIP3   OH2  548   1.966   2.075   1.380
  195TIP3    H1  549   2.049   2.084   1.427
  195TIP3    H2  550   1.905   2.132   1.427
  196TIP3   OH2  551   2.641   4.364   0.467
  196TIP3    H1  552   2.729   4.364   0.431
  196TIP3    H2  553   2.645   4.427   0.540
  197TIP3   OH2  554   6.266   4.639   3.879
  197TIP3    H1  555   6.320   4.560   3.874
  197TIP3    H2  556   6.189   4.612   3.929
  198TIP3   OH2  557   1.067   4.869   4.018
  198TIP3    H1  558   1.025   4.784   4.034
  198TIP3    H2  559   1.059   4.915   4.101
  199TIP3   OH2  560   6.488   2.278   2.674
  199TIP3    H1  561   6.457   2.369   2.671
  199TIP3    H2  562   6.500   2.261   2.768
  200TIP3   OH2  563   3.874   1.056   5.384
  200TIP3    H1  564   3.919   1.082   5.303
  200TIP3    H2  565   3.879   0.961   5.384
  201TIP3   OH2  566   5.944   6.137   1.642
  201TIP3    H1  567   6.021   6.081   1.652
  201TIP3    H2  568   5.919   6.128   1.550
  202TIP3   OH2  569   5.819   3.441   5.602
  202TIP3    H1  570   5.748   3.482   5.552
  202TIP3    H2  571   5.780   3.362   5.637
  203TIP3   OH2  572   0.978   3.697   1.502
  203TIP3    H1  573   0.965   3.773   1.559
  203TIP3    H2  574   0.893   3.686   1.458
  204TIP3   OH2  575   1.740   0.721   1.479
  204TIP3    H1  576   1.779   0.701   1.394
  204TIP3    H2  577   1.810   0.763   1.528
  205TIP3   OH2  578   2.797   1.859   3.516
  205TIP3    H1  579   2.742   1.818   3.583
  205TIP3    H2  580   2.831   1.938   3.558
  206TIP3   OH2  581   7.044   3.609   3.448
  206TIP3    H1  582   7.036   3.520   3.414
  206TIP3    H2  583   7.103   3.653   3.387
  207TIP3   OH2  584   2.053   0.085   4.981
  207TIP3    H1  585   2.117   0.101   4.912
  207TIP3    H2  586   2.088   0.129   5.058
  208TIP3   OH2  587   2.429   2.713   0.426
  208TIP3    H1  588   2.519   2.699   0.395
  208TIP3    H2  589   2.422   2.657   0.503
  209TIP3   OH2  590   0.307   4.113   0.505
  209TIP3    H1  591   0.310   4.161   0.587
  209TIP3    H2  592   0.398   4.089   0.488
  210TIP3   OH2  593   1.889   3.874   3.460
  210TIP3    H1  594   1.966   3.822   3.438
  210TIP3    H2  595   1.845   3.823   3.529
  211TIP3   OH2  596   4.930   3.138   1.531
  211TIP3    H1  597   4.866   3.108   1.467
  211TIP3    H2  598   4.905   3.093   1.612
  212TIP3   OH2  599   0.605   4.871   3.803
  212TIP3    H1  600   0.675   4.936   3.803
  212TIP3    H2  601   0.567   4.877   3.891
  213TIP3   OH2  602   1.702   2.867   3.411
  213TIP3    H1  603   1.700   2.778   3.375
  213TIP3    H2  604   1.795   2.890   3.411
  214TIP3   OH2  605   2.130   1.092   2.157
  214TIP3    H1  606   2.058   1.045   2.200
  214TIP3    H2  607   2.111   1.184   2.172
  215TIP3   OH2  608   0.277   1.770   5.480
  215TIP3    H1  609   0.276   1.818   5.562
  215TIP3    H2  610   0.252   1.680   5.504
  216TIP3   OH2  611   6.115   0.105   2.124
  216TIP3    H1  612   6.173   0.163   2.174
  216TIP3    H2  613   6.084   0.041   2.187
  217TIP3   OH2  614   4.554   4.918   4.826
  217TIP3    H1  615   4.590   4.980   4.762
  217TIP3    H2  616   4.525   4.843   4.773
  218TIP3   OH2  617   3.390   3.573   0.950
  218TIP3    H1  618   3.354   3.492   0.911
  218TIP3    H2  619   3.428   3.620   0.876
  219TIP3   OH2  620   4.694   1.403   2.054
  219TIP3    H1  621   4.646   1.330   2.016
  219TIP3    H2  622   4.626   1.463   2.085
  220TIP3   OH2  623   0.961   0.504   0.205
  220TIP3    H1  624   0.873   0.522   0.236
  220TIP3    H2  625   0.957   0.517   0.110
  221TIP3   OH2  626   1.750   5.233   4.695
  221TIP3    H1  627   1.806   5.162   4.725
  221TIP3    H2  628   1.790   5.312   4.732
  222TIP3   OH2  629   1.728   2.848   1.827
  222TIP3    H1  630   1.753   2.922   1.882
  222TIP3    H2  631   1.757   2.874   1.739
  223TIP3   OH2  632   4.119   3.341   4.847
  223TIP3    H1  633   4.134   3.401   4.774
  223TIP3    H2  634   4.203   3.297   4.860
  224TIP3   OH2  635   3.782   4.727   0.754
  224TIP3    H1  636   3.687   4.739   0.743
  224TIP3    H2  637   3.819   4.815   0.741
  225TIP3   OH2  638   4.254   0.892   4.164
  225TIP3    H1  639   4.271   0.803   4.194
  225TIP3    H2  640   4.260   0.886   4.069
  226TIP3   OH2  641   3.685   1.896   0.540
  226TIP3    H1  642   3.742   1.841   0.487
  226TIP3    H2  643   3.703   1.985   0.510
  227TIP3   OH2  644   2.818   0.902   1.998
  227TIP3    H1  645   2.844   0.831   1.939
  227TIP3    H2  646   2.723   0.906   1.990
  228TIP3   OH2  647   5.824   4.505   2.259
  228TIP3    H1  648   5.890   4.436   2.257
  228TIP3    H2  649   5.842   4.554   2.339
  229TIP3   OH2  650   0.740   4.007   0.306
  229TIP3    H1  651   0.802   4.079   0.323
  229TIP3    H2  652   0.796   3.934   0.280
  230TIP3   OH2  653   2.119   0.705   2.598
  230TIP3    H1  654   2.142   0.687   2.689
  230TIP3    H2  655   2.024   0.715   2.598
  231TIP3   OH2  656   4.908   4.018   1.612
  231TIP3    H1  657   4.825   4.040   1.655
  231TIP3    H2  658   4.975   4.050   1.672
  232TIP3   OH2  659   6.189   3.881   4.087
  232TIP3    H1  660   6.166   3.810   4.148
  232TIP3    H2  661   6.135   3.955   4.115
  233TIP3   OH2  662   4.839   0.807   4.904
  233TIP3    H1  663   4.778   0.776   4.972
  233TIP3    H2  664   4.925   0.798   4.944
  234TIP3   OH2  665   2.187   2.918   1.892
  234TIP3    H1  666   2.246   2.980   1.936
  234TIP3    H2  667   2.223   2.910   1.804
  235TIP3   OH2  668   1.788   5.117   5.399
  235TIP3    H1  669   1.814   5.199   5.357
  235TIP3    H2  670   1.695   5.108   5.379
  236TIP3   OH2  671   1.907   2.700   2.565
  236TIP3    H1  672   1.820   2.727   2.596
  236TIP3    H2  673   1.945   2.780   2.528
  237TIP3   OH2  674   4.647   3.936   4.924
  237TIP3    H1  675   4.577   3.894   4.974
  237TIP3    H2  676   4.670   4.014   4.974
  238TIP3   OH2  677   6.533   1.871   4.502
  238TIP3    H1  678   6.474   1.893   4.430
  238TIP3    H2  679   6.550   1.778   4.491
  239TIP3   OH2  680   4.510   4.666   5.664
  239TIP3    H1  681   4.461   4.591   5.696
  239TIP3    H2  682   4.540   4.640   5.577
  240TIP3   OH2  683   4.584   3.827   1.577
  240TIP3    H1  684   4.544   3.786   1.654
  240TIP3    H2  685   4.603   3.917   1.606
  241TIP3   OH2  686   0.744   5.709   3.056
  241TIP3    H1  687   0.735   5.802   3.076
  241TIP3    H2  688   0.818   5.705   2.996
  242TIP3   OH2  689   2.558   4.707   4.602
  242TIP3    H1  690   2.579   4.694   4.510
  242TIP3    H2  691   2.574   4.622   4.642
  243TIP3   OH2  692   2.966   2.436   1.813
  243TIP3    H1  693   2.880   2.403   1.788
  243TIP3    H2  694   3.026   2.398   1.749
  244TIP3   OH2  695   6.091   6.727   0.986
  244TIP3    H1  696   6.076   6.802   0.929
  244TIP3    H2  697   6.020   6.667   0.966
  245TIP3   OH2  698   0.812   4.303   3.701
  245TIP3    H1  699   0.880   4.352   3.656
  245TIP3    H2  700   0.847   4.215   3.709
  246TIP3   OH2  701   6.259   6.460   0.839
  246TIP3    H1  702   6.330   6.418   0.790
  246TIP3    H2  703   6.179   6.432   0.794
  247TIP3   OH2  704   5.056   3.125   4.515
  247TIP3    H1  705   4.961   3.117   4.510
  247TIP3    H2  706   5.079   3.188   4.447
  248TIP3   OH2  707   0.425   6.097   0.845
  248TIP3    H1  708   0.334   6.068   0.833
  248TIP3    H2  709   0.419   6.167   0.910
  249TIP3   OH2  710   2.269   4.686   1.570
  249TIP3    H1  711   2.337   4.621   1.550
  249TIP3    H2  712   2.226   4.701   1.486
  250TIP3   OH2  713   1.583   6.632   0.028
  250TIP3    H1  714   1.614   6.554  -0.019
  250TIP3    H2  715   1.632   6.632   0.110
  251TIP3   OH2  716   5.472   6.081   3.354
  251TIP3    H1  717   5.547   6.089   3.295
  251TIP3    H2  718   5.408   6.030   3.304
  252TIP3   OH2  719   0.731   5.194   5.383
  252TIP3    H1  720   0.801   5.130   5.369
  252TIP3    H2  721   0.653   5.141   5.399
  253TIP3   OH2  722   3.817   4.239   2.402
  253TIP3    H1  723   3.809   4.146   2.382
  253TIP3    H2  724   3.727   4.271   2.403
  254TIP3   OH2  725   3.916   3.839   5.472
  254TIP3    H1  726   3.930   3.904   5.540
  254TIP3    H2  727   3.896   3.758   5.520
  255TIP3   OH2  728   4.678   4.848   1.214
  255TIP3    H1  729   4.758   4.841   1.161
  255TIP3    H2  730   4.607   4.824   1.154
  256TIP3   OH2  731   1.759   1.545   2.677
  256TIP3    H1  732   1.848   1.577   2.687
  256TIP3    H2  733   1.731   1.578   2.592
  257TIP3   OH2  734   1.720   6.733   0.861
  257TIP3    H1  735   1.703   6.641   0.883
  257TIP3    H2  736   1.667   6.749   0.783
  258TIP3   OH2  737   5.294   6.204   4.297
  258TIP3    H1  738   5.324   6.227   4.209
  258TIP3    H2  739   5.341   6.123   4.318
  259TIP3   OH2  740   3.906   2.985   5.752
  259TIP3    H1  741   3.901   3.013   5.843
  259TIP3    H2  742   3.953   2.902   5.755
  260TIP3   OH2  743   5.793   3.297   4.998
  260TIP3    H1  744   5.725   3.231   4.983
  260TIP3    H2  745   5.749   3.380   4.982
  261TIP3   OH2  746   2.151   2.373   5.898
  261TIP3    H1  747   2.084   2.336   5.840
  261TIP3    H2  748   2.185   2.298   5.947
  262TIP3   OH2  749   2.663   1.156   2.956
  262TIP3    H1  750   2.737   1.099   2.936
  262TIP3    H2  751   2.701   1.244   2.961
  263TIP3   OH2  752   7.062   1.544   2.918
  263TIP3    H1  753   7.063   1.625   2.969
  263TIP3    H2  754   7.148   1.505   2.934
  264TIP3   OH2  755   4.171   1.296   3.682
  264TIP3    H1  756   4.160   1.322   3.773
  264TIP3    H2  757   4.102   1.343   3.635
  265TIP3   OH2  758   4.475   1.557   1.442
  265TIP3    H1  759   4.503   1.643   1.472
  265TIP3    H2  760   4.482   1.501   1.519
  266TIP3   OH2  761   1.988   1.539   1.924
  266TIP3    H1  762   1.977   1.628   1.891
  266TIP3    H2  763   1.973   1.483   1.848
  267TIP3   OH2  764   5.021   5.283   0.131
  267TIP3    H1  765   5.089   5.326   0.080
  267TIP3    H2  766   4.956   5.351   0.148
  268TIP3   OH2  767   5.792   4.217   3.111
  268TIP3    H1  768   5.851   4.292   3.123
  268TIP3    H2  769   5.704   4.256   3.110
  269TIP3   OH2  770   6.045   4.265   0.560
  269TIP3    H1  771   6.132   4.303   0.551
  269TIP3    H2  772   6.039   4.201   0.488
  270TIP3   OH2  773   5.457   2.540   3.236
  270TIP3    H1  774   5.419   2.461   3.196
  270TIP3    H2  775   5.544   2.512   3.264
  271TIP3   OH2  776   1.986   2.504   5.530
  271TIP3    H1  777   2.049   2.442   5.565
  271TIP3    H2  778   2.030   2.589   5.536
  272TIP3   OH2  779   4.795   5.201   0.884
  272TIP3    H1  780   4.824   5.263   0.951
  272TIP3    H2  781   4.700   5.213   0.881
  273TIP3   OH2  782   4.162   3.726   1.570
  273TIP3    H1  783   4.216   3.773   1.635
  273TIP3    H2  784   4.078   3.772   1.572
  274TIP3   OH2  785   2.132   1.430   5.140
  274TIP3    H1  786   2.180   1.406   5.061
  274TIP3    H2  787   2.198   1.467   5.198
  275TIP3   OH2  788   3.207   3.999   1.863
  275TIP3    H1  789   3.235   3.993   1.954
  275TIP3    H2  790   3.144   4.072   1.863
  276TIP3   OH2  791   4.266   2.888   5.717
  276TIP3    H1  792   4.275   2.939   5.636
  276TIP3    H2  793   4.174   2.859   5.716
  277TIP3   OH2  794   2.694   1.775   1.205
  277TIP3    H1  795   2.631   1.746   1.139
  277TIP3    H2  796   2.744   1.845   1.162
  278TIP3   OH2  797   6.735   3.739   2.514
  278TIP3    H1  798   6.803   3.780   2.461
  278TIP3    H2  799   6.776   3.725   2.600
  279TIP3   OH2  800   4.947   2.403   4.857
  279TIP3    H1  801   4.863   2.407   4.903
  279TIP3    H2  802   4.979   2.493   4.857
  280TIP3   OH2  803   3.700   4.766   3.541
  280TIP3    H1  804   3.627   4.808   3.586
  280TIP3    H2  805   3.778   4.806   3.579
  281TIP3   OH2  806   6.961   6.501   2.304
  281TIP3    H1  807   7.014   6.573   2.271
  281TIP3    H2  808   6.948   6.444   2.228
  282TIP3   OH2  809   5.927   1.952   4.800
  282TIP3    H1  810   5.905   1.906   4.881
  282TIP3    H2  811   5.970   2.033   4.830
  283TIP3   OH2  812   2.565   2.316   3.667
  283TIP3    H1  813   2.577   2.262   3.746
  283TIP3    H2  814   2.555   2.253   3.596
  284TIP3   OH2  815   4.115   2.027   5.867
  284TIP3    H1  816   4.189   2.075   5.830
  284TIP3    H2  817   4.069   1.992   5.790
  285TIP3   OH2  818   4.925   1.144   2.691
  285TIP3    H1  819   4.975   1.224   2.700
  285TIP3    H2  820   4.839   1.164   2.729
  286TIP3   OH2  821   0.225   1.073   2.701
  286TIP3    H1  822   0.185   1.152   2.666
  286TIP3    H2  823   0.216   1.008   2.631
  287TIP3   OH2  824   5.349   4.429   2.216
  287TIP3    H1  825   5.382   4.492   2.280
  287TIP3    H2  826   5.263   4.463   2.190
  288TIP3   OH2  827   5.472   3.259   1.614
  288TIP3    H1  828   5.483   3.220   1.701
  288TIP3    H2  829   5.378   3.274   1.606
  289TIP3   OH2  830   5.488   5.688   3.002
  289TIP3    H1  831   5.515   5.767   2.956
  289TIP3    H2  832   5.566   5.661   3.051
  290TIP3   OH2  833   5.802   0.698   0.780
  290TIP3    H1  834   5.867   0.696   0.710
  290TIP3    H2  835   5.742   0.626   0.759
  291TIP3   OH2  836   4.784   3.048   5.669
  291TIP3    H1  837   4.872   3.032   5.634
  291TIP3    H2  838   4.798   3.065   5.762
  292TIP3   OH2  839   1.720   6.608   3.138
  292TIP3    H1  840   1.639   6.605   3.087
  292TIP3    H2  841   1.693   6.588   3.227
  293TIP3   OH2  842   3.393   3.193   0.959
  293TIP3    H1  843   3.424   3.237   0.880
  293TIP3    H2  844   3.323   3.248   0.992
  294TIP3   OH2  845   5.888   2.831   5.559
  294TIP3    H1  846   5.968   2.871   5.594
  294TIP3    H2  847   5.882   2.746   5.603
  295TIP3   OH2  848   6.819   4.637   2.875
  295TIP3    H1  849   6.865   4.721   2.865
  295TIP3    H2  850   6.816   4.623   2.970
  296TIP3   OH2  851   4.373   5.552   0.777
  296TIP3    H1  852   4.411   5.530   0.692
  296TIP3    H2  853   4.329   5.471   0.805
  297TIP3   OH2  854   4.612   4.006   1.240
  297TIP3    H1  855   4.671   3.933   1.220
  297TIP3    H2  856   4.588   4.041   1.154
  298TIP3   OH2  857   5.900   4.466   0.494
  298TIP3    H1  858   5.850   4.467   0.576
  298TIP3    H2  859   5.956   4.388   0.501
  299TIP3   OH2  860   1.172  -0.106   2.177
  299TIP3    H1  861   1.128  -0.095   2.092
  299TIP3    H2  862   1.264  -0.115   2.154
  300TIP3   OH2  863   1.145   5.342   4.435
  300TIP3    H1  864   1.082   5.409   4.408
  300TIP3    H2  865   1.092   5.265   4.455
  301TIP3   OH2  866   2.771   6.357   5.084
  301TIP3    H1  867   2.693   6.343   5.031
  301TIP3    H2  868   2.749   6.430   5.142
  302TIP3   OH2  869   3.239   5.487   2.171
  302TIP3    H1  870   3.173   5.534   2.119
  302TIP3    H2  871   3.188   5.440   2.236
  303TIP3   OH2  872   2.550   1.110   4.607
  303TIP3    H1  873   2.594   1.137   4.688
  303TIP3    H2  874   2.621   1.103   4.543
  304TIP3   OH2  875   5.985   0.630   5.603
  304TIP3    H1  876   5.989   0.534   5.611
  304TIP3    H2  877   6.051   0.661   5.665
  305TIP3   OH2  878   6.488   4.930   0.461
  305TIP3    H1  879   6.449   4.917   0.547
  305TIP3    H2  880   6.581   4.910   0.474
  306TIP3   OH2  881   0.180   5.676   0.930
  306TIP3    H1  882   0.127   5.654   1.008
  306TIP3    H2  883   0.115   5.693   0.862
  307TIP3   OH2  884   5.502   3.602   3.615
  307TIP3    H1  885   5.574   3.625   3.673
  307TIP3    H2  886   5.509   3.507   3.605
  308TIP3   OH2  887   7.153   4.066   0.249
  308TIP3    H1  888   7.238   4.024   0.256
  308TIP3    H2  889   7.090   3.998   0.276
  309TIP3   OH2  890   6.184   0.821   2.520
  309TIP3    H1  891   6.247   0.801   2.451
  309TIP3    H2  892   6.110   0.862   2.474
  310TIP3   OH2  893   0.559   6.101   2.131
  310TIP3    H1  894   0.529   6.191   2.122
  310TIP3    H2  895   0.500   6.062   2.194
  311TIP3   OH2  896   2.457   6.308   2.610
  311TIP3    H1  897   2.412   6.391   2.624
  311TIP3    H2  898   2.393   6.241   2.634
  312TIP3   OH2  899   4.873   5.555   2.732
  312TIP3    H1  900   4.944   5.551   2.796
  312TIP3    H2  901   4.847   5.464   2.718
  313TIP3   OH2  902   0.305   4.092   5.328
  313TIP3    H1  903   0.215   4.101   5.297
  313TIP3    H2  904   0.331   4.004   5.301
  314TIP3   OH2  905   5.769   6.469   5.188
  314TIP3    H1  906   5.758   6.410   5.113
  314TIP3    H2  907   5.795   6.412   5.260
  315TIP3   OH2  908   2.182   3.729   3.696
  315TIP3    H1  909   2.259   3.672   3.706
  315TIP3    H2  910   2.199   3.779   3.617
  316TIP3   OH2  911   1.737   6.694   1.472
  316TIP3    H1  912   1.642   6.697   1.485
  316TIP3    H2  913   1.773   6.690   1.561
  317TIP3   OH2  914   4.222   0.265   5.148
  317TIP3    H1  915   4.182   0.341   5.191
  317TIP3    H2  916   4.287   0.234   5.211
  318TIP3   OH2  917   3.313   0.996   4.158
  318TIP3    H1  918   3.226   1.017   4.125
  318TIP3    H2  919   3.333   1.067   4.219
  319TIP3   OH2  920   0.672   0.523   0.346
  319TIP3    H1  921   0.601   0.480   0.392
  319TIP3    H2  922   0.730   0.555   0.415
  320TIP3   OH2  923   3.115   5.872   4.911
  320TIP3    H1  924   3.023   5.871   4.887
  320TIP3    H2  925   3.157   5.813   4.848
  321TIP3   OH2  926   3.026   2.150   2.595
  321TIP3    H1  927   3.068   2.144   2.681
  321TIP3    H2  928   3.096   2.178   2.536
  322TIP3   OH2  929   6.484   0.177   0.374
  322TIP3    H1  930   6.506   0.216   0.289
  322TIP3    H2  931   6.466   0.085   0.355
  323TIP3   OH2  932   3.799   0.128  -0.004
  323TIP3    H1  933   3.792   0.191  -0.077
  323TIP3    H2  934   3.872   0.160   0.048
  324TIP3   OH2  935   6.054   6.226   5.610
  324TIP3    H1  936   6.147   6.249   5.603
  324TIP3    H2  937   6.020   6.282   5.678
  325TIP3   OH2  938   1.437   4.118   1.499
  325TIP3    H1  939   1.392   4.088   1.578
  325TIP3    H2  940   1.472   4.038   1.460
  326TIP3   OH2  941   4.325   2.236   2.491
  326TIP3    H1  942   4.288   2.322   2.471
  326TIP3    H2  943   4.293   2.216   2.579
  327TIP3   OH2  944   3.014   0.215   2.182
  327TIP3    H1  945   3.068   0.192   2.257
  327TIP3    H2  946   2.966   0.135   2.162
  328TIP3   OH2  947   2.746   3.518   5.205
  328TIP3    H1  948   2.740   3.528   5.300
  328TIP3    H2  949   2.820   3.575   5.180
  329TIP3   OH2  950   3.335   2.992   0.405
  329TIP3    H1  951   3.419   2.947   0.393
  329TIP3    H2  952   3.328   3.049   0.328
  330TIP3   OH2  953   4.927   2.756   1.036
  330TIP3    H1  954   4.836   2.733   1.054
  330TIP3    H2  955   4.935   2.745   0.941
  331TIP3   OH2  956   1.574   0.709   4.105
  331TIP3    H1  957   1.490   0.705   4.058
  331TIP3    H2  958   1.563   0.781   4.167
  332TIP3   OH2  959   3.316   3.259   5.388
  332TIP3    H1  960   3.304   3.327   5.454
  332TIP3    H2  961   3.279   3.296   5.308
  333TIP3   OH2  962   6.937   6.642   1.912
  333TIP3    H1  963   6.896   6.667   1.995
  333TIP3    H2  964   6.992   6.717   1.888
  334TIP3   OH2  965   0.768   5.867   2.622
  334TIP3    H1  966   0.774   5.813   2.543
  334TIP3    H2  967   0.768   5.957   2.589
  335TIP3   OH2  968   5.523   4.814   4.911
  335TIP3    H1  969   5.592   4.867   4.870
  335TIP3    H2  970   5.545   4.724   4.887
  336TIP3   OH2  971   4.888   6.240   0.591
  336TIP3    H1  972   4.922   6.159   0.629
  336TIP3    H2  973   4.896   6.227   0.496
  337TIP3   OH2  974   1.495   0.951   1.825
  337TIP3    H1  975   1.553   0.973   1.898
  337TIP3    H2  976   1.533   0.873   1.787
  338TIP3   OH2  977   6.887   3.466   1.940
  338TIP3    H1  978   6.799   3.492   1.913
  338TIP3    H2  979   6.922   3.417   1.865
  339TIP3   OH2  980   1.372   6.669   0.939
  339TIP3    H1  981   1.363   6.700   0.849
  339TIP3    H2  982   1.292   6.617   0.955
  340TIP3   OH2  983   2.585   4.495   5.372
  340TIP3    H1  984   2.644   4.555   5.327
  340TIP3    H2  985   2.605   4.505   5.464
  341TIP3   OH2  986   0.233   3.200   1.853
  341TIP3    H1  987   0.306   3.260   1.865
  341TIP3    H2  988   0.172   3.246   1.795
  342TIP3   OH2  989   4.419   3.344   4.175
  342TIP3    H1  990   4.432   3.320   4.083
  342TIP3    H2  991   4.425   3.439   4.176
  343TIP3   OH2  992   3.808   6.683   1.583
  343TIP3    H1  993   3.731   6.695   1.640
  343TIP3    H2  994   3.780   6.616   1.520
  344TIP3   OH2  995   0.125   1.194   2.384
  344TIP3    H1  996   0.183   1.268   2.403
  344TIP3    H2  997   0.044   1.215   2.430
  345TIP3   OH2  998   2.676   1.566   0.088
  345TIP3    H1  999   2.750   1.528   0.040
  345TIP3    H2 1000   2.614   1.593   0.021
  346TIP3   OH2 1001   0.013   1.736   3.478
  346TIP3    H1 1002   0.065   1.815   3.493
  346TIP3    H2 1003  -0.074   1.769   3.453
  347TIP3   OH2 1004   1.525   3.840   3.493
  347TIP3    H1 1005   1.532   3.819   3.586
  347TIP3    H2 1006   1.493   3.759   3.452
  348TIP3   OH2 1007   5.822   3.561   5.872
  348TIP3    H1 1008   5.803   3.570   5.779
  348TIP3    H2 1009   5.905   3.514   5.877
  349TIP3   OH2 1010   0.447   6.662   1.391
  349TIP3    H1 1011   0.497   6.631   1.315
  349TIP3    H2 1012   0.512   6.668   1.461
  350TIP3   OH2 1013   5.683   6.455   0.354
  350TIP3    H1 1014   5.667   6.375   0.303
  350TIP3    H2 1015   5.704   6.521   0.288
  351TIP3   OH2 1016   6.314   0.434   5.242
  351TIP3    H1 1017   6.346   0.403   5.157
  351TIP3    H2 1018   6.301   0.528   5.230
  352TIP3   OH2 1019   2.998   5.035   0.692
  352TIP3    H1 1020   2.906   5.012   0.690
  352TIP3    H2 1021   3.007   5.093   0.768
  353TIP3   OH2 1022   0.867   5.349   5.667
  353TIP3    H1 1023   0.797   5.299   5.625
  353TIP3    H2 1024   0.836   5.363   5.757
  354TIP3   OH2 1025   3.735   6.518   5.106
  354TIP3    H1 1026   3.642   6.524   5.084
  354TIP3    H2 1027   3.736   6.511   5.202
  355TIP3   OH2 1028   0.966   2.152   5.394
  355TIP3    H1 1029   1.005   2.240   5.385
  355TIP3    H2 1030   0.875   2.164   5.369
  356TIP3   OH2 1031   2.909   2.515   4.135
  356TIP3    H1 1032   2.943   2.532   4.224
  356TIP3    H2 1033   2.856   2.592   4.115
  357TIP3   OH2 1034   2.272   1.774   4.629
  357TIP3    H1 1035   2.243   1.686   4.652
  357TIP3    H2 1036   2.220   1.797   4.552
  358TIP3   OH2 1037   5.887   1.783   5.011
  358TIP3    H1 1038   5.877   1.693   4.979
  358TIP3    H2 1039   5.974   1.785   5.049
  359TIP3   OH2 1040   5.803   2.814   5.279
  359TIP3    H1 1041   5.867   2.832   5.348
  359TIP3    H2 1042   5.854   2.810   5.198
  360TIP3   OH2 1043   2.193   0.233   1.590
  360TIP3    H1 1044   2.124   0.177   1.554
  360TIP3    H2 1045   2.269   0.218   1.533
  361TIP3   OH2 1046   0.060   0.298   5.655
  361TIP3    H1 1047   0.028   0.209   5.670
  361TIP3    H2 1048  -0.010   0.355   5.687
  362TIP3   OH2 1049   0.088   6.276   4.077
  362TIP3    H1 1050   0.096   6.351   4.019
  362TIP3    H2 1051   0.050   6.312   4.158
  363TIP3   OH2 1052   3.051   3.747   5.660
  363TIP3    H1 1053   3.094   3.812   5.715
  363TIP3    H2 1054   3.064   3.664   5.705
  364TIP3   OH2 1055   2.529   3.561   5.393
  364TIP3    H1 1056   2.447   3.598   5.423
  364TIP3    H2 1057   2.503   3.485   5.341
  365TIP3   OH2 1058   0.310   4.793   2.661
  365TIP3    H1 1059   0.279   4.859   2.599
  365TIP3    H2 1060   0.372   4.839   2.717
  366TIP3   OH2 1061   4.337   2.619   3.448
  366TIP3    H1 1062   4.249   2.600   3.480
  366TIP3    H2 1063   4.324   2.687   3.381
  367TIP3   OH2 1064   4.913   5.755   3.105
  367TIP3    H1 1065   4.848   5.798   3.049
  367TIP3    H2 1066   4.955   5.691   3.048
  368TIP3   OH2 1067   6.339   6.508   5.038
  368TIP3    H1 1068   6.283   6.573   4.995
  368TIP3    H2 1069   6.411   6.496   4.977
  369TIP3   OH2 1070   5.188   0.540   1.824
  369TIP3    H1 1071   5.200   0.501   1.737
  369TIP3    H2 1072   5.095   0.527   1.844
  370TIP3   OH2 1073   6.780   0.829   1.592
  370TIP3    H1 1074   6.700   0.872   1.624
  370TIP3    H2 1075   6.832   0.814   1.671
  371TIP3   OH2 1076   3.413   5.713   4.031
  371TIP3    H1 1077   3.365   5.632   4.049
  371TIP3    H2 1078   3.346   5.781   4.025
  372TIP3   OH2 1079   6.700   5.371   2.544
  372TIP3    H1 1080   6.761   5.390   2.615
  372TIP3    H2 1081   6.732   5.290   2.505
  373TIP3   OH2 1082   0.647   6.459   4.950
  373TIP3    H1 1083   0.675   6.534   4.898
  373TIP3    H2 1084   0.726   6.406   4.961
  374TIP3   OH2 1085   2.303   4.532   5.272
  374TIP3    H1 1086   2.384   4.485   5.293
  374TIP3    H2 1087   2.331   4.612   5.229
  375TIP3   OH2 1088   3.681   2.517   0.377
  375TIP3    H1 1089   3.624   2.452   0.336
  375TIP3    H2 1090   3.756   2.467   0.409
  376TIP3   OH2 1091   1.062   5.999   4.265
  376TIP3    H1 1092   1.023   6.037   4.344
  376TIP3    H2 1093   0.989   5.994   4.203
  377TIP3   OH2 1094   6.569   2.026   4.722
  377TIP3    H1 1095   6.541   1.982   4.642
  377TIP3    H2 1096   6.539   2.117   4.711
  378TIP3   OH2 1097   0.268   3.777   4.527
  378TIP3    H1 1098   0.206   3.737   4.466
  378TIP3    H2 1099   0.292   3.860   4.486
  379TIP3   OH2 1100   6.536   5.095   4.266
  379TIP3    H1 1101   6.589   5.059   4.337
  379TIP3    H2 1102   6.586   5.078   4.187
  380TIP3   OH2 1103   6.287   5.391   1.163
  380TIP3    H1 1104   6.224   5.438   1.108
  380TIP3    H2 1105   6.280   5.300   1.134
  381TIP3   OH2 1106   5.831   3.450   0.987
  381TIP3    H1 1107   5.834   3.380   0.922
  381TIP3    H2 1108   5.746   3.439   1.030
  382TIP3   OH2 1109   2.340   1.136   2.520
  382TIP3    H1 1110   2.268   1.072   2.521
  382TIP3    H2 1111   2.375   1.131   2.432
  383TIP3   OH2 1112   1.247   6.406   4.882
  383TIP3    H1 1113   1.258   6.356   4.801
  383TIP3    H2 1114   1.313   6.369   4.942
  384TIP3   OH2 1115   5.765   0.265   1.241
  384TIP3    H1 1116   5.740   0.355   1.223
  384TIP3    H2 1117   5.682   0.219   1.255
  385TIP3   OH2 1118   4.579   1.994   5.521
  385TIP3    H1 1119   4.639   1.965   5.452
  385TIP3    H2 1120   4.492   1.969   5.490
  386TIP3   OH2 1121   4.809   5.173   5.084
  386TIP3    H1 1122   4.824   5.135   4.997
  386TIP3    H2 1123   4.783   5.263   5.067
  387TIP3   OH2 1124   6.448   3.412   3.415
  387TIP3    H1 1125   6.475   3.335   3.365
  387TIP3    H2 1126   6.516   3.422   3.482
  388TIP3   OH2 1127   3.103   3.966   1.554
  388TIP3    H1 1128   3.087   4.053   1.591
  388TIP3    H2 1129   3.044   3.961   1.478
  389TIP3   OH2 1130   2.011   1.904   2.642
  389TIP3    H1 1131   1.988   1.829   2.588
  389TIP3    H2 1132   1.933   1.960   2.640
  390TIP3   OH2 1133   0.652   1.389   3.505
  390TIP3    H1 1134   0.625   1.377   3.596
  390TIP3    H2 1135   0.570   1.395   3.456
  391TIP3   OH2 1136   0.171   1.889   0.819
  391TIP3    H1 1137   0.189   1.912   0.910
  391TIP3    H2 1138   0.169   1.973   0.773
  392TIP3   OH2 1139   1.703   5.391   5.485
  392TIP3    H1 1140   1.638   5.446   5.441
  392TIP3    H2 1141   1.786   5.416   5.444
  393TIP3   OH2 1142   1.629   3.055   4.961
  393TIP3    H1 1143   1.597   2.965   4.951
  393TIP3    H2 1144   1.577   3.106   4.898
  394TIP3   OH2 1145   0.400   6.190   0.234
  394TIP3    H1 1146   0.376   6.178   0.326
  394TIP3    H2 1147   0.357   6.118   0.188
  395TIP3   OH2 1148   5.289   4.142   3.717
  395TIP3    H1 1149   5.348   4.068   3.703
  395TIP3    H2 1150   5.245   4.154   3.633
  396TIP3   OH2 1151   1.443   5.468   4.921
  396TIP3    H1 1152   1.399   5.483   4.837
  396TIP3    H2 1153   1.529   5.510   4.911
  397TIP3   OH2 1154   0.436   2.248   2.638
  397TIP3    H1 1155   0.511   2.253   2.698
  397TIP3    H2 1156   0.471   2.206   2.560
  398TIP3   OH2 1157   0.035   2.215   4.895
  398TIP3    H1 1158  -0.045   2.164   4.906
  398TIP3    H2 1159   0.106   2.150   4.892
  399TIP3   OH2 1160   0.858   2.342   0.053
  399TIP3    H1 1161   0.822   2.356  -0.034
  399TIP3    H2 1162   0.953   2.341   0.041
  400TIP3   OH2 1163   1.437   1.317   0.663
  400TIP3    H1 1164   1.515   1.356   0.702
  400TIP3    H2 1165   1.459   1.225   0.652
  401TIP3   OH2 1166   7.098   1.957   4.410
  401TIP3    H1 1167   7.029   1.900   4.375
  401TIP3    H2 1168   7.054   2.011   4.475
  402TIP3   OH2 1169   4.222   1.230   2.121
  402TIP3    H1 1170   4.165   1.236   2.044
  402TIP3    H2 1171   4.307   1.262   2.090
  403TIP3   OH2 1172   4.131   6.141   5.489
  403TIP3    H1 1173   4.108   6.118   5.400
  403TIP3    H2 1174   4.076   6.217   5.510
  404TIP3   OH2 1175   7.168   4.704   2.715
  404TIP3    H1 1176   7.099   4.709   2.649
  404TIP3    H2 1177   7.126   4.663   2.791
  405TIP3   OH2 1178   0.041   3.753   0.727
  405TIP3    H1 1179   0.093   3.832   0.746
  405TIP3    H2 1180  -0.022   3.781   0.661
  406TIP3   OH2 1181   0.137   2.551   0.913
  406TIP3    H1 1182   0.220   2.508   0.899
  406TIP3    H2 1183   0.098   2.558   0.825
  407TIP3   OH2 1184   4.719   2.052   1.380
  407TIP3    H1 1185   4.707   2.146   1.368
  407TIP3    H2 1186   4.800   2.044   1.431
  408TIP3   OH2 1187   0.525   3.646   4.495
  408TIP3    H1 1188   0.444   3.692   4.473
  408TIP3    H2 1189   0.501   3.587   4.567
  409TIP3   OH2 1190   1.538   4.341   1.589
  409TIP3    H1 1191   1.513   4.261   1.544
  409TIP3    H2 1192   1.490   4.338   1.672
  410TIP3   OH2 1193   2.300   3.730   1.842
  410TIP3    H1 1194   2.303   3.768   1.754
  410TIP3    H2 1195   2.342   3.795   1.898
  411TIP3   OH2 1196   4.596   5.034   0.667
  411TIP3    H1 1197   4.505   5.037   0.637
  411TIP3    H2 1198   4.591   5.003   0.757
  412TIP3   OH2 1199   2.071   0.404   4.345
  412TIP3    H1 1200   2.044   0.480   4.396
  412TIP3    H2 1201   1.990   0.367   4.311
  413TIP3   OH2 1202   5.144   4.344   2.669
  413TIP3    H1 1203   5.204   4.305   2.732
  413TIP3    H2 1204   5.059   4.305   2.688
  414TIP3   OH2 1205   5.870   4.732   5.813
  414TIP3    H1 1206   5.873   4.643   5.847
  414TIP3    H2 1207   5.950   4.774   5.845
  415TIP3   OH2 1208   5.515   2.153   3.720
  415TIP3    H1 1209   5.482   2.227   3.670
  415TIP3    H2 1210   5.437   2.102   3.742
  416TIP3   OH2 1211   5.755   3.986   2.515
  416TIP3    H1 1212   5.689   4.036   2.562
  416TIP3    H2 1213   5.732   3.996   2.423
  417TIP3   OH2 1214   5.691   0.527   5.596
  417TIP3    H1 1215   5.772   0.575   5.578
  417TIP3    H2 1216   5.660   0.499   5.510
  418TIP3   OH2 1217   6.671   4.854   3.018
  418TIP3    H1 1218   6.627   4.939   3.020
  418TIP3    H2 1219   6.734   4.861   2.946
  419TIP3   OH2 1220   4.072   1.152   2.334
  419TIP3    H1 1221   4.127   1.166   2.411
  419TIP3    H2 1222   4.129   1.172   2.259
  420TIP3   OH2 1223   5.626   5.263   3.219
  420TIP3    H1 1224   5.626   5.216   3.135
  420TIP3    H2 1225   5.718   5.274   3.241
  421TIP3   OH2 1226   6.883   4.551   4.554
  421TIP3    H1 1227   6.847   4.488   4.618
  421TIP3    H2 1228   6.807   4.577   4.502
  422TIP3   OH2 1229   2.641   6.527   0.858
  422TIP3    H1 1230   2.579   6.532   0.786
  422TIP3    H2 1231   2.631   6.439   0.893
  423TIP3   OH2 1232   6.025   0.945   3.300
  423TIP3    H1 1233   5.942   0.988   3.278
  423TIP3    H2 1234   6.070   1.008   3.357
  424TIP3   OH2 1235   4.897   4.025   1.943
  424TIP3    H1 1236   4.973   4.068   1.903
  424TIP3    H2 1237   4.930   3.940   1.972
  425TIP3   OH2 1238   1.954   4.442   2.473
  425TIP3    H1 1239   1.968   4.409   2.562
  425TIP3    H2 1240   2.035   4.490   2.453
  426TIP3   OH2 1241   2.939   0.760   3.487
  426TIP3    H1 1242   2.939   0.767   3.392
  426TIP3    H2 1243   3.001   0.689   3.505
  427TIP3   OH2 1244   0.337   6.056   0.501
  427TIP3    H1 1245   0.387   6.115   0.558
  427TIP3    H2 1246   0.365   5.969   0.528
  428TIP3   OH2 1247   0.772   5.543   3.737
  428TIP3    H1 1248   0.814   5.509   3.816
  428TIP3    H2 1249   0.679   5.525   3.750
  429TIP3   OH2 1250   0.354   0.600   4.738
  429TIP3    H1 1251   0.266   0.604   4.775
  429TIP3    H2 1252   0.387   0.689   4.743
  430TIP3   OH2 1253   0.452   5.721   5.456
  430TIP3    H1 1254   0.456   5.659   5.528
  430TIP3    H2 1255   0.453   5.667   5.377
  431TIP3   OH2 1256   2.656   6.334   5.542
  431TIP3    H1 1257   2.574   6.308   5.582
  431TIP3    H2 1258   2.669   6.273   5.470
  432TIP3   OH2 1259   3.538   5.680   4.916
  432TIP3    H1 1260   3.466   5.668   4.978
  432TIP3    H2 1261   3.590   5.600   4.923
  433TIP3   OH2 1262   4.877   4.024   4.751
  433TIP3    H1 1263   4.895   3.952   4.691
  433TIP3    H2 1264   4.800   3.996   4.800
  434TIP3   OH2 1265   4.266   2.672   4.200
  434TIP3    H1 1266   4.300   2.583   4.192
  434TIP3    H2 1267   4.248   2.699   4.109
  435TIP3   OH2 1268   4.449   2.341   5.751
  435TIP3    H1 1269   4.424   2.248   5.749
  435TIP3    H2 1270   4.516   2.350   5.683
  436TIP3   OH2 1271   6.815   2.863   0.188
  436TIP3    H1 1272   6.812   2.783   0.240
  436TIP3    H2 1273   6.737   2.860   0.134
  437TIP3   OH2 1274   5.306   2.341   1.544
  437TIP3    H1 1275   5.382   2.283   1.536
  437TIP3    H2 1276   5.324   2.412   1.482
  438TIP3   OH2 1277   4.603   1.369   1.084
  438TIP3    H1 1278   4.574   1.454   1.117
  438TIP3    H2 1279   4.685   1.387   1.039
  439TIP3   OH2 1280   6.584   5.212   5.788
  439TIP3    H1 1281   6.509   5.205   5.730
  439TIP3    H2 1282   6.548   5.197   5.876
  440TIP3   OH2 1283   7.092   3.813   2.658
  440TIP3    H1 1284   7.096   3.755   2.733
  440TIP3    H2 1285   7.167   3.789   2.604
  441TIP3   OH2 1286   3.122   2.210   5.556
  441TIP3    H1 1287   3.043   2.219   5.609
  441TIP3    H2 1288   3.190   2.186   5.618
  442TIP3   OH2 1289   6.840   3.057   1.502
  442TIP3    H1 1290   6.845   2.963   1.484
  442TIP3    H2 1291   6.806   3.096   1.422
  443TIP3   OH2 1292   3.806   5.488   1.974
  443TIP3    H1 1293   3.770   5.457   2.057
  443TIP3    H2 1294   3.880   5.543   1.999
  444TIP3   OH2 1295   6.595   2.781   2.019
  444TIP3    H1 1296   6.629   2.780   1.929
  444TIP3    H2 1297   6.608   2.872   2.048
  445TIP3   OH2 1298   3.998   4.748   3.485
  445TIP3    H1 1299   4.049   4.709   3.557
  445TIP3    H2 1300   3.992   4.678   3.420
  446TIP3   OH2 1301   3.083   6.548   3.473
  446TIP3    H1 1302   3.161   6.559   3.528
  446TIP3    H2 1303   3.032   6.627   3.489
  447TIP3   OH2 1304   5.525   3.843   4.335
  447TIP3    H1 1305   5.455   3.884   4.284
  447TIP3    H2 1306   5.497   3.853   4.426
  448TIP3   OH2 1307   6.478   5.415   2.225
  448TIP3    H1 1308   6.454   5.391   2.136
  448TIP3    H2 1309   6.570   5.388   2.234
  449TIP3   OH2 1310   3.575   5.918   0.201
  449TIP3    H1 1311   3.641   5.965   0.250
  449TIP3    H2 1312   3.529   5.986   0.151
  450TIP3   OH2 1313   5.081   3.092   2.118
  450TIP3    H1 1314   5.069   3.014   2.064
  450TIP3    H2 1315   5.127   3.061   2.196
  451TIP3   OH2 1316   3.085   0.243   1.540
  451TIP3    H1 1317   2.990   0.247   1.549
  451TIP3    H2 1318   3.116   0.328   1.570
  452TIP3   OH2 1319   4.692   1.128   4.098
  452TIP3    H1 1320   4.667   1.036   4.100
  452TIP3    H2 1321   4.740   1.138   4.016
  453TIP3   OH2 1322   6.588   0.824   3.057
  453TIP3    H1 1323   6.614   0.733   3.076
  453TIP3    H2 1324   6.608   0.872   3.138
  454TIP3   OH2 1325   1.243   2.592   1.591
  454TIP3    H1 1326   1.295   2.657   1.544
  454TIP3    H2 1327   1.250   2.512   1.538
  455TIP3   OH2 1328   3.896   5.259   2.983
  455TIP3    H1 1329   3.891   5.182   2.927
  455TIP3    H2 1330   3.984   5.256   3.021
  456TIP3   OH2 1331   6.450   0.314   5.025
  456TIP3    H1 1332   6.527   0.301   5.079
  456TIP3    H2 1333   6.478   0.290   4.937
  457TIP3   OH2 1334   3.658   1.549   0.748
  457TIP3    H1 1335   3.600   1.568   0.822
  457TIP3    H2 1336   3.603   1.560   0.671
  458TIP3   OH2 1337   2.859   2.328   1.461
  458TIP3    H1 1338   2.835   2.252   1.408
  458TIP3    H2 1339   2.805   2.320   1.540
  459TIP3   OH2 1340   2.118   0.632   3.149
  459TIP3    H1 1341   2.129   0.540   3.173
  459TIP3    H2 1342   2.063   0.669   3.218
  460TIP3   OH2 1343   4.961   4.010   4.034
  460TIP3    H1 1344   4.889   4.064   4.068
  460TIP3    H2 1345   4.981   3.950   4.106
  461TIP3   OH2 1346   2.812   1.933   2.640
  461TIP3    H1 1347   2.828   1.952   2.732
  461TIP3    H2 1348   2.897   1.909   2.605
  462TIP3   OH2 1349   5.209   1.276   4.543
  462TIP3    H1 1350   5.225   1.236   4.628
  462TIP3    H2 1351   5.141   1.221   4.504
  463TIP3   OH2 1352   3.894   1.290   4.015
  463TIP3    H1 1353   3.983   1.264   3.992
  463TIP3    H2 1354   3.862   1.339   3.940
  464TIP3   OH2 1355   1.707   4.697   3.176
  464TIP3    H1 1356   1.637   4.752   3.210
  464TIP3    H2 1357   1.757   4.671   3.253
  465TIP3   OH2 1358   6.633   3.257   5.089
  465TIP3    H1 1359   6.671   3.202   5.020
  465TIP3    H2 1360   6.703   3.318   5.112
  466TIP3   OH2 1361   6.318   0.859   2.961
  466TIP3    H1 1362   6.296   0.951   2.978
  466TIP3    H2 1363   6.414   0.857   2.966
  467TIP3   OH2 1364   6.757   2.235   2.160
  467TIP3    H1 1365   6.716   2.305   2.110
  467TIP3    H2 1366   6.847   2.266   2.175
  468TIP3   OH2 1367   3.491   3.881   0.112
  468TIP3    H1 1368   3.427   3.857   0.044
  468TIP3    H2 1369   3.447   3.861   0.195
  469TIP3   OH2 1370   3.944   6.080   5.827
  469TIP3    H1 1371   4.035   6.062   5.850
  469TIP3    H2 1372   3.943   6.085   5.732
  470TIP3   OH2 1373   2.873   0.904   3.804
  470TIP3    H1 1374   2.816   0.832   3.832
  470TIP3    H2 1375   2.824   0.949   3.736
  471TIP3   OH2 1376   5.378   6.559   2.677
  471TIP3    H1 1377   5.337   6.475   2.655
  471TIP3    H2 1378   5.469   6.549   2.650
  472TIP3   OH2 1379   5.842   6.333   3.403
  472TIP3    H1 1380   5.791   6.284   3.467
  472TIP3    H2 1381   5.816   6.424   3.417
  473TIP3   OH2 1382   2.834   5.929   1.351
  473TIP3    H1 1383   2.906   5.868   1.340
  473TIP3    H2 1384   2.866   5.991   1.417
  474TIP3   OH2 1385   6.820   4.969   3.496
  474TIP3    H1 1386   6.885   5.027   3.456
  474TIP3    H2 1387   6.769   4.936   3.422
  475TIP3   OH2 1388   4.554   3.303   2.163
  475TIP3    H1 1389   4.500   3.280   2.088
  475TIP3    H2 1390   4.492   3.331   2.230
  476TIP3   OH2 1391   7.198   1.623   0.966
  476TIP3    H1 1392   7.216   1.565   0.892
  476TIP3    H2 1393   7.110   1.657   0.949
  477TIP3   OH2 1394   4.153   5.373   3.937
  477TIP3    H1 1395   4.073   5.423   3.922
  477TIP3    H2 1396   4.148   5.347   4.029
  478TIP3   OH2 1397   1.894   6.104   3.185
  478TIP3    H1 1398   1.951   6.146   3.120
  478TIP3    H2 1399   1.833   6.052   3.133
  479TIP3   OH2 1400   1.601   4.901   3.368
  479TIP3    H1 1401   1.556   4.875   3.448
  479TIP3    H2 1402   1.533   4.897   3.300
  480TIP3   OH2 1403   5.507   6.747   3.723
  480TIP3    H1 1404   5.444   6.718   3.789
  480TIP3    H2 1405   5.468   6.825   3.684
  481TIP3   OH2 1406   3.160   0.456   0.639
  481TIP3    H1 1407   3.235   0.428   0.586
  481TIP3    H2 1408   3.085   0.412   0.599
  482TIP3   OH2 1409   0.391   1.142   2.924
  482TIP3    H1 1410   0.334   1.137   3.001
  482TIP3    H2 1411   0.334   1.114   2.852
  483TIP3   OH2 1412   4.486   6.151   3.486
  483TIP3    H1 1413   4.524   6.099   3.557
  483TIP3    H2 1414   4.391   6.147   3.501
  484TIP3   OH2 1415   2.686   4.717   1.776
  484TIP3    H1 1416   2.773   4.725   1.739
  484TIP3    H2 1417   2.667   4.623   1.774
  485TIP3   OH2 1418   1.110   5.236   5.847
  485TIP3    H1 1419   1.050   5.206   5.779
  485TIP3    H2 1420   1.132   5.157   5.896
  486TIP3   OH2 1421   4.229   4.069   0.971
  486TIP3    H1 1422   4.141   4.096   0.996
  486TIP3    H2 1423   4.231   3.975   0.985
  487TIP3   OH2 1424   0.880   4.892   1.718
  487TIP3    H1 1425   0.938   4.911   1.644
  487TIP3    H2 1426   0.933   4.835   1.775
  488TIP3   OH2 1427   1.267   1.833   2.831
  488TIP3    H1 1428   1.202   1.892   2.794
  488TIP3    H2 1429   1.336   1.891   2.864
  489TIP3   OH2 1430   6.802   4.260   5.688
  489TIP3    H1 1431   6.801   4.351   5.718
  489TIP3    H2 1432   6.887   4.226   5.716
  490TIP3   OH2 1433   0.194   1.774   1.526
  490TIP3    H1 1434   0.181   1.868   1.530
  490TIP3    H2 1435   0.251   1.760   1.451
  491TIP3   OH2 1436   6.363   4.768   3.492
  491TIP3    H1 1437   6.368   4.672   3.490
  491TIP3    H2 1438   6.301   4.788   3.561
  492TIP3   OH2 1439   1.248   5.468   0.805
  492TIP3    H1 1440   1.262   5.463   0.900
  492TIP3    H2 1441   1.224   5.559   0.790
  493TIP3   OH2 1442   2.576   0.649   1.062
  493TIP3    H1 1443   2.616   0.715   1.004
  493TIP3    H2 1444   2.539   0.700   1.134
  494TIP3   OH2 1445   7.228   6.574   2.651
  494TIP3    H1 1446   7.243   6.663   2.617
  494TIP3    H2 1447   7.197   6.588   2.740
  495TIP3   OH2 1448   5.857   6.426   3.862
  495TIP3    H1 1449   5.883   6.476   3.939
  495TIP3    H2 1450   5.848   6.491   3.793
  496TIP3   OH2 1451   1.199   5.616   2.542
  496TIP3    H1 1452   1.197   5.593   2.449
  496TIP3    H2 1453   1.107   5.616   2.568
  497TIP3   OH2 1454   4.024   0.642   5.374
  497TIP3    H1 1455   4.091   0.689   5.323
  497TIP3    H2 1456   4.062   0.555   5.387
  498TIP3   OH2 1457   2.748   5.289   2.802
  498TIP3    H1 1458   2.804   5.319   2.873
  498TIP3    H2 1459   2.659   5.293   2.838
  499TIP3   OH2 1460   0.529   4.490   3.961
  499TIP3    H1 1461   0.488   4.525   4.040
  499TIP3    H2 1462   0.509   4.397   3.962
  500TIP3   OH2 1463   4.536   2.929   0.891
  500TIP3    H1 1464   4.456   2.932   0.944
  500TIP3    H2 1465   4.560   2.837   0.888
  501TIP3   OH2 1466   3.528   1.714   5.868
  501TIP3    H1 1467   3.607   1.675   5.831
  501TIP3    H2 1468   3.524   1.680   5.957
  502TIP3   OH2 1469   2.437   0.284   4.550
  502TIP3    H1 1470   2.362   0.295   4.492
  502TIP3    H2 1471   2.487   0.365   4.541
  503TIP3   OH2 1472   4.386   2.421   5.091
  503TIP3    H1 1473   4.477   2.443   5.071
  503TIP3    H2 1474   4.390   2.377   5.176
  504TIP3   OH2 1475   2.600   5.772   4.678
  504TIP3    H1 1476   2.684   5.739   4.647
  504TIP3    H2 1477   2.542   5.764   4.602
  505TIP3   OH2 1478   5.131   6.779   2.939
  505TIP3    H1 1479   5.133   6.872   2.963
  505TIP3    H2 1480   5.117   6.734   3.022
  506TIP3   OH2 1481   0.558   6.240   3.103
  506TIP3    H1 1482   0.597   6.161   3.065
  506TIP3    H2 1483   0.578   6.309   3.040
  507TIP3   OH2 1484   2.935   0.353   4.799
  507TIP3    H1 1485   2.893   0.424   4.751
  507TIP3    H2 1486   3.029   0.368   4.786
  508TIP3   OH2 1487   6.208   2.745   2.698
  508TIP3    H1 1488   6.208   2.724   2.605
  508TIP3    H2 1489   6.241   2.666   2.741
  509TIP3   OH2 1490   2.619   6.247   2.816
  509TIP3    H1 1491   2.559   6.247   2.741
  509TIP3    H2 1492   2.565   6.218   2.890
  510TIP3   OH2 1493   5.304   0.030   4.035
  510TIP3    H1 1494   5.290   0.003   3.944
  510TIP3    H2 1495   5.216   0.043   4.071
  511TIP3   OH2 1496   6.734   3.661   1.692
  511TIP3    H1 1497   6.717   3.635   1.602
  511TIP3    H2 1498   6.664   3.619   1.743
  512TIP3   OH2 1499   3.610   4.971   4.751
  512TIP3    H1 1500   3.615   4.959   4.657
  512TIP3    H2 1501   3.614   5.065   4.764
  513TIP3   OH2 1502   2.195   0.639   2.860
  513TIP3    H1 1503   2.119   0.666   2.911
  513TIP3    H2 1504   2.270   0.672   2.910
  514TIP3   OH2 1505   1.300   3.260   5.713
  514TIP3    H1 1506   1.237   3.314   5.760
  514TIP3    H2 1507   1.249   3.220   5.642
  515TIP3   OH2 1508   6.838   2.896   2.342
  515TIP3    H1 1509   6.854   2.824   2.281
  515TIP3    H2 1510   6.904   2.961   2.320
  516TIP3   OH2 1511   0.365   5.426   3.470
  516TIP3    H1 1512   0.424   5.368   3.422
  516TIP3    H2 1513   0.419   5.503   3.492
  517TIP3   OH2 1514   3.097   2.624   0.731
  517TIP3    H1 1515   3.183   2.598   0.698
  517TIP3    H2 1516   3.104   2.719   0.743
  518TIP3   OH2 1517   0.819   5.428   2.944
  518TIP3    H1 1518   0.755   5.484   2.902
  518TIP3    H2 1519   0.776   5.397   3.024
  519TIP3   OH2 1520   1.564   0.099   0.101
  519TIP3    H1 1521   1.478   0.126   0.071
  519TIP3    H2 1522   1.547   0.034   0.169
  520TIP3   OH2 1523   3.115   5.915   4.199
  520TIP3    H1 1524   3.155   5.989   4.246
  520TIP3    H2 1525   3.131   5.934   4.107
  521TIP3   OH2 1526   2.555   1.514   1.252
  521TIP3    H1 1527   2.550   1.553   1.165
  521TIP3    H2 1528   2.649   1.500   1.266
  522TIP3   OH2 1529   6.931   1.461   3.826
  522TIP3    H1 1530   6.999   1.507   3.874
  522TIP3    H2 1531   6.973   1.382   3.793
  523TIP3   OH2 1532   2.280   2.201   4.543
  523TIP3    H1 1533   2.333   2.126   4.568
  523TIP3    H2 1534   2.319   2.232   4.461
  524TIP3   OH2 1535   4.173   0.126   1.863
  524TIP3    H1 1536   4.253   0.099   1.817
  524TIP3    H2 1537   4.117   0.048   1.861
  525TIP3   OH2 1538   2.051   3.719   4.716
  525TIP3    H1 1539   2.068   3.724   4.622
  525TIP3    H2 1540   1.955   3.717   4.723
  526TIP3   OH2 1541   3.408   2.195   5.373
  526TIP3    H1 1542   3.465   2.267   5.398
  526TIP3    H2 1543   3.418   2.131   5.444
  527TIP3   OH2 1544   0.858   3.705   1.146
  527TIP3    H1 1545   0.771   3.718   1.109
  527TIP3    H2 1546   0.844   3.652   1.224
  528TIP3   OH2 1547   2.259   2.944   3.134
  528TIP3    H1 1548   2.338   2.929   3.082
  528TIP3    H2 1549   2.274   2.895   3.215
  529TIP3   OH2 1550   4.214   3.710   5.537
  529TIP3    H1 1551   4.152   3.698   5.610
  529TIP3    H2 1552   4.179   3.655   5.467
  530TIP3   OH2 1553   4.920   4.899   3.242
  530TIP3    H1 1554   4.844   4.952   3.263
  530TIP3    H2 1555   4.969   4.951   3.178
  531TIP3   OH2 1556   4.701   4.107   5.401
  531TIP3    H1 1557   4.696   4.020   5.362
  531TIP3    H2 1558   4.763   4.098   5.473
  532TIP3   OH2 1559   1.361   3.880   5.068
  532TIP3    H1 1560   1.295   3.814   5.045
  532TIP3    H2 1561   1.416   3.836   5.133
  533TIP3   OH2 1562   2.969   0.270   2.579
  533TIP3    H1 1563   2.926   0.277   2.665
  533TIP3    H2 1564   2.946   0.183   2.547
  534TIP3   OH2 1565   5.928   1.560   3.651
  534TIP3    H1 1566   5.925   1.613   3.731
  534TIP3    H2 1567   6.019   1.563   3.624
  535TIP3   OH2 1568   5.011   2.208   5.603
  535TIP3    H1 1569   5.076   2.191   5.672
  535TIP3    H2 1570   4.927   2.190   5.645
  536TIP3   OH2 1571   3.719  -0.033   0.193
  536TIP3    H1 1572   3.768   0.018   0.128
  536TIP3    H2 1573   3.669   0.033   0.242
  537TIP3   OH2 1574   0.188   0.423   0.379
  537TIP3    H1 1575   0.247   0.416   0.304
  537TIP3    H2 1576   0.169   0.517   0.386
  538TIP3   OH2 1577   4.178   0.441   1.487
  538TIP3    H1 1578   4.105   0.501   1.501
  538TIP3    H2 1579   4.225   0.439   1.570
  539TIP3   OH2 1580   6.994   4.799   3.879
  539TIP3    H1 1581   6.903   4.826   3.886
  539TIP3    H2 1582   7.011   4.793   3.785
  540TIP3   OH2 1583   0.402   5.823   1.756
  540TIP3    H1 1584   0.311   5.803   1.778
  540TIP3    H2 1585   0.406   5.919   1.758
  541TIP3   OH2 1586   0.492   0.144   2.487
  541TIP3    H1 1587   0.543   0.080   2.439
  541TIP3    H2 1588   0.484   0.107   2.575
  542TIP3   OH2 1589   3.169   3.177   1.719
  542TIP3    H1 1590   3.170   3.115   1.792
  542TIP3    H2 1591   3.232   3.141   1.656
  543TIP3   OH2 1592   1.290   2.392   1.412
  543TIP3    H1 1593   1.295   2.297   1.407
  543TIP3    H2 1594   1.330   2.423   1.331
  544TIP3   OH2 1595   3.488   5.865   1.447
  544TIP3    H1 1596   3.517   5.806   1.516
  544TIP3    H2 1597   3.433   5.810   1.391
  545TIP3   OH2 1598   4.375   6.694   0.891
  545TIP3    H1 1599   4.310   6.659   0.952
  545TIP3    H2 1600   4.333   6.772   0.854
  546TIP3   OH2 1601   4.875   5.523   2.473
  546TIP3    H1 1602   4.877   5.552   2.565
  546TIP3    H2 1603   4.911   5.434   2.475
  547TIP3   OH2 1604   2.290   3.909   3.140
  547TIP3    H1 1605   2.223   3.843   3.161
  547TIP3    H2 1606   2.315   3.890   3.050
  548TIP3   OH2 1607   2.939   4.732   4.573
  548TIP3    H1 1608   2.975   4.643   4.572
  548TIP3    H2 1609   2.855   4.724   4.528
  549TIP3   OH2 1610   5.681   0.431   0.124
  549TIP3    H1 1611   5.646   0.391   0.204
  549TIP3    H2 1612   5.606   0.437   0.065
  550TIP3   OH2 1613   3.237   0.797   3.082
  550TIP3    H1 1614   3.281   0.859   3.023
  550TIP3    H2 1615   3.230   0.716   3.031
  551TIP3   OH2 1616   1.757   5.700   5.790
  551TIP3    H1 1617   1.733   5.772   5.847
  551TIP3    H2 1618   1.687   5.635   5.802
  552TIP3   OH2 1619   2.417   1.103   4.239
  552TIP3    H1 1620   2.505   1.068   4.247
  552TIP3    H2 1621   2.413   1.173   4.304
  553TIP3   OH2 1622  -0.061   4.259   4.810
  553TIP3    H1 1623  -0.071   4.334   4.869
  553TIP3    H2 1624   0.010   4.208   4.848
  554TIP3   OH2 1625   1.735   2.850   4.250
  554TIP3    H1 1626   1.656   2.835   4.301
  554TIP3    H2 1627   1.807   2.827   4.309
  555TIP3   OH2 1628   4.850   6.072   2.291
  555TIP3    H1 1629   4.829   6.133   2.362
  555TIP3    H2 1630   4.910   6.009   2.330
  556TIP3   OH2 1631   0.782   4.765   0.721
  556TIP3    H1 1632   0.801   4.686   0.771
  556TIP3    H2 1633   0.825   4.752   0.637
  557TIP3   OH2 1634   6.075   3.177   0.191
  557TIP3    H1 1635   6.037   3.255   0.232
  557TIP3    H2 1636   6.044   3.180   0.100
  558TIP3   OH2 1637   4.985   0.082   2.895
  558TIP3    H1 1638   4.990   0.002   2.947
  558TIP3    H2 1639   5.077   0.102   2.873
  559TIP3   OH2 1640   4.962   1.052   1.397
  559TIP3    H1 1641   5.005   0.992   1.457
  559TIP3    H2 1642   4.870   1.025   1.398
  560TIP3   OH2 1643   4.004   3.567   2.050
  560TIP3    H1 1644   4.005   3.485   2.100
  560TIP3    H2 1645   3.912   3.591   2.045
  561TIP3   OH2 1646   3.256   2.986   3.591
  561TIP3    H1 1647   3.168   2.962   3.619
  561TIP3    H2 1648   3.313   2.925   3.638
  562TIP3   OH2 1649   5.199   3.807   3.542
  562TIP3    H1 1650   5.216   3.713   3.535
  562TIP3    H2 1651   5.165   3.818   3.631
  563TIP3   OH2 1652   3.189   4.170   2.461
  563TIP3    H1 1653   3.221   4.258   2.441
  563TIP3    H2 1654   3.268   4.116   2.463
  564TIP3   OH2 1655   0.692   4.891   5.145
  564TIP3    H1 1656   0.622   4.897   5.209
  564TIP3    H2 1657   0.711   4.982   5.121
  565TIP3   OH2 1658   3.317   5.697   1.314
  565TIP3    H1 1659   3.297   5.626   1.376
  565TIP3    H2 1660   3.258   5.682   1.240
  566TIP3   OH2 1661   4.121   0.087   3.129
  566TIP3    H1 1662   4.194   0.113   3.074
  566TIP3    H2 1663   4.115  -0.007   3.119
  567TIP3   OH2 1664   5.321   1.445   0.076
  567TIP3    H1 1665   5.404   1.419   0.036
  567TIP3    H2 1666   5.314   1.391   0.155
  568TIP3   OH2 1667   4.087   0.118   1.264
  568TIP3    H1 1668   4.147   0.052   1.230
  568TIP3    H2 1669   4.106   0.121   1.358
  569TIP3   OH2 1670   2.222   5.619   2.012
  569TIP3    H1 1671   2.306   5.661   2.027
  569TIP3    H2 1672   2.239   5.525   2.025
  570TIP3   OH2 1673   6.720   0.477   1.992
  570TIP3    H1 1674   6.656   0.469   1.922
  570TIP3    H2 1675   6.673   0.521   2.063
  571TIP3   OH2 1676   2.068   5.545   4.969
  571TIP3    H1 1677   2.161   5.535   4.990
  571TIP3    H2 1678   2.026   5.562   5.053
  572TIP3   OH2 1679   2.618   4.052   4.541
  572TIP3    H1 1680   2.581   4.083   4.459
  572TIP3    H2 1681   2.544   4.012   4.587
  573TIP3   OH2 1682   3.865   5.469   0.164
  573TIP3    H1 1683   3.947   5.430   0.131
  573TIP3    H2 1684   3.880   5.563   0.160
  574TIP3   OH2 1685   2.252   2.723   4.696
  574TIP3    H1 1686   2.294   2.798   4.737
  574TIP3    H2 1687   2.176   2.705   4.751
  575TIP3   OH2 1688   0.379   0.893   4.011
  575TIP3    H1 1689   0.403   0.803   4.033
  575TIP3    H2 1690   0.444   0.947   4.056
  576TIP3   OH2 1691   2.973   1.246   1.719
  576TIP3    H1 1692   2.984   1.232   1.813
  576TIP3    H2 1693   2.943   1.337   1.712
  577TIP3   OH2 1694   5.436   4.437   3.425
  577TIP3    H1 1695   5.356   4.422   3.376
  577TIP3    H2 1696   5.492   4.363   3.403
  578TIP3   OH2 1697   6.406   4.535   3.607
  578TIP3    H1 1698   6.493   4.526   3.646
  578TIP3    H2 1699   6.375   4.445   3.596
  579TIP3   OH2 1700   2.916   2.702   1.397
  579TIP3    H1 1701   2.850   2.713   1.466
  579TIP3    H2 1702   2.988   2.759   1.424
  580TIP3   OH2 1703   5.869   4.883   4.756
  580TIP3    H1 1704   5.832   4.913   4.673
  580TIP3    H2 1705   5.936   4.819   4.731
  581TIP3   OH2 1706   4.263   5.259   1.783
  581TIP3    H1 1707   4.333   5.223   1.837
  581TIP3    H2 1708   4.244   5.345   1.822
  582TIP3   OH2 1709   5.151   4.579   5.520
  582TIP3    H1 1710   5.219   4.609   5.460
  582TIP3    H2 1711   5.071   4.582   5.469
  583TIP3   OH2 1712   4.307   1.966   5.493
  583TIP3    H1 1713   4.249   1.919   5.434
  583TIP3    H2 1714   4.272   2.055   5.496
  584TIP3   OH2 1715   0.669   5.583   2.737
  584TIP3    H1 1716   0.581   5.599   2.704
  584TIP3    H2 1717   0.705   5.670   2.753
  585TIP3   OH2 1718   3.743   3.602   0.667
  585TIP3    H1 1719   3.835   3.591   0.642
  585TIP3    H2 1720   3.694   3.585   0.586
  586TIP3   OH2 1721   3.326   3.986   5.676
  586TIP3    H1 1722   3.419   4.008   5.688
  586TIP3    H2 1723   3.327   3.910   5.619
  587TIP3   OH2 1724   1.041   5.906   2.047
  587TIP3    H1 1725   0.973   5.956   2.092
  587TIP3    H2 1726   1.102   5.973   2.014
  588TIP3   OH2 1727   6.127   5.311   0.693
  588TIP3    H1 1728   6.220   5.291   0.709
  588TIP3    H2 1729   6.128   5.394   0.646
  589TIP3   OH2 1730   2.335   1.852   1.723
  589TIP3    H1 1731   2.375   1.766   1.717
  589TIP3    H2 1732   2.324   1.868   1.817
  590TIP3   OH2 1733   6.963   3.803   0.030
  590TIP3    H1 1734   7.050   3.842   0.020
  590TIP3    H2 1735   6.967   3.724  -0.025
  591TIP3   OH2 1736   5.278   1.302   0.308
  591TIP3    H1 1737   5.293   1.211   0.284
  591TIP3    H2 1738   5.257   1.299   0.402
  592TIP3   OH2 1739   0.062   6.610   5.177
  592TIP3    H1 1740   0.084   6.540   5.238
  592TIP3    H2 1741   0.137   6.670   5.181
  593TIP3   OH2 1742   0.768   2.772   1.501
  593TIP3    H1 1743   0.727   2.719   1.433
  593TIP3    H2 1744   0.817   2.839   1.453
  594TIP3   OH2 1745   0.984   3.594   2.232
  594TIP3    H1 1746   0.949   3.640   2.156
  594TIP3    H2 1747   0.919   3.607   2.301
  595TIP3   OH2 1748   3.160   5.766   5.696
  595TIP3    H1 1749   3.089   5.805   5.644
  595TIP3    H2 1750   3.229   5.748   5.633
  596TIP3   OH2 1751   0.373   6.359   5.039
  596TIP3    H1 1752   0.443   6.355   4.975
  596TIP3    H2 1753   0.386   6.443   5.084
  597TIP3   OH2 1754   5.345   4.775   5.408
  597TIP3    H1 1755   5.339   4.803   5.500
  597TIP3    H2 1756   5.379   4.851   5.362
  598TIP3   OH2 1757   0.721   3.873   3.623
  598TIP3    H1 1758   0.799   3.859   3.570
  598TIP3    H2 1759   0.752   3.919   3.701
  599TIP3   OH2 1760   0.349   3.852   5.206
  599TIP3    H1 1761   0.401   3.782   5.167
  599TIP3    H2 1762   0.272   3.859   5.149
  600TIP3   OH2 1763   2.461   1.943   1.052
  600TIP3    H1 1764   2.470   2.000   1.129
  600TIP3    H2 1765   2.488   1.999   0.978
  601TIP3   OH2 1766   5.712   1.469   2.118
  601TIP3    H1 1767   5.777   1.526   2.157
  601TIP3    H2 1768   5.640   1.467   2.181
  602TIP3   OH2 1769   3.111   0.511   2.625
  602TIP3    H1 1770   3.052   0.436   2.633
  602TIP3    H2 1771   3.123   0.523   2.530
  603TIP3   OH2 1772   3.151   3.652   4.521
  603TIP3    H1 1773   3.236   3.675   4.559
  603TIP3    H2 1774   3.110   3.736   4.501
  604TIP3   OH2 1775   6.658   3.666   3.101
  604TIP3    H1 1776   6.724   3.660   3.170
  604TIP3    H2 1777   6.682   3.744   3.051
  605TIP3   OH2 1778   2.617   5.582   0.463
  605TIP3    H1 1779   2.648   5.664   0.424
  605TIP3    H2 1780   2.635   5.592   0.557
  606TIP3   OH2 1781   5.347   2.222   5.445
  606TIP3    H1 1782   5.426   2.275   5.432
  606TIP3    H2 1783   5.364   2.171   5.523
  607TIP3   OH2 1784   0.113   1.977   3.541
  607TIP3    H1 1785   0.124   1.978   3.636
  607TIP3    H2 1786   0.085   2.067   3.520
  608TIP3   OH2 1787   6.026   4.767   4.160
  608TIP3    H1 1788   6.108   4.807   4.190
  608TIP3    H2 1789   6.054   4.693   4.106
  609TIP3   OH2 1790   4.678   0.782   5.731
  609TIP3    H1 1791   4.596   0.827   5.750
  609TIP3    H2 1792   4.664   0.740   5.647
  610TIP3   OH2 1793   3.881   2.451   1.523
  610TIP3    H1 1794   3.839   2.434   1.607
  610TIP3    H2 1795   3.863   2.373   1.470
  611TIP3   OH2 1796   0.743   4.040   4.761
  611TIP3    H1 1797   0.722   4.017   4.852
  611TIP3    H2 1798   0.805   4.113   4.768
  612TIP3   OH2 1799   3.082   6.346   0.524
  612TIP3    H1 1800   3.129   6.427   0.544
  612TIP3    H2 1801   3.087   6.295   0.605
  613TIP3   OH2 1802   4.344   0.196   4.024
  613TIP3    H1 1803   4.304   0.196   3.936
  613TIP3    H2 1804   4.377   0.285   4.034
  614TIP3   OH2 1805   3.421   0.308   1.691
  614TIP3    H1 1806   3.359   0.368   1.733
  614TIP3    H2 1807   3.473   0.273   1.763
  615TIP3   OH2 1808   5.911   4.398   0.992
  615TIP3    H1 1809   5.950   4.311   0.989
  615TIP3    H2 1810   5.983   4.457   0.973
  616TIP3   OH2 1811   5.929   3.547   0.615
  616TIP3    H1 1812   5.875   3.607   0.665
  616TIP3    H2 1813   5.978   3.497   0.681
  617TIP3   OH2 1814   2.154   6.671   2.833
  617TIP3    H1 1815   2.208   6.736   2.878
  617TIP3    H2 1816   2.185   6.672   2.742
  618TIP3   OH2 1817   0.932   4.454   2.754
  618TIP3    H1 1818   0.886   4.455   2.670
  618TIP3    H2 1819   0.876   4.400   2.811
  619TIP3   OH2 1820   3.084   2.317   3.638
  619TIP3    H1 1821   3.036   2.359   3.567
  619TIP3    H2 1822   3.174   2.347   3.628
  620TIP3   OH2 1823   1.945   2.060   5.327
  620TIP3    H1 1824   2.022   2.113   5.347
  620TIP3    H2 1825   1.951   2.044   5.232
  621TIP3   OH2 1826   1.801   2.631   5.385
  621TIP3    H1 1827   1.804   2.720   5.420
  621TIP3    H2 1828   1.849   2.579   5.450
  622TIP3   OH2 1829   5.917   1.610   1.038
  622TIP3    H1 1830   5.986   1.546   1.027
  622TIP3    H2 1831   5.910   1.653   0.953
  623TIP3   OH2 1832   1.928   6.301   3.714
  623TIP3    H1 1833   2.013   6.272   3.679
  623TIP3    H2 1834   1.872   6.224   3.708
  624TIP3   OH2 1835   3.681   4.702   1.476
  624TIP3    H1 1836   3.598   4.744   1.500
  624TIP3    H2 1837   3.743   4.732   1.542
  625TIP3   OH2 1838   5.375   3.133   2.042
  625TIP3    H1 1839   5.336   3.204   2.093
  625TIP3    H2 1840   5.300   3.084   2.007
  626TIP3   OH2 1841   6.052   0.909   5.307
  626TIP3    H1 1842   5.998   0.830   5.308
  626TIP3    H2 1843   6.115   0.894   5.236
  627TIP3   OH2 1844   4.568   6.235   1.431
  627TIP3    H1 1845   4.529   6.288   1.362
  627TIP3    H2 1846   4.579   6.148   1.391
  628TIP3   OH2 1847   4.325   2.477   0.071
  628TIP3    H1 1848   4.357   2.552   0.021
  628TIP3    H2 1849   4.243   2.508   0.109
  629TIP3   OH2 1850   1.609   4.813   4.407
  629TIP3    H1 1851   1.589   4.899   4.444
  629TIP3    H2 1852   1.657   4.833   4.326
  630TIP3   OH2 1853   0.739   2.047   1.812
  630TIP3    H1 1854   0.676   1.996   1.862
  630TIP3    H2 1855   0.793   2.090   1.878
  631TIP3   OH2 1856   5.261   2.013   0.768
  631TIP3    H1 1857   5.168   2.014   0.792
  631TIP3    H2 1858   5.281   2.104   0.746
  632TIP3   OH2 1859   4.082   6.762   4.650
  632TIP3    H1 1860   4.158   6.779   4.706
  632TIP3    H2 1861   4.120   6.733   4.567
  633TIP3   OH2 1862   5.781   0.984   5.042
  633TIP3    H1 1863   5.764   1.075   5.066
  633TIP3    H2 1864   5.851   0.989   4.977
  634TIP3   OH2 1865   1.479   2.529   4.832
  634TIP3    H1 1866   1.520   2.448   4.863
  634TIP3    H2 1867   1.551   2.592   4.827
  635TIP3   OH2 1868   5.760   2.491   3.266
  635TIP3    H1 1869   5.799   2.436   3.198
  635TIP3    H2 1870   5.798   2.459   3.348
  636TIP3   OH2 1871   3.667   3.060   4.461
  636TIP3    H1 1872   3.652   3.035   4.552
  636TIP3    H2 1873   3.759   3.040   4.445
  637TIP3   OH2 1874   5.179   6.734   4.999
  637TIP3    H1 1875   5.197   6.679   5.075
  637TIP3    H2 1876   5.097   6.777   5.019
  638TIP3   OH2 1877   0.066   3.220   5.712
  638TIP3    H1 1878   0.019   3.141   5.688
  638TIP3    H2 1879  -0.001   3.276   5.753
  639TIP3   OH2 1880   4.664   3.510   4.341
  639TIP3    H1 1881   4.684   3.422   4.311
  639TIP3    H2 1882   4.711   3.567   4.280
  640TIP3   OH2 1883   4.365   0.555   2.459
  640TIP3    H1 1884   4.453   0.530   2.488
  640TIP3    H2 1885   4.380   0.604   2.378
  641TIP3   OH2 1886   5.272   1.149   1.180
  641TIP3    H1 1887   5.265   1.104   1.264
  641TIP3    H2 1888   5.355   1.119   1.143
  642TIP3   OH2 1889   6.207   3.737   2.145
  642TIP3    H1 1890   6.296   3.702   2.147
  642TIP3    H2 1891   6.199   3.780   2.060
  643TIP3   OH2 1892   1.298   3.374   0.273
  643TIP3    H1 1893   1.265   3.323   0.346
  643TIP3    H2 1894   1.244   3.453   0.273
  644TIP3   OH2 1895   2.190   4.143   5.342
  644TIP3    H1 1896   2.164   4.188   5.261
  644TIP3    H2 1897   2.266   4.192   5.373
  645TIP3   OH2 1898   5.885   0.166   1.980
  645TIP3    H1 1899   5.970   0.163   2.023
  645TIP3    H2 1900   5.894   0.110   1.903
  646TIP3   OH2 1901   5.660   3.792   5.815
  646TIP3    H1 1902   5.749   3.826   5.810
  646TIP3    H2 1903   5.609   3.863   5.854
  647TIP3   OH2 1904   3.854   1.347   4.727
  647TIP3    H1 1905   3.766   1.333   4.760
  647TIP3    H2 1906   3.888   1.259   4.709
  648TIP3   OH2 1907   0.572   4.636   2.970
  648TIP3    H1 1908   0.512   4.593   3.031
  648TIP3    H2 1909   0.647   4.578   2.966
  649TIP3   OH2 1910   0.523   6.112   4.760
  649TIP3    H1 1911   0.466   6.098   4.685
  649TIP3    H2 1912   0.464   6.110   4.836
  650TIP3   OH2 1913   6.325   6.303   5.607
  650TIP3    H1 1914   6.318   6.393   5.640
  650TIP3    H2 1915   6.418   6.293   5.584
  651TIP3   OH2 1916   2.070   0.539   4.781
  651TIP3    H1 1917   2.089   0.633   4.776
  651TIP3    H2 1918   2.157   0.498   4.786
  652TIP3   OH2 1919   4.047   1.902   0.945
  652TIP3    H1 1920   4.054   1.806   0.946
  652TIP3    H2 1921   4.120   1.931   0.891
  653TIP3   OH2 1922   5.681   5.315   4.066
  653TIP3    H1 1923   5.658   5.407   4.080
  653TIP3    H2 1924   5.773   5.317   4.041
  654TIP3   OH2 1925   2.036   2.378   4.223
  654TIP3    H1 1926   2.029   2.321   4.146
  654TIP3    H2 1927   1.993   2.329   4.293
  655TIP3   OH2 1928   5.406   2.753   5.529
  655TIP3    H1 1929   5.401   2.750   5.433
  655TIP3    H2 1930   5.401   2.846   5.550
  656TIP3   OH2 1931   2.587   5.946   1.667
  656TIP3    H1 1932   2.674   5.911   1.684
  656TIP3    H2 1933   2.553   5.969   1.753
  657TIP3   OH2 1934   4.750   4.142   5.095
  657TIP3    H1 1935   4.731   4.182   5.180
  657TIP3    H2 1936   4.844   4.151   5.085
  658TIP3   OH2 1937   3.226   4.870   3.746
  658TIP3    H1 1938   3.241   4.795   3.804
  658TIP3    H2 1939   3.174   4.834   3.674
  659TIP3   OH2 1940   4.843   4.772   5.034
  659TIP3    H1 1941   4.906   4.737   4.971
  659TIP3    H2 1942   4.890   4.842   5.079
  660TIP3   OH2 1943   1.739   3.043   2.358
  660TIP3    H1 1944   1.660   3.096   2.371
  660TIP3    H2 1945   1.797   3.069   2.430
  661TIP3   OH2 1946   5.495   2.246   4.954
  661TIP3    H1 1947   5.582   2.207   4.958
  661TIP3    H2 1948   5.460   2.238   5.043
  662TIP3   OH2 1949   0.569   3.387   1.159
  662TIP3    H1 1950   0.492   3.444   1.169
  662TIP3    H2 1951   0.550   3.310   1.212
  663TIP3   OH2 1952   1.994   0.675   3.647
  663TIP3    H1 1953   1.980   0.601   3.705
  663TIP3    H2 1954   2.011   0.636   3.561
  664TIP3   OH2 1955   6.081   1.193   5.154
  664TIP3    H1 1956   6.106   1.285   5.167
  664TIP3    H2 1957   6.005   1.181   5.211
  665TIP3   OH2 1958   3.921   2.669   5.143
  665TIP3    H1 1959   4.016   2.658   5.142
  665TIP3    H2 1960   3.907   2.763   5.130
  666TIP3   OH2 1961   2.859   0.983   2.869
  666TIP3    H1 1962   2.888   0.893   2.858
  666TIP3    H2 1963   2.915   1.034   2.810
  667TIP3   OH2 1964   1.002   6.694   1.006
  667TIP3    H1 1965   1.056   6.615   1.005
  667TIP3    H2 1966   0.950   6.686   1.086
  668TIP3   OH2 1967   4.594   0.159   1.974
  668TIP3    H1 1968   4.665   0.184   2.033
  668TIP3    H2 1969   4.519   0.145   2.032
  669TIP3   OH2 1970   2.561   3.893   1.970
  669TIP3    H1 1971   2.569   3.841   2.050
  669TIP3    H2 1972   2.608   3.974   1.989
  670TIP3   OH2 1973   6.635   5.477   3.001
  670TIP3    H1 1974   6.655   5.391   2.964
  670TIP3    H2 1975   6.562   5.509   2.949
  671TIP3   OH2 1976   2.931   3.982   2.993
  671TIP3    H1 1977   2.953   3.942   3.077
  671TIP3    H2 1978   2.889   4.065   3.016
  672TIP3   OH2 1979   2.926   4.852   0.253
  672TIP3    H1 1980   2.870   4.890   0.320
  672TIP3    H2 1981   2.875   4.859   0.172
  673TIP3   OH2 1982   0.836   0.782   1.189
  673TIP3    H1 1983   0.809   0.860   1.239
  673TIP3    H2 1984   0.898   0.737   1.246
  674TIP3   OH2 1985   5.855   5.384   4.401
  674TIP3    H1 1986   5.927   5.368   4.340
  674TIP3    H2 1987   5.870   5.323   4.473
  675TIP3   OH2 1988   7.042   5.545   0.468
  675TIP3    H1 1989   6.949   5.563   0.450
  675TIP3    H2 1990   7.083   5.543   0.381
  676TIP3   OH2 1991   3.589   5.986   2.713
  676TIP3    H1 1992   3.538   5.907   2.732
  676TIP3    H2 1993   3.651   5.959   2.646
  677TIP3   OH2 1994   6.017   6.700   4.645
  677TIP3    H1 1995   5.953   6.748   4.592
  677TIP3    H2 1996   6.007   6.609   4.619
  678TIP3   OH2 1997   3.481   3.302   4.473
  678TIP3    H1 1998   3.432   3.222   4.451
  678TIP3    H2 1999   3.547   3.309   4.404
  679TIP3   OH2 2000   0.865   5.635   4.842
  679TIP3    H1 2001   0.905   5.717   4.869
  679TIP3    H2 2002   0.803   5.614   4.912
  680TIP3   OH2 2003   1.028   5.884   1.478
  680TIP3    H1 2004   0.976   5.853   1.552
  680TIP3    H2 2005   0.986   5.966   1.453
  681TIP3   OH2 2006   6.889   3.887   1.779
  681TIP3    H1 2007   6.897   3.981   1.759
  681TIP3    H2 2008   6.851   3.850   1.699
  682TIP3   OH2 2009   2.895   2.533   3.495
  682TIP3    H1 2010   2.825   2.534   3.560
  682TIP3    H2 2011   2.960   2.595   3.528
  683TIP3   OH2 2012   4.921   2.429   5.795
  683TIP3    H1 2013   4.849   2.489   5.812
  683TIP3    H2 2014   4.955   2.455   5.709
  684TIP3   OH2 2015   4.409   0.489   4.400
  684TIP3    H1 2016   4.455   0.484   4.484
  684TIP3    H2 2017   4.320   0.459   4.419
  685TIP3   OH2 2018   0.996   1.688   5.400
  685TIP3    H1 2019   1.048   1.753   5.352
  685TIP3    H2 2020   1.038   1.604   5.379
  686TIP3   OH2 2021   0.598   3.843   2.161
  686TIP3    H1 2022   0.658   3.789   2.109
  686TIP3    H2 2023   0.534   3.780   2.194
  687TIP3   OH2 2024   2.185   3.151   3.493
  687TIP3    H1 2025   2.215   3.240   3.511
  687TIP3    H2 2026   2.127   3.131   3.567
  688TIP3   OH2 2027   2.492   5.318   2.868
  688TIP3    H1 2028   2.451   5.387   2.920
  688TIP3    H2 2029   2.459   5.333   2.779
  689TIP3   OH2 2030   3.026   1.763   0.465
  689TIP3    H1 2031   3.070   1.790   0.546
  689TIP3    H2 2032   3.000   1.673   0.481
  690TIP3   OH2 2033   3.335   0.138   3.561
  690TIP3    H1 2034   3.425   0.110   3.574
  690TIP3    H2 2035   3.315   0.191   3.638
  691TIP3   OH2 2036   3.401   4.100   1.681
  691TIP3    H1 2037   3.338   4.089   1.752
  691TIP3    H2 2038   3.372   4.037   1.614
  692TIP3   OH2 2039   6.565   6.544   4.837
  692TIP3    H1 2040   6.575   6.632   4.801
  692TIP3    H2 2041   6.655   6.511   4.844
  693TIP3   OH2 2042   3.593   0.966   0.971
  693TIP3    H1 2043   3.617   0.983   1.062
  693TIP3    H2 2044   3.577   1.053   0.934
  694TIP3   OH2 2045   1.173   1.539   5.812
  694TIP3    H1 2046   1.097   1.576   5.767
  694TIP3    H2 2047   1.241   1.535   5.744
  695TIP3   OH2 2048   3.987   6.099   4.156
  695TIP3    H1 2049   4.004   6.074   4.247
  695TIP3    H2 2050   4.062   6.153   4.131
  696TIP3   OH2 2051   6.531   4.166   0.552
  696TIP3    H1 2052   6.555   4.103   0.484
  696TIP3    H2 2053   6.499   4.112   0.624
  697TIP3   OH2 2054   6.745   3.575   5.199
  697TIP3    H1 2055   6.840   3.583   5.191
  697TIP3    H2 2056   6.719   3.524   5.122
  698TIP3   OH2 2057   2.158   5.468   4.661
  698TIP3    H1 2058   2.226   5.454   4.596
  698TIP3    H2 2059   2.148   5.564   4.664
  699TIP3   OH2 2060   0.493   4.825   2.288
  699TIP3    H1 2061   0.539   4.822   2.204
  699TIP3    H2 2062   0.543   4.889   2.340
  700TIP3   OH2 2063   6.521   5.626   2.555
  700TIP3    H1 2064   6.587   5.565   2.587
  700TIP3    H2 2065   6.571   5.706   2.536
  701TIP3   OH2 2066   6.623   0.202   3.277
  701TIP3    H1 2067   6.587   0.248   3.201
  701TIP3    H2 2068   6.650   0.117   3.243
  702TIP3   OH2 2069   1.625   3.758   5.299
  702TIP3    H1 2070   1.687   3.708   5.352
  702TIP3    H2 2071   1.555   3.696   5.278
  703TIP3   OH2 2072   4.832   1.412   2.341
  703TIP3    H1 2073   4.747   1.380   2.370
  703TIP3    H2 2074   4.878   1.434   2.422
  704TIP3   OH2 2075   6.241   0.069   5.370
  704TIP3    H1 2076   6.289   0.056   5.288
  704TIP3    H2 2077   6.157   0.107   5.343
  705TIP3   OH2 2078   1.431   6.728   3.334
  705TIP3    H1 2079   1.517   6.694   3.359
  705TIP3    H2 2080   1.441   6.754   3.242
  706TIP3   OH2 2081   2.152   3.401   2.102
  706TIP3    H1 2082   2.243   3.381   2.081
  706TIP3    H2 2083   2.148   3.496   2.105
  707TIP3   OH2 2084   2.699   6.488   3.282
  707TIP3    H1 2085   2.631   6.556   3.287
  707TIP3    H2 2086   2.728   6.477   3.373
  708TIP3   OH2 2087   6.796   3.208   4.331
  708TIP3    H1 2088   6.809   3.244   4.243
  708TIP3    H2 2089   6.739   3.133   4.317
  709TIP3   OH2 2090   4.164   5.548   4.352
  709TIP3    H1 2091   4.177   5.594   4.269
  709TIP3    H2 2092   4.233   5.583   4.409
  710TIP3   OH2 2093   5.178   0.247   3.668
  710TIP3    H1 2094   5.152   0.302   3.594
  710TIP3    H2 2095   5.138   0.288   3.744
  711TIP3   OH2 2096   2.681   6.708   3.057
  711TIP3    H1 2097   2.699   6.730   3.148
  711TIP3    H2 2098   2.748   6.644   3.034
  712TIP3   OH2 2099   7.160   2.967   1.544
  712TIP3    H1 2100   7.173   3.012   1.460
  712TIP3    H2 2101   7.176   3.034   1.610
  713TIP3   OH2 2102   0.139   4.156   5.538
  713TIP3    H1 2103   0.165   4.140   5.629
  713TIP3    H2 2104   0.221   4.157   5.490
  714TIP3   OH2 2105   0.082   5.518   2.458
  714TIP3    H1 2106   0.127   5.496   2.376
  714TIP3    H2 2107   0.115   5.605   2.480
  715TIP3   OH2 2108   5.584   2.017   2.709
  715TIP3    H1 2109   5.675   2.037   2.728
  715TIP3    H2 2110   5.534   2.057   2.780
  716TIP3   OH2 2111   2.286   3.394   3.493
  716TIP3    H1 2112   2.364   3.387   3.438
  716TIP3    H2 2113   2.319   3.430   3.576
  717TIP3   OH2 2114   1.519   6.597   4.824
  717TIP3    H1 2115   1.464   6.673   4.841
  717TIP3    H2 2116   1.459   6.531   4.787
  718TIP3   OH2 2117   3.163   1.430   2.478
  718TIP3    H1 2118   3.185   1.340   2.454
  718TIP3    H2 2119   3.154   1.428   2.573
  719TIP3   OH2 2120   4.607   4.362   0.704
  719TIP3    H1 2121   4.583   4.451   0.678
  719TIP3    H2 2122   4.524   4.322   0.730
  720TIP3   OH2 2123   5.029   6.523   0.772
  720TIP3    H1 2124   5.033   6.604   0.822
  720TIP3    H2 2125   4.944   6.526   0.728
  721TIP3   OH2 2126   5.585   4.390   2.662
  721TIP3    H1 2127   5.557   4.300   2.646
  721TIP3    H2 2128   5.665   4.382   2.714
  722TIP3   OH2 2129   0.479   3.344   1.915
  722TIP3    H1 2130   0.538   3.420   1.913
  722TIP3    H2 2131   0.468   3.325   2.008
  723TIP3   OH2 2132   4.070   4.701   4.572
  723TIP3    H1 2133   4.113   4.633   4.624
  723TIP3    H2 2134   4.004   4.738   4.631
  724TIP3   OH2 2135   6.504   4.693   1.127
  724TIP3    H1 2136   6.497   4.618   1.069
  724TIP3    H2 2137   6.543   4.658   1.207
  725TIP3   OH2 2138   4.042   2.708   1.629
  725TIP3    H1 2139   3.973   2.652   1.592
  725TIP3    H2 2140   4.098   2.648   1.678
  726TIP3   OH2 2141   6.212   3.113   3.603
  726TIP3    H1 2142   6.136   3.062   3.575
  726TIP3    H2 2143   6.196   3.201   3.569
  727TIP3   OH2 2144   4.274   0.842   3.901
  727TIP3    H1 2145   4.321   0.901   3.842
  727TIP3    H2 2146   4.208   0.801   3.846
  728TIP3   OH2 2147   1.861   2.173   5.600
  728TIP3    H1 2148   1.953   2.198   5.587
  728TIP3    H2 2149   1.838   2.212   5.685
  729TIP3   OH2 2150   4.616   5.400   5.341
  729TIP3    H1 2151   4.642   5.414   5.250
  729TIP3    H2 2152   4.627   5.306   5.355
  730TIP3   OH2 2153   5.247   5.259   2.646
  730TIP3    H1 2154   5.190   5.211   2.706
  730TIP3    H2 2155   5.317   5.197   2.624
  731TIP3   OH2 2156   3.540   6.637   4.044
  731TIP3    H1 2157   3.469   6.592   3.999
  731TIP3    H2 2158   3.508   6.653   4.132
  732TIP3   OH2 2159   1.815   2.357   2.664
  732TIP3    H1 2160   1.736   2.410   2.658
  732TIP3    H2 2161   1.856   2.384   2.747
  733TIP3   OH2 2162   6.316   5.227   3.876
  733TIP3    H1 2163   6.253   5.177   3.928
  733TIP3    H2 2164   6.306   5.192   3.788
  734TIP3   OH2 2165   6.981   0.950   5.763
  734TIP3    H1 2166   6.973   1.044   5.775
  734TIP3    H2 2167   7.057   0.925   5.815
  735TIP3   OH2 2168   3.247   2.398   1.198
  735TIP3    H1 2169   3.254   2.321   1.253
  735TIP3    H2 2170   3.317   2.456   1.228
  736TIP3   OH2 2171   5.962  -0.004   5.689
  736TIP3    H1 2172   5.989  -0.038   5.774
  736TIP3    H2 2173   6.033   0.055   5.663
  737TIP3   OH2 2174   3.805   5.506   2.910
  737TIP3    H1 2175   3.811   5.535   3.001
  737TIP3    H2 2176   3.833   5.414   2.913
  738TIP3   OH2 2177   1.661   3.591   2.733
  738TIP3    H1 2178   1.752   3.615   2.718
  738TIP3    H2 2179   1.644   3.615   2.824
  739TIP3   OH2 2180   4.391   3.552   3.646
  739TIP3    H1 2181   4.312   3.604   3.661
  739TIP3    H2 2182   4.422   3.529   3.733
  740TIP3   OH2 2183   0.969   2.623   0.031
  740TIP3    H1 2184   1.015   2.578   0.103
  740TIP3    H2 2185   0.909   2.683   0.075
  741TIP3   OH2 2186   5.827   3.891   3.968
  741TIP3    H1 2187   5.843   3.899   4.062
  741TIP3    H2 2188   5.833   3.981   3.934
  742TIP3   OH2 2189   0.402   4.740   4.617
  742TIP3    H1 2190   0.369   4.665   4.667
  742TIP3    H2 2191   0.433   4.801   4.684
  743TIP3   OH2 2192   0.986   1.479   1.928
  743TIP3    H1 2193   0.936   1.424   1.868
  743TIP3    H2 2194   1.073   1.484   1.889
  744TIP3   OH2 2195   4.828   3.615   5.862
  744TIP3    H1 2196   4.893   3.556   5.823
  744TIP3    H2 2197   4.744   3.572   5.847
  745TIP3   OH2 2198   0.522   3.300   2.992
  745TIP3    H1 2199   0.490   3.217   2.955
  745TIP3    H2 2200   0.613   3.306   2.963
  746TIP3   OH2 2201   5.056   3.369   3.738
  746TIP3    H1 2202   5.139   3.332   3.768
  746TIP3    H2 2203   5.049   3.341   3.646
  747TIP3   OH2 2204   3.102   0.637   5.181
  747TIP3    H1 2205   3.064   0.550   5.195
  747TIP3    H2 2206   3.103   0.677   5.268
  748TIP3   OH2 2207   5.218   6.675   1.923
  748TIP3    H1 2208   5.285   6.723   1.973
  748TIP3    H2 2209   5.139   6.729   1.930
  749TIP3   OH2 2210   0.673   2.005   0.651
  749TIP3    H1 2211   0.594   2.029   0.603
  749TIP3    H2 2212   0.640   1.965   0.732
  750TIP3   OH2 2213   4.505   6.029   4.106
  750TIP3    H1 2214   4.536   5.939   4.092
  750TIP3    H2 2215   4.566   6.083   4.056
  751TIP3   OH2 2216   5.337   5.658   2.105
  751TIP3    H1 2217   5.301   5.665   2.194
  751TIP3    H2 2218   5.287   5.587   2.065
  752TIP3   OH2 2219   5.489   1.476   3.963
  752TIP3    H1 2220   5.411   1.499   3.912
  752TIP3    H2 2221   5.485   1.534   4.039
  753TIP3   OH2 2222   5.765   5.400   1.788
  753TIP3    H1 2223   5.678   5.422   1.754
  753TIP3    H2 2224   5.767   5.304   1.791
  754TIP3   OH2 2225   2.667   4.989   3.872
  754TIP3    H1 2226   2.680   4.991   3.777
  754TIP3    H2 2227   2.755   4.984   3.908
  755TIP3   OH2 2228   0.759   2.944   3.228
  755TIP3    H1 2229   0.719   3.009   3.286
  755TIP3    H2 2230   0.740   2.860   3.269
  756TIP3   OH2 2231   1.654   6.403   1.847
  756TIP3    H1 2232   1.678   6.374   1.935
  756TIP3    H2 2233   1.591   6.338   1.816
  757TIP3   OH2 2234   2.511   1.812   0.260
  757TIP3    H1 2235   2.530   1.876   0.191
  757TIP3    H2 2236   2.585   1.818   0.320
  758TIP3   OH2 2237   2.741   6.804   0.702
  758TIP3    H1 2238   2.689   6.873   0.661
  758TIP3    H2 2239   2.688   6.777   0.778
  759TIP3   OH2 2240   5.353   1.749   4.517
  759TIP3    H1 2241   5.331   1.658   4.535
  759TIP3    H2 2242   5.437   1.763   4.560
  760TIP3   OH2 2243   4.748   0.430   4.410
  760TIP3    H1 2244   4.780   0.460   4.495
  760TIP3    H2 2245   4.662   0.392   4.429
  761TIP3   OH2 2246   1.378   2.360   0.279
  761TIP3    H1 2247   1.439   2.286   0.278
  761TIP3    H2 2248   1.316   2.339   0.349
  762TIP3   OH2 2249   2.990   0.107   5.325
  762TIP3    H1 2250   3.041   0.159   5.387
  762TIP3    H2 2251   2.928   0.169   5.286
  763TIP3   OH2 2252   1.811   4.492   2.998
  763TIP3    H1 2253   1.800   4.564   3.060
  763TIP3    H2 2254   1.813   4.413   3.052
  764TIP3   OH2 2255   4.913   6.525   2.013
  764TIP3    H1 2256   4.976   6.454   2.022
  764TIP3    H2 2257   4.915   6.547   1.920
  765TIP3   OH2 2258   4.980   0.702   2.481
  765TIP3    H1 2259   4.909   0.658   2.434
  765TIP3    H2 2260   4.967   0.677   2.573
  766TIP3   OH2 2261   0.645   4.402   1.960
  766TIP3    H1 2262   0.727   4.387   1.914
  766TIP3    H2 2263   0.584   4.432   1.892
  767TIP3   OH2 2264   1.993   2.174   0.421
  767TIP3    H1 2265   2.029   2.261   0.439
  767TIP3    H2 2266   2.067   2.114   0.431
  768TIP3   OH2 2267   1.130   2.699   1.246
  768TIP3    H1 2268   1.213   2.684   1.290
  768TIP3    H2 2269   1.096   2.611   1.227
  769TIP3   OH2 2270   4.298   3.391   0.001
  769TIP3    H1 2271   4.321   3.307   0.041
  769TIP3    H2 2272   4.202   3.390  -0.002
  770TIP3   OH2 2273   4.094   6.707   5.821
  770TIP3    H1 2274   4.094   6.632   5.880
  770TIP3    H2 2275   4.024   6.689   5.758
  771TIP3   OH2 2276   4.507   3.097   0.145
  771TIP3    H1 2277   4.599   3.071   0.138
  771TIP3    H2 2278   4.501   3.144   0.227
  772TIP3   OH2 2279   6.180   2.545   3.475
  772TIP3    H1 2280   6.197   2.533   3.569
  772TIP3    H2 2281   6.227   2.625   3.452
  773TIP3   OH2 2282   3.737   4.136   3.454
  773TIP3    H1 2283   3.808   4.200   3.460
  773TIP3    H2 2284   3.671   4.178   3.397
  774TIP3   OH2 2285   5.616   0.813   3.577
  774TIP3    H1 2286   5.678   0.746   3.606
  774TIP3    H2 2287   5.636   0.890   3.631
  775TIP3   OH2 2288   3.717   2.823   4.885
  775TIP3    H1 2289   3.764   2.869   4.954
  775TIP3    H2 2290   3.786   2.780   4.834
  776TIP3   OH2 2291   6.232   0.866   0.518
  776TIP3    H1 2292   6.210   0.954   0.485
  776TIP3    H2 2293   6.317   0.847   0.478
  777TIP3   OH2 2294   4.033   6.045   3.683
  777TIP3    H1 2295   4.051   6.027   3.776
  777TIP3    H2 2296   3.961   6.107   3.685
  778TIP3   OH2 2297   1.725   6.625   5.808
  778TIP3    H1 2298   1.686   6.635   5.895
  778TIP3    H2 2299   1.662   6.572   5.759
  779TIP3   OH2 2300   5.910   1.713   2.744
  779TIP3    H1 2301   5.895   1.806   2.760
  779TIP3    H2 2302   5.966   1.685   2.817
  780TIP3   OH2 2303   6.674   4.287   1.281
  780TIP3    H1 2304   6.668   4.382   1.294
  780TIP3    H2 2305   6.669   4.250   1.369
  781TIP3   OH2 2306   2.753   5.458   4.218
  781TIP3    H1 2307   2.848   5.467   4.230
  781TIP3    H2 2308   2.718   5.541   4.249
  782TIP3   OH2 2309   6.888   5.994   1.148
  782TIP3    H1 2310   6.929   5.919   1.190
  782TIP3    H2 2311   6.946   6.068   1.168
  783TIP3   OH2 2312   1.040   0.236   3.756
  783TIP3    H1 2313   1.131   0.228   3.728
  783TIP3    H2 2314   1.007   0.313   3.710
  784TIP3   OH2 2315   1.482   3.971   2.492
  784TIP3    H1 2316   1.465   4.064   2.501
  784TIP3    H2 2317   1.566   3.966   2.445
  785TIP3   OH2 2318   0.911   1.760   1.357
  785TIP3    H1 2319   0.986   1.761   1.298
  785TIP3    H2 2320   0.904   1.669   1.386
  786TIP3   OH2 2321   3.002   3.496   2.932
  786TIP3    H1 2322   3.026   3.531   2.846
  786TIP3    H2 2323   2.917   3.535   2.951
  787TIP3   OH2 2324   5.069   2.865   4.616
  787TIP3    H1 2325   5.096   2.813   4.541
  787TIP3    H2 2326   5.066   2.955   4.583
  788TIP3   OH2 2327   4.784   0.559   5.835
  788TIP3    H1 2328   4.859   0.607   5.869
  788TIP3    H2 2329   4.717   0.625   5.819
  789TIP3   OH2 2330   3.573   4.861   2.428
  789TIP3    H1 2331   3.606   4.824   2.346
  789TIP3    H2 2332   3.538   4.786   2.476
  790TIP3   OH2 2333   1.464   1.750   5.243
  790TIP3    H1 2334   1.471   1.658   5.269
  790TIP3    H2 2335   1.448   1.796   5.326
  791TIP3   OH2 2336   4.175   5.939   0.286
  791TIP3    H1 2337   4.173   6.017   0.230
  791TIP3    H2 2338   4.267   5.914   0.290
  792TIP3   OH2 2339   2.688   6.364   4.308
  792TIP3    H1 2340   2.594   6.376   4.321
  792TIP3    H2 2341   2.729   6.424   4.370
  793TIP3   OH2 2342   5.722   2.821   1.401
  793TIP3    H1 2343   5.762   2.762   1.465
  793TIP3    H2 2344   5.685   2.893   1.453
  794TIP3   OH2 2345   1.744   0.632   0.655
  794TIP3    H1 2346   1.748   0.708   0.713
  794TIP3    H2 2347   1.812   0.573   0.687
  795TIP3   OH2 2348   6.464   2.103   1.026
  795TIP3    H1 2349   6.502   2.140   1.106
  795TIP3    H2 2350   6.417   2.025   1.056
  796TIP3   OH2 2351   2.485   0.105   1.975
  796TIP3    H1 2352   2.408   0.067   1.932
  796TIP3    H2 2353   2.515   0.173   1.914
  797TIP3   OH2 2354   6.573   1.967   2.782
  797TIP3    H1 2355   6.519   2.036   2.820
  797TIP3    H2 2356   6.580   1.901   2.850
  798TIP3   OH2 2357   1.736   1.898   5.608
  798TIP3    H1 2358   1.762   1.990   5.607
  798TIP3    H2 2359   1.764   1.864   5.523
  799TIP3   OH2 2360   2.641   0.206   5.676
  799TIP3    H1 2361   2.644   0.158   5.758
  799TIP3    H2 2362   2.615   0.141   5.611
  800TIP3   OH2 2363   2.144   5.163   2.425
  800TIP3    H1 2364   2.066   5.119   2.393
  800TIP3    H2 2365   2.183   5.204   2.347
  801TIP3   OH2 2366   0.394   4.813   4.351
  801TIP3    H1 2367   0.402   4.908   4.352
  801TIP3    H2 2368   0.399   4.788   4.444
  802TIP3   OH2 2369   6.654   0.570   0.698
  802TIP3    H1 2370   6.570   0.547   0.659
  802TIP3    H2 2371   6.631   0.619   0.777
  803TIP3   OH2 2372   6.616   6.525   4.500
  803TIP3    H1 2373   6.700   6.571   4.488
  803TIP3    H2 2374   6.560   6.559   4.431
  804TIP3   OH2 2375   0.744   4.425   5.673
  804TIP3    H1 2376   0.760   4.332   5.687
  804TIP3    H2 2377   0.669   4.428   5.614
  805TIP3   OH2 2378   4.641   6.082   2.579
  805TIP3    H1 2379   4.721   6.119   2.616
  805TIP3    H2 2380   4.642   5.990   2.604
  806TIP3   OH2 2381   3.152   2.980   2.809
  806TIP3    H1 2382   3.089   3.037   2.765
  806TIP3    H2 2383   3.126   2.982   2.901
  807TIP3   OH2 2384   5.285   2.675   4.011
  807TIP3    H1 2385   5.327   2.709   3.932
  807TIP3    H2 2386   5.304   2.740   4.078
  808TIP3   OH2 2387   6.471   6.234   3.979
  808TIP3    H1 2388   6.547   6.176   3.989
  808TIP3    H2 2389   6.404   6.195   4.035
  809TIP3   OH2 2390   0.969   0.192   2.236
  809TIP3    H1 2391   1.052   0.220   2.200
  809TIP3    H2 2392   0.980   0.098   2.253
  810TIP3   OH2 2393   1.039   0.837   5.799
  810TIP3    H1 2394   0.978   0.795   5.739
  810TIP3    H2 2395   1.006   0.816   5.886
  811TIP3   OH2 2396   2.614   4.284   5.658
  811TIP3    H1 2397   2.645   4.260   5.570
  811TIP3    H2 2398   2.612   4.202   5.706
  812TIP3   OH2 2399   5.771   1.499   0.525
  812TIP3    H1 2400   5.768   1.502   0.620
  812TIP3    H2 2401   5.711   1.429   0.500
  813TIP3   OH2 2402   1.176   5.727   4.693
  813TIP3    H1 2403   1.250   5.750   4.636
  813TIP3    H2 2404   1.099   5.757   4.645
  814TIP3   OH2 2405   5.605   0.973   2.440
  814TIP3    H1 2406   5.682   0.944   2.488
  814TIP3    H2 2407   5.540   0.904   2.455
  815TIP3   OH2 2408   3.831   1.721   0.361
  815TIP3    H1 2409   3.926   1.713   0.361
  815TIP3    H2 2410   3.799   1.633   0.383
  816TIP3   OH2 2411   0.196   2.014   2.586
  816TIP3    H1 2412   0.290   2.008   2.602
  816TIP3    H2 2413   0.180   1.949   2.517
  817TIP3   OH2 2414   5.781   0.876   2.613
  817TIP3    H1 2415   5.820   0.888   2.699
  817TIP3    H2 2416   5.768   0.781   2.605
  818TIP3   OH2 2417   7.047   0.648   0.093
  818TIP3    H1 2418   7.023   0.571   0.145
  818TIP3    H2 2419   6.963   0.681   0.060
  819TIP3   OH2 2420   5.279   4.535   5.116
  819TIP3    H1 2421   5.262   4.531   5.022
  819TIP3    H2 2422   5.280   4.629   5.136
  820TIP3   OH2 2423   6.508   0.549   3.515
  820TIP3    H1 2424   6.446   0.604   3.468
  820TIP3    H2 2425   6.476   0.460   3.502
  821TIP3   OH2 2426   0.214   3.917   3.949
  821TIP3    H1 2427   0.186   3.858   3.879
  821TIP3    H2 2428   0.230   3.859   4.024
  822TIP3   OH2 2429   0.867   2.896   0.724
  822TIP3    H1 2430   0.919   2.908   0.803
  822TIP3    H2 2431   0.893   2.811   0.691
  823TIP3   OH2 2432   1.102   5.026   4.236
  823TIP3    H1 2433   1.189   5.051   4.267
  823TIP3    H2 2434   1.050   5.016   4.316
  824TIP3   OH2 2435   6.892   5.144   2.502
  824TIP3    H1 2436   6.951   5.076   2.533
  824TIP3    H2 2437   6.950   5.214   2.471
  825TIP3   OH2 2438   1.836   0.587   4.078
  825TIP3    H1 2439   1.824   0.494   4.094
  825TIP3    H2 2440   1.763   0.629   4.124
  826TIP3   OH2 2441   4.932   5.570   3.471
  826TIP3    H1 2442   5.010   5.542   3.519
  826TIP3    H2 2443   4.859   5.548   3.528
  827TIP3   OH2 2444   4.749   3.021   0.756
  827TIP3    H1 2445   4.673   2.992   0.807
  827TIP3    H2 2446   4.816   3.040   0.821
  828TIP3   OH2 2447   4.964   2.859   2.014
  828TIP3    H1 2448   4.990   2.767   2.005
  828TIP3    H2 2449   4.880   2.856   2.059
  829TIP3   OH2 2450   3.035   1.202   4.539
  829TIP3    H1 2451   3.078   1.159   4.613
  829TIP3    H2 2452   3.042   1.138   4.468
  830TIP3   OH2 2453   3.116   4.682   5.527
  830TIP3    H1 2454   3.024   4.704   5.543
  830TIP3    H2 2455   3.145   4.748   5.463
  831TIP3   OH2 2456   3.911   5.587   5.379
  831TIP3    H1 2457   3.892   5.497   5.403
  831TIP3    H2 2458   3.856   5.604   5.302
  832TIP3   OH2 2459   6.466   1.196   4.917
  832TIP3    H1 2460   6.411   1.268   4.949
  832TIP3    H2 2461   6.552   1.212   4.956
  833TIP3   OH2 2462   6.104   5.774   5.434
  833TIP3    H1 2463   6.071   5.836   5.498
  833TIP3    H2 2464   6.157   5.827   5.374
  834TIP3   OH2 2465   0.207   3.352   2.087
  834TIP3    H1 2466   0.288   3.309   2.112
  834TIP3    H2 2467   0.222   3.384   1.998
  835TIP3   OH2 2468   6.298   6.548   4.129
  835TIP3    H1 2469   6.381   6.535   4.083
  835TIP3    H2 2470   6.244   6.474   4.101
  836TIP3   OH2 2471   2.327   0.376   3.261
  836TIP3    H1 2472   2.319   0.281   3.255
  836TIP3    H2 2473   2.285   0.409   3.182
  837TIP3   OH2 2474   6.042   5.672   2.736
  837TIP3    H1 2475   6.051   5.627   2.652
  837TIP3    H2 2476   5.948   5.680   2.749
  838TIP3   OH2 2477   4.097   0.353   1.986
  838TIP3    H1 2478   4.035   0.381   1.919
  838TIP3    H2 2479   4.121   0.263   1.960
  839TIP3   OH2 2480   4.978   2.020   2.895
  839TIP3    H1 2481   4.942   2.074   2.825
  839TIP3    H2 2482   4.902   1.989   2.944
  840TIP3   OH2 2483   4.881   5.221   3.007
  840TIP3    H1 2484   4.895   5.216   3.102
  840TIP3    H2 2485   4.788   5.201   2.996
  841TIP3   OH2 2486   5.096   1.430   4.324
  841TIP3    H1 2487   5.120   1.338   4.311
  841TIP3    H2 2488   5.144   1.456   4.403
  842TIP3   OH2 2489   0.108   6.349   2.906
  842TIP3    H1 2490   0.025   6.329   2.862
  842TIP3    H2 2491   0.086   6.418   2.969
  843TIP3   OH2 2492   2.683   0.474   2.727
  843TIP3    H1 2493   2.592   0.469   2.757
  843TIP3    H2 2494   2.724   0.395   2.762
  844TIP3   OH2 2495   3.900   0.145   0.901
  844TIP3    H1 2496   3.859   0.061   0.921
  844TIP3    H2 2497   3.934   0.135   0.812
  845TIP3   OH2 2498   3.899   2.848   1.926
  845TIP3    H1 2499   3.889   2.757   1.897
  845TIP3    H2 2500   3.927   2.895   1.848
  846TIP3   OH2 2501   1.710   0.026   3.060
  846TIP3    H1 2502   1.627   0.064   3.088
  846TIP3    H2 2503   1.776   0.075   3.110
  847TIP3   OH2 2504   3.758   3.762   3.906
  847TIP3    H1 2505   3.851   3.782   3.918
  847TIP3    H2 2506   3.756   3.691   3.842
  848TIP3   OH2 2507   5.842   5.912   2.951
  848TIP3    H1 2508   5.799   5.884   2.870
  848TIP3    H2 2509   5.935   5.913   2.929
  849TIP3   OH2 2510   1.891   1.712   4.813
  849TIP3    H1 2511   1.985   1.693   4.814
  849TIP3    H2 2512   1.867   1.718   4.905
  850TIP3   OH2 2513   5.387   0.445   2.719
  850TIP3    H1 2514   5.360   0.383   2.787
  850TIP3    H2 2515   5.316   0.509   2.715
  851TIP3   OH2 2516   1.916   5.360   0.749
  851TIP3    H1 2517   1.985   5.417   0.784
  851TIP3    H2 2518   1.872   5.414   0.684
  852TIP3   OH2 2519   4.794   0.743   1.502
  852TIP3    H1 2520   4.800   0.708   1.413
  852TIP3    H2 2521   4.756   0.830   1.492
  853TIP3   OH2 2522   6.226   5.635   1.355
  853TIP3    H1 2523   6.243   5.631   1.449
  853TIP3    H2 2524   6.223   5.544   1.326
  854TIP3   OH2 2525   0.532   3.675   2.479
  854TIP3    H1 2526   0.498   3.695   2.392
  854TIP3    H2 2527   0.482   3.599   2.508
  855TIP3   OH2 2528   2.144   0.142   2.894
  855TIP3    H1 2529   2.087   0.068   2.875
  855TIP3    H2 2530   2.090   0.219   2.875
  856TIP3   OH2 2531   7.072   0.120   1.293
  856TIP3    H1 2532   7.098   0.124   1.385
  856TIP3    H2 2533   7.031   0.205   1.276
  857TIP3   OH2 2534   5.871   6.655   2.858
  857TIP3    H1 2535   5.857   6.724   2.794
  857TIP3    H2 2536   5.816   6.582   2.828
  858TIP3   OH2 2537   5.023   1.109   4.441
  858TIP3    H1 2538   5.043   1.036   4.382
  858TIP3    H2 2539   4.929   1.123   4.432
  859TIP3   OH2 2540   3.135   3.403   0.371
  859TIP3    H1 2541   3.047   3.439   0.380
  859TIP3    H2 2542   3.188   3.476   0.340
  860TIP3   OH2 2543   5.361   3.026   4.471
  860TIP3    H1 2544   5.306   3.035   4.549
  860TIP3    H2 2545   5.302   3.043   4.398
  861TIP3   OH2 2546   1.468   3.198   2.257
  861TIP3    H1 2547   1.409   3.123   2.244
  861TIP3    H2 2548   1.412   3.265   2.296
  862TIP3   OH2 2549   5.574   3.297   2.823
  862TIP3    H1 2550   5.538   3.234   2.886
  862TIP3    H2 2551   5.583   3.378   2.872
  863TIP3   OH2 2552   5.358   5.070   4.709
  863TIP3    H1 2553   5.290   5.136   4.723
  863TIP3    H2 2554   5.336   5.029   4.626
  864TIP3   OH2 2555   1.052   1.043   0.529
  864TIP3    H1 2556   1.101   1.060   0.448
  864TIP3    H2 2557   1.107   1.079   0.598
  865TIP3   OH2 2558   1.819   0.576   3.000
  865TIP3    H1 2559   1.805   0.481   3.000
  865TIP3    H2 2560   1.731   0.613   2.996
  866TIP3   OH2 2561   2.009   3.420   0.954
  866TIP3    H1 2562   2.019   3.436   1.048
  866TIP3    H2 2563   2.019   3.506   0.913
  867TIP3   OH2 2564   4.118   5.365   1.243
  867TIP3    H1 2565   4.110   5.289   1.186
  867TIP3    H2 2566   4.203   5.354   1.286
  868TIP3   OH2 2567   3.005   4.985   2.877
  868TIP3    H1 2568   3.078   5.001   2.937
  868TIP3    H2 2569   2.927   4.992   2.931
  869TIP3   OH2 2570   6.961   0.988   1.759
  869TIP3    H1 2571   7.016   0.923   1.715
  869TIP3    H2 2572   6.976   0.973   1.853
  870TIP3   OH2 2573   5.149   5.897   1.548
  870TIP3    H1 2574   5.200   5.975   1.570
  870TIP3    H2 2575   5.209   5.843   1.497
  871TIP3   OH2 2576   2.669   6.578   3.583
  871TIP3    H1 2577   2.648   6.671   3.588
  871TIP3    H2 2578   2.730   6.563   3.655
  872TIP3   OH2 2579   2.537   5.498   1.597
  872TIP3    H1 2580   2.606   5.432   1.591
  872TIP3    H2 2581   2.582   5.578   1.624
  873TIP3   OH2 2582   3.149   0.400   1.130
  873TIP3    H1 2583   3.185   0.486   1.107
  873TIP3    H2 2584   3.083   0.384   1.062
  874TIP3   OH2 2585   4.214   2.965   1.748
  874TIP3    H1 2586   4.192   2.958   1.655
  874TIP3    H2 2587   4.235   2.875   1.774
  875TIP3   OH2 2588   6.394   3.212   4.360
  875TIP3    H1 2589   6.302   3.230   4.342
  875TIP3    H2 2590   6.438   3.228   4.276
  876TIP3   OH2 2591   6.671   0.553   2.766
  876TIP3    H1 2592   6.704   0.616   2.831
  876TIP3    H2 2593   6.731   0.479   2.772
  877TIP3   OH2 2594   2.066   2.341   1.923
  877TIP3    H1 2595   2.088   2.425   1.883
  877TIP3    H2 2596   1.971   2.345   1.935
  878TIP3   OH2 2597   4.929   0.184   3.227
  878TIP3    H1 2598   4.920   0.140   3.142
  878TIP3    H2 2599   4.927   0.113   3.291
  879TIP3   OH2 2600   4.914   3.732   0.433
  879TIP3    H1 2601   4.902   3.766   0.344
  879TIP3    H2 2602   5.009   3.733   0.447
  880TIP3   OH2 2603   4.034   1.287   5.465
  880TIP3    H1 2604   3.994   1.209   5.426
  880TIP3    H2 2605   4.092   1.253   5.533
  881TIP3   OH2 2606   5.462   3.044   3.554
  881TIP3    H1 2607   5.391   3.091   3.599
  881TIP3    H2 2608   5.416   2.981   3.497
  882TIP3   OH2 2609   3.928   5.575   2.281
  882TIP3    H1 2610   3.994   5.530   2.229
  882TIP3    H2 2611   3.880   5.505   2.325
  883TIP3   OH2 2612   7.052   0.963   4.943
  883TIP3    H1 2613   7.131   0.993   4.987
  883TIP3    H2 2614   6.981   0.984   5.004
  884TIP3   OH2 2615   3.093   0.881   5.879
  884TIP3    H1 2616   3.186   0.892   5.862
  884TIP3    H2 2617   3.070   0.956   5.934
  885TIP3   OH2 2618   6.954   0.309   5.465
  885TIP3    H1 2619   6.961   0.389   5.517
  885TIP3    H2 2620   6.860   0.300   5.449
  886TIP3   OH2 2621   2.835   3.916   2.506
  886TIP3    H1 2622   2.896   3.969   2.558
  886TIP3    H2 2623   2.784   3.868   2.571
  887TIP3   OH2 2624   3.363   2.371   2.268
  887TIP3    H1 2625   3.334   2.331   2.350
  887TIP3    H2 2626   3.283   2.406   2.229
  888TIP3   OH2 2627   0.317   3.688   0.430
  888TIP3    H1 2628   0.287   3.669   0.519
  888TIP3    H2 2629   0.325   3.601   0.389
  889TIP3   OH2 2630   3.338   2.709   0.586
  889TIP3    H1 2631   3.378   2.776   0.531
  889TIP3    H2 2632   3.401   2.638   0.587
  890TIP3   OH2 2633   2.029   3.719   0.210
  890TIP3    H1 2634   2.015   3.626   0.188
  890TIP3    H2 2635   2.028   3.764   0.126
  891TIP3   OH2 2636   4.605   6.544   2.907
  891TIP3    H1 2637   4.618   6.449   2.904
  891TIP3    H2 2638   4.569   6.566   2.821
  892TIP3   OH2 2639   6.402   5.129   0.209
  892TIP3    H1 2640   6.462   5.074   0.158
  892TIP3    H2 2641   6.328   5.071   0.229
  893TIP3   OH2 2642   0.372   2.411   2.396
  893TIP3    H1 2643   0.320   2.351   2.342
  893TIP3    H2 2644   0.371   2.371   2.483
  894TIP3   OH2 2645   0.684   3.476   3.428
  894TIP3    H1 2646   0.610   3.472   3.368
  894TIP3    H2 2647   0.758   3.503   3.373
  895TIP3   OH2 2648   0.596   0.885   1.522
  895TIP3    H1 2649   0.578   0.834   1.600
  895TIP3    H2 2650   0.691   0.899   1.524
  896TIP3   OH2 2651   1.489   4.585   2.989
  896TIP3    H1 2652   1.474   4.568   3.082
  896TIP3    H2 2653   1.580   4.615   2.984
  897TIP3   OH2 2654   6.658   2.131   3.675
  897TIP3    H1 2655   6.617   2.049   3.648
  897TIP3    H2 2656   6.585   2.188   3.699
  898TIP3   OH2 2657   6.964   1.066   1.350
  898TIP3    H1 2658   6.900   0.998   1.371
  898TIP3    H2 2659   7.014   1.031   1.277
  899TIP3   OH2 2660   4.231   2.786   0.172
  899TIP3    H1 2661   4.272   2.812   0.255
  899TIP3    H2 2662   4.189   2.702   0.191
  900TIP3   OH2 2663   0.783   2.259   0.595
  900TIP3    H1 2664   0.731   2.189   0.635
  900TIP3    H2 2665   0.722   2.331   0.584
  901TIP3   OH2 2666   6.283   0.608   3.862
  901TIP3    H1 2667   6.310   0.523   3.830
  901TIP3    H2 2668   6.189   0.599   3.878
  902TIP3   OH2 2669   3.569   3.604   0.361
  902TIP3    H1 2670   3.663   3.601   0.342
  902TIP3    H2 2671   3.527   3.602   0.275
  903TIP3   OH2 2672   4.564   5.595   4.377
  903TIP3    H1 2673   4.487   5.607   4.433
  903TIP3    H2 2674   4.637   5.589   4.438
  904TIP3   OH2 2675   3.726   1.530   1.402
  904TIP3    H1 2676   3.647   1.582   1.388
  904TIP3    H2 2677   3.698   1.439   1.388
  905TIP3   OH2 2678   2.867   5.474   0.375
  905TIP3    H1 2679   2.780   5.494   0.408
  905TIP3    H2 2680   2.872   5.379   0.374
  906TIP3   OH2 2681   0.861   2.707   5.253
  906TIP3    H1 2682   0.865   2.628   5.198
  906TIP3    H2 2683   0.948   2.713   5.292
  907TIP3   OH2 2684   4.214   2.153   1.047
  907TIP3    H1 2685   4.226   2.246   1.029
  907TIP3    H2 2686   4.132   2.130   1.004
  908TIP3   OH2 2687   5.091   3.594   2.863
  908TIP3    H1 2688   5.043   3.634   2.936
  908TIP3    H2 2689   5.152   3.533   2.906
  909TIP3   OH2 2690   5.198   2.483   3.370
  909TIP3    H1 2691   5.155   2.567   3.355
  909TIP3    H2 2692   5.231   2.458   3.283
  910TIP3   OH2 2693   5.121   3.639   4.007
  910TIP3    H1 2694   5.038   3.620   4.051
  910TIP3    H2 2695   5.185   3.645   4.078
  911TIP3   OH2 2696   1.117   4.310   2.547
  911TIP3    H1 2697   1.043   4.367   2.566
  911TIP3    H2 2698   1.190   4.350   2.594
  912TIP3   OH2 2699   1.873   0.078   4.500
  912TIP3    H1 2700   1.884   0.154   4.558
  912TIP3    H2 2701   1.954   0.075   4.450
  913TIP3   OH2 2702   4.536   1.393   3.886
  913TIP3    H1 2703   4.506   1.368   3.798
  913TIP3    H2 2704   4.598   1.464   3.870
  914TIP3   OH2 2705   4.774   1.885   1.144
  914TIP3    H1 2706   4.829   1.819   1.186
  914TIP3    H2 2707   4.732   1.932   1.217
  915TIP3   OH2 2708   0.643   2.271   3.179
  915TIP3    H1 2709   0.713   2.231   3.231
  915TIP3    H2 2710   0.661   2.365   3.182
  916TIP3   OH2 2711   2.957   1.552   1.657
  916TIP3    H1 2712   3.033   1.605   1.634
  916TIP3    H2 2713   2.884   1.591   1.609
  917TIP3   OH2 2714   3.849   2.356   5.134
  917TIP3    H1 2715   3.862   2.339   5.041
  917TIP3    H2 2716   3.887   2.443   5.148
  918TIP3   OH2 2717   5.120   3.879   5.064
  918TIP3    H1 2718   5.069   3.872   5.145
  918TIP3    H2 2719   5.092   3.804   5.011
  919TIP3   OH2 2720   3.754   3.774   2.894
  919TIP3    H1 2721   3.834   3.827   2.890
  919TIP3    H2 2722   3.764   3.710   2.823
  920TIP3   OH2 2723   1.910   3.070   4.971
  920TIP3    H1 2724   1.934   3.139   5.033
  920TIP3    H2 2725   1.816   3.082   4.957
  921TIP3   OH2 2726   6.846   6.236   3.802
  921TIP3    H1 2727   6.876   6.222   3.712
  921TIP3    H2 2728   6.873   6.325   3.823
  922TIP3   OH2 2729   2.500   3.995   1.208
  922TIP3    H1 2730   2.412   4.001   1.245
  922TIP3    H2 2731   2.553   3.958   1.279
  923TIP3   OH2 2732   1.885   4.192   3.458
  923TIP3    H1 2733   1.979   4.179   3.443
  923TIP3    H2 2734   1.857   4.112   3.502
  924TIP3   OH2 2735   5.925   0.984   1.574
  924TIP3    H1 2736   5.957   0.917   1.634
  924TIP3    H2 2737   5.916   0.939   1.490
  925TIP3   OH2 2738   0.937   5.026   5.407
  925TIP3    H1 2739   1.009   4.985   5.361
  925TIP3    H2 2740   0.974   5.054   5.491
  926TIP3   OH2 2741   0.532   1.240   4.637
  926TIP3    H1 2742   0.565   1.329   4.621
  926TIP3    H2 2743   0.458   1.231   4.578
  927TIP3   OH2 2744   1.054   2.556   0.759
  927TIP3    H1 2745   1.046   2.561   0.664
  927TIP3    H2 2746   1.063   2.463   0.778
  928TIP3   OH2 2747   2.745   1.376   1.906
  928TIP3    H1 2748   2.695   1.458   1.907
  928TIP3    H2 2749   2.829   1.399   1.947
  929TIP3   OH2 2750   4.422   1.431   4.370
  929TIP3    H1 2751   4.478   1.399   4.299
  929TIP3    H2 2752   4.483   1.467   4.435
  930TIP3   OH2 2753   5.961   4.721   2.767
  930TIP3    H1 2754   6.041   4.676   2.739
  930TIP3    H2 2755   5.893   4.655   2.759
  931TIP3   OH2 2756   5.873   1.507   3.225
  931TIP3    H1 2757   5.941   1.540   3.283
  931TIP3    H2 2758   5.810   1.579   3.218
  932TIP3   OH2 2759   4.216   1.279   3.275
  932TIP3    H1 2760   4.178   1.344   3.216
  932TIP3    H2 2761   4.294   1.322   3.311
  933TIP3   OH2 2762   3.665   6.797   2.612
  933TIP3    H1 2763   3.628   6.821   2.527
  933TIP3    H2 2764   3.684   6.704   2.604
  934TIP3   OH2 2765   0.305   1.167   2.050
  934TIP3    H1 2766   0.244   1.224   2.002
  934TIP3    H2 2767   0.298   1.083   2.006
  935TIP3   OH2 2768   1.715   1.116   0.562
  935TIP3    H1 2769   1.623   1.093   0.548
  935TIP3    H2 2770   1.740   1.166   0.485
  936TIP3   OH2 2771   6.424   5.642   4.809
  936TIP3    H1 2772   6.502   5.618   4.758
  936TIP3    H2 2773   6.424   5.581   4.882
  937TIP3   OH2 2774   3.819   4.617   1.826
  937TIP3    H1 2775   3.900   4.574   1.851
  937TIP3    H2 2776   3.847   4.691   1.771
  938TIP3   OH2 2777   1.306   2.215   4.444
  938TIP3    H1 2778   1.300   2.126   4.409
  938TIP3    H2 2779   1.399   2.226   4.464
  939TIP3   OH2 2780   1.903   3.162   0.922
  939TIP3    H1 2781   1.959   3.085   0.928
  939TIP3    H2 2782   1.963   3.236   0.928
  940TIP3   OH2 2783   6.487   1.303   0.994
  940TIP3    H1 2784   6.408   1.260   0.959
  940TIP3    H2 2785   6.554   1.235   0.991
  941TIP3   OH2 2786   4.993   0.155   4.647
  941TIP3    H1 2787   5.014   0.062   4.641
  941TIP3    H2 2788   4.900   0.160   4.624
  942TIP3   OH2 2789   6.723   4.720   0.301
  942TIP3    H1 2790   6.646   4.711   0.245
  942TIP3    H2 2791   6.796   4.729   0.241
  943TIP3   OH2 2792   0.546   1.685   3.777
  943TIP3    H1 2793   0.572   1.662   3.687
  943TIP3    H2 2794   0.588   1.769   3.793
  944TIP3   OH2 2795   5.997   6.164   3.816
  944TIP3    H1 2796   5.929   6.229   3.834
  944TIP3    H2 2797   5.951   6.094   3.768
  945TIP3   OH2 2798   5.551   5.765   0.332
  945TIP3    H1 2799   5.468   5.806   0.308
  945TIP3    H2 2800   5.561   5.785   0.425
  946TIP3   OH2 2801   5.691   1.468   1.666
  946TIP3    H1 2802   5.750   1.509   1.602
  946TIP3    H2 2803   5.712   1.375   1.662
  947TIP3   OH2 2804   4.766   0.286   4.800
  947TIP3    H1 2805   4.825   0.357   4.826
  947TIP3    H2 2806   4.765   0.289   4.705
  948TIP3   OH2 2807   4.711   1.598   3.809
  948TIP3    H1 2808   4.756   1.669   3.855
  948TIP3    H2 2809   4.758   1.588   3.727
  949TIP3   OH2 2810   1.001   0.894   2.297
  949TIP3    H1 2811   1.000   0.809   2.253
  949TIP3    H2 2812   0.968   0.877   2.385
  950TIP3   OH2 2813   2.137   5.996   4.306
  950TIP3    H1 2814   2.082   6.069   4.278
  950TIP3    H2 2815   2.109   5.923   4.252
  951TIP3   OH2 2816   2.545   3.132   4.438
  951TIP3    H1 2817   2.490   3.060   4.407
  951TIP3    H2 2818   2.517   3.148   4.528
  952TIP3   OH2 2819   4.593   5.147   4.650
  952TIP3    H1 2820   4.640   5.230   4.639
  952TIP3    H2 2821   4.515   5.171   4.699
  953TIP3   OH2 2822   5.817   2.874   4.507
  953TIP3    H1 2823   5.872   2.815   4.456
  953TIP3    H2 2824   5.766   2.817   4.565
  954TIP3   OH2 2825   4.077   4.972   5.499
  954TIP3    H1 2826   4.161   4.976   5.546
  954TIP3    H2 2827   4.077   4.886   5.458
  955TIP3   OH2 2828   3.882   0.709   3.564
  955TIP3    H1 2829   3.842   0.764   3.632
  955TIP3    H2 2830   3.830   0.725   3.486
  956TIP3   OH2 2831   5.682   1.865   1.333
  956TIP3    H1 2832   5.614   1.932   1.319
  956TIP3    H2 2833   5.679   1.848   1.428
  957TIP3   OH2 2834   0.163   1.493   0.388
  957TIP3    H1 2835   0.256   1.487   0.365
  957TIP3    H2 2836   0.160   1.477   0.482
  958TIP3   OH2 2837   5.455   3.686   3.990
  958TIP3    H1 2838   5.376   3.668   4.041
  958TIP3    H2 2839   5.524   3.638   4.036
  959TIP3   OH2 2840   0.106   1.281   0.200
  959TIP3    H1 2841   0.098   1.350   0.266
  959TIP3    H2 2842   0.192   1.242   0.216
  960TIP3   OH2 2843   2.789   5.169   4.186
  960TIP3    H1 2844   2.776   5.247   4.239
  960TIP3    H2 2845   2.728   5.105   4.222
  961TIP3   OH2 2846   5.717   1.897   4.113
  961TIP3    H1 2847   5.804   1.933   4.094
  961TIP3    H2 2848   5.726   1.858   4.200
  962TIP3   OH2 2849   5.492   4.695   5.688
  962TIP3    H1 2850   5.565   4.633   5.688
  962TIP3    H2 2851   5.531   4.779   5.713
  963TIP3   OH2 2852   6.716   2.116   0.048
  963TIP3    H1 2853   6.699   2.205   0.016
  963TIP3    H2 2854   6.648   2.101   0.114
  964TIP3   OH2 2855   5.233   3.330   4.338
  964TIP3    H1 2856   5.251   3.346   4.245
  964TIP3    H2 2857   5.297   3.263   4.363
  965TIP3   OH2 2858   5.727   3.906   5.411
  965TIP3    H1 2859   5.756   3.818   5.388
  965TIP3    H2 2860   5.635   3.908   5.386
  966TIP3   OH2 2861   6.674   4.643   4.061
  966TIP3    H1 2862   6.751   4.699   4.057
  966TIP3    H2 2863   6.686   4.580   3.989
  967TIP3   OH2 2864   2.266   4.398   3.047
  967TIP3    H1 2865   2.231   4.436   3.127
  967TIP3    H2 2866   2.240   4.306   3.051
  968TIP3   OH2 2867   3.688   3.837   3.447
  968TIP3    H1 2868   3.721   3.795   3.367
  968TIP3    H2 2869   3.694   3.931   3.428
  969TIP3   OH2 2870   6.972   2.332   5.027
  969TIP3    H1 2871   6.894   2.318   4.974
  969TIP3    H2 2872   6.996   2.245   5.058
  970TIP3   OH2 2873   5.576   4.185   3.326
  970TIP3    H1 2874   5.646   4.231   3.371
  970TIP3    H2 2875   5.587   4.094   3.351
  971TIP3   OH2 2876   1.355   5.608   0.156
  971TIP3    H1 2877   1.333   5.548   0.227
  971TIP3    H2 2878   1.292   5.586   0.087
  972TIP3   OH2 2879   3.541   0.564   4.477
  972TIP3    H1 2880   3.616   0.623   4.477
  972TIP3    H2 2881   3.573   0.486   4.523
  973TIP3   OH2 2882   4.764   1.850   3.030
  973TIP3    H1 2883   4.797   1.800   2.956
  973TIP3    H2 2884   4.673   1.822   3.039
  974TIP3   OH2 2885   6.030   3.893   1.234
  974TIP3    H1 2886   6.015   3.877   1.141
  974TIP3    H2 2887   5.942   3.888   1.273
  975TIP3   OH2 2888   6.712   3.207   1.227
  975TIP3    H1 2889   6.785   3.262   1.200
  975TIP3    H2 2890   6.703   3.142   1.157
  976TIP3   OH2 2891   4.093   2.730   2.492
  976TIP3    H1 2892   4.116   2.710   2.582
  976TIP3    H2 2893   4.008   2.686   2.479
  977TIP3   OH2 2894   5.884   1.574   0.165
  977TIP3    H1 2895   5.976   1.572   0.139
  977TIP3    H2 2896   5.852   1.486   0.146
  978TIP3   OH2 2897   5.192   4.362   1.408
  978TIP3    H1 2898   5.269   4.377   1.353
  978TIP3    H2 2899   5.191   4.268   1.424
  979TIP3   OH2 2900   2.573   5.411   3.321
  979TIP3    H1 2901   2.596   5.322   3.349
  979TIP3    H2 2902   2.628   5.468   3.375
  980TIP3   OH2 2903   0.948   6.661   3.186
  980TIP3    H1 2904   0.892   6.674   3.109
  980TIP3    H2 2905   1.010   6.734   3.183
  981TIP3   OH2 2906   2.958   1.177   5.465
  981TIP3    H1 2907   3.022   1.233   5.420
  981TIP3    H2 2908   3.008   1.138   5.537
  982TIP3   OH2 2909   2.133   4.206   0.183
  982TIP3    H1 2910   2.094   4.290   0.208
  982TIP3    H2 2911   2.193   4.229   0.112
  983TIP3   OH2 2912   4.881   4.240   2.797
  983TIP3    H1 2913   4.799   4.201   2.828
  983TIP3    H2 2914   4.904   4.188   2.719
  984TIP3   OH2 2915   1.766   4.405   0.277
  984TIP3    H1 2916   1.833   4.404   0.345
  984TIP3    H2 2917   1.761   4.497   0.250
  985TIP3   OH2 2918   4.403   2.908  -0.016
  985TIP3    H1 2919   4.340   2.864   0.041
  985TIP3    H2 2920   4.448   2.970   0.041
  986TIP3   OH2 2921   6.206   3.165   0.451
  986TIP3    H1 2922   6.143   3.120   0.508
  986TIP3    H2 2923   6.159   3.178   0.369
  987TIP3   OH2 2924   3.578  -0.034   1.385
  987TIP3    H1 2925   3.655  -0.036   1.328
  987TIP3    H2 2926   3.551   0.058   1.387
  988TIP3   OH2 2927   6.490   4.624   5.050
  988TIP3    H1 2928   6.539   4.669   5.120
  988TIP3    H2 2929   6.401   4.656   5.061
  989TIP3   OH2 2930   5.954   2.585   2.538
  989TIP3    H1 2931   5.915   2.673   2.545
  989TIP3    H2 2932   6.048   2.602   2.529
  990TIP3   OH2 2933   3.965   0.419   1.755
  990TIP3    H1 2934   3.950   0.474   1.678
  990TIP3    H2 2935   3.929   0.334   1.732
  991TIP3   OH2 2936   3.975   5.091   1.172
  991TIP3    H1 2937   3.988   5.101   1.267
  991TIP3    H2 2938   3.933   5.006   1.162
  992TIP3   OH2 2939   3.487   3.586   0.022
  992TIP3    H1 2940   3.428   3.618   0.090
  992TIP3    H2 2941   3.465   3.638  -0.055
  993TIP3   OH2 2942   2.339   2.900   4.078
  993TIP3    H1 2943   2.326   2.900   3.983
  993TIP3    H2 2944   2.251   2.912   4.114
  994TIP3   OH2 2945   1.350   6.304   5.408
  994TIP3    H1 2946   1.319   6.377   5.355
  994TIP3    H2 2947   1.284   6.236   5.397
  995TIP3   OH2 2948   1.655   1.843   2.613
  995TIP3    H1 2949   1.662   1.843   2.708
  995TIP3    H2 2950   1.691   1.928   2.587
  996TIP3   OH2 2951   6.917   4.270   2.770
  996TIP3    H1 2952   6.998   4.317   2.750
  996TIP3    H2 2953   6.910   4.274   2.866
  997TIP3   OH2 2954   1.966   1.002   4.886
  997TIP3    H1 2955   2.027   1.076   4.895
  997TIP3    H2 2956   1.881   1.043   4.874
  998TIP3   OH2 2957   5.192   5.049   1.578
  998TIP3    H1 2958   5.191   5.144   1.591
  998TIP3    H2 2959   5.132   5.034   1.505
  999TIP3   OH2 2960   5.505   0.233   2.448
  999TIP3    H1 2961   5.529   0.143   2.470
  999TIP3    H2 2962   5.427   0.251   2.501
 1000TIP3   OH2 2963   2.567   2.751   1.371
 1000TIP3    H1 2964   2.549   2.663   1.338
 1000TIP3    H2 2965   2.636   2.738   1.437
 1001TIP3   OH2 2966   3.678   0.667   5.118
 1001TIP3    H1 2967   3.586   0.653   5.139
 1001TIP3    H2 2968   3.720   0.676   5.204
 1002TIP3   OH2 2969   1.140   0.101   5.043
 1002TIP3    H1 2970   1.061   0.074   5.089
 1002TIP3    H2 2971   1.205   0.034   5.064
 1003TIP3   OH2 2972   4.502   5.178   0.173
 1003TIP3    H1 2973   4.448   5.111   0.213
 1003TIP3    H2 2974   4.472   5.182   0.082
 1004TIP3   OH2 2975   5.708   4.559   0.265
 1004TIP3    H1 2976   5.626   4.519   0.239
 1004TIP3    H2 2977   5.730   4.519   0.348
 1005TIP3   OH2 2978   0.058   2.944   0.933
 1005TIP3    H1 2979   0.122   2.991   0.879
 1005TIP3    H2 2980   0.013   2.887   0.871
 1006TIP3   OH2 2981   3.335   4.292   4.968
 1006TIP3    H1 2982   3.366   4.210   5.007
 1006TIP3    H2 2983   3.310   4.346   5.043
 1007TIP3   OH2 2984   7.097   0.429   0.653
 1007TIP3    H1 2985   7.036   0.411   0.724
 1007TIP3    H2 2986   7.184   0.427   0.693
 1008TIP3   OH2 2987   3.387   0.464   2.715
 1008TIP3    H1 2988   3.366   0.464   2.809
 1008TIP3    H2 2989   3.304   0.443   2.672
 1009TIP3   OH2 2990   5.236   4.274   4.353
 1009TIP3    H1 2991   5.322   4.296   4.316
 1009TIP3    H2 2992   5.177   4.341   4.318
 1010TIP3   OH2 2993   2.880   0.065   3.386
 1010TIP3    H1 2994   2.935  -0.006   3.353
 1010TIP3    H2 2995   2.795   0.050   3.346
 1011TIP3   OH2 2996   2.669   0.985   5.609
 1011TIP3    H1 2997   2.762   0.960   5.615
 1011TIP3    H2 2998   2.670   1.077   5.584
 1012TIP3   OH2 2999   4.278   5.163   3.808
 1012TIP3    H1 3000   4.261   5.253   3.836
 1012TIP3    H2 3001   4.266   5.110   3.887
 1013TIP3   OH2 3002   6.078   3.985   5.479
 1013TIP3    H1 3003   6.037   4.063   5.441
 1013TIP3    H2 3004   6.095   4.008   5.570
 1014TIP3   OH2 3005   4.131   6.646   5.443
 1014TIP3    H1 3006   4.199   6.649   5.510
 1014TIP3    H2 3007   4.171   6.686   5.366
 1015TIP3   OH2 3008   5.435   5.556   0.997
 1015TIP3    H1 3009   5.397   5.632   0.952
 1015TIP3    H2 3010   5.496   5.519   0.933
 1016TIP3   OH2 3011   4.444   1.197   1.397
 1016TIP3    H1 3012   4.361   1.189   1.350
 1016TIP3    H2 3013   4.505   1.234   1.333
 1017TIP3   OH2 3014   2.502   4.334   1.365
 1017TIP3    H1 3015   2.548   4.252   1.348
 1017TIP3    H2 3016   2.512   4.385   1.285
 1018TIP3   OH2 3017   2.081   5.841   1.876
 1018TIP3    H1 3018   2.068   5.747   1.886
 1018TIP3    H2 3019   2.159   5.860   1.928
 1019TIP3   OH2 3020   7.067   4.526   2.354
 1019TIP3    H1 3021   7.052   4.527   2.259
 1019TIP3    H2 3022   7.157   4.494   2.363
 1020TIP3   OH2 3023   5.193   3.501   1.764
 1020TIP3    H1 3024   5.176   3.443   1.838
 1020TIP3    H2 3025   5.108   3.510   1.720
 1021TIP3   OH2 3026   4.357   3.559   0.967
 1021TIP3    H1 3027   4.350   3.621   1.040
 1021TIP3    H2 3028   4.300   3.595   0.900
 1022TIP3   OH2 3029   5.729   0.163   2.779
 1022TIP3    H1 3030   5.692   0.251   2.787
 1022TIP3    H2 3031   5.653   0.104   2.779
 1023TIP3   OH2 3032   2.711   6.103   4.711
 1023TIP3    H1 3033   2.728   6.010   4.723
 1023TIP3    H2 3034   2.701   6.114   4.616
 1024TIP3   OH2 3035   2.656   1.050   5.865
 1024TIP3    H1 3036   2.628   0.995   5.938
 1024TIP3    H2 3037   2.652   0.992   5.789
 1025TIP3   OH2 3038   5.775   0.569   1.154
 1025TIP3    H1 3039   5.760   0.615   1.236
 1025TIP3    H2 3040   5.845   0.618   1.111
 1026TIP3   OH2 3041   7.195   6.435   4.551
 1026TIP3    H1 3042   7.134   6.509   4.541
 1026TIP3    H2 3043   7.148   6.372   4.605
 1027TIP3   OH2 3044   2.268   3.311   0.784
 1027TIP3    H1 3045   2.271   3.375   0.855
 1027TIP3    H2 3046   2.178   3.280   0.784
 1028TIP3   OH2 3047   1.040   2.181   5.066
 1028TIP3    H1 3048   1.069   2.256   5.118
 1028TIP3    H2 3049   1.118   2.125   5.060
 1029TIP3   OH2 3050   6.273   5.089   4.794
 1029TIP3    H1 3051   6.353   5.142   4.796
 1029TIP3    H2 3052   6.242   5.095   4.704
 1030TIP3   OH2 3053   0.259   3.814   1.859
 1030TIP3    H1 3054   0.198   3.877   1.819
 1030TIP3    H2 3055   0.315   3.868   1.916
 1031TIP3   OH2 3056   2.795   0.981   3.539
 1031TIP3    H1 3057   2.832   1.056   3.493
 1031TIP3    H2 3058   2.845   0.906   3.507
 1032TIP3   OH2 3059   3.589   3.802   1.657
 1032TIP3    H1 3060   3.586   3.764   1.569
 1032TIP3    H2 3061   3.589   3.897   1.642
 1033TIP3   OH2 3062   1.643   4.979   2.525
 1033TIP3    H1 3063   1.716   4.923   2.499
 1033TIP3    H2 3064   1.633   4.964   2.619
 1034TIP3   OH2 3065   5.485   5.255   0.599
 1034TIP3    H1 3066   5.487   5.318   0.527
 1034TIP3    H2 3067   5.511   5.172   0.558
 1035TIP3   OH2 3068   4.768   0.590   2.354
 1035TIP3    H1 3069   4.713   0.658   2.315
 1035TIP3    H2 3070   4.710   0.543   2.414
 1036TIP3   OH2 3071   0.025   1.794   4.634
 1036TIP3    H1 3072   0.070   1.767   4.554
 1036TIP3    H2 3073   0.075   1.753   4.704
 1037TIP3   OH2 3074   2.270   4.970   5.449
 1037TIP3    H1 3075   2.351   4.918   5.448
 1037TIP3    H2 3076   2.200   4.904   5.451
 1038TIP3   OH2 3077   0.694   5.397   4.542
 1038TIP3    H1 3078   0.657   5.361   4.622
 1038TIP3    H2 3079   0.751   5.468   4.572
 1039TIP3   OH2 3080   3.781   3.056   0.536
 1039TIP3    H1 3081   3.708   3.111   0.565
 1039TIP3    H2 3082   3.848   3.118   0.508
 1040TIP3   OH2 3083   4.244   0.871   0.726
 1040TIP3    H1 3084   4.217   0.875   0.634
 1040TIP3    H2 3085   4.265   0.778   0.740
 1041TIP3   OH2 3086   2.663   4.581   3.061
 1041TIP3    H1 3087   2.757   4.599   3.064
 1041TIP3    H2 3088   2.623   4.667   3.046
 1042TIP3   OH2 3089   5.948   3.426   0.217
 1042TIP3    H1 3090   5.857   3.411   0.193
 1042TIP3    H2 3091   5.950   3.517   0.248
 1043TIP3   OH2 3092   0.692   6.205   1.878
 1043TIP3    H1 3093   0.772   6.194   1.827
 1043TIP3    H2 3094   0.668   6.116   1.903
 1044TIP3   OH2 3095   6.846   0.488   4.211
 1044TIP3    H1 3096   6.818   0.557   4.270
 1044TIP3    H2 3097   6.879   0.535   4.134
 1045TIP3   OH2 3098   6.661   1.547   3.508
 1045TIP3    H1 3099   6.614   1.587   3.435
 1045TIP3    H2 3100   6.665   1.616   3.574
 1046TIP3   OH2 3101   6.789   2.618   0.287
 1046TIP3    H1 3102   6.830   2.543   0.330
 1046TIP3    H2 3103   6.715   2.581   0.239
 1047TIP3   OH2 3104   0.777   2.851   2.305
 1047TIP3    H1 3105   0.776   2.805   2.388
 1047TIP3    H2 3106   0.810   2.786   2.242
 1048TIP3   OH2 3107   5.452   2.702   3.041
 1048TIP3    H1 3108   5.372   2.747   3.065
 1048TIP3    H2 3109   5.467   2.640   3.112
 1049TIP3   OH2 3110   2.994   5.217   2.190
 1049TIP3    H1 3111   3.067   5.191   2.133
 1049TIP3    H2 3112   2.974   5.138   2.240
 1050TIP3   OH2 3113   2.039   1.309   1.695
 1050TIP3    H1 3114   2.127   1.278   1.719
 1050TIP3    H2 3115   1.991   1.230   1.670
 1051TIP3   OH2 3116   4.227   4.667   0.805
 1051TIP3    H1 3117   4.284   4.596   0.833
 1051TIP3    H2 3118   4.165   4.679   0.877
 1052TIP3   OH2 3119   5.004   5.105   3.534
 1052TIP3    H1 3120   5.032   5.161   3.607
 1052TIP3    H2 3121   4.972   5.025   3.575
 1053TIP3   OH2 3122   5.781   2.469   4.498
 1053TIP3    H1 3123   5.807   2.384   4.465
 1053TIP3    H2 3124   5.860   2.522   4.494
 1054TIP3   OH2 3125   4.392   4.478   0.943
 1054TIP3    H1 3126   4.459   4.475   1.010
 1054TIP3    H2 3127   4.384   4.388   0.912
 1055TIP3   OH2 3128   5.711   6.029   0.136
 1055TIP3    H1 3129   5.686   5.950   0.086
 1055TIP3    H2 3130   5.805   6.020   0.150
 1056TIP3   OH2 3131   2.597   2.092   3.480
 1056TIP3    H1 3132   2.588   2.017   3.422
 1056TIP3    H2 3133   2.691   2.098   3.496
 1057TIP3   OH2 3134   3.837   5.266   3.424
 1057TIP3    H1 3135   3.767   5.200   3.430
 1057TIP3    H2 3136   3.826   5.320   3.502
 1058TIP3   OH2 3137   5.102   6.299   0.936
 1058TIP3    H1 3138   5.076   6.351   0.860
 1058TIP3    H2 3139   5.125   6.364   1.002
 1059TIP3   OH2 3140   6.315   6.024   4.103
 1059TIP3    H1 3141   6.245   6.068   4.151
 1059TIP3    H2 3142   6.269   5.968   4.040
 1060TIP3   OH2 3143   2.290   4.850   1.069
 1060TIP3    H1 3144   2.255   4.888   0.988
 1060TIP3    H2 3145   2.275   4.917   1.135
 1061TIP3   OH2 3146   6.247   0.278   1.086
 1061TIP3    H1 3147   6.224   0.281   1.179
 1061TIP3    H2 3148   6.185   0.337   1.044
 1062TIP3   OH2 3149   3.010   5.078   1.589
 1062TIP3    H1 3150   3.078   5.020   1.554
 1062TIP3    H2 3151   2.928   5.032   1.573
 1063TIP3   OH2 3152   2.844   6.268   1.027
 1063TIP3    H1 3153   2.896   6.187   1.024
 1063TIP3    H2 3154   2.876   6.314   1.105
 1064TIP3   OH2 3155   3.061   1.030   1.398
 1064TIP3    H1 3156   3.143   0.984   1.409
 1064TIP3    H2 3157   3.030   1.003   1.311
 1065TIP3   OH2 3158   1.707   3.504   3.996
 1065TIP3    H1 3159   1.697   3.598   4.006
 1065TIP3    H2 3160   1.672   3.467   4.078
 1066TIP3   OH2 3161   1.539   4.079   1.953
 1066TIP3    H1 3162   1.611   4.016   1.956
 1066TIP3    H2 3163   1.525   4.103   2.045
 1067TIP3   OH2 3164   5.965   2.159   3.847
 1067TIP3    H1 3165   5.984   2.223   3.779
 1067TIP3    H2 3166   5.886   2.115   3.818
 1068TIP3   OH2 3167   5.691   4.577   4.092
 1068TIP3    H1 3168   5.743   4.496   4.094
 1068TIP3    H2 3169   5.723   4.627   4.167
 1069TIP3   OH2 3170   6.883   4.469   3.687
 1069TIP3    H1 3171   6.918   4.548   3.646
 1069TIP3    H2 3172   6.937   4.398   3.653
 1070TIP3   OH2 3173   3.288   2.306   2.538
 1070TIP3    H1 3174   3.283   2.344   2.626
 1070TIP3    H2 3175   3.374   2.264   2.534
 1071TIP3   OH2 3176   1.858   2.154   0.184
 1071TIP3    H1 3177   1.854   2.070   0.138
 1071TIP3    H2 3178   1.900   2.133   0.268
 1072TIP3   OH2 3179   4.775   4.529   2.311
 1072TIP3    H1 3180   4.785   4.458   2.248
 1072TIP3    H2 3181   4.859   4.574   2.310
 1073TIP3   OH2 3182   2.138   4.590   5.731
 1073TIP3    H1 3183   2.162   4.537   5.807
 1073TIP3    H2 3184   2.085   4.532   5.676
 1074TIP3   OH2 3185   5.398   6.175   1.220
 1074TIP3    H1 3186   5.345   6.185   1.298
 1074TIP3    H2 3187   5.383   6.255   1.169
 1075TIP3   OH2 3188   0.617   3.295   5.808
 1075TIP3    H1 3189   0.545   3.239   5.778
 1075TIP3    H2 3190   0.574   3.368   5.852
 1076TIP3   OH2 3191   5.668   1.983   5.039
 1076TIP3    H1 3192   5.751   1.938   5.024
 1076TIP3    H2 3193   5.678   2.022   5.126
 1077TIP3   OH2 3194   4.475   1.034   3.803
 1077TIP3    H1 3195   4.563   0.997   3.798
 1077TIP3    H2 3196   4.482   1.120   3.761
 1078TIP3   OH2 3197   2.578   4.551   4.967
 1078TIP3    H1 3198   2.515   4.522   4.902
 1078TIP3    H2 3199   2.533   4.620   5.016
 1079TIP3   OH2 3200   3.103   1.469   4.564
 1079TIP3    H1 3201   3.032   1.511   4.515
 1079TIP3    H2 3202   3.078   1.377   4.568
 1080TIP3   OH2 3203   4.016   1.878   2.099
 1080TIP3    H1 3204   4.060   1.956   2.134
 1080TIP3    H2 3205   4.086   1.830   2.053
 1081TIP3   OH2 3206   6.754   5.892   2.902
 1081TIP3    H1 3207   6.769   5.813   2.851
 1081TIP3    H2 3208   6.731   5.861   2.989
 1082TIP3   OH2 3209   0.510   4.538   4.451
 1082TIP3    H1 3210   0.529   4.457   4.498
 1082TIP3    H2 3211   0.477   4.598   4.518
 1083TIP3   OH2 3212   2.835   1.577   2.565
 1083TIP3    H1 3213   2.810   1.543   2.479
 1083TIP3    H2 3214   2.908   1.636   2.547
 1084TIP3   OH2 3215   3.219   4.250   1.317
 1084TIP3    H1 3216   3.271   4.330   1.323
 1084TIP3    H2 3217   3.253   4.205   1.240
 1085TIP3   OH2 3218   2.352   0.743   5.271
 1085TIP3    H1 3219   2.411   0.801   5.319
 1085TIP3    H2 3220   2.317   0.797   5.201
 1086TIP3   OH2 3221   4.296   5.532   2.303
 1086TIP3    H1 3222   4.383   5.501   2.324
 1086TIP3    H2 3223   4.241   5.454   2.306
 1087TIP3   OH2 3224   0.453   1.079   2.284
 1087TIP3    H1 3225   0.420   1.146   2.224
 1087TIP3    H2 3226   0.442   1.117   2.371
 1088TIP3   OH2 3227   3.723   0.120   2.073
 1088TIP3    H1 3228   3.757   0.044   2.025
 1088TIP3    H2 3229   3.784   0.131   2.146
 1089TIP3   OH2 3230   1.001   4.264   0.922
 1089TIP3    H1 3231   0.999   4.183   0.973
 1089TIP3    H2 3232   1.063   4.319   0.969
 1090TIP3   OH2 3233   6.744   5.701   4.351
 1090TIP3    H1 3234   6.806   5.634   4.324
 1090TIP3    H2 3235   6.760   5.712   4.445
 1091TIP3   OH2 3236   6.735   2.570   2.405
 1091TIP3    H1 3237   6.797   2.581   2.334
 1091TIP3    H2 3238   6.720   2.659   2.438
 1092TIP3   OH2 3239   1.948   2.572   4.483
 1092TIP3    H1 3240   1.917   2.522   4.558
 1092TIP3    H2 3241   1.918   2.522   4.407
 1093TIP3   OH2 3242   4.853   3.862   3.464
 1093TIP3    H1 3243   4.899   3.789   3.506
 1093TIP3    H2 3244   4.886   3.940   3.508
 1094TIP3   OH2 3245   3.399   3.914   3.669
 1094TIP3    H1 3246   3.337   3.966   3.721
 1094TIP3    H2 3247   3.363   3.826   3.670
 1095TIP3   OH2 3248   0.059   4.129   5.228
 1095TIP3    H1 3249   0.033   4.129   5.135
 1095TIP3    H2 3250   0.006   4.198   5.267
 1096TIP3   OH2 3251   4.476   3.683   0.046
 1096TIP3    H1 3252   4.421   3.665   0.123
 1096TIP3    H2 3253   4.483   3.599   0.002
 1097TIP3   OH2 3254   0.434   1.686   4.685
 1097TIP3    H1 3255   0.426   1.756   4.619
 1097TIP3    H2 3256   0.488   1.725   4.754
 1098TIP3   OH2 3257   1.114   1.091   1.717
 1098TIP3    H1 3258   1.126   1.128   1.630
 1098TIP3    H2 3259   1.165   1.009   1.716
 1099TIP3   OH2 3260   4.034   0.208   3.376
 1099TIP3    H1 3261   4.004   0.299   3.374
 1099TIP3    H2 3262   4.059   0.189   3.286
 1100TIP3   OH2 3263   6.551   6.632   1.291
 1100TIP3    H1 3264   6.520   6.547   1.262
 1100TIP3    H2 3265   6.613   6.613   1.362
 1101TIP3   OH2 3266   5.136   2.028   3.459
 1101TIP3    H1 3267   5.197   2.005   3.389
 1101TIP3    H2 3268   5.186   2.012   3.539
 1102TIP3   OH2 3269   7.054   6.391   3.451
 1102TIP3    H1 3270   7.123   6.455   3.468
 1102TIP3    H2 3271   7.029   6.408   3.360
 1103TIP3   OH2 3272   1.880   3.616   1.583
 1103TIP3    H1 3273   1.881   3.521   1.572
 1103TIP3    H2 3274   1.905   3.650   1.497
 1104TIP3   OH2 3275   5.396   0.578   0.449
 1104TIP3    H1 3276   5.414   0.541   0.535
 1104TIP3    H2 3277   5.356   0.506   0.400
 1105TIP3   OH2 3278   3.404   5.214   3.627
 1105TIP3    H1 3279   3.370   5.189   3.541
 1105TIP3    H2 3280   3.356   5.294   3.649
 1106TIP3   OH2 3281   0.210   1.018   4.210
 1106TIP3    H1 3282   0.176   0.985   4.127
 1106TIP3    H2 3283   0.271   0.951   4.239
 1107TIP3   OH2 3284   0.008   4.090   0.885
 1107TIP3    H1 3285   0.098   4.060   0.870
 1107TIP3    H2 3286  -0.001   4.168   0.830
 1108TIP3   OH2 3287   3.233   2.066   1.612
 1108TIP3    H1 3288   3.324   2.043   1.632
 1108TIP3    H2 3289   3.230   2.071   1.517
 1109TIP3   OH2 3290   5.134   3.652   4.905
 1109TIP3    H1 3291   5.097   3.631   4.819
 1109TIP3    H2 3292   5.079   3.605   4.967
 1110TIP3   OH2 3293   6.490   2.263   0.583
 1110TIP3    H1 3294   6.492   2.275   0.678
 1110TIP3    H2 3295   6.535   2.179   0.569
 1111TIP3   OH2 3296   4.183   0.402   2.565
 1111TIP3    H1 3297   4.103   0.449   2.586
 1111TIP3    H2 3298   4.245   0.470   2.537
 1112TIP3   OH2 3299   4.325   5.029   4.276
 1112TIP3    H1 3300   4.273   5.104   4.305
 1112TIP3    H2 3301   4.303   4.959   4.337
 1113TIP3   OH2 3302   1.280   1.979   4.268
 1113TIP3    H1 3303   1.194   1.940   4.255
 1113TIP3    H2 3304   1.338   1.904   4.286
 1114TIP3   OH2 3305   1.914   4.898   2.038
 1114TIP3    H1 3306   1.944   4.954   1.966
 1114TIP3    H2 3307   1.887   4.817   1.995
 1115TIP3   OH2 3308   4.213   4.399   1.482
 1115TIP3    H1 3309   4.155   4.402   1.405
 1115TIP3    H2 3310   4.248   4.488   1.489
 1116TIP3   OH2 3311   5.092   2.183   4.937
 1116TIP3    H1 3312   5.118   2.229   5.017
 1116TIP3    H2 3313   5.045   2.248   4.886
 1117TIP3   OH2 3314   6.646   3.918   5.610
 1117TIP3    H1 3315   6.736   3.944   5.630
 1117TIP3    H2 3316   6.644   3.823   5.626
 1118TIP3   OH2 3317   5.591   1.428   5.017
 1118TIP3    H1 3318   5.629   1.500   5.068
 1118TIP3    H2 3319   5.512   1.465   4.978
 1119TIP3   OH2 3320  -0.030   3.997   1.966
 1119TIP3    H1 3321   0.012   3.976   1.882
 1119TIP3    H2 3322  -0.053   4.089   1.959
 1120TIP3   OH2 3323   5.640   0.761   4.896
 1120TIP3    H1 3324   5.650   0.842   4.846
 1120TIP3    H2 3325   5.722   0.754   4.945
 1121TIP3   OH2 3326   6.600   3.994   4.388
 1121TIP3    H1 3327   6.579   3.926   4.452
 1121TIP3    H2 3328   6.523   4.051   4.389
 1122TIP3   OH2 3329   0.147   3.319   5.292
 1122TIP3    H1 3330   0.129   3.266   5.215
 1122TIP3    H2 3331   0.222   3.276   5.334
 1123TIP3   OH2 3332   5.317   0.104   1.500
 1123TIP3    H1 3333   5.227   0.136   1.497
 1123TIP3    H2 3334   5.311   0.014   1.466
 1124TIP3   OH2 3335   5.423   2.497   0.499
 1124TIP3    H1 3336   5.331   2.523   0.512
 1124TIP3    H2 3337   5.421   2.402   0.496
 1125TIP3   OH2 3338   3.226   2.924   1.603
 1125TIP3    H1 3339   3.256   2.875   1.526
 1125TIP3    H2 3340   3.138   2.952   1.581
 1126TIP3   OH2 3341   4.890   2.058   5.332
 1126TIP3    H1 3342   4.863   2.149   5.330
 1126TIP3    H2 3343   4.985   2.060   5.318
 1127TIP3   OH2 3344   5.501   4.120   2.628
 1127TIP3    H1 3345   5.420   4.102   2.580
 1127TIP3    H2 3346   5.490   4.075   2.711
 1128TIP3   OH2 3347   5.103   3.284   1.123
 1128TIP3    H1 3348   5.100   3.189   1.123
 1128TIP3    H2 3349   5.168   3.306   1.055
 1129TIP3   OH2 3350   4.275   4.673   1.326
 1129TIP3    H1 3351   4.334   4.729   1.376
 1129TIP3    H2 3352   4.329   4.597   1.302
 1130TIP3   OH2 3353   6.026   2.082   2.195
 1130TIP3    H1 3354   6.110   2.085   2.150
 1130TIP3    H2 3355   5.984   2.002   2.164
 1131TIP3   OH2 3356   2.689   1.352   3.425
 1131TIP3    H1 3357   2.646   1.266   3.420
 1131TIP3    H2 3358   2.673   1.391   3.339
 1132TIP3   OH2 3359   2.741   6.390   0.319
 1132TIP3    H1 3360   2.823   6.433   0.295
 1132TIP3    H2 3361   2.715   6.433   0.400
 1133TIP3   OH2 3362   3.033   2.860   5.551
 1133TIP3    H1 3363   3.078   2.911   5.483
 1133TIP3    H2 3364   2.946   2.899   5.556
 1134TIP3   OH2 3365   3.589   5.067   0.290
 1134TIP3    H1 3366   3.556   5.127   0.357
 1134TIP3    H2 3367   3.604   5.122   0.213
 1135TIP3   OH2 3368   3.889   6.488   3.809
 1135TIP3    H1 3369   3.982   6.486   3.833
 1135TIP3    H2 3370   3.876   6.406   3.760
 1136TIP3   OH2 3371   6.565   2.483   0.108
 1136TIP3    H1 3372   6.562   2.411   0.171
 1136TIP3    H2 3373   6.474   2.503   0.090
 1137TIP3   OH2 3374   0.692   4.384   0.412
 1137TIP3    H1 3375   0.637   4.343   0.346
 1137TIP3    H2 3376   0.639   4.455   0.447
 1138TIP3   OH2 3377   7.094   1.137   4.364
 1138TIP3    H1 3378   7.133   1.081   4.431
 1138TIP3    H2 3379   7.003   1.145   4.390
 1139TIP3   OH2 3380   7.073   3.468   0.438
 1139TIP3    H1 3381   7.112   3.382   0.424
 1139TIP3    H2 3382   7.126   3.528   0.385
 1140TIP3   OH2 3383   6.898   1.602   1.510
 1140TIP3    H1 3384   6.858   1.565   1.589
 1140TIP3    H2 3385   6.992   1.595   1.526
 1141TIP3   OH2 3386   6.440   6.073   5.295
 1141TIP3    H1 3387   6.363   6.101   5.344
 1141TIP3    H2 3388   6.482   6.154   5.268
 1142TIP3   OH2 3389   4.307   5.222   2.811
 1142TIP3    H1 3390   4.254   5.300   2.793
 1142TIP3    H2 3391   4.274   5.189   2.895
 1143TIP3   OH2 3392   6.754   2.994   4.895
 1143TIP3    H1 3393   6.789   2.910   4.923
 1143TIP3    H2 3394   6.662   2.992   4.923
 1144TIP3   OH2 3395   1.806   3.709   2.010
 1144TIP3    H1 3396   1.892   3.694   1.970
 1144TIP3    H2 3397   1.759   3.627   1.998
 1145TIP3   OH2 3398   2.251   6.055   3.620
 1145TIP3    H1 3399   2.226   5.966   3.595
 1145TIP3    H2 3400   2.258   6.052   3.715
 1146TIP3   OH2 3401   0.729   4.460   1.418
 1146TIP3    H1 3402   0.795   4.490   1.356
 1146TIP3    H2 3403   0.763   4.488   1.503
 1147TIP3   OH2 3404   0.181   1.847   2.815
 1147TIP3    H1 3405   0.149   1.895   2.891
 1147TIP3    H2 3406   0.179   1.910   2.743
 1148TIP3   OH2 3407   2.472   5.085   4.058
 1148TIP3    H1 3408   2.532   5.077   3.984
 1148TIP3    H2 3409   2.527   5.071   4.135
 1149TIP3   OH2 3410   3.634   5.431   1.726
 1149TIP3    H1 3411   3.715   5.433   1.777
 1149TIP3    H2 3412   3.640   5.508   1.670
 1150TIP3   OH2 3413   4.537   2.488   3.785
 1150TIP3    H1 3414   4.605   2.436   3.742
 1150TIP3    H2 3415   4.556   2.482   3.878
 1151TIP3   OH2 3416   3.891   0.321   1.224
 1151TIP3    H1 3417   3.958   0.252   1.224
 1151TIP3    H2 3418   3.941   0.403   1.215
 1152TIP3   OH2 3419   2.393   5.194   3.470
 1152TIP3    H1 3420   2.450   5.173   3.544
 1152TIP3    H2 3421   2.417   5.130   3.403
 1153TIP3   OH2 3422   6.279   0.944   1.767
 1153TIP3    H1 3423   6.331   1.025   1.763
 1153TIP3    H2 3424   6.199   0.969   1.813
 1154TIP3   OH2 3425   1.019   1.126   3.862
 1154TIP3    H1 3426   1.098   1.071   3.861
 1154TIP3    H2 3427   0.952   1.069   3.900
 1155TIP3   OH2 3428   2.117   2.143   0.749
 1155TIP3    H1 3429   2.146   2.071   0.693
 1155TIP3    H2 3430   2.037   2.111   0.790
 1156TIP3   OH2 3431   1.568   6.671   4.104
 1156TIP3    H1 3432   1.629   6.705   4.170
 1156TIP3    H2 3433   1.496   6.734   4.102
 1157TIP3   OH2 3434   1.143   3.003   1.933
 1157TIP3    H1 3435   1.118   2.932   1.874
 1157TIP3    H2 3436   1.077   3.002   2.001
 1158TIP3   OH2 3437   0.923   6.129   4.441
 1158TIP3    H1 3438   0.898   6.156   4.529
 1158TIP3    H2 3439   0.915   6.209   4.388
 1159TIP3   OH2 3440   6.636   4.414   4.479
 1159TIP3    H1 3441   6.652   4.424   4.385
 1159TIP3    H2 3442   6.580   4.337   4.485
 1160TIP3   OH2 3443   6.286   0.549   2.460
 1160TIP3    H1 3444   6.276   0.598   2.541
 1160TIP3    H2 3445   6.197   0.543   2.425
 1161TIP3   OH2 3446   0.826   6.807   5.713
 1161TIP3    H1 3447   0.736   6.833   5.696
 1161TIP3    H2 3448   0.840   6.825   5.805
 1162TIP3   OH2 3449   6.368   6.043   0.202
 1162TIP3    H1 3450   6.312   5.999   0.137
 1162TIP3    H2 3451   6.444   5.986   0.211
 1163TIP3   OH2 3452   1.153   2.064   0.044
 1163TIP3    H1 3453   1.107   1.986   0.074
 1163TIP3    H2 3454   1.244   2.049   0.069
 1164TIP3   OH2 3455   2.808   3.012   5.890
 1164TIP3    H1 3456   2.752   3.004   5.813
 1164TIP3    H2 3457   2.858   2.931   5.891
 1165TIP3   OH2 3458   7.019   1.762   0.337
 1165TIP3    H1 3459   7.094   1.730   0.288
 1165TIP3    H2 3460   7.012   1.703   0.412
 1166TIP3   OH2 3461   2.611   4.571   5.647
 1166TIP3    H1 3462   2.613   4.477   5.667
 1166TIP3    H2 3463   2.530   4.602   5.687
 1167TIP3   OH2 3464   7.233   5.052   2.961
 1167TIP3    H1 3465   7.250   5.045   2.867
 1167TIP3    H2 3466   7.229   5.146   2.978
 1168TIP3   OH2 3467   4.007   0.125   5.699
 1168TIP3    H1 3468   4.025   0.133   5.606
 1168TIP3    H2 3469   4.002   0.030   5.714
 1169TIP3   OH2 3470   1.069   5.111   0.204
 1169TIP3    H1 3471   1.139   5.098   0.267
 1169TIP3    H2 3472   1.027   5.192   0.232
 1170TIP3   OH2 3473   2.033   6.708   2.300
 1170TIP3    H1 3474   2.018   6.782   2.241
 1170TIP3    H2 3475   1.959   6.711   2.360
 1171TIP3   OH2 3476   1.613   1.083   1.103
 1171TIP3    H1 3477   1.680   1.031   1.146
 1171TIP3    H2 3478   1.661   1.149   1.053
 1172TIP3   OH2 3479   2.928   6.153   2.184
 1172TIP3    H1 3480   3.013   6.126   2.219
 1172TIP3    H2 3481   2.895   6.217   2.248
 1173TIP3   OH2 3482   2.031   0.097   5.279
 1173TIP3    H1 3483   1.943   0.062   5.262
 1173TIP3    H2 3484   2.015   0.182   5.319
 1174TIP3   OH2 3485   6.607   6.182   3.659
 1174TIP3    H1 3486   6.581   6.090   3.660
 1174TIP3    H2 3487   6.686   6.185   3.714
 1175TIP3   OH2 3488   5.033   5.167   5.270
 1175TIP3    H1 3489   4.973   5.142   5.199
 1175TIP3    H2 3490   5.120   5.153   5.234
 1176TIP3   OH2 3491   6.780   1.863   0.310
 1176TIP3    H1 3492   6.830   1.936   0.274
 1176TIP3    H2 3493   6.846   1.797   0.330
 1177TIP3   OH2 3494   2.417   2.763   0.061
 1177TIP3    H1 3495   2.405   2.832   0.126
 1177TIP3    H2 3496   2.346   2.777  -0.002
 1178TIP3   OH2 3497   3.945   4.460   4.980
 1178TIP3    H1 3498   3.862   4.412   4.987
 1178TIP3    H2 3499   4.011   4.397   5.009
 1179TIP3   OH2 3500   4.789   2.655   2.723
 1179TIP3    H1 3501   4.773   2.747   2.703
 1179TIP3    H2 3502   4.789   2.612   2.637
 1180TIP3   OH2 3503   1.163   6.393   3.558
 1180TIP3    H1 3504   1.081   6.407   3.605
 1180TIP3    H2 3505   1.159   6.302   3.529
 1181TIP3   OH2 3506   4.983   3.846   4.273
 1181TIP3    H1 3507   5.038   3.898   4.331
 1181TIP3    H2 3508   5.023   3.759   4.274
 1182TIP3   OH2 3509   1.947   5.280   4.980
 1182TIP3    H1 3510   2.003   5.353   4.955
 1182TIP3    H2 3511   1.955   5.218   4.907
 1183TIP3   OH2 3512   1.494   2.971   2.978
 1183TIP3    H1 3513   1.488   2.960   2.883
 1183TIP3    H2 3514   1.419   3.024   3.001
 1184TIP3   OH2 3515   5.608   4.176   3.877
 1184TIP3    H1 3516   5.557   4.229   3.815
 1184TIP3    H2 3517   5.554   4.099   3.893
 1185TIP3   OH2 3518   5.877   6.736   1.919
 1185TIP3    H1 3519   5.949   6.768   1.864
 1185TIP3    H2 3520   5.855   6.651   1.883
 1186TIP3   OH2 3521   7.045   1.983   1.178
 1186TIP3    H1 3522   7.104   2.058   1.170
 1186TIP3    H2 3523   7.034   1.971   1.272
 1187TIP3   OH2 3524   3.912   3.375   1.200
 1187TIP3    H1 3525   3.966   3.328   1.264
 1187TIP3    H2 3526   3.826   3.332   1.207
 1188TIP3   OH2 3527   5.361   1.830   5.682
 1188TIP3    H1 3528   5.310   1.752   5.702
 1188TIP3    H2 3529   5.343   1.848   5.590
 1189TIP3   OH2 3530   1.888   1.301   0.723
 1189TIP3    H1 3531   1.975   1.266   0.702
 1189TIP3    H2 3532   1.828   1.243   0.676
 1190TIP3   OH2 3533   0.381   5.396   2.519
 1190TIP3    H1 3534   0.433   5.317   2.531
 1190TIP3    H2 3535   0.300   5.366   2.479
 1191TIP3   OH2 3536   1.165   3.523   4.097
 1191TIP3    H1 3537   1.150   3.455   4.032
 1191TIP3    H2 3538   1.078   3.550   4.124
 1192TIP3   OH2 3539   3.958   1.246   3.424
 1192TIP3    H1 3540   4.024   1.238   3.355
 1192TIP3    H2 3541   3.931   1.338   3.420
 1193TIP3   OH2 3542   3.120   5.614   5.239
 1193TIP3    H1 3543   3.064   5.641   5.311
 1193TIP3    H2 3544   3.092   5.525   5.218
 1194TIP3   OH2 3545   4.538   0.429   1.055
 1194TIP3    H1 3546   4.590   0.439   1.135
 1194TIP3    H2 3547   4.546   0.336   1.033
 1195TIP3   OH2 3548   6.764   0.394   1.524
 1195TIP3    H1 3549   6.831   0.421   1.461
 1195TIP3    H2 3550   6.684   0.386   1.472
 1196TIP3   OH2 3551   1.827   4.852   5.485
 1196TIP3    H1 3552   1.921   4.835   5.494
 1196TIP3    H2 3553   1.822   4.944   5.459
 1197TIP3   OH2 3554   3.096   2.093   0.615
 1197TIP3    H1 3555   3.182   2.099   0.657
 1197TIP3    H2 3556   3.066   2.005   0.635
 1198TIP3   OH2 3557   0.505   1.870   0.338
 1198TIP3    H1 3558   0.462   1.822   0.267
 1198TIP3    H2 3559   0.532   1.952   0.297
 1199TIP3   OH2 3560   1.551   3.233   1.964
 1199TIP3    H1 3561   1.497   3.230   2.044
 1199TIP3    H2 3562   1.540   3.146   1.925
 1200TIP3   OH2 3563   4.180   1.260   5.690
 1200TIP3    H1 3564   4.219   1.348   5.687
 1200TIP3    H2 3565   4.219   1.219   5.766
 1201TIP3   OH2 3566   0.881   4.428   0.150
 1201TIP3    H1 3567   0.793   4.463   0.138
 1201TIP3    H2 3568   0.939   4.504   0.140
 1202TIP3   OH2 3569   3.413   2.968   1.389
 1202TIP3    H1 3570   3.487   2.938   1.337
 1202TIP3    H2 3571   3.452   2.992   1.474
 1203TIP3   OH2 3572   3.602   0.356   3.039
 1203TIP3    H1 3573   3.656   0.434   3.053
 1203TIP3    H2 3574   3.658   0.296   2.990
 1204TIP3   OH2 3575   1.292   0.789   4.019
 1204TIP3    H1 3576   1.296   0.864   3.960
 1204TIP3    H2 3577   1.200   0.784   4.047
 1205TIP3   OH2 3578   1.028   4.835   5.763
 1205TIP3    H1 3579   1.022   4.800   5.853
 1205TIP3    H2 3580   0.953   4.796   5.718
 1206TIP3   OH2 3581   2.729   0.625   2.267
 1206TIP3    H1 3582   2.634   0.630   2.256
 1206TIP3    H2 3583   2.746   0.532   2.285
 1207TIP3   OH2 3584   1.385   2.643   2.826
 1207TIP3    H1 3585   1.444   2.620   2.754
 1207TIP3    H2 3586   1.363   2.559   2.866
 1208TIP3   OH2 3587   5.592   3.570   1.719
 1208TIP3    H1 3588   5.587   3.514   1.641
 1208TIP3    H2 3589   5.547   3.520   1.787
 1209TIP3   OH2 3590   4.273   6.822   4.024
 1209TIP3    H1 3591   4.246   6.890   4.086
 1209TIP3    H2 3592   4.369   6.830   4.021
 1210TIP3   OH2 3593   1.773   2.111   2.552
 1210TIP3    H1 3594   1.690   2.114   2.504
 1210TIP3    H2 3595   1.793   2.202   2.572
 1211TIP3   OH2 3596   7.020   5.783   1.259
 1211TIP3    H1 3597   6.979   5.697   1.253
 1211TIP3    H2 3598   7.069   5.781   1.341
 1212TIP3   OH2 3599   0.729   0.534   4.140
 1212TIP3    H1 3600   0.733   0.556   4.234
 1212TIP3    H2 3601   0.770   0.448   4.134
 1213TIP3   OH2 3602   5.107   6.423   2.615
 1213TIP3    H1 3603   5.114   6.472   2.533
 1213TIP3    H2 3604   5.030   6.368   2.602
 1214TIP3   OH2 3605   0.089   0.404   5.395
 1214TIP3    H1 3606   0.121   0.378   5.481
 1214TIP3    H2 3607  -0.002   0.431   5.409
 1215TIP3   OH2 3608   5.733   0.186   0.849
 1215TIP3    H1 3609   5.733   0.093   0.871
 1215TIP3    H2 3610   5.764   0.189   0.758
 1216TIP3   OH2 3611   1.034   4.425   1.568
 1216TIP3    H1 3612   1.022   4.384   1.482
 1216TIP3    H2 3613   1.011   4.356   1.631
 1217TIP3   OH2 3614   2.355   1.184   1.381
 1217TIP3    H1 3615   2.329   1.093   1.366
 1217TIP3    H2 3616   2.450   1.180   1.393
 1218TIP3   OH2 3617   2.688   3.314   3.201
 1218TIP3    H1 3618   2.625   3.252   3.165
 1218TIP3    H2 3619   2.709   3.372   3.127
 1219TIP3   OH2 3620   3.517   1.522   2.854
 1219TIP3    H1 3621   3.563   1.525   2.770
 1219TIP3    H2 3622   3.574   1.472   2.911
 1220TIP3   OH2 3623   5.482   5.836   5.825
 1220TIP3    H1 3624   5.460   5.823   5.917
 1220TIP3    H2 3625   5.434   5.767   5.779
 1221TIP3   OH2 3626   5.813   1.922   3.720
 1221TIP3    H1 3627   5.720   1.931   3.742
 1221TIP3    H2 3628   5.814   1.907   3.626
 1222TIP3   OH2 3629   5.154   3.000   1.318
 1222TIP3    H1 3630   5.249   3.011   1.321
 1222TIP3    H2 3631   5.125   3.023   1.407
 1223TIP3   OH2 3632   4.506   0.318   4.858
 1223TIP3    H1 3633   4.474   0.233   4.888
 1223TIP3    H2 3634   4.599   0.304   4.840
 1224TIP3   OH2 3635   2.388   5.505   3.153
 1224TIP3    H1 3636   2.422   5.594   3.168
 1224TIP3    H2 3637   2.441   5.449   3.209
 1225TIP3   OH2 3638   4.602   3.648   2.687
 1225TIP3    H1 3639   4.582   3.656   2.781
 1225TIP3    H2 3640   4.534   3.699   2.644
 1226TIP3   OH2 3641   5.050   1.566   1.782
 1226TIP3    H1 3642   5.118   1.559   1.849
 1226TIP3    H2 3643   4.976   1.518   1.819
 1227TIP3   OH2 3644   1.819   0.333   5.137
 1227TIP3    H1 3645   1.808   0.356   5.044
 1227TIP3    H2 3646   1.814   0.237   5.138
 1228TIP3   OH2 3647   6.940   6.583   4.387
 1228TIP3    H1 3648   6.991   6.618   4.313
 1228TIP3    H2 3649   6.970   6.633   4.462
 1229TIP3   OH2 3650   1.751   5.037   0.515
 1229TIP3    H1 3651   1.788   4.980   0.447
 1229TIP3    H2 3652   1.756   5.125   0.478
 1230TIP3   OH2 3653   5.245   3.134   5.487
 1230TIP3    H1 3654   5.288   3.074   5.548
 1230TIP3    H2 3655   5.293   3.122   5.405
 1231TIP3   OH2 3656   5.250   0.834   2.451
 1231TIP3    H1 3657   5.326   0.830   2.510
 1231TIP3    H2 3658   5.224   0.742   2.440
 1232TIP3   OH2 3659   3.129   1.993   2.181
 1232TIP3    H1 3660   3.224   1.984   2.187
 1232TIP3    H2 3661   3.100   2.011   2.270
 1233TIP3   OH2 3662   2.153   4.177   3.409
 1233TIP3    H1 3663   2.245   4.160   3.427
 1233TIP3    H2 3664   2.137   4.264   3.447
 1234TIP3   OH2 3665   3.838   5.402   1.008
 1234TIP3    H1 3666   3.916   5.442   1.044
 1234TIP3    H2 3667   3.788   5.475   0.971
 1235TIP3   OH2 3668   0.563   6.391   1.693
 1235TIP3    H1 3669   0.517   6.307   1.686
 1235TIP3    H2 3670   0.622   6.381   1.767
 1236TIP3   OH2 3671   2.119   4.036   0.396
 1236TIP3    H1 3672   2.192   4.056   0.455
 1236TIP3    H2 3673   2.135   4.091   0.319
 1237TIP3   OH2 3674   3.571   3.240   0.634
 1237TIP3    H1 3675   3.559   3.255   0.541
 1237TIP3    H2 3676   3.496   3.185   0.659
 1238TIP3   OH2 3677   3.150   6.635   0.560
 1238TIP3    H1 3678   3.241   6.654   0.581
 1238TIP3    H2 3679   3.140   6.661   0.469
 1239TIP3   OH2 3680   3.208   2.793   2.175
 1239TIP3    H1 3681   3.242   2.812   2.088
 1239TIP3    H2 3682   3.224   2.873   2.225
 1240TIP3   OH2 3683   3.138   5.870   2.371
 1240TIP3    H1 3684   3.163   5.962   2.365
 1240TIP3    H2 3685   3.215   5.821   2.342
 1241TIP3   OH2 3686   4.646   4.475   5.854
 1241TIP3    H1 3687   4.723   4.466   5.909
 1241TIP3    H2 3688   4.637   4.390   5.810
 1242TIP3   OH2 3689   1.646   3.633   3.054
 1242TIP3    H1 3690   1.735   3.641   3.086
 1242TIP3    H2 3691   1.633   3.540   3.038
 1243TIP3   OH2 3692   5.254   2.534   2.920
 1243TIP3    H1 3693   5.333   2.579   2.949
 1243TIP3    H2 3694   5.257   2.540   2.824
 1244TIP3   OH2 3695   1.021   0.706   1.691
 1244TIP3    H1 3696   1.109   0.676   1.667
 1244TIP3    H2 3697   0.973   0.625   1.711
 1245TIP3   OH2 3698   6.905   4.998   4.819
 1245TIP3    H1 3699   6.969   5.002   4.748
 1245TIP3    H2 3700   6.828   5.043   4.784
 1246TIP3   OH2 3701   4.011   4.670   0.351
 1246TIP3    H1 3702   3.987   4.582   0.322
 1246TIP3    H2 3703   4.091   4.690   0.303
 1247TIP3   OH2 3704   4.951   6.782   2.537
 1247TIP3    H1 3705   4.903   6.703   2.514
 1247TIP3    H2 3706   5.043   6.761   2.516
 1248TIP3   OH2 3707   2.504   2.645   3.889
 1248TIP3    H1 3708   2.533   2.578   3.951
 1248TIP3    H2 3709   2.409   2.639   3.890
 1249TIP3   OH2 3710   5.790   1.975   1.781
 1249TIP3    H1 3711   5.711   2.017   1.815
 1249TIP3    H2 3712   5.763   1.886   1.758
 1250TIP3   OH2 3713   2.529   0.280   2.529
 1250TIP3    H1 3714   2.553   0.369   2.504
 1250TIP3    H2 3715   2.471   0.292   2.605
 1251TIP3   OH2 3716   2.986   0.405   4.486
 1251TIP3    H1 3717   2.969   0.441   4.398
 1251TIP3    H2 3718   2.976   0.480   4.545
 1252TIP3   OH2 3719   2.361   2.372   2.929
 1252TIP3    H1 3720   2.359   2.351   2.835
 1252TIP3    H2 3721   2.283   2.328   2.964
 1253TIP3   OH2 3722   1.716   1.700   5.829
 1253TIP3    H1 3723   1.795   1.656   5.797
 1253TIP3    H2 3724   1.698   1.769   5.765
 1254TIP3   OH2 3725   0.658   2.644   0.804
 1254TIP3    H1 3726   0.699   2.643   0.890
 1254TIP3    H2 3727   0.620   2.732   0.797
 1255TIP3   OH2 3728   3.048   5.473   1.908
 1255TIP3    H1 3729   3.023   5.382   1.917
 1255TIP3    H2 3730   2.999   5.505   1.833
 1256TIP3   OH2 3731   3.789   6.748   4.950
 1256TIP3    H1 3732   3.880   6.716   4.948
 1256TIP3    H2 3733   3.744   6.688   5.010
 1257TIP3   OH2 3734   1.801   3.747   5.696
 1257TIP3    H1 3735   1.825   3.792   5.777
 1257TIP3    H2 3736   1.706   3.746   5.696
 1258TIP3   OH2 3737   2.459   1.742   0.567
 1258TIP3    H1 3738   2.517   1.816   0.551
 1258TIP3    H2 3739   2.389   1.778   0.622
 1259TIP3   OH2 3740   1.801   5.075   3.248
 1259TIP3    H1 3741   1.768   5.159   3.278
 1259TIP3    H2 3742   1.736   5.011   3.278
 1260TIP3   OH2 3743   0.709   3.570   2.091
 1260TIP3    H1 3744   0.767   3.546   2.019
 1260TIP3    H2 3745   0.715   3.496   2.152
 1261TIP3   OH2 3746   5.278   2.980   1.662
 1261TIP3    H1 3747   5.186   2.986   1.689
 1261TIP3    H2 3748   5.326   2.963   1.743
 1262TIP3   OH2 3749   3.269   3.349   2.734
 1262TIP3    H1 3750   3.282   3.320   2.824
 1262TIP3    H2 3751   3.188   3.305   2.707
 1263TIP3   OH2 3752   5.278   5.647   2.725
 1263TIP3    H1 3753   5.300   5.608   2.810
 1263TIP3    H2 3754   5.340   5.607   2.664
 1264TIP3   OH2 3755   6.416   0.573   5.641
 1264TIP3    H1 3756   6.396   0.546   5.731
 1264TIP3    H2 3757   6.440   0.492   5.596
 1265TIP3   OH2 3758   6.801   3.402   2.833
 1265TIP3    H1 3759   6.737   3.332   2.843
 1265TIP3    H2 3760   6.886   3.358   2.840
 1266TIP3   OH2 3761   0.752   5.199   0.477
 1266TIP3    H1 3762   0.751   5.170   0.568
 1266TIP3    H2 3763   0.784   5.124   0.427
 1267TIP3   OH2 3764   4.243   1.674   2.180
 1267TIP3    H1 3765   4.333   1.642   2.171
 1267TIP3    H2 3766   4.215   1.643   2.266
 1268TIP3   OH2 3767   0.382   3.827   4.854
 1268TIP3    H1 3768   0.341   3.741   4.843
 1268TIP3    H2 3769   0.391   3.861   4.765
 1269TIP3   OH2 3770   3.424   1.530   3.953
 1269TIP3    H1 3771   3.475   1.472   3.897
 1269TIP3    H2 3772   3.486   1.562   4.019
 1270TIP3   OH2 3773   5.598   0.041   4.688
 1270TIP3    H1 3774   5.568  -0.045   4.659
 1270TIP3    H2 3775   5.522   0.098   4.679
 1271TIP3   OH2 3776   2.112   6.083   0.185
 1271TIP3    H1 3777   2.179   6.110   0.248
 1271TIP3    H2 3778   2.161   6.056   0.108
 1272TIP3   OH2 3779   6.219   6.448   4.426
 1272TIP3    H1 3780   6.159   6.484   4.361
 1272TIP3    H2 3781   6.250   6.524   4.475
 1273TIP3   OH2 3782   3.681   4.849   4.205
 1273TIP3    H1 3783   3.611   4.800   4.161
 1273TIP3    H2 3784   3.715   4.907   4.138
 1274TIP3   OH2 3785   7.180   4.584   3.518
 1274TIP3    H1 3786   7.257   4.619   3.474
 1274TIP3    H2 3787   7.137   4.661   3.557
 1275TIP3   OH2 3788   0.779   0.366   5.539
 1275TIP3    H1 3789   0.822   0.392   5.458
 1275TIP3    H2 3790   0.689   0.347   5.513
 1276TIP3   OH2 3791   6.558   0.405   1.351
 1276TIP3    H1 3792   6.528   0.486   1.392
 1276TIP3    H2 3793   6.485   0.377   1.296
 1277TIP3   OH2 3794   0.082   5.619   1.721
 1277TIP3    H1 3795   0.071   5.702   1.766
 1277TIP3    H2 3796   0.118   5.560   1.787
 1278TIP3   OH2 3797   4.140   3.331   0.310
 1278TIP3    H1 3798   4.195   3.375   0.375
 1278TIP3    H2 3799   4.189   3.254   0.283
 1279TIP3   OH2 3800   1.911   2.062   3.563
 1279TIP3    H1 3801   1.960   2.043   3.643
 1279TIP3    H2 3802   1.968   2.032   3.493
 1280TIP3   OH2 3803   5.814   5.262   3.511
 1280TIP3    H1 3804   5.889   5.261   3.572
 1280TIP3    H2 3805   5.854   5.253   3.425
 1281TIP3   OH2 3806   5.152   2.171   0.451
 1281TIP3    H1 3807   5.076   2.114   0.466
 1281TIP3    H2 3808   5.196   2.134   0.374
 1282TIP3   OH2 3809   0.966   4.181   0.234
 1282TIP3    H1 3810   0.946   4.262   0.188
 1282TIP3    H2 3811   1.033   4.138   0.181
 1283TIP3   OH2 3812   6.909   3.204   0.219
 1283TIP3    H1 3813   6.859   3.269   0.267
 1283TIP3    H2 3814   6.848   3.131   0.205
 1284TIP3   OH2 3815   0.646   2.352   0.972
 1284TIP3    H1 3816   0.684   2.438   0.951
 1284TIP3    H2 3817   0.718   2.291   0.964
 1285TIP3   OH2 3818   7.051   2.592   1.318
 1285TIP3    H1 3819   7.043   2.641   1.400
 1285TIP3    H2 3820   7.144   2.568   1.314
 1286TIP3   OH2 3821   0.959   3.370   0.765
 1286TIP3    H1 3822   0.895   3.413   0.821
 1286TIP3    H2 3823   0.926   3.280   0.755
 1287TIP3   OH2 3824   0.480   5.527   5.241
 1287TIP3    H1 3825   0.434   5.451   5.274
 1287TIP3    H2 3826   0.572   5.512   5.263
 1288TIP3   OH2 3827   3.691   5.139   2.396
 1288TIP3    H1 3828   3.623   5.071   2.400
 1288TIP3    H2 3829   3.772   5.093   2.418
 1289TIP3   OH2 3830   2.605   0.426   0.589
 1289TIP3    H1 3831   2.598   0.517   0.562
 1289TIP3    H2 3832   2.572   0.376   0.514
 1290TIP3   OH2 3833   1.808   0.959   5.687
 1290TIP3    H1 3834   1.852   0.918   5.761
 1290TIP3    H2 3835   1.804   1.052   5.710
 1291TIP3   OH2 3836   0.066   6.234   5.675
 1291TIP3    H1 3837  -0.023   6.247   5.707
 1291TIP3    H2 3838   0.118   6.303   5.717
 1292TIP3   OH2 3839   2.601   1.182   1.792
 1292TIP3    H1 3840   2.577   1.221   1.708
 1292TIP3    H2 3841   2.685   1.223   1.815
 1293TIP3   OH2 3842   3.154   2.061   2.849
 1293TIP3    H1 3843   3.160   2.053   2.944
 1293TIP3    H2 3844   3.244   2.052   2.818
 1294TIP3   OH2 3845   7.132   5.029   4.967
 1294TIP3    H1 3846   7.040   5.020   4.943
 1294TIP3    H2 3847   7.142   4.975   5.045
 1295TIP3   OH2 3848   0.402   2.825   5.261
 1295TIP3    H1 3849   0.498   2.824   5.264
 1295TIP3    H2 3850   0.381   2.850   5.170
 1296TIP3   OH2 3851   6.739   5.771   2.454
 1296TIP3    H1 3852   6.833   5.787   2.464
 1296TIP3    H2 3853   6.727   5.758   2.360
 1297TIP3   OH2 3854   3.153   5.695   1.103
 1297TIP3    H1 3855   3.200   5.724   1.025
 1297TIP3    H2 3856   3.067   5.668   1.072
 1298TIP3   OH2 3857   2.107   6.504   0.320
 1298TIP3    H1 3858   2.075   6.466   0.238
 1298TIP3    H2 3859   2.068   6.449   0.388
 1299TIP3   OH2 3860   6.429   2.804   5.586
 1299TIP3    H1 3861   6.500   2.746   5.558
 1299TIP3    H2 3862   6.425   2.872   5.519
 1300TIP3   OH2 3863   1.123   6.141   3.434
 1300TIP3    H1 3864   1.134   6.058   3.480
 1300TIP3    H2 3865   1.184   6.136   3.361
 1301TIP3   OH2 3866   2.545   3.700   5.069
 1301TIP3    H1 3867   2.583   3.777   5.026
 1301TIP3    H2 3868   2.620   3.650   5.101
 1302TIP3   OH2 3869   3.885   4.780   5.576
 1302TIP3    H1 3870   3.946   4.841   5.617
 1302TIP3    H2 3871   3.863   4.820   5.492
 1303TIP3   OH2 3872   6.278   0.942   2.093
 1303TIP3    H1 3873   6.311   1.013   2.038
 1303TIP3    H2 3874   6.321   0.955   2.178
 1304TIP3   OH2 3875   6.531   5.965   0.913
 1304TIP3    H1 3876   6.550   5.874   0.890
 1304TIP3    H2 3877   6.436   5.970   0.918
 1305TIP3   OH2 3878   6.887   2.546   4.605
 1305TIP3    H1 3879   6.942   2.526   4.681
 1305TIP3    H2 3880   6.868   2.640   4.614
 1306TIP3   OH2 3881   6.349   1.243   0.492
 1306TIP3    H1 3882   6.273   1.188   0.472
 1306TIP3    H2 3883   6.331   1.278   0.579
 1307TIP3   OH2 3884   6.666   0.158   2.299
 1307TIP3    H1 3885   6.618   0.193   2.373
 1307TIP3    H2 3886   6.709   0.234   2.260
 1308TIP3   OH2 3887   5.715   1.192   2.251
 1308TIP3    H1 3888   5.713   1.282   2.283
 1308TIP3    H2 3889   5.675   1.140   2.321
 1309TIP3   OH2 3890   1.359   3.510   4.818
 1309TIP3    H1 3891   1.305   3.543   4.746
 1309TIP3    H2 3892   1.424   3.455   4.776
 1310TIP3   OH2 3893   1.181   4.603   2.337
 1310TIP3    H1 3894   1.152   4.520   2.299
 1310TIP3    H2 3895   1.235   4.578   2.412
 1311TIP3   OH2 3896   4.579   2.771   5.784
 1311TIP3    H1 3897   4.546   2.850   5.826
 1311TIP3    H2 3898   4.590   2.796   5.692
 1312TIP3   OH2 3899   6.516   3.309   1.448
 1312TIP3    H1 3900   6.551   3.397   1.430
 1312TIP3    H2 3901   6.549   3.255   1.376
 1313TIP3   OH2 3902   1.989   2.792   4.797
 1313TIP3    H1 3903   1.981   2.870   4.852
 1313TIP3    H2 3904   1.910   2.741   4.814
 1314TIP3   OH2 3905   2.980   3.087   4.060
 1314TIP3    H1 3906   3.017   2.999   4.069
 1314TIP3    H2 3907   3.032   3.128   3.991
 1315TIP3   OH2 3908   5.211   2.009   0.009
 1315TIP3    H1 3909   5.239   1.920   0.032
 1315TIP3    H2 3910   5.172   2.043   0.089
 1316TIP3   OH2 3911   2.603   5.567   5.643
 1316TIP3    H1 3912   2.689   5.602   5.619
 1316TIP3    H2 3913   2.597   5.484   5.595
 1317TIP3   OH2 3914   6.645   4.257   2.701
 1317TIP3    H1 3915   6.663   4.324   2.634
 1317TIP3    H2 3916   6.726   4.253   2.752
 1318TIP3   OH2 3917   2.401   0.341   5.326
 1318TIP3    H1 3918   2.416   0.262   5.272
 1318TIP3    H2 3919   2.329   0.317   5.383
 1319TIP3   OH2 3920   6.908   3.085   1.899
 1319TIP3    H1 3921   6.895   3.144   1.825
 1319TIP3    H2 3922   6.975   3.127   1.952
 1320TIP3   OH2 3923   5.536   5.027   5.590
 1320TIP3    H1 3924   5.587   5.010   5.668
 1320TIP3    H2 3925   5.450   4.989   5.609
 1321TIP3   OH2 3926   0.025   5.375   0.341
 1321TIP3    H1 3927  -0.044   5.330   0.292
 1321TIP3    H2 3928   0.041   5.456   0.293
 1322TIP3   OH2 3929   4.191   4.656   2.321
 1322TIP3    H1 3930   4.137   4.735   2.324
 1322TIP3    H2 3931   4.248   4.662   2.397
 1323TIP3   OH2 3932   4.376   4.550   2.162
 1323TIP3    H1 3933   4.304   4.523   2.104
 1323TIP3    H2 3934   4.334   4.605   2.228
 1324TIP3   OH2 3935   2.136   4.414   1.837
 1324TIP3    H1 3936   2.172   4.363   1.910
 1324TIP3    H2 3937   2.113   4.498   1.875
 1325TIP3   OH2 3938   5.880   5.458   1.367
 1325TIP3    H1 3939   5.868   5.533   1.425
 1325TIP3    H2 3940   5.959   5.415   1.400
 1326TIP3   OH2 3941   3.116   6.626   1.592
 1326TIP3    H1 3942   3.025   6.657   1.591
 1326TIP3    H2 3943   3.109   6.531   1.591
 1327TIP3   OH2 3944   6.193   6.680   4.882
 1327TIP3    H1 3945   6.166   6.682   4.790
 1327TIP3    H2 3946   6.110   6.670   4.930
 1328TIP3   OH2 3947   6.099   1.548   2.355
 1328TIP3    H1 3948   6.072   1.529   2.445
 1328TIP3    H2 3949   6.022   1.589   2.315
 1329TIP3   OH2 3950   5.346   6.060   5.751
 1329TIP3    H1 3951   5.284   6.030   5.684
 1329TIP3    H2 3952   5.386   5.980   5.784
 1330TIP3   OH2 3953   2.264   5.323   2.194
 1330TIP3    H1 3954   2.191   5.305   2.135
 1330TIP3    H2 3955   2.333   5.263   2.166
 1331TIP3   OH2 3956   4.267   0.196   3.759
 1331TIP3    H1 3957   4.253   0.147   3.678
 1331TIP3    H2 3958   4.195   0.258   3.762
 1332TIP3   OH2 3959   3.468   5.295   1.554
 1332TIP3    H1 3960   3.541   5.307   1.614
 1332TIP3    H2 3961   3.397   5.263   1.609
 1333TIP3   OH2 3962   5.403   2.998   5.661
 1333TIP3    H1 3963   5.424   2.950   5.741
 1333TIP3    H2 3964   5.390   3.089   5.691
 1334TIP3   OH2 3965   3.098   3.986   4.673
 1334TIP3    H1 3966   3.027   3.999   4.610
 1334TIP3    H2 3967   3.138   4.073   4.682
 1335TIP3   OH2 3968   2.856   5.315   5.840
 1335TIP3    H1 3969   2.788   5.323   5.906
 1335TIP3    H2 3970   2.809   5.288   5.761
 1336TIP3   OH2 3971   2.553   3.151   3.037
 1336TIP3    H1 3972   2.487   3.194   2.982
 1336TIP3    H2 3973   2.533   3.058   3.030
 1337TIP3   OH2 3974   0.336   2.777   1.037
 1337TIP3    H1 3975   0.385   2.711   1.088
 1337TIP3    H2 3976   0.253   2.734   1.017
 1338TIP3   OH2 3977   3.257   5.737   3.213
 1338TIP3    H1 3978   3.265   5.806   3.148
 1338TIP3    H2 3979   3.278   5.657   3.165
 1339TIP3   OH2 3980   2.451   5.001   2.279
 1339TIP3    H1 3981   2.386   4.948   2.233
 1339TIP3    H2 3982   2.523   5.009   2.217
 1340TIP3   OH2 3983   1.037   2.402   3.380
 1340TIP3    H1 3984   0.988   2.457   3.442
 1340TIP3    H2 3985   0.989   2.319   3.379
 1341TIP3   OH2 3986   1.994   2.830   2.192
 1341TIP3    H1 3987   1.932   2.873   2.133
 1341TIP3    H2 3988   2.065   2.800   2.135
 1342TIP3   OH2 3989   0.493   6.671   1.772
 1342TIP3    H1 3990   0.523   6.590   1.731
 1342TIP3    H2 3991   0.574   6.718   1.794
 1343TIP3   OH2 3992   0.274   0.839   1.706
 1343TIP3    H1 3993   0.190   0.859   1.666
 1343TIP3    H2 3994   0.293   0.749   1.677
 1344TIP3   OH2 3995   5.410   4.181   1.556
 1344TIP3    H1 3996   5.385   4.098   1.514
 1344TIP3    H2 3997   5.450   4.155   1.639
 1345TIP3   OH2 3998   0.751   3.517   3.821
 1345TIP3    H1 3999   0.679   3.554   3.769
 1345TIP3    H2 4000   0.743   3.423   3.808
 1346TIP3   OH2 4001   5.792   6.712   5.678
 1346TIP3    H1 4002   5.719   6.705   5.738
 1346TIP3    H2 4003   5.752   6.712   5.591
 1347TIP3   OH2 4004   2.681   6.671   2.307
 1347TIP3    H1 4005   2.767   6.675   2.349
 1347TIP3    H2 4006   2.675   6.752   2.256
 1348TIP3   OH2 4007   2.965   4.273   5.169
 1348TIP3    H1 4008   2.922   4.222   5.101
 1348TIP3    H2 4009   3.014   4.208   5.220
 1349TIP3   OH2 4010   3.204   4.794   3.061
 1349TIP3    H1 4011   3.258   4.873   3.060
 1349TIP3    H2 4012   3.198   4.771   3.153
 1350TIP3   OH2 4013   2.374   1.427   3.651
 1350TIP3    H1 4014   2.390   1.339   3.684
 1350TIP3    H2 4015   2.397   1.485   3.724
 1351TIP3   OH2 4016   5.573   0.529   0.713
 1351TIP3    H1 4017   5.623   0.500   0.636
 1351TIP3    H2 4018   5.595   0.466   0.782
 1352TIP3   OH2 4019   3.543   0.135   2.680
 1352TIP3    H1 4020   3.519   0.225   2.657
 1352TIP3    H2 4021   3.531   0.086   2.599
 1353TIP3   OH2 4022   0.464   0.493   0.569
 1353TIP3    H1 4023   0.402   0.565   0.558
 1353TIP3    H2 4024   0.483   0.491   0.663
 1354TIP3   OH2 4025   6.378   1.316   2.900
 1354TIP3    H1 4026   6.404   1.370   2.825
 1354TIP3    H2 4027   6.437   1.241   2.897
 1355TIP3   OH2 4028   4.122   1.772   2.785
 1355TIP3    H1 4029   4.086   1.691   2.750
 1355TIP3    H2 4030   4.162   1.747   2.868
 1356TIP3   OH2 4031   3.591   6.160   3.602
 1356TIP3    H1 4032   3.640   6.144   3.521
 1356TIP3    H2 4033   3.520   6.218   3.576
 1357TIP3   OH2 4034   1.566   2.191   4.718
 1357TIP3    H1 4035   1.585   2.253   4.789
 1357TIP3    H2 4036   1.591   2.238   4.639
 1358TIP3   OH2 4037   1.074   5.028   1.957
 1358TIP3    H1 4038   1.062   4.935   1.939
 1358TIP3    H2 4039   0.985   5.063   1.963
 1359TIP3   OH2 4040   3.072   3.259   3.024
 1359TIP3    H1 4041   2.984   3.221   3.029
 1359TIP3    H2 4042   3.063   3.335   2.968
 1360TIP3   OH2 4043   3.396   2.634   2.579
 1360TIP3    H1 4044   3.316   2.684   2.597
 1360TIP3    H2 4045   3.367   2.564   2.520
 1361TIP3   OH2 4046   5.522   1.756   3.559
 1361TIP3    H1 4047   5.532   1.846   3.527
 1361TIP3    H2 4048   5.562   1.758   3.646
 1362TIP3   OH2 4049   3.294   3.447   5.573
 1362TIP3    H1 4050   3.335   3.512   5.515
 1362TIP3    H2 4051   3.343   3.455   5.655
 1363TIP3   OH2 4052   0.347   0.342   3.540
 1363TIP3    H1 4053   0.257   0.374   3.541
 1363TIP3    H2 4054   0.341   0.253   3.573
 1364TIP3   OH2 4055   0.605   4.894   4.698
 1364TIP3    H1 4056   0.644   4.883   4.611
 1364TIP3    H2 4057   0.680   4.903   4.757
 1365TIP3   OH2 4058   1.518   1.508   1.059
 1365TIP3    H1 4059   1.514   1.588   1.112
 1365TIP3    H2 4060   1.564   1.533   0.980
 1366TIP3   OH2 4061   0.190   6.491   4.407
 1366TIP3    H1 4062   0.119   6.471   4.468
 1366TIP3    H2 4063   0.255   6.422   4.422
 1367TIP3   OH2 4064   4.979   0.643   3.313
 1367TIP3    H1 4065   5.000   0.736   3.324
 1367TIP3    H2 4066   4.884   0.638   3.321
 1368TIP3   OH2 4067   1.456   5.796   1.922
 1368TIP3    H1 4068   1.505   5.756   1.850
 1368TIP3    H2 4069   1.380   5.835   1.880
 1369TIP3   OH2 4070   1.874   5.519   0.497
 1369TIP3    H1 4071   1.794   5.488   0.539
 1369TIP3    H2 4072   1.892   5.603   0.539
 1370TIP3   OH2 4073   2.062   3.264   2.917
 1370TIP3    H1 4074   2.111   3.294   2.994
 1370TIP3    H2 4075   2.074   3.169   2.917
 1371TIP3   OH2 4076   6.447   0.837   4.404
 1371TIP3    H1 4077   6.453   0.927   4.436
 1371TIP3    H2 4078   6.470   0.784   4.480
 1372TIP3   OH2 4079   5.235   2.252   1.206
 1372TIP3    H1 4080   5.160   2.251   1.147
 1372TIP3    H2 4081   5.249   2.345   1.225
 1373TIP3   OH2 4082   0.014   1.238   4.664
 1373TIP3    H1 4083   0.064   1.286   4.598
 1373TIP3    H2 4084   0.028   1.146   4.644
 1374TIP3   OH2 4085   2.195   5.876   0.684
 1374TIP3    H1 4086   2.283   5.904   0.659
 1374TIP3    H2 4087   2.141   5.953   0.672
 1375TIP3   OH2 4088   6.543   3.134   0.854
 1375TIP3    H1 4089   6.612   3.104   0.794
 1375TIP3    H2 4090   6.477   3.174   0.796
 1376TIP3   OH2 4091   0.603   6.393   3.615
 1376TIP3    H1 4092   0.691   6.430   3.623
 1376TIP3    H2 4093   0.545   6.469   3.614
 1377TIP3   OH2 4094   2.122   5.782   3.314
 1377TIP3    H1 4095   2.183   5.721   3.355
 1377TIP3    H2 4096   2.152   5.791   3.224
 1378TIP3   OH2 4097   6.756   0.883   1.133
 1378TIP3    H1 4098   6.813   0.879   1.210
 1378TIP3    H2 4099   6.689   0.816   1.149
 1379TIP3   OH2 4100   4.042   6.615   0.553
 1379TIP3    H1 4101   4.051   6.521   0.539
 1379TIP3    H2 4102   4.044   6.653   0.465
 1380TIP3   OH2 4103   6.973   3.346   3.350
 1380TIP3    H1 4104   6.902   3.285   3.372
 1380TIP3    H2 4105   6.935   3.403   3.283
 1381TIP3   OH2 4106   4.711   2.901   2.592
 1381TIP3    H1 4107   4.631   2.919   2.640
 1381TIP3    H2 4108   4.698   2.943   2.507
 1382TIP3   OH2 4109   3.784   1.229   2.548
 1382TIP3    H1 4110   3.764   1.315   2.586
 1382TIP3    H2 4111   3.853   1.247   2.484
 1383TIP3   OH2 4112   1.936   6.778   1.717
 1383TIP3    H1 4113   2.032   6.769   1.714
 1383TIP3    H2 4114   1.905   6.693   1.749
 1384TIP3   OH2 4115   6.796   1.255   0.122
 1384TIP3    H1 4116   6.757   1.177   0.161
 1384TIP3    H2 4117   6.890   1.247   0.142
 1385TIP3   OH2 4118   2.330   4.861   2.056
 1385TIP3    H1 4119   2.373   4.801   1.996
 1385TIP3    H2 4120   2.249   4.817   2.082
 1386TIP3   OH2 4121   3.322   2.349   1.829
 1386TIP3    H1 4122   3.306   2.346   1.734
 1386TIP3    H2 4123   3.252   2.296   1.867
 1387TIP3   OH2 4124   7.013   0.314   2.945
 1387TIP3    H1 4125   7.017   0.272   3.030
 1387TIP3    H2 4126   7.104   0.332   2.922
 1388TIP3   OH2 4127   1.158   1.756   4.627
 1388TIP3    H1 4128   1.089   1.689   4.630
 1388TIP3    H2 4129   1.142   1.803   4.545
 1389TIP3   OH2 4130   1.985   2.740   1.720
 1389TIP3    H1 4131   1.893   2.717   1.712
 1389TIP3    H2 4132   2.011   2.768   1.632
 1390TIP3   OH2 4133   3.779   5.611   3.194
 1390TIP3    H1 4134   3.770   5.582   3.285
 1390TIP3    H2 4135   3.732   5.694   3.191
 1391TIP3   OH2 4136   5.092   3.907   2.797
 1391TIP3    H1 4137   5.004   3.926   2.830
 1391TIP3    H2 4138   5.144   3.891   2.876
 1392TIP3   OH2 4139   5.294   1.346   5.703
 1392TIP3    H1 4140   5.229   1.287   5.666
 1392TIP3    H2 4141   5.312   1.311   5.790
 1393TIP3   OH2 4142   3.251   4.419   4.293
 1393TIP3    H1 4143   3.220   4.342   4.342
 1393TIP3    H2 4144   3.185   4.431   4.224
 1394TIP3   OH2 4145   5.948   2.228   2.921
 1394TIP3    H1 4146   5.956   2.256   3.013
 1394TIP3    H2 4147   5.996   2.295   2.872
 1395TIP3   OH2 4148   6.842   1.734   3.729
 1395TIP3    H1 4149   6.892   1.653   3.720
 1395TIP3    H2 4150   6.892   1.799   3.681
 1396TIP3   OH2 4151   6.960   2.242   4.578
 1396TIP3    H1 4152   6.903   2.180   4.533
 1396TIP3    H2 4153   6.927   2.328   4.552
 1397TIP3   OH2 4154   6.741   2.382   0.846
 1397TIP3    H1 4155   6.783   2.365   0.930
 1397TIP3    H2 4156   6.649   2.396   0.867
 1398TIP3   OH2 4157   6.575   1.845   2.083
 1398TIP3    H1 4158   6.503   1.884   2.133
 1398TIP3    H2 4159   6.650   1.848   2.142
 1399TIP3   OH2 4160   3.548   3.258   0.357
 1399TIP3    H1 4161   3.599   3.309   0.294
 1399TIP3    H2 4162   3.531   3.175   0.314
 1400TIP3   OH2 4163   4.195   4.947   3.373
 1400TIP3    H1 4164   4.152   4.866   3.399
 1400TIP3    H2 4165   4.208   4.994   3.456
 1401TIP3   OH2 4166   4.393   2.521   3.087
 1401TIP3    H1 4167   4.471   2.557   3.129
 1401TIP3    H2 4168   4.364   2.590   3.027
 1402TIP3   OH2 4169   0.372   3.128   5.424
 1402TIP3    H1 4170   0.361   3.033   5.420
 1402TIP3    H2 4171   0.441   3.146   5.360
 1403TIP3   OH2 4172   2.474   1.914   5.078
 1403TIP3    H1 4173   2.494   2.007   5.067
 1403TIP3    H2 4174   2.559   1.870   5.076
 1404TIP3   OH2 4175   4.253   0.106   3.493
 1404TIP3    H1 4176   4.175   0.147   3.457
 1404TIP3    H2 4177   4.275   0.036   3.432
 1405TIP3   OH2 4178   6.911   5.864   0.914
 1405TIP3    H1 4179   6.918   5.915   0.995
 1405TIP3    H2 4180   6.860   5.919   0.855
 1406TIP3   OH2 4181   6.808   1.212   1.536
 1406TIP3    H1 4182   6.722   1.233   1.500
 1406TIP3    H2 4183   6.856   1.173   1.463
 1407TIP3   OH2 4184   2.952   1.693   1.929
 1407TIP3    H1 4185   2.967   1.785   1.908
 1407TIP3    H2 4186   2.980   1.646   1.851
 1408TIP3   OH2 4187   6.178   2.063   4.642
 1408TIP3    H1 4188   6.197   2.111   4.722
 1408TIP3    H2 4189   6.204   2.123   4.572
 1409TIP3   OH2 4190   2.882   5.664   3.142
 1409TIP3    H1 4191   2.946   5.717   3.094
 1409TIP3    H2 4192   2.799   5.682   3.098
 1410TIP3   OH2 4193   3.815   6.034   2.181
 1410TIP3    H1 4194   3.833   6.081   2.263
 1410TIP3    H2 4195   3.823   6.100   2.113
 1411TIP3   OH2 4196   3.314   5.910   0.482
 1411TIP3    H1 4197   3.393   5.953   0.515
 1411TIP3    H2 4198   3.305   5.832   0.537
 1412TIP3   OH2 4199   6.068   6.422   2.508
 1412TIP3    H1 4200   6.155   6.383   2.509
 1412TIP3    H2 4201   6.036   6.414   2.597
 1413TIP3   OH2 4202   3.393   6.374   3.887
 1413TIP3    H1 4203   3.419   6.321   3.812
 1413TIP3    H2 4204   3.362   6.456   3.849
 1414TIP3   OH2 4205   3.114   3.055   4.562
 1414TIP3    H1 4206   3.099   2.980   4.505
 1414TIP3    H2 4207   3.142   3.125   4.503
 1415TIP3   OH2 4208   6.958   2.349   1.079
 1415TIP3    H1 4209   6.997   2.334   1.166
 1415TIP3    H2 4210   7.020   2.308   1.019
 1416TIP3   OH2 4211   0.390   2.248   3.082
 1416TIP3    H1 4212   0.341   2.177   3.123
 1416TIP3    H2 4213   0.472   2.252   3.131
 1417TIP3   OH2 4214   1.140   5.648   5.477
 1417TIP3    H1 4215   1.227   5.684   5.463
 1417TIP3    H2 4216   1.154   5.554   5.491
 1418TIP3   OH2 4217   1.742   6.198   4.099
 1418TIP3    H1 4218   1.707   6.216   4.012
 1418TIP3    H2 4219   1.705   6.113   4.123
 1419TIP3   OH2 4220   2.608   3.860   2.996
 1419TIP3    H1 4221   2.643   3.879   3.083
 1419TIP3    H2 4222   2.584   3.945   2.961
 1420TIP3   OH2 4223   0.144   0.454   5.125
 1420TIP3    H1 4224   0.088   0.445   5.202
 1420TIP3    H2 4225   0.210   0.518   5.150
 1421TIP3   OH2 4226   0.657   0.916   0.499
 1421TIP3    H1 4227   0.610   0.985   0.453
 1421TIP3    H2 4228   0.675   0.953   0.586
 1422TIP3   OH2 4229   0.026   5.197   5.258
 1422TIP3    H1 4230  -0.030   5.141   5.313
 1422TIP3    H2 4231   0.098   5.140   5.231
 1423TIP3   OH2 4232   3.380   4.387   0.871
 1423TIP3    H1 4233   3.436   4.375   0.948
 1423TIP3    H2 4234   3.419   4.332   0.804
 1424TIP3   OH2 4235   2.026   5.654   3.698
 1424TIP3    H1 4236   2.103   5.637   3.752
 1424TIP3    H2 4237   1.990   5.567   3.679
 1425TIP3   OH2 4238   6.028   2.380   5.097
 1425TIP3    H1 4239   6.024   2.453   5.159
 1425TIP3    H2 4240   6.004   2.303   5.148
 1426TIP3   OH2 4241   3.395   0.676   0.254
 1426TIP3    H1 4242   3.379   0.632   0.337
 1426TIP3    H2 4243   3.463   0.624   0.212
 1427TIP3   OH2 4244   5.928   0.490   4.391
 1427TIP3    H1 4245   5.990   0.559   4.367
 1427TIP3    H2 4246   5.977   0.409   4.383
 1428TIP3   OH2 4247   6.213   1.901   3.626
 1428TIP3    H1 4248   6.138   1.944   3.586
 1428TIP3    H2 4249   6.198   1.808   3.611
 1429TIP3   OH2 4250   6.601   5.683   1.813
 1429TIP3    H1 4251   6.601   5.636   1.730
 1429TIP3    H2 4252   6.554   5.764   1.794
 1430TIP3   OH2 4253   1.919   1.669   1.057
 1430TIP3    H1 4254   1.986   1.737   1.050
 1430TIP3    H2 4255   1.883   1.680   1.145
 1431TIP3   OH2 4256   4.429   1.364   3.627
 1431TIP3    H1 4257   4.427   1.368   3.532
 1431TIP3    H2 4258   4.341   1.335   3.652
 1432TIP3   OH2 4259   5.009   3.482   4.396
 1432TIP3    H1 4260   5.102   3.467   4.379
 1432TIP3    H2 4261   5.002   3.489   4.491
 1433TIP3   OH2 4262   4.567   0.356   2.819
 1433TIP3    H1 4263   4.592   0.272   2.858
 1433TIP3    H2 4264   4.551   0.414   2.893
 1434TIP3   OH2 4265   5.297   2.755   3.540
 1434TIP3    H1 4266   5.250   2.785   3.462
 1434TIP3    H2 4267   5.235   2.697   3.584
 1435TIP3   OH2 4268   0.935   5.683   2.856
 1435TIP3    H1 4269   0.982   5.621   2.911
 1435TIP3    H2 4270   0.939   5.646   2.768
 1436TIP3   OH2 4271   2.982   5.289   3.284
 1436TIP3    H1 4272   2.973   5.243   3.368
 1436TIP3    H2 4273   3.077   5.303   3.276
 1437TIP3   OH2 4274   4.677   2.334   1.340
 1437TIP3    H1 4275   4.763   2.376   1.335
 1437TIP3    H2 4276   4.617   2.399   1.302
 1438TIP3   OH2 4277   6.797   0.396   0.523
 1438TIP3    H1 4278   6.732   0.447   0.572
 1438TIP3    H2 4279   6.881   0.424   0.559
 1439TIP3   OH2 4280   5.187   3.895   0.687
 1439TIP3    H1 4281   5.097   3.894   0.720
 1439TIP3    H2 4282   5.236   3.843   0.750
 1440TIP3   OH2 4283   0.091   4.980   2.690
 1440TIP3    H1 4284   0.045   5.003   2.609
 1440TIP3    H2 4285   0.060   4.892   2.711
 1441TIP3   OH2 4286   3.341   0.987   5.869
 1441TIP3    H1 4287   3.311   1.074   5.894
 1441TIP3    H2 4288   3.426   1.001   5.828
 1442TIP3   OH2 4289   3.108   6.059   0.613
 1442TIP3    H1 4290   3.187   6.086   0.659
 1442TIP3    H2 4291   3.140   6.019   0.532
 1443TIP3   OH2 4292   0.564   6.817   2.875
 1443TIP3    H1 4293   0.489   6.763   2.899
 1443TIP3    H2 4294   0.603   6.842   2.959
 1444TIP3   OH2 4295   4.821   6.073   4.758
 1444TIP3    H1 4296   4.806   6.005   4.824
 1444TIP3    H2 4297   4.908   6.052   4.722
 1445TIP3   OH2 4298   6.770   5.046   5.555
 1445TIP3    H1 4299   6.708   5.012   5.620
 1445TIP3    H2 4300   6.752   5.140   5.551
 1446TIP3   OH2 4301   6.449   6.647   1.568
 1446TIP3    H1 4302   6.503   6.622   1.493
 1446TIP3    H2 4303   6.390   6.714   1.535
 1447TIP3   OH2 4304   1.491   5.574   5.292
 1447TIP3    H1 4305   1.400   5.602   5.285
 1447TIP3    H2 4306   1.543   5.654   5.287
 1448TIP3   OH2 4307   3.252   5.435   5.753
 1448TIP3    H1 4308   3.268   5.482   5.671
 1448TIP3    H2 4309   3.175   5.477   5.791
 1449TIP3   OH2 4310   4.154   1.432   4.203
 1449TIP3    H1 4311   4.091   1.499   4.228
 1449TIP3    H2 4312   4.232   1.450   4.255
 1450TIP3   OH2 4313   2.516   2.622   5.660
 1450TIP3    H1 4314   2.585   2.565   5.692
 1450TIP3    H2 4315   2.561   2.688   5.607
 1451TIP3   OH2 4316   6.403   6.838   4.998
 1451TIP3    H1 4317   6.330   6.789   4.960
 1451TIP3    H2 4318   6.469   6.840   4.928
 1452TIP3   OH2 4319   0.044   0.483   3.007
 1452TIP3    H1 4320   0.115   0.548   3.003
 1452TIP3    H2 4321   0.071   0.416   2.945
 1453TIP3   OH2 4322   4.185   5.054   2.620
 1453TIP3    H1 4323   4.190   4.959   2.617
 1453TIP3    H2 4324   4.220   5.077   2.707
 1454TIP3   OH2 4325   6.077   4.527   4.052
 1454TIP3    H1 4326   6.012   4.503   4.118
 1454TIP3    H2 4327   6.094   4.445   4.005
 1455TIP3   OH2 4328   6.307   1.426   1.990
 1455TIP3    H1 4329   6.362   1.389   2.059
 1455TIP3    H2 4330   6.218   1.423   2.024
 1456TIP3   OH2 4331   6.121   0.821   4.905
 1456TIP3    H1 4332   6.087   0.910   4.909
 1456TIP3    H2 4333   6.044   0.765   4.921
 1457TIP3   OH2 4334   1.513   4.116   1.176
 1457TIP3    H1 4335   1.539   4.024   1.176
 1457TIP3    H2 4336   1.591   4.163   1.144
 1458TIP3   OH2 4337   2.367   2.119   5.607
 1458TIP3    H1 4338   2.457   2.115   5.641
 1458TIP3    H2 4339   2.373   2.078   5.521
 1459TIP3   OH2 4340   4.812   5.901   3.427
 1459TIP3    H1 4341   4.722   5.881   3.402
 1459TIP3    H2 4342   4.814   5.885   3.522
 1460TIP3   OH2 4343   6.784   2.531   2.842
 1460TIP3    H1 4344   6.817   2.598   2.902
 1460TIP3    H2 4345   6.852   2.463   2.841
 1461TIP3   OH2 4346   5.471   3.775   2.504
 1461TIP3    H1 4347   5.553   3.803   2.463
 1461TIP3    H2 4348   5.491   3.689   2.541
 1462TIP3   OH2 4349   6.855   3.386   1.079
 1462TIP3    H1 4350   6.787   3.437   1.036
 1462TIP3    H2 4351   6.898   3.338   1.008
 1463TIP3   OH2 4352   0.625   1.965   3.143
 1463TIP3    H1 4353   0.716   1.994   3.139
 1463TIP3    H2 4354   0.601   1.947   3.052
 1464TIP3   OH2 4355   6.245   3.351   0.949
 1464TIP3    H1 4356   6.337   3.330   0.964
 1464TIP3    H2 4357   6.219   3.401   1.026
 1465TIP3   OH2 4358   6.716   0.660   2.236
 1465TIP3    H1 4359   6.742   0.635   2.325
 1465TIP3    H2 4360   6.620   0.661   2.238
 1466TIP3   OH2 4361   3.615   2.774   3.196
 1466TIP3    H1 4362   3.663   2.692   3.202
 1466TIP3    H2 4363   3.612   2.807   3.286
 1467TIP3   OH2 4364   2.177   0.365   1.293
 1467TIP3    H1 4365   2.270   0.387   1.292
 1467TIP3    H2 4366   2.162   0.321   1.210
 1468TIP3   OH2 4367   0.060   3.547   0.279
 1468TIP3    H1 4368   0.114   3.626   0.280
 1468TIP3    H2 4369   0.111   3.483   0.329
 1469TIP3   OH2 4370   5.920   5.055   5.761
 1469TIP3    H1 4371   5.976   4.979   5.780
 1469TIP3    H2 4372   5.869   5.067   5.842
 1470TIP3   OH2 4373   0.074   6.713   1.594
 1470TIP3    H1 4374   0.044   6.624   1.575
 1470TIP3    H2 4375   0.144   6.729   1.531
 1471TIP3   OH2 4376   2.660   3.823   3.260
 1471TIP3    H1 4377   2.565   3.820   3.274
 1471TIP3    H2 4378   2.688   3.732   3.268
 1472TIP3   OH2 4379   6.816   6.054   4.469
 1472TIP3    H1 4380   6.760   6.127   4.443
 1472TIP3    H2 4381   6.758   5.995   4.517
 1473TIP3   OH2 4382   1.813   1.226   4.581
 1473TIP3    H1 4383   1.738   1.270   4.541
 1473TIP3    H2 4384   1.805   1.245   4.674
 1474TIP3   OH2 4385   0.815   6.469   2.244
 1474TIP3    H1 4386   0.867   6.548   2.231
 1474TIP3    H2 4387   0.873   6.409   2.291
 1475TIP3   OH2 4388   0.896   0.378   5.805
 1475TIP3    H1 4389   0.862   0.383   5.716
 1475TIP3    H2 4390   0.834   0.323   5.851
 1476TIP3   OH2 4391   0.198   1.440   1.573
 1476TIP3    H1 4392   0.267   1.490   1.616
 1476TIP3    H2 4393   0.126   1.503   1.561
 1477TIP3   OH2 4394   0.148   3.538   1.593
 1477TIP3    H1 4395   0.055   3.529   1.614
 1477TIP3    H2 4396   0.154   3.511   1.501
 1478TIP3   OH2 4397   5.718   6.304   2.408
 1478TIP3    H1 4398   5.685   6.317   2.319
 1478TIP3    H2 4399   5.790   6.367   2.415
 1479TIP3   OH2 4400   0.020   0.686   1.925
 1479TIP3    H1 4401  -0.056   0.718   1.974
 1479TIP3    H2 4402   0.091   0.686   1.990
 1480TIP3   OH2 4403   5.765   0.695   1.422
 1480TIP3    H1 4404   5.824   0.753   1.374
 1480TIP3    H2 4405   5.823   0.636   1.470
 1481TIP3   OH2 4406   6.478   3.870   0.776
 1481TIP3    H1 4407   6.550   3.910   0.824
 1481TIP3    H2 4408   6.405   3.932   0.785
 1482TIP3   OH2 4409   0.235   5.739   2.437
 1482TIP3    H1 4410   0.195   5.823   2.458
 1482TIP3    H2 4411   0.232   5.735   2.341
 1483TIP3   OH2 4412   4.258   1.104   2.758
 1483TIP3    H1 4413   4.349   1.097   2.727
 1483TIP3    H2 4414   4.212   1.034   2.711
 1484TIP3   OH2 4415   5.608   0.571   2.586
 1484TIP3    H1 4416   5.665   0.495   2.589
 1484TIP3    H2 4417   5.523   0.539   2.617
 1485TIP3   OH2 4418   1.662   1.674   3.731
 1485TIP3    H1 4419   1.647   1.589   3.773
 1485TIP3    H2 4420   1.756   1.677   3.716
 1486TIP3   OH2 4421   3.414   5.786   2.807
 1486TIP3    H1 4422   3.464   5.705   2.819
 1486TIP3    H2 4423   3.333   5.758   2.765
 1487TIP3   OH2 4424   3.706   2.522   4.814
 1487TIP3    H1 4425   3.779   2.462   4.831
 1487TIP3    H2 4426   3.746   2.596   4.769
 1488TIP3   OH2 4427   6.450   0.131   1.947
 1488TIP3    H1 4428   6.510   0.080   1.894
 1488TIP3    H2 4429   6.461   0.221   1.917
 1489TIP3   OH2 4430   4.812   5.151   0.529
 1489TIP3    H1 4431   4.893   5.128   0.575
 1489TIP3    H2 4432   4.743   5.109   0.580
 1490TIP3   OH2 4433   5.513   3.480   3.208
 1490TIP3    H1 4434   5.530   3.560   3.256
 1490TIP3    H2 4435   5.531   3.410   3.271
 1491TIP3   OH2 4436   5.946   2.529   1.415
 1491TIP3    H1 4437   5.942   2.569   1.502
 1491TIP3    H2 4438   6.016   2.576   1.370
 1492TIP3   OH2 4439   2.172   3.104   4.939
 1492TIP3    H1 4440   2.078   3.085   4.945
 1492TIP3    H2 4441   2.199   3.121   5.030
 1493TIP3   OH2 4442   2.875   1.964   5.545
 1493TIP3    H1 4443   2.799   2.021   5.529
 1493TIP3    H2 4444   2.846   1.877   5.518
 1494TIP3   OH2 4445   6.785   6.396   1.186
 1494TIP3    H1 4446   6.690   6.394   1.171
 1494TIP3    H2 4447   6.823   6.395   1.098
 1495TIP3   OH2 4448   4.861   3.416   1.704
 1495TIP3    H1 4449   4.905   3.332   1.716
 1495TIP3    H2 4450   4.784   3.395   1.651
 1496TIP3   OH2 4451   5.546   5.920   4.110
 1496TIP3    H1 4452   5.463   5.904   4.065
 1496TIP3    H2 4453   5.520   5.947   4.198
 1497TIP3   OH2 4454   5.736   4.765   5.152
 1497TIP3    H1 4455   5.744   4.711   5.074
 1497TIP3    H2 4456   5.727   4.854   5.118
 1498TIP3   OH2 4457   1.190   3.829   4.689
 1498TIP3    H1 4458   1.212   3.759   4.628
 1498TIP3    H2 4459   1.273   3.856   4.726
 1499TIP3   OH2 4460   6.052   6.148   3.464
 1499TIP3    H1 4461   6.006   6.228   3.438
 1499TIP3    H2 4462   6.094   6.171   3.547
 1500TIP3   OH2 4463   6.474   3.911   2.908
 1500TIP3    H1 4464   6.567   3.889   2.921
 1500TIP3    H2 4465   6.471   3.951   2.821
 1501TIP3   OH2 4466   3.431   2.124   2.003
 1501TIP3    H1 4467   3.486   2.102   2.079
 1501TIP3    H2 4468   3.389   2.206   2.028
 1502TIP3   OH2 4469   3.920   1.676   1.222
 1502TIP3    H1 4470   3.846   1.635   1.268
 1502TIP3    H2 4471   3.996   1.624   1.247
 1503TIP3   OH2 4472   3.865   1.707   0.017
 1503TIP3    H1 4473   3.910   1.662   0.088
 1503TIP3    H2 4474   3.833   1.789   0.056
 1504TIP3   OH2 4475   0.942   6.415   3.360
 1504TIP3    H1 4476   0.926   6.498   3.316
 1504TIP3    H2 4477   1.022   6.430   3.411
 1505TIP3   OH2 4478   3.812   6.221   3.746
 1505TIP3    H1 4479   3.730   6.200   3.701
 1505TIP3    H2 4480   3.816   6.159   3.819
 1506TIP3   OH2 4481   3.198   4.770   1.656
 1506TIP3    H1 4482   3.241   4.684   1.651
 1506TIP3    H2 4483   3.182   4.794   1.565
 1507TIP3   OH2 4484   2.586   6.493   5.258
 1507TIP3    H1 4485   2.611   6.435   5.330
 1507TIP3    H2 4486   2.518   6.550   5.295
 1508TIP3   OH2 4487   2.607   4.714   2.041
 1508TIP3    H1 4488   2.608   4.708   1.946
 1508TIP3    H2 4489   2.692   4.753   2.063
 1509TIP3   OH2 4490   4.098   0.420   3.629
 1509TIP3    H1 4491   4.068   0.425   3.538
 1509TIP3    H2 4492   4.183   0.462   3.629
 1510TIP3   OH2 4493   3.340   1.835   1.944
 1510TIP3    H1 4494   3.253   1.839   1.985
 1510TIP3    H2 4495   3.371   1.926   1.947
 1511TIP3   OH2 4496   0.864   4.219   2.913
 1511TIP3    H1 4497   0.867   4.141   2.970
 1511TIP3    H2 4498   0.955   4.237   2.892
 1512TIP3   OH2 4499   3.701   2.291   0.170
 1512TIP3    H1 4500   3.654   2.351   0.113
 1512TIP3    H2 4501   3.793   2.307   0.151
 1513TIP3   OH2 4502   6.378   2.795   0.029
 1513TIP3    H1 4503   6.339   2.718  -0.012
 1513TIP3    H2 4504   6.304   2.855   0.042
 1514TIP3   OH2 4505   6.509   5.903   4.255
 1514TIP3    H1 4506   6.442   5.966   4.229
 1514TIP3    H2 4507   6.468   5.818   4.240
 1515TIP3   OH2 4508   5.393   0.783   5.382
 1515TIP3    H1 4509   5.422   0.774   5.473
 1515TIP3    H2 4510   5.339   0.862   5.382
 1516TIP3   OH2 4511   6.745   1.521   2.036
 1516TIP3    H1 4512   6.670   1.551   2.088
 1516TIP3    H2 4513   6.778   1.444   2.083
 1517TIP3   OH2 4514   4.544   4.277   4.337
 1517TIP3    H1 4515   4.619   4.220   4.350
 1517TIP3    H2 4516   4.490   4.232   4.271
 1518TIP3   OH2 4517   2.309   6.460   3.009
 1518TIP3    H1 4518   2.337   6.490   2.922
 1518TIP3    H2 4519   2.232   6.513   3.029
 1519TIP3   OH2 4520   2.878   5.534   3.384
 1519TIP3    H1 4521   2.889   5.440   3.371
 1519TIP3    H2 4522   2.866   5.569   3.296
 1520TIP3   OH2 4523   0.993   6.668   2.867
 1520TIP3    H1 4524   1.086   6.657   2.846
 1520TIP3    H2 4525   0.957   6.580   2.860
 1521TIP3   OH2 4526   0.644   0.283   4.535
 1521TIP3    H1 4527   0.664   0.211   4.596
 1521TIP3    H2 4528   0.608   0.352   4.591
 1522TIP3   OH2 4529   5.829   2.924   4.207
 1522TIP3    H1 4530   5.793   2.945   4.120
 1522TIP3    H2 4531   5.752   2.920   4.264
 1523TIP3   OH2 4532   1.104   2.701   3.478
 1523TIP3    H1 4533   1.081   2.759   3.405
 1523TIP3    H2 4534   1.199   2.704   3.482
 1524TIP3   OH2 4535   2.092   2.181   4.034
 1524TIP3    H1 4536   2.041   2.128   3.973
 1524TIP3    H2 4537   2.159   2.223   3.980
 1525TIP3   OH2 4538   4.916   6.479   1.733
 1525TIP3    H1 4539   5.001   6.443   1.706
 1525TIP3    H2 4540   4.864   6.480   1.653
 1526TIP3   OH2 4541   1.624   2.644   1.152
 1526TIP3    H1 4542   1.651   2.554   1.166
 1526TIP3    H2 4543   1.567   2.640   1.075
 1527TIP3   OH2 4544   0.827   6.520   4.611
 1527TIP3    H1 4545   0.787   6.441   4.573
 1527TIP3    H2 4546   0.761   6.552   4.672
 1528TIP3   OH2 4547   6.192   0.217   5.002
 1528TIP3    H1 4548   6.286   0.233   5.014
 1528TIP3    H2 4549   6.187   0.129   4.966
 1529TIP3   OH2 4550   1.252   4.676   0.255
 1529TIP3    H1 4551   1.218   4.698   0.342
 1529TIP3    H2 4552   1.249   4.580   0.252
 1530TIP3   OH2 4553   3.534   4.188   1.333
 1530TIP3    H1 4554   3.450   4.144   1.322
 1530TIP3    H2 4555   3.515   4.280   1.318
 1531TIP3   OH2 4556   0.051   3.306   3.188
 1531TIP3    H1 4557   0.134   3.258   3.192
 1531TIP3    H2 4558   0.024   3.299   3.096
 1532TIP3   OH2 4559   1.417   5.917   2.964
 1532TIP3    H1 4560   1.482   5.861   2.922
 1532TIP3    H2 4561   1.468   5.970   3.026
 1533TIP3   OH2 4562   2.252   1.567   1.781
 1533TIP3    H1 4563   2.187   1.615   1.832
 1533TIP3    H2 4564   2.250   1.478   1.817
 1534TIP3   OH2 4565   6.949   6.299   4.526
 1534TIP3    H1 4566   6.942   6.204   4.529
 1534TIP3    H2 4567   6.920   6.322   4.437
 1535TIP3   OH2 4568   0.433   2.407   0.411
 1535TIP3    H1 4569   0.360   2.346   0.415
 1535TIP3    H2 4570   0.450   2.431   0.502
 1536TIP3   OH2 4571   0.017   1.441   2.203
 1536TIP3    H1 4572   0.022   1.472   2.294
 1536TIP3    H2 4573   0.083   1.492   2.157
 1537TIP3   OH2 4574   6.225   0.691   4.377
 1537TIP3    H1 4575   6.291   0.759   4.363
 1537TIP3    H2 4576   6.203   0.698   4.470
 1538TIP3   OH2 4577   2.812   6.207   2.636
 1538TIP3    H1 4578   2.893   6.226   2.683
 1538TIP3    H2 4579   2.747   6.193   2.704
 1539TIP3   OH2 4580   3.510   3.378   1.657
 1539TIP3    H1 4581   3.422   3.415   1.650
 1539TIP3    H2 4582   3.554   3.432   1.723
 1540TIP3   OH2 4583   0.346   2.550   3.738
 1540TIP3    H1 4584   0.389   2.528   3.821
 1540TIP3    H2 4585   0.399   2.621   3.702
 1541TIP3   OH2 4586   3.161   3.644   2.722
 1541TIP3    H1 4587   3.233   3.642   2.785
 1541TIP3    H2 4588   3.190   3.706   2.655
 1542TIP3   OH2 4589   3.679   5.835   1.795
 1542TIP3    H1 4590   3.589   5.829   1.762
 1542TIP3    H2 4591   3.670   5.836   1.890
 1543TIP3   OH2 4592   1.220   5.076   0.429
 1543TIP3    H1 4593   1.292   5.029   0.470
 1543TIP3    H2 4594   1.220   5.162   0.471
 1544TIP3   OH2 4595   0.980   1.432   0.485
 1544TIP3    H1 4596   1.069   1.447   0.516
 1544TIP3    H2 4597   0.952   1.517   0.450
 1545TIP3   OH2 4598   0.326   5.077   3.630
 1545TIP3    H1 4599   0.268   5.001   3.629
 1545TIP3    H2 4600   0.395   5.054   3.567
 1546TIP3   OH2 4601   4.614   2.739   4.094
 1546TIP3    H1 4602   4.695   2.761   4.140
 1546TIP3    H2 4603   4.549   2.801   4.128
 1547TIP3   OH2 4604   6.363   3.543   5.352
 1547TIP3    H1 4605   6.340   3.484   5.424
 1547TIP3    H2 4606   6.325   3.502   5.274
 1548TIP3   OH2 4607   2.881   6.606   0.228
 1548TIP3    H1 4608   2.807   6.587   0.171
 1548TIP3    H2 4609   2.879   6.702   0.238
 1549TIP3   OH2 4610   5.929   2.020   4.492
 1549TIP3    H1 4611   5.971   2.003   4.577
 1549TIP3    H2 4612   6.002   2.034   4.432
 1550TIP3   OH2 4613   6.379   0.956   2.359
 1550TIP3    H1 4614   6.395   1.044   2.325
 1550TIP3    H2 4615   6.466   0.922   2.380
 1551TIP3   OH2 4616   5.496   0.345   1.540
 1551TIP3    H1 4617   5.577   0.352   1.590
 1551TIP3    H2 4618   5.452   0.268   1.577
 1552TIP3   OH2 4619   5.893   4.680   3.240
 1552TIP3    H1 4620   5.965   4.709   3.296
 1552TIP3    H2 4621   5.880   4.753   3.179
 1553TIP3   OH2 4622   1.914   5.067   2.283
 1553TIP3    H1 4623   1.891   5.024   2.201
 1553TIP3    H2 4624   1.918   4.996   2.347
 1554TIP3   OH2 4625   1.513   5.453   2.274
 1554TIP3    H1 4626   1.559   5.427   2.355
 1554TIP3    H2 4627   1.584   5.467   2.211
 1555TIP3   OH2 4628   0.681   4.162   0.087
 1555TIP3    H1 4629   0.763   4.186   0.044
 1555TIP3    H2 4630   0.708   4.114   0.166
 1556TIP3   OH2 4631   5.571   6.556   1.556
 1556TIP3    H1 4632   5.550   6.647   1.580
 1556TIP3    H2 4633   5.666   6.554   1.551
 1557TIP3   OH2 4634   4.267   0.532   1.215
 1557TIP3    H1 4635   4.251   0.484   1.296
 1557TIP3    H2 4636   4.345   0.492   1.177
 1558TIP3   OH2 4637   4.375   4.305   0.453
 1558TIP3    H1 4638   4.347   4.379   0.507
 1558TIP3    H2 4639   4.352   4.227   0.504
 1559TIP3   OH2 4640   5.490   1.258   4.104
 1559TIP3    H1 4641   5.471   1.336   4.053
 1559TIP3    H2 4642   5.582   1.239   4.086
 1560TIP3   OH2 4643   5.540   3.908   2.078
 1560TIP3    H1 4644   5.488   3.827   2.075
 1560TIP3    H2 4645   5.610   3.893   2.014
 1561TIP3   OH2 4646   4.415   2.673   4.796
 1561TIP3    H1 4647   4.406   2.669   4.701
 1561TIP3    H2 4648   4.480   2.605   4.818
 1562TIP3   OH2 4649   2.048   3.543   3.439
 1562TIP3    H1 4650   2.095   3.620   3.471
 1562TIP3    H2 4651   2.114   3.474   3.436
 1563TIP3   OH2 4652   6.216   4.612   2.744
 1563TIP3    H1 4653   6.254   4.530   2.713
 1563TIP3    H2 4654   6.283   4.649   2.801
 1564TIP3   OH2 4655   3.733   5.462   5.015
 1564TIP3    H1 4656   3.827   5.452   4.999
 1564TIP3    H2 4657   3.706   5.378   5.053
 1565TIP3   OH2 4658   1.990   3.583   5.175
 1565TIP3    H1 4659   1.978   3.651   5.241
 1565TIP3    H2 4660   2.038   3.626   5.105
 1566TIP3   OH2 4661   5.453   5.332   4.669
 1566TIP3    H1 4662   5.513   5.341   4.743
 1566TIP3    H2 4663   5.457   5.239   4.646
 1567TIP3   OH2 4664   5.105   5.962   5.674
 1567TIP3    H1 4665   5.040   5.892   5.680
 1567TIP3    H2 4666   5.053   6.043   5.671
 1568TIP3   OH2 4667   3.092   5.390   2.402
 1568TIP3    H1 4668   3.048   5.332   2.339
 1568TIP3    H2 4669   3.077   5.348   2.487
 1569TIP3   OH2 4670   1.627   2.557   2.654
 1569TIP3    H1 4671   1.635   2.620   2.725
 1569TIP3    H2 4672   1.646   2.608   2.575
 1570TIP3   OH2 4673   3.565   2.540   0.634
 1570TIP3    H1 4674   3.610   2.483   0.572
 1570TIP3    H2 4675   3.554   2.486   0.713
 1571TIP3   OH2 4676   6.167   6.088   1.287
 1571TIP3    H1 4677   6.124   6.008   1.258
 1571TIP3    H2 4678   6.100   6.156   1.277
 1572TIP3   OH2 4679   3.797   5.371   0.478
 1572TIP3    H1 4680   3.766   5.386   0.389
 1572TIP3    H2 4681   3.849   5.292   0.474
 1573TIP3   OH2 4682   4.634   1.002   5.423
 1573TIP3    H1 4683   4.663   0.911   5.434
 1573TIP3    H2 4684   4.549   1.006   5.467
 1574TIP3   OH2 4685   5.445   3.888   3.660
 1574TIP3    H1 4686   5.508   3.828   3.702
 1574TIP3    H2 4687   5.395   3.832   3.600
 1575TIP3   OH2 4688   4.230   4.801   4.840
 1575TIP3    H1 4689   4.276   4.744   4.902
 1575TIP3    H2 4690   4.234   4.888   4.881
 1576TIP3   OH2 4691   1.603   5.959   3.995
 1576TIP3    H1 4692   1.608   6.043   3.949
 1576TIP3    H2 4693   1.556   5.901   3.935
 1577TIP3   OH2 4694   5.098   5.272   3.715
 1577TIP3    H1 4695   5.003   5.287   3.714
 1577TIP3    H2 4696   5.133   5.339   3.656
 1578TIP3   OH2 4697   5.754   4.718   0.744
 1578TIP3    H1 4698   5.828   4.719   0.805
 1578TIP3    H2 4699   5.748   4.627   0.714
 1579TIP3   OH2 4700   4.154   1.388   4.598
 1579TIP3    H1 4701   4.083   1.447   4.620
 1579TIP3    H2 4702   4.213   1.392   4.673
 1580TIP3   OH2 4703   0.765   4.863   2.160
 1580TIP3    H1 4704   0.811   4.796   2.212
 1580TIP3    H2 4705   0.746   4.932   2.223
 1581TIP3   OH2 4706   0.009   2.504   3.261
 1581TIP3    H1 4707   0.066   2.562   3.312
 1581TIP3    H2 4708  -0.044   2.562   3.208
 1582TIP3   OH2 4709   1.435   1.060   0.547
 1582TIP3    H1 4710   1.428   0.968   0.573
 1582TIP3    H2 4711   1.347   1.096   0.562
 1583TIP3   OH2 4712   2.204   4.032   1.791
 1583TIP3    H1 4713   2.109   4.039   1.785
 1583TIP3    H2 4714   2.234   4.031   1.700
 1584TIP3   OH2 4715   4.539   5.367   3.949
 1584TIP3    H1 4716   4.486   5.423   3.892
 1584TIP3    H2 4717   4.495   5.371   4.034
 1585TIP3   OH2 4718   1.599   3.917   2.782
 1585TIP3    H1 4719   1.523   3.925   2.839
 1585TIP3    H2 4720   1.566   3.940   2.695
 1586TIP3   OH2 4721   4.801   5.946   2.844
 1586TIP3    H1 4722   4.881   5.924   2.795
 1586TIP3    H2 4723   4.759   5.861   2.860
 1587TIP3   OH2 4724   1.389   1.677   4.067
 1587TIP3    H1 4725   1.301   1.665   4.102
 1587TIP3    H2 4726   1.382   1.754   4.010
 1588TIP3   OH2 4727   5.479   5.204   5.401
 1588TIP3    H1 4728   5.554   5.239   5.352
 1588TIP3    H2 4729   5.513   5.125   5.444
 1589TIP3   OH2 4730   3.690   3.465   4.610
 1589TIP3    H1 4731   3.675   3.406   4.536
 1589TIP3    H2 4732   3.602   3.482   4.645
 1590TIP3   OH2 4733   0.495   0.998   3.378
 1590TIP3    H1 4734   0.530   1.033   3.460
 1590TIP3    H2 4735   0.573   0.977   3.326
 1591TIP3   OH2 4736   2.433   6.603   1.755
 1591TIP3    H1 4737   2.497   6.653   1.805
 1591TIP3    H2 4738   2.376   6.564   1.822
 1592TIP3   OH2 4739   0.125   4.002   1.716
 1592TIP3    H1 4740   0.077   4.019   1.634
 1592TIP3    H2 4741   0.177   4.082   1.730
 1593TIP3   OH2 4742   4.731   2.000   1.793
 1593TIP3    H1 4743   4.642   2.025   1.769
 1593TIP3    H2 4744   4.779   2.002   1.710
 1594TIP3   OH2 4745   6.921   0.772   4.341
 1594TIP3    H1 4746   6.998   0.800   4.293
 1594TIP3    H2 4747   6.955   0.711   4.407
 1595TIP3   OH2 4748   3.971   1.209   3.067
 1595TIP3    H1 4749   4.016   1.124   3.062
 1595TIP3    H2 4750   3.880   1.187   3.086
 1596TIP3   OH2 4751   2.015   3.698   4.146
 1596TIP3    H1 4752   2.034   3.785   4.111
 1596TIP3    H2 4753   1.994   3.645   4.069
 1597TIP3   OH2 4754   6.948   6.518   0.531
 1597TIP3    H1 4755   6.967   6.558   0.446
 1597TIP3    H2 4756   6.949   6.591   0.592
 1598TIP3   OH2 4757   3.670   6.522   1.404
 1598TIP3    H1 4758   3.671   6.503   1.311
 1598TIP3    H2 4759   3.585   6.491   1.435
 1599TIP3   OH2 4760   0.911   5.529   2.625
 1599TIP3    H1 4761   0.897   5.457   2.562
 1599TIP3    H2 4762   0.823   5.550   2.656
 1600TIP3   OH2 4763   5.766   4.447   0.730
 1600TIP3    H1 4764   5.804   4.417   0.812
 1600TIP3    H2 4765   5.680   4.406   0.727
 1601TIP3   OH2 4766   3.410   1.118   4.477
 1601TIP3    H1 4767   3.390   1.197   4.526
 1601TIP3    H2 4768   3.504   1.125   4.460
 1602TIP3   OH2 4769   5.992   0.738   1.003
 1602TIP3    H1 4770   6.012   0.832   1.010
 1602TIP3    H2 4771   5.936   0.731   0.925
 1603TIP3   OH2 4772   2.115   5.606   1.254
 1603TIP3    H1 4773   2.143   5.640   1.339
 1603TIP3    H2 4774   2.186   5.628   1.195
 1604TIP3   OH2 4775   5.668   2.978   5.515
 1604TIP3    H1 4776   5.739   2.927   5.553
 1604TIP3    H2 4777   5.590   2.952   5.564
 1605TIP3   OH2 4778   1.422   5.485   3.916
 1605TIP3    H1 4779   1.387   5.492   4.005
 1605TIP3    H2 4780   1.499   5.429   3.925
 1606TIP3   OH2 4781   3.386   4.633   4.409
 1606TIP3    H1 4782   3.359   4.709   4.357
 1606TIP3    H2 4783   3.338   4.559   4.370
 1607TIP3   OH2 4784   2.332   6.616   5.723
 1607TIP3    H1 4785   2.342   6.585   5.813
 1607TIP3    H2 4786   2.418   6.603   5.683
 1608TIP3   OH2 4787   0.895   6.399   0.552
 1608TIP3    H1 4788   0.839   6.474   0.531
 1608TIP3    H2 4789   0.972   6.438   0.593
 1609TIP3   OH2 4790   5.195   1.487   1.572
 1609TIP3    H1 4791   5.125   1.532   1.620
 1609TIP3    H2 4792   5.153   1.453   1.493
 1610TIP3   OH2 4793   5.476   2.585   0.843
 1610TIP3    H1 4794   5.532   2.609   0.917
 1610TIP3    H2 4795   5.515   2.505   0.808
 1611TIP3   OH2 4796   4.400   1.680   2.706
 1611TIP3    H1 4797   4.396   1.727   2.623
 1611TIP3    H2 4798   4.352   1.735   2.767
 1612TIP3   OH2 4799   2.830   5.900   0.931
 1612TIP3    H1 4800   2.866   5.893   0.843
 1612TIP3    H2 4801   2.897   5.949   0.980
 1613TIP3   OH2 4802   7.071   2.656   3.098
 1613TIP3    H1 4803   7.097   2.666   3.006
 1613TIP3    H2 4804   6.985   2.699   3.102
 1614TIP3   OH2 4805   3.168   5.277   4.628
 1614TIP3    H1 4806   3.185   5.195   4.675
 1614TIP3    H2 4807   3.234   5.279   4.559
 1615TIP3   OH2 4808   3.262   0.107   2.027
 1615TIP3    H1 4809   3.339   0.088   2.081
 1615TIP3    H2 4810   3.246   0.200   2.041
 1616TIP3   OH2 4811   3.546   5.916   2.011
 1616TIP3    H1 4812   3.480   5.888   2.075
 1616TIP3    H2 4813   3.609   5.968   2.062
 1617TIP3   OH2 4814   1.974   1.040   4.443
 1617TIP3    H1 4815   2.017   1.093   4.377
 1617TIP3    H2 4816   1.944   1.104   4.509
 1618TIP3   OH2 4817   3.186   1.984   4.007
 1618TIP3    H1 4818   3.150   2.048   3.946
 1618TIP3    H2 4819   3.132   1.991   4.085
 1619TIP3   OH2 4820   0.529   3.890   3.416
 1619TIP3    H1 4821   0.539   3.903   3.511
 1619TIP3    H2 4822   0.608   3.842   3.390
 1620TIP3   OH2 4823   1.311   4.077   0.833
 1620TIP3    H1 4824   1.269   4.058   0.917
 1620TIP3    H2 4825   1.359   4.158   0.847
 1621TIP3   OH2 4826   5.752   5.018   2.343
 1621TIP3    H1 4827   5.795   5.102   2.351
 1621TIP3    H2 4828   5.737   5.007   2.249
 1622TIP3   OH2 4829   6.745   5.036   1.190
 1622TIP3    H1 4830   6.799   4.995   1.122
 1622TIP3    H2 4831   6.657   5.003   1.174
 1623TIP3   OH2 4832   6.030   2.476   2.817
 1623TIP3    H1 4833   6.088   2.414   2.772
 1623TIP3    H2 4834   5.987   2.524   2.746
 1624TIP3   OH2 4835   7.187   0.538   4.401
 1624TIP3    H1 4836   7.108   0.531   4.455
 1624TIP3    H2 4837   7.156   0.567   4.316
 1625TIP3   OH2 4838   7.093   4.532   2.908
 1625TIP3    H1 4839   7.144   4.495   2.981
 1625TIP3    H2 4840   7.003   4.529   2.939
 1626TIP3   OH2 4841   6.022   3.296   2.403
 1626TIP3    H1 4842   6.100   3.247   2.379
 1626TIP3    H2 4843   6.021   3.371   2.343
 1627TIP3   OH2 4844   2.391   0.801   0.558
 1627TIP3    H1 4845   2.373   0.851   0.638
 1627TIP3    H2 4846   2.485   0.811   0.544
 1628TIP3   OH2 4847   5.313   2.455   1.819
 1628TIP3    H1 4848   5.270   2.405   1.750
 1628TIP3    H2 4849   5.378   2.395   1.856
 1629TIP3   OH2 4850   0.891   5.035   2.502
 1629TIP3    H1 4851   0.943   4.978   2.559
 1629TIP3    H2 4852   0.955   5.093   2.461
 1630TIP3   OH2 4853   4.298   0.300   0.734
 1630TIP3    H1 4854   4.369   0.238   0.749
 1630TIP3    H2 4855   4.249   0.300   0.816
 1631TIP3   OH2 4856   6.100   5.317   1.455
 1631TIP3    H1 4857   6.186   5.328   1.495
 1631TIP3    H2 4858   6.119   5.299   1.363
 1632TIP3   OH2 4859   0.528   5.597   0.041
 1632TIP3    H1 4860   0.434   5.593   0.023
 1632TIP3    H2 4861   0.544   5.524   0.101
 1633TIP3   OH2 4862   4.321   6.476   2.573
 1633TIP3    H1 4863   4.308   6.466   2.667
 1633TIP3    H2 4864   4.241   6.519   2.542
 1634TIP3   OH2 4865   1.037   3.643   4.415
 1634TIP3    H1 4866   1.044   3.559   4.462
 1634TIP3    H2 4867   0.944   3.667   4.423
 1635TIP3   OH2 4868   5.613   6.290   3.809
 1635TIP3    H1 4869   5.637   6.220   3.748
 1635TIP3    H2 4870   5.692   6.343   3.817
 1636TIP3   OH2 4871   5.649   6.547   2.553
 1636TIP3    H1 4872   5.647   6.633   2.594
 1636TIP3    H2 4873   5.702   6.559   2.474
 1637TIP3   OH2 4874   2.269   2.749   2.235
 1637TIP3    H1 4875   2.285   2.832   2.281
 1637TIP3    H2 4876   2.191   2.713   2.278
 1638TIP3   OH2 4877   1.169   0.685   0.215
 1638TIP3    H1 4878   1.125   0.759   0.173
 1638TIP3    H2 4879   1.116   0.609   0.191
 1639TIP3   OH2 4880   2.211   2.660   4.430
 1639TIP3    H1 4881   2.123   2.623   4.423
 1639TIP3    H2 4882   2.223   2.674   4.524
 1640TIP3   OH2 4883   1.260   6.539   2.267
 1640TIP3    H1 4884   1.171   6.551   2.301
 1640TIP3    H2 4885   1.281   6.448   2.286
 1641TIP3   OH2 4886   5.968   0.557   4.721
 1641TIP3    H1 4887   5.962   0.462   4.713
 1641TIP3    H2 4888   6.059   0.577   4.699
 1642TIP3   OH2 4889   1.730   1.583   4.413
 1642TIP3    H1 4890   1.761   1.508   4.362
 1642TIP3    H2 4891   1.746   1.559   4.504
 1643TIP3   OH2 4892   0.846   0.748   0.006
 1643TIP3    H1 4893   0.877   0.692  -0.065
 1643TIP3    H2 4894   0.917   0.811   0.019
 1644TIP3   OH2 4895   6.090   5.883   3.160
 1644TIP3    H1 4896   6.019   5.924   3.210
 1644TIP3    H2 4897   6.078   5.913   3.070
 1645TIP3   OH2 4898   0.160   4.578   0.283
 1645TIP3    H1 4899   0.108   4.615   0.212
 1645TIP3    H2 4900   0.182   4.652   0.339
 1646TIP3   OH2 4901   5.514   3.849   5.074
 1646TIP3    H1 4902   5.605   3.863   5.048
 1646TIP3    H2 4903   5.492   3.924   5.128
 1647TIP3   OH2 4904   2.064   6.382   0.581
 1647TIP3    H1 4905   1.980   6.397   0.537
 1647TIP3    H2 4906   2.071   6.454   0.643
 1648TIP3   OH2 4907   5.338   2.182   2.237
 1648TIP3    H1 4908   5.280   2.257   2.228
 1648TIP3    H2 4909   5.289   2.119   2.289
 1649TIP3   OH2 4910   0.986   0.723   1.961
 1649TIP3    H1 4911   0.990   0.735   1.866
 1649TIP3    H2 4912   0.992   0.811   1.997
 1650TIP3   OH2 4913   3.541   5.366   0.654
 1650TIP3    H1 4914   3.486   5.309   0.601
 1650TIP3    H2 4915   3.622   5.375   0.603
 1651TIP3   OH2 4916   4.276   2.753   4.468
 1651TIP3    H1 4917   4.285   2.777   4.375
 1651TIP3    H2 4918   4.308   2.663   4.473
 1652TIP3   OH2 4919   6.314   4.442   0.255
 1652TIP3    H1 4920   6.320   4.366   0.198
 1652TIP3    H2 4921   6.263   4.506   0.204
 1653TIP3   OH2 4922   3.478   3.844   0.436
 1653TIP3    H1 4923   3.516   3.759   0.413
 1653TIP3    H2 4924   3.439   3.830   0.523
 1654TIP3   OH2 4925   6.798   3.428   0.425
 1654TIP3    H1 4926   6.779   3.485   0.350
 1654TIP3    H2 4927   6.893   3.431   0.435
 1655TIP3   OH2 4928   0.938   1.675   5.668
 1655TIP3    H1 4929   0.950   1.670   5.573
 1655TIP3    H2 4930   0.943   1.768   5.688
 1656TIP3   OH2 4931   0.237   6.376   1.834
 1656TIP3    H1 4932   0.275   6.314   1.897
 1656TIP3    H2 4933   0.311   6.428   1.805
 1657TIP3   OH2 4934   0.934   1.103   3.426
 1657TIP3    H1 4935   1.008   1.051   3.456
 1657TIP3    H2 4936   0.862   1.040   3.419
 1658TIP3   OH2 4937   3.791   1.626   4.074
 1658TIP3    H1 4938   3.788   1.551   4.015
 1658TIP3    H2 4939   3.708   1.623   4.121
 1659TIP3   OH2 4940   4.322   2.253   0.236
 1659TIP3    H1 4941   4.325   2.187   0.167
 1659TIP3    H2 4942   4.367   2.329   0.198
 1660TIP3   OH2 4943   2.697   0.577   1.756
 1660TIP3    H1 4944   2.726   0.549   1.843
 1660TIP3    H2 4945   2.729   0.667   1.748
 1661TIP3   OH2 4946   2.700   1.378   4.630
 1661TIP3    H1 4947   2.791   1.354   4.650
 1661TIP3    H2 4948   2.684   1.345   4.542
 1662TIP3   OH2 4949   4.356   5.044   4.974
 1662TIP3    H1 4950   4.419   4.988   4.928
 1662TIP3    H2 4951   4.354   5.125   4.922
 1663TIP3   OH2 4952   0.665   6.181   4.007
 1663TIP3    H1 4953   0.588   6.215   4.053
 1663TIP3    H2 4954   0.643   6.188   3.915
 1664TIP3   OH2 4955   3.706   4.304   2.955
 1664TIP3    H1 4956   3.672   4.316   3.044
 1664TIP3    H2 4957   3.724   4.210   2.949
 1665TIP3   OH2 4958   4.839   6.328   3.642
 1665TIP3    H1 4959   4.861   6.276   3.565
 1665TIP3    H2 4960   4.884   6.283   3.714
 1666TIP3   OH2 4961   6.854   3.271   2.159
 1666TIP3    H1 4962   6.916   3.341   2.140
 1666TIP3    H2 4963   6.787   3.313   2.213
 1667TIP3   OH2 4964   4.466   3.205   4.795
 1667TIP3    H1 4965   4.439   3.204   4.703
 1667TIP3    H2 4966   4.424   3.284   4.831
 1668TIP3   OH2 4967   3.338   0.625   0.961
 1668TIP3    H1 4968   3.400   0.660   1.026
 1668TIP3    H2 4969   3.390   0.563   0.910
 1669TIP3   OH2 4970   2.034   2.108   1.753
 1669TIP3    H1 4971   2.115   2.098   1.703
 1669TIP3    H2 4972   2.056   2.172   1.821
 1670TIP3   OH2 4973   1.736   1.338   4.044
 1670TIP3    H1 4974   1.705   1.417   4.000
 1670TIP3    H2 4975   1.761   1.279   3.973
 1671TIP3   OH2 4976   1.753   5.295   0.351
 1671TIP3    H1 4977   1.773   5.380   0.390
 1671TIP3    H2 4978   1.718   5.316   0.264
 1672TIP3   OH2 4979  -0.038   6.297   1.350
 1672TIP3    H1 4980  -0.002   6.294   1.439
 1672TIP3    H2 4981   0.011   6.367   1.307
 1673TIP3   OH2 4982   0.915   6.325   1.439
 1673TIP3    H1 4983   0.990   6.384   1.428
 1673TIP3    H2 4984   0.926   6.258   1.371
 1674TIP3   OH2 4985   7.068   1.839   2.000
 1674TIP3    H1 4986   6.994   1.806   2.051
 1674TIP3    H2 4987   7.093   1.766   1.943
 1675TIP3   OH2 4988   1.678   4.667   0.299
 1675TIP3    H1 4989   1.678   4.640   0.391
 1675TIP3    H2 4990   1.658   4.760   0.301
 1676TIP3   OH2 4991   3.106   4.661   0.606
 1676TIP3    H1 4992   3.114   4.677   0.512
 1676TIP3    H2 4993   3.123   4.567   0.616
 1677TIP3   OH2 4994   2.392   2.710   3.300
 1677TIP3    H1 4995   2.396   2.632   3.355
 1677TIP3    H2 4996   2.411   2.678   3.211
 1678TIP3   OH2 4997   2.115   2.425   3.323
 1678TIP3    H1 4998   2.168   2.457   3.396
 1678TIP3    H2 4999   2.110   2.331   3.336
 1679TIP3   OH2 5000   0.814   6.043   2.187
 1679TIP3    H1 5001   0.719   6.057   2.194
 1679TIP3    H2 5002   0.844   6.113   2.129
 1680TIP3   OH2 5003   1.637   1.144   4.319
 1680TIP3    H1 5004   1.616   1.209   4.386
 1680TIP3    H2 5005   1.701   1.188   4.263
 1681TIP3   OH2 5006   5.310   0.742   4.048
 1681TIP3    H1 5007   5.371   0.787   4.107
 1681TIP3    H2 5008   5.367   0.692   3.989
 1682TIP3   OH2 5009   0.279   1.205   1.419
 1682TIP3    H1 5010   0.360   1.256   1.409
 1682TIP3    H2 5011   0.221   1.262   1.470
 1683TIP3   OH2 5012   6.964   2.998   5.210
 1683TIP3    H1 5013   6.936   3.087   5.192
 1683TIP3    H2 5014   7.057   3.007   5.233
 1684TIP3   OH2 5015   5.184   5.702   3.558
 1684TIP3    H1 5016   5.246   5.771   3.583
 1684TIP3    H2 5017   5.151   5.729   3.473
 1685TIP3   OH2 5018   0.062   2.860   4.593
 1685TIP3    H1 5019   0.042   2.781   4.644
 1685TIP3    H2 5020   0.112   2.828   4.518
 1686TIP3   OH2 5021   5.568   0.665   3.018
 1686TIP3    H1 5022   5.497   0.601   3.014
 1686TIP3    H2 5023   5.527   0.746   3.048
 1687TIP3   OH2 5024   7.070   3.901   3.943
 1687TIP3    H1 5025   7.112   3.909   4.029
 1687TIP3    H2 5026   7.059   3.807   3.931
 1688TIP3   OH2 5027   3.918   3.913   2.644
 1688TIP3    H1 5028   3.828   3.907   2.612
 1688TIP3    H2 5029   3.972   3.883   2.571
 1689TIP3   OH2 5030   1.439   3.545   0.859
 1689TIP3    H1 5031   1.487   3.600   0.797
 1689TIP3    H2 5032   1.430   3.600   0.937
 1690TIP3   OH2 5033   0.985   2.464   1.218
 1690TIP3    H1 5034   0.962   2.464   1.311
 1690TIP3    H2 5035   1.021   2.377   1.203
 1691TIP3   OH2 5036   6.514   3.251   4.121
 1691TIP3    H1 5037   6.481   3.340   4.106
 1691TIP3    H2 5038   6.609   3.260   4.115
 1692TIP3   OH2 5039   4.428   0.693   4.876
 1692TIP3    H1 5040   4.380   0.630   4.930
 1692TIP3    H2 5041   4.491   0.733   4.936
 1693TIP3   OH2 5042   3.266   2.324   2.825
 1693TIP3    H1 5043   3.268   2.388   2.895
 1693TIP3    H2 5044   3.226   2.246   2.864
 1694TIP3   OH2 5045   1.445   6.199   1.606
 1694TIP3    H1 5046   1.520   6.209   1.547
 1694TIP3    H2 5047   1.376   6.163   1.551
 1695TIP3   OH2 5048   2.598   3.869   2.672
 1695TIP3    H1 5049   2.540   3.939   2.702
 1695TIP3    H2 5050   2.539   3.796   2.653
 1696TIP3   OH2 5051   0.299   3.168   3.173
 1696TIP3    H1 5052   0.373   3.218   3.140
 1696TIP3    H2 5053   0.258   3.131   3.095
 1697TIP3   OH2 5054   2.574   4.061   0.591
 1697TIP3    H1 5055   2.605   4.105   0.512
 1697TIP3    H2 5056   2.579   4.129   0.659
 1698TIP3   OH2 5057   4.158   5.190   0.237
 1698TIP3    H1 5058   4.225   5.127   0.264
 1698TIP3    H2 5059   4.140   5.168   0.145
 1699TIP3   OH2 5060   0.756   1.200   3.193
 1699TIP3    H1 5061   0.677   1.234   3.234
 1699TIP3    H2 5062   0.801   1.152   3.263
 1700TIP3   OH2 5063   3.364   2.032   0.731
 1700TIP3    H1 5064   3.358   1.936   0.732
 1700TIP3    H2 5065   3.422   2.051   0.657
 1701TIP3   OH2 5066   4.443   3.158   0.411
 1701TIP3    H1 5067   4.387   3.080   0.420
 1701TIP3    H2 5068   4.486   3.167   0.496
 1702TIP3   OH2 5069   3.809   0.825   0.833
 1702TIP3    H1 5070   3.733   0.871   0.866
 1702TIP3    H2 5071   3.882   0.886   0.843
 1703TIP3   OH2 5072   5.381   6.772   0.822
 1703TIP3    H1 5073   5.399   6.678   0.826
 1703TIP3    H2 5074   5.315   6.786   0.890
 1704TIP3   OH2 5075   4.791   5.081   4.256
 1704TIP3    H1 5076   4.865   5.088   4.316
 1704TIP3    H2 5077   4.744   5.002   4.284
 1705TIP3   OH2 5078   5.429   4.824   4.518
 1705TIP3    H1 5079   5.471   4.779   4.445
 1705TIP3    H2 5080   5.364   4.762   4.550
 1706TIP3   OH2 5081   5.033   5.985   2.515
 1706TIP3    H1 5082   5.060   5.949   2.600
 1706TIP3    H2 5083   5.090   5.942   2.452
 1707TIP3   OH2 5084   1.223   1.112   5.028
 1707TIP3    H1 5085   1.268   1.028   5.020
 1707TIP3    H2 5086   1.172   1.120   4.948
 1708TIP3   OH2 5087   6.909   3.193   2.509
 1708TIP3    H1 5088   6.964   3.270   2.494
 1708TIP3    H2 5089   6.967   3.119   2.491
 1709TIP3   OH2 5090   7.154   3.121   5.436
 1709TIP3    H1 5091   7.088   3.187   5.414
 1709TIP3    H2 5092   7.234   3.172   5.453
 1710TIP3   OH2 5093   6.016   1.386   1.744
 1710TIP3    H1 5094   5.993   1.354   1.832
 1710TIP3    H2 5095   5.954   1.343   1.686
 1711TIP3   OH2 5096   7.080   3.150   0.717
 1711TIP3    H1 5097   7.005   3.152   0.777
 1711TIP3    H2 5098   7.115   3.061   0.726
 1712TIP3   OH2 5099   4.064   1.048   0.222
 1712TIP3    H1 5100   3.979   1.091   0.233
 1712TIP3    H2 5101   4.043   0.963   0.184
 1713TIP3   OH2 5102   1.488   3.922   4.260
 1713TIP3    H1 5103   1.412   3.888   4.307
 1713TIP3    H2 5104   1.557   3.928   4.326
 1714TIP3   OH2 5105   3.167   3.964   0.260
 1714TIP3    H1 5106   3.079   3.953   0.226
 1714TIP3    H2 5107   3.208   3.878   0.251
 1715TIP3   OH2 5108   3.251   1.348   3.143
 1715TIP3    H1 5109   3.230   1.268   3.096
 1715TIP3    H2 5110   3.333   1.329   3.188
 1716TIP3   OH2 5111   0.037   1.404   4.985
 1716TIP3    H1 5112   0.100   1.339   4.956
 1716TIP3    H2 5113   0.044   1.475   4.921
 1717TIP3   OH2 5114   6.350   1.394   5.342
 1717TIP3    H1 5115   6.337   1.299   5.335
 1717TIP3    H2 5116   6.383   1.419   5.256
 1718TIP3   OH2 5117   5.512   4.062   1.212
 1718TIP3    H1 5118   5.426   4.102   1.217
 1718TIP3    H2 5119   5.511   3.994   1.279
 1719TIP3   OH2 5120   6.606   0.640   1.781
 1719TIP3    H1 5121   6.585   0.693   1.857
 1719TIP3    H2 5122   6.523   0.627   1.736
 1720TIP3   OH2 5123   5.059   4.361   0.406
 1720TIP3    H1 5124   4.986   4.423   0.411
 1720TIP3    H2 5125   5.038   4.295   0.473
 1721TIP3   OH2 5126   6.653   6.201   3.236
 1721TIP3    H1 5127   6.734   6.250   3.220
 1721TIP3    H2 5128   6.587   6.246   3.183
 1722TIP3   OH2 5129   0.123   5.999   5.566
 1722TIP3    H1 5130   0.097   6.081   5.608
 1722TIP3    H2 5131   0.218   5.994   5.578
 1723TIP3   OH2 5132   3.293   3.371   0.758
 1723TIP3    H1 5133   3.357   3.422   0.708
 1723TIP3    H2 5134   3.288   3.288   0.712
 1724TIP3   OH2 5135   6.992   5.746   0.173
 1724TIP3    H1 5136   7.031   5.801   0.241
 1724TIP3    H2 5137   6.923   5.697   0.219
 1725TIP3   OH2 5138   5.940   1.304   1.999
 1725TIP3    H1 5139   5.974   1.266   2.081
 1725TIP3    H2 5140   5.850   1.328   2.019
 1726TIP3   OH2 5141   3.624   0.362   1.185
 1726TIP3    H1 5142   3.576   0.286   1.152
 1726TIP3    H2 5143   3.715   0.346   1.159
 1727TIP3   OH2 5144   5.961   6.345   2.768
 1727TIP3    H1 5145   5.869   6.371   2.777
 1727TIP3    H2 5146   6.001   6.370   2.851
 1728TIP3   OH2 5147   2.299   1.511   2.330
 1728TIP3    H1 5148   2.359   1.493   2.258
 1728TIP3    H2 5149   2.212   1.511   2.291
 1729TIP3   OH2 5150   6.456   0.335   2.797
 1729TIP3    H1 5151   6.543   0.311   2.830
 1729TIP3    H2 5152   6.464   0.429   2.777
 1730TIP3   OH2 5153   6.955   0.184   1.782
 1730TIP3    H1 5154   7.018   0.167   1.853
 1730TIP3    H2 5155   6.886   0.119   1.796
 1731TIP3   OH2 5156   3.685   1.866   1.642
 1731TIP3    H1 5157   3.748   1.880   1.712
 1731TIP3    H2 5158   3.734   1.886   1.562
 1732TIP3   OH2 5159   5.780   5.390   5.680
 1732TIP3    H1 5160   5.872   5.403   5.703
 1732TIP3    H2 5161   5.749   5.325   5.744
 1733TIP3   OH2 5162   4.511   0.479   3.722
 1733TIP3    H1 5163   4.561   0.397   3.728
 1733TIP3    H2 5164   4.438   0.467   3.782
 1734TIP3   OH2 5165   2.457   2.401   4.824
 1734TIP3    H1 5166   2.362   2.415   4.817
 1734TIP3    H2 5167   2.479   2.431   4.913
 1735TIP3   OH2 5168   2.291  -0.069   2.889
 1735TIP3    H1 5169   2.204  -0.107   2.875
 1735TIP3    H2 5170   2.276   0.025   2.894
 1736TIP3   OH2 5171   4.630   6.477   5.550
 1736TIP3    H1 5172   4.718   6.501   5.579
 1736TIP3    H2 5173   4.575   6.492   5.626
 1737TIP3   OH2 5174   2.363   1.236   4.458
 1737TIP3    H1 5175   2.289   1.265   4.512
 1737TIP3    H2 5176   2.419   1.187   4.518
 1738TIP3   OH2 5177   4.105   6.251   2.591
 1738TIP3    H1 5178   4.158   6.329   2.605
 1738TIP3    H2 5179   4.020   6.272   2.629
 1739TIP3   OH2 5180   3.541   1.189   2.045
 1739TIP3    H1 5181   3.555   1.101   2.081
 1739TIP3    H2 5182   3.565   1.181   1.952
 1740TIP3   OH2 5183   0.235   0.782   3.772
 1740TIP3    H1 5184   0.280   0.806   3.692
 1740TIP3    H2 5185   0.278   0.833   3.841
 1741TIP3   OH2 5186   3.520   4.640   2.229
 1741TIP3    H1 5187   3.437   4.637   2.276
 1741TIP3    H2 5188   3.497   4.666   2.140
 1742TIP3   OH2 5189   2.380   2.052   3.645
 1742TIP3    H1 5190   2.427   2.074   3.725
 1742TIP3    H2 5191   2.448   2.028   3.582
 1743TIP3   OH2 5192   0.701   1.064   1.783
 1743TIP3    H1 5193   0.663   1.017   1.858
 1743TIP3    H2 5194   0.779   1.012   1.760
 1744TIP3   OH2 5195   5.592   2.648   4.444
 1744TIP3    H1 5196   5.531   2.634   4.517
 1744TIP3    H2 5197   5.664   2.588   4.461
 1745TIP3   OH2 5198   5.460   3.170   1.061
 1745TIP3    H1 5199   5.533   3.222   1.095
 1745TIP3    H2 5200   5.400   3.234   1.022
 1746TIP3   OH2 5201   4.655   6.492   4.831
 1746TIP3    H1 5202   4.713   6.547   4.778
 1746TIP3    H2 5203   4.644   6.412   4.779
 1747TIP3   OH2 5204   2.168   0.182   0.650
 1747TIP3    H1 5205   2.163   0.274   0.678
 1747TIP3    H2 5206   2.181   0.187   0.555
 1748TIP3   OH2 5207   0.636   6.695   2.042
 1748TIP3    H1 5208   0.709   6.755   2.054
 1748TIP3    H2 5209   0.676   6.609   2.029
 1749TIP3   OH2 5210   0.843   0.762   5.607
 1749TIP3    H1 5211   0.880   0.723   5.527
 1749TIP3    H2 5212   0.792   0.692   5.646
 1750TIP3   OH2 5213   4.911   1.582   3.561
 1750TIP3    H1 5214   4.896   1.573   3.467
 1750TIP3    H2 5215   4.918   1.493   3.593
 1751TIP3   OH2 5216   0.668   0.572   5.743
 1751TIP3    H1 5217   0.710   0.508   5.685
 1751TIP3    H2 5218   0.729   0.583   5.815
 1752TIP3   OH2 5219   6.644   5.279   5.443
 1752TIP3    H1 5220   6.565   5.315   5.483
 1752TIP3    H2 5221   6.618   5.190   5.416
 1753TIP3   OH2 5222   0.372   6.248   4.134
 1753TIP3    H1 5223   0.393   6.163   4.173
 1753TIP3    H2 5224   0.276   6.250   4.133
 1754TIP3   OH2 5225   3.522   5.210   3.878
 1754TIP3    H1 5226   3.456   5.207   3.809
 1754TIP3    H2 5227   3.522   5.301   3.908
 1755TIP3   OH2 5228   4.822   6.342   4.624
 1755TIP3    H1 5229   4.801   6.254   4.655
 1755TIP3    H2 5230   4.885   6.376   4.688
 1756TIP3   OH2 5231   4.660   2.386   4.380
 1756TIP3    H1 5232   4.570   2.357   4.370
 1756TIP3    H2 5233   4.659   2.438   4.461
 1757TIP3   OH2 5234   3.484   0.223   1.448
 1757TIP3    H1 5235   3.407   0.220   1.392
 1757TIP3    H2 5236   3.452   0.257   1.531
 1758TIP3   OH2 5237   6.184   1.951   0.147
 1758TIP3    H1 5238   6.238   1.922   0.074
 1758TIP3    H2 5239   6.145   2.033   0.118
 1759TIP3   OH2 5240   1.338   1.612   2.687
 1759TIP3    H1 5241   1.314   1.699   2.719
 1759TIP3    H2 5242   1.387   1.629   2.606
 1760TIP3   OH2 5243   6.399   4.568   4.537
 1760TIP3    H1 5244   6.369   4.532   4.620
 1760TIP3    H2 5245   6.483   4.524   4.521
 1761TIP3   OH2 5246   5.169   0.188   0.945
 1761TIP3    H1 5247   5.234   0.238   0.995
 1761TIP3    H2 5248   5.191   0.096   0.962
 1762TIP3   OH2 5249   2.352   5.362   0.958
 1762TIP3    H1 5250   2.306   5.356   1.042
 1762TIP3    H2 5251   2.403   5.442   0.964
 1763TIP3   OH2 5252   6.876   5.047   0.228
 1763TIP3    H1 5253   6.829   5.052   0.145
 1763TIP3    H2 5254   6.897   5.138   0.250
 1764TIP3   OH2 5255   6.661   2.394   4.495
 1764TIP3    H1 5256   6.589   2.451   4.469
 1764TIP3    H2 5257   6.731   2.455   4.520
 1765TIP3   OH2 5258   4.742   6.366   4.268
 1765TIP3    H1 5259   4.699   6.393   4.187
 1765TIP3    H2 5260   4.748   6.446   4.320
 1766TIP3   OH2 5261   0.834   5.914   3.793
 1766TIP3    H1 5262   0.799   5.967   3.721
 1766TIP3    H2 5263   0.885   5.846   3.750
 1767TIP3   OH2 5264   3.816   4.098   2.146
 1767TIP3    H1 5265   3.833   4.176   2.093
 1767TIP3    H2 5266   3.748   4.051   2.098
 1768TIP3   OH2 5267   2.435   5.863   4.899
 1768TIP3    H1 5268   2.488   5.832   4.825
 1768TIP3    H2 5269   2.355   5.898   4.858
 1769TIP3   OH2 5270   6.025   4.190   3.467
 1769TIP3    H1 5271   6.035   4.285   3.459
 1769TIP3    H2 5272   6.105   4.162   3.511
 1770TIP3   OH2 5273   0.302   2.932   0.011
 1770TIP3    H1 5274   0.357   2.903   0.084
 1770TIP3    H2 5275   0.356   2.995  -0.036
 1771TIP3   OH2 5276   0.949   2.422   0.353
 1771TIP3    H1 5277   0.894   2.396   0.427
 1771TIP3    H2 5278   0.984   2.339   0.320
 1772TIP3   OH2 5279   4.311   1.145   0.128
 1772TIP3    H1 5280   4.222   1.122   0.155
 1772TIP3    H2 5281   4.361   1.064   0.137
 1773TIP3   OH2 5282   5.952   3.545   2.999
 1773TIP3    H1 5283   6.035   3.572   2.959
 1773TIP3    H2 5284   5.885   3.587   2.946
 1774TIP3   OH2 5285   6.643   3.701   3.636
 1774TIP3    H1 5286   6.607   3.761   3.571
 1774TIP3    H2 5287   6.729   3.737   3.657
 1775TIP3   OH2 5288   1.370   1.976   4.740
 1775TIP3    H1 5289   1.326   1.968   4.825
 1775TIP3    H2 5290   1.314   1.929   4.679
 1776TIP3   OH2 5291   4.026   5.161   5.882
 1776TIP3    H1 5292   4.004   5.197   5.796
 1776TIP3    H2 5293   4.075   5.081   5.862
 1777TIP3   OH2 5294   1.062   1.375   3.949
 1777TIP3    H1 5295   0.997   1.426   3.900
 1777TIP3    H2 5296   1.038   1.284   3.930
 1778TIP3   OH2 5297   3.393   2.034   4.523
 1778TIP3    H1 5298   3.366   2.092   4.451
 1778TIP3    H2 5299   3.345   1.953   4.507
 1779TIP3   OH2 5300   4.175   3.249   0.967
 1779TIP3    H1 5301   4.149   3.341   0.960
 1779TIP3    H2 5302   4.098   3.205   1.003
 1780TIP3   OH2 5303   3.774   0.978   4.303
 1780TIP3    H1 5304   3.725   0.941   4.229
 1780TIP3    H2 5305   3.859   1.000   4.266
 1781TIP3   OH2 5306   1.345   2.136   4.018
 1781TIP3    H1 5307   1.293   2.075   4.072
 1781TIP3    H2 5308   1.292   2.148   3.939
 1782TIP3   OH2 5309   6.466   3.027   5.753
 1782TIP3    H1 5310   6.476   2.943   5.709
 1782TIP3    H2 5311   6.404   3.076   5.698
 1783TIP3   OH2 5312   5.866   0.394   2.152
 1783TIP3    H1 5313   5.773   0.387   2.172
 1783TIP3    H2 5314   5.880   0.332   2.081
 1784TIP3   OH2 5315   6.486   5.249   2.001
 1784TIP3    H1 5316   6.577   5.232   2.029
 1784TIP3    H2 5317   6.451   5.162   1.982
 1785TIP3   OH2 5318   3.755   6.634   3.306
 1785TIP3    H1 5319   3.806   6.691   3.364
 1785TIP3    H2 5320   3.708   6.575   3.364
 1786TIP3   OH2 5321   3.095   4.644   4.980
 1786TIP3    H1 5322   3.125   4.700   4.908
 1786TIP3    H2 5323   3.042   4.701   5.034
 1787TIP3   OH2 5324   2.754   0.289   4.991
 1787TIP3    H1 5325   2.804   0.321   4.916
 1787TIP3    H2 5326   2.696   0.223   4.954
 1788TIP3   OH2 5327   1.641   5.572   2.064
 1788TIP3    H1 5328   1.680   5.652   2.029
 1788TIP3    H2 5329   1.710   5.506   2.055
 1789TIP3   OH2 5330   3.636   5.314   0.152
 1789TIP3    H1 5331   3.724   5.347   0.132
 1789TIP3    H2 5332   3.590   5.390   0.187
 1790TIP3   OH2 5333   5.871   5.844   4.328
 1790TIP3    H1 5334   5.805   5.774   4.331
 1790TIP3    H2 5335   5.947   5.807   4.372
 1791TIP3   OH2 5336   0.122   6.065   3.185
 1791TIP3    H1 5337   0.063   6.069   3.261
 1791TIP3    H2 5338   0.134   6.156   3.159
 1792TIP3   OH2 5339   0.195   0.148   4.547
 1792TIP3    H1 5340   0.268   0.205   4.572
 1792TIP3    H2 5341   0.236   0.063   4.529
 1793TIP3   OH2 5342   0.845   0.186   0.776
 1793TIP3    H1 5343   0.916   0.250   0.767
 1793TIP3    H2 5344   0.781   0.228   0.833
 1794TIP3   OH2 5345   4.272   3.562   3.338
 1794TIP3    H1 5346   4.352   3.614   3.349
 1794TIP3    H2 5347   4.301   3.471   3.343
 1795TIP3   OH2 5348   6.728   0.639   5.096
 1795TIP3    H1 5349   6.754   0.612   5.008
 1795TIP3    H2 5350   6.740   0.561   5.150
 1796TIP3   OH2 5351   3.873   3.571   5.604
 1796TIP3    H1 5352   3.800   3.552   5.545
 1796TIP3    H2 5353   3.892   3.487   5.646
 1797TIP3   OH2 5354   6.055   3.089   0.728
 1797TIP3    H1 5355   5.978   3.033   0.724
 1797TIP3    H2 5356   6.116   3.042   0.786
 1798TIP3   OH2 5357   7.178   5.907   4.772
 1798TIP3    H1 5358   7.189   5.985   4.719
 1798TIP3    H2 5359   7.208   5.933   4.859
 1799TIP3   OH2 5360   4.705   5.570   3.193
 1799TIP3    H1 5361   4.742   5.658   3.194
 1799TIP3    H2 5362   4.780   5.512   3.205
 1800TIP3   OH2 5363   5.655   1.098   3.071
 1800TIP3    H1 5364   5.579   1.156   3.068
 1800TIP3    H2 5365   5.617   1.010   3.076
 1801TIP3   OH2 5366   4.108   2.181   3.688
 1801TIP3    H1 5367   4.040   2.119   3.713
 1801TIP3    H2 5368   4.105   2.183   3.593
 1802TIP3   OH2 5369   2.687   5.322   0.903
 1802TIP3    H1 5370   2.660   5.231   0.919
 1802TIP3    H2 5371   2.647   5.372   0.974
 1803TIP3   OH2 5372   1.062   0.924   0.065
 1803TIP3    H1 5373   1.107   0.929  -0.020
 1803TIP3    H2 5374   1.032   1.014   0.081
 1804TIP3   OH2 5375   0.300   6.484   2.270
 1804TIP3    H1 5376   0.334   6.574   2.268
 1804TIP3    H2 5377   0.270   6.472   2.361
 1805TIP3   OH2 5378   4.998   4.568   2.580
 1805TIP3    H1 5379   5.028   4.584   2.491
 1805TIP3    H2 5380   5.047   4.491   2.609
 1806TIP3   OH2 5381   3.553   4.178   5.425
 1806TIP3    H1 5382   3.609   4.219   5.359
 1806TIP3    H2 5383   3.574   4.084   5.417
 1807TIP3   OH2 5384   1.600   3.989   4.571
 1807TIP3    H1 5385   1.643   4.073   4.584
 1807TIP3    H2 5386   1.546   3.977   4.649
 1808TIP3   OH2 5387   5.762   4.209   0.279
 1808TIP3    H1 5388   5.695   4.249   0.335
 1808TIP3    H2 5389   5.739   4.237   0.190
 1809TIP3   OH2 5390   4.636   1.797   5.308
 1809TIP3    H1 5391   4.657   1.703   5.305
 1809TIP3    H2 5392   4.696   1.837   5.245
 1810TIP3   OH2 5393   2.931   3.596   0.930
 1810TIP3    H1 5394   2.839   3.606   0.954
 1810TIP3    H2 5395   2.929   3.553   0.845
 1811TIP3   OH2 5396   6.234   1.452   0.305
 1811TIP3    H1 5397   6.270   1.396   0.374
 1811TIP3    H2 5398   6.139   1.450   0.321
 1812TIP3   OH2 5399   7.070   6.613   4.949
 1812TIP3    H1 5400   6.985   6.618   4.992
 1812TIP3    H2 5401   7.131   6.650   5.012
 1813TIP3   OH2 5402   7.026   0.855   0.757
 1813TIP3    H1 5403   7.034   0.787   0.690
 1813TIP3    H2 5404   7.078   0.928   0.722
 1814TIP3   OH2 5405   7.181   3.985   1.427
 1814TIP3    H1 5406   7.159   3.988   1.334
 1814TIP3    H2 5407   7.180   4.076   1.455
 1815TIP3   OH2 5408   3.180   0.499   1.567
 1815TIP3    H1 5409   3.247   0.564   1.547
 1815TIP3    H2 5410   3.117   0.506   1.494
 1816TIP3   OH2 5411   0.706   2.493   1.815
 1816TIP3    H1 5412   0.664   2.526   1.736
 1816TIP3    H2 5413   0.788   2.455   1.784
 1817TIP3   OH2 5414   4.338   4.273   4.569
 1817TIP3    H1 5415   4.418   4.293   4.520
 1817TIP3    H2 5416   4.289   4.213   4.513
 1818TIP3   OH2 5417   6.620   5.724   3.869
 1818TIP3    H1 5418   6.626   5.644   3.816
 1818TIP3    H2 5419   6.672   5.705   3.947
 1819TIP3   OH2 5420   5.766   2.507   3.954
 1819TIP3    H1 5421   5.711   2.543   4.023
 1819TIP3    H2 5422   5.723   2.425   3.929
 1820TIP3   OH2 5423   6.351   3.176   3.255
 1820TIP3    H1 5424   6.284   3.224   3.305
 1820TIP3    H2 5425   6.301   3.122   3.194
 1821TIP3   OH2 5426   0.331   3.970   1.280
 1821TIP3    H1 5427   0.323   4.004   1.369
 1821TIP3    H2 5428   0.294   4.039   1.224
 1822TIP3   OH2 5429   5.592   2.141   4.146
 1822TIP3    H1 5430   5.561   2.124   4.235
 1822TIP3    H2 5431   5.680   2.103   4.143
 1823TIP3   OH2 5432   4.569   6.034   1.266
 1823TIP3    H1 5433   4.556   6.029   1.172
 1823TIP3    H2 5434   4.596   5.945   1.291
 1824TIP3   OH2 5435   2.820   3.314   3.951
 1824TIP3    H1 5436   2.854   3.303   3.863
 1824TIP3    H2 5437   2.749   3.378   3.942
 1825TIP3   OH2 5438   6.221   1.399   4.453
 1825TIP3    H1 5439   6.276   1.428   4.380
 1825TIP3    H2 5440   6.160   1.472   4.468
 1826TIP3   OH2 5441   2.483   2.493   0.615
 1826TIP3    H1 5442   2.429   2.430   0.663
 1826TIP3    H2 5443   2.573   2.463   0.629
 1827TIP3   OH2 5444   4.428   4.124   2.052
 1827TIP3    H1 5445   4.422   4.193   2.119
 1827TIP3    H2 5446   4.413   4.170   1.970
 1828TIP3   OH2 5447   3.709   1.064   3.066
 1828TIP3    H1 5448   3.708   1.026   2.979
 1828TIP3    H2 5449   3.640   1.017   3.114
 1829TIP3   OH2 5450   4.329   0.210   0.043
 1829TIP3    H1 5451   4.404   0.231   0.099
 1829TIP3    H2 5452   4.362   0.144  -0.018
 1830TIP3   OH2 5453   0.127   0.448   2.659
 1830TIP3    H1 5454   0.200   0.430   2.718
 1830TIP3    H2 5455   0.079   0.365   2.654
 1831TIP3   OH2 5456   3.584   3.792   4.143
 1831TIP3    H1 5457   3.546   3.853   4.081
 1831TIP3    H2 5458   3.642   3.737   4.090
 1832TIP3   OH2 5459   1.708   6.043   2.974
 1832TIP3    H1 5460   1.679   6.076   2.889
 1832TIP3    H2 5461   1.733   5.952   2.956
 1833TIP3   OH2 5462   3.778   5.677   4.166
 1833TIP3    H1 5463   3.870   5.702   4.159
 1833TIP3    H2 5464   3.729   5.758   4.148
 1834TIP3   OH2 5465   6.692   3.739   1.988
 1834TIP3    H1 5466   6.749   3.776   1.920
 1834TIP3    H2 5467   6.749   3.682   2.039
 1835TIP3   OH2 5468   2.507   2.355   3.182
 1835TIP3    H1 5469   2.573   2.296   3.147
 1835TIP3    H2 5470   2.450   2.375   3.108
 1836TIP3   OH2 5471   1.652   4.582   2.699
 1836TIP3    H1 5472   1.682   4.642   2.767
 1836TIP3    H2 5473   1.715   4.591   2.628
 1837TIP3   OH2 5474   4.886   4.264   1.289
 1837TIP3    H1 5475   4.896   4.268   1.194
 1837TIP3    H2 5476   4.914   4.176   1.312
 1838TIP3   OH2 5477   5.825   6.038   1.382
 1838TIP3    H1 5478   5.885   6.063   1.312
 1838TIP3    H2 5479   5.838   5.943   1.391
 1839TIP3   OH2 5480   1.527   5.796   1.601
 1839TIP3    H1 5481   1.435   5.776   1.582
 1839TIP3    H2 5482   1.571   5.792   1.516
 1840TIP3   OH2 5483   1.933   5.810   2.984
 1840TIP3    H1 5484   1.929   5.892   2.936
 1840TIP3    H2 5485   1.890   5.746   2.927
 1841TIP3   OH2 5486   6.433   3.399   2.124
 1841TIP3    H1 5487   6.510   3.398   2.181
 1841TIP3    H2 5488   6.368   3.345   2.171
 1842TIP3   OH2 5489   4.651   5.534   3.627
 1842TIP3    H1 5490   4.580   5.470   3.630
 1842TIP3    H2 5491   4.607   5.618   3.614
 1843TIP3   OH2 5492   3.153   4.991   0.995
 1843TIP3    H1 5493   3.108   4.919   1.039
 1843TIP3    H2 5494   3.199   4.949   0.922
 1844TIP3   OH2 5495   0.301   6.390   0.927
 1844TIP3    H1 5496   0.288   6.484   0.911
 1844TIP3    H2 5497   0.395   6.377   0.915
 1845TIP3   OH2 5498   4.302   2.172   3.974
 1845TIP3    H1 5499   4.235   2.136   4.032
 1845TIP3    H2 5500   4.256   2.187   3.891
 1846TIP3   OH2 5501   3.592   1.229   0.885
 1846TIP3    H1 5502   3.542   1.231   0.804
 1846TIP3    H2 5503   3.676   1.268   0.863
 1847TIP3   OH2 5504   6.568   1.382   0.578
 1847TIP3    H1 5505   6.530   1.447   0.636
 1847TIP3    H2 5506   6.493   1.342   0.534
 1848TIP3   OH2 5507   0.024   5.988   1.431
 1848TIP3    H1 5508  -0.071   5.974   1.422
 1848TIP3    H2 5509   0.033   6.082   1.447
 1849TIP3   OH2 5510   4.860   3.646   1.009
 1849TIP3    H1 5511   4.842   3.559   1.043
 1849TIP3    H2 5512   4.836   3.641   0.917
 1850TIP3   OH2 5513   0.722   5.661   2.430
 1850TIP3    H1 5514   0.632   5.646   2.460
 1850TIP3    H2 5515   0.761   5.574   2.426
 1851TIP3   OH2 5516   1.410   4.160   2.216
 1851TIP3    H1 5517   1.337   4.098   2.215
 1851TIP3    H2 5518   1.419   4.184   2.308
 1852TIP3   OH2 5519   4.262   3.159   3.851
 1852TIP3    H1 5520   4.225   3.233   3.899
 1852TIP3    H2 5521   4.304   3.198   3.774
 1853TIP3   OH2 5522   0.372   1.752   1.310
 1853TIP3    H1 5523   0.351   1.713   1.225
 1853TIP3    H2 5524   0.465   1.776   1.303
 1854TIP3   OH2 5525   4.485   4.318   2.245
 1854TIP3    H1 5526   4.539   4.330   2.323
 1854TIP3    H2 5527   4.446   4.404   2.230
 1855TIP3   OH2 5528   1.729   4.556   4.139
 1855TIP3    H1 5529   1.635   4.541   4.141
 1855TIP3    H2 5530   1.768   4.470   4.157
 1856TIP3   OH2 5531   6.958   0.187   2.533
 1856TIP3    H1 5532   6.922   0.268   2.570
 1856TIP3    H2 5533   7.051   0.206   2.521
 1857TIP3   OH2 5534   0.511   0.308   5.447
 1857TIP3    H1 5535   0.543   0.248   5.514
 1857TIP3    H2 5536   0.461   0.374   5.496
 1858TIP3   OH2 5537   3.686   0.040   3.799
 1858TIP3    H1 5538   3.718   0.072   3.715
 1858TIP3    H2 5539   3.692  -0.055   3.792
 1859TIP3   OH2 5540   5.244   5.403   2.023
 1859TIP3    H1 5541   5.242   5.364   1.935
 1859TIP3    H2 5542   5.152   5.404   2.050
 1860TIP3   OH2 5543   5.018   0.928   3.376
 1860TIP3    H1 5544   4.930   0.899   3.349
 1860TIP3    H2 5545   5.006   1.020   3.401
 1861TIP3   OH2 5546   5.520   2.043   1.843
 1861TIP3    H1 5547   5.442   2.065   1.791
 1861TIP3    H2 5548   5.501   1.957   1.880
 1862TIP3   OH2 5549   3.938   0.159   4.325
 1862TIP3    H1 5550   4.014   0.144   4.269
 1862TIP3    H2 5551   3.910   0.071   4.351
 1863TIP3   OH2 5552   5.368   4.737   1.828
 1863TIP3    H1 5553   5.428   4.664   1.843
 1863TIP3    H2 5554   5.319   4.712   1.750
 1864TIP3   OH2 5555   0.723   4.585   1.686
 1864TIP3    H1 5556   0.743   4.620   1.773
 1864TIP3    H2 5557   0.644   4.631   1.659
 1865TIP3   OH2 5558   3.815   6.072   0.281
 1865TIP3    H1 5559   3.822   6.165   0.306
 1865TIP3    H2 5560   3.843   6.070   0.190
 1866TIP3   OH2 5561   6.479   2.983   4.860
 1866TIP3    H1 5562   6.465   3.056   4.800
 1866TIP3    H2 5563   6.392   2.960   4.891
 1867TIP3   OH2 5564   3.866   3.978   5.711
 1867TIP3    H1 5565   3.835   3.948   5.797
 1867TIP3    H2 5566   3.846   4.072   5.711
 1868TIP3   OH2 5567   1.451   1.246   5.066
 1868TIP3    H1 5568   1.370   1.195   5.068
 1868TIP3    H2 5569   1.493   1.220   4.984
 1869TIP3   OH2 5570   1.879   5.774   0.579
 1869TIP3    H1 5571   1.842   5.800   0.495
 1869TIP3    H2 5572   1.969   5.808   0.577
 1870TIP3   OH2 5573   1.838   1.807   5.373
 1870TIP3    H1 5574   1.871   1.884   5.327
 1870TIP3    H2 5575   1.889   1.734   5.338
 1871TIP3   OH2 5576   1.917   3.578   2.587
 1871TIP3    H1 5577   1.960   3.582   2.501
 1871TIP3    H2 5578   1.859   3.502   2.581
 1872TIP3   OH2 5579   5.376   6.093   1.533
 1872TIP3    H1 5580   5.443   6.152   1.566
 1872TIP3    H2 5581   5.421   6.008   1.525
 1873TIP3   OH2 5582   5.799   3.959   1.925
 1873TIP3    H1 5583   5.855   4.023   1.881
 1873TIP3    H2 5584   5.805   3.981   2.018
 1874TIP3   OH2 5585   1.733   2.378   1.871
 1874TIP3    H1 5586   1.692   2.396   1.786
 1874TIP3    H2 5587   1.659   2.368   1.931
 1875TIP3   OH2 5588   3.026   1.835   1.463
 1875TIP3    H1 5589   3.091   1.823   1.532
 1875TIP3    H2 5590   3.003   1.746   1.436
 1876TIP3   OH2 5591   0.108   5.273   0.591
 1876TIP3    H1 5592   0.169   5.337   0.627
 1876TIP3    H2 5593   0.081   5.309   0.507
 1877TIP3   OH2 5594   1.789   4.270   3.220
 1877TIP3    H1 5595   1.817   4.236   3.305
 1877TIP3    H2 5596   1.714   4.215   3.196
 1878TIP3   OH2 5597   6.327   4.400   2.445
 1878TIP3    H1 5598   6.351   4.410   2.537
 1878TIP3    H2 5599   6.231   4.396   2.445
 1879TIP3   OH2 5600   1.070   1.831   4.877
 1879TIP3    H1 5601   1.113   1.792   4.801
 1879TIP3    H2 5602   1.038   1.915   4.846
 1880TIP3   OH2 5603   2.973   1.854   4.409
 1880TIP3    H1 5604   2.977   1.902   4.326
 1880TIP3    H2 5605   2.890   1.880   4.448
 1881TIP3   OH2 5606   5.940   5.708   0.647
 1881TIP3    H1 5607   6.031   5.688   0.671
 1881TIP3    H2 5608   5.910   5.632   0.599
 1882TIP3   OH2 5609   6.857  -0.001   3.127
 1882TIP3    H1 5610   6.951  -0.015   3.117
 1882TIP3    H2 5611   6.826   0.016   3.038
 1883TIP3   OH2 5612   5.341   2.417   3.591
 1883TIP3    H1 5613   5.274   2.452   3.651
 1883TIP3    H2 5614   5.296   2.412   3.507
 1884TIP3   OH2 5615   4.254   2.440   0.975
 1884TIP3    H1 5616   4.248   2.510   1.040
 1884TIP3    H2 5617   4.279   2.484   0.894
 1885TIP3   OH2 5618   4.467   3.047   1.430
 1885TIP3    H1 5619   4.388   3.002   1.460
 1885TIP3    H2 5620   4.498   3.095   1.507
 1886TIP3   OH2 5621   1.366   0.481   2.251
 1886TIP3    H1 5622   1.433   0.501   2.317
 1886TIP3    H2 5623   1.355   0.386   2.257
 1887TIP3   OH2 5624   6.838   0.020   2.120
 1887TIP3    H1 5625   6.804   0.101   2.156
 1887TIP3    H2 5626   6.902   0.048   2.055
 1888TIP3   OH2 5627   4.374   5.250   4.798
 1888TIP3    H1 5628   4.413   5.331   4.832
 1888TIP3    H2 5629   4.354   5.270   4.706
 1889TIP3   OH2 5630   6.182   2.839   4.428
 1889TIP3    H1 5631   6.221   2.805   4.348
 1889TIP3    H2 5632   6.148   2.925   4.403
 1890TIP3   OH2 5633   3.699   0.797   4.482
 1890TIP3    H1 5634   3.738   0.865   4.427
 1890TIP3    H2 5635   3.608   0.826   4.493
 1891TIP3   OH2 5636   4.473   4.912   2.104
 1891TIP3    H1 5637   4.477   4.997   2.148
 1891TIP3    H2 5638   4.542   4.860   2.146
 1892TIP3   OH2 5639   5.365   3.173   0.287
 1892TIP3    H1 5640   5.452   3.134   0.279
 1892TIP3    H2 5641   5.306   3.098   0.285
 1893TIP3   OH2 5642   5.056   6.038   0.576
 1893TIP3    H1 5643   5.106   6.084   0.509
 1893TIP3    H2 5644   5.041   5.951   0.540
 1894TIP3   OH2 5645   5.024   6.318   3.963
 1894TIP3    H1 5646   5.085   6.255   4.003
 1894TIP3    H2 5647   5.080   6.380   3.917
 1895TIP3   OH2 5648   4.109   1.309   2.837
 1895TIP3    H1 5649   4.146   1.237   2.785
 1895TIP3    H2 5650   4.060   1.266   2.906
 1896TIP3   OH2 5651   3.753   5.169   4.289
 1896TIP3    H1 5652   3.748   5.242   4.227
 1896TIP3    H2 5653   3.791   5.097   4.239
 1897TIP3   OH2 5654   5.014   0.800   1.879
 1897TIP3    H1 5655   4.989   0.798   1.972
 1897TIP3    H2 5656   5.109   0.797   1.880
 1898TIP3   OH2 5657   2.843   0.403   5.634
 1898TIP3    H1 5658   2.777   0.334   5.625
 1898TIP3    H2 5659   2.813   0.455   5.709
 1899TIP3   OH2 5660   4.368   2.496   4.453
 1899TIP3    H1 5661   4.358   2.409   4.493
 1899TIP3    H2 5662   4.361   2.480   4.359
 1900TIP3   OH2 5663   5.000   3.532   5.104
 1900TIP3    H1 5664   4.921   3.477   5.103
 1900TIP3    H2 5665   5.016   3.548   5.197
 1901TIP3   OH2 5666   2.342   5.010   4.398
 1901TIP3    H1 5667   2.256   5.045   4.372
 1901TIP3    H2 5668   2.324   4.951   4.470
 1902TIP3   OH2 5669   4.021   0.063   2.844
 1902TIP3    H1 5670   4.011   0.069   2.749
 1902TIP3    H2 5671   4.113   0.040   2.856
 1903TIP3   OH2 5672   0.414   0.930   1.327
 1903TIP3    H1 5673   0.461   0.929   1.411
 1903TIP3    H2 5674   0.471   0.882   1.267
 1904TIP3   OH2 5675   3.032   0.300   3.317
 1904TIP3    H1 5676   3.019   0.355   3.240
 1904TIP3    H2 5677   2.961   0.237   3.315
 1905TIP3   OH2 5678   0.198   3.577   5.650
 1905TIP3    H1 5679   0.131   3.600   5.585
 1905TIP3    H2 5680   0.148   3.558   5.730
 1906TIP3   OH2 5681   0.278   4.286   0.230
 1906TIP3    H1 5682   0.243   4.261   0.316
 1906TIP3    H2 5683   0.238   4.371   0.212
 1907TIP3   OH2 5684   2.376   2.053   0.165
 1907TIP3    H1 5685   2.457   2.021   0.125
 1907TIP3    H2 5686   2.395   2.143   0.189
 1908TIP3   OH2 5687   2.377   4.665   0.591
 1908TIP3    H1 5688   2.407   4.702   0.508
 1908TIP3    H2 5689   2.309   4.725   0.621
 1909TIP3   OH2 5690   2.982   0.365   0.921
 1909TIP3    H1 5691   2.956   0.451   0.888
 1909TIP3    H2 5692   2.906   0.309   0.905
 1910TIP3   OH2 5693   4.056   0.937   3.115
 1910TIP3    H1 5694   4.122   0.889   3.165
 1910TIP3    H2 5695   3.980   0.939   3.172
 1911TIP3   OH2 5696   7.105   6.723   5.734
 1911TIP3    H1 5697   7.116   6.653   5.670
 1911TIP3    H2 5698   7.159   6.696   5.809
 1912TIP3   OH2 5699   0.586   0.153   4.069
 1912TIP3    H1 5700   0.555   0.196   4.148
 1912TIP3    H2 5701   0.675   0.186   4.057
 1913TIP3   OH2 5702   5.421   0.052   4.359
 1913TIP3    H1 5703   5.397  -0.037   4.337
 1913TIP3    H2 5704   5.495   0.073   4.301
 1914TIP3   OH2 5705   5.471   2.880   4.687
 1914TIP3    H1 5706   5.432   2.966   4.670
 1914TIP3    H2 5707   5.396   2.820   4.690
 1915TIP3   OH2 5708   4.028   4.520   4.360
 1915TIP3    H1 5709   4.108   4.476   4.330
 1915TIP3    H2 5710   4.058   4.581   4.428
 1916TIP3   OH2 5711   5.073   3.810   2.449
 1916TIP3    H1 5712   4.989   3.766   2.462
 1916TIP3    H2 5713   5.052   3.886   2.395
 1917TIP3   OH2 5714   2.727   5.032   0.707
 1917TIP3    H1 5715   2.641   4.995   0.687
 1917TIP3    H2 5716   2.708   5.109   0.759
 1918TIP3   OH2 5717   5.805   4.666   4.387
 1918TIP3    H1 5718   5.896   4.647   4.362
 1918TIP3    H2 5719   5.785   4.748   4.343
 1919TIP3   OH2 5720   0.848   3.891   0.555
 1919TIP3    H1 5721   0.824   3.799   0.544
 1919TIP3    H2 5722   0.783   3.926   0.617
 1920TIP3   OH2 5723   3.078   6.584   1.025
 1920TIP3    H1 5724   3.067   6.614   0.935
 1920TIP3    H2 5725   3.121   6.657   1.069
 1921TIP3   OH2 5726   4.684   5.790   2.008
 1921TIP3    H1 5727   4.664   5.804   1.915
 1921TIP3    H2 5728   4.776   5.767   2.009
 1922TIP3   OH2 5729   0.752   3.370   0.104
 1922TIP3    H1 5730   0.753   3.339   0.013
 1922TIP3    H2 5731   0.832   3.333   0.142
 1923TIP3   OH2 5732   6.612   4.850   4.821
 1923TIP3    H1 5733   6.671   4.781   4.789
 1923TIP3    H2 5734   6.528   4.830   4.779
 1924TIP3   OH2 5735   3.426   1.731   1.685
 1924TIP3    H1 5736   3.518   1.741   1.658
 1924TIP3    H2 5737   3.418   1.786   1.763
 1925TIP3   OH2 5738   3.184   0.136   4.019
 1925TIP3    H1 5739   3.218   0.225   4.023
 1925TIP3    H2 5740   3.227   0.090   4.091
 1926TIP3   OH2 5741   4.358   4.129   0.054
 1926TIP3    H1 5742   4.322   4.139   0.143
 1926TIP3    H2 5743   4.340   4.037   0.032
 1927TIP3   OH2 5744   4.206   6.227   3.560
 1927TIP3    H1 5745   4.162   6.147   3.588
 1927TIP3    H2 5746   4.151   6.261   3.489
 1928TIP3   OH2 5747   4.549   0.888   4.097
 1928TIP3    H1 5748   4.458   0.911   4.078
 1928TIP3    H2 5749   4.561   0.804   4.053
 1929TIP3   OH2 5750   2.461   0.072   0.890
 1929TIP3    H1 5751   2.436   0.080   0.798
 1929TIP3    H2 5752   2.497   0.158   0.913
 1930TIP3   OH2 5753   0.581   3.644   3.625
 1930TIP3    H1 5754   0.615   3.582   3.560
 1930TIP3    H2 5755   0.636   3.721   3.616
 1931TIP3   OH2 5756   4.521   1.836   3.219
 1931TIP3    H1 5757   4.599   1.891   3.224
 1931TIP3    H2 5758   4.555   1.746   3.217
 1932TIP3   OH2 5759   3.444   5.966   0.710
 1932TIP3    H1 5760   3.539   5.979   0.714
 1932TIP3    H2 5761   3.433   5.871   0.707
 1933TIP3   OH2 5762   1.253   1.348   5.557
 1933TIP3    H1 5763   1.237   1.263   5.598
 1933TIP3    H2 5764   1.315   1.392   5.615
 1934TIP3   OH2 5765   0.345   0.229   5.169
 1934TIP3    H1 5766   0.336   0.315   5.210
 1934TIP3    H2 5767   0.388   0.248   5.085
 1935TIP3   OH2 5768   0.211   3.909   2.368
 1935TIP3    H1 5769   0.187   3.979   2.307
 1935TIP3    H2 5770   0.192   3.946   2.454
 1936TIP3   OH2 5771   1.144   5.724   0.760
 1936TIP3    H1 5772   1.130   5.761   0.847
 1936TIP3    H2 5773   1.067   5.751   0.710
 1937TIP3   OH2 5774   3.170   3.743   1.757
 1937TIP3    H1 5775   3.136   3.733   1.845
 1937TIP3    H2 5776   3.160   3.836   1.737
 1938TIP3   OH2 5777   4.323   1.076   3.028
 1938TIP3    H1 5778   4.240   1.081   3.075
 1938TIP3    H2 5779   4.303   1.111   2.941
 1939TIP3   OH2 5780   1.492   0.863   1.439
 1939TIP3    H1 5781   1.549   0.790   1.459
 1939TIP3    H2 5782   1.507   0.881   1.346
 1940TIP3   OH2 5783   4.809   4.881   4.645
 1940TIP3    H1 5784   4.780   4.797   4.681
 1940TIP3    H2 5785   4.745   4.901   4.576
 1941TIP3   OH2 5786   6.960   3.788   0.297
 1941TIP3    H1 5787   6.961   3.788   0.202
 1941TIP3    H2 5788   6.872   3.759   0.321
 1942TIP3   OH2 5789   5.996   2.457   3.089
 1942TIP3    H1 5790   5.990   2.468   2.994
 1942TIP3    H2 5791   5.991   2.546   3.124
 1943TIP3   OH2 5792   7.186   4.296   1.504
 1943TIP3    H1 5793   7.206   4.358   1.574
 1943TIP3    H2 5794   7.262   4.300   1.446
 1944TIP3   OH2 5795   1.124   4.492   0.059
 1944TIP3    H1 5796   1.121   4.465  -0.033
 1944TIP3    H2 5797   1.200   4.446   0.095
 1945TIP3   OH2 5798   2.736   0.322   3.858
 1945TIP3    H1 5799   2.805   0.313   3.792
 1945TIP3    H2 5800   2.720   0.416   3.862
 1946TIP3   OH2 5801   5.964   0.544   2.381
 1946TIP3    H1 5802   5.935   0.505   2.298
 1946TIP3    H2 5803   5.917   0.495   2.448
 1947TIP3   OH2 5804   0.553   1.886   2.888
 1947TIP3    H1 5805   0.467   1.887   2.930
 1947TIP3    H2 5806   0.534   1.898   2.794
 1948TIP3   OH2 5807   1.056   2.048   3.942
 1948TIP3    H1 5808   1.045   2.114   4.011
 1948TIP3    H2 5809   1.051   2.098   3.861
 1949TIP3   OH2 5810   3.323   0.363   3.403
 1949TIP3    H1 5811   3.243   0.352   3.351
 1949TIP3    H2 5812   3.331   0.281   3.452
 1950TIP3   OH2 5813   4.435   3.850   2.610
 1950TIP3    H1 5814   4.427   3.884   2.699
 1950TIP3    H2 5815   4.501   3.906   2.569
 1951TIP3   OH2 5816   5.512   2.573   2.413
 1951TIP3    H1 5817   5.524   2.478   2.418
 1951TIP3    H2 5818   5.510   2.592   2.319
 1952TIP3   OH2 5819   6.464   2.905   2.870
 1952TIP3    H1 5820   6.397   2.838   2.863
 1952TIP3    H2 5821   6.547   2.859   2.857
 1953TIP3   OH2 5822   6.213   0.684   4.686
 1953TIP3    H1 5823   6.307   0.703   4.689
 1953TIP3    H2 5824   6.177   0.729   4.762
 1954TIP3   OH2 5825   2.361   4.321   0.062
 1954TIP3    H1 5826   2.455   4.336   0.057
 1954TIP3    H2 5827   2.338   4.344   0.152
 1955TIP3   OH2 5828   1.310   0.019   2.881
 1955TIP3    H1 5829   1.354  -0.004   2.963
 1955TIP3    H2 5830   1.299   0.114   2.886
 1956TIP3   OH2 5831   5.930   4.635   2.487
 1956TIP3    H1 5832   5.970   4.722   2.484
 1956TIP3    H2 5833   5.997   4.576   2.452
 1957TIP3   OH2 5834   5.754   5.409   2.139
 1957TIP3    H1 5835   5.715   5.360   2.067
 1957TIP3    H2 5836   5.821   5.463   2.098
 1958TIP3   OH2 5837   2.074   4.314   5.137
 1958TIP3    H1 5838   2.058   4.409   5.135
 1958TIP3    H2 5839   1.997   4.278   5.181
 1959TIP3   OH2 5840   3.250   0.455   4.310
 1959TIP3    H1 5841   3.237   0.526   4.373
 1959TIP3    H2 5842   3.211   0.378   4.351
 1960TIP3   OH2 5843   1.591   5.085   3.964
 1960TIP3    H1 5844   1.520   5.029   3.995
 1960TIP3    H2 5845   1.560   5.174   3.980
 1961TIP3   OH2 5846   0.090   0.534   3.829
 1961TIP3    H1 5847   0.077   0.531   3.734
 1961TIP3    H2 5848   0.124   0.621   3.846
 1962TIP3   OH2 5849   6.556   6.027   2.486
 1962TIP3    H1 5850   6.592   6.075   2.560
 1962TIP3    H2 5851   6.620   5.958   2.468
 1963TIP3   OH2 5852   2.176   0.509   1.550
 1963TIP3    H1 5853   2.157   0.461   1.469
 1963TIP3    H2 5854   2.252   0.465   1.587
 1964TIP3   OH2 5855   1.007   4.902   0.468
 1964TIP3    H1 5856   1.070   4.973   0.453
 1964TIP3    H2 5857   1.058   4.833   0.510
 1965TIP3   OH2 5858   5.686   3.305   2.172
 1965TIP3    H1 5859   5.750   3.241   2.204
 1965TIP3    H2 5860   5.725   3.390   2.192
 1966TIP3   OH2 5861   3.260   5.833   5.139
 1966TIP3    H1 5862   3.206   5.756   5.158
 1966TIP3    H2 5863   3.217   5.875   5.065
 1967TIP3   OH2 5864   3.312   5.634   5.517
 1967TIP3    H1 5865   3.348   5.683   5.443
 1967TIP3    H2 5866   3.261   5.564   5.477
 1968TIP3   OH2 5867   4.260   2.221   2.763
 1968TIP3    H1 5868   4.337   2.276   2.773
 1968TIP3    H2 5869   4.191   2.268   2.809
 1969TIP3   OH2 5870   4.266   6.608   5.192
 1969TIP3    H1 5871   4.328   6.621   5.120
 1969TIP3    H2 5872   4.302   6.536   5.243
 1970TIP3   OH2 5873   4.369   5.817   5.536
 1970TIP3    H1 5874   4.416   5.764   5.471
 1970TIP3    H2 5875   4.286   5.839   5.493
 1971TIP3   OH2 5876   4.204   5.513   1.864
 1971TIP3    H1 5877   4.243   5.568   1.797
 1971TIP3    H2 5878   4.206   5.567   1.943
 1972TIP3   OH2 5879   6.034   6.610   0.680
 1972TIP3    H1 5880   5.957   6.616   0.735
 1972TIP3    H2 5881   6.069   6.699   0.678
 1973TIP3   OH2 5882   3.814   2.685   2.188
 1973TIP3    H1 5883   3.840   2.771   2.157
 1973TIP3    H2 5884   3.725   2.697   2.220
 1974TIP3   OH2 5885   2.713   1.863   4.794
 1974TIP3    H1 5886   2.653   1.935   4.816
 1974TIP3    H2 5887   2.741   1.829   4.879
 1975TIP3   OH2 5888   3.208   4.768   4.243
 1975TIP3    H1 5889   3.178   4.848   4.285
 1975TIP3    H2 5890   3.128   4.720   4.221
 1976TIP3   OH2 5891   0.241   3.583   5.122
 1976TIP3    H1 5892   0.180   3.533   5.177
 1976TIP3    H2 5893   0.274   3.520   5.059
 1977TIP3   OH2 5894   5.370   4.817   3.676
 1977TIP3    H1 5895   5.368   4.827   3.580
 1977TIP3    H2 5896   5.344   4.903   3.709
 1978TIP3   OH2 5897   0.595   5.792   0.604
 1978TIP3    H1 5898   0.589   5.753   0.516
 1978TIP3    H2 5899   0.514   5.765   0.647
 1979TIP3   OH2 5900   2.713   3.652   4.274
 1979TIP3    H1 5901   2.676   3.687   4.194
 1979TIP3    H2 5902   2.806   3.674   4.270
 1980TIP3   OH2 5903   0.812   2.593   1.033
 1980TIP3    H1 5904   0.889   2.636   0.995
 1980TIP3    H2 5905   0.847   2.538   1.104
 1981TIP3   OH2 5906   6.625   6.510   5.624
 1981TIP3    H1 5907   6.548   6.567   5.618
 1981TIP3    H2 5908   6.695   6.567   5.655
 1982TIP3   OH2 5909   0.449   5.925   3.160
 1982TIP3    H1 5910   0.377   5.908   3.099
 1982TIP3    H2 5911   0.485   6.009   3.131
 1983TIP3   OH2 5912   4.395   0.923   5.575
 1983TIP3    H1 5913   4.312   0.875   5.566
 1983TIP3    H2 5914   4.403   0.939   5.669
 1984TIP3   OH2 5915   3.863   4.824   2.141
 1984TIP3    H1 5916   3.875   4.738   2.181
 1984TIP3    H2 5917   3.922   4.825   2.066
 1985TIP3   OH2 5918   1.827   2.655   0.414
 1985TIP3    H1 5919   1.827   2.594   0.340
 1985TIP3    H2 5920   1.737   2.685   0.420
 1986TIP3   OH2 5921   1.750   4.593   1.299
 1986TIP3    H1 5922   1.834   4.546   1.294
 1986TIP3    H2 5923   1.735   4.604   1.393
 1987TIP3   OH2 5924   1.597   4.779   5.199
 1987TIP3    H1 5925   1.621   4.704   5.144
 1987TIP3    H2 5926   1.678   4.830   5.205
 1988TIP3   OH2 5927   0.212   0.835   5.305
 1988TIP3    H1 5928   0.205   0.845   5.400
 1988TIP3    H2 5929   0.264   0.910   5.277
 1989TIP3   OH2 5930   5.145   1.446   4.903
 1989TIP3    H1 5931   5.234   1.475   4.884
 1989TIP3    H2 5932   5.090   1.521   4.882
 1990TIP3   OH2 5933   5.881   3.918   5.691
 1990TIP3    H1 5934   5.883   3.858   5.617
 1990TIP3    H2 5935   5.850   4.001   5.654
 1991TIP3   OH2 5936   4.012   4.167   1.158
 1991TIP3    H1 5937   4.025   4.248   1.207
 1991TIP3    H2 5938   4.050   4.099   1.215
 1992TIP3   OH2 5939   5.279   5.475   0.355
 1992TIP3    H1 5940   5.368   5.453   0.382
 1992TIP3    H2 5941   5.291   5.531   0.278
 1993TIP3   OH2 5942   4.858   4.608   0.728
 1993TIP3    H1 5943   4.823   4.582   0.642
 1993TIP3    H2 5944   4.868   4.703   0.722
 1994TIP3   OH2 5945   4.339   4.953   3.003
 1994TIP3    H1 5946   4.407   4.895   3.035
 1994TIP3    H2 5947   4.282   4.897   2.951
 1995TIP3   OH2 5948   3.538   4.364   2.370
 1995TIP3    H1 5949   3.586   4.436   2.411
 1995TIP3    H2 5950   3.446   4.384   2.386
 1996TIP3   OH2 5951   4.802   3.162   1.823
 1996TIP3    H1 5952   4.793   3.224   1.895
 1996TIP3    H2 5953   4.716   3.163   1.781
 1997TIP3   OH2 5954   2.384   0.607   2.226
 1997TIP3    H1 5955   2.308   0.565   2.186
 1997TIP3    H2 5956   2.375   0.700   2.204
 1998TIP3   OH2 5957   0.610   5.050   5.681
 1998TIP3    H1 5958   0.694   5.058   5.726
 1998TIP3    H2 5959   0.587   5.140   5.658
 1999TIP3   OH2 5960   4.411   0.953   1.106
 1999TIP3    H1 5961   4.419   0.863   1.138
 1999TIP3    H2 5962   4.488   0.998   1.143
 2000TIP3   OH2 5963   3.518   3.404   3.431
 2000TIP3    H1 5964   3.587   3.427   3.368
 2000TIP3    H2 5965   3.437   3.413   3.381
 2001TIP3   OH2 5966   2.696   0.253   3.084
 2001TIP3    H1 5967   2.682   0.339   3.122
 2001TIP3    H2 5968   2.666   0.192   3.152
 2002TIP3   OH2 5969   2.031   3.913   0.724
 2002TIP3    H1 5970   2.021   4.007   0.739
 2002TIP3    H2 5971   2.070   3.907   0.637
 2003TIP3   OH2 5972   7.067   6.621   0.911
 2003TIP3    H1 5973   7.059   6.669   0.993
 2003TIP3    H2 5974   7.075   6.689   0.844
 2004TIP3   OH2 5975   4.009   1.511   3.594
 2004TIP3    H1 5976   4.015   1.544   3.505
 2004TIP3    H2 5977   3.917   1.520   3.617
 2005TIP3   OH2 5978   0.290   1.109   1.690
 2005TIP3    H1 5979   0.366   1.165   1.673
 2005TIP3    H2 5980   0.325   1.020   1.684
 2006TIP3   OH2 5981   1.782   0.904   3.340
 2006TIP3    H1 5982   1.872   0.922   3.369
 2006TIP3    H2 5983   1.728   0.919   3.418
 2007TIP3   OH2 5984   1.030   5.086   4.530
 2007TIP3    H1 5985   0.944   5.101   4.570
 2007TIP3    H2 5986   1.089   5.074   4.604
 2008TIP3   OH2 5987   5.543   3.834   0.429
 2008TIP3    H1 5988   5.462   3.884   0.430
 2008TIP3    H2 5989   5.528   3.762   0.490
 2009TIP3   OH2 5990   6.420   6.211   3.376
 2009TIP3    H1 5991   6.512   6.207   3.352
 2009TIP3    H2 5992   6.409   6.141   3.440
 2010TIP3   OH2 5993   1.526   3.343   5.047
 2010TIP3    H1 5994   1.486   3.413   4.996
 2010TIP3    H2 5995   1.614   3.375   5.066
 2011TIP3   OH2 5996   1.114   4.677   1.668
 2011TIP3    H1 5997   1.207   4.658   1.652
 2011TIP3    H2 5998   1.068   4.622   1.605
 2012TIP3   OH2 5999   3.436   3.941   4.688
 2012TIP3    H1 6000   3.421   4.036   4.687
 2012TIP3    H2 6001   3.511   3.929   4.746
 2013TIP3   OH2 6002   2.318   4.850   4.622
 2013TIP3    H1 6003   2.238   4.802   4.643
 2013TIP3    H2 6004   2.386   4.782   4.619
 2014TIP3   OH2 6005   2.227   0.299   5.621
 2014TIP3    H1 6006   2.182   0.379   5.647
 2014TIP3    H2 6007   2.159   0.244   5.582
 2015TIP3   OH2 6008   2.347   4.205   5.631
 2015TIP3    H1 6009   2.415   4.256   5.587
 2015TIP3    H2 6010   2.320   4.141   5.565
 2016TIP3   OH2 6011   5.520   3.011   1.861
 2016TIP3    H1 6012   5.517   2.922   1.895
 2016TIP3    H2 6013   5.488   3.066   1.932
 2017TIP3   OH2 6014   6.024   1.181   0.124
 2017TIP3    H1 6015   6.108   1.135   0.130
 2017TIP3    H2 6016   6.030   1.251   0.188
 2018TIP3   OH2 6017   0.176   0.092   4.138
 2018TIP3    H1 6018   0.152   0.152   4.068
 2018TIP3    H2 6019   0.174   0.145   4.217
 2019TIP3   OH2 6020   3.595   4.103   3.677
 2019TIP3    H1 6021   3.628   4.135   3.593
 2019TIP3    H2 6022   3.551   4.020   3.656
 2020TIP3   OH2 6023   0.009   1.158   2.125
 2020TIP3    H1 6024   0.099   1.135   2.145
 2020TIP3    H2 6025   0.000   1.248   2.157
 2021TIP3   OH2 6026   6.791   3.310   4.073
 2021TIP3    H1 6027   6.746   3.392   4.050
 2021TIP3    H2 6028   6.789   3.259   3.992
 2022TIP3   OH2 6029   3.570   3.035   1.609
 2022TIP3    H1 6030   3.635   3.006   1.673
 2022TIP3    H2 6031   3.565   3.130   1.621
 2023TIP3   OH2 6032   3.145   3.315   1.101
 2023TIP3    H1 6033   3.073   3.253   1.085
 2023TIP3    H2 6034   3.110   3.400   1.076
 2024TIP3   OH2 6035   1.406   2.366   2.879
 2024TIP3    H1 6036   1.374   2.345   2.791
 2024TIP3    H2 6037   1.488   2.317   2.886
 2025TIP3   OH2 6038   1.291   2.664   0.559
 2025TIP3    H1 6039   1.267   2.748   0.596
 2025TIP3    H2 6040   1.227   2.649   0.490
 2026TIP3   OH2 6041   2.203   5.241   3.809
 2026TIP3    H1 6042   2.178   5.220   3.719
 2026TIP3    H2 6043   2.299   5.240   3.807
 2027TIP3   OH2 6044   1.868   0.995   5.438
 2027TIP3    H1 6045   1.843   0.953   5.520
 2027TIP3    H2 6046   1.935   1.059   5.462
 2028TIP3   OH2 6047   2.578   6.626   4.946
 2028TIP3    H1 6048   2.511   6.694   4.958
 2028TIP3    H2 6049   2.537   6.562   4.889
 2029TIP3   OH2 6050   3.560   0.138   0.362
 2029TIP3    H1 6051   3.592   0.177   0.443
 2029TIP3    H2 6052   3.537   0.213   0.307
 2030TIP3   OH2 6053   3.627   0.240   1.860
 2030TIP3    H1 6054   3.696   0.215   1.798
 2030TIP3    H2 6055   3.663   0.218   1.946
 2031TIP3   OH2 6056   0.224   0.663   3.299
 2031TIP3    H1 6057   0.214   0.668   3.204
 2031TIP3    H2 6058   0.135   0.670   3.333
 2032TIP3   OH2 6059   3.664   6.023   0.854
 2032TIP3    H1 6060   3.623   6.101   0.890
 2032TIP3    H2 6061   3.728   6.056   0.791
 2033TIP3   OH2 6062   4.663   1.532   5.120
 2033TIP3    H1 6063   4.688   1.461   5.060
 2033TIP3    H2 6064   4.581   1.502   5.159
 2034TIP3   OH2 6065   4.300   5.841   1.420
 2034TIP3    H1 6066   4.309   5.898   1.497
 2034TIP3    H2 6067   4.327   5.755   1.451
 2035TIP3   OH2 6068   5.926   1.292   4.410
 2035TIP3    H1 6069   5.855   1.316   4.469
 2035TIP3    H2 6070   5.946   1.373   4.363
 2036TIP3   OH2 6071   3.596   4.332   0.680
 2036TIP3    H1 6072   3.672   4.375   0.718
 2036TIP3    H2 6073   3.577   4.381   0.600
 2037TIP3   OH2 6074   2.217   3.355   1.430
 2037TIP3    H1 6075   2.263   3.273   1.415
 2037TIP3    H2 6076   2.279   3.409   1.479
 2038TIP3   OH2 6077   5.595   6.654   5.012
 2038TIP3    H1 6078   5.652   6.602   5.069
 2038TIP3    H2 6079   5.647   6.667   4.933
 2039TIP3   OH2 6080   2.411   0.143   3.057
 2039TIP3    H1 6081   2.471   0.216   3.051
 2039TIP3    H2 6082   2.458   0.077   3.108
 2040TIP3   OH2 6083   6.422   0.534   4.234
 2040TIP3    H1 6084   6.342   0.570   4.271
 2040TIP3    H2 6085   6.473   0.610   4.206
 2041TIP3   OH2 6086   2.148   2.603   0.113
 2041TIP3    H1 6087   2.218   2.576   0.171
 2041TIP3    H2 6088   2.105   2.521   0.087
 2042TIP3   OH2 6089   5.643   5.836   1.862
 2042TIP3    H1 6090   5.591   5.892   1.920
 2042TIP3    H2 6091   5.599   5.842   1.777
 2043TIP3   OH2 6092   0.741   3.386   2.312
 2043TIP3    H1 6093   0.736   3.291   2.319
 2043TIP3    H2 6094   0.666   3.418   2.363
 2044TIP3   OH2 6095   2.329   0.168   5.831
 2044TIP3    H1 6096   2.290   0.226   5.765
 2044TIP3    H2 6097   2.312   0.080   5.798
 2045TIP3   OH2 6098   7.084   6.062   3.327
 2045TIP3    H1 6099   7.045   6.121   3.262
 2045TIP3    H2 6100   7.047   5.976   3.306
 2046TIP3   OH2 6101   1.357   2.642   5.324
 2046TIP3    H1 6102   1.346   2.561   5.374
 2046TIP3    H2 6103   1.440   2.629   5.277
 2047TIP3   OH2 6104   6.987   3.321   5.388
 2047TIP3    H1 6105   6.906   3.328   5.439
 2047TIP3    H2 6106   6.974   3.382   5.315
 2048TIP3   OH2 6107   2.869   3.379   1.203
 2048TIP3    H1 6108   2.942   3.354   1.259
 2048TIP3    H2 6109   2.843   3.297   1.160
 2049TIP3   OH2 6110   5.424   1.954   3.956
 2049TIP3    H1 6111   5.399   1.864   3.975
 2049TIP3    H2 6112   5.499   1.970   4.014
 2050TIP3   OH2 6113   4.636   0.126   5.873
 2050TIP3    H1 6114   4.671   0.077   5.947
 2050TIP3    H2 6115   4.557   0.079   5.847
 2051TIP3   OH2 6116   2.478   0.470   1.609
 2051TIP3    H1 6117   2.445   0.426   1.687
 2051TIP3    H2 6118   2.555   0.518   1.639
 2052TIP3   OH2 6119   3.831   4.796   4.721
 2052TIP3    H1 6120   3.757   4.855   4.739
 2052TIP3    H2 6121   3.879   4.793   4.804
 2053TIP3   OH2 6122   5.628   2.129   5.267
 2053TIP3    H1 6123   5.636   2.082   5.349
 2053TIP3    H2 6124   5.609   2.219   5.292
 2054TIP3   OH2 6125   1.960   1.598   5.748
 2054TIP3    H1 6126   1.993   1.543   5.677
 2054TIP3    H2 6127   1.999   1.684   5.733
 2055TIP3   OH2 6128   1.184   1.338   2.121
 2055TIP3    H1 6129   1.114   1.284   2.086
 2055TIP3    H2 6130   1.241   1.356   2.046
 2056TIP3   OH2 6131   2.703   2.957   4.792
 2056TIP3    H1 6132   2.666   2.870   4.777
 2056TIP3    H2 6133   2.632   3.018   4.772
 2057TIP3   OH2 6134   2.454   6.618   2.801
 2057TIP3    H1 6135   2.430   6.645   2.712
 2057TIP3    H2 6136   2.546   6.643   2.810
 2058TIP3   OH2 6137   5.530   6.212   0.631
 2058TIP3    H1 6138   5.563   6.302   0.629
 2058TIP3    H2 6139   5.562   6.177   0.714
 2059TIP3   OH2 6140   2.216   1.531   3.069
 2059TIP3    H1 6141   2.128   1.551   3.100
 2059TIP3    H2 6142   2.262   1.616   3.069
 2060TIP3   OH2 6143   5.119   2.634   5.149
 2060TIP3    H1 6144   5.178   2.598   5.216
 2060TIP3    H2 6145   5.038   2.650   5.196
 2061TIP3   OH2 6146   6.084   5.014   3.288
 2061TIP3    H1 6147   6.175   5.043   3.289
 2061TIP3    H2 6148   6.080   4.945   3.355
 2062TIP3   OH2 6149   1.779   5.066   1.211
 2062TIP3    H1 6150   1.704   5.124   1.222
 2062TIP3    H2 6151   1.784   5.052   1.116
 2063TIP3   OH2 6152   1.773   5.289   2.363
 2063TIP3    H1 6153   1.806   5.201   2.347
 2063TIP3    H2 6154   1.845   5.347   2.338
 2064TIP3   OH2 6155   1.839   0.309   4.857
 2064TIP3    H1 6156   1.912   0.349   4.811
 2064TIP3    H2 6157   1.764   0.324   4.799
 2065TIP3   OH2 6158   5.821   5.746   1.331
 2065TIP3    H1 6159   5.798   5.678   1.394
 2065TIP3    H2 6160   5.747   5.750   1.271
 2066TIP3   OH2 6161   0.239   5.863   4.879
 2066TIP3    H1 6162   0.316   5.834   4.831
 2066TIP3    H2 6163   0.267   5.944   4.922
 2067TIP3   OH2 6164   4.477   0.671   0.888
 2067TIP3    H1 6165   4.492   0.588   0.933
 2067TIP3    H2 6166   4.394   0.704   0.923
 2068TIP3   OH2 6167   3.921   0.589   2.388
 2068TIP3    H1 6168   3.962   0.569   2.472
 2068TIP3    H2 6169   3.894   0.681   2.396
 2069TIP3   OH2 6170   1.047   2.845   0.263
 2069TIP3    H1 6171   1.131   2.873   0.229
 2069TIP3    H2 6172   0.996   2.925   0.270
 2070TIP3   OH2 6173   1.659   1.429   0.735
 2070TIP3    H1 6174   1.747   1.390   0.735
 2070TIP3    H2 6175   1.673   1.519   0.766
 2071TIP3   OH2 6176   0.729   3.220   3.241
 2071TIP3    H1 6177   0.779   3.268   3.307
 2071TIP3    H2 6178   0.660   3.176   3.290
 2072TIP3   OH2 6179   3.045   1.091   1.993
 2072TIP3    H1 6180   3.013   1.180   2.009
 2072TIP3    H2 6181   2.969   1.034   2.009
 2073TIP3   OH2 6182   5.107   0.248   3.947
 2073TIP3    H1 6183   5.099   0.235   4.041
 2073TIP3    H2 6184   5.042   0.190   3.908
 2074TIP3   OH2 6185   4.309   1.632   4.547
 2074TIP3    H1 6186   4.285   1.578   4.471
 2074TIP3    H2 6187   4.236   1.692   4.558
 2075TIP3   OH2 6188   6.797   4.642   1.583
 2075TIP3    H1 6189   6.753   4.558   1.593
 2075TIP3    H2 6190   6.729   4.707   1.604
 2076TIP3   OH2 6191   4.964   4.411   3.999
 2076TIP3    H1 6192   5.031   4.437   4.062
 2076TIP3    H2 6193   4.988   4.322   3.974
 2077TIP3   OH2 6194   6.438   1.562   0.115
 2077TIP3    H1 6195   6.374   1.506   0.159
 2077TIP3    H2 6196   6.488   1.601   0.186
 2078TIP3   OH2 6197   0.965   1.726   0.891
 2078TIP3    H1 6198   0.994   1.662   0.955
 2078TIP3    H2 6199   0.986   1.686   0.806
 2079TIP3   OH2 6200   6.684   1.854   1.245
 2079TIP3    H1 6201   6.686   1.876   1.338
 2079TIP3    H2 6202   6.730   1.927   1.203
 2080TIP3   OH2 6203   0.747   5.992   3.103
 2080TIP3    H1 6204   0.762   6.010   3.196
 2080TIP3    H2 6205   0.809   6.048   3.058
 2081TIP3   OH2 6206   3.562   0.613   2.425
 2081TIP3    H1 6207   3.595   0.534   2.382
 2081TIP3    H2 6208   3.473   0.591   2.451
 2082TIP3   OH2 6209   4.932   2.282   2.459
 2082TIP3    H1 6210   4.906   2.270   2.367
 2082TIP3    H2 6211   4.954   2.193   2.488
 2083TIP3   OH2 6212   1.719   4.967   1.715
 2083TIP3    H1 6213   1.811   4.952   1.737
 2083TIP3    H2 6214   1.683   5.009   1.793
 2084TIP3   OH2 6215   2.485   5.308   5.569
 2084TIP3    H1 6216   2.460   5.326   5.660
 2084TIP3    H2 6217   2.434   5.370   5.517
 2085TIP3   OH2 6218   2.878   0.273   1.882
 2085TIP3    H1 6219   2.943   0.204   1.887
 2085TIP3    H2 6220   2.924   0.347   1.842
 2086TIP3   OH2 6221   4.660   3.575   1.897
 2086TIP3    H1 6222   4.707   3.590   1.815
 2086TIP3    H2 6223   4.658   3.660   1.940
 2087TIP3   OH2 6224   0.099   3.088   2.291
 2087TIP3    H1 6225   0.144   3.108   2.209
 2087TIP3    H2 6226   0.162   3.111   2.360
 2088TIP3   OH2 6227   3.444   4.730   0.429
 2088TIP3    H1 6228   3.356   4.723   0.394
 2088TIP3    H2 6229   3.498   4.753   0.353
 2089TIP3   OH2 6230   6.993   0.066   0.990
 2089TIP3    H1 6231   6.977   0.099   1.078
 2089TIP3    H2 6232   6.911   0.024   0.964
 2090TIP3   OH2 6233   4.802   5.558   3.999
 2090TIP3    H1 6234   4.733   5.508   3.954
 2090TIP3    H2 6235   4.871   5.568   3.934
 2091TIP3   OH2 6236   3.298   4.037   5.158
 2091TIP3    H1 6237   3.213   4.033   5.203
 2091TIP3    H2 6238   3.283   3.993   5.075
 2092TIP3   OH2 6239   5.558   0.240   3.736
 2092TIP3    H1 6240   5.612   0.293   3.795
 2092TIP3    H2 6241   5.491   0.301   3.704
 2093TIP3   OH2 6242   4.930   1.715   2.790
 2093TIP3    H1 6243   4.926   1.735   2.697
 2093TIP3    H2 6244   5.019   1.736   2.816
 2094TIP3   OH2 6245   2.979   2.557   0.465
 2094TIP3    H1 6246   3.017   2.591   0.547
 2094TIP3    H2 6247   2.967   2.464   0.482
 2095TIP3   OH2 6248   4.270   1.888   0.764
 2095TIP3    H1 6249   4.317   1.843   0.694
 2095TIP3    H2 6250   4.313   1.860   0.844
 2096TIP3   OH2 6251   0.660   6.436   5.731
 2096TIP3    H1 6252   0.704   6.351   5.726
 2096TIP3    H2 6253   0.700   6.488   5.662
 2097TIP3   OH2 6254   4.716   3.505   0.202
 2097TIP3    H1 6255   4.647   3.441   0.217
 2097TIP3    H2 6256   4.710   3.525   0.109
 2098TIP3   OH2 6257   2.011   4.420   0.418
 2098TIP3    H1 6258   1.972   4.504   0.444
 2098TIP3    H2 6259   2.099   4.443   0.388
 2099TIP3   OH2 6260   5.696   1.482   0.797
 2099TIP3    H1 6261   5.600   1.487   0.802
 2099TIP3    H2 6262   5.725   1.572   0.814
 2100TIP3   OH2 6263   7.017   2.040   2.519
 2100TIP3    H1 6264   6.927   2.074   2.522
 2100TIP3    H2 6265   7.072   2.118   2.526
 2101TIP3   OH2 6266   0.713   5.162   5.102
 2101TIP3    H1 6267   0.709   5.172   5.197
 2101TIP3    H2 6268   0.627   5.188   5.071
 2102TIP3   OH2 6269   2.666   1.303   2.483
 2102TIP3    H1 6270   2.660   1.357   2.561
 2102TIP3    H2 6271   2.698   1.362   2.415
 2103TIP3   OH2 6272   0.316   3.793   2.828
 2103TIP3    H1 6273   0.352   3.718   2.780
 2103TIP3    H2 6274   0.360   3.869   2.790
 2104TIP3   OH2 6275   3.221   0.358   5.748
 2104TIP3    H1 6276   3.172   0.314   5.818
 2104TIP3    H2 6277   3.238   0.446   5.782
 2105TIP3   OH2 6278   2.565   2.375   4.118
 2105TIP3    H1 6279   2.500   2.347   4.182
 2105TIP3    H2 6280   2.560   2.310   4.048
 2106TIP3   OH2 6281   6.967   0.244   3.219
 2106TIP3    H1 6282   6.921   0.266   3.300
 2106TIP3    H2 6283   6.914   0.175   3.178
 2107TIP3   OH2 6284   2.701   2.665   0.386
 2107TIP3    H1 6285   2.791   2.635   0.403
 2107TIP3    H2 6286   2.685   2.639   0.295
 2108TIP3   OH2 6287   4.100   3.500   2.856
 2108TIP3    H1 6288   4.008   3.511   2.832
 2108TIP3    H2 6289   4.148   3.541   2.785
 2109TIP3   OH2 6290   6.207   3.163   5.288
 2109TIP3    H1 6291   6.242   3.222   5.221
 2109TIP3    H2 6292   6.122   3.201   5.311
 2110TIP3   OH2 6293   5.136   0.663   1.053
 2110TIP3    H1 6294   5.137   0.752   1.088
 2110TIP3    H2 6295   5.201   0.665   0.982
 2111TIP3   OH2 6296   1.102   0.730   4.574
 2111TIP3    H1 6297   1.019   0.687   4.596
 2111TIP3    H2 6298   1.116   0.709   4.482
 2112TIP3   OH2 6299   4.571   5.632   1.313
 2112TIP3    H1 6300   4.538   5.543   1.325
 2112TIP3    H2 6301   4.542   5.657   1.225
 2113TIP3   OH2 6302   3.748   5.642   0.869
 2113TIP3    H1 6303   3.774   5.672   0.782
 2113TIP3    H2 6304   3.762   5.717   0.927
 2114TIP3   OH2 6305   5.936   6.406   5.808
 2114TIP3    H1 6306   5.938   6.321   5.852
 2114TIP3    H2 6307   5.852   6.408   5.762
 2115TIP3   OH2 6308   0.843   3.959   4.003
 2115TIP3    H1 6309   0.886   3.989   3.923
 2115TIP3    H2 6310   0.874   4.019   4.071
 2116TIP3   OH2 6311   5.917   5.548   5.397
 2116TIP3    H1 6312   5.981   5.616   5.417
 2116TIP3    H2 6313   5.950   5.508   5.317
 2117TIP3   OH2 6314   3.588   2.422   1.935
 2117TIP3    H1 6315   3.510   2.380   1.898
 2117TIP3    H2 6316   3.558   2.508   1.962
 2118TIP3   OH2 6317   3.914   2.504   2.408
 2118TIP3    H1 6318   3.859   2.426   2.408
 2118TIP3    H2 6319   3.894   2.549   2.326
 2119TIP3   OH2 6320   5.777   2.226   0.177
 2119TIP3    H1 6321   5.796   2.215   0.270
 2119TIP3    H2 6322   5.692   2.184   0.165
 2120TIP3   OH2 6323   6.872   0.861   0.404
 2120TIP3    H1 6324   6.857   0.899   0.318
 2120TIP3    H2 6325   6.832   0.774   0.400
 2121TIP3   OH2 6326   2.897   6.359   3.464
 2121TIP3    H1 6327   2.967   6.309   3.421
 2121TIP3    H2 6328   2.941   6.438   3.496
 2122TIP3   OH2 6329   4.062   1.565   5.885
 2122TIP3    H1 6330   3.999   1.501   5.852
 2122TIP3    H2 6331   4.144   1.542   5.841
 2123TIP3   OH2 6332   0.035   5.806   3.783
 2123TIP3    H1 6333   0.101   5.840   3.844
 2123TIP3    H2 6334   0.030   5.872   3.714
 2124TIP3   OH2 6335   6.429   2.264   4.406
 2124TIP3    H1 6336   6.524   2.270   4.422
 2124TIP3    H2 6337   6.390   2.305   4.483
 2125TIP3   OH2 6338   2.078   5.981   4.565
 2125TIP3    H1 6339   1.984   5.990   4.550
 2125TIP3    H2 6340   2.119   6.021   4.488
 2126TIP3   OH2 6341   1.412   6.378   0.823
 2126TIP3    H1 6342   1.400   6.288   0.854
 2126TIP3    H2 6343   1.327   6.420   0.839
 2127TIP3   OH2 6344   4.906   1.756   5.711
 2127TIP3    H1 6345   4.953   1.787   5.634
 2127TIP3    H2 6346   4.962   1.781   5.785
 2128TIP3   OH2 6347   5.570   0.593   3.808
 2128TIP3    H1 6348   5.654   0.606   3.765
 2128TIP3    H2 6349   5.590   0.541   3.886
 2129TIP3   OH2 6350   5.030   3.301   4.847
 2129TIP3    H1 6351   5.026   3.298   4.943
 2129TIP3    H2 6352   4.940   3.289   4.819
 2130TIP3   OH2 6353   3.468   6.784   1.336
 2130TIP3    H1 6354   3.500   6.805   1.248
 2130TIP3    H2 6355   3.545   6.791   1.392
 2131TIP3   OH2 6356   0.298   6.690   2.619
 2131TIP3    H1 6357   0.231   6.737   2.669
 2131TIP3    H2 6358   0.250   6.621   2.573
 2132TIP3   OH2 6359   3.896   5.008   0.041
 2132TIP3    H1 6360   3.916   4.981   0.130
 2132TIP3    H2 6361   3.974   5.056   0.012
 2133TIP3   OH2 6362   6.004   0.314   1.371
 2133TIP3    H1 6363   6.063   0.243   1.398
 2133TIP3    H2 6364   5.927   0.269   1.335
 2134TIP3   OH2 6365   3.338   0.694   1.435
 2134TIP3    H1 6366   3.402   0.635   1.396
 2134TIP3    H2 6367   3.267   0.700   1.370
 2135TIP3   OH2 6368   1.086   6.489   5.494
 2135TIP3    H1 6369   1.004   6.531   5.517
 2135TIP3    H2 6370   1.065   6.395   5.489
 2136TIP3   OH2 6371   0.463   2.926   3.191
 2136TIP3    H1 6372   0.481   2.977   3.112
 2136TIP3    H2 6373   0.465   2.991   3.262
 2137TIP3   OH2 6374   2.472   3.676   2.855
 2137TIP3    H1 6375   2.396   3.727   2.828
 2137TIP3    H2 6376   2.526   3.737   2.904
 2138TIP3   OH2 6377   4.120   4.128   3.243
 2138TIP3    H1 6378   4.081   4.203   3.287
 2138TIP3    H2 6379   4.107   4.146   3.149
 2139TIP3   OH2 6380   4.745   5.168   3.965
 2139TIP3    H1 6381   4.673   5.231   3.958
 2139TIP3    H2 6382   4.745   5.142   4.058
 2140TIP3   OH2 6383   1.792   4.773   1.047
 2140TIP3    H1 6384   1.720   4.832   1.069
 2140TIP3    H2 6385   1.761   4.686   1.072
 2141TIP3   OH2 6386   1.461   2.765   5.605
 2141TIP3    H1 6387   1.393   2.740   5.544
 2141TIP3    H2 6388   1.498   2.846   5.569
 2142TIP3   OH2 6389   3.151   6.757   2.460
 2142TIP3    H1 6390   3.057   6.748   2.471
 2142TIP3    H2 6391   3.169   6.717   2.375
 2143TIP3   OH2 6392   3.979   4.712   4.121
 2143TIP3    H1 6393   3.959   4.655   4.195
 2143TIP3    H2 6394   3.969   4.801   4.156
 2144TIP3   OH2 6395   7.156   2.628   2.840
 2144TIP3    H1 6396   7.189   2.594   2.757
 2144TIP3    H2 6397   7.131   2.718   2.821
 2145TIP3   OH2 6398   3.962   1.641   1.581
 2145TIP3    H1 6399   3.960   1.548   1.605
 2145TIP3    H2 6400   3.886   1.653   1.524
 2146TIP3   OH2 6401   5.648   2.650   4.153
 2146TIP3    H1 6402   5.692   2.721   4.108
 2146TIP3    H2 6403   5.652   2.673   4.246
 2147TIP3   OH2 6404   3.816   6.677   4.680
 2147TIP3    H1 6405   3.798   6.719   4.765
 2147TIP3    H2 6406   3.907   6.647   4.686
 2148TIP3   OH2 6407   5.627   5.227   2.659
 2148TIP3    H1 6408   5.604   5.275   2.580
 2148TIP3    H2 6409   5.718   5.199   2.645
 2149TIP3   OH2 6410   6.660   3.128   0.174
 2149TIP3    H1 6411   6.645   3.080   0.093
 2149TIP3    H2 6412   6.593   3.196   0.174
 2150TIP3   OH2 6413   6.259   4.985   2.039
 2150TIP3    H1 6414   6.282   4.892   2.039
 2150TIP3    H2 6415   6.224   5.001   2.126
 2151TIP3   OH2 6416   5.945   0.082   3.884
 2151TIP3    H1 6417   5.970  -0.008   3.906
 2151TIP3    H2 6418   5.967   0.133   3.962
 2152TIP3   OH2 6419   6.362   0.704   1.665
 2152TIP3    H1 6420   6.287   0.646   1.653
 2152TIP3    H2 6421   6.342   0.752   1.745
 2153TIP3   OH2 6422   4.333   5.001   0.640
 2153TIP3    H1 6423   4.373   4.925   0.684
 2153TIP3    H2 6424   4.273   4.962   0.576
 2154TIP3   OH2 6425   4.811   3.339   5.144
 2154TIP3    H1 6426   4.752   3.375   5.210
 2154TIP3    H2 6427   4.753   3.297   5.080
 2155TIP3   OH2 6428   0.452   6.271   3.809
 2155TIP3    H1 6429   0.445   6.176   3.803
 2155TIP3    H2 6430   0.507   6.297   3.736
 2156TIP3   OH2 6431   0.229   5.685   2.800
 2156TIP3    H1 6432   0.234   5.591   2.782
 2156TIP3    H2 6433   0.139   5.709   2.777
 2157TIP3   OH2 6434   0.873   1.193   4.163
 2157TIP3    H1 6435   0.859   1.232   4.076
 2157TIP3    H2 6436   0.801   1.227   4.216
 2158TIP3   OH2 6437   1.415   5.139   1.739
 2158TIP3    H1 6438   1.384   5.057   1.700
 2158TIP3    H2 6439   1.408   5.124   1.834
 2159TIP3   OH2 6440   3.747   3.696   2.076
 2159TIP3    H1 6441   3.784   3.690   2.164
 2159TIP3    H2 6442   3.686   3.770   2.081
 2160TIP3   OH2 6443   2.235   4.004   1.274
 2160TIP3    H1 6444   2.153   3.957   1.286
 2160TIP3    H2 6445   2.223   4.053   1.193
 2161TIP3   OH2 6446   5.359   3.633   5.254
 2161TIP3    H1 6447   5.340   3.698   5.187
 2161TIP3    H2 6448   5.279   3.629   5.307
 2162TIP3   OH2 6449   4.254   1.320   1.018
 2162TIP3    H1 6450   4.199   1.386   0.976
 2162TIP3    H2 6451   4.264   1.252   0.951
 2163TIP3   OH2 6452   2.261   2.594   3.974
 2163TIP3    H1 6453   2.313   2.625   4.048
 2163TIP3    H2 6454   2.179   2.641   3.981
 2164TIP3   OH2 6455   6.570   0.956   1.732
 2164TIP3    H1 6456   6.495   0.901   1.752
 2164TIP3    H2 6457   6.565   1.028   1.795
 2165TIP3   OH2 6458   2.433   6.145   1.133
 2165TIP3    H1 6459   2.518   6.101   1.131
 2165TIP3    H2 6460   2.373   6.079   1.169
 2166TIP3   OH2 6461   4.755   6.426   1.509
 2166TIP3    H1 6462   4.808   6.439   1.430
 2166TIP3    H2 6463   4.681   6.373   1.479
 2167TIP3   OH2 6464   1.414   3.007   1.877
 2167TIP3    H1 6465   1.320   3.010   1.899
 2167TIP3    H2 6466   1.447   2.931   1.925
 2168TIP3   OH2 6467   0.611   4.178   2.148
 2168TIP3    H1 6468   0.620   4.108   2.083
 2168TIP3    H2 6469   0.636   4.258   2.101
 2169TIP3   OH2 6470   6.958   0.440   2.655
 2169TIP3    H1 6471   7.016   0.516   2.646
 2169TIP3    H2 6472   6.986   0.398   2.737
 2170TIP3   OH2 6473   2.005   3.212   2.328
 2170TIP3    H1 6474   1.997   3.235   2.236
 2170TIP3    H2 6475   2.095   3.178   2.336
 2171TIP3   OH2 6476   3.850   3.939   4.690
 2171TIP3    H1 6477   3.882   4.027   4.708
 2171TIP3    H2 6478   3.929   3.889   4.666
 2172TIP3   OH2 6479   4.710   6.212   5.483
 2172TIP3    H1 6480   4.622   6.180   5.462
 2172TIP3    H2 6481   4.694   6.289   5.539
 2173TIP3   OH2 6482   6.285   6.509   0.476
 2173TIP3    H1 6483   6.308   6.416   0.471
 2173TIP3    H2 6484   6.192   6.512   0.456
 2174TIP3   OH2 6485   4.720   3.812   4.280
 2174TIP3    H1 6486   4.693   3.900   4.252
 2174TIP3    H2 6487   4.813   3.807   4.257
 2175TIP3   OH2 6488   6.120   5.530   2.526
 2175TIP3    H1 6489   6.150   5.569   2.444
 2175TIP3    H2 6490   6.192   5.473   2.553
 2176TIP3   OH2 6491   2.313   2.553   5.473
 2176TIP3    H1 6492   2.364   2.574   5.551
 2176TIP3    H2 6493   2.243   2.618   5.471
 2177TIP3   OH2 6494   3.264   5.361   3.251
 2177TIP3    H1 6495   3.322   5.289   3.225
 2177TIP3    H2 6496   3.267   5.422   3.178
 2178TIP3   OH2 6497   5.169   3.852   4.710
 2178TIP3    H1 6498   5.173   3.806   4.794
 2178TIP3    H2 6499   5.094   3.812   4.665
 2179TIP3   OH2 6500   4.031   3.484   0.896
 2179TIP3    H1 6501   3.945   3.443   0.897
 2179TIP3    H2 6502   4.026   3.552   0.963
 2180TIP3   OH2 6503   5.999   5.586   1.666
 2180TIP3    H1 6504   6.074   5.637   1.637
 2180TIP3    H2 6505   5.953   5.644   1.727
 2181TIP3   OH2 6506   6.551   2.933   2.291
 2181TIP3    H1 6507   6.567   2.971   2.204
 2181TIP3    H2 6508   6.638   2.921   2.329
 2182TIP3   OH2 6509   1.442   6.286   4.412
 2182TIP3    H1 6510   1.429   6.353   4.346
 2182TIP3    H2 6511   1.379   6.217   4.389
 2183TIP3   OH2 6512   4.483   3.316   1.040
 2183TIP3    H1 6513   4.419   3.260   0.997
 2183TIP3    H2 6514   4.451   3.405   1.025
 2184TIP3   OH2 6515   6.465   2.060   1.321
 2184TIP3    H1 6516   6.454   1.983   1.377
 2184TIP3    H2 6517   6.464   2.134   1.382
 2185TIP3   OH2 6518   1.207   5.822   5.729
 2185TIP3    H1 6519   1.214   5.726   5.722
 2185TIP3    H2 6520   1.113   5.839   5.721
 2186TIP3   OH2 6521   1.746   0.058   4.071
 2186TIP3    H1 6522   1.822   0.031   4.019
 2186TIP3    H2 6523   1.738  -0.011   4.137
 2187TIP3   OH2 6524   3.856   3.579   0.401
 2187TIP3    H1 6525   3.899   3.663   0.418
 2187TIP3    H2 6526   3.913   3.514   0.443
 2188TIP3   OH2 6527   5.821   2.956   0.033
 2188TIP3    H1 6528   5.726   2.962   0.028
 2188TIP3    H2 6529   5.852   3.034  -0.013
 2189TIP3   OH2 6530   1.702   3.534   1.089
 2189TIP3    H1 6531   1.617   3.571   1.113
 2189TIP3    H2 6532   1.687   3.440   1.082
 2190TIP3   OH2 6533   6.242   4.011   2.254
 2190TIP3    H1 6534   6.199   4.000   2.338
 2190TIP3    H2 6535   6.216   3.934   2.203
 2191TIP3   OH2 6536   0.470   0.530   3.361
 2191TIP3    H1 6537   0.456   0.458   3.423
 2191TIP3    H2 6538   0.390   0.582   3.366
 2192TIP3   OH2 6539   6.922   3.498   3.107
 2192TIP3    H1 6540   6.847   3.442   3.090
 2192TIP3    H2 6541   6.989   3.468   3.045
 2193TIP3   OH2 6542   3.584   1.290   3.565
 2193TIP3    H1 6543   3.628   1.206   3.556
 2193TIP3    H2 6544   3.549   1.289   3.654
 2194TIP3   OH2 6545   7.147   5.878   2.624
 2194TIP3    H1 6546   7.139   5.805   2.686
 2194TIP3    H2 6547   7.063   5.923   2.630
 2195TIP3   OH2 6548   4.723   4.309   0.319
 2195TIP3    H1 6549   4.638   4.271   0.343
 2195TIP3    H2 6550   4.704   4.364   0.243
 2196TIP3   OH2 6551   5.661   4.776   2.513
 2196TIP3    H1 6552   5.702   4.845   2.460
 2196TIP3    H2 6553   5.733   4.718   2.537
 2197TIP3   OH2 6554   1.220   3.011   1.114
 2197TIP3    H1 6555   1.167   2.942   1.154
 2197TIP3    H2 6556   1.176   3.093   1.139
 2198TIP3   OH2 6557   2.554   5.969   1.958
 2198TIP3    H1 6558   2.605   5.952   2.037
 2198TIP3    H2 6559   2.553   6.064   1.950
 2199TIP3   OH2 6560   3.508   1.031   1.558
 2199TIP3    H1 6561   3.477   0.999   1.474
 2199TIP3    H2 6562   3.502   0.955   1.616
 2200TIP3   OH2 6563   0.456   5.607   1.036
 2200TIP3    H1 6564   0.451   5.529   1.092
 2200TIP3    H2 6565   0.373   5.607   0.988
 2201TIP3   OH2 6566   0.844   2.904   3.941
 2201TIP3    H1 6567   0.751   2.926   3.933
 2201TIP3    H2 6568   0.883   2.980   3.984
 2202TIP3   OH2 6569   4.590   5.298   1.647
 2202TIP3    H1 6570   4.521   5.255   1.597
 2202TIP3    H2 6571   4.627   5.362   1.585
 2203TIP3   OH2 6572   4.191   3.657   5.120
 2203TIP3    H1 6573   4.278   3.644   5.157
 2203TIP3    H2 6574   4.158   3.736   5.162
 2204TIP3   OH2 6575   3.834   1.811   1.897
 2204TIP3    H1 6576   3.862   1.830   1.987
 2204TIP3    H2 6577   3.891   1.740   1.868
 2205TIP3   OH2 6578   0.874   3.738   0.298
 2205TIP3    H1 6579   0.881   3.727   0.203
 2205TIP3    H2 6580   0.793   3.694   0.321
 2206TIP3   OH2 6581   3.466   4.873   1.466
 2206TIP3    H1 6582   3.498   4.946   1.413
 2206TIP3    H2 6583   3.381   4.903   1.498
 2207TIP3   OH2 6584   2.516   5.178   1.617
 2207TIP3    H1 6585   2.587   5.234   1.584
 2207TIP3    H2 6586   2.559   5.117   1.676
 2208TIP3   OH2 6587   2.746   4.207   3.225
 2208TIP3    H1 6588   2.814   4.272   3.204
 2208TIP3    H2 6589   2.678   4.223   3.160
 2209TIP3   OH2 6590   0.039   3.877   5.374
 2209TIP3    H1 6591   0.069   3.951   5.427
 2209TIP3    H2 6592   0.040   3.910   5.285
 2210TIP3   OH2 6593   3.895   2.101   1.833
 2210TIP3    H1 6594   3.980   2.086   1.791
 2210TIP3    H2 6595   3.893   2.037   1.904
 2211TIP3   OH2 6596   0.631   2.609   5.416
 2211TIP3    H1 6597   0.593   2.593   5.330
 2211TIP3    H2 6598   0.712   2.656   5.398
 2212TIP3   OH2 6599   4.745   4.861   5.446
 2212TIP3    H1 6600   4.656   4.828   5.451
 2212TIP3    H2 6601   4.737   4.943   5.397
 2213TIP3   OH2 6602   4.393   6.669   1.298
 2213TIP3    H1 6603   4.355   6.754   1.320
 2213TIP3    H2 6604   4.341   6.638   1.223
 2214TIP3   OH2 6605   3.933   5.834   5.100
 2214TIP3    H1 6606   3.860   5.773   5.110
 2214TIP3    H2 6607   4.010   5.778   5.097
 2215TIP3   OH2 6608   6.341   1.990   2.271
 2215TIP3    H1 6609   6.396   2.012   2.346
 2215TIP3    H2 6610   6.292   1.912   2.298
 2216TIP3   OH2 6611   2.130   0.285   1.028
 2216TIP3    H1 6612   2.083   0.361   0.994
 2216TIP3    H2 6613   2.088   0.210   0.986
 2217TIP3   OH2 6614   0.591   4.051   0.516
 2217TIP3    H1 6615   0.642   4.030   0.438
 2217TIP3    H2 6616   0.656   4.056   0.587
 2218TIP3   OH2 6617   5.718   3.645   1.963
 2218TIP3    H1 6618   5.700   3.672   2.053
 2218TIP3    H2 6619   5.633   3.652   1.919
 2219TIP3   OH2 6620   1.970   0.787   2.901
 2219TIP3    H1 6621   1.906   0.855   2.880
 2219TIP3    H2 6622   1.917   0.709   2.920
 2220TIP3   OH2 6623   1.184   2.578   3.230
 2220TIP3    H1 6624   1.273   2.543   3.225
 2220TIP3    H2 6625   1.138   2.517   3.287
 2221TIP3   OH2 6626   6.137   0.293   4.739
 2221TIP3    H1 6627   6.124   0.208   4.697
 2221TIP3    H2 6628   6.143   0.273   4.833
 2222TIP3   OH2 6629   5.489   2.784   2.021
 2222TIP3    H1 6630   5.559   2.818   2.077
 2222TIP3    H2 6631   5.501   2.689   2.023
 2223TIP3   OH2 6632   1.324   0.846   5.414
 2223TIP3    H1 6633   1.325   0.753   5.391
 2223TIP3    H2 6634   1.416   0.869   5.426
 2224TIP3   OH2 6635   5.963   4.098   3.845
 2224TIP3    H1 6636   6.026   4.118   3.915
 2224TIP3    H2 6637   5.942   4.184   3.807
 2225TIP3   OH2 6638   5.987   5.068   4.937
 2225TIP3    H1 6639   6.073   5.061   4.896
 2225TIP3    H2 6640   5.931   5.007   4.888
 2226TIP3   OH2 6641   2.446   0.026   2.505
 2226TIP3    H1 6642   2.459   0.120   2.522
 2226TIP3    H2 6643   2.490   0.011   2.421
 2227TIP3   OH2 6644   5.816   1.934   0.259
 2227TIP3    H1 6645   5.835   1.878   0.334
 2227TIP3    H2 6646   5.825   1.877   0.183
 2228TIP3   OH2 6647   0.901   0.060   3.573
 2228TIP3    H1 6648   0.832   0.039   3.636
 2228TIP3    H2 6649   0.944   0.138   3.610
 2229TIP3   OH2 6650   0.794   0.160   4.736
 2229TIP3    H1 6651   0.871   0.213   4.757
 2229TIP3    H2 6652   0.828   0.090   4.680
 2230TIP3   OH2 6653   5.153   6.162   5.181
 2230TIP3    H1 6654   5.089   6.092   5.192
 2230TIP3    H2 6655   5.104   6.233   5.140
 2231TIP3   OH2 6656   0.996   5.962   5.313
 2231TIP3    H1 6657   1.055   6.027   5.274
 2231TIP3    H2 6658   1.027   5.878   5.278
 2232TIP3   OH2 6659   0.222   3.150   3.889
 2232TIP3    H1 6660   0.152   3.215   3.889
 2232TIP3    H2 6661   0.195   3.087   3.822
 2233TIP3   OH2 6662   4.191   2.277   4.994
 2233TIP3    H1 6663   4.247   2.350   5.020
 2233TIP3    H2 6664   4.232   2.243   4.914
 2234TIP3   OH2 6665   0.290   1.661   3.875
 2234TIP3    H1 6666   0.294   1.565   3.878
 2234TIP3    H2 6667   0.372   1.687   3.833
 2235TIP3   OH2 6668   7.036   1.569   0.579
 2235TIP3    H1 6669   6.977   1.589   0.651
 2235TIP3    H2 6670   7.043   1.473   0.580
 2236TIP3   OH2 6671   2.992   4.194   0.054
 2236TIP3    H1 6672   2.987   4.118   0.112
 2236TIP3    H2 6673   2.916   4.184  -0.004
 2237TIP3   OH2 6674   5.491   5.611   4.748
 2237TIP3    H1 6675   5.583   5.633   4.764
 2237TIP3    H2 6676   5.492   5.518   4.726
 2238TIP3   OH2 6677   0.146   2.729   2.999
 2238TIP3    H1 6678   0.199   2.671   3.054
 2238TIP3    H2 6679   0.074   2.674   2.968
 2239TIP3   OH2 6680   1.757   4.205   4.647
 2239TIP3    H1 6681   1.780   4.263   4.720
 2239TIP3    H2 6682   1.773   4.258   4.569
 2240TIP3   OH2 6683   4.262   1.339   5.339
 2240TIP3    H1 6684   4.185   1.370   5.386
 2240TIP3    H2 6685   4.274   1.249   5.369
 2241TIP3   OH2 6686   1.080   3.707   3.103
 2241TIP3    H1 6687   1.075   3.803   3.096
 2241TIP3    H2 6688   1.103   3.678   3.015
 2242TIP3   OH2 6689   4.006   3.925   3.903
 2242TIP3    H1 6690   3.959   3.907   3.821
 2242TIP3    H2 6691   4.087   3.966   3.875
 2243TIP3   OH2 6692   0.620   5.011   1.089
 2243TIP3    H1 6693   0.652   5.032   1.177
 2243TIP3    H2 6694   0.698   5.010   1.034
 2244TIP3   OH2 6695   1.253   2.875   5.794
 2244TIP3    H1 6696   1.329   2.831   5.756
 2244TIP3    H2 6697   1.180   2.851   5.737
 2245TIP3   OH2 6698   6.944   5.099   3.751
 2245TIP3    H1 6699   7.019   5.089   3.692
 2245TIP3    H2 6700   6.899   5.015   3.748
 2246TIP3   OH2 6701   4.097   5.321   4.197
 2246TIP3    H1 6702   4.018   5.300   4.248
 2246TIP3    H2 6703   4.142   5.387   4.249
 2247TIP3   OH2 6704   6.220   0.478   1.408
 2247TIP3    H1 6705   6.133   0.455   1.375
 2247TIP3    H2 6706   6.235   0.567   1.376
 2248TIP3   OH2 6707   0.388   2.875   2.396
 2248TIP3    H1 6708   0.432   2.869   2.311
 2248TIP3    H2 6709   0.453   2.917   2.453
 2249TIP3   OH2 6710   4.591   4.021   4.667
 2249TIP3    H1 6711   4.621   3.952   4.607
 2249TIP3    H2 6712   4.612   3.989   4.754
 2250TIP3   OH2 6713   0.947   3.064   3.080
 2250TIP3    H1 6714   0.869   3.054   3.135
 2250TIP3    H2 6715   0.988   2.978   3.079
 2251TIP3   OH2 6716   1.225   3.710   3.389
 2251TIP3    H1 6717   1.195   3.662   3.312
 2251TIP3    H2 6718   1.312   3.675   3.406
 2252TIP3   OH2 6719   5.591   0.058   4.010
 2252TIP3    H1 6720   5.587   0.101   3.925
 2252TIP3    H2 6721   5.500   0.057   4.040
 2253TIP3   OH2 6722   0.415   1.506   2.656
 2253TIP3    H1 6723   0.478   1.453   2.704
 2253TIP3    H2 6724   0.468   1.560   2.597
 2254TIP3   OH2 6725   2.353   0.876   0.218
 2254TIP3    H1 6726   2.374   0.792   0.176
 2254TIP3    H2 6727   2.434   0.927   0.213
 2255TIP3   OH2 6728   6.650   1.520   4.793
 2255TIP3    H1 6729   6.578   1.550   4.737
 2255TIP3    H2 6730   6.686   1.444   4.747
 2256TIP3   OH2 6731   2.984   3.653   5.129
 2256TIP3    H1 6732   2.973   3.688   5.041
 2256TIP3    H2 6733   3.077   3.662   5.148
 2257TIP3   OH2 6734   1.611   6.800   3.720
 2257TIP3    H1 6735   1.526   6.836   3.696
 2257TIP3    H2 6736   1.600   6.705   3.713
 2258TIP3   OH2 6737   1.240   5.729   0.476
 2258TIP3    H1 6738   1.163   5.690   0.433
 2258TIP3    H2 6739   1.227   5.709   0.569
 2259TIP3   OH2 6740   6.074   4.209   5.696
 2259TIP3    H1 6741   6.010   4.209   5.625
 2259TIP3    H2 6742   6.069   4.297   5.734
 2260TIP3   OH2 6743   2.538   0.869   2.935
 2260TIP3    H1 6744   2.571   0.820   2.859
 2260TIP3    H2 6745   2.480   0.808   2.980
 2261TIP3   OH2 6746   2.950   2.966   1.530
 2261TIP3    H1 6747   2.913   2.963   1.618
 2261TIP3    H2 6748   2.897   3.031   1.483
 2262TIP3   OH2 6749   0.539   4.311   3.598
 2262TIP3    H1 6750   0.466   4.335   3.656
 2262TIP3    H2 6751   0.614   4.306   3.657
 2263TIP3   OH2 6752   2.380   3.262   2.869
 2263TIP3    H1 6753   2.429   3.329   2.821
 2263TIP3    H2 6754   2.300   3.250   2.818
 2264TIP3   OH2 6755   2.221   1.751   0.714
 2264TIP3    H1 6756   2.186   1.664   0.697
 2264TIP3    H2 6757   2.158   1.811   0.673
 2265TIP3   OH2 6758   4.595   3.278   1.281
 2265TIP3    H1 6759   4.545   3.198   1.298
 2265TIP3    H2 6760   4.558   3.312   1.199
 2266TIP3   OH2 6761   4.360   6.694   0.278
 2266TIP3    H1 6762   4.271   6.689   0.242
 2266TIP3    H2 6763   4.414   6.647   0.215
 2267TIP3   OH2 6764   6.406   4.823   4.644
 2267TIP3    H1 6765   6.358   4.860   4.570
 2267TIP3    H2 6766   6.414   4.730   4.623
 2268TIP3   OH2 6767   6.750   0.265   3.727
 2268TIP3    H1 6768   6.796   0.242   3.809
 2268TIP3    H2 6769   6.699   0.343   3.749
 2269TIP3   OH2 6770   0.506   3.894   3.046
 2269TIP3    H1 6771   0.547   3.946   3.115
 2269TIP3    H2 6772   0.578   3.863   2.992
 2270TIP3   OH2 6773   5.085   4.645   2.855
 2270TIP3    H1 6774   5.026   4.654   2.780
 2270TIP3    H2 6775   5.160   4.701   2.834
 2271TIP3   OH2 6776   7.193   5.468   1.452
 2271TIP3    H1 6777   7.154   5.401   1.508
 2271TIP3    H2 6778   7.243   5.523   1.511
 2272TIP3   OH2 6779   7.114   3.197   0.439
 2272TIP3    H1 6780   7.097   3.151   0.521
 2272TIP3    H2 6781   7.084   3.137   0.371
 2273TIP3   OH2 6782   0.811   1.650   4.802
 2273TIP3    H1 6783   0.823   1.709   4.877
 2273TIP3    H2 6784   0.883   1.588   4.808
 2274TIP3   OH2 6785   5.508   3.273   4.393
 2274TIP3    H1 6786   5.573   3.210   4.425
 2274TIP3    H2 6787   5.531   3.354   4.437
 2275TIP3   OH2 6788   2.941   5.929   4.550
 2275TIP3    H1 6789   2.905   6.005   4.504
 2275TIP3    H2 6790   3.035   5.931   4.529
 2276TIP3   OH2 6791   5.623   3.268   5.495
 2276TIP3    H1 6792   5.618   3.289   5.402
 2276TIP3    H2 6793   5.641   3.174   5.498
 2277TIP3   OH2 6794   5.914   5.068   2.077
 2277TIP3    H1 6795   5.890   5.037   1.989
 2277TIP3    H2 6796   6.007   5.047   2.086
 2278TIP3   OH2 6797   3.909   2.699   3.693
 2278TIP3    H1 6798   3.912   2.616   3.645
 2278TIP3    H2 6799   4.000   2.729   3.696
 2279TIP3   OH2 6800   6.005   2.781   1.743
 2279TIP3    H1 6801   5.933   2.769   1.806
 2279TIP3    H2 6802   5.983   2.861   1.696
 2280TIP3   OH2 6803   4.931   0.008   3.851
 2280TIP3    H1 6804   4.943  -0.060   3.917
 2280TIP3    H2 6805   4.870   0.070   3.891
 2281TIP3   OH2 6806   0.430   5.130   0.169
 2281TIP3    H1 6807   0.490   5.166   0.104
 2281TIP3    H2 6808   0.485   5.109   0.244
 2282TIP3   OH2 6809   6.917   2.629   2.206
 2282TIP3    H1 6810   6.956   2.553   2.163
 2282TIP3    H2 6811   6.934   2.702   2.146
 2283TIP3   OH2 6812   3.730   6.444   5.487
 2283TIP3    H1 6813   3.816   6.435   5.446
 2283TIP3    H2 6814   3.737   6.524   5.540
 2284TIP3   OH2 6815   4.771   2.845   3.194
 2284TIP3    H1 6816   4.685   2.803   3.195
 2284TIP3    H2 6817   4.821   2.795   3.130
 2285TIP3   OH2 6818   1.736   6.661   0.272
 2285TIP3    H1 6819   1.801   6.671   0.203
 2285TIP3    H2 6820   1.770   6.591   0.327
 2286TIP3   OH2 6821   5.473   5.250   0.053
 2286TIP3    H1 6822   5.505   5.249  -0.037
 2286TIP3    H2 6823   5.522   5.320   0.095
 2287TIP3   OH2 6824   3.162   0.357   2.022
 2287TIP3    H1 6825   3.117   0.437   1.996
 2287TIP3    H2 6826   3.095   0.306   2.067
 2288TIP3   OH2 6827   4.310   6.280   3.108
 2288TIP3    H1 6828   4.328   6.350   3.170
 2288TIP3    H2 6829   4.380   6.216   3.123
 2289TIP3   OH2 6830   0.169   5.922   4.001
 2289TIP3    H1 6831   0.146   5.913   4.093
 2289TIP3    H2 6832   0.259   5.954   4.001
 2290TIP3   OH2 6833   3.306   0.815   2.763
 2290TIP3    H1 6834   3.344   0.882   2.706
 2290TIP3    H2 6835   3.339   0.732   2.729
 2291TIP3   OH2 6836   6.074   0.773   2.257
 2291TIP3    H1 6837   6.144   0.740   2.201
 2291TIP3    H2 6838   6.041   0.695   2.303
 2292TIP3   OH2 6839   6.012   4.707   0.358
 2292TIP3    H1 6840   5.948   4.656   0.409
 2292TIP3    H2 6841   6.079   4.732   0.422
 2293TIP3   OH2 6842   6.344   5.210   1.429
 2293TIP3    H1 6843   6.435   5.230   1.406
 2293TIP3    H2 6844   6.317   5.145   1.364
 2294TIP3   OH2 6845   1.122   0.441   5.533
 2294TIP3    H1 6846   1.151   0.403   5.450
 2294TIP3    H2 6847   1.106   0.366   5.590
 2295TIP3   OH2 6848   6.567   1.759   3.742
 2295TIP3    H1 6849   6.661   1.744   3.741
 2295TIP3    H2 6850   6.538   1.725   3.827
 2296TIP3   OH2 6851   1.458   5.327   5.156
 2296TIP3    H1 6852   1.447   5.371   5.072
 2296TIP3    H2 6853   1.478   5.398   5.218
 2297TIP3   OH2 6854   5.837   5.966   3.713
 2297TIP3    H1 6855   5.759   5.939   3.761
 2297TIP3    H2 6856   5.876   5.884   3.682
 2298TIP3   OH2 6857   0.286   1.637   2.976
 2298TIP3    H1 6858   0.246   1.702   2.918
 2298TIP3    H2 6859   0.286   1.679   3.062
 2299TIP3   OH2 6860   1.595   3.463   2.256
 2299TIP3    H1 6861   1.637   3.459   2.169
 2299TIP3    H2 6862   1.555   3.376   2.266
 2300TIP3   OH2 6863   1.636   0.090   2.567
 2300TIP3    H1 6864   1.721   0.065   2.530
 2300TIP3    H2 6865   1.640   0.185   2.575
 2301TIP3   OH2 6866   6.585   4.015   5.371
 2301TIP3    H1 6867   6.595   3.982   5.460
 2301TIP3    H2 6868   6.532   3.949   5.326
 2302TIP3   OH2 6869   2.780   3.972   4.752
 2302TIP3    H1 6870   2.702   3.936   4.795
 2302TIP3    H2 6871   2.745   4.020   4.676
 2303TIP3   OH2 6872   3.106   4.249   1.550
 2303TIP3    H1 6873   3.091   4.342   1.533
 2303TIP3    H2 6874   3.176   4.224   1.490
 2304TIP3   OH2 6875   0.916   3.594   5.866
 2304TIP3    H1 6876   0.926   3.654   5.940
 2304TIP3    H2 6877   0.849   3.634   5.811
 2305TIP3   OH2 6878   5.068   2.724   4.387
 2305TIP3    H1 6879   5.160   2.742   4.371
 2305TIP3    H2 6880   5.057   2.632   4.366
 2306TIP3   OH2 6881   4.176   6.198   2.078
 2306TIP3    H1 6882   4.213   6.246   2.152
 2306TIP3    H2 6883   4.251   6.180   2.021
 2307TIP3   OH2 6884   5.917   1.576   4.286
 2307TIP3    H1 6885   5.830   1.567   4.248
 2307TIP3    H2 6886   5.905   1.635   4.361
 2308TIP3   OH2 6887   4.884   4.301   3.333
 2308TIP3    H1 6888   4.883   4.338   3.245
 2308TIP3    H2 6889   4.866   4.375   3.391
 2309TIP3   OH2 6890   0.364   4.971   5.575
 2309TIP3    H1 6891   0.450   5.000   5.608
 2309TIP3    H2 6892   0.304   5.040   5.603
 2310TIP3   OH2 6893   0.435   3.263   2.199
 2310TIP3    H1 6894   0.425   3.296   2.289
 2310TIP3    H2 6895   0.504   3.198   2.205
 2311TIP3   OH2 6896   6.614   4.402   4.210
 2311TIP3    H1 6897   6.522   4.406   4.237
 2311TIP3    H2 6898   6.621   4.469   4.141
 2312TIP3   OH2 6899   5.246   5.712   0.173
 2312TIP3    H1 6900   5.275   5.762   0.249
 2312TIP3    H2 6901   5.173   5.762   0.137
 2313TIP3   OH2 6902   1.460   5.951   5.888
 2313TIP3    H1 6903   1.441   5.948   5.794
 2313TIP3    H2 6904   1.456   5.860   5.916
 2314TIP3   OH2 6905   3.865   2.232   2.586
 2314TIP3    H1 6906   3.873   2.139   2.606
 2314TIP3    H2 6907   3.933   2.274   2.639
 2315TIP3   OH2 6908   5.412   6.365   1.636
 2315TIP3    H1 6909   5.385   6.413   1.714
 2315TIP3    H2 6910   5.470   6.425   1.590
 2316TIP3   OH2 6911   3.375   3.599   0.586
 2316TIP3    H1 6912   3.296   3.646   0.558
 2316TIP3    H2 6913   3.424   3.585   0.506
 2317TIP3   OH2 6914   2.800   2.023   1.144
 2317TIP3    H1 6915   2.816   2.117   1.148
 2317TIP3    H2 6916   2.762   2.009   1.056
 2318TIP3   OH2 6917   0.323   4.221   4.263
 2318TIP3    H1 6918   0.252   4.283   4.246
 2318TIP3    H2 6919   0.403   4.270   4.244
 2319TIP3   OH2 6920   3.632   4.789   0.171
 2319TIP3    H1 6921   3.655   4.799   0.079
 2319TIP3    H2 6922   3.607   4.877   0.199
 2320TIP3   OH2 6923   2.178   0.682   1.198
 2320TIP3    H1 6924   2.251   0.621   1.210
 2320TIP3    H2 6925   2.203   0.735   1.122
 2321TIP3   OH2 6926   2.518   1.850   3.379
 2321TIP3    H1 6927   2.490   1.800   3.303
 2321TIP3    H2 6928   2.524   1.785   3.449
 2322TIP3   OH2 6929   0.466   1.688   2.154
 2322TIP3    H1 6930   0.528   1.760   2.142
 2322TIP3    H2 6931   0.482   1.630   2.079
 2323TIP3   OH2 6932   5.010   1.896   3.745
 2323TIP3    H1 6933   5.089   1.947   3.764
 2323TIP3    H2 6934   5.042   1.808   3.728
 2324TIP3   OH2 6935   3.229   1.105   0.805
 2324TIP3    H1 6936   3.192   1.017   0.811
 2324TIP3    H2 6937   3.317   1.097   0.840
 2325TIP3   OH2 6938   4.697   4.088   0.993
 2325TIP3    H1 6939   4.711   4.131   0.909
 2325TIP3    H2 6940   4.785   4.066   1.023
 2326TIP3   OH2 6941   0.659   5.301   1.577
 2326TIP3    H1 6942   0.669   5.352   1.658
 2326TIP3    H2 6943   0.672   5.211   1.605
 2327TIP3   OH2 6944   0.746   3.640   0.576
 2327TIP3    H1 6945   0.685   3.566   0.577
 2327TIP3    H2 6946   0.832   3.600   0.564
 2328TIP3   OH2 6947   6.011   1.617   5.577
 2328TIP3    H1 6948   6.021   1.522   5.570
 2328TIP3    H2 6949   5.975   1.630   5.665
 2329TIP3   OH2 6950   1.841   0.953   0.322
 2329TIP3    H1 6951   1.823   1.021   0.257
 2329TIP3    H2 6952   1.757   0.910   0.336
 2330TIP3   OH2 6953   5.338   5.100   1.170
 2330TIP3    H1 6954   5.391   5.022   1.184
 2330TIP3    H2 6955   5.401   5.170   1.154
 2331TIP3   OH2 6956   2.212   6.618   4.750
 2331TIP3    H1 6957   2.242   6.533   4.781
 2331TIP3    H2 6958   2.261   6.682   4.803
 2332TIP3   OH2 6959   6.976   4.721   1.788
 2332TIP3    H1 6960   6.924   4.682   1.717
 2332TIP3    H2 6961   6.998   4.648   1.845
 2333TIP3   OH2 6962   1.312   3.566   2.904
 2333TIP3    H1 6963   1.321   3.470   2.901
 2333TIP3    H2 6964   1.261   3.588   2.826
 2334TIP3   OH2 6965   0.712   6.323   1.162
 2334TIP3    H1 6966   0.738   6.349   1.251
 2334TIP3    H2 6967   0.771   6.371   1.105
 2335TIP3   OH2 6968   0.318   2.863   1.995
 2335TIP3    H1 6969   0.393   2.835   2.047
 2335TIP3    H2 6970   0.355   2.916   1.925
 2336TIP3   OH2 6971   4.027   1.244   0.716
 2336TIP3    H1 6972   3.979   1.174   0.761
 2336TIP3    H2 6973   4.074   1.200   0.646
 2337TIP3   OH2 6974   4.473   2.487   1.177
 2337TIP3    H1 6975   4.493   2.439   1.097
 2337TIP3    H2 6976   4.389   2.529   1.161
 2338TIP3   OH2 6977   5.068   5.858   4.229
 2338TIP3    H1 6978   5.048   5.764   4.233
 2338TIP3    H2 6979   5.015   5.891   4.157
 2339TIP3   OH2 6980   1.618   3.242   0.571
 2339TIP3    H1 6981   1.692   3.276   0.622
 2339TIP3    H2 6982   1.546   3.236   0.634
 2340TIP3   OH2 6983   2.320   2.304   4.241
 2340TIP3    H1 6984   2.281   2.224   4.206
 2340TIP3    H2 6985   2.246   2.365   4.248
 2341TIP3   OH2 6986   5.893   2.599   3.753
 2341TIP3    H1 6987   5.880   2.534   3.685
 2341TIP3    H2 6988   5.838   2.569   3.826
 2342TIP3   OH2 6989   3.551   4.684   1.840
 2342TIP3    H1 6990   3.505   4.627   1.778
 2342TIP3    H2 6991   3.640   4.649   1.843
 2343TIP3   OH2 6992   1.093   6.167   5.735
 2343TIP3    H1 6993   1.094   6.085   5.784
 2343TIP3    H2 6994   1.034   6.224   5.783
 2344TIP3   OH2 6995   3.578   0.991   0.620
 2344TIP3    H1 6996   3.537   0.948   0.695
 2344TIP3    H2 6997   3.611   0.919   0.566
 2345TIP3   OH2 6998   2.534   2.077   4.365
 2345TIP3    H1 6999   2.539   2.021   4.288
 2345TIP3    H2 7000   2.604   2.045   4.423
 2346TIP3   OH2 7001   5.518   3.701   0.130
 2346TIP3    H1 7002   5.564   3.617   0.143
 2346TIP3    H2 7003   5.570   3.765   0.179
 2347TIP3   OH2 7004   2.490   6.435   2.293
 2347TIP3    H1 7005   2.536   6.362   2.334
 2347TIP3    H2 7006   2.547   6.511   2.307
 2348TIP3   OH2 7007   1.807  -0.001   4.810
 2348TIP3    H1 7008   1.832   0.029   4.723
 2348TIP3    H2 7009   1.866   0.046   4.869
 2349TIP3   OH2 7010   6.502   5.375   4.158
 2349TIP3    H1 7011   6.582   5.368   4.107
 2349TIP3    H2 7012   6.501   5.296   4.213
 2350TIP3   OH2 7013   3.506   0.281   4.089
 2350TIP3    H1 7014   3.573   0.348   4.107
 2350TIP3    H2 7015   3.427   0.332   4.067
 2351TIP3   OH2 7016   3.522   1.267   0.605
 2351TIP3    H1 7017   3.487   1.341   0.555
 2351TIP3    H2 7018   3.515   1.192   0.545
 2352TIP3   OH2 7019   1.943   3.742   5.397
 2352TIP3    H1 7020   1.898   3.741   5.481
 2352TIP3    H2 7021   1.930   3.831   5.364
 2353TIP3   OH2 7022   0.308   5.694   3.715
 2353TIP3    H1 7023   0.238   5.722   3.656
 2353TIP3    H2 7024   0.267   5.629   3.772
 2354TIP3   OH2 7025   2.294   1.276   1.777
 2354TIP3    H1 7026   2.286   1.200   1.835
 2354TIP3    H2 7027   2.380   1.266   1.736
 2355TIP3   OH2 7028   6.047   3.481   2.648
 2355TIP3    H1 7029   6.042   3.433   2.565
 2355TIP3    H2 7030   5.956   3.483   2.679
 2356TIP3   OH2 7031   0.401   2.354   0.855
 2356TIP3    H1 7032   0.428   2.408   0.780
 2356TIP3    H2 7033   0.481   2.339   0.904
 2357TIP3   OH2 7034   6.614   0.977   2.516
 2357TIP3    H1 7035   6.591   1.047   2.577
 2357TIP3    H2 7036   6.693   0.938   2.553
 2358TIP3   OH2 7037   0.401   1.409   2.346
 2358TIP3    H1 7038   0.400   1.333   2.404
 2358TIP3    H2 7039   0.451   1.475   2.393
 2359TIP3   OH2 7040   4.831   5.411   1.058
 2359TIP3    H1 7041   4.914   5.458   1.045
 2359TIP3    H2 7042   4.787   5.460   1.127
 2360TIP3   OH2 7043   0.671   5.970   0.279
 2360TIP3    H1 7044   0.606   5.907   0.310
 2360TIP3    H2 7045   0.730   5.982   0.354
 2361TIP3   OH2 7046   2.489   0.483   3.466
 2361TIP3    H1 7047   2.428   0.467   3.394
 2361TIP3    H2 7048   2.548   0.407   3.466
 2362TIP3   OH2 7049   3.794   0.034   4.846
 2362TIP3    H1 7050   3.739   0.109   4.825
 2362TIP3    H2 7051   3.849   0.063   4.919
 2363TIP3   OH2 7052   0.655   6.668   4.317
 2363TIP3    H1 7053   0.580   6.618   4.286
 2363TIP3    H2 7054   0.663   6.646   4.410
 2364TIP3   OH2 7055   1.643   1.139   0.197
 2364TIP3    H1 7056   1.586   1.187   0.138
 2364TIP3    H2 7057   1.731   1.169   0.175
 2365TIP3   OH2 7058   3.880   5.511   3.855
 2365TIP3    H1 7059   3.844   5.600   3.861
 2365TIP3    H2 7060   3.859   5.483   3.766
 2366TIP3   OH2 7061   1.547   0.385   1.656
 2366TIP3    H1 7062   1.462   0.352   1.630
 2366TIP3    H2 7063   1.597   0.307   1.679
 2367TIP3   OH2 7064   0.433   6.027   3.677
 2367TIP3    H1 7065   0.366   6.081   3.636
 2367TIP3    H2 7066   0.503   6.021   3.612
 2368TIP3   OH2 7067   4.273   5.411   0.116
 2368TIP3    H1 7068   4.202   5.431   0.055
 2368TIP3    H2 7069   4.244   5.332   0.162
 2369TIP3   OH2 7070   0.577   1.084   4.096
 2369TIP3    H1 7071   0.660   1.127   4.074
 2369TIP3    H2 7072   0.524   1.153   4.136
 2370TIP3   OH2 7073   4.931   0.173   1.722
 2370TIP3    H1 7074   4.915   0.215   1.806
 2370TIP3    H2 7075   4.988   0.099   1.741
 2371TIP3   OH2 7076   1.964   5.447   2.229
 2371TIP3    H1 7077   2.031   5.512   2.210
 2371TIP3    H2 7078   1.960   5.393   2.149
 2372TIP3   OH2 7079   6.375   1.030   5.810
 2372TIP3    H1 7080   6.466   1.000   5.818
 2372TIP3    H2 7081   6.333   0.963   5.756
 2373TIP3   OH2 7082   4.840   1.369   1.792
 2373TIP3    H1 7083   4.904   1.299   1.801
 2373TIP3    H2 7084   4.790   1.367   1.874
 2374TIP3   OH2 7085   6.805   1.906   4.842
 2374TIP3    H1 7086   6.729   1.891   4.786
 2374TIP3    H2 7087   6.879   1.905   4.781
 2375TIP3   OH2 7088   4.897   4.621   5.401
 2375TIP3    H1 7089   4.870   4.698   5.351
 2375TIP3    H2 7090   4.821   4.563   5.399
 2376TIP3   OH2 7091   4.891   1.375   3.759
 2376TIP3    H1 7092   4.929   1.290   3.780
 2376TIP3    H2 7093   4.797   1.363   3.771
 2377TIP3   OH2 7094   3.387   5.363   4.454
 2377TIP3    H1 7095   3.461   5.303   4.467
 2377TIP3    H2 7096   3.417   5.426   4.389
 2378TIP3   OH2 7097   3.842   4.845   1.664
 2378TIP3    H1 7098   3.927   4.866   1.624
 2378TIP3    H2 7099   3.801   4.931   1.677
 2379TIP3   OH2 7100   6.610   5.802   0.279
 2379TIP3    H1 7101   6.615   5.802   0.375
 2379TIP3    H2 7102   6.624   5.711   0.254
 2380TIP3   OH2 7103   2.562   2.170   1.562
 2380TIP3    H1 7104   2.531   2.114   1.633
 2380TIP3    H2 7105   2.647   2.133   1.537
 2381TIP3   OH2 7106   5.525   0.868   4.188
 2381TIP3    H1 7107   5.536   0.947   4.240
 2381TIP3    H2 7108   5.595   0.810   4.217
 2382TIP3   OH2 7109   5.539   3.917   3.254
 2382TIP3    H1 7110   5.473   3.912   3.185
 2382TIP3    H2 7111   5.557   3.826   3.277
 2383TIP3   OH2 7112   6.875   3.552   5.518
 2383TIP3    H1 7113   6.800   3.604   5.548
 2383TIP3    H2 7114   6.935   3.616   5.480
 2384TIP3   OH2 7115   6.653   5.946   3.355
 2384TIP3    H1 7116   6.715   5.949   3.428
 2384TIP3    H2 7117   6.666   6.028   3.308
 2385TIP3   OH2 7118   3.869   0.635   0.083
 2385TIP3    H1 7119   3.942   0.635   0.144
 2385TIP3    H2 7120   3.906   0.602   0.001
 2386TIP3   OH2 7121   1.151   2.291   1.041
 2386TIP3    H1 7122   1.150   2.209   1.091
 2386TIP3    H2 7123   1.081   2.280   0.976
 2387TIP3   OH2 7124   6.793   3.478   4.418
 2387TIP3    H1 7125   6.837   3.393   4.420
 2387TIP3    H2 7126   6.801   3.507   4.327
 2388TIP3   OH2 7127   2.235   0.836   4.488
 2388TIP3    H1 7128   2.195   0.918   4.457
 2388TIP3    H2 7129   2.177   0.767   4.455
 2389TIP3   OH2 7130   0.638   5.816   5.632
 2389TIP3    H1 7131   0.545   5.822   5.610
 2389TIP3    H2 7132   0.682   5.794   5.550
 2390TIP3   OH2 7133   5.239   1.608   0.360
 2390TIP3    H1 7134   5.293   1.634   0.435
 2390TIP3    H2 7135   5.243   1.512   0.360
 2391TIP3   OH2 7136   2.207   5.847   3.032
 2391TIP3    H1 7137   2.111   5.853   3.031
 2391TIP3    H2 7138   2.235   5.904   2.960
 2392TIP3   OH2 7139   1.491   0.209   3.147
 2392TIP3    H1 7140   1.430   0.241   3.214
 2392TIP3    H2 7141   1.485   0.273   3.077
 2393TIP3   OH2 7142   4.760   6.592   2.463
 2393TIP3    H1 7143   4.711   6.609   2.543
 2393TIP3    H2 7144   4.703   6.534   2.412
 2394TIP3   OH2 7145   0.750   6.123   0.952
 2394TIP3    H1 7146   0.720   6.183   1.020
 2394TIP3    H2 7147   0.727   6.165   0.869
 2395TIP3   OH2 7148   3.328   1.332   1.462
 2395TIP3    H1 7149   3.316   1.258   1.521
 2395TIP3    H2 7150   3.241   1.348   1.426
 2396TIP3   OH2 7151   3.911   2.659   3.955
 2396TIP3    H1 7152   3.902   2.678   3.862
 2396TIP3    H2 7153   3.850   2.719   3.998
 2397TIP3   OH2 7154   0.608   5.307   3.526
 2397TIP3    H1 7155   0.691   5.352   3.533
 2397TIP3    H2 7156   0.631   5.215   3.512
 2398TIP3   OH2 7157   4.008   5.490   5.042
 2398TIP3    H1 7158   4.016   5.427   5.114
 2398TIP3    H2 7159   4.050   5.569   5.076
 2399TIP3   OH2 7160   5.795   5.371   1.128
 2399TIP3    H1 7161   5.821   5.439   1.066
 2399TIP3    H2 7162   5.825   5.402   1.213
 2400TIP3   OH2 7163   5.742   5.112   5.357
 2400TIP3    H1 7164   5.825   5.142   5.319
 2400TIP3    H2 7165   5.753   5.127   5.451
 2401TIP3   OH2 7166   1.403   2.924   0.936
 2401TIP3    H1 7167   1.337   2.962   0.994
 2401TIP3    H2 7168   1.480   2.913   0.992
 2402TIP3   OH2 7169   5.922   1.690   5.823
 2402TIP3    H1 7170   5.829   1.710   5.820
 2402TIP3    H2 7171   5.941   1.673   5.915
 2403TIP3   OH2 7172   1.909   0.135   2.531
 2403TIP3    H1 7173   1.989   0.090   2.559
 2403TIP3    H2 7174   1.927   0.161   2.441
 2404TIP3   OH2 7175   6.235   0.392   0.203
 2404TIP3    H1 7176   6.152   0.431   0.175
 2404TIP3    H2 7177   6.245   0.316   0.145
 2405TIP3   OH2 7178   4.139   3.745   4.182
 2405TIP3    H1 7179   4.074   3.675   4.197
 2405TIP3    H2 7180   4.092   3.825   4.204
 2406TIP3   OH2 7181   1.051   1.192   1.320
 2406TIP3    H1 7182   1.119   1.194   1.387
 2406TIP3    H2 7183   1.099   1.201   1.237
 2407TIP3   OH2 7184   1.593   4.091   4.913
 2407TIP3    H1 7185   1.686   4.084   4.890
 2407TIP3    H2 7186   1.590   4.078   5.008
 2408TIP3   OH2 7187   6.821   5.385   4.884
 2408TIP3    H1 7188   6.915   5.368   4.892
 2408TIP3    H2 7189   6.800   5.437   4.961
 2409TIP3   OH2 7190   0.873   0.652   0.809
 2409TIP3    H1 7191   0.947   0.610   0.852
 2409TIP3    H2 7192   0.850   0.592   0.737
 2410TIP3   OH2 7193   5.271   2.706   4.713
 2410TIP3    H1 7194   5.202   2.767   4.688
 2410TIP3    H2 7195   5.225   2.634   4.755
 2411TIP3   OH2 7196   3.697   3.292   5.749
 2411TIP3    H1 7197   3.675   3.200   5.734
 2411TIP3    H2 7198   3.791   3.292   5.764
 2412TIP3   OH2 7199   5.768   3.484   2.697
 2412TIP3    H1 7200   5.694   3.437   2.734
 2412TIP3    H2 7201   5.741   3.576   2.698
 2413TIP3   OH2 7202   7.021   3.047   4.816
 2413TIP3    H1 7203   7.048   3.087   4.733
 2413TIP3    H2 7204   6.926   3.057   4.817
 2414TIP3   OH2 7205   3.200   2.492   5.091
 2414TIP3    H1 7206   3.229   2.550   5.020
 2414TIP3    H2 7207   3.258   2.416   5.084
 2415TIP3   OH2 7208   6.480   2.042   2.509
 2415TIP3    H1 7209   6.510   2.002   2.591
 2415TIP3    H2 7210   6.513   2.132   2.512
 2416TIP3   OH2 7211   1.733   0.513   5.651
 2416TIP3    H1 7212   1.652   0.465   5.670
 2416TIP3    H2 7213   1.774   0.525   5.737
 2417TIP3   OH2 7214   0.882   4.248   4.891
 2417TIP3    H1 7215   0.958   4.295   4.928
 2417TIP3    H2 7216   0.816   4.316   4.879
 2418TIP3   OH2 7217   5.595   5.833   0.877
 2418TIP3    H1 7218   5.649   5.812   0.953
 2418TIP3    H2 7219   5.509   5.855   0.913
 2419TIP3   OH2 7220   6.077   5.434   0.957
 2419TIP3    H1 7221   5.999   5.489   0.959
 2419TIP3    H2 7222   6.101   5.428   0.865
 2420TIP3   OH2 7223   4.224   6.075   1.636
 2420TIP3    H1 7224   4.162   6.132   1.681
 2420TIP3    H2 7225   4.179   5.991   1.631
 2421TIP3   OH2 7226   0.860   4.769   5.564
 2421TIP3    H1 7227   0.780   4.729   5.529
 2421TIP3    H2 7228   0.868   4.852   5.516
 2422TIP3   OH2 7229   1.894   6.494   3.893
 2422TIP3    H1 7230   1.812   6.533   3.862
 2422TIP3    H2 7231   1.910   6.422   3.832
 2423TIP3   OH2 7232   5.126   5.417   3.977
 2423TIP3    H1 7233   5.161   5.404   3.889
 2423TIP3    H2 7234   5.106   5.328   4.007
 2424TIP3   OH2 7235   0.063   0.111   3.772
 2424TIP3    H1 7236   0.020   0.167   3.707
 2424TIP3    H2 7237  -0.006   0.054   3.806
 2425TIP3   OH2 7238   4.453   3.001   4.139
 2425TIP3    H1 7239   4.370   2.966   4.107
 2425TIP3    H2 7240   4.482   3.061   4.071
 2426TIP3   OH2 7241   0.629   1.307   4.272
 2426TIP3    H1 7242   0.637   1.401   4.254
 2426TIP3    H2 7243   0.535   1.291   4.271
 2427TIP3   OH2 7244   2.105   4.783   2.214
 2427TIP3    H1 7245   2.051   4.838   2.158
 2427TIP3    H2 7246   2.087   4.814   2.303
 2428TIP3   OH2 7247   6.736   5.497   1.971
 2428TIP3    H1 7248   6.677   5.567   1.942
 2428TIP3    H2 7249   6.815   5.543   2.000
 2429TIP3   OH2 7250   0.539   4.858   0.311
 2429TIP3    H1 7251   0.544   4.938   0.363
 2429TIP3    H2 7252   0.630   4.830   0.301
 2430TIP3   OH2 7253   3.410   1.789   2.707
 2430TIP3    H1 7254   3.399   1.743   2.790
 2430TIP3    H2 7255   3.396   1.722   2.640
 2431TIP3   OH2 7256   7.033   3.842   4.331
 2431TIP3    H1 7257   6.953   3.808   4.371
 2431TIP3    H2 7258   7.098   3.841   4.402
 2432TIP3   OH2 7259   1.523   1.397   3.312
 2432TIP3    H1 7260   1.462   1.416   3.240
 2432TIP3    H2 7261   1.542   1.303   3.303
 2433TIP3   OH2 7262   5.678   2.495   3.571
 2433TIP3    H1 7263   5.700   2.587   3.583
 2433TIP3    H2 7264   5.586   2.497   3.544
 2434TIP3   OH2 7265   3.189   5.761   1.632
 2434TIP3    H1 7266   3.174   5.800   1.546
 2434TIP3    H2 7267   3.172   5.832   1.694
 2435TIP3   OH2 7268   0.925   1.917   1.111
 2435TIP3    H1 7269   0.988   1.892   1.044
 2435TIP3    H2 7270   0.846   1.868   1.089
 2436TIP3   OH2 7271   0.239   1.520   5.584
 2436TIP3    H1 7272   0.243   1.443   5.526
 2436TIP3    H2 7273   0.147   1.526   5.609
 2437TIP3   OH2 7274   2.985   1.116   2.355
 2437TIP3    H1 7275   2.932   1.052   2.307
 2437TIP3    H2 7276   3.060   1.133   2.297
 2438TIP3   OH2 7277   1.772   5.814   1.994
 2438TIP3    H1 7278   1.837   5.884   1.988
 2438TIP3    H2 7279   1.692   5.859   2.021
 2439TIP3   OH2 7280   2.359   3.478   4.212
 2439TIP3    H1 7281   2.445   3.450   4.181
 2439TIP3    H2 7282   2.322   3.526   4.138
 2440TIP3   OH2 7283   2.291   5.590   0.016
 2440TIP3    H1 7284   2.263   5.637   0.095
 2440TIP3    H2 7285   2.319   5.504   0.048
 2441TIP3   OH2 7286   2.098   2.992   2.884
 2441TIP3    H1 7287   2.143   2.977   2.967
 2441TIP3    H2 7288   2.158   2.959   2.817
 2442TIP3   OH2 7289   2.234   6.599   1.130
 2442TIP3    H1 7290   2.327   6.616   1.140
 2442TIP3    H2 7291   2.225   6.504   1.140
 2443TIP3   OH2 7292   0.503   5.063   4.279
 2443TIP3    H1 7293   0.577   5.026   4.327
 2443TIP3    H2 7294   0.539   5.085   4.193
 2444TIP3   OH2 7295   6.691   0.310   4.800
 2444TIP3    H1 7296   6.730   0.236   4.847
 2444TIP3    H2 7297   6.601   0.284   4.784
 2445TIP3   OH2 7298   4.471   0.619   0.087
 2445TIP3    H1 7299   4.409   0.553   0.119
 2445TIP3    H2 7300   4.532   0.632   0.159
 2446TIP3   OH2 7301   3.402   5.922   3.049
 2446TIP3    H1 7302   3.457   5.997   3.029
 2446TIP3    H2 7303   3.401   5.870   2.969
 2447TIP3   OH2 7304   5.360   6.220   0.885
 2447TIP3    H1 7305   5.267   6.239   0.893
 2447TIP3    H2 7306   5.385   6.257   0.800
 2448TIP3   OH2 7307   6.990   4.082   3.752
 2448TIP3    H1 7308   7.026   4.028   3.822
 2448TIP3    H2 7309   7.066   4.101   3.696
 2449TIP3   OH2 7310   1.623   5.262   2.780
 2449TIP3    H1 7311   1.566   5.185   2.776
 2449TIP3    H2 7312   1.601   5.304   2.863
 2450TIP3   OH2 7313   4.008   6.542   3.149
 2450TIP3    H1 7314   3.930   6.552   3.203
 2450TIP3    H2 7315   4.078   6.584   3.201
 2451TIP3   OH2 7316   0.262   3.711   3.088
 2451TIP3    H1 7317   0.270   3.733   2.996
 2451TIP3    H2 7318   0.348   3.731   3.125
 2452TIP3   OH2 7319   5.484   2.458   2.684
 2452TIP3    H1 7320   5.486   2.501   2.599
 2452TIP3    H2 7321   5.575   2.438   2.703
 2453TIP3   OH2 7322   6.767   2.430   3.689
 2453TIP3    H1 7323   6.822   2.449   3.765
 2453TIP3    H2 7324   6.739   2.339   3.702
 2454TIP3   OH2 7325   0.778   6.166   5.797
 2454TIP3    H1 7326   0.706   6.104   5.809
 2454TIP3    H2 7327   0.816   6.142   5.712
 2455TIP3   OH2 7328   2.274   1.076   0.398
 2455TIP3    H1 7329   2.306   1.148   0.344
 2455TIP3    H2 7330   2.300   0.997   0.352
 2456TIP3   OH2 7331   0.058   4.173   2.989
 2456TIP3    H1 7332   0.118   4.208   2.924
 2456TIP3    H2 7333   0.024   4.250   3.034
 2457TIP3   OH2 7334   2.139   0.577   3.439
 2457TIP3    H1 7335   2.187   0.531   3.509
 2457TIP3    H2 7336   2.179   0.664   3.437
 2458TIP3   OH2 7337   0.133   3.919   0.409
 2458TIP3    H1 7338   0.190   3.842   0.417
 2458TIP3    H2 7339   0.185   3.991   0.445
 2459TIP3   OH2 7340   4.473   0.867   4.667
 2459TIP3    H1 7341   4.411   0.826   4.606
 2459TIP3    H2 7342   4.461   0.820   4.749
 2460TIP3   OH2 7343   6.528   6.540   0.295
 2460TIP3    H1 7344   6.484   6.480   0.234
 2460TIP3    H2 7345   6.496   6.514   0.381
 2461TIP3   OH2 7346   3.213   1.419   2.765
 2461TIP3    H1 7347   3.196   1.512   2.777
 2461TIP3    H2 7348   3.283   1.400   2.828
 2462TIP3   OH2 7349   2.272   2.893   3.824
 2462TIP3    H1 7350   2.183   2.867   3.846
 2462TIP3    H2 7351   2.287   2.854   3.737
 2463TIP3   OH2 7352   2.455   3.287   1.116
 2463TIP3    H1 7353   2.389   3.346   1.080
 2463TIP3    H2 7354   2.521   3.280   1.047
 2464TIP3   OH2 7355   3.733   6.224   4.793
 2464TIP3    H1 7356   3.645   6.233   4.757
 2464TIP3    H2 7357   3.739   6.131   4.817
 2465TIP3   OH2 7358   3.415   1.593   2.506
 2465TIP3    H1 7359   3.342   1.532   2.515
 2465TIP3    H2 7360   3.452   1.574   2.420
 2466TIP3   OH2 7361   0.913   2.424   2.350
 2466TIP3    H1 7362   0.851   2.351   2.347
 2466TIP3    H2 7363   0.939   2.438   2.259
 2467TIP3   OH2 7364   3.182   3.593   3.114
 2467TIP3    H1 7365   3.112   3.559   3.059
 2467TIP3    H2 7366   3.143   3.666   3.161
 2468TIP3   OH2 7367   4.257   2.650   1.147
 2468TIP3    H1 7368   4.183   2.670   1.204
 2468TIP3    H2 7369   4.288   2.735   1.118
 2469TIP3   OH2 7370   4.900   3.342   3.971
 2469TIP3    H1 7371   4.961   3.364   3.901
 2469TIP3    H2 7372   4.872   3.253   3.952
 2470TIP3   OH2 7373   5.500   4.352   0.774
 2470TIP3    H1 7374   5.458   4.438   0.774
 2470TIP3    H2 7375   5.429   4.290   0.760
 2471TIP3   OH2 7376   4.638   4.274   3.794
 2471TIP3    H1 7377   4.574   4.206   3.773
 2471TIP3    H2 7378   4.716   4.249   3.744
 2472TIP3   OH2 7379   2.475   2.365   0.343
 2472TIP3    H1 7380   2.446   2.399   0.258
 2472TIP3    H2 7381   2.517   2.439   0.386
 2473TIP3   OH2 7382   4.378   3.630   4.145
 2473TIP3    H1 7383   4.301   3.684   4.129
 2473TIP3    H2 7384   4.379   3.615   4.239
 2474TIP3   OH2 7385   2.887   1.236   5.001
 2474TIP3    H1 7386   2.913   1.328   4.998
 2474TIP3    H2 7387   2.959   1.192   5.047
 2475TIP3   OH2 7388   5.732   3.011   3.487
 2475TIP3    H1 7389   5.645   3.040   3.514
 2475TIP3    H2 7390   5.792   3.063   3.541
 2476TIP3   OH2 7391   2.131   2.254   5.591
 2476TIP3    H1 7392   2.208   2.199   5.607
 2476TIP3    H2 7393   2.130   2.267   5.496
 2477TIP3   OH2 7394   1.563   2.653   0.451
 2477TIP3    H1 7395   1.494   2.699   0.499
 2477TIP3    H2 7396   1.520   2.573   0.419
 2478TIP3   OH2 7397   5.422   3.655   5.684
 2478TIP3    H1 7398   5.485   3.672   5.754
 2478TIP3    H2 7399   5.475   3.622   5.612
 2479TIP3   OH2 7400   3.094   5.002   5.459
 2479TIP3    H1 7401   3.187   4.996   5.437
 2479TIP3    H2 7402   3.089   5.072   5.524
 2480TIP3   OH2 7403   2.520   1.678   1.012
 2480TIP3    H1 7404   2.574   1.667   0.934
 2480TIP3    H2 7405   2.479   1.764   1.002
 2481TIP3   OH2 7406   4.767   0.881   3.292
 2481TIP3    H1 7407   4.709   0.929   3.351
 2481TIP3    H2 7408   4.723   0.882   3.208
 2482TIP3   OH2 7409   6.010   0.766   4.218
 2482TIP3    H1 7410   6.090   0.740   4.265
 2482TIP3    H2 7411   6.042   0.827   4.150
 2483TIP3   OH2 7412   0.641   4.114   5.929
 2483TIP3    H1 7413   0.717   4.129   5.874
 2483TIP3    H2 7414   0.670   4.139   6.017
 2484TIP3   OH2 7415   1.974   4.372   2.747
 2484TIP3    H1 7416   1.969   4.449   2.805
 2484TIP3    H2 7417   1.904   4.315   2.778
 2485TIP3   OH2 7418   4.077   6.561   1.448
 2485TIP3    H1 7419   4.115   6.474   1.441
 2485TIP3    H2 7420   4.099   6.604   1.365
 2486TIP3   OH2 7421   4.152   0.523   2.889
 2486TIP3    H1 7422   4.187   0.592   2.832
 2486TIP3    H2 7423   4.222   0.458   2.894
 2487TIP3   OH2 7424   0.589   2.963   3.821
 2487TIP3    H1 7425   0.517   2.901   3.830
 2487TIP3    H2 7426   0.547   3.049   3.826
 2488TIP3   OH2 7427   5.384   4.587   4.317
 2488TIP3    H1 7428   5.300   4.553   4.285
 2488TIP3    H2 7429   5.411   4.651   4.252
 2489TIP3   OH2 7430   4.934   5.689   2.002
 2489TIP3    H1 7431   4.947   5.710   2.095
 2489TIP3    H2 7432   4.972   5.763   1.956
 2490TIP3   OH2 7433   7.039   4.457   4.223
 2490TIP3    H1 7434   7.032   4.500   4.138
 2490TIP3    H2 7435   7.086   4.519   4.278
 2491TIP3   OH2 7436   5.975   5.079   0.518
 2491TIP3    H1 7437   6.026   5.157   0.539
 2491TIP3    H2 7438   5.904   5.078   0.583
 2492TIP3   OH2 7439   6.402   5.757   1.165
 2492TIP3    H1 7440   6.472   5.805   1.208
 2492TIP3    H2 7441   6.348   5.723   1.237
 2493TIP3   OH2 7442   1.481   3.975   5.866
 2493TIP3    H1 7443   1.444   4.061   5.845
 2493TIP3    H2 7444   1.405   3.920   5.883
 2494TIP3   OH2 7445   4.698   1.174   1.617
 2494TIP3    H1 7446   4.756   1.250   1.605
 2494TIP3    H2 7447   4.721   1.140   1.704
 2495TIP3   OH2 7448   2.885   6.545   5.885
 2495TIP3    H1 7449   2.981   6.540   5.884
 2495TIP3    H2 7450   2.865   6.600   5.961
 2496TIP3   OH2 7451   5.050   4.405   0.744
 2496TIP3    H1 7452   4.983   4.472   0.725
 2496TIP3    H2 7453   5.032   4.378   0.834
 2497TIP3   OH2 7454   5.856   5.767   2.498
 2497TIP3    H1 7455   5.804   5.788   2.421
 2497TIP3    H2 7456   5.917   5.841   2.506
 2498TIP3   OH2 7457   5.874   4.707   5.529
 2498TIP3    H1 7458   5.916   4.707   5.615
 2498TIP3    H2 7459   5.815   4.782   5.531
 2499TIP3   OH2 7460   0.331   0.540   1.798
 2499TIP3    H1 7461   0.373   0.490   1.868
 2499TIP3    H2 7462   0.259   0.484   1.768
 2500TIP3   OH2 7463   5.164   1.337   2.291
 2500TIP3    H1 7464   5.213   1.254   2.293
 2500TIP3    H2 7465   5.158   1.363   2.383
 2501TIP3   OH2 7466   4.887   1.885   0.075
 2501TIP3    H1 7467   4.794   1.900   0.062
 2501TIP3    H2 7468   4.893   1.798   0.114
 2502TIP3   OH2 7469   3.034   6.045   1.066
 2502TIP3    H1 7470   3.026   6.077   1.156
 2502TIP3    H2 7471   3.126   6.022   1.056
 2503TIP3   OH2 7472   3.621   3.603   1.152
 2503TIP3    H1 7473   3.550   3.593   1.089
 2503TIP3    H2 7474   3.682   3.664   1.109
 2504TIP3   OH2 7475   6.256   5.842   5.871
 2504TIP3    H1 7476   6.164   5.837   5.844
 2504TIP3    H2 7477   6.289   5.921   5.828
 2505TIP3   OH2 7478   0.175   3.482   4.372
 2505TIP3    H1 7479   0.087   3.490   4.334
 2505TIP3    H2 7480   0.185   3.388   4.387
 2506TIP3   OH2 7481   5.111   2.874   2.896
 2506TIP3    H1 7482   5.188   2.841   2.850
 2506TIP3    H2 7483   5.144   2.908   2.979
 2507TIP3   OH2 7484   4.857   2.230   0.036
 2507TIP3    H1 7485   4.856   2.183  -0.048
 2507TIP3    H2 7486   4.819   2.315   0.016
 2508TIP3   OH2 7487   6.758   4.855   0.787
 2508TIP3    H1 7488   6.767   4.904   0.705
 2508TIP3    H2 7489   6.757   4.763   0.760
 2509TIP3   OH2 7490   4.606   5.939   5.653
 2509TIP3    H1 7491   4.539   5.874   5.629
 2509TIP3    H2 7492   4.659   5.948   5.574
 2510TIP3   OH2 7493   1.236   0.116   4.281
 2510TIP3    H1 7494   1.186   0.166   4.347
 2510TIP3    H2 7495   1.244   0.175   4.207
 2511TIP3   OH2 7496   2.630   5.629   3.022
 2511TIP3    H1 7497   2.598   5.553   3.071
 2511TIP3    H2 7498   2.558   5.653   2.964
 2512TIP3   OH2 7499   4.450   1.771   1.799
 2512TIP3    H1 7500   4.516   1.764   1.868
 2512TIP3    H2 7501   4.384   1.706   1.823
 2513TIP3   OH2 7502   2.544   0.185   4.050
 2513TIP3    H1 7503   2.594   0.207   3.971
 2513TIP3    H2 7504   2.608   0.146   4.109
 2514TIP3   OH2 7505   5.725   0.968   0.800
 2514TIP3    H1 7506   5.802   0.987   0.854
 2514TIP3    H2 7507   5.750   0.891   0.749
 2515TIP3   OH2 7508   7.028   0.773   4.686
 2515TIP3    H1 7509   6.966   0.788   4.758
 2515TIP3    H2 7510   7.002   0.689   4.649
 2516TIP3   OH2 7511   1.826   5.463   4.118
 2516TIP3    H1 7512   1.910   5.463   4.073
 2516TIP3    H2 7513   1.825   5.544   4.169
 2517TIP3   OH2 7514   4.637   0.615   3.952
 2517TIP3    H1 7515   4.594   0.567   3.881
 2517TIP3    H2 7516   4.601   0.577   4.032
 2518TIP3   OH2 7517   6.385   3.940   5.665
 2518TIP3    H1 7518   6.369   4.032   5.646
 2518TIP3    H2 7519   6.477   3.936   5.690
 2519TIP3   OH2 7520   5.750   3.468   2.408
 2519TIP3    H1 7521   5.794   3.488   2.491
 2519TIP3    H2 7522   5.701   3.387   2.426
 2520TIP3   OH2 7523   6.223   0.892   1.484
 2520TIP3    H1 7524   6.188   0.864   1.569
 2520TIP3    H2 7525   6.310   0.927   1.504
 2521TIP3   OH2 7526   2.325   4.334   3.729
 2521TIP3    H1 7527   2.280   4.392   3.667
 2521TIP3    H2 7528   2.417   4.338   3.703
 2522TIP3   OH2 7529   5.173   5.893   4.972
 2522TIP3    H1 7530   5.254   5.937   4.999
 2522TIP3    H2 7531   5.201   5.806   4.945
 2523TIP3   OH2 7532   4.373   5.915   4.906
 2523TIP3    H1 7533   4.359   5.991   4.962
 2523TIP3    H2 7534   4.434   5.947   4.838
 2524TIP3   OH2 7535   4.365   2.917   1.190
 2524TIP3    H1 7536   4.321   2.966   1.121
 2524TIP3    H2 7537   4.372   2.978   1.263
 2525TIP3   OH2 7538   7.041   0.514   0.402
 2525TIP3    H1 7539   7.074   0.471   0.481
 2525TIP3    H2 7540   7.079   0.602   0.406
 2526TIP3   OH2 7541   2.015   3.345   4.166
 2526TIP3    H1 7542   1.948   3.291   4.209
 2526TIP3    H2 7543   2.097   3.301   4.187
 2527TIP3   OH2 7544   0.330   1.714   0.175
 2527TIP3    H1 7545   0.268   1.783   0.150
 2527TIP3    H2 7546   0.359   1.677   0.091
 2528TIP3   OH2 7547   0.173   4.453   2.383
 2528TIP3    H1 7548   0.180   4.479   2.475
 2528TIP3    H2 7549   0.259   4.416   2.362
 2529TIP3   OH2 7550   2.971   5.875   2.989
 2529TIP3    H1 7551   2.999   5.892   2.899
 2529TIP3    H2 7552   2.993   5.955   3.037
 2530TIP3   OH2 7553   6.191   3.287   3.957
 2530TIP3    H1 7554   6.277   3.319   3.928
 2530TIP3    H2 7555   6.130   3.326   3.894
 2531TIP3   OH2 7556   4.885   2.503   1.285
 2531TIP3    H1 7557   4.844   2.483   1.201
 2531TIP3    H2 7558   4.914   2.594   1.277
 2532TIP3   OH2 7559   6.906   4.906   4.169
 2532TIP3    H1 7560   6.904   4.994   4.205
 2532TIP3    H2 7561   6.999   4.886   4.160
 2533TIP3   OH2 7562   6.182   5.452   4.844
 2533TIP3    H1 7563   6.186   5.534   4.893
 2533TIP3    H2 7564   6.272   5.437   4.816
 2534TIP3   OH2 7565   6.232   4.590   3.266
 2534TIP3    H1 7566   6.283   4.670   3.252
 2534TIP3    H2 7567   6.261   4.531   3.195
 2535TIP3   OH2 7568   5.395   5.174   1.782
 2535TIP3    H1 7569   5.334   5.210   1.717
 2535TIP3    H2 7570   5.343   5.110   1.831
 2536TIP3   OH2 7571   1.164   4.843   3.046
 2536TIP3    H1 7572   1.129   4.811   2.963
 2536TIP3    H2 7573   1.119   4.791   3.113
 2537TIP3   OH2 7574   3.633   2.459   3.714
 2537TIP3    H1 7575   3.625   2.479   3.808
 2537TIP3    H2 7576   3.727   2.468   3.695
 2538TIP3   OH2 7577   3.585   5.578   5.680
 2538TIP3    H1 7578   3.578   5.548   5.770
 2538TIP3    H2 7579   3.496   5.573   5.646
 2539TIP3   OH2 7580   0.814   3.208   4.150
 2539TIP3    H1 7581   0.801   3.288   4.201
 2539TIP3    H2 7582   0.862   3.237   4.072
 2540TIP3   OH2 7583   0.984   3.682   3.784
 2540TIP3    H1 7584   0.970   3.588   3.771
 2540TIP3    H2 7585   1.080   3.692   3.785
 2541TIP3   OH2 7586   2.116   2.285   3.040
 2541TIP3    H1 7587   2.037   2.233   3.022
 2541TIP3    H2 7588   2.107   2.311   3.131
 2542TIP3   OH2 7589   2.249   2.472   2.143
 2542TIP3    H1 7590   2.206   2.498   2.061
 2542TIP3    H2 7591   2.241   2.548   2.200
 2543TIP3   OH2 7592   1.739   4.170   2.753
 2543TIP3    H1 7593   1.723   4.088   2.799
 2543TIP3    H2 7594   1.661   4.223   2.772
 2544TIP3   OH2 7595   3.674   2.554   4.242
 2544TIP3    H1 7596   3.585   2.568   4.274
 2544TIP3    H2 7597   3.696   2.464   4.268
 2545TIP3   OH2 7598   1.286   4.913   0.171
 2545TIP3    H1 7599   1.201   4.918   0.127
 2545TIP3    H2 7600   1.297   4.820   0.192
 2546TIP3   OH2 7601   1.839   1.190   3.021
 2546TIP3    H1 7602   1.808   1.201   3.111
 2546TIP3    H2 7603   1.768   1.226   2.967
 2547TIP3   OH2 7604   2.667   4.637   1.046
 2547TIP3    H1 7605   2.637   4.718   1.004
 2547TIP3    H2 7606   2.723   4.596   0.980
 2548TIP3   OH2 7607   5.423   6.615   0.180
 2548TIP3    H1 7608   5.503   6.645   0.138
 2548TIP3    H2 7609   5.439   6.626   0.274
 2549TIP3   OH2 7610   2.814   4.062   5.612
 2549TIP3    H1 7611   2.909   4.068   5.611
 2549TIP3    H2 7612   2.786   4.084   5.523
 2550TIP3   OH2 7613   1.074   4.881   2.676
 2550TIP3    H1 7614   1.167   4.900   2.661
 2550TIP3    H2 7615   1.075   4.795   2.719
 2551TIP3   OH2 7616   3.880   2.918   4.337
 2551TIP3    H1 7617   3.886   2.828   4.304
 2551TIP3    H2 7618   3.914   2.972   4.266
 2552TIP3   OH2 7619   2.284   1.192   5.563
 2552TIP3    H1 7620   2.304   1.099   5.558
 2552TIP3    H2 7621   2.366   1.236   5.540
 2553TIP3   OH2 7622   3.860   1.770   3.103
 2553TIP3    H1 7623   3.778   1.819   3.092
 2553TIP3    H2 7624   3.846   1.688   3.055
 2554TIP3   OH2 7625   1.981   0.548   5.569
 2554TIP3    H1 7626   1.887   0.543   5.582
 2554TIP3    H2 7627   1.997   0.498   5.489
 2555TIP3   OH2 7628   4.355   2.409   4.182
 2555TIP3    H1 7629   4.264   2.381   4.181
 2555TIP3    H2 7630   4.405   2.328   4.199
 2556TIP3   OH2 7631   2.742   6.208   5.314
 2556TIP3    H1 7632   2.660   6.166   5.288
 2556TIP3    H2 7633   2.772   6.253   5.236
 2557TIP3   OH2 7634   1.258   1.479   0.551
 2557TIP3    H1 7635   1.312   1.409   0.587
 2557TIP3    H2 7636   1.304   1.507   0.472
 2558TIP3   OH2 7637   1.962   3.477   0.080
 2558TIP3    H1 7638   1.967   3.503  -0.012
 2558TIP3    H2 7639   1.869   3.478   0.100
 2559TIP3   OH2 7640   1.441   0.244   4.845
 2559TIP3    H1 7641   1.524   0.250   4.798
 2559TIP3    H2 7642   1.408   0.156   4.825
 2560TIP3   OH2 7643   4.836   0.461   2.893
 2560TIP3    H1 7644   4.765   0.474   2.956
 2560TIP3    H2 7645   4.915   0.455   2.947
 2561TIP3   OH2 7646   3.528   6.257   0.938
 2561TIP3    H1 7647   3.516   6.258   1.033
 2561TIP3    H2 7648   3.536   6.349   0.914
 2562TIP3   OH2 7649   0.959   2.140   4.277
 2562TIP3    H1 7650   0.990   2.202   4.344
 2562TIP3    H2 7651   0.930   2.195   4.205
 2563TIP3   OH2 7652   2.021   1.409   1.146
 2563TIP3    H1 7653   1.996   1.482   1.090
 2563TIP3    H2 7654   2.089   1.446   1.203
 2564TIP3   OH2 7655   3.864   1.397   1.603
 2564TIP3    H1 7656   3.799   1.424   1.538
 2564TIP3    H2 7657   3.865   1.301   1.599
 2565TIP3   OH2 7658   3.944   6.767   1.247
 2565TIP3    H1 7659   4.030   6.807   1.230
 2565TIP3    H2 7660   3.947   6.685   1.198
 2566TIP3   OH2 7661   0.404   1.822   0.595
 2566TIP3    H1 7662   0.425   1.851   0.506
 2566TIP3    H2 7663   0.309   1.812   0.596
 2567TIP3   OH2 7664   6.885   2.822   3.645
 2567TIP3    H1 7665   6.907   2.785   3.560
 2567TIP3    H2 7666   6.835   2.753   3.689
 2568TIP3   OH2 7667   0.653   1.329   0.599
 2568TIP3    H1 7668   0.706   1.308   0.522
 2568TIP3    H2 7669   0.585   1.388   0.565
 2569TIP3   OH2 7670   0.576   3.244   1.657
 2569TIP3    H1 7671   0.573   3.160   1.612
 2569TIP3    H2 7672   0.507   3.239   1.723
 2570TIP3   OH2 7673   6.109   1.877   2.386
 2570TIP3    H1 7674   6.074   1.966   2.378
 2570TIP3    H2 7675   6.043   1.831   2.438
 2571TIP3   OH2 7676   2.395   0.605   3.905
 2571TIP3    H1 7677   2.489   0.617   3.891
 2571TIP3    H2 7678   2.369   0.681   3.956
 2572TIP3   OH2 7679   4.460   4.684   2.812
 2572TIP3    H1 7680   4.515   4.606   2.823
 2572TIP3    H2 7681   4.392   4.675   2.879
 2573TIP3   OH2 7682   0.333   0.394   4.132
 2573TIP3    H1 7683   0.282   0.381   4.052
 2573TIP3    H2 7684   0.271   0.378   4.203
 2574TIP3   OH2 7685   1.293   2.348   3.408
 2574TIP3    H1 7686   1.200   2.367   3.411
 2574TIP3    H2 7687   1.334   2.412   3.465
 2575TIP3   OH2 7688   6.618   3.011   0.447
 2575TIP3    H1 7689   6.673   3.020   0.369
 2575TIP3    H2 7690   6.552   2.947   0.423
 2576TIP3   OH2 7691   6.885   0.859   5.146
 2576TIP3    H1 7692   6.834   0.778   5.134
 2576TIP3    H2 7693   6.950   0.837   5.212
 2577TIP3   OH2 7694   1.919   5.275   2.602
 2577TIP3    H1 7695   1.922   5.195   2.653
 2577TIP3    H2 7696   1.833   5.273   2.559
 2578TIP3   OH2 7697   2.595   6.192   4.946
 2578TIP3    H1 7698   2.635   6.179   4.860
 2578TIP3    H2 7699   2.597   6.105   4.987
 2579TIP3   OH2 7700   2.906   4.312   2.480
 2579TIP3    H1 7701   2.895   4.368   2.404
 2579TIP3    H2 7702   3.000   4.311   2.496
 2580TIP3   OH2 7703   6.231   3.474   0.225
 2580TIP3    H1 7704   6.144   3.441   0.202
 2580TIP3    H2 7705   6.229   3.481   0.321
 2581TIP3   OH2 7706   1.973   0.323   4.609
 2581TIP3    H1 7707   2.047   0.302   4.552
 2581TIP3    H2 7708   1.995   0.409   4.646
 2582TIP3   OH2 7709   4.240   4.715   4.039
 2582TIP3    H1 7710   4.151   4.689   4.062
 2582TIP3    H2 7711   4.281   4.636   4.005
 2583TIP3   OH2 7712   1.493   4.748   0.974
 2583TIP3    H1 7713   1.516   4.667   1.019
 2583TIP3    H2 7714   1.447   4.800   1.039
 2584TIP3   OH2 7715   3.863   6.373   2.072
 2584TIP3    H1 7716   3.858   6.441   2.005
 2584TIP3    H2 7717   3.829   6.294   2.029
 2585TIP3   OH2 7718   4.451   0.557   2.952
 2585TIP3    H1 7719   4.477   0.609   2.876
 2585TIP3    H2 7720   4.530   0.556   3.008
 2586TIP3   OH2 7721   6.037   4.226   1.245
 2586TIP3    H1 7722   5.963   4.242   1.302
 2586TIP3    H2 7723   6.008   4.156   1.186
 2587TIP3   OH2 7724   4.073   3.237   3.579
 2587TIP3    H1 7725   4.068   3.272   3.668
 2587TIP3    H2 7726   4.005   3.284   3.530
 2588TIP3   OH2 7727   1.729   2.234   5.349
 2588TIP3    H1 7728   1.769   2.218   5.434
 2588TIP3    H2 7729   1.780   2.181   5.288
 2589TIP3   OH2 7730   5.766   2.240   2.134
 2589TIP3    H1 7731   5.793   2.269   2.047
 2589TIP3    H2 7732   5.761   2.321   2.186
 2590TIP3   OH2 7733   0.479   0.215   3.837
 2590TIP3    H1 7734   0.387   0.232   3.861
 2590TIP3    H2 7735   0.519   0.186   3.919
 2591TIP3   OH2 7736   0.841   0.245   3.972
 2591TIP3    H1 7737   0.884   0.258   4.057
 2591TIP3    H2 7738   0.907   0.272   3.908
 2592TIP3   OH2 7739   5.820   3.809   2.963
 2592TIP3    H1 7740   5.882   3.830   3.033
 2592TIP3    H2 7741   5.792   3.894   2.929
 2593TIP3   OH2 7742   2.536   5.821   5.414
 2593TIP3    H1 7743   2.522   5.786   5.326
 2593TIP3    H2 7744   2.532   5.744   5.471
 2594TIP3   OH2 7745   6.237   4.966   0.342
 2594TIP3    H1 7746   6.325   4.955   0.378
 2594TIP3    H2 7747   6.180   4.969   0.419
 2595TIP3   OH2 7748   1.721   5.130   3.556
 2595TIP3    H1 7749   1.787   5.067   3.584
 2595TIP3    H2 7750   1.663   5.081   3.498
 2596TIP3   OH2 7751   2.773   2.657   4.444
 2596TIP3    H1 7752   2.816   2.596   4.504
 2596TIP3    H2 7753   2.681   2.655   4.469
 2597TIP3   OH2 7754   4.477   2.363   3.472
 2597TIP3    H1 7755   4.395   2.316   3.459
 2597TIP3    H2 7756   4.451   2.455   3.479
 2598TIP3   OH2 7757   6.078   6.176   0.123
 2598TIP3    H1 7758   6.064   6.082   0.108
 2598TIP3    H2 7759   6.027   6.196   0.201
 2599TIP3   OH2 7760   6.971   2.609   0.901
 2599TIP3    H1 7761   6.962   2.543   0.970
 2599TIP3    H2 7762   6.916   2.577   0.830
 2600TIP3   OH2 7763   4.302   2.720   1.817
 2600TIP3    H1 7764   4.383   2.704   1.866
 2600TIP3    H2 7765   4.289   2.641   1.765
 2601TIP3   OH2 7766   5.391   0.541   1.271
 2601TIP3    H1 7767   5.374   0.597   1.347
 2601TIP3    H2 7768   5.419   0.601   1.202
 2602TIP3   OH2 7769   1.945   1.713   2.892
 2602TIP3    H1 7770   1.956   1.689   2.984
 2602TIP3    H2 7771   2.034   1.712   2.856
 2603TIP3   OH2 7772   7.138   0.116   5.398
 2603TIP3    H1 7773   7.210   0.177   5.415
 2603TIP3    H2 7774   7.061   0.173   5.389
 2604TIP3   OH2 7775   5.161   5.674   2.354
 2604TIP3    H1 7776   5.067   5.676   2.338
 2604TIP3    H2 7777   5.180   5.583   2.377
 2605TIP3   OH2 7778   5.428   5.419   3.879
 2605TIP3    H1 7779   5.454   5.379   3.962
 2605TIP3    H2 7780   5.486   5.379   3.815
 2606TIP3   OH2 7781   5.329   6.322   0.318
 2606TIP3    H1 7782   5.395   6.260   0.349
 2606TIP3    H2 7783   5.379   6.392   0.277
 2607TIP3   OH2 7784   7.029   2.136   0.322
 2607TIP3    H1 7785   6.966   2.207   0.328
 2607TIP3    H2 7786   7.114   2.180   0.318
 2608TIP3   OH2 7787   2.121   3.671   2.131
 2608TIP3    H1 7788   2.117   3.670   2.035
 2608TIP3    H2 7789   2.197   3.726   2.150
 2609TIP3   OH2 7790   1.638   4.836   4.120
 2609TIP3    H1 7791   1.699   4.766   4.095
 2609TIP3    H2 7792   1.657   4.907   4.059
 2610TIP3   OH2 7793   4.191   2.635   5.059
 2610TIP3    H1 7794   4.170   2.625   4.966
 2610TIP3    H2 7795   4.256   2.567   5.076
 2611TIP3   OH2 7796   3.794   1.237   0.129
 2611TIP3    H1 7797   3.709   1.209   0.164
 2611TIP3    H2 7798   3.820   1.309   0.187
 2612TIP3   OH2 7799   0.498   2.290   1.185
 2612TIP3    H1 7800   0.483   2.195   1.193
 2612TIP3    H2 7801   0.554   2.298   1.108
 2613TIP3   OH2 7802   7.202   3.673   5.849
 2613TIP3    H1 7803   7.202   3.678   5.944
 2613TIP3    H2 7804   7.258   3.746   5.821
 2614TIP3   OH2 7805   0.327   0.815   3.516
 2614TIP3    H1 7806   0.272   0.752   3.469
 2614TIP3    H2 7807   0.385   0.852   3.449
 2615TIP3   OH2 7808   6.275   1.337   1.314
 2615TIP3    H1 7809   6.237   1.313   1.399
 2615TIP3    H2 7810   6.309   1.254   1.279
 2616TIP3   OH2 7811   5.280   1.733   0.052
 2616TIP3    H1 7812   5.281   1.664   0.118
 2616TIP3    H2 7813   5.288   1.687  -0.032
 2617TIP3   OH2 7814   1.984   0.670   1.778
 2617TIP3    H1 7815   2.026   0.662   1.692
 2617TIP3    H2 7816   1.974   0.764   1.791
 2618TIP3   OH2 7817   4.706   1.653   0.404
 2618TIP3    H1 7818   4.679   1.610   0.485
 2618TIP3    H2 7819   4.739   1.738   0.432
 2619TIP3   OH2 7820   3.427   2.232   3.942
 2619TIP3    H1 7821   3.395   2.270   3.860
 2619TIP3    H2 7822   3.353   2.240   4.002
 2620TIP3   OH2 7823   6.747   2.323   1.575
 2620TIP3    H1 7824   6.770   2.407   1.615
 2620TIP3    H2 7825   6.773   2.333   1.483
 2621TIP3   OH2 7826   4.435   1.361   0.273
 2621TIP3    H1 7827   4.508   1.410   0.234
 2621TIP3    H2 7828   4.407   1.301   0.204
 2622TIP3   OH2 7829   6.318   2.354   1.789
 2622TIP3    H1 7830   6.325   2.306   1.871
 2622TIP3    H2 7831   6.255   2.423   1.806
 2623TIP3   OH2 7832   1.030   2.151   1.550
 2623TIP3    H1 7833   1.113   2.110   1.574
 2623TIP3    H2 7834   1.032   2.155   1.454
 2624TIP3   OH2 7835   2.307   5.358   1.859
 2624TIP3    H1 7836   2.344   5.284   1.907
 2624TIP3    H2 7837   2.381   5.395   1.810
 2625TIP3   OH2 7838   6.587   2.675   2.756
 2625TIP3    H1 7839   6.636   2.603   2.797
 2625TIP3    H2 7840   6.648   2.715   2.695
 2626TIP3   OH2 7841   1.783   2.320   3.334
 2626TIP3    H1 7842   1.859   2.333   3.276
 2626TIP3    H2 7843   1.812   2.354   3.418
 2627TIP3   OH2 7844   1.177   5.732   4.359
 2627TIP3    H1 7845   1.149   5.807   4.306
 2627TIP3    H2 7846   1.123   5.659   4.328
 2628TIP3   OH2 7847   1.038   1.019   5.409
 2628TIP3    H1 7848   1.086   0.942   5.378
 2628TIP3    H2 7849   1.069   1.033   5.498
 2629TIP3   OH2 7850   1.959   3.097   1.827
 2629TIP3    H1 7851   2.009   3.018   1.847
 2629TIP3    H2 7852   1.904   3.072   1.752
 2630TIP3   OH2 7853   6.349   2.684   5.807
 2630TIP3    H1 7854   6.436   2.667   5.843
 2630TIP3    H2 7855   6.363   2.750   5.739
 2631TIP3   OH2 7856   0.972   0.656   5.136
 2631TIP3    H1 7857   0.914   0.693   5.070
 2631TIP3    H2 7858   1.058   0.655   5.094
 2632TIP3   OH2 7859   4.180   1.300   3.963
 2632TIP3    H1 7860   4.169   1.356   4.039
 2632TIP3    H2 7861   4.264   1.257   3.977
 2633TIP3   OH2 7862   6.949   2.045   4.044
 2633TIP3    H1 7863   7.043   2.025   4.036
 2633TIP3    H2 7864   6.905   1.961   4.038
 2634TIP3   OH2 7865   6.334   6.200   1.050
 2634TIP3    H1 7866   6.302   6.172   0.964
 2634TIP3    H2 7867   6.322   6.123   1.106
 2635TIP3   OH2 7868   3.115   4.334   0.603
 2635TIP3    H1 7869   3.133   4.310   0.695
 2635TIP3    H2 7870   3.149   4.260   0.553
 2636TIP3   OH2 7871  -0.024   3.294   3.494
 2636TIP3    H1 7872  -0.110   3.298   3.452
 2636TIP3    H2 7873  -0.001   3.385   3.511
 2637TIP3   OH2 7874   0.204   6.473   3.870
 2637TIP3    H1 7875   0.235   6.562   3.852
 2637TIP3    H2 7876   0.257   6.417   3.813
 2638TIP3   OH2 7877   4.729   3.481   3.040
 2638TIP3    H1 7878   4.810   3.432   3.031
 2638TIP3    H2 7879   4.752   3.570   3.014
 2639TIP3   OH2 7880   1.953   2.990   3.428
 2639TIP3    H1 7881   1.940   3.085   3.429
 2639TIP3    H2 7882   1.948   2.964   3.521
 2640TIP3   OH2 7883   6.937   4.715   0.495
 2640TIP3    H1 7884   6.872   4.683   0.431
 2640TIP3    H2 7885   7.021   4.683   0.462
 2641TIP3   OH2 7886   5.263   4.622   0.062
 2641TIP3    H1 7887   5.239   4.715   0.056
 2641TIP3    H2 7888   5.192   4.577   0.016
 2642TIP3   OH2 7889   0.516   3.029   0.381
 2642TIP3    H1 7890   0.518   2.980   0.298
 2642TIP3    H2 7891   0.508   3.120   0.354
 2643TIP3   OH2 7892   4.493   0.757   1.302
 2643TIP3    H1 7893   4.519   0.671   1.271
 2643TIP3    H2 7894   4.567   0.789   1.353
 2644TIP3   OH2 7895   5.805   1.014   4.678
 2644TIP3    H1 7896   5.732   1.041   4.734
 2644TIP3    H2 7897   5.775   0.932   4.638
 2645TIP3   OH2 7898   4.100   5.309   2.181
 2645TIP3    H1 7899   4.193   5.318   2.163
 2645TIP3    H2 7900   4.068   5.248   2.114
 2646TIP3   OH2 7901   3.907   1.891   2.418
 2646TIP3    H1 7902   3.993   1.925   2.392
 2646TIP3    H2 7903   3.899   1.913   2.510
 2647TIP3   OH2 7904   3.493   4.832   0.683
 2647TIP3    H1 7905   3.490   4.773   0.608
 2647TIP3    H2 7906   3.403   4.862   0.695
 2648TIP3   OH2 7907   4.271   1.795   4.954
 2648TIP3    H1 7908   4.297   1.721   4.899
 2648TIP3    H2 7909   4.180   1.813   4.928
 2649TIP3   OH2 7910   4.391   5.600   2.621
 2649TIP3    H1 7911   4.430   5.564   2.541
 2649TIP3    H2 7912   4.371   5.523   2.674
 2650TIP3   OH2 7913   3.839   5.004   0.715
 2650TIP3    H1 7914   3.750   5.037   0.722
 2650TIP3    H2 7915   3.885   5.044   0.789
 2651TIP3   OH2 7916   5.947   0.375   3.906
 2651TIP3    H1 7917   5.942   0.284   3.877
 2651TIP3    H2 7918   5.993   0.370   3.991
 2652TIP3   OH2 7919   5.725   2.846   2.171
 2652TIP3    H1 7920   5.764   2.928   2.141
 2652TIP3    H2 7921   5.713   2.858   2.265
 2653TIP3   OH2 7922   5.908   5.853   0.387
 2653TIP3    H1 7923   5.823   5.873   0.428
 2653TIP3    H2 7924   5.967   5.837   0.461
 2654TIP3   OH2 7925   3.171   3.450   4.027
 2654TIP3    H1 7926   3.135   3.364   4.007
 2654TIP3    H2 7927   3.171   3.455   4.122
 2655TIP3   OH2 7928   6.512   4.212   1.072
 2655TIP3    H1 7929   6.564   4.232   1.151
 2655TIP3    H2 7930   6.577   4.188   1.006
 2656TIP3   OH2 7931   0.705   3.863   2.874
 2656TIP3    H1 7932   0.799   3.870   2.887
 2656TIP3    H2 7933   0.686   3.922   2.801
 2657TIP3   OH2 7934   1.304   6.353   2.556
 2657TIP3    H1 7935   1.313   6.283   2.492
 2657TIP3    H2 7936   1.366   6.331   2.625
 2658TIP3   OH2 7937   6.795   6.591   5.059
 2658TIP3    H1 7938   6.807   6.686   5.063
 2658TIP3    H2 7939   6.710   6.576   5.099
 2659TIP3   OH2 7940   2.237   2.928   0.900
 2659TIP3    H1 7941   2.261   2.965   0.985
 2659TIP3    H2 7942   2.314   2.878   0.873
 2660TIP3   OH2 7943   5.436   1.549   0.751
 2660TIP3    H1 7944   5.427   1.626   0.807
 2660TIP3    H2 7945   5.355   1.500   0.763
 2661TIP3   OH2 7946   0.651   3.570   0.287
 2661TIP3    H1 7947   0.691   3.517   0.356
 2661TIP3    H2 7948   0.679   3.528   0.206
 2662TIP3   OH2 7949   5.703   2.767   3.640
 2662TIP3    H1 7950   5.779   2.766   3.698
 2662TIP3    H2 7951   5.706   2.854   3.599
 2663TIP3   OH2 7952   3.558   6.178   4.001
 2663TIP3    H1 7953   3.478   6.223   3.973
 2663TIP3    H2 7954   3.620   6.248   4.020
 2664TIP3   OH2 7955   5.780   0.449   0.585
 2664TIP3    H1 7956   5.861   0.413   0.620
 2664TIP3    H2 7957   5.800   0.472   0.495
 2665TIP3   OH2 7958   0.450   1.360   0.057
 2665TIP3    H1 7959   0.408   1.277   0.036
 2665TIP3    H2 7960   0.419   1.421  -0.011
 2666TIP3   OH2 7961   5.909   0.663   5.329
 2666TIP3    H1 7962   5.833   0.720   5.340
 2666TIP3    H2 7963   5.936   0.641   5.418
 2667TIP3   OH2 7964   4.201   0.334   4.452
 2667TIP3    H1 7965   4.140   0.297   4.516
 2667TIP3    H2 7966   4.187   0.282   4.373
 2668TIP3   OH2 7967   6.521   2.106   3.938
 2668TIP3    H1 7968   6.508   2.023   3.983
 2668TIP3    H2 7969   6.525   2.082   3.845
 2669TIP3   OH2 7970   3.562   2.317   5.769
 2669TIP3    H1 7971   3.618   2.270   5.831
 2669TIP3    H2 7972   3.478   2.271   5.774
 2670TIP3   OH2 7973   2.896   0.758   0.641
 2670TIP3    H1 7974   2.828   0.697   0.613
 2670TIP3    H2 7975   2.855   0.844   0.636
 2671TIP3   OH2 7976   1.173   3.553   1.613
 2671TIP3    H1 7977   1.092   3.600   1.592
 2671TIP3    H2 7978   1.157   3.464   1.581
 2672TIP3   OH2 7979   0.846   6.696   3.481
 2672TIP3    H1 7980   0.908   6.639   3.526
 2672TIP3    H2 7981   0.896   6.775   3.461
 2673TIP3   OH2 7982   4.683   5.260   3.458
 2673TIP3    H1 7983   4.724   5.337   3.418
 2673TIP3    H2 7984   4.593   5.287   3.477
 2674TIP3   OH2 7985   4.205   0.550   3.141
 2674TIP3    H1 7986   4.167   0.554   3.054
 2674TIP3    H2 7987   4.297   0.575   3.129
 2675TIP3   OH2 7988   4.323   4.967   0.203
 2675TIP3    H1 7989   4.306   4.882   0.243
 2675TIP3    H2 7990   4.358   4.946   0.117
 2676TIP3   OH2 7991   0.409   5.980   4.513
 2676TIP3    H1 7992   0.475   5.960   4.447
 2676TIP3    H2 7993   0.373   5.895   4.539
 2677TIP3   OH2 7994   6.782   2.748   5.731
 2677TIP3    H1 7995   6.875   2.750   5.708
 2677TIP3    H2 7996   6.754   2.839   5.728
 2678TIP3   OH2 7997   6.230   1.700   0.803
 2678TIP3    H1 7998   6.223   1.780   0.854
 2678TIP3    H2 7999   6.160   1.706   0.738
 2679TIP3   OH2 8000   6.877  -0.034   5.455
 2679TIP3    H1 8001   6.842  -0.095   5.519
 2679TIP3    H2 8002   6.970  -0.026   5.477
 2680TIP3   OH2 8003   5.650   4.147   0.896
 2680TIP3    H1 8004   5.726   4.149   0.837
 2680TIP3    H2 8005   5.592   4.216   0.864
 2681TIP3   OH2 8006   2.599   5.747   0.719
 2681TIP3    H1 8007   2.670   5.805   0.748
 2681TIP3    H2 8008   2.573   5.700   0.798
 2682TIP3   OH2 8009   1.372   3.737   1.530
 2682TIP3    H1 8010   1.455   3.718   1.574
 2682TIP3    H2 8011   1.314   3.666   1.556
 2683TIP3   OH2 8012   7.003   6.027   2.251
 2683TIP3    H1 8013   7.049   6.070   2.323
 2683TIP3    H2 8014   6.936   6.090   2.225
 2684TIP3   OH2 8015   1.658   4.967   0.042
 2684TIP3    H1 8016   1.620   4.895  -0.008
 2684TIP3    H2 8017   1.610   4.965   0.125
 2685TIP3   OH2 8018   4.111   6.824   2.986
 2685TIP3    H1 8019   4.016   6.833   2.978
 2685TIP3    H2 8020   4.124   6.779   3.070
 2686TIP3   OH2 8021   4.006   5.373   4.468
 2686TIP3    H1 8022   3.931   5.412   4.514
 2686TIP3    H2 8023   4.053   5.447   4.431
 2687TIP3   OH2 8024   3.038   1.763   3.092
 2687TIP3    H1 8025   2.946   1.788   3.092
 2687TIP3    H2 8026   3.085   1.846   3.102
 2688TIP3   OH2 8027   5.824   3.331   4.046
 2688TIP3    H1 8028   5.886   3.297   3.981
 2688TIP3    H2 8029   5.875   3.398   4.094
 2689TIP3   OH2 8030   3.368   6.314   2.116
 2689TIP3    H1 8031   3.390   6.407   2.116
 2689TIP3    H2 8032   3.408   6.280   2.196
 2690TIP3   OH2 8033   2.568   5.447   4.725
 2690TIP3    H1 8034   2.539   5.532   4.691
 2690TIP3    H2 8035   2.657   5.464   4.758
 2691TIP3   OH2 8036   0.249   2.398   4.882
 2691TIP3    H1 8037   0.157   2.372   4.878
 2691TIP3    H2 8038   0.275   2.406   4.790
 2692TIP3   OH2 8039   6.051   1.769   0.591
 2692TIP3    H1 8040   6.081   1.858   0.574
 2692TIP3    H2 8041   6.092   1.716   0.524
 2693TIP3   OH2 8042   2.759   2.315   2.176
 2693TIP3    H1 8043   2.675   2.360   2.170
 2693TIP3    H2 8044   2.752   2.264   2.257
 2694TIP3   OH2 8045   4.604   6.187   5.792
 2694TIP3    H1 8046   4.567   6.129   5.858
 2694TIP3    H2 8047   4.611   6.133   5.713
 2695TIP3   OH2 8048   3.003   0.781   4.547
 2695TIP3    H1 8049   3.084   0.809   4.592
 2695TIP3    H2 8050   3.031   0.758   4.459
 2696TIP3   OH2 8051   4.685   5.390   4.561
 2696TIP3    H1 8052   4.698   5.478   4.596
 2696TIP3    H2 8053   4.743   5.386   4.485
 2697TIP3   OH2 8054   5.024   4.272   2.368
 2697TIP3    H1 8055   5.024   4.232   2.455
 2697TIP3    H2 8056   5.063   4.205   2.311
 2698TIP3   OH2 8057   3.004   1.054   4.297
 2698TIP3    H1 8058   3.016   0.960   4.285
 2698TIP3    H2 8059   3.030   1.092   4.213
 2699TIP3   OH2 8060   4.566   0.414   1.786
 2699TIP3    H1 8061   4.621   0.341   1.815
 2699TIP3    H2 8062   4.558   0.402   1.692
 2700TIP3   OH2 8063   0.493   5.905   2.764
 2700TIP3    H1 8064   0.548   5.983   2.767
 2700TIP3    H2 8065   0.528   5.854   2.691
 2701TIP3   OH2 8066   0.164   3.539   3.568
 2701TIP3    H1 8067   0.151   3.631   3.545
 2701TIP3    H2 8068   0.157   3.537   3.664
 2702TIP3   OH2 8069   6.558   2.273   0.323
 2702TIP3    H1 8070   6.507   2.200   0.289
 2702TIP3    H2 8071   6.525   2.285   0.412
 2703TIP3   OH2 8072   2.015   2.826   1.451
 2703TIP3    H1 8073   1.934   2.795   1.409
 2703TIP3    H2 8074   2.084   2.774   1.410
 2704TIP3   OH2 8075   3.798   1.102   0.502
 2704TIP3    H1 8076   3.827   1.015   0.477
 2704TIP3    H2 8077   3.732   1.087   0.570
 2705TIP3   OH2 8078   6.675   3.007   3.660
 2705TIP3    H1 8079   6.595   2.968   3.626
 2705TIP3    H2 8080   6.738   2.935   3.660
 2706TIP3   OH2 8081   4.948   3.680   1.680
 2706TIP3    H1 8082   4.908   3.720   1.602
 2706TIP3    H2 8083   4.925   3.588   1.674
 2707TIP3   OH2 8084   5.956   5.305   4.013
 2707TIP3    H1 8085   6.017   5.348   3.953
 2707TIP3    H2 8086   5.994   5.319   4.100
 2708TIP3   OH2 8087   6.218   0.306   2.931
 2708TIP3    H1 8088   6.292   0.293   2.872
 2708TIP3    H2 8089   6.217   0.227   2.985
 2709TIP3   OH2 8090   4.383   5.325   2.100
 2709TIP3    H1 8091   4.441   5.397   2.074
 2709TIP3    H2 8092   4.442   5.259   2.138
 2710TIP3   OH2 8093   3.190   6.054   4.480
 2710TIP3    H1 8094   3.188   6.137   4.433
 2710TIP3    H2 8095   3.178   6.077   4.572
 2711TIP3   OH2 8096   3.921   0.984   3.896
 2711TIP3    H1 8097   3.952   0.906   3.850
 2711TIP3    H2 8098   3.935   1.055   3.833
 2712TIP3   OH2 8099   5.321   2.908   3.173
 2712TIP3    H1 8100   5.260   2.921   3.245
 2712TIP3    H2 8101   5.376   2.986   3.173
 2713TIP3   OH2 8102   0.753   5.547   0.476
 2713TIP3    H1 8103   0.752   5.515   0.386
 2713TIP3    H2 8104   0.846   5.563   0.495
 2714TIP3   OH2 8105   1.902   5.203   1.421
 2714TIP3    H1 8106   1.848   5.215   1.500
 2714TIP3    H2 8107   1.876   5.117   1.387
 2715TIP3   OH2 8108   5.855   4.834   2.981
 2715TIP3    H1 8109   5.780   4.780   3.008
 2715TIP3    H2 8110   5.891   4.788   2.906
 2716TIP3   OH2 8111   2.179   5.651   0.509
 2716TIP3    H1 8112   2.194   5.724   0.568
 2716TIP3    H2 8113   2.142   5.691   0.430
 2717TIP3   OH2 8114   6.508   0.466   2.334
 2717TIP3    H1 8115   6.444   0.493   2.399
 2717TIP3    H2 8116   6.592   0.472   2.379
 2718TIP3   OH2 8117   3.300   6.217   2.801
 2718TIP3    H1 8118   3.286   6.303   2.762
 2718TIP3    H2 8119   3.215   6.173   2.792
 2719TIP3   OH2 8120   0.849   6.155   3.397
 2719TIP3    H1 8121   0.938   6.134   3.425
 2719TIP3    H2 8122   0.850   6.250   3.385
 2720TIP3   OH2 8123   2.752   2.906   0.155
 2720TIP3    H1 8124   2.715   2.820   0.138
 2720TIP3    H2 8125   2.807   2.925   0.079
 2721TIP3   OH2 8126   4.088   1.481   3.133
 2721TIP3    H1 8127   4.153   1.546   3.108
 2721TIP3    H2 8128   4.047   1.454   3.051
 2722TIP3   OH2 8129   1.850   3.180   2.571
 2722TIP3    H1 8130   1.778   3.239   2.590
 2722TIP3    H2 8131   1.916   3.235   2.529
 2723TIP3   OH2 8132   3.644   3.492   3.991
 2723TIP3    H1 8133   3.605   3.548   3.925
 2723TIP3    H2 8134   3.574   3.477   4.054
 2724TIP3   OH2 8135   1.498   0.115   3.927
 2724TIP3    H1 8136   1.550   0.117   4.007
 2724TIP3    H2 8137   1.464   0.026   3.923
 2725TIP3   OH2 8138   7.085   1.225   3.747
 2725TIP3    H1 8139   7.164   1.276   3.728
 2725TIP3    H2 8140   7.058   1.189   3.663
 2726TIP3   OH2 8141   4.728   3.500   3.734
 2726TIP3    H1 8142   4.740   3.445   3.657
 2726TIP3    H2 8143   4.721   3.439   3.807
 2727TIP3   OH2 8144   2.658   4.969   4.684
 2727TIP3    H1 8145   2.622   4.890   4.643
 2727TIP3    H2 8146   2.600   5.040   4.655
 2728TIP3   OH2 8147   6.337   4.015   3.795
 2728TIP3    H1 8148   6.254   3.981   3.762
 2728TIP3    H2 8149   6.380   4.054   3.718
 2729TIP3   OH2 8150   4.806   4.301   1.867
 2729TIP3    H1 8151   4.834   4.213   1.893
 2729TIP3    H2 8152   4.844   4.359   1.934
 2730TIP3   OH2 8153   4.865   5.255   1.728
 2730TIP3    H1 8154   4.772   5.255   1.703
 2730TIP3    H2 8155   4.910   5.297   1.654
 2731TIP3   OH2 8156   2.198   0.285   2.581
 2731TIP3    H1 8157   2.120   0.328   2.615
 2731TIP3    H2 8158   2.245   0.354   2.534
 2732TIP3   OH2 8159   0.932   0.470   3.318
 2732TIP3    H1 8160   0.856   0.509   3.275
 2732TIP3    H2 8161   1.003   0.478   3.254
 2733TIP3   OH2 8162   7.210   6.204   2.342
 2733TIP3    H1 8163   7.161   6.268   2.394
 2733TIP3    H2 8164   7.249   6.256   2.272
 2734TIP3   OH2 8165   7.028   4.527   3.958
 2734TIP3    H1 8166   7.022   4.617   3.924
 2734TIP3    H2 8167   7.003   4.472   3.884
 2735TIP3   OH2 8168   3.023   3.161   0.458
 2735TIP3    H1 8169   3.101   3.215   0.444
 2735TIP3    H2 8170   3.057   3.078   0.491
 2736TIP3   OH2 8171   3.957   4.444   2.924
 2736TIP3    H1 8172   4.047   4.477   2.923
 2736TIP3    H2 8173   3.928   4.453   3.014
 2737TIP3   OH2 8174   4.859   2.753   5.854
 2737TIP3    H1 8175   4.770   2.786   5.843
 2737TIP3    H2 8176   4.894   2.747   5.765
 2738TIP3   OH2 8177   3.717   5.806   1.290
 2738TIP3    H1 8178   3.708   5.717   1.324
 2738TIP3    H2 8179   3.664   5.860   1.347
 2739TIP3   OH2 8180   6.852   0.849   2.668
 2739TIP3    H1 8181   6.890   0.840   2.755
 2739TIP3    H2 8182   6.926   0.836   2.608
 2740TIP3   OH2 8183   1.169   5.889   3.568
 2740TIP3    H1 8184   1.238   5.841   3.523
 2740TIP3    H2 8185   1.098   5.826   3.577
 2741TIP3   OH2 8186   4.450   5.374   3.554
 2741TIP3    H1 8187   4.436   5.452   3.501
 2741TIP3    H2 8188   4.390   5.384   3.628
 2742TIP3   OH2 8189   1.283   6.382   1.183
 2742TIP3    H1 8190   1.378   6.382   1.168
 2742TIP3    H2 8191   1.257   6.290   1.173
 2743TIP3   OH2 8192   1.555   4.784   1.612
 2743TIP3    H1 8193   1.604   4.862   1.636
 2743TIP3    H2 8194   1.468   4.816   1.589
 2744TIP3   OH2 8195   1.263   6.708   2.776
 2744TIP3    H1 8196   1.307   6.690   2.693
 2744TIP3    H2 8197   1.207   6.783   2.758
 2745TIP3   OH2 8198   0.839   4.270   4.171
 2745TIP3    H1 8199   0.872   4.265   4.261
 2745TIP3    H2 8200   0.911   4.310   4.122
 2746TIP3   OH2 8201   5.581   6.488   4.583
 2746TIP3    H1 8202   5.628   6.407   4.604
 2746TIP3    H2 8203   5.525   6.503   4.659
 2747TIP3   OH2 8204   1.111   0.645   2.175
 2747TIP3    H1 8205   1.081   0.630   2.085
 2747TIP3    H2 8206   1.184   0.584   2.187
 2748TIP3   OH2 8207   7.197   2.337   0.391
 2748TIP3    H1 8208   7.140   2.376   0.457
 2748TIP3    H2 8209   7.207   2.404   0.324
 2749TIP3   OH2 8210   2.491   3.800   5.635
 2749TIP3    H1 8211   2.420   3.822   5.575
 2749TIP3    H2 8212   2.460   3.826   5.721
 2750TIP3   OH2 8213   5.937   2.610   0.618
 2750TIP3    H1 8214   5.990   2.541   0.657
 2750TIP3    H2 8215   5.939   2.591   0.524
 2751TIP3   OH2 8216   0.932   1.460   1.498
 2751TIP3    H1 8217   1.011   1.406   1.499
 2751TIP3    H2 8218   0.872   1.416   1.558
 2752TIP3   OH2 8219   6.048   3.401   3.753
 2752TIP3    H1 8220   6.108   3.436   3.687
 2752TIP3    H2 8221   5.993   3.475   3.777
 2753TIP3   OH2 8222   6.936   1.375   2.173
 2753TIP3    H1 8223   7.013   1.417   2.210
 2753TIP3    H2 8224   6.912   1.307   2.236
 2754TIP3   OH2 8225   2.696   0.325   0.835
 2754TIP3    H1 8226   2.618   0.316   0.889
 2754TIP3    H2 8227   2.670   0.385   0.765
 2755TIP3   OH2 8228   3.729   5.961   2.461
 2755TIP3    H1 8229   3.799   5.897   2.449
 2755TIP3    H2 8230   3.770   6.045   2.440
 2756TIP3   OH2 8231   5.428   4.372   3.780
 2756TIP3    H1 8232   5.374   4.449   3.760
 2756TIP3    H2 8233   5.376   4.297   3.751
 2757TIP3   OH2 8234   1.309   5.306   3.527
 2757TIP3    H1 8235   1.355   5.237   3.574
 2757TIP3    H2 8236   1.244   5.339   3.589
 2758TIP3   OH2 8237   6.719   2.321   4.927
 2758TIP3    H1 8238   6.680   2.237   4.950
 2758TIP3    H2 8239   6.645   2.380   4.914
 2759TIP3   OH2 8240   4.793   1.712   1.421
 2759TIP3    H1 8241   4.860   1.779   1.431
 2759TIP3    H2 8242   4.711   1.759   1.437
 2760TIP3   OH2 8243   1.886   0.332   1.215
 2760TIP3    H1 8244   1.974   0.334   1.251
 2760TIP3    H2 8245   1.849   0.249   1.245
 2761TIP3   OH2 8246   0.653   1.212   0.941
 2761TIP3    H1 8247   0.654   1.307   0.928
 2761TIP3    H2 8248   0.729   1.180   0.892
 2762TIP3   OH2 8249   2.290   0.339   3.944
 2762TIP3    H1 8250   2.355   0.323   3.875
 2762TIP3    H2 8251   2.322   0.417   3.989
 2763TIP3   OH2 8252   5.500   1.441   4.643
 2763TIP3    H1 8253   5.594   1.454   4.658
 2763TIP3    H2 8254   5.490   1.438   4.548
 2764TIP3   OH2 8255   7.247   5.069   1.311
 2764TIP3    H1 8256   7.155   5.044   1.318
 2764TIP3    H2 8257   7.291   4.990   1.280
 2765TIP3   OH2 8258   2.701   3.468   2.945
 2765TIP3    H1 8259   2.700   3.399   2.878
 2765TIP3    H2 8260   2.723   3.548   2.896
 2766TIP3   OH2 8261   2.752   1.762   3.115
 2766TIP3    H1 8262   2.729   1.700   3.184
 2766TIP3    H2 8263   2.680   1.826   3.115
 2767TIP3   OH2 8264   2.334   4.668   1.841
 2767TIP3    H1 8265   2.307   4.658   1.750
 2767TIP3    H2 8266   2.261   4.632   1.892
 2768TIP3   OH2 8267   1.637   2.342   4.938
 2768TIP3    H1 8268   1.638   2.251   4.968
 2768TIP3    H2 8269   1.676   2.391   5.010
 2769TIP3   OH2 8270   2.591   0.982   0.202
 2769TIP3    H1 8271   2.590   1.034   0.122
 2769TIP3    H2 8272   2.611   1.045   0.272
 2770TIP3   OH2 8273   6.217   4.791   4.457
 2770TIP3    H1 8274   6.236   4.757   4.370
 2770TIP3    H2 8275   6.186   4.715   4.506
 2771TIP3   OH2 8276   3.941   0.570   2.658
 2771TIP3    H1 8277   3.989   0.579   2.741
 2771TIP3    H2 8278   3.850   0.591   2.680
 2772TIP3   OH2 8279   5.021   5.018   1.388
 2772TIP3    H1 8280   4.950   4.955   1.403
 2772TIP3    H2 8281   4.988   5.076   1.319
 2773TIP3   OH2 8282   0.707   5.371   4.279
 2773TIP3    H1 8283   0.612   5.376   4.268
 2773TIP3    H2 8284   0.719   5.348   4.371
 2774TIP3   OH2 8285   0.547   3.629   5.237
 2774TIP3    H1 8286   0.517   3.587   5.157
 2774TIP3    H2 8287   0.476   3.617   5.300
 2775TIP3   OH2 8288   4.285   3.671   0.729
 2775TIP3    H1 8289   4.324   3.677   0.642
 2775TIP3    H2 8290   4.194   3.699   0.716
 2776TIP3   OH2 8291   4.746   0.163   4.530
 2776TIP3    H1 8292   4.783   0.118   4.454
 2776TIP3    H2 8293   4.653   0.173   4.509
 2777TIP3   OH2 8294   6.850   4.951   1.921
 2777TIP3    H1 8295   6.876   4.872   1.874
 2777TIP3    H2 8296   6.760   4.967   1.892
 2778TIP3   OH2 8297   6.534   1.648   3.098
 2778TIP3    H1 8298   6.456   1.678   3.050
 2778TIP3    H2 8299   6.606   1.657   3.036
 2779TIP3   OH2 8300   4.600   6.724   3.597
 2779TIP3    H1 8301   4.623   6.706   3.506
 2779TIP3    H2 8302   4.529   6.663   3.616
 2780TIP3   OH2 8303   1.035   0.331   2.906
 2780TIP3    H1 8304   1.047   0.260   2.969
 2780TIP3    H2 8305   0.947   0.319   2.871
 2781TIP3   OH2 8306   1.487   1.618   4.734
 2781TIP3    H1 8307   1.419   1.551   4.724
 2781TIP3    H2 8308   1.569   1.569   4.735
 2782TIP3   OH2 8309   6.602   5.117   3.308
 2782TIP3    H1 8310   6.675   5.171   3.278
 2782TIP3    H2 8311   6.585   5.147   3.397
 2783TIP3   OH2 8312   0.285   5.479   0.640
 2783TIP3    H1 8313   0.292   5.557   0.695
 2783TIP3    H2 8314   0.374   5.446   0.633
 2784TIP3   OH2 8315   3.753   3.010   2.402
 2784TIP3    H1 8316   3.792   2.937   2.451
 2784TIP3    H2 8317   3.829   3.060   2.371
 2785TIP3   OH2 8318   0.993   2.812   2.628
 2785TIP3    H1 8319   0.921   2.770   2.581
 2785TIP3    H2 8320   0.963   2.816   2.719
 2786TIP3   OH2 8321   1.404   2.707   1.357
 2786TIP3    H1 8322   1.441   2.662   1.281
 2786TIP3    H2 8323   1.438   2.796   1.350
 2787TIP3   OH2 8324   4.628   2.531   2.271
 2787TIP3    H1 8325   4.541   2.568   2.255
 2787TIP3    H2 8326   4.656   2.498   2.186
 2788TIP3   OH2 8327   7.025   2.892   1.199
 2788TIP3    H1 8328   7.050   2.802   1.217
 2788TIP3    H2 8329   7.109   2.938   1.189
 2789TIP3   OH2 8330   1.617   5.443   2.557
 2789TIP3    H1 8331   1.695   5.438   2.501
 2789TIP3    H2 8332   1.637   5.387   2.632
 2790TIP3   OH2 8333   4.036   0.168   4.978
 2790TIP3    H1 8334   4.104   0.193   5.041
 2790TIP3    H2 8335   3.985   0.248   4.965
 2791TIP3   OH2 8336   2.295   5.473   4.426
 2791TIP3    H1 8337   2.222   5.468   4.363
 2791TIP3    H2 8338   2.353   5.401   4.401
 2792TIP3   OH2 8339   2.295   6.678   2.293
 2792TIP3    H1 8340   2.324   6.587   2.292
 2792TIP3    H2 8341   2.199   6.673   2.284
 2793TIP3   OH2 8342   5.056   2.247   4.013
 2793TIP3    H1 8343   5.048   2.342   4.003
 2793TIP3    H2 8344   4.970   2.218   4.043
 2794TIP3   OH2 8345   2.475   0.092   3.547
 2794TIP3    H1 8346   2.385   0.066   3.562
 2794TIP3    H2 8347   2.488   0.081   3.452
 2795TIP3   OH2 8348   2.538   6.312   0.174
 2795TIP3    H1 8349   2.629   6.326   0.200
 2795TIP3    H2 8350   2.498   6.399   0.180
 2796TIP3   OH2 8351   5.833   0.127   0.566
 2796TIP3    H1 8352   5.921   0.154   0.539
 2796TIP3    H2 8353   5.825   0.038   0.532
 2797TIP3   OH2 8354   4.547  -0.019   4.022
 2797TIP3    H1 8355   4.603   0.005   3.948
 2797TIP3    H2 8356   4.469   0.035   4.013
 2798TIP3   OH2 8357   1.856   4.655   3.467
 2798TIP3    H1 8358   1.855   4.734   3.521
 2798TIP3    H2 8359   1.937   4.611   3.492
 2799TIP3   OH2 8360   6.693   5.758   4.986
 2799TIP3    H1 8361   6.785   5.759   4.961
 2799TIP3    H2 8362   6.694   5.732   5.078
 2800TIP3   OH2 8363   2.705   4.731   4.326
 2800TIP3    H1 8364   2.781   4.783   4.300
 2800TIP3    H2 8365   2.676   4.688   4.245
 2801TIP3   OH2 8366   0.051   2.596   4.684
 2801TIP3    H1 8367   0.070   2.640   4.766
 2801TIP3    H2 8368  -0.025   2.541   4.703
 2802TIP3   OH2 8369   5.136   1.791   1.028
 2802TIP3    H1 8370   5.230   1.809   1.022
 2802TIP3    H2 8371   5.126   1.702   0.995
 2803TIP3   OH2 8372   7.169   4.362   0.738
 2803TIP3    H1 8373   7.246   4.405   0.701
 2803TIP3    H2 8374   7.094   4.413   0.705
 2804TIP3   OH2 8375   4.409   3.740   4.650
 2804TIP3    H1 8376   4.357   3.793   4.590
 2804TIP3    H2 8377   4.356   3.736   4.730
 2805TIP3   OH2 8378   1.708   5.768   0.009
 2805TIP3    H1 8379   1.778   5.827   0.039
 2805TIP3    H2 8380   1.751   5.712  -0.056
 2806TIP3   OH2 8381   4.573   6.246   0.290
 2806TIP3    H1 8382   4.669   6.249   0.296
 2806TIP3    H2 8383   4.554   6.162   0.248
 2807TIP3   OH2 8384   3.277   4.206   2.162
 2807TIP3    H1 8385   3.277   4.113   2.140
 2807TIP3    H2 8386   3.293   4.208   2.256
 2808TIP3   OH2 8387   3.346   6.108   1.450
 2808TIP3    H1 8388   3.392   6.173   1.503
 2808TIP3    H2 8389   3.388   6.024   1.472
 2809TIP3   OH2 8390   0.770   2.064   5.630
 2809TIP3    H1 8391   0.703   2.131   5.614
 2809TIP3    H2 8392   0.819   2.096   5.705
 2810TIP3   OH2 8393   2.903   4.082   4.201
 2810TIP3    H1 8394   2.984   4.125   4.174
 2810TIP3    H2 8395   2.900   4.095   4.296
 2811TIP3   OH2 8396   0.048   4.565   2.006
 2811TIP3    H1 8397   0.050   4.475   2.039
 2811TIP3    H2 8398  -0.045   4.587   1.998
 2812TIP3   OH2 8399   1.027   2.267   0.763
 2812TIP3    H1 8400   1.067   2.180   0.766
 2812TIP3    H2 8401   0.945   2.253   0.715
 2813TIP3   OH2 8402   2.757   3.030   5.312
 2813TIP3    H1 8403   2.788   3.119   5.331
 2813TIP3    H2 8404   2.789   3.011   5.224
 2814TIP3   OH2 8405   2.507   1.801   2.795
 2814TIP3    H1 8406   2.580   1.741   2.784
 2814TIP3    H2 8407   2.493   1.806   2.890
 2815TIP3   OH2 8408   2.192   2.171   3.413
 2815TIP3    H1 8409   2.219   2.187   3.503
 2815TIP3    H2 8410   2.189   2.076   3.405
 2816TIP3   OH2 8411   0.359   2.334   4.215
 2816TIP3    H1 8412   0.448   2.317   4.183
 2816TIP3    H2 8413   0.366   2.415   4.265
 2817TIP3   OH2 8414   6.230   2.094   3.823
 2817TIP3    H1 8415   6.214   2.034   3.750
 2817TIP3    H2 8416   6.143   2.127   3.846
 2818TIP3   OH2 8417   6.180   5.054   4.542
 2818TIP3    H1 8418   6.178   4.959   4.532
 2818TIP3    H2 8419   6.195   5.088   4.454
 2819TIP3   OH2 8420   2.993   4.615   2.608
 2819TIP3    H1 8421   3.015   4.534   2.655
 2819TIP3    H2 8422   2.898   4.624   2.618
 2820TIP3   OH2 8423   2.311   0.533   2.491
 2820TIP3    H1 8424   2.267   0.616   2.513
 2820TIP3    H2 8425   2.342   0.546   2.401
 2821TIP3   OH2 8426   5.657   4.910   5.807
 2821TIP3    H1 8427   5.674   4.967   5.881
 2821TIP3    H2 8428   5.739   4.863   5.792
 2822TIP3   OH2 8429   4.799   6.532   3.134
 2822TIP3    H1 8430   4.864   6.462   3.133
 2822TIP3    H2 8431   4.751   6.522   3.051
 2823TIP3   OH2 8432   2.992   3.648   0.407
 2823TIP3    H1 8433   3.081   3.645   0.371
 2823TIP3    H2 8434   2.998   3.709   0.481
 2824TIP3   OH2 8435   5.680   0.794   5.233
 2824TIP3    H1 8436   5.717   0.851   5.165
 2824TIP3    H2 8437   5.586   0.806   5.226
 2825TIP3   OH2 8438   6.160   5.189   1.845
 2825TIP3    H1 8439   6.066   5.184   1.825
 2825TIP3    H2 8440   6.174   5.122   1.912
 2826TIP3   OH2 8441   4.007   1.529   2.706
 2826TIP3    H1 8442   4.022   1.470   2.780
 2826TIP3    H2 8443   3.972   1.472   2.637
 2827TIP3   OH2 8444   3.986   3.648   1.194
 2827TIP3    H1 8445   3.963   3.555   1.193
 2827TIP3    H2 8446   3.912   3.690   1.150
 2828TIP3   OH2 8447   5.356   1.045   0.450
 2828TIP3    H1 8448   5.269   1.044   0.489
 2828TIP3    H2 8449   5.410   1.092   0.514
 2829TIP3   OH2 8450   0.004   0.969   4.582
 2829TIP3    H1 8451   0.087   0.926   4.559
 2829TIP3    H2 8452  -0.052   0.897   4.611
 2830TIP3   OH2 8453   5.980   6.497   1.233
 2830TIP3    H1 8454   6.042   6.467   1.166
 2830TIP3    H2 8455   6.011   6.585   1.255
 2831TIP3   OH2 8456   3.800   0.737   4.731
 2831TIP3    H1 8457   3.758   0.753   4.647
 2831TIP3    H2 8458   3.844   0.652   4.720
 2832TIP3   OH2 8459   3.086   2.885   0.544
 2832TIP3    H1 8460   3.061   2.879   0.452
 2832TIP3    H2 8461   3.178   2.861   0.546
 2833TIP3   OH2 8462   4.241   3.634   3.059
 2833TIP3    H1 8463   4.213   3.593   3.140
 2833TIP3    H2 8464   4.174   3.610   2.995
 2834TIP3   OH2 8465   3.902   3.871   1.848
 2834TIP3    H1 8466   3.908   3.810   1.775
 2834TIP3    H2 8467   3.895   3.815   1.925
 2835TIP3   OH2 8468   0.260   3.505   1.836
 2835TIP3    H1 8469   0.256   3.594   1.870
 2835TIP3    H2 8470   0.211   3.509   1.754
 2836TIP3   OH2 8471   7.113   4.302   5.372
 2836TIP3    H1 8472   7.035   4.256   5.403
 2836TIP3    H2 8473   7.153   4.339   5.451
 2837TIP3   OH2 8474   0.693   4.619   5.441
 2837TIP3    H1 8475   0.708   4.614   5.347
 2837TIP3    H2 8476   0.663   4.532   5.466
 2838TIP3   OH2 8477   1.994   6.272   1.885
 2838TIP3    H1 8478   2.078   6.227   1.896
 2838TIP3    H2 8479   1.936   6.207   1.846
 2839TIP3   OH2 8480   6.864   6.528   3.802
 2839TIP3    H1 8481   6.942   6.530   3.858
 2839TIP3    H2 8482   6.804   6.591   3.843
 2840TIP3   OH2 8483   2.496   6.579   1.211
 2840TIP3    H1 8484   2.516   6.646   1.276
 2840TIP3    H2 8485   2.574   6.576   1.155
 2841TIP3   OH2 8486   4.797   4.533   3.484
 2841TIP3    H1 8487   4.764   4.533   3.574
 2841TIP3    H2 8488   4.869   4.597   3.485
 2842TIP3   OH2 8489   4.403   2.816   5.031
 2842TIP3    H1 8490   4.343   2.755   5.074
 2842TIP3    H2 8491   4.420   2.777   4.945
 2843TIP3   OH2 8492   1.618   4.430   5.398
 2843TIP3    H1 8493   1.617   4.515   5.442
 2843TIP3    H2 8494   1.609   4.450   5.305
 2844TIP3   OH2 8495   6.907   5.383   5.261
 2844TIP3    H1 8496   6.953   5.302   5.237
 2844TIP3    H2 8497   6.960   5.452   5.222
 2845TIP3   OH2 8498   2.043   6.393   3.382
 2845TIP3    H1 8499   2.040   6.324   3.448
 2845TIP3    H2 8500   2.136   6.401   3.359
 2846TIP3   OH2 8501   6.814   4.835   5.397
 2846TIP3    H1 8502   6.798   4.894   5.470
 2846TIP3    H2 8503   6.898   4.793   5.416
 2847TIP3   OH2 8504   3.265   3.969   4.902
 2847TIP3    H1 8505   3.184   3.977   4.851
 2847TIP3    H2 8506   3.331   3.941   4.838
 2848TIP3   OH2 8507   2.098   0.256   1.998
 2848TIP3    H1 8508   2.111   0.162   1.991
 2848TIP3    H2 8509   2.100   0.287   1.907
 2849TIP3   OH2 8510   2.399   1.636   3.907
 2849TIP3    H1 8511   2.367   1.710   3.958
 2849TIP3    H2 8512   2.495   1.647   3.907
 2850TIP3   OH2 8513   1.691   2.659   2.983
 2850TIP3    H1 8514   1.756   2.701   3.039
 2850TIP3    H2 8515   1.628   2.728   2.963
 2851TIP3   OH2 8516   3.775   0.585   1.894
 2851TIP3    H1 8517   3.850   0.533   1.867
 2851TIP3    H2 8518   3.753   0.553   1.981
 2852TIP3   OH2 8519   6.408   5.592   0.922
 2852TIP3    H1 8520   6.428   5.671   0.971
 2852TIP3    H2 8521   6.367   5.534   0.985
 2853TIP3   OH2 8522   5.745   1.824   4.388
 2853TIP3    H1 8523   5.778   1.898   4.439
 2853TIP3    H2 8524   5.686   1.778   4.448
 2854TIP3   OH2 8525   6.612   6.476   1.912
 2854TIP3    H1 8526   6.597   6.512   2.000
 2854TIP3    H2 8527   6.586   6.384   1.919
 2855TIP3   OH2 8528   2.269   2.934   0.367
 2855TIP3    H1 8529   2.186   2.893   0.342
 2855TIP3    H2 8530   2.322   2.861   0.399
 2856TIP3   OH2 8531   0.955   5.531   0.091
 2856TIP3    H1 8532   1.023   5.502   0.030
 2856TIP3    H2 8533   0.920   5.611   0.052
 2857TIP3   OH2 8534   1.508   3.718   2.278
 2857TIP3    H1 8535   1.548   3.632   2.286
 2857TIP3    H2 8536   1.415   3.703   2.296
 2858TIP3   OH2 8537   1.197   1.599   2.374
 2858TIP3    H1 8538   1.277   1.645   2.397
 2858TIP3    H2 8539   1.145   1.600   2.454
 2859TIP3   OH2 8540   2.667   2.844   3.390
 2859TIP3    H1 8541   2.646   2.765   3.440
 2859TIP3    H2 8542   2.585   2.894   3.389
 2860TIP3   OH2 8543   4.125   4.470   2.555
 2860TIP3    H1 8544   4.097   4.403   2.492
 2860TIP3    H2 8545   4.069   4.546   2.536
 2861TIP3   OH2 8546   2.099   1.259   2.917
 2861TIP3    H1 8547   2.014   1.216   2.921
 2861TIP3    H2 8548   2.109   1.301   3.002
 2862TIP3   OH2 8549   6.748   0.953   3.596
 2862TIP3    H1 8550   6.765   0.932   3.688
 2862TIP3    H2 8551   6.821   0.913   3.549
 2863TIP3   OH2 8552   5.024   5.641   4.678
 2863TIP3    H1 8553   5.082   5.565   4.680
 2863TIP3    H2 8554   5.069   5.703   4.621
 2864TIP3   OH2 8555   3.067   5.697   0.373
 2864TIP3    H1 8556   3.051   5.788   0.349
 2864TIP3    H2 8557   2.980   5.657   0.371
 2865TIP3   OH2 8558   1.000   0.912   0.948
 2865TIP3    H1 8559   0.931   0.903   1.014
 2865TIP3    H2 8560   1.067   0.849   0.975
 2866TIP3   OH2 8561   0.308   3.227   4.578
 2866TIP3    H1 8562   0.379   3.206   4.518
 2866TIP3    H2 8563   0.229   3.227   4.524
 2867TIP3   OH2 8564   2.775   3.274   5.457
 2867TIP3    H1 8565   2.756   3.367   5.443
 2867TIP3    H2 8566   2.818   3.271   5.542
 2868TIP3   OH2 8567   4.842   6.672   0.036
 2868TIP3    H1 8568   4.900   6.693   0.109
 2868TIP3    H2 8569   4.846   6.576   0.028
 2869TIP3   OH2 8570   2.030   1.133   1.216
 2869TIP3    H1 8571   2.051   1.226   1.208
 2869TIP3    H2 8572   2.113   1.091   1.235
 2870TIP3   OH2 8573   6.151   2.894   4.694
 2870TIP3    H1 8574   6.214   2.856   4.756
 2870TIP3    H2 8575   6.182   2.865   4.608
 2871TIP3   OH2 8576   6.218   2.250   5.381
 2871TIP3    H1 8577   6.242   2.335   5.344
 2871TIP3    H2 8578   6.289   2.192   5.355
 2872TIP3   OH2 8579   3.785   3.239   2.958
 2872TIP3    H1 8580   3.775   3.154   3.001
 2872TIP3    H2 8581   3.702   3.284   2.973
 2873TIP3   OH2 8582   3.529   6.615   2.132
 2873TIP3    H1 8583   3.541   6.645   2.042
 2873TIP3    H2 8584   3.614   6.578   2.157
 2874TIP3   OH2 8585   7.165   4.564   0.466
 2874TIP3    H1 8586   7.161   4.495   0.400
 2874TIP3    H2 8587   7.228   4.532   0.530
 2875TIP3   OH2 8588   2.526   0.248   0.357
 2875TIP3    H1 8589   2.479   0.292   0.286
 2875TIP3    H2 8590   2.477   0.167   0.371
 2876TIP3   OH2 8591   0.191   1.922   0.064
 2876TIP3    H1 8592   0.114   1.905   0.010
 2876TIP3    H2 8593   0.175   2.009   0.102
 2877TIP3   OH2 8594   2.584   4.623   4.092
 2877TIP3    H1 8595   2.618   4.645   4.005
 2877TIP3    H2 8596   2.590   4.528   4.098
 2878TIP3   OH2 8597   4.624   1.942   0.039
 2878TIP3    H1 8598   4.580   1.888   0.105
 2878TIP3    H2 8599   4.552   1.980  -0.012
 2879TIP3   OH2 8600   2.602   4.989   4.275
 2879TIP3    H1 8601   2.514   4.982   4.310
 2879TIP3    H2 8602   2.643   4.905   4.294
 2880TIP3   OH2 8603   3.750   1.428   3.836
 2880TIP3    H1 8604   3.677   1.382   3.796
 2880TIP3    H2 8605   3.795   1.471   3.763
 2881TIP3   OH2 8606   1.081   2.770   5.617
 2881TIP3    H1 8607   1.007   2.714   5.639
 2881TIP3    H2 8608   1.105   2.744   5.528
 2882TIP3   OH2 8609   4.760   6.695   5.207
 2882TIP3    H1 8610   4.845   6.724   5.174
 2882TIP3    H2 8611   4.728   6.769   5.259
 2883TIP3   OH2 8612   3.729   4.533   4.647
 2883TIP3    H1 8613   3.755   4.605   4.705
 2883TIP3    H2 8614   3.705   4.575   4.565
 2884TIP3   OH2 8615   2.375   2.961   4.791
 2884TIP3    H1 8616   2.328   3.016   4.854
 2884TIP3    H2 8617   2.404   3.021   4.723
 2885TIP3   OH2 8618   4.962   5.425   3.210
 2885TIP3    H1 8619   4.991   5.481   3.282
 2885TIP3    H2 8620   4.986   5.336   3.238
 2886TIP3   OH2 8621   3.496   3.668   3.857
 2886TIP3    H1 8622   3.536   3.749   3.889
 2886TIP3    H2 8623   3.496   3.678   3.761
 2887TIP3   OH2 8624   4.266   1.269   2.505
 2887TIP3    H1 8625   4.312   1.269   2.589
 2887TIP3    H2 8626   4.329   1.233   2.443
 2888TIP3   OH2 8627   6.446   2.296   0.839
 2888TIP3    H1 8628   6.440   2.207   0.872
 2888TIP3    H2 8629   6.427   2.351   0.915
 2889TIP3   OH2 8630   2.782   1.316   1.419
 2889TIP3    H1 8631   2.872   1.319   1.452
 2889TIP3    H2 8632   2.769   1.402   1.378
 2890TIP3   OH2 8633   4.268   1.108   4.857
 2890TIP3    H1 8634   4.246   1.156   4.937
 2890TIP3    H2 8635   4.192   1.053   4.840
 2891TIP3   OH2 8636   3.419   6.675   0.484
 2891TIP3    H1 8637   3.500   6.632   0.511
 2891TIP3    H2 8638   3.404   6.644   0.394
 2892TIP3   OH2 8639   6.942   0.465   1.715
 2892TIP3    H1 8640   6.873   0.459   1.649
 2892TIP3    H2 8641   6.960   0.374   1.739
 2893TIP3   OH2 8642   0.662   3.111   2.341
 2893TIP3    H1 8643   0.616   3.101   2.424
 2893TIP3    H2 8644   0.709   3.029   2.328
 2894TIP3   OH2 8645   3.461   6.004   3.788
 2894TIP3    H1 8646   3.497   6.050   3.712
 2894TIP3    H2 8647   3.497   6.050   3.864
 2895TIP3   OH2 8648   4.494   5.591   2.040
 2895TIP3    H1 8649   4.562   5.655   2.020
 2895TIP3    H2 8650   4.413   5.642   2.041
 2896TIP3   OH2 8651   3.779   6.254   4.281
 2896TIP3    H1 8652   3.817   6.183   4.229
 2896TIP3    H2 8653   3.749   6.318   4.216
 2897TIP3   OH2 8654   6.120   5.587   0.077
 2897TIP3    H1 8655   6.202   5.632   0.057
 2897TIP3    H2 8656   6.146   5.502   0.111
 2898TIP3   OH2 8657   1.710   4.157   4.327
 2898TIP3    H1 8658   1.619   4.156   4.356
 2898TIP3    H2 8659   1.726   4.248   4.302
 2899TIP3   OH2 8660   1.918   6.030   1.445
 2899TIP3    H1 8661   1.943   6.043   1.536
 2899TIP3    H2 8662   1.870   5.947   1.445
 2900TIP3   OH2 8663   3.259   2.891   3.867
 2900TIP3    H1 8664   3.200   2.901   3.942
 2900TIP3    H2 8665   3.244   2.802   3.836
 2901TIP3   OH2 8666   5.988   6.074   2.628
 2901TIP3    H1 8667   5.924   6.050   2.562
 2901TIP3    H2 8668   5.947   6.145   2.677
 2902TIP3   OH2 8669   5.800   4.577   1.998
 2902TIP3    H1 8670   5.762   4.491   1.978
 2902TIP3    H2 8671   5.784   4.590   2.091
 2903TIP3   OH2 8672   6.062   4.132   4.146
 2903TIP3    H1 8673   5.982   4.087   4.172
 2903TIP3    H2 8674   6.097   4.168   4.228
 2904TIP3   OH2 8675   0.235   3.927   0.790
 2904TIP3    H1 8676   0.303   3.919   0.723
 2904TIP3    H2 8677   0.279   3.968   0.865
 2905TIP3   OH2 8678   4.520   1.531   5.580
 2905TIP3    H1 8679   4.530   1.614   5.628
 2905TIP3    H2 8680   4.575   1.542   5.502
 2906TIP3   OH2 8681   2.506   4.118   1.737
 2906TIP3    H1 8682   2.439   4.090   1.674
 2906TIP3    H2 8683   2.458   4.134   1.818
 2907TIP3   OH2 8684   5.965   5.931   0.124
 2907TIP3    H1 8685   5.975   5.885   0.208
 2907TIP3    H2 8686   6.009   5.874   0.061
 2908TIP3   OH2 8687   1.573   3.824   3.781
 2908TIP3    H1 8688   1.660   3.832   3.821
 2908TIP3    H2 8689   1.515   3.872   3.840
 2909TIP3   OH2 8690   4.492   1.579   2.113
 2909TIP3    H1 8691   4.525   1.668   2.097
 2909TIP3    H2 8692   4.452   1.553   2.031
 2910TIP3   OH2 8693   6.526   6.412   1.078
 2910TIP3    H1 8694   6.480   6.458   1.008
 2910TIP3    H2 8695   6.480   6.329   1.086
 2911TIP3   OH2 8696   3.163   1.721   1.697
 2911TIP3    H1 8697   3.130   1.799   1.742
 2911TIP3    H2 8698   3.259   1.731   1.700
 2912TIP3   OH2 8699   0.518   1.327   1.406
 2912TIP3    H1 8700   0.509   1.419   1.381
 2912TIP3    H2 8701   0.545   1.283   1.325
 2913TIP3   OH2 8702   4.367   1.708   5.853
 2913TIP3    H1 8703   4.306   1.733   5.783
 2913TIP3    H2 8704   4.452   1.743   5.824
 2914TIP3   OH2 8705   7.144   2.082   5.216
 2914TIP3    H1 8706   7.228   2.126   5.231
 2914TIP3    H2 8707   7.164   1.989   5.226
 2915TIP3   OH2 8708   2.321   5.337   1.493
 2915TIP3    H1 8709   2.359   5.256   1.528
 2915TIP3    H2 8710   2.396   5.396   1.482
 2916TIP3   OH2 8711   3.420   2.195   4.754
 2916TIP3    H1 8712   3.420   2.152   4.669
 2916TIP3    H2 8713   3.347   2.155   4.802
 2917TIP3   OH2 8714   1.020   6.656   2.305
 2917TIP3    H1 8715   0.964   6.675   2.379
 2917TIP3    H2 8716   1.014   6.734   2.249
 2918TIP3   OH2 8717   1.865   5.347   3.752
 2918TIP3    H1 8718   1.866   5.252   3.745
 2918TIP3    H2 8719   1.953   5.370   3.782
 2919TIP3   OH2 8720   2.883   1.948   2.920
 2919TIP3    H1 8721   2.937   2.027   2.916
 2919TIP3    H2 8722   2.858   1.941   3.012
 2920TIP3   OH2 8723   5.554   5.538   5.780
 2920TIP3    H1 8724   5.509   5.584   5.709
 2920TIP3    H2 8725   5.638   5.511   5.743
 2921TIP3   OH2 8726   0.557   4.796   3.336
 2921TIP3    H1 8727   0.580   4.723   3.392
 2921TIP3    H2 8728   0.566   4.762   3.247
 2922TIP3   OH2 8729   5.440   3.264   5.714
 2922TIP3    H1 8730   5.518   3.304   5.754
 2922TIP3    H2 8731   5.455   3.274   5.620
 2923TIP3   OH2 8732   1.758   4.450   4.441
 2923TIP3    H1 8733   1.673   4.472   4.403
 2923TIP3    H2 8734   1.757   4.491   4.527
 2924TIP3   OH2 8735   5.982   6.443   4.287
 2924TIP3    H1 8736   5.951   6.507   4.222
 2924TIP3    H2 8737   5.952   6.359   4.254
 2925TIP3   OH2 8738   0.750   5.359   2.435
 2925TIP3    H1 8739   0.792   5.317   2.360
 2925TIP3    H2 8740   0.719   5.287   2.489
 2926TIP3   OH2 8741   4.587   5.492   5.596
 2926TIP3    H1 8742   4.613   5.472   5.505
 2926TIP3    H2 8743   4.493   5.479   5.597
 2927TIP3   OH2 8744   2.971   4.701   3.862
 2927TIP3    H1 8745   2.918   4.622   3.873
 2927TIP3    H2 8746   2.975   4.714   3.767
 2928TIP3   OH2 8747   7.033   4.807   3.576
 2928TIP3    H1 8748   7.074   4.893   3.573
 2928TIP3    H2 8749   6.946   4.820   3.538
 2929TIP3   OH2 8750   3.929   4.998   4.552
 2929TIP3    H1 8751   3.863   4.937   4.584
 2929TIP3    H2 8752   3.924   5.073   4.611
 2930TIP3   OH2 8753   0.748   1.776   4.551
 2930TIP3    H1 8754   0.732   1.867   4.575
 2930TIP3    H2 8755   0.768   1.733   4.634
 2931TIP3   OH2 8756   1.718   3.126   1.357
 2931TIP3    H1 8757   1.697   3.218   1.347
 2931TIP3    H2 8758   1.812   3.120   1.338
 2932TIP3   OH2 8759   1.023   4.765   1.897
 2932TIP3    H1 8760   1.011   4.692   1.957
 2932TIP3    H2 8761   1.057   4.725   1.817
 2933TIP3   OH2 8762   6.800   0.124   0.029
 2933TIP3    H1 8763   6.839   0.042   0.056
 2933TIP3    H2 8764   6.854   0.192   0.071
 2934TIP3   OH2 8765   0.999   5.328   4.858
 2934TIP3    H1 8766   1.089   5.323   4.891
 2934TIP3    H2 8767   0.990   5.418   4.826
 2935TIP3   OH2 8768   5.931   3.821   2.170
 2935TIP3    H1 8769   5.991   3.840   2.098
 2935TIP3    H2 8770   5.985   3.829   2.248
 2936TIP3   OH2 8771   2.789   5.923   2.139
 2936TIP3    H1 8772   2.833   6.001   2.175
 2936TIP3    H2 8773   2.839   5.850   2.175
 2937TIP3   OH2 8774   6.527   0.263   1.083
 2937TIP3    H1 8775   6.567   0.347   1.061
 2937TIP3    H2 8776   6.433   0.277   1.070
 2938TIP3   OH2 8777   2.783   5.823   0.377
 2938TIP3    H1 8778   2.804   5.899   0.431
 2938TIP3    H2 8779   2.712   5.853   0.321
 2939TIP3   OH2 8780   5.031   3.597   5.381
 2939TIP3    H1 8781   5.062   3.509   5.401
 2939TIP3    H2 8782   5.011   3.637   5.466
 2940TIP3   OH2 8783   1.233   1.179   1.108
 2940TIP3    H1 8784   1.224   1.227   1.025
 2940TIP3    H2 8785   1.228   1.087   1.083
 2941TIP3   OH2 8786   4.079   4.531   5.738
 2941TIP3    H1 8787   4.065   4.469   5.810
 2941TIP3    H2 8788   4.019   4.501   5.669
 2942TIP3   OH2 8789   2.785   3.093   2.144
 2942TIP3    H1 8790   2.773   3.018   2.084
 2942TIP3    H2 8791   2.704   3.143   2.135
 2943TIP3   OH2 8792   4.487   4.754   5.921
 2943TIP3    H1 8793   4.469   4.848   5.913
 2943TIP3    H2 8794   4.513   4.727   5.833
 2944TIP3   OH2 8795   3.522   0.990   1.262
 2944TIP3    H1 8796   3.479   0.911   1.228
 2944TIP3    H2 8797   3.467   1.062   1.229
 2945TIP3   OH2 8798   6.581   1.677   4.987
 2945TIP3    H1 8799   6.652   1.714   5.039
 2945TIP3    H2 8800   6.621   1.606   4.938
 2946TIP3   OH2 8801   6.402   1.985   5.266
 2946TIP3    H1 8802   6.483   1.962   5.221
 2946TIP3    H2 8803   6.409   1.940   5.351
 2947TIP3   OH2 8804   0.836   3.790   5.075
 2947TIP3    H1 8805   0.809   3.881   5.086
 2947TIP3    H2 8806   0.790   3.760   4.997
 2948TIP3   OH2 8807   2.734   5.414   2.402
 2948TIP3    H1 8808   2.796   5.346   2.427
 2948TIP3    H2 8809   2.698   5.446   2.485
 2949TIP3   OH2 8810   4.556   3.154   5.459
 2949TIP3    H1 8811   4.567   3.062   5.485
 2949TIP3    H2 8812   4.614   3.202   5.519
 2950TIP3   OH2 8813   5.764   5.453   2.864
 2950TIP3    H1 8814   5.839   5.393   2.863
 2950TIP3    H2 8815   5.688   5.396   2.850
 2951TIP3   OH2 8816   1.112   5.665   1.205
 2951TIP3    H1 8817   1.112   5.616   1.287
 2951TIP3    H2 8818   1.020   5.674   1.182
 2952TIP3   OH2 8819  -0.033   4.741   5.734
 2952TIP3    H1 8820  -0.105   4.739   5.798
 2952TIP3    H2 8821   0.031   4.801   5.772
 2953TIP3   OH2 8822   6.354   6.402   2.211
 2953TIP3    H1 8823   6.440   6.373   2.180
 2953TIP3    H2 8824   6.340   6.352   2.292
 2954TIP3   OH2 8825   4.482   4.575   4.195
 2954TIP3    H1 8826   4.558   4.528   4.160
 2954TIP3    H2 8827   4.507   4.667   4.193
 2955TIP3   OH2 8828   1.230   1.090   0.322
 2955TIP3    H1 8829   1.244   1.141   0.242
 2955TIP3    H2 8830   1.313   1.045   0.337
 2956TIP3   OH2 8831   3.459   4.327   2.686
 2956TIP3    H1 8832   3.513   4.252   2.660
 2956TIP3    H2 8833   3.517   4.403   2.678
 2957TIP3   OH2 8834   2.781   0.824   0.274
 2957TIP3    H1 8835   2.707   0.864   0.228
 2957TIP3    H2 8836   2.799   0.743   0.227
 2958TIP3   OH2 8837   3.539   1.710   3.679
 2958TIP3    H1 8838   3.451   1.674   3.681
 2958TIP3    H2 8839   3.526   1.805   3.678
 2959TIP3   OH2 8840   6.017   0.434   3.172
 2959TIP3    H1 8841   5.941   0.489   3.190
 2959TIP3    H2 8842   6.039   0.452   3.081
 2960TIP3   OH2 8843   1.782   6.759   2.412
 2960TIP3    H1 8844   1.748   6.670   2.422
 2960TIP3    H2 8845   1.716   6.814   2.453
 2961TIP3   OH2 8846   4.007   4.455   0.031
 2961TIP3    H1 8847   3.926   4.416   0.065
 2961TIP3    H2 8848   4.073   4.436   0.097
 2962TIP3   OH2 8849   1.747   0.750   2.240
 2962TIP3    H1 8850   1.748   0.733   2.146
 2962TIP3    H2 8851   1.717   0.668   2.279
 2963TIP3   OH2 8852   3.815   3.556   2.755
 2963TIP3    H1 8853   3.780   3.478   2.797
 2963TIP3    H2 8854   3.788   3.549   2.663
 2964TIP3   OH2 8855   7.060   1.058   3.959
 2964TIP3    H1 8856   7.071   1.098   3.873
 2964TIP3    H2 8857   6.980   1.096   3.994
 2965TIP3   OH2 8858   0.556   6.286   2.486
 2965TIP3    H1 8859   0.543   6.375   2.518
 2965TIP3    H2 8860   0.481   6.237   2.520
 2966TIP3   OH2 8861   4.341   4.384   5.702
 2966TIP3    H1 8862   4.310   4.373   5.612
 2966TIP3    H2 8863   4.276   4.441   5.743
 2967TIP3   OH2 8864   6.813   5.943   5.596
 2967TIP3    H1 8865   6.884   5.959   5.658
 2967TIP3    H2 8866   6.846   5.872   5.541
 2968TIP3   OH2 8867   1.426   0.709   0.278
 2968TIP3    H1 8868   1.434   0.616   0.298
 2968TIP3    H2 8869   1.338   0.718   0.242
 2969TIP3   OH2 8870   6.610   3.249   4.564
 2969TIP3    H1 8871   6.658   3.279   4.487
 2969TIP3    H2 8872   6.519   3.274   4.547
 2970TIP3   OH2 8873   5.968   0.422   5.005
 2970TIP3    H1 8874   6.050   0.373   5.000
 2970TIP3    H2 8875   5.917   0.392   4.930
 2971TIP3   OH2 8876   4.683   5.456   5.077
 2971TIP3    H1 8877   4.747   5.525   5.060
 2971TIP3    H2 8878   4.638   5.443   4.994
 2972TIP3   OH2 8879   6.289   4.246   3.568
 2972TIP3    H1 8880   6.365   4.193   3.589
 2972TIP3    H2 8881   6.310   4.289   3.485
 2973TIP3   OH2 8882   3.426   4.041   2.412
 2973TIP3    H1 8883   3.509   4.061   2.456
 2973TIP3    H2 8884   3.392   3.965   2.459
 2974TIP3   OH2 8885   4.476   2.991   2.711
 2974TIP3    H1 8886   4.382   2.971   2.712
 2974TIP3    H2 8887   4.489   3.046   2.788
 2975TIP3   OH2 8888   2.544   2.026   2.664
 2975TIP3    H1 8889   2.635   2.004   2.642
 2975TIP3    H2 8890   2.509   1.945   2.702
 2976TIP3   OH2 8891   0.968   2.406   4.861
 2976TIP3    H1 8892   0.988   2.333   4.918
 2976TIP3    H2 8893   0.991   2.376   4.773
 2977TIP3   OH2 8894   3.301   4.457   2.433
 2977TIP3    H1 8895   3.218   4.478   2.390
 2977TIP3    H2 8896   3.328   4.540   2.474
 2978TIP3   OH2 8897   5.341   1.639   5.234
 2978TIP3    H1 8898   5.272   1.578   5.262
 2978TIP3    H2 8899   5.350   1.623   5.140
 2979TIP3   OH2 8900   1.115   3.751   5.107
 2979TIP3    H1 8901   1.111   3.819   5.174
 2979TIP3    H2 8902   1.025   3.743   5.076
 2980TIP3   OH2 8903   1.305   3.700   5.830
 2980TIP3    H1 8904   1.259   3.620   5.804
 2980TIP3    H2 8905   1.236   3.766   5.836
 2981TIP3   OH2 8906   6.221   6.442   1.122
 2981TIP3    H1 8907   6.246   6.485   1.040
 2981TIP3    H2 8908   6.250   6.352   1.112
 2982TIP3   OH2 8909   0.031   3.102   2.003
 2982TIP3    H1 8910   0.104   3.133   1.949
 2982TIP3    H2 8911   0.029   3.007   1.987
 2983TIP3   OH2 8912   6.516   2.242   3.209
 2983TIP3    H1 8913   6.509   2.278   3.297
 2983TIP3    H2 8914   6.436   2.189   3.198
 2984TIP3   OH2 8915   5.415   5.055   0.825
 2984TIP3    H1 8916   5.465   5.001   0.886
 2984TIP3    H2 8917   5.482   5.100   0.773
 2985TIP3   OH2 8918   0.447   6.332   2.055
 2985TIP3    H1 8919   0.391   6.392   2.104
 2985TIP3    H2 8920   0.495   6.388   1.994
 2986TIP3   OH2 8921   4.714   5.081   3.260
 2986TIP3    H1 8922   4.630   5.038   3.272
 2986TIP3    H2 8923   4.714   5.153   3.323
 2987TIP3   OH2 8924  -0.009   0.880   2.956
 2987TIP3    H1 8925  -0.056   0.961   2.975
 2987TIP3    H2 8926  -0.053   0.843   2.880
 2988TIP3   OH2 8927   1.065   0.509   2.623
 2988TIP3    H1 8928   1.147   0.546   2.591
 2988TIP3    H2 8929   1.059   0.423   2.583
 2989TIP3   OH2 8930   5.115   2.646   1.889
 2989TIP3    H1 8931   5.047   2.580   1.907
 2989TIP3    H2 8932   5.187   2.596   1.851
 2990TIP3   OH2 8933   4.537   5.222   4.311
 2990TIP3    H1 8934   4.620   5.179   4.289
 2990TIP3    H2 8935   4.471   5.153   4.301
 2991TIP3   OH2 8936   1.435   2.417   1.898
 2991TIP3    H1 8937   1.459   2.432   1.807
 2991TIP3    H2 8938   1.353   2.367   1.893
 2992TIP3   OH2 8939   5.502   1.010   5.224
 2992TIP3    H1 8940   5.435   1.069   5.190
 2992TIP3    H2 8941   5.575   1.068   5.247
 2993TIP3   OH2 8942   1.879   5.462   1.293
 2993TIP3    H1 8943   1.908   5.392   1.352
 2993TIP3    H2 8944   1.949   5.527   1.298
 2994TIP3   OH2 8945   7.138   0.375   3.993
 2994TIP3    H1 8946   7.115   0.447   4.052
 2994TIP3    H2 8947   7.202   0.412   3.933
 2995TIP3   OH2 8948   0.328   6.342   1.388
 2995TIP3    H1 8949   0.338   6.281   1.461
 2995TIP3    H2 8950   0.357   6.427   1.424
 2996TIP3   OH2 8951   6.672  -0.006   3.764
 2996TIP3    H1 8952   6.633   0.081   3.754
 2996TIP3    H2 8953   6.693  -0.013   3.857
 2997TIP3   OH2 8954   0.324   0.329   5.764
 2997TIP3    H1 8955   0.310   0.294   5.852
 2997TIP3    H2 8956   0.245   0.305   5.715
 2998TIP3   OH2 8957   6.524   3.314   5.342
 2998TIP3    H1 8958   6.543   3.309   5.249
 2998TIP3    H2 8959   6.461   3.385   5.351
 2999TIP3   OH2 8960   2.943   3.031   3.561
 2999TIP3    H1 8961   2.958   3.117   3.523
 2999TIP3    H2 8962   2.873   2.993   3.508
 3000TIP3   OH2 8963   5.338   3.386   0.122
 3000TIP3    H1 8964   5.342   3.316   0.187
 3000TIP3    H2 8965   5.430   3.403   0.100
 3001TIP3   OH2 8966   6.504   1.537   2.180
 3001TIP3    H1 8967   6.422   1.573   2.212
 3001TIP3    H2 8968   6.497   1.443   2.195
 3002TIP3   OH2 8969   7.061   5.418   1.950
 3002TIP3    H1 8970   7.053   5.359   2.024
 3002TIP3    H2 8971   7.042   5.363   1.873
 3003TIP3   OH2 8972   5.652   5.744   0.619
 3003TIP3    H1 8973   5.618   5.758   0.707
 3003TIP3    H2 8974   5.747   5.755   0.627
 3004TIP3   OH2 8975   1.017   3.117   0.609
 3004TIP3    H1 8976   0.939   3.100   0.558
 3004TIP3    H2 8977   1.001   3.075   0.693
 3005TIP3   OH2 8978   2.018   5.169   1.154
 3005TIP3    H1 8979   1.960   5.161   1.229
 3005TIP3    H2 8980   2.090   5.225   1.184
 3006TIP3   OH2 8981   7.147   4.484   4.548
 3006TIP3    H1 8982   7.054   4.489   4.523
 3006TIP3    H2 8983   7.161   4.391   4.568
 3007TIP3   OH2 8984   3.460   1.002   2.955
 3007TIP3    H1 8985   3.470   0.931   2.891
 3007TIP3    H2 8986   3.444   1.080   2.902
 3008TIP3   OH2 8987   0.124   0.261   2.883
 3008TIP3    H1 8988   0.088   0.174   2.865
 3008TIP3    H2 8989   0.176   0.250   2.963
 3009TIP3   OH2 8990   6.512   6.752   1.813
 3009TIP3    H1 8991   6.486   6.712   1.730
 3009TIP3    H2 8992   6.575   6.690   1.851
 3010TIP3   OH2 8993   5.535   6.212   5.555
 3010TIP3    H1 8994   5.490   6.158   5.620
 3010TIP3    H2 8995   5.500   6.182   5.471
 3011TIP3   OH2 8996   1.831   2.551   4.131
 3011TIP3    H1 8997   1.916   2.516   4.155
 3011TIP3    H2 8998   1.781   2.475   4.101
 3012TIP3   OH2 8999   2.009   3.846   3.898
 3012TIP3    H1 9000   2.075   3.816   3.835
 3012TIP3    H2 9001   1.978   3.929   3.863
 3013TIP3   OH2 9002   5.138   5.411   4.349
 3013TIP3    H1 9003   5.221   5.407   4.300
 3013TIP3    H2 9004   5.088   5.480   4.306
 3014TIP3   OH2 9005   1.820   5.269   1.857
 3014TIP3    H1 9006   1.738   5.231   1.887
 3014TIP3    H2 9007   1.814   5.268   1.762
 3015TIP3   OH2 9008   3.896   2.324   0.850
 3015TIP3    H1 9009   3.966   2.306   0.786
 3015TIP3    H2 9010   3.825   2.266   0.825
 3016TIP3   OH2 9011   1.037   5.061   1.533
 3016TIP3    H1 9012   1.057   5.115   1.610
 3016TIP3    H2 9013   0.990   5.120   1.474
 3017TIP3   OH2 9014   2.516   2.509   5.077
 3017TIP3    H1 9015   2.583   2.521   5.144
 3017TIP3    H2 9016   2.435   2.541   5.117
 3018TIP3   OH2 9017   3.990   0.111   5.424
 3018TIP3    H1 9018   4.004   0.020   5.399
 3018TIP3    H2 9019   3.896   0.125   5.415
 3019TIP3   OH2 9020   2.137   3.662   3.149
 3019TIP3    H1 9021   2.049   3.639   3.176
 3019TIP3    H2 9022   2.142   3.636   3.057
 3020TIP3   OH2 9023   0.421   1.020   0.865
 3020TIP3    H1 9024   0.402   1.089   0.801
 3020TIP3    H2 9025   0.497   1.052   0.914
 3021TIP3   OH2 9026   4.205   2.500   1.653
 3021TIP3    H1 9027   4.228   2.496   1.560
 3021TIP3    H2 9028   4.250   2.425   1.692
 3022TIP3   OH2 9029   4.991   3.758   1.948
 3022TIP3    H1 9030   4.999   3.686   2.010
 3022TIP3    H2 9031   5.001   3.717   1.862
 3023TIP3   OH2 9032   3.669   2.271   4.263
 3023TIP3    H1 9033   3.739   2.217   4.226
 3023TIP3    H2 9034   3.708   2.309   4.342
 3024TIP3   OH2 9035   0.956   5.896   5.790
 3024TIP3    H1 9036   0.885   5.837   5.763
 3024TIP3    H2 9037   0.927   5.930   5.875
 3025TIP3   OH2 9038   7.034   1.518   2.661
 3025TIP3    H1 9039   7.043   1.516   2.756
 3025TIP3    H2 9040   6.942   1.541   2.646
 3026TIP3   OH2 9041   6.394   6.727   0.785
 3026TIP3    H1 9042   6.383   6.797   0.850
 3026TIP3    H2 9043   6.318   6.670   0.799
 3027TIP3   OH2 9044   5.977   1.371   0.391
 3027TIP3    H1 9045   5.899   1.422   0.415
 3027TIP3    H2 9046   5.975   1.296   0.451
 3028TIP3   OH2 9047   0.937   5.892   0.358
 3028TIP3    H1 9048   0.963   5.918   0.270
 3028TIP3    H2 9049   0.936   5.974   0.408
 3029TIP3   OH2 9050   4.380   3.379   2.510
 3029TIP3    H1 9051   4.371   3.420   2.424
 3029TIP3    H2 9052   4.297   3.332   2.523
 3030TIP3   OH2 9053   6.384   3.732   3.431
 3030TIP3    H1 9054   6.362   3.639   3.446
 3030TIP3    H2 9055   6.315   3.780   3.477
 3031TIP3   OH2 9056   5.607   4.685   3.292
 3031TIP3    H1 9057   5.596   4.634   3.372
 3031TIP3    H2 9058   5.684   4.646   3.250
 3032TIP3   OH2 9059   0.642   3.594   5.629
 3032TIP3    H1 9060   0.565   3.577   5.575
 3032TIP3    H2 9061   0.636   3.529   5.699
 3033TIP3   OH2 9062   4.675   0.455   3.109
 3033TIP3    H1 9063   4.730   0.431   3.184
 3033TIP3    H2 9064   4.626   0.531   3.140
 3034TIP3   OH2 9065   5.411   6.360   4.811
 3034TIP3    H1 9066   5.398   6.327   4.900
 3034TIP3    H2 9067   5.344   6.428   4.801
 3035TIP3   OH2 9068   0.967   5.502   4.331
 3035TIP3    H1 9069   0.909   5.547   4.393
 3035TIP3    H2 9070   0.912   5.436   4.290
 3036TIP3   OH2 9071   6.582   1.317   3.612
 3036TIP3    H1 9072   6.620   1.358   3.691
 3036TIP3    H2 9073   6.601   1.379   3.542
 3037TIP3   OH2 9074   2.995   3.778   5.390
 3037TIP3    H1 9075   3.000   3.690   5.354
 3037TIP3    H2 9076   3.013   3.766   5.484
 3038TIP3   OH2 9077   5.845   5.570   0.913
 3038TIP3    H1 9078   5.764   5.546   0.867
 3038TIP3    H2 9079   5.868   5.656   0.877
 3039TIP3   OH2 9080   5.356   5.675   4.992
 3039TIP3    H1 9081   5.337   5.585   5.017
 3039TIP3    H2 9082   5.407   5.667   4.911
 3040TIP3   OH2 9083   1.831   6.243   0.813
 3040TIP3    H1 9084   1.808   6.331   0.784
 3040TIP3    H2 9085   1.789   6.185   0.749
 3041TIP3   OH2 9086   2.213   3.597   5.483
 3041TIP3    H1 9087   2.132   3.570   5.526
 3041TIP3    H2 9088   2.197   3.687   5.456
 3042TIP3   OH2 9089   1.729   2.393   2.947
 3042TIP3    H1 9090   1.736   2.489   2.949
 3042TIP3    H2 9091   1.697   2.370   3.034
 3043TIP3   OH2 9092   0.669  -0.006   1.604
 3043TIP3    H1 9093   0.744   0.054   1.602
 3043TIP3    H2 9094   0.604   0.039   1.658
 3044TIP3   OH2 9095   5.108   2.435   0.463
 3044TIP3    H1 9096   5.121   2.463   0.372
 3044TIP3    H2 9097   5.082   2.343   0.456
 3045TIP3   OH2 9098   2.064   5.803   5.185
 3045TIP3    H1 9099   2.101   5.873   5.132
 3045TIP3    H2 9100   2.085   5.827   5.275
 3046TIP3   OH2 9101   1.849   5.075   0.206
 3046TIP3    H1 9102   1.782   5.063   0.139
 3046TIP3    H2 9103   1.817   5.147   0.261
 3047TIP3   OH2 9104   4.946   0.706   4.413
 3047TIP3    H1 9105   4.945   0.712   4.508
 3047TIP3    H2 9106   4.853   0.703   4.388
 3048TIP3   OH2 9107   4.866   3.232   0.053
 3048TIP3    H1 9108   4.832   3.192   0.133
 3048TIP3    H2 9109   4.909   3.159   0.007
 3049TIP3   OH2 9110   3.435   6.689   4.832
 3049TIP3    H1 9111   3.353   6.712   4.877
 3049TIP3    H2 9112   3.475   6.623   4.888
 3050TIP3   OH2 9113   5.219   0.763   4.340
 3050TIP3    H1 9114   5.205   0.796   4.251
 3050TIP3    H2 9115   5.136   0.721   4.362
 3051TIP3   OH2 9116   5.457   2.096   5.701
 3051TIP3    H1 9117   5.427   2.006   5.708
 3051TIP3    H2 9118   5.431   2.137   5.783
 3052TIP3   OH2 9119   3.658   3.855   2.571
 3052TIP3    H1 9120   3.674   3.843   2.478
 3052TIP3    H2 9121   3.587   3.794   2.592
 3053TIP3   OH2 9122   4.960   1.147   5.261
 3053TIP3    H1 9123   4.956   1.167   5.168
 3053TIP3    H2 9124   4.869   1.153   5.291
 3054TIP3   OH2 9125   3.100   0.090   1.812
 3054TIP3    H1 9126   3.152   0.097   1.732
 3054TIP3    H2 9127   3.162   0.107   1.883
 3055TIP3   OH2 9128   1.061   0.783   0.551
 3055TIP3    H1 9129   1.043   0.877   0.541
 3055TIP3    H2 9130   1.060   0.749   0.462
 3056TIP3   OH2 9131   5.781   6.764   0.635
 3056TIP3    H1 9132   5.793   6.787   0.543
 3056TIP3    H2 9133   5.810   6.841   0.683
 3057TIP3   OH2 9134   1.757   2.029   4.308
 3057TIP3    H1 9135   1.702   2.015   4.231
 3057TIP3    H2 9136   1.842   1.992   4.283
 3058TIP3   OH2 9137   4.718   5.557   0.849
 3058TIP3    H1 9138   4.739   5.490   0.915
 3058TIP3    H2 9139   4.747   5.519   0.767
 3059TIP3   OH2 9140   3.040   0.729   2.760
 3059TIP3    H1 9141   3.054   0.666   2.689
 3059TIP3    H2 9142   3.125   0.772   2.771
 3060TIP3   OH2 9143   4.720   0.030   3.414
 3060TIP3    H1 9144   4.668   0.094   3.464
 3060TIP3    H2 9145   4.657  -0.009   3.353
 3061TIP3   OH2 9146   6.283   1.370   2.515
 3061TIP3    H1 9147   6.195   1.342   2.490
 3061TIP3    H2 9148   6.337   1.345   2.440
 3062TIP3   OH2 9149   5.553   2.515   2.136
 3062TIP3    H1 9150   5.639   2.501   2.174
 3062TIP3    H2 9151   5.528   2.430   2.099
 3063TIP3   OH2 9152   3.857   1.699   2.257
 3063TIP3    H1 9153   3.920   1.699   2.185
 3063TIP3    H2 9154   3.886   1.769   2.315
 3064TIP3   OH2 9155   3.563   2.759   1.680
 3064TIP3    H1 9156   3.539   2.850   1.662
 3064TIP3    H2 9157   3.560   2.752   1.776
 3065TIP3   OH2 9158   0.428   3.970   0.983
 3065TIP3    H1 9159   0.374   3.914   1.038
 3065TIP3    H2 9160   0.512   3.975   1.030
 3066TIP3   OH2 9161   6.827   0.943   0.136
 3066TIP3    H1 9162   6.887   0.971   0.067
 3066TIP3    H2 9163   6.796   0.857   0.107
 3067TIP3   OH2 9164   5.618   1.213   1.986
 3067TIP3    H1 9165   5.661   1.140   1.942
 3067TIP3    H2 9166   5.662   1.220   2.071
 3068TIP3   OH2 9167   2.052   1.361   2.130
 3068TIP3    H1 9168   2.040   1.443   2.082
 3068TIP3    H2 9169   2.038   1.385   2.222
 3069TIP3   OH2 9170   5.218   3.325   5.134
 3069TIP3    H1 9171   5.151   3.266   5.169
 3069TIP3    H2 9172   5.169   3.386   5.079
 3070TIP3   OH2 9173   6.298   6.566   5.693
 3070TIP3    H1 9174   6.313   6.637   5.755
 3070TIP3    H2 9175   6.203   6.561   5.684
 3071TIP3   OH2 9176   3.642   4.752   2.921
 3071TIP3    H1 9177   3.725   4.794   2.945
 3071TIP3    H2 9178   3.658   4.714   2.835
 3072TIP3   OH2 9179   0.455   1.036   4.998
 3072TIP3    H1 9180   0.395   1.084   5.056
 3072TIP3    H2 9181   0.499   1.104   4.948
 3073TIP3   OH2 9182   1.331   5.854   0.254
 3073TIP3    H1 9183   1.341   5.788   0.186
 3073TIP3    H2 9184   1.299   5.805   0.330
 3074TIP3   OH2 9185   3.235   3.731   5.195
 3074TIP3    H1 9186   3.210   3.820   5.221
 3074TIP3    H2 9187   3.305   3.744   5.130
 3075TIP3   OH2 9188   1.334   3.328   1.743
 3075TIP3    H1 9189   1.330   3.421   1.725
 3075TIP3    H2 9190   1.243   3.302   1.757
 3076TIP3   OH2 9191   4.207   6.438   2.849
 3076TIP3    H1 9192   4.118   6.463   2.874
 3076TIP3    H2 9193   4.235   6.378   2.918
 3077TIP3   OH2 9194   6.871   1.515   1.258
 3077TIP3    H1 9195   6.864   1.538   1.351
 3077TIP3    H2 9196   6.786   1.475   1.237
 3078TIP3   OH2 9197   3.266   2.988   4.801
 3078TIP3    H1 9198   3.203   2.996   4.729
 3078TIP3    H2 9199   3.351   3.004   4.760
 3079TIP3   OH2 9200   4.977   4.265   0.162
 3079TIP3    H1 9201   5.015   4.178   0.166
 3079TIP3    H2 9202   5.008   4.309   0.242
 3080TIP3   OH2 9203   0.515   2.812   5.838
 3080TIP3    H1 9204   0.492   2.902   5.813
 3080TIP3    H2 9205   0.607   2.803   5.815
 3081TIP3   OH2 9206   4.229   6.694   3.232
 3081TIP3    H1 9207   4.305   6.729   3.186
 3081TIP3    H2 9208   4.245   6.715   3.324
 3082TIP3   OH2 9209   3.480   1.963   3.580
 3082TIP3    H1 9210   3.565   2.001   3.602
 3082TIP3    H2 9211   3.469   1.981   3.487
 3083TIP3   OH2 9212   3.203   5.214   2.763
 3083TIP3    H1 9213   3.286   5.175   2.739
 3083TIP3    H2 9214   3.140   5.177   2.701
 3084TIP3   OH2 9215   5.641   5.286   4.864
 3084TIP3    H1 9216   5.635   5.331   4.948
 3084TIP3    H2 9217   5.734   5.290   4.841
 3085TIP3   OH2 9218   5.680   1.648   2.544
 3085TIP3    H1 9219   5.636   1.639   2.629
 3085TIP3    H2 9220   5.684   1.558   2.510
 3086TIP3   OH2 9221   6.928   4.171   5.113
 3086TIP3    H1 9222   6.992   4.234   5.148
 3086TIP3    H2 9223   6.912   4.111   5.186
 3087TIP3   OH2 9224   5.673   6.596   4.336
 3087TIP3    H1 9225   5.632   6.558   4.413
 3087TIP3    H2 9226   5.623   6.560   4.262
 3088TIP3   OH2 9227   2.329   0.384   0.181
 3088TIP3    H1 9228   2.236   0.397   0.164
 3088TIP3    H2 9229   2.360   0.333   0.106
 3089TIP3   OH2 9230   6.729   3.251   3.795
 3089TIP3    H1 9231   6.823   3.234   3.794
 3089TIP3    H2 9232   6.690   3.171   3.758
 3090TIP3   OH2 9233   6.171   4.309   1.663
 3090TIP3    H1 9234   6.119   4.369   1.608
 3090TIP3    H2 9235   6.240   4.365   1.700
 3091TIP3   OH2 9236   3.793   3.763   1.039
 3091TIP3    H1 9237   3.798   3.848   1.083
 3091TIP3    H2 9238   3.835   3.778   0.954
 3092TIP3   OH2 9239   4.854   4.544   4.303
 3092TIP3    H1 9240   4.864   4.585   4.389
 3092TIP3    H2 9241   4.799   4.606   4.254
 3093TIP3   OH2 9242   6.982   0.774   1.016
 3093TIP3    H1 9243   6.992   0.814   0.929
 3093TIP3    H2 9244   6.894   0.799   1.043
 3094TIP3   OH2 9245   6.627   1.787   3.352
 3094TIP3    H1 9246   6.616   1.867   3.404
 3094TIP3    H2 9247   6.562   1.794   3.283
 3095TIP3   OH2 9248   2.797   4.657   1.340
 3095TIP3    H1 9249   2.706   4.635   1.323
 3095TIP3    H2 9250   2.840   4.649   1.254
 3096TIP3   OH2 9251   5.710   6.088   2.686
 3096TIP3    H1 9252   5.679   6.175   2.660
 3096TIP3    H2 9253   5.694   6.032   2.611
 3097TIP3   OH2 9254   0.322   0.736   0.959
 3097TIP3    H1 9255   0.248   0.787   0.926
 3097TIP3    H2 9256   0.393   0.800   0.969
 3098TIP3   OH2 9257   3.373   3.328   2.292
 3098TIP3    H1 9258   3.398   3.363   2.378
 3098TIP3    H2 9259   3.315   3.394   2.255
 3099TIP3   OH2 9260   3.153   6.577   5.776
 3099TIP3    H1 9261   3.238   6.553   5.813
 3099TIP3    H2 9262   3.153   6.537   5.688
 3100TIP3   OH2 9263   0.260   2.852   2.792
 3100TIP3    H1 9264   0.212   2.785   2.839
 3100TIP3    H2 9265   0.196   2.891   2.732
 3101TIP3   OH2 9266   4.889   3.194   2.310
 3101TIP3    H1 9267   4.915   3.172   2.221
 3101TIP3    H2 9268   4.972   3.203   2.358
 3102TIP3   OH2 9269   6.312   2.292   0.087
 3102TIP3    H1 9270   6.320   2.209   0.040
 3102TIP3    H2 9271   6.298   2.266   0.178
 3103TIP3   OH2 9272   2.353   3.128   3.881
 3103TIP3    H1 9273   2.290   3.188   3.922
 3103TIP3    H2 9274   2.306   3.046   3.873
 3104TIP3   OH2 9275   4.721   0.140   1.496
 3104TIP3    H1 9276   4.774   0.161   1.573
 3104TIP3    H2 9277   4.714   0.044   1.498
 3105TIP3   OH2 9278   5.230   6.393   4.500
 3105TIP3    H1 9279   5.298   6.453   4.468
 3105TIP3    H2 9280   5.219   6.330   4.429
 3106TIP3   OH2 9281   3.741   6.162   1.921
 3106TIP3    H1 9282   3.708   6.240   1.878
 3106TIP3    H2 9283   3.807   6.127   1.861
 3107TIP3   OH2 9284   1.796   1.275   1.007
 3107TIP3    H1 9285   1.882   1.311   1.028
 3107TIP3    H2 9286   1.756   1.339   0.949
 3108TIP3   OH2 9287   1.120   3.757   0.856
 3108TIP3    H1 9288   1.207   3.795   0.843
 3108TIP3    H2 9289   1.066   3.831   0.885
 3109TIP3   OH2 9290   6.816   6.205   2.141
 3109TIP3    H1 9291   6.764   6.160   2.074
 3109TIP3    H2 9292   6.752   6.233   2.207
 3110TIP3   OH2 9293   5.218   4.643   4.000
 3110TIP3    H1 9294   5.202   4.620   3.908
 3110TIP3    H2 9295   5.308   4.677   4.000
 3111TIP3   OH2 9296   3.843   2.191   4.651
 3111TIP3    H1 9297   3.894   2.135   4.592
 3111TIP3    H2 9298   3.763   2.141   4.667
 3112TIP3   OH2 9299   1.965   6.142   3.450
 3112TIP3    H1 9300   2.010   6.059   3.463
 3112TIP3    H2 9301   1.940   6.142   3.358
 3113TIP3   OH2 9302   3.332   1.734   0.695
 3113TIP3    H1 9303   3.380   1.705   0.773
 3113TIP3    H2 9304   3.389   1.709   0.621
 3114TIP3   OH2 9305   1.886   6.714   4.867
 3114TIP3    H1 9306   1.817   6.711   4.800
 3114TIP3    H2 9307   1.962   6.674   4.824
 3115TIP3   OH2 9308   0.223   5.034   2.020
 3115TIP3    H1 9309   0.280   5.047   1.944
 3115TIP3    H2 9310   0.207   4.940   2.023
 3116TIP3   OH2 9311   4.884   0.566   3.956
 3116TIP3    H1 9312   4.793   0.597   3.959
 3116TIP3    H2 9313   4.895   0.533   3.867
 3117TIP3   OH2 9314   1.563   5.231   1.165
 3117TIP3    H1 9315   1.620   5.292   1.118
 3117TIP3    H2 9316   1.491   5.214   1.104
 3118TIP3   OH2 9317   4.669   3.883   0.130
 3118TIP3    H1 9318   4.611   3.903   0.204
 3118TIP3    H2 9319   4.621   3.818   0.079
 3119TIP3   OH2 9320   3.641   2.748   5.222
 3119TIP3    H1 9321   3.575   2.813   5.199
 3119TIP3    H2 9322   3.672   2.714   5.138
 3120TIP3   OH2 9323   2.592   3.476   4.016
 3120TIP3    H1 9324   2.536   3.473   3.939
 3120TIP3    H2 9325   2.633   3.563   4.013
 3121TIP3   OH2 9326   1.623   0.837   0.416
 3121TIP3    H1 9327   1.627   0.836   0.512
 3121TIP3    H2 9328   1.543   0.789   0.395
 3122TIP3   OH2 9329   4.682   2.130   2.861
 3122TIP3    H1 9330   4.716   2.204   2.810
 3122TIP3    H2 9331   4.702   2.152   2.952
 3123TIP3   OH2 9332   3.300   5.687   0.254
 3123TIP3    H1 9333   3.336   5.775   0.259
 3123TIP3    H2 9334   3.230   5.685   0.319
 3124TIP3   OH2 9335   4.886   4.806   2.946
 3124TIP3    H1 9336   4.852   4.829   3.033
 3124TIP3    H2 9337   4.952   4.739   2.964
 3125TIP3   OH2 9338   5.383   0.114   3.365
 3125TIP3    H1 9339   5.409   0.203   3.340
 3125TIP3    H2 9340   5.445   0.057   3.318
 3126TIP3   OH2 9341   0.804   6.608   5.245
 3126TIP3    H1 9342   0.827   6.701   5.251
 3126TIP3    H2 9343   0.867   6.572   5.183
 3127TIP3   OH2 9344   0.656   2.869   5.195
 3127TIP3    H1 9345   0.728   2.847   5.256
 3127TIP3    H2 9346   0.687   2.838   5.110
 3128TIP3   OH2 9347   1.072   5.728   5.191
 3128TIP3    H1 9348   1.101   5.735   5.100
 3128TIP3    H2 9349   1.050   5.635   5.202
 3129TIP3   OH2 9350   4.906   0.472   1.330
 3129TIP3    H1 9351   4.932   0.400   1.388
 3129TIP3    H2 9352   4.955   0.548   1.362
 3130TIP3   OH2 9353   4.958   0.639   4.684
 3130TIP3    H1 9354   5.038   0.659   4.732
 3130TIP3    H2 9355   4.888   0.672   4.740
 3131TIP3   OH2 9356   2.297   4.056   0.589
 3131TIP3    H1 9357   2.283   3.996   0.662
 3131TIP3    H2 9358   2.381   4.030   0.553
 3132TIP3   OH2 9359   5.332   0.846   1.753
 3132TIP3    H1 9360   5.334   0.887   1.839
 3132TIP3    H2 9361   5.420   0.860   1.718
 3133TIP3   OH2 9362   1.311   0.794   4.762
 3133TIP3    H1 9363   1.271   0.782   4.849
 3133TIP3    H2 9364   1.261   0.735   4.705
 3134TIP3   OH2 9365   4.090   4.192   5.619
 3134TIP3    H1 9366   4.115   4.264   5.562
 3134TIP3    H2 9367   3.995   4.202   5.631
 3135TIP3   OH2 9368   0.061   2.813   1.920
 3135TIP3    H1 9369   0.156   2.821   1.925
 3135TIP3    H2 9370   0.040   2.735   1.971
 3136TIP3   OH2 9371   1.365   6.457   3.030
 3136TIP3    H1 9372   1.286   6.441   2.979
 3136TIP3    H2 9373   1.335   6.458   3.121
 3137TIP3   OH2 9374   0.271   4.359   1.396
 3137TIP3    H1 9375   0.278   4.284   1.456
 3137TIP3    H2 9376   0.362   4.382   1.377
 3138TIP3   OH2 9377   3.513   6.157   2.949
 3138TIP3    H1 9378   3.437   6.186   2.898
 3138TIP3    H2 9379   3.573   6.122   2.884
 3139TIP3   OH2 9380   0.000   3.984   5.768
 3139TIP3    H1 9381   0.096   3.984   5.767
 3139TIP3    H2 9382  -0.023   4.067   5.809
 3140TIP3   OH2 9383   2.271   3.784   2.507
 3140TIP3    H1 9384   2.298   3.787   2.416
 3140TIP3    H2 9385   2.177   3.806   2.505
 3141TIP3   OH2 9386   2.407   3.534   1.576
 3141TIP3    H1 9387   2.469   3.591   1.531
 3141TIP3    H2 9388   2.380   3.584   1.654
 3142TIP3   OH2 9389   6.547   5.880   5.415
 3142TIP3    H1 9390   6.492   5.919   5.347
 3142TIP3    H2 9391   6.567   5.952   5.474
 3143TIP3   OH2 9392   5.166   2.408   2.400
 3143TIP3    H1 9393   5.079   2.370   2.391
 3143TIP3    H2 9394   5.171   2.474   2.331
 3144TIP3   OH2 9395   6.037   1.587   2.951
 3144TIP3    H1 9396   5.961   1.576   3.007
 3144TIP3    H2 9397   6.060   1.498   2.924
 3145TIP3   OH2 9398   0.063   0.714   2.685
 3145TIP3    H1 9399   0.150   0.754   2.690
 3145TIP3    H2 9400   0.079   0.620   2.685
 3146TIP3   OH2 9401   3.004   5.530   5.782
 3146TIP3    H1 9402   2.965   5.578   5.709
 3146TIP3    H2 9403   2.950   5.451   5.791
 3147TIP3   OH2 9404   6.109   4.233   1.943
 3147TIP3    H1 9405   6.158   4.258   1.864
 3147TIP3    H2 9406   6.120   4.307   2.002
 3148TIP3   OH2 9407   2.529   5.816   2.683
 3148TIP3    H1 9408   2.542   5.798   2.590
 3148TIP3    H2 9409   2.607   5.782   2.725
 3149TIP3   OH2 9410   5.936   3.099   4.725
 3149TIP3    H1 9411   5.985   3.019   4.706
 3149TIP3    H2 9412   5.905   3.087   4.815
 3150TIP3   OH2 9413   6.775   3.600   3.356
 3150TIP3    H1 9414   6.870   3.611   3.360
 3150TIP3    H2 9415   6.754   3.543   3.430
 3151TIP3   OH2 9416   5.935   3.422   1.437
 3151TIP3    H1 9417   5.945   3.501   1.490
 3151TIP3    H2 9418   5.849   3.387   1.460
 3152TIP3   OH2 9419   1.413   6.069   1.327
 3152TIP3    H1 9420   1.419   5.994   1.268
 3152TIP3    H2 9421   1.503   6.086   1.354
 3153TIP3   OH2 9422   0.445   6.410   0.040
 3153TIP3    H1 9423   0.397   6.334   0.009
 3153TIP3    H2 9424   0.513   6.374   0.097
 3154TIP3   OH2 9425   1.857   2.234   1.590
 3154TIP3    H1 9426   1.904   2.317   1.581
 3154TIP3    H2 9427   1.911   2.183   1.650
 3155TIP3   OH2 9428   3.464   0.309   5.585
 3155TIP3    H1 9429   3.384   0.316   5.636
 3155TIP3    H2 9430   3.534   0.308   5.651
 3156TIP3   OH2 9431   2.763   5.247   5.598
 3156TIP3    H1 9432   2.821   5.298   5.540
 3156TIP3    H2 9433   2.677   5.254   5.557
 3157TIP3   OH2 9434   4.760   4.359   5.441
 3157TIP3    H1 9435   4.695   4.375   5.509
 3157TIP3    H2 9436   4.736   4.274   5.404
 3158TIP3   OH2 9437   6.928   3.916   3.388
 3158TIP3    H1 9438   6.968   3.866   3.460
 3158TIP3    H2 9439   6.936   3.859   3.312
 3159TIP3   OH2 9440   1.883   4.108   3.842
 3159TIP3    H1 9441   1.824   4.047   3.888
 3159TIP3    H2 9442   1.862   4.194   3.880
 3160TIP3   OH2 9443   7.037   0.951   2.034
 3160TIP3    H1 9444   7.053   0.874   2.089
 3160TIP3    H2 9445   7.101   1.016   2.065
 3161TIP3   OH2 9446   4.976   4.520   5.744
 3161TIP3    H1 9447   4.908   4.588   5.749
 3161TIP3    H2 9448   5.031   4.546   5.671
 3162TIP3   OH2 9449   4.786   3.152   2.770
 3162TIP3    H1 9450   4.701   3.188   2.746
 3162TIP3    H2 9451   4.827   3.220   2.824
 3163TIP3   OH2 9452   4.794   0.299   0.244
 3163TIP3    H1 9453   4.800   0.204   0.247
 3163TIP3    H2 9454   4.867   0.329   0.299
 3164TIP3   OH2 9455   4.549   2.656   0.873
 3164TIP3    H1 9456   4.576   2.585   0.931
 3164TIP3    H2 9457   4.473   2.621   0.827
 3165TIP3   OH2 9458   2.580   6.096   0.030
 3165TIP3    H1 9459   2.672   6.086   0.054
 3165TIP3    H2 9460   2.554   6.180   0.066
 3166TIP3   OH2 9461   6.096   5.084   0.869
 3166TIP3    H1 9462   6.072   5.146   0.800
 3166TIP3    H2 9463   6.060   5.121   0.949
 3167TIP3   OH2 9464   2.520   0.833   1.262
 3167TIP3    H1 9465   2.570   0.910   1.289
 3167TIP3    H2 9466   2.485   0.798   1.344
 3168TIP3   OH2 9467   2.147   2.891   1.196
 3168TIP3    H1 9468   2.190   2.814   1.234
 3168TIP3    H2 9469   2.218   2.954   1.184
 3169TIP3   OH2 9470   2.005   0.413   5.332
 3169TIP3    H1 9471   1.933   0.395   5.271
 3169TIP3    H2 9472   2.074   0.450   5.276
 3170TIP3   OH2 9473   5.314   4.814   2.226
 3170TIP3    H1 9474   5.374   4.887   2.213
 3170TIP3    H2 9475   5.348   4.768   2.303
 3171TIP3   OH2 9476   0.935   2.376   1.728
 3171TIP3    H1 9477   1.020   2.408   1.759
 3171TIP3    H2 9478   0.955   2.328   1.648
 3172TIP3   OH2 9479   4.715   2.248   5.178
 3172TIP3    H1 9480   4.710   2.279   5.268
 3172TIP3    H2 9481   4.683   2.321   5.126
 3173TIP3   OH2 9482   4.331   1.981   1.474
 3173TIP3    H1 9483   4.274   2.051   1.442
 3173TIP3    H2 9484   4.272   1.910   1.498
 3174TIP3   OH2 9485   2.837   1.232   3.903
 3174TIP3    H1 9486   2.928   1.211   3.927
 3174TIP3    H2 9487   2.788   1.152   3.924
 3175TIP3   OH2 9488   0.060   5.693   3.424
 3175TIP3    H1 9489   0.060   5.787   3.444
 3175TIP3    H2 9490   0.123   5.684   3.352
 3176TIP3   OH2 9491   4.417   6.317   4.338
 3176TIP3    H1 9492   4.429   6.228   4.369
 3176TIP3    H2 9493   4.506   6.350   4.323
 3177TIP3   OH2 9494   2.207   6.776   1.755
 3177TIP3    H1 9495   2.194   6.851   1.813
 3177TIP3    H2 9496   2.302   6.775   1.739
 3178TIP3   OH2 9497   5.567   3.270   2.449
 3178TIP3    H1 9498   5.534   3.359   2.457
 3178TIP3    H2 9499   5.499   3.215   2.489
 3179TIP3   OH2 9500   0.640   4.547   2.395
 3179TIP3    H1 9501   0.702   4.581   2.458
 3179TIP3    H2 9502   0.576   4.617   2.384
 3180TIP3   OH2 9503   3.582   5.623   4.632
 3180TIP3    H1 9504   3.497   5.659   4.606
 3180TIP3    H2 9505   3.579   5.620   4.728
 3181TIP3   OH2 9506   2.951   1.493   3.139
 3181TIP3    H1 9507   3.004   1.568   3.111
 3181TIP3    H2 9508   2.923   1.515   3.228
 3182TIP3   OH2 9509   0.186   4.816   3.649
 3182TIP3    H1 9510   0.214   4.732   3.611
 3182TIP3    H2 9511   0.140   4.792   3.729
 3183TIP3   OH2 9512   4.063   2.741   5.800
 3183TIP3    H1 9513   3.999   2.676   5.830
 3183TIP3    H2 9514   4.147   2.694   5.803
 3184TIP3   OH2 9515   6.796   0.812   5.624
 3184TIP3    H1 9516   6.865   0.853   5.674
 3184TIP3    H2 9517   6.739   0.884   5.596
 3185TIP3   OH2 9518   4.295   3.582   0.219
 3185TIP3    H1 9519   4.240   3.514   0.181
 3185TIP3    H2 9520   4.370   3.534   0.255
 3186TIP3   OH2 9521   3.522   4.440   3.891
 3186TIP3    H1 9522   3.576   4.367   3.921
 3186TIP3    H2 9523   3.583   4.493   3.838
 3187TIP3   OH2 9524   0.325   5.758   0.690
 3187TIP3    H1 9525   0.263   5.774   0.620
 3187TIP3    H2 9526   0.285   5.798   0.767
 3188TIP3   OH2 9527   0.674   1.636   5.413
 3188TIP3    H1 9528   0.643   1.665   5.499
 3188TIP3    H2 9529   0.730   1.708   5.383
 3189TIP3   OH2 9530   7.153   6.375   3.729
 3189TIP3    H1 9531   7.235   6.419   3.707
 3189TIP3    H2 9532   7.120   6.342   3.646
 3190TIP3   OH2 9533   5.539   6.819   4.313
 3190TIP3    H1 9534   5.579   6.734   4.332
 3190TIP3    H2 9535   5.593   6.855   4.243
 3191TIP3   OH2 9536   2.951   0.659   0.931
 3191TIP3    H1 9537   2.915   0.738   0.891
 3191TIP3    H2 9538   3.042   0.656   0.901
 3192TIP3   OH2 9539   3.257   1.195   5.578
 3192TIP3    H1 9540   3.279   1.214   5.669
 3192TIP3    H2 9541   3.307   1.259   5.528
 3193TIP3   OH2 9542   4.094   3.135   5.252
 3193TIP3    H1 9543   4.145   3.093   5.321
 3193TIP3    H2 9544   4.140   3.112   5.171
 3194TIP3   OH2 9545   5.744   5.788   5.456
 3194TIP3    H1 9546   5.666   5.785   5.401
 3194TIP3    H2 9547   5.800   5.718   5.423
 3195TIP3   OH2 9548   4.778   4.440   3.098
 3195TIP3    H1 9549   4.715   4.482   3.155
 3195TIP3    H2 9550   4.729   4.368   3.057
 3196TIP3   OH2 9551   1.582   6.229   3.873
 3196TIP3    H1 9552   1.516   6.286   3.911
 3196TIP3    H2 9553   1.544   6.199   3.791
 3197TIP3   OH2 9554   1.022   4.793   0.047
 3197TIP3    H1 9555   1.010   4.757  -0.041
 3197TIP3    H2 9556   1.084   4.734   0.089
 3198TIP3   OH2 9557   5.171   3.225   5.788
 3198TIP3    H1 9558   5.167   3.181   5.873
 3198TIP3    H2 9559   5.264   3.238   5.772
 3199TIP3   OH2 9560   6.188   3.089   3.068
 3199TIP3    H1 9561   6.196   3.000   3.035
 3199TIP3    H2 9562   6.180   3.144   2.990
 3200TIP3   OH2 9563   3.556   2.310   1.535
 3200TIP3    H1 9564   3.512   2.391   1.560
 3200TIP3    H2 9565   3.536   2.250   1.607
 3201TIP3   OH2 9566   1.283   0.725   1.793
 3201TIP3    H1 9567   1.372   0.756   1.808
 3201TIP3    H2 9568   1.254   0.691   1.877
 3202TIP3   OH2 9569   6.279   6.428   0.123
 3202TIP3    H1 9570   6.246   6.342   0.148
 3202TIP3    H2 9571   6.210   6.489   0.149
 3203TIP3   OH2 9572   1.574   2.453   3.549
 3203TIP3    H1 9573   1.619   2.369   3.555
 3203TIP3    H2 9574   1.595   2.484   3.461
 3204TIP3   OH2 9575   6.765   4.310   4.722
 3204TIP3    H1 9576   6.691   4.366   4.696
 3204TIP3    H2 9577   6.779   4.253   4.646
 3205TIP3   OH2 9578   1.572   2.342   3.172
 3205TIP3    H1 9579   1.651   2.317   3.221
 3205TIP3    H2 9580   1.513   2.267   3.181
 3206TIP3   OH2 9581   3.442   2.905   5.120
 3206TIP3    H1 9582   3.401   2.898   5.206
 3206TIP3    H2 9583   3.416   2.991   5.088
 3207TIP3   OH2 9584   2.213   5.807   5.442
 3207TIP3    H1 9585   2.291   5.846   5.480
 3207TIP3    H2 9586   2.221   5.714   5.460
 3208TIP3   OH2 9587   1.942   0.119   0.920
 3208TIP3    H1 9588   1.867   0.083   0.966
 3208TIP3    H2 9589   1.991   0.042   0.889
 3209TIP3   OH2 9590   2.919   2.714   5.866
 3209TIP3    H1 9591   2.914   2.688   5.774
 3209TIP3    H2 9592   2.863   2.651   5.912
 3210TIP3   OH2 9593   6.814   4.268   5.426
 3210TIP3    H1 9594   6.786   4.266   5.518
 3210TIP3    H2 9595   6.774   4.190   5.387
 3211TIP3   OH2 9596   5.175   4.899   0.219
 3211TIP3    H1 9597   5.085   4.931   0.214
 3211TIP3    H2 9598   5.193   4.893   0.313
 3212TIP3   OH2 9599   4.918   6.549   3.511
 3212TIP3    H1 9600   4.878   6.498   3.582
 3212TIP3    H2 9601   4.844   6.591   3.468
 3213TIP3   OH2 9602   2.858   5.248   1.163
 3213TIP3    H1 9603   2.782   5.305   1.172
 3213TIP3    H2 9604   2.901   5.277   1.083
 3214TIP3   OH2 9605  -0.006   1.583   2.447
 3214TIP3    H1 9606  -0.090   1.566   2.488
 3214TIP3    H2 9607   0.048   1.622   2.517
 3215TIP3   OH2 9608   1.082   6.169   1.098
 3215TIP3    H1 9609   1.052   6.184   1.009
 3215TIP3    H2 9610   1.028   6.098   1.131
 3216TIP3   OH2 9611   0.591   2.687   3.697
 3216TIP3    H1 9612   0.604   2.662   3.789
 3216TIP3    H2 9613   0.587   2.604   3.650
 3217TIP3   OH2 9614   3.332   3.132   0.626
 3217TIP3    H1 9615   3.314   3.063   0.690
 3217TIP3    H2 9616   3.317   3.091   0.541
 3218TIP3   OH2 9617   1.198   0.332   5.282
 3218TIP3    H1 9618   1.283   0.300   5.253
 3218TIP3    H2 9619   1.137   0.305   5.213
 3219TIP3   OH2 9620   2.670   5.512   2.648
 3219TIP3    H1 9621   2.701   5.442   2.704
 3219TIP3    H2 9622   2.702   5.592   2.690
 3220TIP3   OH2 9623   5.548   3.336   3.728
 3220TIP3    H1 9624   5.509   3.250   3.743
 3220TIP3    H2 9625   5.583   3.362   3.813
 3221TIP3   OH2 9626   3.663   5.874   3.160
 3221TIP3    H1 9627   3.574   5.874   3.125
 3221TIP3    H2 9628   3.715   5.916   3.092
 3222TIP3   OH2 9629   5.904   6.086   0.620
 3222TIP3    H1 9630   5.995   6.083   0.592
 3222TIP3    H2 9631   5.856   6.043   0.549
 3223TIP3   OH2 9632   3.173   4.919   1.417
 3223TIP3    H1 9633   3.156   4.847   1.356
 3223TIP3    H2 9634   3.201   4.991   1.361
 3224TIP3   OH2 9635   5.310   3.221   4.036
 3224TIP3    H1 9636   5.299   3.294   3.975
 3224TIP3    H2 9637   5.369   3.160   3.992
 3225TIP3   OH2 9638   6.700   5.745   3.120
 3225TIP3    H1 9639   6.644   5.777   3.191
 3225TIP3    H2 9640   6.687   5.650   3.121
 3226TIP3   OH2 9641   0.539   0.150   5.663
 3226TIP3    H1 9642   0.481   0.077   5.684
 3226TIP3    H2 9643   0.556   0.192   5.748
 3227TIP3   OH2 9644   6.820   2.348   0.340
 3227TIP3    H1 9645   6.830   2.312   0.428
 3227TIP3    H2 9646   6.741   2.306   0.305
 3228TIP3   OH2 9647   0.166   4.847   3.067
 3228TIP3    H1 9648   0.099   4.911   3.041
 3228TIP3    H2 9649   0.242   4.871   3.015
 3229TIP3   OH2 9650   2.962   2.271   5.818
 3229TIP3    H1 9651   2.918   2.275   5.903
 3229TIP3    H2 9652   3.029   2.339   5.823
 3230TIP3   OH2 9653   4.797   2.410   1.019
 3230TIP3    H1 9654   4.819   2.422   0.926
 3230TIP3    H2 9655   4.707   2.377   1.018
 3231TIP3   OH2 9656   7.076   2.889   0.079
 3231TIP3    H1 9657   6.990   2.919   0.109
 3231TIP3    H2 9658   7.056   2.829   0.008
 3232TIP3   OH2 9659   5.214   1.197   1.607
 3232TIP3    H1 9660   5.207   1.292   1.607
 3232TIP3    H2 9661   5.276   1.177   1.537
 3233TIP3   OH2 9662   5.485   5.146   3.433
 3233TIP3    H1 9663   5.539   5.196   3.372
 3233TIP3    H2 9664   5.486   5.057   3.399
 3234TIP3   OH2 9665   2.996   0.818   3.213
 3234TIP3    H1 9666   2.962   0.769   3.138
 3234TIP3    H2 9667   3.090   0.823   3.199
 3235TIP3   OH2 9668   4.723   0.861   2.477
 3235TIP3    H1 9669   4.686   0.810   2.550
 3235TIP3    H2 9670   4.808   0.820   2.461
 3236TIP3   OH2 9671   2.729   3.588   3.551
 3236TIP3    H1 9672   2.691   3.653   3.610
 3236TIP3    H2 9673   2.747   3.512   3.606
 3237TIP3   OH2 9674   0.437   3.840   0.638
 3237TIP3    H1 9675   0.437   3.807   0.548
 3237TIP3    H2 9676   0.495   3.916   0.635
 3238TIP3   OH2 9677   0.245   6.880   4.883
 3238TIP3    H1 9678   0.169   6.834   4.846
 3238TIP3    H2 9679   0.315   6.866   4.820
 3239TIP3   OH2 9680   2.565   3.118   1.954
 3239TIP3    H1 9681   2.503   3.088   2.020
 3239TIP3    H2 9682   2.546   3.211   1.944
 3240TIP3   OH2 9683   4.034   1.967   0.541
 3240TIP3    H1 9684   4.021   1.905   0.470
 3240TIP3    H2 9685   4.031   1.913   0.620
 3241TIP3   OH2 9686   3.050   4.877   5.115
 3241TIP3    H1 9687   3.071   4.957   5.067
 3241TIP3    H2 9688   3.003   4.908   5.192
 3242TIP3   OH2 9689   6.860   2.967   2.812
 3242TIP3    H1 9690   6.796   3.035   2.835
 3242TIP3    H2 9691   6.848   2.953   2.718
 3243TIP3   OH2 9692   0.214   2.135   1.824
 3243TIP3    H1 9693   0.254   2.119   1.910
 3243TIP3    H2 9694   0.121   2.116   1.837
 3244TIP3   OH2 9695   4.230   5.691   2.065
 3244TIP3    H1 9696   4.256   5.643   2.144
 3244TIP3    H2 9697   4.180   5.766   2.098
 3245TIP3   OH2 9698   4.890   4.212   3.681
 3245TIP3    H1 9699   4.927   4.195   3.594
 3245TIP3    H2 9700   4.912   4.134   3.732
 3246TIP3   OH2 9701   4.704   5.029   3.641
 3246TIP3    H1 9702   4.649   4.973   3.587
 3246TIP3    H2 9703   4.702   5.114   3.598
 3247TIP3   OH2 9704   1.694   3.469   1.991
 3247TIP3    H1 9705   1.634   3.395   1.994
 3247TIP3    H2 9706   1.780   3.430   1.976
 3248TIP3   OH2 9707   3.272   6.679   0.053
 3248TIP3    H1 9708   3.318   6.762   0.038
 3248TIP3    H2 9709   3.188   6.689   0.007
 3249TIP3   OH2 9710   2.921   2.946   2.589
 3249TIP3    H1 9711   2.963   2.875   2.539
 3249TIP3    H2 9712   2.887   3.005   2.522
 3250TIP3   OH2 9713   1.020   2.729   4.734
 3250TIP3    H1 9714   1.060   2.779   4.806
 3250TIP3    H2 9715   1.070   2.647   4.731
 3251TIP3   OH2 9716   4.694   4.495   5.185
 3251TIP3    H1 9717   4.705   4.534   5.098
 3251TIP3    H2 9718   4.781   4.462   5.208
 3252TIP3   OH2 9719   2.313   3.868   5.418
 3252TIP3    H1 9720   2.305   3.963   5.406
 3252TIP3    H2 9721   2.339   3.836   5.332
 3253TIP3   OH2 9722   6.936   4.898   2.890
 3253TIP3    H1 9723   7.028   4.873   2.890
 3253TIP3    H2 9724   6.933   4.978   2.943
 3254TIP3   OH2 9725   3.179   6.144   2.294
 3254TIP3    H1 9726   3.205   6.210   2.360
 3254TIP3    H2 9727   3.257   6.134   2.239
 3255TIP3   OH2 9728   3.567   0.548   0.063
 3255TIP3    H1 9729   3.555   0.527  -0.030
 3255TIP3    H2 9730   3.661   0.563   0.072
 3256TIP3   OH2 9731   6.686   6.442   0.633
 3256TIP3    H1 9732   6.725   6.443   0.721
 3256TIP3    H2 9733   6.741   6.381   0.584
 3257TIP3   OH2 9734   4.503   1.951   3.684
 3257TIP3    H1 9735   4.420   1.956   3.637
 3257TIP3    H2 9736   4.553   2.026   3.652
 3258TIP3   OH2 9737   2.997   4.123   2.127
 3258TIP3    H1 9738   2.973   4.135   2.035
 3258TIP3    H2 9739   3.081   4.168   2.136
 3259TIP3   OH2 9740   1.754   5.860   3.190
 3259TIP3    H1 9741   1.821   5.835   3.127
 3259TIP3    H2 9742   1.682   5.800   3.173
 3260TIP3   OH2 9743   2.556   0.029   5.439
 3260TIP3    H1 9744   2.576   0.003   5.349
 3260TIP3    H2 9745   2.462   0.016   5.447
 3261TIP3   OH2 9746   5.399   3.154   5.270
 3261TIP3    H1 9747   5.494   3.160   5.259
 3261TIP3    H2 9748   5.365   3.232   5.227
 3262TIP3   OH2 9749   1.395   4.172   4.494
 3262TIP3    H1 9750   1.402   4.196   4.587
 3262TIP3    H2 9751   1.442   4.090   4.487
 3263TIP3   OH2 9752   3.158   0.553   3.613
 3263TIP3    H1 9753   3.236   0.526   3.565
 3263TIP3    H2 9754   3.186   0.630   3.663
 3264TIP3   OH2 9755   4.722   4.748   4.164
 3264TIP3    H1 9756   4.650   4.787   4.114
 3264TIP3    H2 9757   4.801   4.773   4.116
 3265TIP3   OH2 9758   6.337   6.511   4.685
 3265TIP3    H1 9759   6.407   6.490   4.747
 3265TIP3    H2 9760   6.272   6.442   4.698
 3266TIP3   OH2 9761   1.845   0.834   4.336
 3266TIP3    H1 9762   1.899   0.911   4.353
 3266TIP3    H2 9763   1.758   0.869   4.319
 3267TIP3   OH2 9764   7.109   1.994   0.554
 3267TIP3    H1 9765   7.035   1.988   0.615
 3267TIP3    H2 9766   7.070   2.029   0.473
 3268TIP3   OH2 9767   3.762   6.354   0.252
 3268TIP3    H1 9768   3.850   6.376   0.284
 3268TIP3    H2 9769   3.739   6.425   0.193
 3269TIP3   OH2 9770   0.481   0.091   3.611
 3269TIP3    H1 9771   0.484   0.151   3.685
 3269TIP3    H2 9772   0.419   0.022   3.638
 3270TIP3   OH2 9773   2.398   3.461   5.147
 3270TIP3    H1 9774   2.422   3.548   5.115
 3270TIP3    H2 9775   2.456   3.401   5.101
 3271TIP3   OH2 9776   5.784   4.527   1.217
 3271TIP3    H1 9777   5.836   4.507   1.139
 3271TIP3    H2 9778   5.723   4.454   1.223
 3272TIP3   OH2 9779   0.904   2.139   0.246
 3272TIP3    H1 9780   0.888   2.219   0.197
 3272TIP3    H2 9781   0.823   2.088   0.236
 3273TIP3   OH2 9782   2.326   0.661   5.821
 3273TIP3    H1 9783   2.383   0.603   5.770
 3273TIP3    H2 9784   2.313   0.614   5.904
 3274TIP3   OH2 9785   4.472   1.206   4.687
 3274TIP3    H1 9786   4.409   1.170   4.750
 3274TIP3    H2 9787   4.423   1.211   4.605
 3275TIP3   OH2 9788   4.593   3.223   5.770
 3275TIP3    H1 9789   4.515   3.179   5.804
 3275TIP3    H2 9790   4.640   3.154   5.723
 3276TIP3   OH2 9791   2.948   6.188   3.812
 3276TIP3    H1 9792   2.946   6.164   3.905
 3276TIP3    H2 9793   2.859   6.175   3.782
 3277TIP3   OH2 9794   1.528   2.862   0.672
 3277TIP3    H1 9795   1.487   2.883   0.756
 3277TIP3    H2 9796   1.579   2.783   0.691
 3278TIP3   OH2 9797   3.704   1.126   4.512
 3278TIP3    H1 9798   3.714   1.073   4.433
 3278TIP3    H2 9799   3.789   1.120   4.556
 3279TIP3   OH2 9800   1.912   1.043   1.532
 3279TIP3    H1 9801   1.990   1.037   1.477
 3279TIP3    H2 9802   1.879   1.131   1.518
 3280TIP3   OH2 9803   5.888   1.060   0.502
 3280TIP3    H1 9804   5.832   1.132   0.472
 3280TIP3    H2 9805   5.896   1.074   0.596
 3281TIP3   OH2 9806   1.749   1.283   4.853
 3281TIP3    H1 9807   1.761   1.302   4.947
 3281TIP3    H2 9808   1.689   1.210   4.851
 3282TIP3   OH2 9809   7.135   2.899   3.765
 3282TIP3    H1 9810   7.046   2.877   3.737
 3282TIP3    H2 9811   7.137   2.880   3.859
 3283TIP3   OH2 9812   2.587   1.956   0.022
 3283TIP3    H1 9813   2.613   2.032  -0.030
 3283TIP3    H2 9814   2.624   1.881  -0.025
 3284TIP3   OH2 9815   2.978   3.572   4.700
 3284TIP3    H1 9816   2.958   3.480   4.680
 3284TIP3    H2 9817   3.053   3.593   4.645
 3285TIP3   OH2 9818   2.360   2.607   1.067
 3285TIP3    H1 9819   2.416   2.661   1.012
 3285TIP3    H2 9820   2.281   2.592   1.014
 3286TIP3   OH2 9821   2.338   2.246   2.671
 3286TIP3    H1 9822   2.388   2.168   2.648
 3286TIP3    H2 9823   2.247   2.224   2.647
 3287TIP3   OH2 9824   4.712   2.447   0.145
 3287TIP3    H1 9825   4.747   2.393   0.216
 3287TIP3    H2 9826   4.644   2.392   0.105
 3288TIP3   OH2 9827   1.529   2.767   1.977
 3288TIP3    H1 9828   1.619   2.789   1.950
 3288TIP3    H2 9829   1.535   2.755   2.071
 3289TIP3   OH2 9830   4.493   3.714   5.527
 3289TIP3    H1 9831   4.399   3.716   5.545
 3289TIP3    H2 9832   4.523   3.803   5.547
 3290TIP3   OH2 9833   6.486   1.644   1.898
 3290TIP3    H1 9834   6.499   1.704   1.971
 3290TIP3    H2 9835   6.441   1.569   1.937
 3291TIP3   OH2 9836   0.322   0.825   0.141
 3291TIP3    H1 9837   0.405   0.807   0.186
 3291TIP3    H2 9838   0.303   0.744   0.093
 3292TIP3   OH2 9839   4.406   1.450   3.379
 3292TIP3    H1 9840   4.432   1.535   3.414
 3292TIP3    H2 9841   4.472   1.431   3.312
 3293TIP3   OH2 9842   2.509   3.091   0.786
 3293TIP3    H1 9843   2.524   3.181   0.814
 3293TIP3    H2 9844   2.422   3.069   0.820
 3294TIP3   OH2 9845   1.886   2.472   3.554
 3294TIP3    H1 9846   1.974   2.477   3.517
 3294TIP3    H2 9847   1.897   2.495   3.647
 3295TIP3   OH2 9848   0.383   3.031   1.447
 3295TIP3    H1 9849   0.412   3.038   1.356
 3295TIP3    H2 9850   0.464   3.021   1.497
 3296TIP3   OH2 9851   0.862   5.940   4.073
 3296TIP3    H1 9852   0.876   5.913   3.983
 3296TIP3    H2 9853   0.797   6.010   4.068
 3297TIP3   OH2 9854   4.210   4.318   2.305
 3297TIP3    H1 9855   4.208   4.406   2.268
 3297TIP3    H2 9856   4.303   4.302   2.324
 3298TIP3   OH2 9857   2.020   0.586   0.069
 3298TIP3    H1 9858   2.028   0.662   0.126
 3298TIP3    H2 9859   1.926   0.581   0.049
 3299TIP3   OH2 9860   1.916   0.599   1.254
 3299TIP3    H1 9861   1.893   0.506   1.250
 3299TIP3    H2 9862   2.007   0.602   1.223
 3300TIP3   OH2 9863   1.172   0.186   0.543
 3300TIP3    H1 9864   1.148   0.139   0.463
 3300TIP3    H2 9865   1.268   0.187   0.542
 3301TIP3   OH2 9866   6.745   3.568   0.182
 3301TIP3    H1 9867   6.740   3.522   0.098
 3301TIP3    H2 9868   6.701   3.652   0.165
 3302TIP3   OH2 9869   3.621   6.151   4.509
 3302TIP3    H1 9870   3.660   6.071   4.545
 3302TIP3    H2 9871   3.691   6.189   4.455
 3303TIP3   OH2 9872   2.748   0.898   1.010
 3303TIP3    H1 9873   2.799   0.970   0.972
 3303TIP3    H2 9874   2.658   0.915   0.984
 3304TIP3   OH2 9875   4.743   6.485   0.660
 3304TIP3    H1 9876   4.652   6.459   0.644
 3304TIP3    H2 9877   4.795   6.419   0.615
 3305TIP3   OH2 9878   2.952   5.710   4.295
 3305TIP3    H1 9879   3.005   5.640   4.332
 3305TIP3    H2 9880   3.016   5.771   4.259
 3306TIP3   OH2 9881   3.372   1.998   2.498
 3306TIP3    H1 9882   3.409   2.084   2.516
 3306TIP3    H2 9883   3.412   1.940   2.563
 3307TIP3   OH2 9884   5.909   0.878   3.825
 3307TIP3    H1 9885   5.987   0.864   3.878
 3307TIP3    H2 9886   5.865   0.793   3.823
 3308TIP3   OH2 9887   6.238   6.704   3.101
 3308TIP3    H1 9888   6.239   6.662   3.187
 3308TIP3    H2 9889   6.246   6.797   3.120
 3309TIP3   OH2 9890   6.889   6.113   0.228
 3309TIP3    H1 9891   6.832   6.052   0.181
 3309TIP3    H2 9892   6.930   6.061   0.296
 3310TIP3   OH2 9893   6.445   6.324   0.675
 3310TIP3    H1 9894   6.528   6.370   0.661
 3310TIP3    H2 9895   6.463   6.234   0.646
 3311TIP3   OH2 9896   6.548   5.919   3.670
 3311TIP3    H1 9897   6.549   5.844   3.730
 3311TIP3    H2 9898   6.509   5.885   3.590
 3312TIP3   OH2 9899   1.977   0.409   3.295
 3312TIP3    H1 9900   1.916   0.482   3.289
 3312TIP3    H2 9901   2.037   0.433   3.365
 3313TIP3   OH2 9902   3.131   6.691   0.301
 3313TIP3    H1 9903   3.063   6.633   0.265
 3313TIP3    H2 9904   3.199   6.692   0.234
 3314TIP3   OH2 9905   6.270   3.679   1.296
 3314TIP3    H1 9906   6.296   3.770   1.308
 3314TIP3    H2 9907   6.289   3.637   1.380
 3315TIP3   OH2 9908   7.155   4.444   1.214
 3315TIP3    H1 9909   7.084   4.381   1.198
 3315TIP3    H2 9910   7.115   4.512   1.269
 3316TIP3   OH2 9911   5.096   4.124   1.758
 3316TIP3    H1 9912   5.123   4.206   1.718
 3316TIP3    H2 9913   5.167   4.102   1.819
 3317TIP3   OH2 9914   0.892   1.283   1.752
 3317TIP3    H1 9915   0.844   1.207   1.783
 3317TIP3    H2 9916   0.981   1.251   1.737
 3318TIP3   OH2 9917   3.602   0.567   1.372
 3318TIP3    H1 9918   3.620   0.506   1.300
 3318TIP3    H2 9919   3.613   0.515   1.451
 3319TIP3   OH2 9920   4.114   5.054   5.212
 3319TIP3    H1 9921   4.106   5.005   5.294
 3319TIP3    H2 9922   4.189   5.015   5.168
 3320TIP3   OH2 9923   2.912   6.572   5.584
 3320TIP3    H1 9924   2.863   6.648   5.552
 3320TIP3    H2 9925   2.912   6.582   5.680
 3321TIP3   OH2 9926   6.755   3.553   4.877
 3321TIP3    H1 9927   6.793   3.597   4.800
 3321TIP3    H2 9928   6.764   3.460   4.858
 3322TIP3   OH2 9929   3.068   6.325   1.588
 3322TIP3    H1 9930   3.148   6.275   1.603
 3322TIP3    H2 9931   2.997   6.261   1.599
 3323TIP3   OH2 9932   6.715   5.484   3.767
 3323TIP3    H1 9933   6.784   5.486   3.701
 3323TIP3    H2 9934   6.685   5.393   3.767
 3324TIP3   OH2 9935   3.060   5.296   0.004
 3324TIP3    H1 9936   3.131   5.356   0.027
 3324TIP3    H2 9937   3.088   5.211   0.039
 3325TIP3   OH2 9938   5.869   4.791   1.432
 3325TIP3    H1 9939   5.781   4.756   1.450
 3325TIP3    H2 9940   5.924   4.755   1.502
 3326TIP3   OH2 9941   3.379   6.497   3.276
 3326TIP3    H1 9942   3.456   6.506   3.331
 3326TIP3    H2 9943   3.339   6.415   3.304
 3327TIP3   OH2 9944   2.962   2.840   1.058
 3327TIP3    H1 9945   2.990   2.752   1.084
 3327TIP3    H2 9946   2.992   2.849   0.967
 3328TIP3   OH2 9947   1.406   2.041   2.946
 3328TIP3    H1 9948   1.470   2.067   2.880
 3328TIP3    H2 9949   1.420   2.101   3.019
 3329TIP3   OH2 9950   2.556   1.479   5.055
 3329TIP3    H1 9951   2.555   1.491   4.960
 3329TIP3    H2 9952   2.642   1.510   5.082
 3330TIP3   OH2 9953   6.332   6.744   0.317
 3330TIP3    H1 9954   6.409   6.687   0.322
 3330TIP3    H2 9955   6.258   6.685   0.334
 3331TIP3   OH2 9956   5.346   3.627   1.485
 3331TIP3    H1 9957   5.269   3.681   1.470
 3331TIP3    H2 9958   5.335   3.593   1.574
 3332TIP3   OH2 9959   0.873   5.361   3.464
 3332TIP3    H1 9960   0.882   5.453   3.441
 3332TIP3    H2 9961   0.904   5.314   3.387
 3333TIP3   OH2 9962   7.138   2.105   1.831
 3333TIP3    H1 9963   7.063   2.130   1.885
 3333TIP3    H2 9964   7.101   2.045   1.766
 3334TIP3   OH2 9965   4.002   2.876   0.891
 3334TIP3    H1 9966   3.960   2.836   0.967
 3334TIP3    H2 9967   3.976   2.968   0.895
 3335TIP3   OH2 9968   0.045   1.964   3.221
 3335TIP3    H1 9969  -0.021   2.016   3.266
 3335TIP3    H2 9970   0.129   2.002   3.248
 3336TIP3   OH2 9971   0.780   1.094   0.693
 3336TIP3    H1 9972   0.731   1.170   0.661
 3336TIP3    H2 9973   0.861   1.094   0.642
 3337TIP3   OH2 9974   6.099   1.709   1.242
 3337TIP3    H1 9975   6.044   1.782   1.214
 3337TIP3    H2 9976   6.075   1.637   1.184
 3338TIP3   OH2 9977   5.707   1.617   5.633
 3338TIP3    H1 9978   5.630   1.577   5.594
 3338TIP3    H2 9979   5.781   1.583   5.581
 3339TIP3   OH2 9980   5.101   0.403   4.670
 3339TIP3    H1 9981   5.027   0.464   4.668
 3339TIP3    H2 9982   5.062   0.318   4.649
 3340TIP3   OH2 9983   6.379   5.523   5.901
 3340TIP3    H1 9984   6.322   5.590   5.862
 3340TIP3    H2 9985   6.432   5.492   5.828
 3341TIP3   OH2 9986   3.872   2.952   1.429
 3341TIP3    H1 9987   3.874   3.013   1.503
 3341TIP3    H2 9988   3.802   2.891   1.451
 3342TIP3   OH2 9989   5.666   6.776   4.046
 3342TIP3    H1 9990   5.610   6.704   4.017
 3342TIP3    H2 9991   5.642   6.849   3.989
 3343TIP3   OH2 9992   3.338   1.590   4.784
 3343TIP3    H1 9993   3.365   1.673   4.823
 3343TIP3    H2 9994   3.275   1.614   4.716
 3344TIP3   OH2 9995   3.320   3.087   4.312
 3344TIP3    H1 9996   3.414   3.075   4.296
 3344TIP3    H2 9997   3.278   3.033   4.244
 3345TIP3   OH2 9998   5.920   1.227   3.133
 3345TIP3    H1 9999   5.897   1.319   3.145
 3345TIP3    H210000   5.838   1.185   3.107
 3346TIP3   OH210001   1.025   6.315   0.156
 3346TIP3    H110002   1.023   6.274   0.242
 3346TIP3    H210003   1.044   6.407   0.174
 3347TIP3   OH210004   1.061   4.361   2.248
 3347TIP3    H110005   0.995   4.416   2.207
 3347TIP3    H210006   1.019   4.326   2.326
 3348TIP3   OH210007   6.457   0.041   1.582
 3348TIP3    H110008   6.408   0.120   1.606
 3348TIP3    H210009   6.541   0.075   1.550
 3349TIP3   OH210010   0.763   2.775   0.200
 3349TIP3    H110011   0.806   2.839   0.257
 3349TIP3    H210012   0.747   2.699   0.256
 3350TIP3   OH210013   2.485   3.642   4.404
 3350TIP3    H110014   2.564   3.674   4.360
 3350TIP3    H210015   2.438   3.592   4.337
 3351TIP3   OH210016   6.817   2.813   1.365
 3351TIP3    H110017   6.874   2.851   1.298
 3351TIP3    H210018   6.758   2.756   1.317
 3352TIP3   OH210019   1.031   0.397   0.704
 3352TIP3    H110020   1.112   0.442   0.728
 3352TIP3    H210021   1.057   0.338   0.632
 3353TIP3   OH210022   6.674   0.665   3.950
 3353TIP3    H110023   6.600   0.692   4.004
 3353TIP3    H210024   6.638   0.598   3.891
 3354TIP3   OH210025   0.698   3.312   3.639
 3354TIP3    H110026   0.603   3.310   3.644
 3354TIP3    H210027   0.718   3.378   3.573
 3355TIP3   OH210028   3.175   5.126   3.844
 3355TIP3    H110029   3.199   5.036   3.822
 3355TIP3    H210030   3.202   5.135   3.936
 3356TIP3   OH210031   1.608   6.672   1.866
 3356TIP3    H110032   1.535   6.666   1.927
 3356TIP3    H210033   1.624   6.582   1.838
 3357TIP3   OH210034   3.864   0.148   1.693
 3357TIP3    H110035   3.959   0.165   1.696
 3357TIP3    H210036   3.834   0.198   1.617
 3358TIP3   OH210037   4.182   3.834   1.080
 3358TIP3    H110038   4.125   3.829   1.156
 3358TIP3    H210039   4.268   3.804   1.112
 3359TIP3   OH210040   0.473   2.669   2.840
 3359TIP3    H110041   0.399   2.645   2.896
 3359TIP3    H210042   0.449   2.754   2.804
 3360TIP3   OH210043   7.164   3.303   0.122
 3360TIP3    H110044   7.233   3.256   0.168
 3360TIP3    H210045   7.088   3.296   0.178
 3361TIP3   OH210046   5.597   5.558   0.144
 3361TIP3    H110047   5.557   5.631   0.192
 3361TIP3    H210048   5.691   5.569   0.157
 3362TIP3   OH210049   5.785   4.608   4.925
 3362TIP3    H110050   5.736   4.628   4.845
 3362TIP3    H210051   5.769   4.515   4.941
 3363TIP3   OH210052   1.884   0.283   0.672
 3363TIP3    H110053   1.867   0.256   0.763
 3363TIP3    H210054   1.976   0.264   0.659
 3364TIP3   OH210055   7.003   3.199   3.827
 3364TIP3    H110056   7.081   3.254   3.825
 3364TIP3    H210057   7.034   3.112   3.803
 3365TIP3   OH210058   6.103   0.588   1.723
 3365TIP3    H110059   6.050   0.642   1.781
 3365TIP3    H210060   6.042   0.562   1.653
 3366TIP3   OH210061   3.759   6.428   0.656
 3366TIP3    H110062   3.683   6.371   0.652
 3366TIP3    H210063   3.816   6.389   0.722
 3367TIP3   OH210064   5.170   6.647   4.142
 3367TIP3    H110065   5.131   6.734   4.138
 3367TIP3    H210066   5.110   6.596   4.196
 3368TIP3   OH210067   3.819   4.749   3.886
 3368TIP3    H110068   3.877   4.744   3.962
 3368TIP3    H210069   3.741   4.794   3.919
 3369TIP3   OH210070   2.066   0.789   5.699
 3369TIP3    H110071   2.035   0.765   5.786
 3369TIP3    H210072   2.048   0.713   5.644
 3370TIP3   OH210073   5.739   5.611   1.553
 3370TIP3    H110074   5.822   5.615   1.601
 3370TIP3    H210075   5.683   5.556   1.607
 3371TIP3   OH210076   0.150   4.516   0.629
 3371TIP3    H110077   0.129   4.608   0.647
 3371TIP3    H210078   0.243   4.508   0.650
 3372TIP3   OH210079   2.322   1.898   3.971
 3372TIP3    H110080   2.376   1.976   3.954
 3372TIP3    H210081   2.321   1.889   4.066
 3373TIP3   OH210082   1.050   2.790   3.096
 3373TIP3    H110083   1.109   2.786   3.021
 3373TIP3    H210084   1.081   2.721   3.154
 3374TIP3   OH210085   5.889   6.050   2.357
 3374TIP3    H110086   5.963   6.055   2.296
 3374TIP3    H210087   5.832   6.122   2.331
 3375TIP3   OH210088   5.281   3.839   0.069
 3375TIP3    H110089   5.370   3.806   0.071
 3375TIP3    H210090   5.230   3.775   0.118
 3376TIP3   OH210091   4.000   3.885   3.192
 3376TIP3    H110092   4.011   3.880   3.097
 3376TIP3    H210093   4.025   3.975   3.213
 3377TIP3   OH210094   0.360   5.791   5.859
 3377TIP3    H110095   0.314   5.714   5.824
 3377TIP3    H210096   0.364   5.851   5.785
 3378TIP3   OH210097   6.679   2.965   4.004
 3378TIP3    H110098   6.646   2.952   3.915
 3378TIP3    H210099   6.605   2.942   4.060
 3379TIP3   OH210100   0.580   1.146   1.193
 3379TIP3    H110101   0.576   1.050   1.197
 3379TIP3    H210102   0.612   1.164   1.105
 3380TIP3   OH210103   6.489   1.597   4.437
 3380TIP3    H110104   6.402   1.602   4.477
 3380TIP3    H210105   6.478   1.538   4.363
 3381TIP3   OH210106   0.605   4.842   2.682
 3381TIP3    H110107   0.643   4.847   2.595
 3381TIP3    H210108   0.664   4.784   2.730
 3382TIP3   OH210109   0.932   3.922   0.978
 3382TIP3    H110110   0.916   3.839   1.024
 3382TIP3    H210111   0.939   3.987   1.048
 3383TIP3   OH210112   2.778   4.577   3.648
 3383TIP3    H110113   2.804   4.490   3.619
 3383TIP3    H210114   2.847   4.635   3.616
 3384TIP3   OH210115   0.391   0.012   1.125
 3384TIP3    H110116   0.443  -0.046   1.181
 3384TIP3    H210117   0.389   0.095   1.172
 3385TIP3   OH210118   1.738   2.700   0.850
 3385TIP3    H110119   1.749   2.753   0.929
 3385TIP3    H210120   1.820   2.713   0.802
 3386TIP3   OH210121   2.636   1.076   1.333
 3386TIP3    H110122   2.686   1.139   1.384
 3386TIP3    H210123   2.644   1.107   1.243
 3387TIP3   OH210124   0.115   1.055   5.050
 3387TIP3    H110125   0.189   1.114   5.036
 3387TIP3    H210126   0.042   1.113   5.069
 3388TIP3   OH210127   6.860   4.280   2.490
 3388TIP3    H110128   6.925   4.212   2.477
 3388TIP3    H210129   6.867   4.303   2.583
 3389TIP3   OH210130   2.639   3.509   0.039
 3389TIP3    H110131   2.691   3.434   0.068
 3389TIP3    H210132   2.554   3.497   0.082
 3390TIP3   OH210133   3.767   6.084   0.603
 3390TIP3    H110134   3.829   6.126   0.544
 3390TIP3    H210135   3.786   5.990   0.595
 3391TIP3   OH210136   3.474   2.146   0.483
 3391TIP3    H110137   3.414   2.215   0.456
 3391TIP3    H210138   3.503   2.106   0.401
 3392TIP3   OH210139   5.633   6.678   2.142
 3392TIP3    H110140   5.643   6.591   2.180
 3392TIP3    H210141   5.684   6.674   2.061
 3393TIP3   OH210142   1.183   5.023   4.789
 3393TIP3    H110143   1.266   5.050   4.828
 3393TIP3    H210144   1.189   4.927   4.785
 3394TIP3   OH210145   1.474   1.868   5.499
 3394TIP3    H110146   1.399   1.879   5.558
 3394TIP3    H210147   1.548   1.856   5.558
 3395TIP3   OH210148   4.641   0.718   5.471
 3395TIP3    H110149   4.553   0.683   5.457
 3395TIP3    H210150   4.699   0.645   5.448
 3396TIP3   OH210151   1.308   5.773   5.315
 3396TIP3    H110152   1.311   5.869   5.320
 3396TIP3    H210153   1.228   5.754   5.266
 3397TIP3   OH210154   3.449   3.611   2.096
 3397TIP3    H110155   3.471   3.663   2.019
 3397TIP3    H210156   3.440   3.521   2.063
 3398TIP3   OH210157   0.355   6.717   3.947
 3398TIP3    H110158   0.400   6.800   3.965
 3398TIP3    H210159   0.329   6.724   3.855
 3399TIP3   OH210160   5.729   6.397   5.601
 3399TIP3    H110161   5.660   6.463   5.592
 3399TIP3    H210162   5.681   6.314   5.612
 3400TIP3   OH210163   0.622   0.493   1.606
 3400TIP3    H110164   0.596   0.575   1.647
 3400TIP3    H210165   0.608   0.427   1.673
 3401TIP3   OH210166   3.311   4.512   5.652
 3401TIP3    H110167   3.286   4.523   5.744
 3401TIP3    H210168   3.242   4.557   5.603
 3402TIP3   OH210169   2.700   5.571   3.583
 3402TIP3    H110170   2.775   5.555   3.525
 3402TIP3    H210171   2.738   5.585   3.669
 3403TIP3   OH210172   4.555   6.669   2.651
 3403TIP3    H110173   4.586   6.756   2.676
 3403TIP3    H210174   4.482   6.686   2.592
 3404TIP3   OH210175   5.129   6.506   2.353
 3404TIP3    H110176   5.088   6.477   2.271
 3404TIP3    H210177   5.129   6.601   2.348
 3405TIP3   OH210178   5.774   1.321   0.145
 3405TIP3    H110179   5.694   1.313   0.198
 3405TIP3    H210180   5.819   1.237   0.157
 3406TIP3   OH210181   0.853   4.011   3.210
 3406TIP3    H110182   0.770   4.054   3.190
 3406TIP3    H210183   0.831   3.918   3.216
 3407TIP3   OH210184   1.543   2.403   2.420
 3407TIP3    H110185   1.540   2.477   2.481
 3407TIP3    H210186   1.570   2.442   2.337
 3408TIP3   OH210187   5.453   2.199   0.457
 3408TIP3    H110188   5.522   2.201   0.524
 3408TIP3    H210189   5.472   2.121   0.406
 3409TIP3   OH210190   2.923   1.068   0.851
 3409TIP3    H110191   2.961   1.099   0.770
 3409TIP3    H210192   2.840   1.114   0.859
 3410TIP3   OH210193   1.789   3.289   5.765
 3410TIP3    H110194   1.865   3.231   5.761
 3410TIP3    H210195   1.818   3.371   5.725
 3411TIP3   OH210196   6.823   2.545   5.216
 3411TIP3    H110197   6.848   2.516   5.304
 3411TIP3    H210198   6.821   2.465   5.164
 3412TIP3   OH210199   3.592   2.281   2.982
 3412TIP3    H110200   3.562   2.353   2.926
 3412TIP3    H210201   3.656   2.234   2.928
 3413TIP3   OH210202   1.528   0.394   0.846
 3413TIP3    H110203   1.619   0.418   0.859
 3413TIP3    H210204   1.498   0.366   0.932
 3414TIP3   OH210205   6.327   6.212   2.435
 3414TIP3    H110206   6.261   6.143   2.445
 3414TIP3    H210207   6.410   6.170   2.456
 3415TIP3   OH210208   7.092   0.636   4.124
 3415TIP3    H110209   7.028   0.634   4.053
 3415TIP3    H210210   7.147   0.712   4.105
 3416TIP3   OH210211   0.935   4.069   3.738
 3416TIP3    H110212   0.942   4.066   3.643
 3416TIP3    H210213   1.021   4.044   3.770
 3417TIP3   OH210214   7.049   5.293   1.653
 3417TIP3    H110215   7.021   5.204   1.630
 3417TIP3    H210216   6.971   5.334   1.690
 3418TIP3   OH210217   5.533   0.986   5.701
 3418TIP3    H110218   5.445   1.002   5.737
 3418TIP3    H210219   5.592   1.026   5.764
 3419TIP3   OH210220   5.184   1.969   4.260
 3419TIP3    H110221   5.264   1.943   4.306
 3419TIP3    H210222   5.204   2.055   4.224
 3420TIP3   OH210223   5.432   1.479   1.184
 3420TIP3    H110224   5.510   1.522   1.150
 3420TIP3    H210225   5.461   1.439   1.266
 3421TIP3   OH210226   6.270   0.400   1.939
 3421TIP3    H110227   6.349   0.407   1.884
 3421TIP3    H210228   6.198   0.402   1.876
 3422TIP3   OH210229   3.369   3.956   1.400
 3422TIP3    H110230   3.299   3.936   1.462
 3422TIP3    H210231   3.346   3.907   1.321
 3423TIP3   OH210232   2.621   1.850   1.741
 3423TIP3    H110233   2.559   1.914   1.775
 3423TIP3    H210234   2.596   1.838   1.649
 3424TIP3   OH210235   1.070   2.767   0.922
 3424TIP3    H110236   1.119   2.739   0.999
 3424TIP3    H210237   1.081   2.695   0.859
 3425TIP3   OH210238   2.546   1.625   5.341
 3425TIP3    H110239   2.621   1.565   5.347
 3425TIP3    H210240   2.581   1.703   5.299
 3426TIP3   OH210241   6.691   2.704   5.030
 3426TIP3    H110242   6.717   2.626   5.080
 3426TIP3    H210243   6.603   2.725   5.063
 3427TIP3   OH210244   5.901   6.113   4.267
 3427TIP3    H110245   5.995   6.128   4.276
 3427TIP3    H210246   5.886   6.025   4.301
 3428TIP3   OH210247   2.772   4.242   5.410
 3428TIP3    H110248   2.791   4.224   5.319
 3428TIP3    H210249   2.845   4.297   5.439
 3429TIP3   OH210250   3.264   1.261   5.861
 3429TIP3    H110251   3.191   1.225   5.912
 3429TIP3    H210252   3.325   1.293   5.927
 3430TIP3   OH210253   1.999   6.351   0.131
 3430TIP3    H110254   2.036   6.270   0.166
 3430TIP3    H210255   2.049   6.368   0.051
 3431TIP3   OH210256   4.694   6.784   5.661
 3431TIP3    H110257   4.729   6.712   5.714
 3431TIP3    H210258   4.771   6.826   5.623
 3432TIP3   OH210259   2.365   2.533   2.561
 3432TIP3    H110260   2.325   2.479   2.493
 3432TIP3    H210261   2.370   2.475   2.637
 3433TIP3   OH210262   4.297   1.598   3.054
 3433TIP3    H110263   4.391   1.580   3.064
 3433TIP3    H210264   4.290   1.693   3.061
 3434TIP3   OH210265   3.725   2.089   3.640
 3434TIP3    H110266   3.815   2.082   3.673
 3434TIP3    H210267   3.729   2.161   3.577
 3435TIP3   OH210268   5.433   0.948   0.815
 3435TIP3    H110269   5.527   0.957   0.830
 3435TIP3    H210270   5.424   0.869   0.763
 3436TIP3   OH210271   4.885   3.544   4.158
 3436TIP3    H110272   4.915   3.508   4.241
 3436TIP3    H210273   4.903   3.475   4.094
 3437TIP3   OH210274   1.253   6.183   0.558
 3437TIP3    H110275   1.282   6.272   0.539
 3437TIP3    H210276   1.330   6.141   0.598
 3438TIP3   OH210277   3.557   6.232   3.213
 3438TIP3    H110278   3.569   6.326   3.195
 3438TIP3    H210279   3.544   6.193   3.126
 3439TIP3   OH210280   2.229   1.507   4.676
 3439TIP3    H110281   2.200   1.456   4.600
 3439TIP3    H210282   2.235   1.442   4.746
 3440TIP3   OH210283   1.376   4.800   4.072
 3440TIP3    H110284   1.308   4.832   4.131
 3440TIP3    H210285   1.458   4.818   4.117
 3441TIP3   OH210286   3.101   2.232   3.892
 3441TIP3    H110287   3.021   2.210   3.844
 3441TIP3    H210288   3.160   2.267   3.825
 3442TIP3   OH210289   6.410   4.655   2.433
 3442TIP3    H110290   6.475   4.643   2.502
 3442TIP3    H210291   6.355   4.577   2.437
 3443TIP3   OH210292   3.546   2.190   2.599
 3443TIP3    H110293   3.601   2.136   2.655
 3443TIP3    H210294   3.604   2.261   2.570
 3444TIP3   OH210295   0.997   3.311   5.626
 3444TIP3    H110296   0.913   3.268   5.612
 3444TIP3    H210297   0.985   3.399   5.590
 3445TIP3   OH210298   3.951   0.875   2.396
 3445TIP3    H110299   3.982   0.896   2.484
 3445TIP3    H210300   3.993   0.938   2.339
 3446TIP3   OH210301   4.352   1.393   2.748
 3446TIP3    H110302   4.288   1.357   2.809
 3446TIP3    H210303   4.357   1.486   2.771
 3447TIP3   OH210304   4.803   1.572   4.292
 3447TIP3    H110305   4.894   1.541   4.290
 3447TIP3    H210306   4.751   1.495   4.271
 3448TIP3   OH210307   3.628   4.898   2.036
 3448TIP3    H110308   3.702   4.877   2.093
 3448TIP3    H210309   3.627   4.828   1.971
 3449TIP3   OH210310   5.171   0.837   5.653
 3449TIP3    H110311   5.183   0.886   5.734
 3449TIP3    H210312   5.186   0.901   5.583
 3450TIP3   OH210313   5.926   1.922   5.631
 3450TIP3    H110314   5.989   1.994   5.638
 3450TIP3    H210315   5.971   1.846   5.668
 3451TIP3   OH210316   4.531   0.272   0.219
 3451TIP3    H110317   4.625   0.279   0.232
 3451TIP3    H210318   4.495   0.268   0.308
 3452TIP3   OH210319   0.733   2.801   1.170
 3452TIP3    H110320   0.762   2.714   1.144
 3452TIP3    H210321   0.638   2.798   1.162
 3453TIP3   OH210322   6.280   1.963   2.941
 3453TIP3    H110323   6.293   1.868   2.937
 3453TIP3    H210324   6.207   1.980   2.882
 3454TIP3   OH210325   2.131   3.293   3.789
 3454TIP3    H110326   2.222   3.311   3.763
 3454TIP3    H210327   2.101   3.375   3.828
 3455TIP3   OH210328   3.786   1.977   4.816
 3455TIP3    H110329   3.719   1.984   4.748
 3455TIP3    H210330   3.737   1.973   4.898
 3456TIP3   OH210331   6.231   1.518   4.862
 3456TIP3    H110332   6.195   1.607   4.856
 3456TIP3    H210333   6.160   1.461   4.833
 3457TIP3   OH210334   1.459   1.847   3.666
 3457TIP3    H110335   1.498   1.760   3.660
 3457TIP3    H210336   1.491   1.882   3.749
 3458TIP3   OH210337   3.411   0.709   5.222
 3458TIP3    H110338   3.425   0.750   5.307
 3458TIP3    H210339   3.378   0.621   5.243
 3459TIP3   OH210340   2.640   4.076   3.833
 3459TIP3    H110341   2.627   4.028   3.752
 3459TIP3    H210342   2.635   4.168   3.808
 3460TIP3   OH210343   1.585   5.007   4.575
 3460TIP3    H110344   1.603   4.967   4.660
 3460TIP3    H210345   1.577   5.101   4.594
 3461TIP3   OH210346   6.509   2.460   2.285
 3461TIP3    H110347   6.602   2.470   2.306
 3461TIP3    H210348   6.479   2.549   2.267
 3462TIP3   OH210349   2.610   3.411   0.460
 3462TIP3    H110350   2.630   3.318   0.471
 3462TIP3    H210351   2.530   3.424   0.511
 3463TIP3   OH210352   4.897   2.194   1.942
 3463TIP3    H110353   4.984   2.195   1.901
 3463TIP3    H210354   4.842   2.145   1.880
 3464TIP3   OH210355   5.692   1.210   5.222
 3464TIP3    H110356   5.646   1.292   5.204
 3464TIP3    H210357   5.782   1.237   5.239
 3465TIP3   OH210358   1.279   3.547   0.590
 3465TIP3    H110359   1.276   3.453   0.571
 3465TIP3    H210360   1.365   3.560   0.631
 3466TIP3   OH210361   2.055   4.750   4.578
 3466TIP3    H110362   2.022   4.734   4.666
 3466TIP3    H210363   2.002   4.822   4.545
 3467TIP3   OH210364   1.775   0.093   0.470
 3467TIP3    H110365   1.780   0.013   0.523
 3467TIP3    H210366   1.825   0.158   0.519
 3468TIP3   OH210367   0.803   6.493   3.736
 3468TIP3    H110368   0.788   6.573   3.786
 3468TIP3    H210369   0.838   6.431   3.799
 3469TIP3   OH210370   2.585   6.214   0.726
 3469TIP3    H110371   2.588   6.237   0.819
 3469TIP3    H210372   2.671   6.177   0.708
 3470TIP3   OH210373   2.941   6.478   2.679
 3470TIP3    H110374   2.882   6.475   2.755
 3470TIP3    H210375   3.029   6.481   2.717
 3471TIP3   OH210376   3.140   1.901   5.672
 3471TIP3    H110377   3.200   1.970   5.701
 3471TIP3    H210378   3.076   1.947   5.617
 3472TIP3   OH210379   5.002   0.459   0.371
 3472TIP3    H110380   5.036   0.546   0.350
 3472TIP3    H210381   4.938   0.474   0.440
 3473TIP3   OH210382   2.099   1.800   4.381
 3473TIP3    H110383   2.096   1.870   4.317
 3473TIP3    H210384   2.023   1.745   4.362
 3474TIP3   OH210385   0.288   1.859   2.358
 3474TIP3    H110386   0.377   1.889   2.341
 3474TIP3    H210387   0.299   1.784   2.416
 3475TIP3   OH210388   6.609   2.092   1.620
 3475TIP3    H110389   6.521   2.112   1.586
 3475TIP3    H210390   6.662   2.168   1.596
 3476TIP3   OH210391   4.622   4.225   3.027
 3476TIP3    H110392   4.631   4.132   3.047
 3476TIP3    H210393   4.549   4.254   3.082
 3477TIP3   OH210394   1.470   3.862   4.771
 3477TIP3    H110395   1.511   3.923   4.832
 3477TIP3    H210396   1.458   3.782   4.822
 3478TIP3   OH210397   6.177   2.488   3.755
 3478TIP3    H110398   6.230   2.501   3.834
 3478TIP3    H210399   6.090   2.520   3.779
 3479TIP3   OH210400   5.086   2.611   3.133
 3479TIP3    H110401   4.995   2.603   3.104
 3479TIP3    H210402   5.137   2.603   3.053
 3480TIP3   OH210403   5.023   3.158   5.180
 3480TIP3    H110404   5.031   3.092   5.249
 3480TIP3    H210405   4.939   3.201   5.199
 3481TIP3   OH210406   6.977   5.005   1.647
 3481TIP3    H110407   6.887   5.028   1.669
 3481TIP3    H210408   6.985   4.913   1.671
 3482TIP3   OH210409   0.868   2.911   4.438
 3482TIP3    H110410   0.806   2.942   4.504
 3482TIP3    H210411   0.823   2.925   4.354
 3483TIP3   OH210412   6.002   0.103   5.263
 3483TIP3    H110413   6.026   0.083   5.172
 3483TIP3    H210414   5.947   0.181   5.256
 3484TIP3   OH210415   6.388   5.360   3.207
 3484TIP3    H110416   6.483   5.353   3.214
 3484TIP3    H210417   6.372   5.451   3.183
 3485TIP3   OH210418   6.895   1.953   3.042
 3485TIP3    H110419   6.928   2.006   2.969
 3485TIP3    H210420   6.974   1.916   3.082
 3486TIP3   OH210421   6.892   3.857   0.924
 3486TIP3    H110422   6.943   3.778   0.908
 3486TIP3    H210423   6.883   3.899   0.838
 3487TIP3   OH210424   2.684   3.799   5.394
 3487TIP3    H110425   2.637   3.833   5.470
 3487TIP3    H210426   2.643   3.714   5.376
 3488TIP3   OH210427   0.486   2.843   0.179
 3488TIP3    H110428   0.434   2.774   0.221
 3488TIP3    H210429   0.575   2.807   0.176
 3489TIP3   OH210430   6.331   2.950   2.472
 3489TIP3    H110431   6.403   2.920   2.416
 3489TIP3    H210432   6.323   2.882   2.539
 3490TIP3   OH210433   2.745   4.631   2.706
 3490TIP3    H110434   2.713   4.575   2.776
 3490TIP3    H210435   2.700   4.714   2.719
 3491TIP3   OH210436   2.324   1.621   5.755
 3491TIP3    H110437   2.307   1.672   5.834
 3491TIP3    H210438   2.242   1.625   5.706
 3492TIP3   OH210439   6.463   3.565   4.872
 3492TIP3    H110440   6.547   3.552   4.828
 3492TIP3    H210441   6.484   3.617   4.949
 3493TIP3   OH210442   2.476   4.963   0.651
 3493TIP3    H110443   2.471   4.981   0.557
 3493TIP3    H210444   2.441   5.042   0.692
 3494TIP3   OH210445   4.701   5.780   3.848
 3494TIP3    H110446   4.696   5.763   3.943
 3494TIP3    H210447   4.781   5.735   3.820
 3495TIP3   OH210448   5.438   1.320   3.082
 3495TIP3    H110449   5.453   1.414   3.077
 3495TIP3    H210450   5.365   1.310   3.142
 3496TIP3   OH210451   0.633   5.544   1.399
 3496TIP3    H110452   0.683   5.484   1.454
 3496TIP3    H210453   0.566   5.580   1.458
 3497TIP3   OH210454   1.136   4.136   4.268
 3497TIP3    H110455   1.198   4.155   4.198
 3497TIP3    H210456   1.116   4.042   4.258
 3498TIP3   OH210457   5.512   5.279   4.383
 3498TIP3    H110458   5.583   5.323   4.430
 3498TIP3    H210459   5.553   5.243   4.305
 3499TIP3   OH210460   6.908   6.313   4.977
 3499TIP3    H110461   6.864   6.355   4.904
 3499TIP3    H210462   6.856   6.338   5.054
 3500TIP3   OH210463   1.449   1.205   4.023
 3500TIP3    H110464   1.483   1.216   3.934
 3500TIP3    H210465   1.527   1.210   4.079
 3501TIP3   OH210466   1.420   3.825   3.000
 3501TIP3    H110467   1.499   3.777   3.026
 3501TIP3    H210468   1.366   3.760   2.956
 3502TIP3   OH210469   5.910   5.061   1.797
 3502TIP3    H110470   5.934   5.068   1.705
 3502TIP3    H210471   5.814   5.051   1.796
 3503TIP3   OH210472   3.654   4.340   3.211
 3503TIP3    H110473   3.730   4.378   3.254
 3503TIP3    H210474   3.602   4.416   3.183
 3504TIP3   OH210475   2.979   0.414   3.078
 3504TIP3    H110476   2.926   0.353   3.027
 3504TIP3    H210477   2.953   0.501   3.047
 3505TIP3   OH210478   4.370   6.183   4.989
 3505TIP3    H110479   4.325   6.257   4.949
 3505TIP3    H210480   4.426   6.221   5.056
 3506TIP3   OH210481   5.008   2.324   2.759
 3506TIP3    H110482   4.979   2.263   2.691
 3506TIP3    H210483   5.102   2.335   2.743
 3507TIP3   OH210484   2.920   5.844   2.507
 3507TIP3    H110485   2.989   5.868   2.446
 3507TIP3    H210486   2.850   5.809   2.452
 3508TIP3   OH210487   5.751   6.262   4.609
 3508TIP3    H110488   5.770   6.249   4.702
 3508TIP3    H210489   5.691   6.190   4.587
 3509TIP3   OH210490   6.571   6.389   2.512
 3509TIP3    H110491   6.575   6.391   2.607
 3509TIP3    H210492   6.553   6.480   2.487
 3510TIP3   OH210493   6.277   1.711   5.753
 3510TIP3    H110494   6.189   1.712   5.715
 3510TIP3    H210495   6.262   1.709   5.847
 3511TIP3   OH210496   0.293   4.742   0.467
 3511TIP3    H110497   0.385   4.739   0.441
 3511TIP3    H210498   0.283   4.828   0.508
 3512TIP3   OH210499   4.104   4.906   1.564
 3512TIP3    H110500   4.170   4.955   1.516
 3512TIP3    H210501   4.099   4.949   1.649
 3513TIP3   OH210502   1.921   6.571   5.618
 3513TIP3    H110503   1.862   6.598   5.688
 3513TIP3    H210504   1.945   6.481   5.640
 3514TIP3   OH210505   1.675   0.571   5.204
 3514TIP3    H110506   1.735   0.646   5.202
 3514TIP3    H210507   1.731   0.495   5.186
 3515TIP3   OH210508   0.073   5.056   1.605
 3515TIP3    H110509  -0.023   5.061   1.611
 3515TIP3    H210510   0.099   5.141   1.570
 3516TIP3   OH210511   6.918   1.335   1.026
 3516TIP3    H110512   6.841   1.277   1.019
 3516TIP3    H210513   6.892   1.400   1.092
 3517TIP3   OH210514   3.857   2.570   5.646
 3517TIP3    H110515   3.922   2.560   5.577
 3517TIP3    H210516   3.780   2.606   5.602
 3518TIP3   OH210517   5.300   3.451   3.859
 3518TIP3    H110518   5.222   3.501   3.882
 3518TIP3    H210519   5.343   3.503   3.790
 3519TIP3   OH210520   4.583   3.921   3.077
 3519TIP3    H110521   4.500   3.917   3.124
 3519TIP3    H210522   4.597   3.831   3.045
 3520TIP3   OH210523   5.849   1.042   4.290
 3520TIP3    H110524   5.827   0.949   4.285
 3520TIP3    H210525   5.803   1.081   4.215
 3521TIP3   OH210526   6.382   0.474   0.931
 3521TIP3    H110527   6.369   0.567   0.949
 3521TIP3    H210528   6.301   0.432   0.961
 3522TIP3   OH210529   2.418   3.684   3.300
 3522TIP3    H110530   2.463   3.600   3.311
 3522TIP3    H210531   2.350   3.667   3.235
 3523TIP3   OH210532   0.119   0.296   1.133
 3523TIP3    H110533   0.205   0.273   1.167
 3523TIP3    H210534   0.123   0.390   1.119
 3524TIP3   OH210535   1.503   4.459   3.327
 3524TIP3    H110536   1.448   4.514   3.384
 3524TIP3    H210537   1.564   4.416   3.387
 3525TIP3   OH210538   7.117   4.653   4.762
 3525TIP3    H110539   7.134   4.588   4.831
 3525TIP3    H210540   7.138   4.608   4.681
 3526TIP3   OH210541   0.718   5.566   5.349
 3526TIP3    H110542   0.795   5.616   5.378
 3526TIP3    H210543   0.736   5.476   5.377
 3527TIP3   OH210544   1.634   4.254   5.870
 3527TIP3    H110545   1.675   4.341   5.872
 3527TIP3    H210546   1.642   4.226   5.779
 3528TIP3   OH210547   2.640   3.959   3.579
 3528TIP3    H110548   2.611   3.875   3.615
 3528TIP3    H210549   2.619   3.954   3.486
 3529TIP3   OH210550   5.046   1.192   4.084
 3529TIP3    H110551   5.088   1.136   4.149
 3529TIP3    H210552   4.989   1.132   4.035
 3530TIP3   OH210553   5.204   6.675   5.642
 3530TIP3    H110554   5.234   6.597   5.595
 3530TIP3    H210555   5.184   6.644   5.730
 3531TIP3   OH210556   6.657   3.057   2.050
 3531TIP3    H110557   6.718   3.115   2.096
 3531TIP3    H210558   6.679   3.068   1.958
 3532TIP3   OH210559   4.678   5.926   0.427
 3532TIP3    H110560   4.617   5.852   0.425
 3532TIP3    H210561   4.669   5.962   0.515
 3533TIP3   OH210562   5.838   2.849   2.498
 3533TIP3    H110563   5.862   2.941   2.487
 3533TIP3    H210564   5.747   2.850   2.525
 3534TIP3   OH210565   4.987   1.004   0.133
 3534TIP3    H110566   5.020   1.007   0.222
 3534TIP3    H210567   5.066   0.999   0.078
 3535TIP3   OH210568   4.278   3.850   2.381
 3535TIP3    H110569   4.336   3.855   2.457
 3535TIP3    H210570   4.336   3.842   2.306
 3536TIP3   OH210571   0.955   3.361   5.186
 3536TIP3    H110572   1.031   3.400   5.142
 3536TIP3    H210573   0.903   3.436   5.216
 3537TIP3   OH210574   6.444   2.737   5.156
 3537TIP3    H110575   6.353   2.763   5.146
 3537TIP3    H210576   6.478   2.793   5.226
 3538TIP3   OH210577   4.310   4.664   5.082
 3538TIP3    H110578   4.404   4.675   5.093
 3538TIP3    H210579   4.271   4.700   5.161
 3539TIP3   OH210580   1.856   3.133   5.409
 3539TIP3    H110581   1.884   3.179   5.329
 3539TIP3    H210582   1.828   3.203   5.468
 3540TIP3   OH210583   2.027   1.885   0.580
 3540TIP3    H110584   1.938   1.875   0.548
 3540TIP3    H210585   2.081   1.881   0.501
 3541TIP3   OH210586   0.318   3.481   1.205
 3541TIP3    H110587   0.281   3.529   1.131
 3541TIP3    H210588   0.247   3.477   1.269
 3542TIP3   OH210589   3.650   0.552   1.662
 3542TIP3    H110590   3.605   0.485   1.713
 3542TIP3    H210591   3.703   0.600   1.726
 3543TIP3   OH210592   5.806   6.596   3.535
 3543TIP3    H110593   5.886   6.597   3.588
 3543TIP3    H210594   5.793   6.687   3.509
 3544TIP3   OH210595   2.518   6.317   1.361
 3544TIP3    H110596   2.553   6.260   1.293
 3544TIP3    H210597   2.491   6.396   1.314
 3545TIP3   OH210598   4.719   4.396   0.975
 3545TIP3    H110599   4.813   4.380   0.966
 3545TIP3    H210600   4.685   4.391   0.886
 3546TIP3   OH210601   5.722   1.769   1.616
 3546TIP3    H110602   5.648   1.730   1.662
 3546TIP3    H210603   5.761   1.697   1.567
 3547TIP3   OH210604   4.977   2.059   2.581
 3547TIP3    H110605   4.940   1.977   2.549
 3547TIP3    H210606   5.071   2.052   2.564
 3548TIP3   OH210607   4.174   1.714   1.901
 3548TIP3    H110608   4.216   1.677   1.978
 3548TIP3    H210609   4.099   1.658   1.885
 3549TIP3   OH210610   0.736   2.528   3.210
 3549TIP3    H110611   0.758   2.541   3.118
 3549TIP3    H210612   0.820   2.532   3.256
 3550TIP3   OH210613   3.000   6.571   4.401
 3550TIP3    H110614   3.069   6.593   4.463
 3550TIP3    H210615   2.921   6.566   4.454
 3551TIP3   OH210616   5.882   4.781   0.110
 3551TIP3    H110617   5.898   4.867   0.149
 3551TIP3    H210618   5.852   4.727   0.184
 3552TIP3   OH210619   6.139   3.282   2.848
 3552TIP3    H110620   6.113   3.362   2.802
 3552TIP3    H210621   6.200   3.238   2.788
 3553TIP3   OH210622   5.474   0.728   5.628
 3553TIP3    H110623   5.552   0.673   5.629
 3553TIP3    H210624   5.496   0.804   5.681
 3554TIP3   OH210625   6.993   1.000   3.294
 3554TIP3    H110626   6.946   1.023   3.215
 3554TIP3    H210627   7.038   0.918   3.272
 3555TIP3   OH210628   4.996   4.275   4.585
 3555TIP3    H110629   4.933   4.242   4.650
 3555TIP3    H210630   5.008   4.367   4.608
 3556TIP3   OH210631   5.243   3.118   3.695
 3556TIP3    H110632   5.297   3.070   3.757
 3556TIP3    H210633   5.173   3.058   3.671
 3557TIP3   OH210634   0.396   6.734   2.218
 3557TIP3    H110635   0.482   6.697   2.235
 3557TIP3    H210636   0.375   6.709   2.128
 3558TIP3   OH210637   4.147   4.459   4.682
 3558TIP3    H110638   4.206   4.406   4.629
 3558TIP3    H210639   4.083   4.397   4.718
 3559TIP3   OH210640   1.540   2.872   4.631
 3559TIP3    H110641   1.610   2.934   4.613
 3559TIP3    H210642   1.476   2.922   4.681
 3560TIP3   OH210643   0.703   0.682   3.499
 3560TIP3    H110644   0.798   0.672   3.500
 3560TIP3    H210645   0.673   0.620   3.433
 3561TIP3   OH210646   0.206   1.895   2.024
 3561TIP3    H110647   0.272   1.964   2.032
 3561TIP3    H210648   0.257   1.816   2.005
 3562TIP3   OH210649   6.130   1.770   0.328
 3562TIP3    H110650   6.086   1.702   0.277
 3562TIP3    H210651   6.149   1.839   0.264
 3563TIP3   OH210652   4.505   6.466   5.802
 3563TIP3    H110653   4.548   6.381   5.795
 3563TIP3    H210654   4.486   6.476   5.896
 3564TIP3   OH210655   2.390   5.678   2.896
 3564TIP3    H110656   2.330   5.733   2.946
 3564TIP3    H210657   2.415   5.731   2.820
 3565TIP3   OH210658   5.093   5.198   3.304
 3565TIP3    H110659   5.038   5.173   3.378
 3565TIP3    H210660   5.179   5.216   3.341
 3566TIP3   OH210661   5.213   3.592   5.823
 3566TIP3    H110662   5.261   3.577   5.904
 3566TIP3    H210663   5.277   3.630   5.763
 3567TIP3   OH210664   2.080   1.624   0.056
 3567TIP3    H110665   2.146   1.631   0.124
 3567TIP3    H210666   2.066   1.714   0.027
 3568TIP3   OH210667   3.740   2.847   0.706
 3568TIP3    H110668   3.816   2.823   0.758
 3568TIP3    H210669   3.776   2.897   0.633
 3569TIP3   OH210670   3.278   3.511   1.649
 3569TIP3    H110671   3.200   3.457   1.662
 3569TIP3    H210672   3.245   3.601   1.651
 3570TIP3   OH210673   0.270   2.360   4.606
 3570TIP3    H110674   0.195   2.355   4.547
 3570TIP3    H210675   0.320   2.281   4.588
 3571TIP3   OH210676   4.019   1.001   4.169
 3571TIP3    H110677   4.017   1.006   4.073
 3571TIP3    H210678   4.109   0.979   4.190
 3572TIP3   OH210679   2.909   5.298   3.668
 3572TIP3    H110680   2.869   5.275   3.752
 3572TIP3    H210681   3.000   5.316   3.689
 3573TIP3   OH210682   2.837   6.032   0.137
 3573TIP3    H110683   2.877   6.089   0.072
 3573TIP3    H210684   2.890   6.044   0.215
 3574TIP3   OH210685   3.657   5.176   2.029
 3574TIP3    H110686   3.596   5.224   2.085
 3574TIP3    H210687   3.620   5.088   2.023
 3575TIP3   OH210688   0.499   3.955   4.616
 3575TIP3    H110689   0.525   3.988   4.529
 3575TIP3    H210690   0.577   3.967   4.670
 3576TIP3   OH210691   1.418   6.459   4.206
 3576TIP3    H110692   1.451   6.539   4.166
 3576TIP3    H210693   1.418   6.395   4.135
 3577TIP3   OH210694   1.415   0.774   3.681
 3577TIP3    H110695   1.362   0.701   3.651
 3577TIP3    H210696   1.502   0.757   3.646
 3578TIP3   OH210697   0.973   1.448   2.318
 3578TIP3    H110698   0.932   1.395   2.386
 3578TIP3    H210699   0.901   1.474   2.261
 3579TIP3   OH210700   0.497   1.305   3.266
 3579TIP3    H110701   0.452   1.245   3.206
 3579TIP3    H210702   0.509   1.385   3.214
 3580TIP3   OH210703   1.244   1.582   1.706
 3580TIP3    H110704   1.173   1.637   1.672
 3580TIP3    H210705   1.310   1.583   1.637
 3581TIP3   OH210706   6.851   1.129   2.356
 3581TIP3    H110707   6.775   1.071   2.343
 3581TIP3    H210708   6.815   1.204   2.403
 3582TIP3   OH210709   5.257   2.764   0.698
 3582TIP3    H110710   5.304   2.685   0.724
 3582TIP3    H210711   5.279   2.828   0.766
 3583TIP3   OH210712   0.676   0.306   1.271
 3583TIP3    H110713   0.678   0.212   1.284
 3583TIP3    H210714   0.765   0.329   1.244
 3584TIP3   OH210715   5.060   1.320   1.377
 3584TIP3    H110716   4.975   1.351   1.407
 3584TIP3    H210717   5.069   1.233   1.416
 3585TIP3   OH210718   7.112   6.168   0.837
 3585TIP3    H110719   7.077   6.166   0.927
 3585TIP3    H210720   7.160   6.250   0.832
 3586TIP3   OH210721   5.023   3.440   5.727
 3586TIP3    H110722   5.049   3.352   5.753
 3586TIP3    H210723   5.094   3.496   5.756
 3587TIP3   OH210724   4.458   4.352   5.212
 3587TIP3    H110725   4.429   4.381   5.125
 3587TIP3    H210726   4.547   4.387   5.220
 3588TIP3   OH210727   4.687   2.157   4.912
 3588TIP3    H110728   4.661   2.248   4.927
 3588TIP3    H210729   4.736   2.133   4.991
 3589TIP3   OH210730   3.674   2.066   2.226
 3589TIP3    H110731   3.751   2.060   2.283
 3589TIP3    H210732   3.688   2.146   2.176
 3590TIP3   OH210733   1.459   0.921   0.942
 3590TIP3    H110734   1.536   0.899   0.889
 3590TIP3    H210735   1.489   0.990   1.001
 3591TIP3   OH210736   5.088   5.929   0.078
 3591TIP3    H110737   5.007   5.928   0.129
 3591TIP3    H210738   5.061   5.902  -0.010
 3592TIP3   OH210739   6.222   4.478   5.035
 3592TIP3    H110740   6.145   4.429   5.065
 3592TIP3    H210741   6.212   4.565   5.073
 3593TIP3   OH210742   1.780   2.202   0.675
 3593TIP3    H110743   1.779   2.288   0.719
 3593TIP3    H210744   1.850   2.209   0.611
 3594TIP3   OH210745   2.404   2.902   4.507
 3594TIP3    H110746   2.466   2.841   4.468
 3594TIP3    H210747   2.349   2.848   4.564
 3595TIP3   OH210748   0.314   5.282   4.649
 3595TIP3    H110749   0.321   5.234   4.731
 3595TIP3    H210750   0.368   5.359   4.661
 3596TIP3   OH210751   0.685   2.531   0.310
 3596TIP3    H110752   0.607   2.476   0.321
 3596TIP3    H210753   0.745   2.477   0.259
 3597TIP3   OH210754   3.941   6.587   2.828
 3597TIP3    H110755   3.857   6.542   2.817
 3597TIP3    H210756   3.961   6.578   2.921
 3598TIP3   OH210757   3.158   4.188   4.102
 3598TIP3    H110758   3.228   4.205   4.039
 3598TIP3    H210759   3.204   4.159   4.181
 3599TIP3   OH210760   0.806   1.447   1.224
 3599TIP3    H110761   0.850   1.418   1.304
 3599TIP3    H210762   0.831   1.382   1.158
 3600TIP3   OH210763   2.710   2.758   1.596
 3600TIP3    H110764   2.765   2.693   1.639
 3600TIP3    H210765   2.676   2.812   1.668
 3601TIP3   OH210766   1.175   2.478   1.831
 3601TIP3    H110767   1.190   2.550   1.893
 3601TIP3    H210768   1.195   2.516   1.746
 3602TIP3   OH210769   7.158   5.178   0.784
 3602TIP3    H110770   7.135   5.089   0.760
 3602TIP3    H210771   7.220   5.206   0.718
 3603TIP3   OH210772   0.223   1.625   0.796
 3603TIP3    H110773   0.243   1.626   0.890
 3603TIP3    H210774   0.222   1.718   0.771
 3604TIP3   OH210775   0.119   3.781   3.436
 3604TIP3    H110776   0.189   3.845   3.446
 3604TIP3    H210777   0.120   3.759   3.343
 3605TIP3   OH210778   6.395   3.490   2.785
 3605TIP3    H110779   6.341   3.534   2.852
 3605TIP3    H210780   6.421   3.561   2.726
 3606TIP3   OH210781   4.537   1.800   1.550
 3606TIP3    H110782   4.486   1.868   1.507
 3606TIP3    H210783   4.494   1.787   1.634
 3607TIP3   OH210784   2.821   1.579   1.359
 3607TIP3    H110785   2.914   1.592   1.342
 3607TIP3    H210786   2.780   1.661   1.331
 3608TIP3   OH210787   2.945   1.849   3.758
 3608TIP3    H110788   3.031   1.888   3.744
 3608TIP3    H210789   2.959   1.755   3.745
 3609TIP3   OH210790   4.860   0.345   0.816
 3609TIP3    H110791   4.889   0.413   0.877
 3609TIP3    H210792   4.789   0.301   0.861
 3610TIP3   OH210793   3.552   0.790   3.673
 3610TIP3    H110794   3.458   0.798   3.694
 3610TIP3    H210795   3.582   0.716   3.726
 3611TIP3   OH210796   6.772  -0.019   2.503
 3611TIP3    H110797   6.689   0.029   2.496
 3611TIP3    H210798   6.838   0.049   2.513
 3612TIP3   OH210799   6.132   1.767   4.785
 3612TIP3    H110800   6.075   1.844   4.775
 3612TIP3    H210801   6.206   1.800   4.836
 3613TIP3   OH210802   7.061   5.994   5.731
 3613TIP3    H110803   7.115   5.919   5.705
 3613TIP3    H210804   7.121   6.052   5.778
 3614TIP3   OH210805   1.421   3.731   2.611
 3614TIP3    H110806   1.459   3.780   2.539
 3614TIP3    H210807   1.495   3.685   2.651
 3615TIP3   OH210808   4.660   3.785   4.534
 3615TIP3    H110809   4.575   3.751   4.561
 3615TIP3    H210810   4.651   3.801   4.440
 3616TIP3   OH210811   4.486   5.220   2.599
 3616TIP3    H110812   4.428   5.262   2.662
 3616TIP3    H210813   4.435   5.218   2.517
 3617TIP3   OH210814   0.584   0.509   2.303
 3617TIP3    H110815   0.650   0.493   2.236
 3617TIP3    H210816   0.602   0.598   2.333
 3618TIP3   OH210817   5.485   0.687   1.023
 3618TIP3    H110818   5.536   0.606   1.021
 3618TIP3    H210819   5.471   0.709   0.931
 3619TIP3   OH210820   5.497   1.860   2.482
 3619TIP3    H110821   5.555   1.789   2.511
 3619TIP3    H210822   5.520   1.934   2.538
 3620TIP3   OH210823   5.024   5.530   1.718
 3620TIP3    H110824   4.954   5.593   1.736
 3620TIP3    H210825   4.981   5.461   1.668
 3621TIP3   OH210826   4.709   6.312   1.998
 3621TIP3    H110827   4.740   6.222   2.004
 3621TIP3    H210828   4.783   6.364   2.030
 3622TIP3   OH210829   6.876   4.896   1.017
 3622TIP3    H110830   6.832   4.862   0.938
 3622TIP3    H210831   6.968   4.905   0.991
 3623TIP3   OH210832   5.562   4.575   5.352
 3623TIP3    H110833   5.620   4.643   5.316
 3623TIP3    H210834   5.483   4.623   5.379
 3624TIP3   OH210835   0.784   0.914   2.771
 3624TIP3    H110836   0.821   0.833   2.805
 3624TIP3    H210837   0.749   0.958   2.849
 3625TIP3   OH210838   1.289   4.153   5.115
 3625TIP3    H110839   1.251   4.107   5.190
 3625TIP3    H210840   1.317   4.084   5.055
 3626TIP3   OH210841   4.292   4.854   4.539
 3626TIP3    H110842   4.310   4.852   4.633
 3626TIP3    H210843   4.202   4.825   4.531
 3627TIP3   OH210844   2.472   1.689   4.467
 3627TIP3    H110845   2.407   1.710   4.535
 3627TIP3    H210846   2.424   1.637   4.403
 3628TIP3   OH210847   3.536   3.222   3.672
 3628TIP3    H110848   3.517   3.265   3.589
 3628TIP3    H210849   3.462   3.244   3.728
 3629TIP3   OH210850   0.762   3.737   3.281
 3629TIP3    H110851   0.813   3.686   3.218
 3629TIP3    H210852   0.819   3.744   3.357
 3630TIP3   OH210853   0.469   2.836   4.565
 3630TIP3    H110854   0.416   2.786   4.627
 3630TIP3    H210855   0.523   2.770   4.521
 3631TIP3   OH210856   5.085   0.344   3.046
 3631TIP3    H110857   5.028   0.291   3.101
 3631TIP3    H210858   5.168   0.298   3.046
 3632TIP3   OH210859   0.349   2.253   5.107
 3632TIP3    H110860   0.282   2.211   5.161
 3632TIP3    H210861   0.302   2.284   5.030
 3633TIP3   OH210862   2.987   5.671   3.982
 3633TIP3    H110863   3.028   5.643   3.900
 3633TIP3    H210864   3.043   5.741   4.014
 3634TIP3   OH210865   7.191   5.328   2.921
 3634TIP3    H110866   7.218   5.330   2.829
 3634TIP3    H210867   7.256   5.383   2.966
 3635TIP3   OH210868   0.216   2.082   4.190
 3635TIP3    H110869   0.192   2.071   4.282
 3635TIP3    H210870   0.265   2.165   4.188
 3636TIP3   OH210871   6.300   3.198   2.354
 3636TIP3    H110872   6.338   3.257   2.418
 3636TIP3    H210873   6.294   3.114   2.398
 3637TIP3   OH210874   1.094   1.672   0.646
 3637TIP3    H110875   1.154   1.606   0.614
 3637TIP3    H210876   1.125   1.754   0.607
 3638TIP3   OH210877   2.936   2.160   0.870
 3638TIP3    H110878   3.010   2.113   0.906
 3638TIP3    H210879   2.960   2.253   0.879
 3639TIP3   OH210880   5.769   5.604   4.736
 3639TIP3    H110881   5.795   5.662   4.807
 3639TIP3    H210882   5.818   5.523   4.750
 3640TIP3   OH210883   2.082   3.628   0.481
 3640TIP3    H110884   2.112   3.538   0.465
 3640TIP3    H210885   2.053   3.659   0.395
 3641TIP3   OH210886   3.943   1.594   3.324
 3641TIP3    H110887   3.903   1.659   3.266
 3641TIP3    H210888   3.990   1.535   3.265
 3642TIP3   OH210889   0.643   1.121   2.655
 3642TIP3    H110890   0.695   1.041   2.664
 3642TIP3    H210891   0.632   1.152   2.745
 3643TIP3   OH210892   5.176   2.280   0.707
 3643TIP3    H110893   5.114   2.351   0.691
 3643TIP3    H210894   5.194   2.244   0.620
 3644TIP3   OH210895   1.685   3.384   1.349
 3644TIP3    H110896   1.603   3.430   1.332
 3644TIP3    H210897   1.706   3.406   1.440
 3645TIP3   OH210898   3.156   1.360   0.904
 3645TIP3    H110899   3.196   1.281   0.868
 3645TIP3    H210900   3.160   1.424   0.832
 3646TIP3   OH210901   1.892   4.438   4.855
 3646TIP3    H110902   1.903   4.532   4.844
 3646TIP3    H210903   1.965   4.400   4.806
 3647TIP3   OH210904   6.532   4.028   2.010
 3647TIP3    H110905   6.591   4.039   2.084
 3647TIP3    H210906   6.464   3.968   2.043
 3648TIP3   OH210907   0.088   0.436   3.560
 3648TIP3    H110908   0.031   0.489   3.505
 3648TIP3    H210909   0.036   0.358   3.580
 3649TIP3   OH210910   5.605   3.119   0.077
 3649TIP3    H110911   5.629   3.210   0.089
 3649TIP3    H210912   5.575   3.114  -0.014
 3650TIP3   OH210913   4.724   5.132   5.334
 3650TIP3    H110914   4.746   5.142   5.242
 3650TIP3    H210915   4.800   5.164   5.381
 3651TIP3   OH210916   0.566   2.242   0.134
 3651TIP3    H110917   0.584   2.202   0.049
 3651TIP3    H210918   0.651   2.273   0.164
 3652TIP3   OH210919   2.039   0.390   2.786
 3652TIP3    H110920   1.947   0.398   2.763
 3652TIP3    H210921   2.079   0.471   2.755
 3653TIP3   OH210922   6.412   1.167   1.861
 3653TIP3    H110923   6.392   1.261   1.861
 3653TIP3    H210924   6.483   1.158   1.924
 3654TIP3   OH210925   1.280   2.155   3.748
 3654TIP3    H110926   1.189   2.148   3.718
 3654TIP3    H210927   1.305   2.245   3.728
 3655TIP3   OH210928   4.037   5.776   4.097
 3655TIP3    H110929   4.122   5.798   4.137
 3655TIP3    H210930   4.021   5.846   4.035
 3656TIP3   OH210931   3.175   1.638   5.558
 3656TIP3    H110932   3.161   1.562   5.614
 3656TIP3    H210933   3.145   1.712   5.611
 3657TIP3   OH210934   5.052   1.355   2.808
 3657TIP3    H110935   5.087   1.423   2.865
 3657TIP3    H210936   5.040   1.279   2.865
 3658TIP3   OH210937   7.062   2.547   3.929
 3658TIP3    H110938   7.091   2.495   3.855
 3658TIP3    H210939   7.128   2.616   3.937
 3659TIP3   OH210940   0.063   6.577   3.056
 3659TIP3    H110941   0.002   6.623   2.998
 3659TIP3    H210942   0.065   6.632   3.135
 3660TIP3   OH210943   3.739   6.316   1.204
 3660TIP3    H110944   3.651   6.284   1.183
 3660TIP3    H210945   3.770   6.257   1.272
 3661TIP3   OH210946   1.724   0.197   1.691
 3661TIP3    H110947   1.732   0.124   1.752
 3661TIP3    H210948   1.812   0.237   1.690
 3662TIP3   OH210949   0.853   5.122   2.954
 3662TIP3    H110950   0.851   5.196   2.894
 3662TIP3    H210951   0.871   5.160   3.040
 3663TIP3   OH210952   2.912   2.103   4.780
 3663TIP3    H110953   2.880   2.013   4.787
 3663TIP3    H210954   2.869   2.149   4.852
 3664TIP3   OH210955   3.773   2.102   0.361
 3664TIP3    H110956   3.852   2.052   0.344
 3664TIP3    H210957   3.745   2.133   0.274
 3665TIP3   OH210958   0.902   0.149   1.909
 3665TIP3    H110959   0.939   0.063   1.925
 3665TIP3    H210960   0.975   0.210   1.924
 3666TIP3   OH210961   3.447   4.767   4.088
 3666TIP3    H110962   3.376   4.759   4.152
 3666TIP3    H210963   3.408   4.739   4.006
 3667TIP3   OH210964   4.662   1.109   1.163
 3667TIP3    H110965   4.628   1.198   1.149
 3667TIP3    H210966   4.715   1.091   1.085
 3668TIP3   OH210967   4.833   3.994   2.348
 3668TIP3    H110968   4.791   4.059   2.292
 3668TIP3    H210969   4.853   3.921   2.289
 3669TIP3   OH210970   2.568   6.116   5.814
 3669TIP3    H110971   2.615   6.189   5.853
 3669TIP3    H210972   2.523   6.154   5.739
 3670TIP3   OH210973   3.018   0.843   4.953
 3670TIP3    H110974   2.939   0.840   4.898
 3670TIP3    H210975   2.988   0.881   5.035
 3671TIP3   OH210976   4.775   2.775   4.636
 3671TIP3    H110977   4.863   2.812   4.645
 3671TIP3    H210978   4.723   2.823   4.700
 3672TIP3   OH210979   4.525   5.245   0.952
 3672TIP3    H110980   4.429   5.245   0.959
 3672TIP3    H210981   4.554   5.314   1.011
 3673TIP3   OH210982   1.983   4.155   4.443
 3673TIP3    H110983   2.013   4.066   4.458
 3673TIP3    H210984   1.900   4.145   4.396
 3674TIP3   OH210985   2.140   0.971   2.478
 3674TIP3    H110986   2.054   0.977   2.437
 3674TIP3    H210987   2.144   0.881   2.512
 3675TIP3   OH210988   3.149   2.096   5.248
 3675TIP3    H110989   3.214   2.028   5.232
 3675TIP3    H210990   3.174   2.134   5.332
 3676TIP3   OH210991   1.611   0.622   3.862
 3676TIP3    H110992   1.643   0.661   3.944
 3676TIP3    H210993   1.592   0.696   3.806
 3677TIP3   OH210994   1.124   5.252   1.731
 3677TIP3    H110995   1.150   5.317   1.796
 3677TIP3    H210996   1.095   5.177   1.783
 3678TIP3   OH210997   7.112   6.709   2.220
 3678TIP3    H110998   7.113   6.803   2.241
 3678TIP3    H210999   7.186   6.697   2.161
 3679TIP3   OH211000   1.966   3.997   5.303
 3679TIP3    H111001   2.055   4.026   5.284
 3679TIP3    H211002   1.915   4.078   5.309
 3680TIP3   OH211003   6.196   1.127   3.149
 3680TIP3    H111004   6.176   1.049   3.200
 3680TIP3    H211005   6.113   1.174   3.143
 3681TIP3   OH211006   5.882   0.472   1.574
 3681TIP3    H111007   5.902   0.422   1.495
 3681TIP3    H211008   5.819   0.418   1.622
 3682TIP3   OH211009   3.940   2.249   5.741
 3682TIP3    H111010   4.005   2.267   5.809
 3682TIP3    H211011   3.989   2.203   5.673
 3683TIP3   OH211012   0.303   2.947   0.563
 3683TIP3    H111013   0.235   3.013   0.549
 3683TIP3    H211014   0.372   2.970   0.501
 3684TIP3   OH211015   4.756   1.682   4.549
 3684TIP3    H111016   4.812   1.610   4.578
 3684TIP3    H211017   4.771   1.687   4.455
 3685TIP3   OH211018   6.576   5.527   0.210
 3685TIP3    H111019   6.503   5.506   0.268
 3685TIP3    H211020   6.558   5.478   0.130
 3686TIP3   OH211021   1.416   0.219   5.194
 3686TIP3    H111022   1.467   0.177   5.125
 3686TIP3    H211023   1.464   0.198   5.275
 3687TIP3   OH211024   0.372   0.297   4.708
 3687TIP3    H111025   0.390   0.272   4.798
 3687TIP3    H211026   0.382   0.392   4.706
 3688TIP3   OH211027   5.202   1.318   0.600
 3688TIP3    H111028   5.171   1.228   0.596
 3688TIP3    H211029   5.123   1.372   0.592
 3689TIP3   OH211030   3.428   3.102   3.389
 3689TIP3    H111031   3.382   3.048   3.453
 3689TIP3    H211032   3.365   3.114   3.318
 3690TIP3   OH211033   5.240   6.421   0.646
 3690TIP3    H111034   5.178   6.446   0.715
 3690TIP3    H211035   5.185   6.386   0.576
 3691TIP3   OH211036   2.604   3.561   0.759
 3691TIP3    H111037   2.628   3.553   0.667
 3691TIP3    H211038   2.647   3.642   0.788
 3692TIP3   OH211039   6.754   4.198   3.651
 3692TIP3    H111040   6.754   4.199   3.747
 3692TIP3    H211041   6.828   4.141   3.628
 3693TIP3   OH211042   3.718   2.412   3.230
 3693TIP3    H111043   3.738   2.416   3.136
 3693TIP3    H211044   3.803   2.427   3.273
 3694TIP3   OH211045   2.519   1.432   0.272
 3694TIP3    H111046   2.582   1.497   0.241
 3694TIP3    H211047   2.434   1.476   0.268
 3695TIP3   OH211048   6.020   3.863   4.521
 3695TIP3    H111049   6.029   3.902   4.608
 3695TIP3    H211050   5.929   3.834   4.517
 3696TIP3   OH211051   6.495   1.927   3.558
 3696TIP3    H111052   6.399   1.928   3.557
 3696TIP3    H211053   6.517   1.872   3.634
 3697TIP3   OH211054   2.378   6.008   4.390
 3697TIP3    H111055   2.289   5.999   4.354
 3697TIP3    H211056   2.414   5.920   4.386
 3698TIP3   OH211057   6.050   4.678   4.744
 3698TIP3    H111058   6.109   4.681   4.819
 3698TIP3    H211059   5.968   4.642   4.778
 3699TIP3   OH211060   0.730   4.665   0.049
 3699TIP3    H111061   0.777   4.719  -0.014
 3699TIP3    H211062   0.746   4.708   0.134
 3700TIP3   OH211063   2.666   3.550   2.421
 3700TIP3    H111064   2.745   3.499   2.406
 3700TIP3    H211065   2.662   3.561   2.516
 3701TIP3   OH211066   1.757   4.624   2.422
 3701TIP3    H111067   1.685   4.567   2.398
 3701TIP3    H211068   1.825   4.565   2.454
 3702TIP3   OH211069   0.844   3.111   2.762
 3702TIP3    H111070   0.921   3.154   2.798
 3702TIP3    H211071   0.786   3.184   2.736
 3703TIP3   OH211072   2.498   3.457   2.676
 3703TIP3    H111073   2.412   3.470   2.636
 3703TIP3    H211074   2.497   3.513   2.753
 3704TIP3   OH211075   3.778   3.482   3.219
 3704TIP3    H111076   3.754   3.571   3.246
 3704TIP3    H211077   3.708   3.454   3.161
 3705TIP3   OH211078   6.128   1.093   0.409
 3705TIP3    H111079   6.136   1.068   0.317
 3705TIP3    H211080   6.044   1.057   0.437
 3706TIP3   OH211081   6.249   0.393   5.787
 3706TIP3    H111082   6.262   0.343   5.706
 3706TIP3    H211083   6.237   0.326   5.855
 3707TIP3   OH211084   3.089   2.854   4.099
 3707TIP3    H111085   3.012   2.803   4.075
 3707TIP3    H211086   3.125   2.808   4.175
 3708TIP3   OH211087   3.959   1.302   0.352
 3708TIP3    H111088   3.920   1.239   0.413
 3708TIP3    H211089   4.053   1.297   0.369
 3709TIP3   OH211090   1.476   4.618   2.387
 3709TIP3    H111091   1.501   4.609   2.479
 3709TIP3    H211092   1.452   4.710   2.378
 3710TIP3   OH211093   2.843   6.713   2.548
 3710TIP3    H111094   2.882   6.641   2.598
 3710TIP3    H211095   2.757   6.726   2.588
 3711TIP3   OH211096   6.929   2.516   3.335
 3711TIP3    H111097   6.837   2.501   3.358
 3711TIP3    H211098   6.940   2.611   3.342
 3712TIP3   OH211099   5.846   0.042   3.622
 3712TIP3    H111100   5.903   0.105   3.577
 3712TIP3    H211101   5.863   0.057   3.715
 3713TIP3   OH211102   4.875   6.453   1.144
 3713TIP3    H111103   4.846   6.362   1.143
 3713TIP3    H211104   4.969   6.448   1.164
 3714TIP3   OH211105   6.414   0.077   5.163
 3714TIP3    H111106   6.427  -0.005   5.116
 3714TIP3    H211107   6.480   0.137   5.128
 3715TIP3   OH211108   3.566   3.182   5.466
 3715TIP3    H111109   3.476   3.192   5.436
 3715TIP3    H211110   3.561   3.117   5.536
 3716TIP3   OH211111   2.032   1.757   1.739
 3716TIP3    H111112   2.049   1.785   1.649
 3716TIP3    H211113   2.093   1.809   1.792
 3717TIP3   OH211114   6.840   3.883   4.655
 3717TIP3    H111115   6.814   3.962   4.608
 3717TIP3    H211116   6.868   3.914   4.741
 3718TIP3   OH211117   2.811   5.017   4.896
 3718TIP3    H111118   2.756   5.012   4.974
 3718TIP3    H211119   2.750   5.005   4.823
 3719TIP3   OH211120   5.672   6.015   0.468
 3719TIP3    H111121   5.633   6.100   0.489
 3719TIP3    H211122   5.649   6.000   0.376
 3720TIP3   OH211123   1.474   3.453   5.596
 3720TIP3    H111124   1.400   3.392   5.598
 3720TIP3    H211125   1.466   3.497   5.511
 3721TIP3   OH211126   4.006   2.381   3.217
 3721TIP3    H111127   4.024   2.472   3.194
 3721TIP3    H211128   4.070   2.331   3.167
 3722TIP3   OH211129   0.483   1.287   3.702
 3722TIP3    H111130   0.414   1.221   3.704
 3722TIP3    H211131   0.453   1.355   3.762
 3723TIP3   OH211132   0.168   1.336   2.692
 3723TIP3    H111133   0.074   1.345   2.683
 3723TIP3    H211134   0.204   1.418   2.659
 3724TIP3   OH211135   3.318   4.921   5.721
 3724TIP3    H111136   3.362   4.836   5.717
 3724TIP3    H211137   3.241   4.905   5.777
 3725TIP3   OH211138   6.945   0.245   5.088
 3725TIP3    H111139   6.982   0.218   5.172
 3725TIP3    H211140   6.963   0.339   5.084
 3726TIP3   OH211141   3.993   6.195   3.391
 3726TIP3    H111142   4.007   6.217   3.298
 3726TIP3    H211143   3.928   6.125   3.389
 3727TIP3   OH211144   6.826   1.535   5.699
 3727TIP3    H111145   6.799   1.510   5.787
 3727TIP3    H211146   6.788   1.622   5.686
 3728TIP3   OH211147   5.211   4.086   0.994
 3728TIP3    H111148   5.270   4.011   0.996
 3728TIP3    H211149   5.217   4.119   0.904
 3729TIP3   OH211150   3.870   0.947   3.311
 3729TIP3    H111151   3.775   0.963   3.316
 3729TIP3    H211152   3.907   0.997   3.383
 3730TIP3   OH211153   6.217   1.406   3.347
 3730TIP3    H111154   6.210   1.323   3.299
 3730TIP3    H211155   6.308   1.432   3.337
 3731TIP3   OH211156   2.491   3.211   1.391
 3731TIP3    H111157   2.586   3.221   1.402
 3731TIP3    H211158   2.475   3.235   1.300
 3732TIP3   OH211159   6.511   5.826   0.020
 3732TIP3    H111160   6.579   5.886  -0.012
 3732TIP3    H211161   6.543   5.797   0.106
 3733TIP3   OH211162   1.688   6.063   5.272
 3733TIP3    H111163   1.662   6.131   5.210
 3733TIP3    H211164   1.676   6.103   5.358
 3734TIP3   OH211165   3.470   2.795   4.418
 3734TIP3    H111166   3.529   2.860   4.381
 3734TIP3    H211167   3.413   2.770   4.346
 3735TIP3   OH211168   4.409   5.306   5.854
 3735TIP3    H111169   4.493   5.285   5.814
 3735TIP3    H211170   4.386   5.392   5.817
 3736TIP3   OH211171   0.028   2.614   2.102
 3736TIP3    H111172  -0.033   2.540   2.092
 3736TIP3    H211173   0.114   2.573   2.107
 3737TIP3   OH211174   4.062   5.081   1.807
 3737TIP3    H111175   4.008   5.126   1.872
 3737TIP3    H211176   4.140   5.136   1.800
 3738TIP3   OH211177   2.708   4.406   4.368
 3738TIP3    H111178   2.753   4.435   4.447
 3738TIP3    H211179   2.615   4.420   4.386
 3739TIP3   OH211180   4.981   4.561   4.589
 3739TIP3    H111181   5.015   4.649   4.574
 3739TIP3    H211182   4.898   4.575   4.635
 3740TIP3   OH211183   0.662   3.856   4.173
 3740TIP3    H111184   0.705   3.774   4.196
 3740TIP3    H211185   0.722   3.899   4.112
 3741TIP3   OH211186   2.962   5.219   2.590
 3741TIP3    H111187   2.894   5.243   2.652
 3741TIP3    H211188   2.943   5.128   2.568
 3742TIP3   OH211189   0.723   5.415   1.856
 3742TIP3    H111190   0.766   5.494   1.889
 3742TIP3    H211191   0.644   5.407   1.908
 3743TIP3   OH211192   2.518   4.807   0.928
 3743TIP3    H111193   2.484   4.831   0.842
 3743TIP3    H211194   2.445   4.824   0.988
 3744TIP3   OH211195   5.919   3.293   5.353
 3744TIP3    H111196   5.853   3.226   5.336
 3744TIP3    H211197   5.944   3.279   5.444
 3745TIP3   OH211198   4.363   5.577   4.544
 3745TIP3    H111199   4.347   5.611   4.632
 3745TIP3    H211200   4.336   5.486   4.548
 3746TIP3   OH211201   4.909   5.564   0.032
 3746TIP3    H111202   4.898   5.501  -0.040
 3746TIP3    H211203   4.912   5.649  -0.011
 3747TIP3   OH211204   1.907   4.869   2.467
 3747TIP3    H111205   1.994   4.851   2.503
 3747TIP3    H211206   1.864   4.783   2.464
 3748TIP3   OH211207   1.365   3.232   3.325
 3748TIP3    H111208   1.458   3.233   3.349
 3748TIP3    H211209   1.355   3.154   3.272
 3749TIP3   OH211210   3.224   1.444   0.480
 3749TIP3    H111211   3.131   1.465   0.485
 3749TIP3    H211212   3.230   1.352   0.509
 3750TIP3   OH211213   5.698   3.669   0.793
 3750TIP3    H111214   5.745   3.611   0.853
 3750TIP3    H211215   5.707   3.756   0.832
 3751TIP3   OH211216   2.990   3.749   2.003
 3751TIP3    H111217   2.993   3.783   2.093
 3751TIP3    H211218   2.952   3.821   1.952
 3752TIP3   OH211219   0.934   1.974   0.784
 3752TIP3    H111220   0.944   1.880   0.793
 3752TIP3    H211221   0.869   1.984   0.713
 3753TIP3   OH211222   4.588   3.748   3.774
 3753TIP3    H111223   4.621   3.738   3.863
 3753TIP3    H211224   4.607   3.665   3.731
 3754TIP3   OH211225   2.097   6.450   2.216
 3754TIP3    H111226   2.014   6.409   2.191
 3754TIP3    H211227   2.073   6.540   2.238
 3755TIP3   OH211228   3.508  -0.002   5.211
 3755TIP3    H111229   3.551   0.074   5.172
 3755TIP3    H211230   3.429   0.033   5.252
 3756TIP3   OH211231   6.397   5.274   0.682
 3756TIP3    H111232   6.459   5.281   0.610
 3756TIP3    H211233   6.449   5.245   0.757
 3757TIP3   OH211234   3.111   3.814   3.257
 3757TIP3    H111235   3.075   3.893   3.296
 3757TIP3    H211236   3.206   3.823   3.267
 3758TIP3   OH211237   6.672   1.405   3.868
 3758TIP3    H111238   6.650   1.492   3.902
 3758TIP3    H211239   6.763   1.414   3.839
 3759TIP3   OH211240   1.925   4.722   2.756
 3759TIP3    H111241   1.853   4.731   2.819
 3759TIP3    H211242   1.997   4.687   2.808
 3760TIP3   OH211243   1.116   5.037   5.616
 3760TIP3    H111244   1.093   4.997   5.700
 3760TIP3    H211245   1.181   4.977   5.579
 3761TIP3   OH211246   5.862   1.992   2.841
 3761TIP3    H111247   5.861   1.991   2.745
 3761TIP3    H211248   5.898   2.078   2.864
 3762TIP3   OH211249   0.681   3.773   5.830
 3762TIP3    H111250   0.674   3.766   5.734
 3762TIP3    H211251   0.592   3.758   5.862
 3763TIP3   OH211252   0.248   4.997   0.655
 3763TIP3    H111253   0.203   4.945   0.722
 3763TIP3    H211254   0.201   5.080   0.654
 3764TIP3   OH211255   1.279   0.012   1.742
 3764TIP3    H111256   1.318  -0.061   1.695
 3764TIP3    H211257   1.281   0.085   1.680
 3765TIP3   OH211258   5.987   2.370   4.812
 3765TIP3    H111259   5.898   2.341   4.794
 3765TIP3    H211260   5.986   2.393   4.905
 3766TIP3   OH211261   4.873   6.194   1.713
 3766TIP3    H111262   4.957   6.149   1.706
 3766TIP3    H211263   4.895   6.280   1.749
 3767TIP3   OH211264   6.092   5.885   4.927
 3767TIP3    H111265   6.175   5.892   4.881
 3767TIP3    H211266   6.027   5.870   4.858
 3768TIP3   OH211267   2.156   0.529   5.157
 3768TIP3    H111268   2.119   0.584   5.087
 3768TIP3    H211269   2.233   0.578   5.187
 3769TIP3   OH211270   7.083   4.939   2.515
 3769TIP3    H111271   7.026   4.863   2.515
 3769TIP3    H211272   7.115   4.945   2.425
 3770TIP3   OH211273   6.999   5.714   3.046
 3770TIP3    H111274   6.947   5.678   2.974
 3770TIP3    H211275   7.014   5.805   3.022
 3771TIP3   OH211276   0.733   6.704   4.845
 3771TIP3    H111277   0.700   6.792   4.826
 3771TIP3    H211278   0.815   6.719   4.893
 3772TIP3   OH211279   3.934   4.296   5.365
 3772TIP3    H111280   3.949   4.381   5.405
 3772TIP3    H211281   3.850   4.305   5.321
 3773TIP3   OH211282   6.344   4.454   4.243
 3773TIP3    H111283   6.313   4.388   4.305
 3773TIP3    H211284   6.289   4.441   4.165
 3774TIP3   OH211285   4.618   0.469   2.553
 3774TIP3    H111286   4.607   0.423   2.636
 3774TIP3    H211287   4.636   0.560   2.579
 3775TIP3   OH211288   1.016   0.085   5.329
 3775TIP3    H111289   0.959   0.014   5.357
 3775TIP3    H211290   0.966   0.132   5.263
 3776TIP3   OH211291   0.148   1.881   3.796
 3776TIP3    H111292   0.214   1.816   3.820
 3776TIP3    H211293   0.084   1.877   3.867
 3777TIP3   OH211294   0.542   0.058   2.081
 3777TIP3    H111295   0.563   0.001   2.155
 3777TIP3    H211296   0.608   0.127   2.083
 3778TIP3   OH211297   0.930   5.291   3.722
 3778TIP3    H111298   1.013   5.330   3.747
 3778TIP3    H211299   0.908   5.331   3.638
 3779TIP3   OH211300   3.777   3.692   2.358
 3779TIP3    H111301   3.791   3.602   2.387
 3779TIP3    H211302   3.860   3.736   2.377
 3780TIP3   OH211303   1.851   1.741   3.349
 3780TIP3    H111304   1.772   1.687   3.348
 3780TIP3    H211305   1.864   1.764   3.441
 3781TIP3   OH211306   6.146   0.199   5.605
 3781TIP3    H111307   6.189   0.127   5.559
 3781TIP3    H211308   6.124   0.261   5.536
 3782TIP3   OH211309   4.716   0.002  -0.038
 3782TIP3    H111310   4.733   0.005   0.056
 3782TIP3    H211311   4.727   0.093  -0.066
 3783TIP3   OH211312   6.892   5.902   1.761
 3783TIP3    H111313   6.988   5.901   1.768
 3783TIP3    H211314   6.869   5.818   1.723
 3784TIP3   OH211315   2.086   0.705   4.209
 3784TIP3    H111316   2.049   0.647   4.142
 3784TIP3    H211317   2.011   0.734   4.261
 3785TIP3   OH211318   0.844   3.047   0.282
 3785TIP3    H111319   0.776   3.100   0.323
 3785TIP3    H211320   0.908   3.111   0.251
 3786TIP3   OH211321   6.891   1.102   5.349
 3786TIP3    H111322   6.942   1.023   5.367
 3786TIP3    H211323   6.807   1.069   5.316
 3787TIP3   OH211324   4.760   1.152   4.361
 3787TIP3    H111325   4.714   1.073   4.389
 3787TIP3    H211326   4.740   1.159   4.267
 3788TIP3   OH211327   3.214   4.082   3.424
 3788TIP3    H111328   3.132   4.083   3.373
 3788TIP3    H211329   3.273   4.140   3.375
 3789TIP3   OH211330   4.952   0.452   4.922
 3789TIP3    H111331   5.033   0.402   4.934
 3789TIP3    H211332   4.958   0.522   4.986
 3790TIP3   OH211333   0.471   5.390   1.216
 3790TIP3    H111334   0.495   5.448   1.288
 3790TIP3    H211335   0.395   5.341   1.249
 3791TIP3   OH211336   1.905   6.433   1.089
 3791TIP3    H111337   1.854   6.354   1.109
 3791TIP3    H211338   1.990   6.417   1.129
 3792TIP3   OH211339   2.148   0.065   3.174
 3792TIP3    H111340   2.069   0.110   3.143
 3792TIP3    H211341   2.213   0.080   3.105
 3793TIP3   OH211342   6.807   5.268   0.384
 3793TIP3    H111343   6.868   5.221   0.441
 3793TIP3    H211344   6.721   5.237   0.410
 3794TIP3   OH211345   7.189   2.610   0.126
 3794TIP3    H111346   7.236   2.630   0.207
 3794TIP3    H211347   7.242   2.650   0.057
 3795TIP3   OH211348   6.713  -0.005   1.871
 3795TIP3    H111349   6.766  -0.053   1.808
 3795TIP3    H211350   6.725  -0.052   1.953
 3796TIP3   OH211351   5.819   2.767   3.262
 3796TIP3    H111352   5.903   2.759   3.216
 3796TIP3    H211353   5.790   2.677   3.274
 3797TIP3   OH211354   5.624   6.217   4.193
 3797TIP3    H111355   5.714   6.195   4.214
 3797TIP3    H211356   5.597   6.148   4.131
 3798TIP3   OH211357   1.844   5.636   5.174
 3798TIP3    H111358   1.916   5.695   5.197
 3798TIP3    H211359   1.782   5.692   5.126
 3799TIP3   OH211360   7.171   2.325   1.501
 3799TIP3    H111361   7.137   2.307   1.588
 3799TIP3    H211362   7.095   2.315   1.443
 3800TIP3   OH211363   0.154   5.302   1.281
 3800TIP3    H111364   0.096   5.226   1.290
 3800TIP3    H211365   0.106   5.374   1.322
 3801TIP3   OH211366   6.296   4.319   0.507
 3801TIP3    H111367   6.368   4.258   0.524
 3801TIP3    H211368   6.326   4.372   0.433
 3802TIP3   OH211369   5.854   5.672   1.869
 3802TIP3    H111370   5.820   5.583   1.873
 3802TIP3    H211371   5.776   5.727   1.859
 3803TIP3   OH211372   0.284   1.288   4.541
 3803TIP3    H111373   0.243   1.318   4.460
 3803TIP3    H211374   0.282   1.192   4.534
 3804TIP3   OH211375   6.495   2.754   4.130
 3804TIP3    H111376   6.474   2.769   4.222
 3804TIP3    H211377   6.573   2.698   4.133
 3805TIP3   OH211378   2.942   0.033   5.730
 3805TIP3    H111379   2.867   0.085   5.701
 3805TIP3    H211380   2.934   0.029   5.825
 3806TIP3   OH211381   4.304   4.645   1.654
 3806TIP3    H111382   4.329   4.734   1.629
 3806TIP3    H211383   4.252   4.656   1.734
 3807TIP3   OH211384   7.016   6.684   4.710
 3807TIP3    H111385   7.042   6.650   4.795
 3807TIP3    H211386   7.024   6.779   4.719
 3808TIP3   OH211387   4.432   3.769   1.797
 3808TIP3    H111388   4.381   3.717   1.859
 3808TIP3    H211389   4.380   3.848   1.784
 3809TIP3   OH211390   5.682   0.410   4.292
 3809TIP3    H111391   5.760   0.461   4.312
 3809TIP3    H211392   5.610   0.473   4.299
 3810TIP3   OH211393   5.148   3.935   5.603
 3810TIP3    H111394   5.149   3.991   5.526
 3810TIP3    H211395   5.078   3.872   5.586
 3811TIP3   OH211396   4.913   0.422   3.698
 3811TIP3    H111397   4.846   0.353   3.691
 3811TIP3    H211398   4.951   0.427   3.610
 3812TIP3   OH211399   6.163   0.168   1.819
 3812TIP3    H111400   6.207   0.185   1.903
 3812TIP3    H211401   6.123   0.082   1.829
 3813TIP3   OH211402   6.487   4.394   5.496
 3813TIP3    H111403   6.526   4.476   5.527
 3813TIP3    H211404   6.519   4.386   5.406
 3814TIP3   OH211405   1.669   0.991   3.579
 3814TIP3    H111406   1.675   0.906   3.623
 3814TIP3    H211407   1.658   1.054   3.650
 3815TIP3   OH211408   2.275   6.604   4.458
 3815TIP3    H111409   2.211   6.576   4.391
 3815TIP3    H211410   2.226   6.600   4.540
 3816TIP3   OH211411   1.879   6.040   5.796
 3816TIP3    H111412   1.906   5.979   5.727
 3816TIP3    H211413   1.856   5.984   5.870
 3817TIP3   OH211414   0.024   3.957   4.185
 3817TIP3    H111415  -0.037   3.942   4.257
 3817TIP3    H211416   0.028   4.052   4.176
 3818TIP3   OH211417   3.671   6.506   2.624
 3818TIP3    H111418   3.681   6.427   2.571
 3818TIP3    H211419   3.654   6.473   2.713
 3819TIP3   OH211420   4.189   2.662   3.922
 3819TIP3    H111421   4.196   2.584   3.867
 3819TIP3    H211422   4.097   2.664   3.950
 3820TIP3   OH211423   0.770   4.836   3.042
 3820TIP3    H111424   0.809   4.923   3.036
 3820TIP3    H211425   0.676   4.852   3.046
 3821TIP3   OH211426   6.804   6.517   1.715
 3821TIP3    H111427   6.720   6.510   1.761
 3821TIP3    H211428   6.862   6.560   1.778
 3822TIP3   OH211429   2.979   5.729   2.182
 3822TIP3    H111430   3.027   5.772   2.252
 3822TIP3    H211431   3.037   5.734   2.106
 3823TIP3   OH211432   5.188   3.672   4.472
 3823TIP3    H111433   5.250   3.702   4.539
 3823TIP3    H211434   5.103   3.676   4.515
 3824TIP3   OH211435   6.809   1.730   5.452
 3824TIP3    H111436   6.854   1.777   5.522
 3824TIP3    H211437   6.872   1.665   5.422
 3825TIP3   OH211438   1.682   2.618   3.272
 3825TIP3    H111439   1.635   2.610   3.189
 3825TIP3    H211440   1.773   2.599   3.250
 3826TIP3   OH211441   6.800   5.809   4.110
 3826TIP3    H111442   6.767   5.830   4.197
 3826TIP3    H211443   6.880   5.759   4.126
 3827TIP3   OH211444   0.359   6.415   0.481
 3827TIP3    H111445   0.292   6.351   0.505
 3827TIP3    H211446   0.367   6.472   0.557
 3828TIP3   OH211447   6.978   2.518   4.190
 3828TIP3    H111448   6.993   2.552   4.102
 3828TIP3    H211449   6.979   2.423   4.179
 3829TIP3   OH211450   1.282   0.953   4.369
 3829TIP3    H111451   1.243   0.866   4.361
 3829TIP3    H211452   1.209   1.014   4.356
 3830TIP3   OH211453   3.675   6.406   1.831
 3830TIP3    H111454   3.651   6.495   1.855
 3830TIP3    H211455   3.754   6.415   1.778
 3831TIP3   OH211456   2.030   3.879   2.665
 3831TIP3    H111457   1.999   3.818   2.597
 3831TIP3    H211458   1.989   3.848   2.745
 3832TIP3   OH211459   5.812   0.812   5.822
 3832TIP3    H111460   5.851   0.725   5.825
 3832TIP3    H211461   5.874   0.869   5.867
 3833TIP3   OH211462   3.580   1.433   4.843
 3833TIP3    H111463   3.542   1.516   4.813
 3833TIP3    H211464   3.597   1.447   4.936
 3834TIP3   OH211465   2.066   4.280   4.662
 3834TIP3    H111466   2.030   4.227   4.591
 3834TIP3    H211467   2.160   4.286   4.642
 3835TIP3   OH211468   0.278   3.195   5.072
 3835TIP3    H111469   0.370   3.171   5.080
 3835TIP3    H211470   0.268   3.221   4.980
 3836TIP3   OH211471   1.871   3.291   3.165
 3836TIP3    H111472   1.964   3.273   3.180
 3836TIP3    H211473   1.850   3.242   3.086
 3837TIP3   OH211474   5.658   3.541   2.965
 3837TIP3    H111475   5.679   3.634   2.954
 3837TIP3    H211476   5.608   3.538   3.047
 3838TIP3   OH211477   0.050   5.882   0.327
 3838TIP3    H111478   0.021   5.973   0.335
 3838TIP3    H211479   0.060   5.852   0.418
 3839TIP3   OH211480   0.401   4.335   5.267
 3839TIP3    H111481   0.358   4.258   5.303
 3839TIP3    H211482   0.424   4.310   5.178
 3840TIP3   OH211483   1.845   4.026   4.913
 3840TIP3    H111484   1.939   4.039   4.901
 3840TIP3    H211485   1.838   3.952   4.974
 3841TIP3   OH211486   4.802   3.689   0.716
 3841TIP3    H111487   4.803   3.697   0.621
 3841TIP3    H211488   4.852   3.764   0.747
 3842TIP3   OH211489   2.506   1.209   2.080
 3842TIP3    H111490   2.508   1.253   1.995
 3842TIP3    H211491   2.464   1.271   2.139
 3843TIP3   OH211492   2.391   5.213   0.155
 3843TIP3    H111493   2.299   5.233   0.136
 3843TIP3    H211494   2.426   5.295   0.191
 3844TIP3   OH211495   4.157   1.195   1.683
 3844TIP3    H111496   4.103   1.199   1.762
 3844TIP3    H211497   4.100   1.156   1.616
 3845TIP3   OH211498   0.929   1.523   3.746
 3845TIP3    H111499   0.940   1.443   3.695
 3845TIP3    H211500   0.867   1.575   3.694
 3846TIP3   OH211501   0.797   5.467   4.015
 3846TIP3    H111502   0.821   5.377   4.039
 3846TIP3    H211503   0.809   5.517   4.095
 3847TIP3   OH211504   0.172   0.024   5.669
 3847TIP3    H111505   0.238  -0.030   5.626
 3847TIP3    H211506   0.217   0.060   5.746
 3848TIP3   OH211507   4.248   5.032   1.382
 3848TIP3    H111508   4.341   5.011   1.376
 3848TIP3    H211509   4.206   4.977   1.316
 3849TIP3   OH211510   5.198   1.538   4.573
 3849TIP3    H111511   5.230   1.448   4.572
 3849TIP3    H211512   5.132   1.540   4.642
 3850TIP3   OH211513   5.112   4.495   4.212
 3850TIP3    H111514   5.140   4.555   4.143
 3850TIP3    H211515   5.022   4.521   4.232
 3851TIP3   OH211516   5.273   0.624   5.202
 3851TIP3    H111517   5.364   0.624   5.171
 3851TIP3    H211518   5.278   0.667   5.288
 3852TIP3   OH211519   6.675   3.576   1.387
 3852TIP3    H111520   6.770   3.564   1.390
 3852TIP3    H211521   6.654   3.582   1.294
 3853TIP3   OH211522   2.043   0.761   1.517
 3853TIP3    H111523   2.079   0.674   1.499
 3853TIP3    H211524   2.108   0.804   1.571
 3854TIP3   OH211525   4.038   4.468   1.791
 3854TIP3    H111526   4.081   4.476   1.876
 3854TIP3    H211527   4.079   4.392   1.750
 3855TIP3   OH211528   1.928   3.284   2.021
 3855TIP3    H111529   1.931   3.231   1.941
 3855TIP3    H211530   2.021   3.295   2.045
 3856TIP3   OH211531   3.548   5.098   5.744
 3856TIP3    H111532   3.634   5.098   5.786
 3856TIP3    H211533   3.503   5.023   5.783
 3857TIP3   OH211534   6.310   3.823   3.107
 3857TIP3    H111535   6.367   3.753   3.139
 3857TIP3    H211536   6.359   3.862   3.035
 3858TIP3   OH211537   3.088   0.097   0.511
 3858TIP3    H111538   3.033   0.032   0.554
 3858TIP3    H211539   3.034   0.175   0.507
 3859TIP3   OH211540   1.542   4.807   3.613
 3859TIP3    H111541   1.625   4.785   3.655
 3859TIP3    H211542   1.479   4.813   3.684
 3860TIP3   OH211543   2.863   2.059   0.166
 3860TIP3    H111544   2.949   2.050   0.126
 3860TIP3    H211545   2.802   2.067   0.092
 3861TIP3   OH211546   2.735   1.650   4.161
 3861TIP3    H111547   2.780   1.653   4.246
 3861TIP3    H211548   2.691   1.734   4.154
 3862TIP3   OH211549   1.790   1.391   0.399
 3862TIP3    H111550   1.789   1.486   0.414
 3862TIP3    H211551   1.882   1.370   0.384
 3863TIP3   OH211552   0.597   4.413   0.988
 3863TIP3    H111553   0.574   4.365   0.908
 3863TIP3    H211554   0.535   4.486   0.991
 3864TIP3   OH211555   6.138   1.932   1.781
 3864TIP3    H111556   6.117   1.840   1.764
 3864TIP3    H211557   6.233   1.933   1.796
 3865TIP3   OH211558   0.353   3.048   4.123
 3865TIP3    H111559   0.300   2.968   4.125
 3865TIP3    H211560   0.340   3.084   4.035
 3866TIP3   OH211561   4.312   3.461   2.267
 3866TIP3    H111562   4.305   3.536   2.207
 3866TIP3    H211563   4.291   3.385   2.212
 3867TIP3   OH211564   5.237   5.194   0.313
 3867TIP3    H111565   5.214   5.194   0.220
 3867TIP3    H211566   5.242   5.287   0.337
 3868TIP3   OH211567   5.001   2.304   1.485
 3868TIP3    H111568   4.992   2.367   1.414
 3868TIP3    H211569   5.074   2.248   1.459
 3869TIP3   OH211570   5.409   3.651   2.202
 3869TIP3    H111571   5.484   3.691   2.246
 3869TIP3    H211572   5.337   3.662   2.264
 3870TIP3   OH211573   6.513   3.698   2.226
 3870TIP3    H111574   6.542   3.739   2.144
 3870TIP3    H211575   6.497   3.607   2.202
 3871TIP3   OH211576   1.603   5.820   5.183
 3871TIP3    H111577   1.606   5.914   5.203
 3871TIP3    H211578   1.519   5.808   5.139
 3872TIP3   OH211579   4.774   2.894   5.323
 3872TIP3    H111580   4.863   2.918   5.351
 3872TIP3    H211581   4.779   2.890   5.228
 3873TIP3   OH211582   3.563   4.683   5.389
 3873TIP3    H111583   3.575   4.609   5.330
 3873TIP3    H211584   3.641   4.737   5.376
 3874TIP3   OH211585   7.232   0.197   0.092
 3874TIP3    H111586   7.188   0.160   0.015
 3874TIP3    H211587   7.253   0.120   0.146
 3875TIP3   OH211588   2.412   1.119   0.638
 3875TIP3    H111589   2.422   1.214   0.652
 3875TIP3    H211590   2.391   1.111   0.545
 3876TIP3   OH211591   1.529   4.934   0.289
 3876TIP3    H111592   1.517   4.934   0.384
 3876TIP3    H211593   1.440   4.944   0.253
 3877TIP3   OH211594   1.639   2.667   2.402
 3877TIP3    H111595   1.712   2.670   2.340
 3877TIP3    H211596   1.566   2.708   2.356
 3878TIP3   OH211597   0.472   5.833   3.890
 3878TIP3    H111598   0.519   5.903   3.845
 3878TIP3    H211599   0.416   5.794   3.823
 3879TIP3   OH211600   5.200   2.216   2.945
 3879TIP3    H111601   5.158   2.133   2.923
 3879TIP3    H211602   5.131   2.281   2.933
 3880TIP3   OH211603   0.538   1.542   3.111
 3880TIP3    H111604   0.464   1.561   3.052
 3880TIP3    H211605   0.606   1.604   3.085
 3881TIP3   OH211606   2.113   1.508   0.709
 3881TIP3    H111607   2.141   1.441   0.646
 3881TIP3    H211608   2.051   1.463   0.766
 3882TIP3   OH211609   4.213   1.781   1.299
 3882TIP3    H111610   4.184   1.690   1.295
 3882TIP3    H211611   4.136   1.832   1.275
 3883TIP3   OH211612   5.389   5.973   1.026
 3883TIP3    H111613   5.400   6.028   1.104
 3883TIP3    H211614   5.368   6.034   0.956
 3884TIP3   OH211615   6.433   0.884   5.396
 3884TIP3    H111616   6.432   0.850   5.306
 3884TIP3    H211617   6.523   0.873   5.425
 3885TIP3   OH211618   0.699   1.794   0.999
 3885TIP3    H111619   0.768   1.735   0.968
 3885TIP3    H211620   0.646   1.811   0.921
 3886TIP3   OH211621   1.000   1.180   5.178
 3886TIP3    H111622   1.010   1.126   5.256
 3886TIP3    H211623   1.077   1.160   5.125
 3887TIP3   OH211624   0.365   0.646   5.173
 3887TIP3    H111625   0.445   0.688   5.141
 3887TIP3    H211626   0.321   0.713   5.225
 3888TIP3   OH211627   1.195   0.257   3.374
 3888TIP3    H111628   1.185   0.176   3.325
 3888TIP3    H211629   1.108   0.275   3.410
 3889TIP3   OH211630   3.526   0.436   0.845
 3889TIP3    H111631   3.486   0.386   0.773
 3889TIP3    H211632   3.544   0.370   0.912
 3890TIP3   OH211633   4.019   4.917   3.750
 3890TIP3    H111634   3.956   4.926   3.822
 3890TIP3    H211635   3.990   4.839   3.703
 3891TIP3   OH211636   4.008   0.747   4.432
 3891TIP3    H111637   3.914   0.762   4.438
 3891TIP3    H211638   4.046   0.835   4.424
 3892TIP3   OH211639   3.449   2.124   3.168
 3892TIP3    H111640   3.494   2.205   3.145
 3892TIP3    H211641   3.460   2.068   3.091
 3893TIP3   OH211642   3.644   1.488   3.302
 3893TIP3    H111643   3.727   1.535   3.309
 3893TIP3    H211644   3.579   1.549   3.337
 3894TIP3   OH211645   5.473   1.618   2.741
 3894TIP3    H111646   5.499   1.685   2.804
 3894TIP3    H211647   5.467   1.538   2.792
 3895TIP3   OH211648   4.663   3.199   3.714
 3895TIP3    H111649   4.723   3.159   3.777
 3895TIP3    H211650   4.576   3.188   3.755
 3896TIP3   OH211651   6.435   4.778   2.824
 3896TIP3    H111652   6.445   4.824   2.907
 3896TIP3    H211653   6.513   4.724   2.817
 3897TIP3   OH211654   3.104   5.680   3.459
 3897TIP3    H111655   3.016   5.647   3.442
 3897TIP3    H211656   3.149   5.675   3.374
 3898TIP3   OH211657   0.999   0.782   3.557
 3898TIP3    H111658   1.004   0.736   3.641
 3898TIP3    H211659   1.062   0.853   3.565
 3899TIP3   OH211660   4.078   0.517   4.190
 3899TIP3    H111661   4.052   0.451   4.255
 3899TIP3    H211662   4.011   0.585   4.196
 3900TIP3   OH211663   4.076   2.796   3.423
 3900TIP3    H111664   4.001   2.834   3.377
 3900TIP3    H211665   4.090   2.852   3.499
 3901TIP3   OH211666   0.349   4.840   0.131
 3901TIP3    H111667   0.275   4.873   0.181
 3901TIP3    H211668   0.423   4.843   0.191
 3902TIP3   OH211669   6.550   1.187   3.356
 3902TIP3    H111670   6.555   1.212   3.449
 3902TIP3    H211671   6.538   1.269   3.310
 3903TIP3   OH211672   5.257   2.238   4.241
 3903TIP3    H111673   5.343   2.279   4.236
 3903TIP3    H211674   5.223   2.244   4.151
 3904TIP3   OH211675   6.468   3.565   4.404
 3904TIP3    H111676   6.544   3.586   4.457
 3904TIP3    H211677   6.402   3.535   4.467
 3905TIP3   OH211678   7.001   4.676   1.402
 3905TIP3    H111679   6.982   4.765   1.374
 3905TIP3    H211680   6.958   4.667   1.487
 3906TIP3   OH211681   0.542   1.779   4.909
 3906TIP3    H111682   0.490   1.830   4.972
 3906TIP3    H211683   0.632   1.790   4.938
 3907TIP3   OH211684   3.398   6.672   2.610
 3907TIP3    H111685   3.484   6.713   2.609
 3907TIP3    H211686   3.352   6.710   2.535
 3908TIP3   OH211687   6.233   4.396   1.342
 3908TIP3    H111688   6.222   4.472   1.284
 3908TIP3    H211689   6.171   4.331   1.308
 3909TIP3   OH211690   4.244   2.448   2.326
 3909TIP3    H111691   4.196   2.447   2.243
 3909TIP3    H211692   4.263   2.541   2.341
 3910TIP3   OH211693   5.036   4.826   4.293
 3910TIP3    H111694   5.116   4.813   4.242
 3910TIP3    H211695   4.974   4.864   4.231
 3911TIP3   OH211696   3.266   2.352   0.697
 3911TIP3    H111697   3.347   2.320   0.737
 3911TIP3    H211698   3.204   2.357   0.769
 3912TIP3   OH211699   5.097   1.543   5.346
 3912TIP3    H111700   5.061   1.605   5.410
 3912TIP3    H211701   5.064   1.573   5.262
 3913TIP3   OH211702   4.895   6.076   3.767
 3913TIP3    H111703   4.896   6.033   3.852
 3913TIP3    H211704   4.987   6.083   3.742
 3914TIP3   OH211705   2.272   6.273   5.368
 3914TIP3    H111706   2.188   6.230   5.351
 3914TIP3    H211707   2.297   6.311   5.284
 3915TIP3   OH211708   1.886   0.488   3.822
 3915TIP3    H111709   1.812   0.504   3.881
 3915TIP3    H211710   1.924   0.405   3.853
 3916TIP3   OH211711   2.017   6.068   3.937
 3916TIP3    H111712   1.973   5.984   3.926
 3916TIP3    H211713   1.960   6.130   3.890
 3917TIP3   OH211714   4.139   5.588   3.550
 3917TIP3    H111715   4.091   5.670   3.537
 3917TIP3    H211716   4.124   5.539   3.469
 3918TIP3   OH211717   2.671   0.675   0.485
 3918TIP3    H111718   2.638   0.637   0.404
 3918TIP3    H211719   2.709   0.759   0.458
 3919TIP3   OH211720   3.086   1.578   0.152
 3919TIP3    H111721   3.133   1.621   0.223
 3919TIP3    H211722   3.013   1.637   0.132
 3920TIP3   OH211723   1.850   0.779   5.226
 3920TIP3    H111724   1.932   0.754   5.184
 3920TIP3    H211725   1.876   0.836   5.298
 3921TIP3   OH211726   3.002   2.547   1.176
 3921TIP3    H111727   2.979   2.580   1.263
 3921TIP3    H211728   3.081   2.495   1.190
 3922TIP3   OH211729   3.452   1.629   0.124
 3922TIP3    H111730   3.500   1.554   0.157
 3922TIP3    H211731   3.456   1.694   0.194
 3923TIP3   OH211732   4.774   2.339   5.426
 3923TIP3    H111733   4.837   2.319   5.495
 3923TIP3    H211734   4.698   2.375   5.473
 3924TIP3   OH211735   7.041   3.579   5.212
 3924TIP3    H111736   7.087   3.626   5.282
 3924TIP3    H211737   7.065   3.626   5.132
 3925TIP3   OH211738   6.328   0.831   5.643
 3925TIP3    H111739   6.353   0.853   5.553
 3925TIP3    H211740   6.360   0.742   5.656
 3926TIP3   OH211741   5.115   4.091   4.902
 3926TIP3    H111742   5.132   4.012   4.952
 3926TIP3    H211743   5.085   4.059   4.817
 3927TIP3   OH211744   6.879   2.812   4.473
 3927TIP3    H111745   6.802   2.859   4.503
 3927TIP3    H211746   6.952   2.854   4.519
 3928TIP3   OH211747   3.533   4.196   4.362
 3928TIP3    H111748   3.588   4.122   4.384
 3928TIP3    H211749   3.589   4.253   4.309
 3929TIP3   OH211750   0.237   4.760   2.066
 3929TIP3    H111751   0.171   4.711   2.019
 3929TIP3    H211752   0.211   4.754   2.158
 3930TIP3   OH211753   6.152   4.154   3.216
 3930TIP3    H111754   6.084   4.171   3.281
 3930TIP3    H211755   6.221   4.217   3.237
 3931TIP3   OH211756   5.422   0.821   0.292
 3931TIP3    H111757   5.386   0.897   0.339
 3931TIP3    H211758   5.411   0.748   0.351
 3932TIP3   OH211759   2.558   1.781   2.403
 3932TIP3    H111760   2.602   1.865   2.386
 3932TIP3    H211761   2.584   1.725   2.331
 3933TIP3   OH211762   3.390   0.101   0.704
 3933TIP3    H111763   3.420   0.172   0.647
 3933TIP3    H211764   3.310   0.135   0.744
 3934TIP3   OH211765   4.738   1.586   3.332
 3934TIP3    H111766   4.703   1.497   3.324
 3934TIP3    H211767   4.679   1.629   3.395
 3935TIP3   OH211768   2.764   1.392   4.353
 3935TIP3    H111769   2.837   1.450   4.335
 3935TIP3    H211770   2.713   1.392   4.272
 3936TIP3   OH211771   1.151   3.086   4.703
 3936TIP3    H111772   1.135   3.049   4.616
 3936TIP3    H211773   1.105   3.028   4.763
 3937TIP3   OH211774   6.241   6.068   4.526
 3937TIP3    H111775   6.332   6.041   4.538
 3937TIP3    H211776   6.191   5.987   4.525
 3938TIP3   OH211777   1.969   4.465   3.246
 3938TIP3    H111778   1.897   4.402   3.248
 3938TIP3    H211779   2.014   4.453   3.329
 3939TIP3   OH211780   6.333   5.524   3.433
 3939TIP3    H111781   6.426   5.543   3.444
 3939TIP3    H211782   6.310   5.561   3.348
 3940TIP3   OH211783   2.424   0.481   1.331
 3940TIP3    H111784   2.510   0.441   1.317
 3940TIP3    H211785   2.436   0.540   1.405
 3941TIP3   OH211786   2.929   3.218   0.163
 3941TIP3    H111787   3.000   3.239   0.103
 3941TIP3    H211788   2.901   3.303   0.199
 3942TIP3   OH211789   6.911   0.789   2.924
 3942TIP3    H111790   6.961   0.738   2.987
 3942TIP3    H211791   6.843   0.831   2.976
 3943TIP3   OH211792   2.447   1.017   2.285
 3943TIP3    H111793   2.389   0.951   2.248
 3943TIP3    H211794   2.468   1.074   2.211
 3944TIP3   OH211795   0.483   3.136   4.369
 3944TIP3    H111796   0.443   3.132   4.282
 3944TIP3    H211797   0.557   3.196   4.358
 3945TIP3   OH211798   5.155   2.455   4.376
 3945TIP3    H111799   5.138   2.434   4.468
 3945TIP3    H211800   5.203   2.379   4.343
 3946TIP3   OH211801   3.548   2.460   0.006
 3946TIP3    H111802   3.547   2.462  -0.090
 3946TIP3    H211803   3.458   2.435   0.030
 3947TIP3   OH211804   5.338   2.690   0.058
 3947TIP3    H111805   5.246   2.663   0.048
 3947TIP3    H211806   5.354   2.683   0.152
 3948TIP3   OH211807   4.173   0.118   4.214
 3948TIP3    H111808   4.242   0.057   4.241
 3948TIP3    H211809   4.208   0.159   4.135
 3949TIP3   OH211810   5.961   4.507   1.467
 3949TIP3    H111811   5.890   4.525   1.405
 3949TIP3    H211812   6.040   4.507   1.413
 3950TIP3   OH211813   5.874   5.047   4.017
 3950TIP3    H111814   5.888   5.125   4.072
 3950TIP3    H211815   5.808   5.074   3.953
 3951TIP3   OH211816   2.983   4.800   1.070
 3951TIP3    H111817   2.922   4.864   1.107
 3951TIP3    H211818   2.943   4.774   0.987
 3952TIP3   OH211819   3.577   6.520   4.651
 3952TIP3    H111820   3.666   6.554   4.660
 3952TIP3    H211821   3.521   6.595   4.674
 3953TIP3   OH211822   1.279   6.610   4.573
 3953TIP3    H111823   1.286   6.701   4.603
 3953TIP3    H211824   1.189   6.603   4.540
 3954TIP3   OH211825   3.244   5.204   4.117
 3954TIP3    H111826   3.184   5.183   4.188
 3954TIP3    H211827   3.331   5.191   4.155
 3955TIP3   OH211828   5.385   5.404   3.273
 3955TIP3    H111829   5.361   5.423   3.183
 3955TIP3    H211830   5.474   5.370   3.268
 3956TIP3   OH211831   7.088   1.328   0.425
 3956TIP3    H111832   7.037   1.250   0.402
 3956TIP3    H211833   7.068   1.392   0.357
 3957TIP3   OH211834   1.048   4.393   4.020
 3957TIP3    H111835   1.002   4.461   3.971
 3957TIP3    H211836   1.139   4.400   3.992
 3958TIP3   OH211837   3.686   0.210   0.582
 3958TIP3    H111838   3.742   0.287   0.568
 3958TIP3    H211839   3.738   0.152   0.638
 3959TIP3   OH211840   1.257   0.602   1.155
 3959TIP3    H111841   1.350   0.617   1.168
 3959TIP3    H211842   1.249   0.508   1.142
 3960TIP3   OH211843   1.788   6.007   4.492
 3960TIP3    H111844   1.740   5.979   4.570
 3960TIP3    H211845   1.729   5.985   4.420
 3961TIP3   OH211846   6.345   4.881   2.570
 3961TIP3    H111847   6.362   4.857   2.661
 3961TIP3    H211848   6.376   4.806   2.520
 3962TIP3   OH211849   4.281   5.902   3.173
 3962TIP3    H111850   4.246   5.898   3.262
 3962TIP3    H211851   4.220   5.958   3.126
 3963TIP3   OH211852   2.288   0.480   3.656
 3963TIP3    H111853   2.365   0.458   3.603
 3963TIP3    H211854   2.326   0.514   3.738
 3964TIP3   OH211855   5.361   6.175   4.013
 3964TIP3    H111856   5.355   6.227   3.933
 3964TIP3    H211857   5.338   6.087   3.986
 3965TIP3   OH211858   3.567   3.924   2.083
 3965TIP3    H111859   3.506   3.862   2.045
 3965TIP3    H211860   3.515   3.975   2.145
 3966TIP3   OH211861   6.578   5.764   0.552
 3966TIP3    H111862   6.670   5.784   0.571
 3966TIP3    H211863   6.566   5.675   0.586
 3967TIP3   OH211864   4.883   5.018   2.214
 3967TIP3    H111865   4.875   5.075   2.291
 3967TIP3    H211866   4.793   4.992   2.195
 3968TIP3   OH211867   2.215   4.835   5.018
 3968TIP3    H111868   2.131   4.818   4.975
 3968TIP3    H211869   2.253   4.908   4.969
 3969TIP3   OH211870   2.494   3.185   5.386
 3969TIP3    H111871   2.584   3.173   5.354
 3969TIP3    H211872   2.504   3.231   5.469
 3970TIP3   OH211873   1.705   0.712   3.579
 3970TIP3    H111874   1.794   0.682   3.596
 3970TIP3    H211875   1.678   0.664   3.501
 3971TIP3   OH211876   6.388   4.330   1.883
 3971TIP3    H111877   6.467   4.279   1.865
 3971TIP3    H211878   6.353   4.294   1.964
 3972TIP3   OH211879   0.262   6.274   4.786
 3972TIP3    H111880   0.168   6.255   4.789
 3972TIP3    H211881   0.283   6.305   4.874
 3973TIP3   OH211882   5.730   5.635   4.466
 3973TIP3    H111883   5.727   5.633   4.561
 3973TIP3    H211884   5.805   5.581   4.442
 3974TIP3   OH211885   4.535   3.275   5.198
 3974TIP3    H111886   4.548   3.268   5.293
 3974TIP3    H211887   4.513   3.186   5.170
 3975TIP3   OH211888   6.581   6.137   5.565
 3975TIP3    H111889   6.636   6.076   5.613
 3975TIP3    H211890   6.642   6.202   5.531
 3976TIP3   OH211891   6.379   4.788   5.361
 3976TIP3    H111892   6.433   4.711   5.376
 3976TIP3    H211893   6.325   4.795   5.440
 3977TIP3   OH211894   2.516   4.850   3.365
 3977TIP3    H111895   2.507   4.920   3.301
 3977TIP3    H211896   2.599   4.807   3.342
 3978TIP3   OH211897   1.637   3.167   0.937
 3978TIP3    H111898   1.732   3.176   0.941
 3978TIP3    H211899   1.619   3.085   0.984
 3979TIP3   OH211900   6.756   1.579   0.501
 3979TIP3    H111901   6.826   1.576   0.566
 3979TIP3    H211902   6.685   1.527   0.538
 3980TIP3   OH211903   5.203   1.982   2.356
 3980TIP3    H111904   5.244   1.898   2.332
 3980TIP3    H211905   5.114   1.976   2.320
 3981TIP3   OH211906   3.917   4.544   0.615
 3981TIP3    H111907   3.989   4.602   0.590
 3981TIP3    H211908   3.856   4.600   0.662
 3982TIP3   OH211909   5.755   4.893   4.248
 3982TIP3    H111910   5.828   4.908   4.189
 3982TIP3    H211911   5.683   4.945   4.211
 3983TIP3   OH211912   0.252   0.636   4.479
 3983TIP3    H111913   0.281   0.589   4.557
 3983TIP3    H211914   0.164   0.602   4.462
 3984TIP3   OH211915   4.253   3.321   5.695
 3984TIP3    H111916   4.267   3.295   5.786
 3984TIP3    H211917   4.301   3.404   5.686
 3985TIP3   OH211918   5.475   6.485   3.609
 3985TIP3    H111919   5.548   6.513   3.663
 3985TIP3    H211920   5.474   6.548   3.536
 3986TIP3   OH211921   1.727   3.909   1.837
 3986TIP3    H111922   1.655   3.862   1.795
 3986TIP3    H211923   1.752   3.853   1.911
 3987TIP3   OH211924   4.699   1.932   0.889
 3987TIP3    H111925   4.644   2.010   0.890
 3987TIP3    H211926   4.721   1.916   0.981
 3988TIP3   OH211927   3.956   1.596   4.708
 3988TIP3    H111928   3.870   1.638   4.705
 3988TIP3    H211929   3.936   1.503   4.717
 3989TIP3   OH211930   3.975   1.494   0.631
 3989TIP3    H111931   3.946   1.546   0.706
 3989TIP3    H211932   4.032   1.427   0.669
 3990TIP3   OH211933   6.146   6.284   4.678
 3990TIP3    H111934   6.171   6.200   4.640
 3990TIP3    H211935   6.137   6.343   4.603
 3991TIP3   OH211936   5.462   4.606   2.799
 3991TIP3    H111937   5.484   4.516   2.774
 3991TIP3    H211938   5.482   4.657   2.720
 3992TIP3   OH211939   6.767   2.503   1.322
 3992TIP3    H111940   6.844   2.506   1.264
 3992TIP3    H211941   6.801   2.528   1.408
 3993TIP3   OH211942   3.826   1.865   3.958
 3993TIP3    H111943   3.808   1.775   3.987
 3993TIP3    H211944   3.743   1.911   3.969
 3994TIP3   OH211945   2.601   2.021   5.725
 3994TIP3    H111946   2.692   2.012   5.752
 3994TIP3    H211947   2.583   1.942   5.674
 3995TIP3   OH211948   2.262   0.858   2.162
 3995TIP3    H111949   2.207   0.935   2.181
 3995TIP3    H211950   2.213   0.810   2.096
 3996TIP3   OH211951   0.679   0.781   3.763
 3996TIP3    H111952   0.630   0.863   3.765
 3996TIP3    H211953   0.695   0.766   3.670
 3997TIP3   OH211954   0.610   1.506   4.924
 3997TIP3    H111955   0.547   1.577   4.906
 3997TIP3    H211956   0.695   1.544   4.902
 3998TIP3   OH211957   5.292   1.098   4.229
 3998TIP3    H111958   5.328   1.162   4.168
 3998TIP3    H211959   5.364   1.079   4.289
 3999TIP3   OH211960   4.822   3.072   3.909
 3999TIP3    H111961   4.849   3.029   3.991
 3999TIP3    H211962   4.869   3.024   3.841
 4000TIP3   OH211963   4.300   4.395   5.429
 4000TIP3    H111964   4.350   4.367   5.352
 4000TIP3    H211965   4.299   4.490   5.424
 4001TIP3   OH211966   1.520   2.058   5.279
 4001TIP3    H111967   1.544   2.135   5.331
 4001TIP3    H211968   1.509   1.989   5.344
 4002TIP3   OH211969   2.005   2.363   0.087
 4002TIP3    H111970   2.083   2.316   0.055
 4002TIP3    H211971   1.955   2.297   0.135
 4003TIP3   OH211972   3.636   5.714   0.361
 4003TIP3    H111973   3.589   5.634   0.335
 4003TIP3    H211974   3.598   5.783   0.308
 4004TIP3   OH211975   4.344   2.079   5.742
 4004TIP3    H111976   4.327   2.017   5.670
 4004TIP3    H211977   4.433   2.059   5.770
 4005TIP3   OH211978   4.527   5.663   5.353
 4005TIP3    H111979   4.556   5.575   5.326
 4005TIP3    H211980   4.494   5.703   5.272
 4006TIP3   OH211981   1.592   0.446   0.202
 4006TIP3    H111982   1.646   0.368   0.188
 4006TIP3    H211983   1.650   0.507   0.249
 4007TIP3   OH211984   1.555   3.372   4.625
 4007TIP3    H111985   1.529   3.346   4.536
 4007TIP3    H211986   1.587   3.462   4.615
 4008TIP3   OH211987   1.163   2.552   2.514
 4008TIP3    H111988   1.202   2.584   2.432
 4008TIP3    H211989   1.079   2.514   2.487
 4009TIP3   OH211990   5.902   1.192   0.752
 4009TIP3    H111991   5.986   1.217   0.791
 4009TIP3    H211992   5.840   1.254   0.790
 4010TIP3   OH211993   2.706   1.991   0.869
 4010TIP3    H111994   2.794   2.026   0.873
 4010TIP3    H211995   2.683   1.993   0.776
 4011TIP3   OH211996   4.866   5.894   1.277
 4011TIP3    H111997   4.825   5.864   1.196
 4011TIP3    H211998   4.959   5.896   1.257
 4012TIP3   OH211999   6.151   5.058   4.005
 4012TIP3    H112000   6.180   4.994   4.070
 4012TIP3    H212001   6.056   5.047   4.001
 4013TIP3   OH212002   1.295   6.179   3.189
 4013TIP3    H112003   1.387   6.158   3.205
 4013TIP3    H212004   1.287   6.272   3.209
 4014TIP3   OH212005   3.539   2.949   4.688
 4014TIP3    H112006   3.499   2.885   4.629
 4014TIP3    H212007   3.582   2.896   4.756
 4015TIP3   OH212008   0.637   2.933   2.793
 4015TIP3    H112009   0.680   2.856   2.831
 4015TIP3    H212010   0.703   3.002   2.799
 4016TIP3   OH212011   3.014   4.900   2.604
 4016TIP3    H112012   3.011   4.805   2.604
 4016TIP3    H212013   3.012   4.925   2.696
 4017TIP3   OH212014   2.043   2.376   0.914
 4017TIP3    H112015   1.956   2.371   0.877
 4017TIP3    H212016   2.079   2.287   0.905
 4018TIP3   OH212017   1.725   0.842   0.842
 4018TIP3    H112018   1.725   0.812   0.933
 4018TIP3    H212019   1.785   0.916   0.841
 4019TIP3   OH212020   5.168   6.520   3.863
 4019TIP3    H112021   5.183   6.564   3.947
 4019TIP3    H212022   5.140   6.590   3.804
 4020TIP3   OH212023   1.092   3.987   1.889
 4020TIP3    H112024   1.132   3.937   1.960
 4020TIP3    H212025   0.998   3.984   1.907
 4021TIP3   OH212026   3.544   3.623   3.588
 4021TIP3    H112027   3.533   3.536   3.549
 4021TIP3    H212028   3.594   3.672   3.523
 4022TIP3   OH212029   6.056   1.135   1.368
 4022TIP3    H112030   6.151   1.125   1.361
 4022TIP3    H212031   6.035   1.104   1.456
 4023TIP3   OH212032   2.221   0.462   0.662
 4023TIP3    H112033   2.256   0.496   0.745
 4023TIP3    H212034   2.197   0.540   0.612
 4024TIP3   OH212035   5.738   1.039   3.673
 4024TIP3    H112036   5.801   1.013   3.741
 4024TIP3    H212037   5.693   1.115   3.710
 4025TIP3   OH212038   2.501   4.641   1.276
 4025TIP3    H112039   2.417   4.600   1.254
 4025TIP3    H212040   2.544   4.655   1.192
 4026TIP3   OH212041   5.253   0.099   2.789
 4026TIP3    H112042   5.342   0.077   2.759
 4026TIP3    H212043   5.263   0.185   2.829
 4027TIP3   OH212044   5.116   6.637   0.497
 4027TIP3    H112045   5.136   6.603   0.584
 4027TIP3    H212046   5.184   6.702   0.479
 4028TIP3   OH212047   1.841   3.586   3.662
 4028TIP3    H112048   1.908   3.585   3.595
 4028TIP3    H212049   1.873   3.524   3.728
 4029TIP3   OH212050   6.492   2.774   3.851
 4029TIP3    H112051   6.472   2.781   3.944
 4029TIP3    H212052   6.424   2.827   3.808
 4030TIP3   OH212053   6.467   0.351   5.465
 4030TIP3    H112054   6.543   0.294   5.465
 4030TIP3    H212055   6.426   0.337   5.380
 4031TIP3   OH212056   6.106   2.510   5.872
 4031TIP3    H112057   6.087   2.508   5.966
 4031TIP3    H212058   6.184   2.566   5.865
 4032TIP3   OH212059   1.305   1.444   4.834
 4032TIP3    H112060   1.316   1.351   4.814
 4032TIP3    H212061   1.327   1.451   4.926
 4033TIP3   OH212062   5.398   4.860   1.499
 4033TIP3    H112063   5.352   4.935   1.538
 4033TIP3    H212064   5.356   4.783   1.537
 4034TIP3   OH212065   2.760   2.510   2.506
 4034TIP3    H112066   2.701   2.572   2.462
 4034TIP3    H212067   2.702   2.443   2.542
 4035TIP3   OH212068   2.574   5.069   2.962
 4035TIP3    H112069   2.622   5.036   2.885
 4035TIP3    H212070   2.524   5.143   2.929
 4036TIP3   OH212071   1.233   5.443   1.925
 4036TIP3    H112072   1.170   5.500   1.969
 4036TIP3    H212073   1.278   5.397   1.995
 4037TIP3   OH212074   5.472   5.293   2.886
 4037TIP3    H112075   5.436   5.287   2.797
 4037TIP3    H212076   5.520   5.211   2.898
 4038TIP3   OH212077   0.550   3.100   3.425
 4038TIP3    H112078   0.510   3.035   3.482
 4038TIP3    H212079   0.520   3.184   3.460
 4039TIP3   OH212080   4.293   3.112   5.518
 4039TIP3    H112081   4.273   3.182   5.580
 4039TIP3    H212082   4.378   3.135   5.481
 4040TIP3   OH212083   3.525   2.956   3.868
 4040TIP3    H112084   3.497   3.042   3.900
 4040TIP3    H212085   3.444   2.905   3.861
 4041TIP3   OH212086   5.483   2.557   1.583
 4041TIP3    H112087   5.461   2.631   1.527
 4041TIP3    H212088   5.442   2.577   1.667
 4042TIP3   OH212089   5.033   2.718   0.434
 4042TIP3    H112090   5.078   2.633   0.436
 4042TIP3    H212091   4.944   2.697   0.407
 4043TIP3   OH212092   2.791   2.089   1.763
 4043TIP3    H112093   2.722   2.023   1.764
 4043TIP3    H212094   2.819   2.096   1.855
 4044TIP3   OH212095   5.875   6.589   2.403
 4044TIP3    H112096   5.956   6.550   2.436
 4044TIP3    H212097   5.900   6.627   2.319
 4045TIP3   OH212098   1.925   4.762   0.044
 4045TIP3    H112099   1.833   4.738   0.051
 4045TIP3    H212100   1.945   4.803   0.129
 4046TIP3   OH212101   6.130   2.137   4.326
 4046TIP3    H112102   6.138   2.178   4.239
 4046TIP3    H212103   6.153   2.207   4.387
 4047TIP3   OH212104   0.878   5.478   2.094
 4047TIP3    H112105   0.785   5.457   2.108
 4047TIP3    H212106   0.879   5.536   2.019
 4048TIP3   OH212107   0.426   1.483   0.299
 4048TIP3    H112108   0.456   1.444   0.217
 4048TIP3    H212109   0.382   1.564   0.273
 4049TIP3   OH212110   0.798   4.147   5.688
 4049TIP3    H112111   0.785   4.123   5.596
 4049TIP3    H212112   0.868   4.090   5.718
 4050TIP3   OH212113   0.141   4.048   2.628
 4050TIP3    H112114   0.090   4.127   2.648
 4050TIP3    H212115   0.111   3.984   2.692
 4051TIP3   OH212116   4.278   3.870   0.004
 4051TIP3    H112117   4.209   3.837   0.061
 4051TIP3    H212118   4.343   3.800   0.000
 4052TIP3   OH212119   2.803   3.333   3.660
 4052TIP3    H112120   2.732   3.269   3.671
 4052TIP3    H212121   2.850   3.304   3.582
 4053TIP3   OH212122   0.534   2.241   5.559
 4053TIP3    H112123   0.538   2.319   5.614
 4053TIP3    H212124   0.445   2.208   5.571
 4054TIP3   OH212125   1.788   1.895   0.155
 4054TIP3    H112126   1.866   1.884   0.100
 4054TIP3    H212127   1.717   1.855   0.105
 4055TIP3   OH212128   2.939   6.393   0.781
 4055TIP3    H112129   2.987   6.475   0.791
 4055TIP3    H212130   2.899   6.378   0.866
 4056TIP3   OH212131   4.568   2.395   1.720
 4056TIP3    H112132   4.588   2.325   1.657
 4056TIP3    H212133   4.621   2.469   1.692
 4057TIP3   OH212134   3.425   3.084   1.856
 4057TIP3    H112135   3.411   3.119   1.768
 4057TIP3    H212136   3.379   3.000   1.855
 4058TIP3   OH212137   5.191   5.425   4.639
 4058TIP3    H112138   5.287   5.416   4.642
 4058TIP3    H212139   5.169   5.417   4.547
 4059TIP3   OH212140   5.364   5.413   5.538
 4059TIP3    H112141   5.381   5.327   5.501
 4059TIP3    H212142   5.451   5.452   5.549
 4060TIP3   OH212143   0.060   1.707   4.216
 4060TIP3    H112144  -0.022   1.666   4.244
 4060TIP3    H212145   0.044   1.801   4.227
 4061TIP3   OH212146   3.932   0.246   3.920
 4061TIP3    H112147   3.894   0.264   4.005
 4061TIP3    H212148   3.975   0.161   3.930
 4062TIP3   OH212149   3.051   4.032   2.629
 4062TIP3    H112150   3.095   4.091   2.568
 4062TIP3    H212151   3.028   4.087   2.703
 4063TIP3   OH212152   4.574   4.807   5.072
 4063TIP3    H112153   4.540   4.847   4.992
 4063TIP3    H212154   4.669   4.803   5.058
 4064TIP3   OH212155   0.458   1.518   0.639
 4064TIP3    H112156   0.421   1.508   0.727
 4064TIP3    H212157   0.453   1.612   0.621
 4065TIP3   OH212158   4.970   0.928   4.209
 4065TIP3    H112159   4.997   0.905   4.121
 4065TIP3    H212160   4.950   0.844   4.251
 4066TIP3   OH212161   3.462   6.457   1.164
 4066TIP3    H112162   3.425   6.465   1.253
 4066TIP3    H212163   3.388   6.432   1.110
 4067TIP3   OH212164   2.497   5.702   5.145
 4067TIP3    H112165   2.418   5.649   5.139
 4067TIP3    H212166   2.491   5.763   5.072
 4068TIP3   OH212167   3.744   4.237   4.977
 4068TIP3    H112168   3.714   4.246   4.886
 4068TIP3    H212169   3.674   4.188   5.020
 4069TIP3   OH212170   1.925   4.542   5.135
 4069TIP3    H112171   1.944   4.616   5.077
 4069TIP3    H212172   1.859   4.491   5.089
 4070TIP3   OH212173   3.591   3.666   1.425
 4070TIP3    H112174   3.583   3.577   1.460
 4070TIP3    H212175   3.607   3.653   1.332
 4071TIP3   OH212176   6.595   6.668   2.170
 4071TIP3    H112177   6.678   6.712   2.155
 4071TIP3    H212178   6.541   6.733   2.216
 4072TIP3   OH212179   5.218   5.317   0.829
 4072TIP3    H112180   5.289   5.257   0.808
 4072TIP3    H212181   5.143   5.284   0.779
 4073TIP3   OH212182   5.050   4.784   0.850
 4073TIP3    H112183   5.102   4.710   0.883
 4073TIP3    H212184   5.101   4.861   0.874
 4074TIP3   OH212185   3.535   1.655   4.177
 4074TIP3    H112186   3.466   1.719   4.156
 4074TIP3    H212187   3.503   1.611   4.256
 4075TIP3   OH212188   1.634   5.343   0.104
 4075TIP3    H112189   1.626   5.387   0.019
 4075TIP3    H212190   1.552   5.295   0.114
 4076TIP3   OH212191   3.832   2.464   5.918
 4076TIP3    H112192   3.801   2.479   5.829
 4076TIP3    H212193   3.924   2.440   5.908
 4077TIP3   OH212194   5.901   4.158   1.763
 4077TIP3    H112195   5.982   4.169   1.812
 4077TIP3    H212196   5.861   4.245   1.764
 4078TIP3   OH212197   3.698   2.099   5.062
 4078TIP3    H112198   3.792   2.116   5.075
 4078TIP3    H212199   3.663   2.183   5.032
 4079TIP3   OH212200   6.886   3.372   5.765
 4079TIP3    H112201   6.958   3.389   5.826
 4079TIP3    H212202   6.896   3.437   5.696
 4080TIP3   OH212203   6.484   0.496   0.368
 4080TIP3    H112204   6.402   0.470   0.326
 4080TIP3    H212205   6.495   0.432   0.439
 4081TIP3   OH212206   1.394   6.263   1.873
 4081TIP3    H112207   1.355   6.349   1.862
 4081TIP3    H212208   1.412   6.232   1.784
 4082TIP3   OH212209   0.363   3.824   3.630
 4082TIP3    H112210   0.419   3.877   3.686
 4082TIP3    H212211   0.420   3.754   3.599
 4083TIP3   OH212212   6.097   5.944   3.946
 4083TIP3    H112213   6.032   5.921   4.013
 4083TIP3    H212214   6.083   6.038   3.931
 4084TIP3   OH212215   3.115   1.452   3.410
 4084TIP3    H112216   3.084   1.375   3.361
 4084TIP3    H212217   3.036   1.490   3.448
 4085TIP3   OH212218   4.380   0.884   2.150
 4085TIP3    H112219   4.435   0.865   2.074
 4085TIP3    H212220   4.291   0.887   2.115
 4086TIP3   OH212221   1.510   2.763   4.378
 4086TIP3    H112222   1.424   2.791   4.346
 4086TIP3    H212223   1.514   2.794   4.469
 4087TIP3   OH212224   3.663   4.674   4.406
 4087TIP3    H112225   3.703   4.743   4.353
 4087TIP3    H212226   3.570   4.678   4.386
 4088TIP3   OH212227   6.197   5.658   5.026
 4088TIP3    H112228   6.149   5.733   4.991
 4088TIP3    H212229   6.275   5.697   5.066
 4089TIP3   OH212230   3.853   4.640   5.916
 4089TIP3    H112231   3.883   4.687   5.838
 4089TIP3    H212232   3.764   4.671   5.931
 4090TIP3   OH212233   0.110   1.488   0.034
 4090TIP3    H112234   0.077   1.552   0.097
 4090TIP3    H212235   0.120   1.407   0.085
 4091TIP3   OH212236   0.273   6.697   1.955
 4091TIP3    H112237   0.344   6.700   1.891
 4091TIP3    H212238   0.212   6.764   1.927
 4092TIP3   OH212239   4.380   4.548   2.500
 4092TIP3    H112240   4.391   4.600   2.580
 4092TIP3    H212241   4.306   4.490   2.519
 4093TIP3   OH212242   0.052   5.741   0.573
 4093TIP3    H112243  -0.005   5.753   0.649
 4093TIP3    H212244   0.040   5.649   0.549
 4094TIP3   OH212245   7.030   5.676   2.410
 4094TIP3    H112246   7.110   5.714   2.447
 4094TIP3    H212247   7.007   5.735   2.338
 4095TIP3   OH212248   1.352   0.551   5.592
 4095TIP3    H112249   1.365   0.561   5.497
 4095TIP3    H212250   1.260   0.529   5.602
 4096TIP3   OH212251   6.947   0.498   1.341
 4096TIP3    H112252   7.037   0.487   1.373
 4096TIP3    H212253   6.942   0.444   1.262
 4097TIP3   OH212254   2.861   1.450   2.287
 4097TIP3    H112255   2.886   1.376   2.231
 4097TIP3    H212256   2.944   1.486   2.318
 4098TIP3   OH212257   3.528   6.238   1.610
 4098TIP3    H112258   3.558   6.317   1.654
 4098TIP3    H212259   3.494   6.183   1.681
 4099TIP3   OH212260   3.402   6.246   0.609
 4099TIP3    H112261   3.389   6.156   0.580
 4099TIP3    H212262   3.467   6.281   0.548
 4100TIP3   OH212263   2.062   3.679   0.876
 4100TIP3    H112264   2.147   3.706   0.841
 4100TIP3    H212265   2.001   3.747   0.848
 4101TIP3   OH212266   2.778   0.065   1.625
 4101TIP3    H112267   2.744   0.121   1.695
 4101TIP3    H212268   2.811  -0.012   1.670
 4102TIP3   OH212269   6.893   0.337   1.137
 4102TIP3    H112270   6.963   0.378   1.087
 4102TIP3    H212271   6.812   0.372   1.099
 4103TIP3   OH212272   4.852   3.378   1.125
 4103TIP3    H112273   4.797   3.346   1.197
 4103TIP3    H212274   4.935   3.331   1.135
 4104TIP3   OH212275   6.405   1.435   5.046
 4104TIP3    H112276   6.346   1.459   4.975
 4104TIP3    H212277   6.469   1.506   5.050
 4105TIP3   OH212278   7.016   5.797   3.307
 4105TIP3    H112279   7.085   5.739   3.339
 4105TIP3    H212280   7.000   5.768   3.217
 4106TIP3   OH212281   0.115   0.970   0.906
 4106TIP3    H112282   0.029   0.989   0.944
 4106TIP3    H212283   0.115   1.014   0.821
 4107TIP3   OH212284   5.943   5.226   5.182
 4107TIP3    H112285   6.002   5.293   5.214
 4107TIP3    H212286   5.989   5.187   5.107
 4108TIP3   OH212287   6.040   3.062   4.345
 4108TIP3    H112288   6.066   3.140   4.296
 4108TIP3    H212289   5.974   3.020   4.290
 4109TIP3   OH212290   5.202   1.402   2.568
 4109TIP3    H112291   5.195   1.496   2.557
 4109TIP3    H212292   5.159   1.384   2.651
 4110TIP3   OH212293   6.116   6.247   4.965
 4110TIP3    H112294   6.144   6.337   4.984
 4110TIP3    H212295   6.132   6.236   4.872
 4111TIP3   OH212296   1.485   1.674   1.817
 4111TIP3    H112297   1.395   1.641   1.823
 4111TIP3    H212298   1.474   1.767   1.797
 4112TIP3   OH212299   2.291   3.465   1.011
 4112TIP3    H112300   2.332   3.552   1.006
 4112TIP3    H212301   2.228   3.472   1.083
 4113TIP3   OH212302   5.573   5.312   3.664
 4113TIP3    H112303   5.643   5.274   3.611
 4113TIP3    H212304   5.496   5.309   3.607
 4114TIP3   OH212305   1.679   1.756   4.010
 4114TIP3    H112306   1.716   1.746   3.922
 4114TIP3    H212307   1.622   1.681   4.020
 4115TIP3   OH212308   3.250   6.158   4.218
 4115TIP3    H112309   3.338   6.120   4.228
 4115TIP3    H212310   3.266   6.250   4.196
 4116TIP3   OH212311   1.933   6.036   1.753
 4116TIP3    H112312   1.840   6.016   1.762
 4116TIP3    H212313   1.978   5.955   1.777
 4117TIP3   OH212314   1.397   4.300   5.518
 4117TIP3    H112315   1.360   4.387   5.531
 4117TIP3    H212316   1.478   4.315   5.470
 4118TIP3   OH212317   4.999   4.501   1.709
 4118TIP3    H112318   4.995   4.578   1.765
 4118TIP3    H212319   4.953   4.433   1.758
 4119TIP3   OH212320   4.798   6.183   1.211
 4119TIP3    H112321   4.798   6.162   1.117
 4119TIP3    H212322   4.715   6.149   1.243
 4120TIP3   OH212323   2.081   0.255   3.568
 4120TIP3    H112324   2.142   0.315   3.612
 4120TIP3    H212325   2.137   0.193   3.522
 4121TIP3   OH212326   2.523   2.443   2.088
 4121TIP3    H112327   2.432   2.459   2.115
 4121TIP3    H212328   2.552   2.526   2.050
 4122TIP3   OH212329   2.228   4.575   2.525
 4122TIP3    H112330   2.191   4.663   2.525
 4122TIP3    H212331   2.321   4.588   2.506
 4123TIP3   OH212332   5.153   6.166   1.682
 4123TIP3    H112333   5.205   6.171   1.601
 4123TIP3    H212334   5.217   6.181   1.752
 4124TIP3   OH212335   2.246   1.059   1.901
 4124TIP3    H112336   2.203   1.084   1.983
 4124TIP3    H212337   2.320   1.005   1.929
 4125TIP3   OH212338   0.597   1.767   4.314
 4125TIP3    H112339   0.507   1.778   4.345
 4125TIP3    H212340   0.650   1.769   4.394
 4126TIP3   OH212341   3.129   5.501   0.693
 4126TIP3    H112342   3.178   5.477   0.771
 4126TIP3    H212343   3.038   5.480   0.715
 4127TIP3   OH212344   6.417   4.420   2.711
 4127TIP3    H112345   6.469   4.340   2.697
 4127TIP3    H212346   6.464   4.467   2.779
 4128TIP3   OH212347   6.960   1.996   0.057
 4128TIP3    H112348   6.898   2.041   0.000
 4128TIP3    H212349   6.976   2.056   0.129
 4129TIP3   OH212350   2.843   5.254   3.929
 4129TIP3    H112351   2.846   5.205   4.011
 4129TIP3    H212352   2.769   5.313   3.939
 4130TIP3   OH212353   4.944   4.300   4.866
 4130TIP3    H112354   4.861   4.263   4.898
 4130TIP3    H212355   5.007   4.228   4.873
 4131TIP3   OH212356   2.308   6.054   2.602
 4131TIP3    H112357   2.273   5.966   2.614
 4131TIP3    H212358   2.247   6.097   2.541
 4132TIP3   OH212359   1.973   5.054   4.829
 4132TIP3    H112360   1.941   4.965   4.845
 4132TIP3    H212361   2.068   5.046   4.832
 4133TIP3   OH212362   3.592   4.190   0.947
 4133TIP3    H112363   3.566   4.152   0.863
 4133TIP3    H212364   3.664   4.135   0.977
 4134TIP3   OH212365   3.220   5.449   0.957
 4134TIP3    H112366   3.251   5.532   0.993
 4134TIP3    H212367   3.292   5.388   0.973
 4135TIP3   OH212368   2.924   6.442   4.158
 4135TIP3    H112369   2.966   6.496   4.226
 4135TIP3    H212370   2.833   6.433   4.187
 4136TIP3   OH212371   5.888   0.627   2.015
 4136TIP3    H112372   5.900   0.541   2.053
 4136TIP3    H212373   5.828   0.672   2.075
 4137TIP3   OH212374   1.894   0.011   2.849
 4137TIP3    H112375   1.828  -0.010   2.916
 4137TIP3    H212376   1.842   0.043   2.775
 4138TIP3   OH212377   6.599   2.002   5.595
 4138TIP3    H112378   6.509   1.981   5.618
 4138TIP3    H212379   6.601   2.000   5.500
 4139TIP3   OH212380   3.029   0.837   0.047
 4139TIP3    H112381   3.000   0.884  -0.032
 4139TIP3    H212382   2.949   0.797   0.082
 4140TIP3   OH212383   1.075   5.011   2.267
 4140TIP3    H112384   1.106   5.079   2.327
 4140TIP3    H212385   1.150   4.953   2.256
 4141TIP3   OH212386   2.310   6.406   3.389
 4141TIP3    H112387   2.282   6.382   3.477
 4141TIP3    H212388   2.375   6.340   3.365
 4142TIP3   OH212389   3.135   2.169   1.954
 4142TIP3    H112390   3.057   2.218   1.977
 4142TIP3    H212391   3.134   2.093   2.012
 4143TIP3   OH212392   4.070   1.950   4.047
 4143TIP3    H112393   4.054   2.021   4.109
 4143TIP3    H212394   3.984   1.915   4.026
 4144TIP3   OH212395   6.064   5.011   2.929
 4144TIP3    H112396   6.125   4.978   2.995
 4144TIP3    H212397   5.997   4.943   2.922
 4145TIP3   OH212398   5.317   4.926   5.691
 4145TIP3    H112399   5.303   5.011   5.732
 4145TIP3    H212400   5.286   4.863   5.756
 4146TIP3   OH212401   6.312   2.517   5.321
 4146TIP3    H112402   6.288   2.548   5.408
 4146TIP3    H212403   6.401   2.483   5.331
 4147TIP3   OH212404   5.315   1.064   3.781
 4147TIP3    H112405   5.248   0.996   3.782
 4147TIP3    H212406   5.365   1.050   3.862
 4148TIP3   OH212407   1.085   0.039   1.475
 4148TIP3    H112408   1.007   0.082   1.510
 4148TIP3    H212409   1.147   0.111   1.461
 4149TIP3   OH212410   1.807   2.445   5.139
 4149TIP3    H112411   1.898   2.466   5.118
 4149TIP3    H212412   1.807   2.424   5.232
 4150TIP3   OH212413   3.746   0.414   4.929
 4150TIP3    H112414   3.654   0.441   4.931
 4150TIP3    H212415   3.792   0.480   4.980
 4151TIP3   OH212416   6.844   6.817   1.522
 4151TIP3    H112417   6.867   6.734   1.564
 4151TIP3    H212418   6.855   6.800   1.428
 4152TIP3   OH212419   6.336   4.498   0.720
 4152TIP3    H112420   6.330   4.410   0.683
 4152TIP3    H212421   6.352   4.555   0.645
 4153TIP3   OH212422   6.157   6.044   0.467
 4153TIP3    H112423   6.226   6.107   0.449
 4153TIP3    H212424   6.174   5.971   0.407
 4154TIP3   OH212425   3.456   0.397   5.160
 4154TIP3    H112426   3.365   0.374   5.181
 4154TIP3    H212427   3.486   0.446   5.237
 4155TIP3   OH212428   4.545   0.660   0.346
 4155TIP3    H112429   4.504   0.652   0.432
 4155TIP3    H212430   4.638   0.677   0.365
 4156TIP3   OH212431   3.778   4.376   4.358
 4156TIP3    H112432   3.699   4.415   4.319
 4156TIP3    H212433   3.817   4.448   4.408
 4157TIP3   OH212434   5.744   3.777   2.678
 4157TIP3    H112435   5.757   3.807   2.768
 4157TIP3    H212436   5.757   3.856   2.625
 4158TIP3   OH212437   2.326   4.920   2.731
 4158TIP3    H112438   2.281   5.003   2.717
 4158TIP3    H212439   2.270   4.872   2.791
 4159TIP3   OH212440   4.142   3.524   1.394
 4159TIP3    H112441   4.122   3.588   1.463
 4159TIP3    H212442   4.089   3.552   1.320
 4160TIP3   OH212443   1.512   0.082   1.488
 4160TIP3    H112444   1.591   0.128   1.517
 4160TIP3    H212445   1.442   0.147   1.493
 4161TIP3   OH212446   0.810   4.602   5.193
 4161TIP3    H112447   0.827   4.691   5.164
 4161TIP3    H212448   0.743   4.569   5.132
 4162TIP3   OH212449   4.328   3.285   3.274
 4162TIP3    H112450   4.283   3.311   3.194
 4162TIP3    H212451   4.288   3.202   3.299
 4163TIP3   OH212452   5.328   1.888   5.403
 4163TIP3    H112453   5.353   1.828   5.333
 4163TIP3    H212454   5.346   1.975   5.367
 4164TIP3   OH212455   3.082   2.364   0.212
 4164TIP3    H112456   3.033   2.318   0.281
 4164TIP3    H212457   3.090   2.454   0.244
 4165TIP3   OH212458   3.517   6.791   2.358
 4165TIP3    H112459   3.522   6.739   2.278
 4165TIP3    H212460   3.513   6.882   2.327
 4166TIP3   OH212461   6.988   5.955   0.426
 4166TIP3    H112462   6.949   5.899   0.494
 4166TIP3    H212463   7.060   6.000   0.471
 4167TIP3   OH212464   2.908   6.243   4.858
 4167TIP3    H112465   2.868   6.308   4.916
 4167TIP3    H212466   2.835   6.213   4.803
 4168TIP3   OH212467   1.332   1.164   2.797
 4168TIP3    H112468   1.298   1.245   2.758
 4168TIP3    H212469   1.404   1.193   2.854
 4169TIP3   OH212470   0.060   1.804   1.134
 4169TIP3    H112471   0.053   1.733   1.071
 4169TIP3    H212472  -0.029   1.840   1.140
 4170TIP3   OH212473   6.050   2.599   5.265
 4170TIP3    H112474   6.116   2.588   5.334
 4170TIP3    H212475   6.074   2.680   5.221
 4171TIP3   OH212476   5.368   0.298   2.944
 4171TIP3    H112477   5.358   0.368   3.009
 4171TIP3    H212478   5.418   0.230   2.989
 4172TIP3   OH212479   0.732   1.452   0.827
 4172TIP3    H112480   0.714   1.415   0.741
 4172TIP3    H212481   0.652   1.501   0.849
 4173TIP3   OH212482   7.035   0.611   3.100
 4173TIP3    H112483   7.098   0.663   3.151
 4173TIP3    H212484   7.083   0.531   3.078
 4174TIP3   OH212485   3.384   1.345   4.180
 4174TIP3    H112486   3.382   1.283   4.106
 4174TIP3    H212487   3.472   1.382   4.177
 4175TIP3   OH212488   6.062   1.157   2.701
 4175TIP3    H112489   6.151   1.122   2.706
 4175TIP3    H212490   6.029   1.124   2.617
 4176TIP3   OH212491   4.523   6.686   1.702
 4176TIP3    H112492   4.545   6.595   1.721
 4176TIP3    H212493   4.607   6.729   1.690
 4177TIP3   OH212494   6.001   6.403   1.977
 4177TIP3    H112495   5.951   6.447   1.909
 4177TIP3    H212496   5.953   6.323   1.995
 4178TIP3   OH212497   5.691   3.719   2.262
 4178TIP3    H112498   5.767   3.765   2.226
 4178TIP3    H212499   5.728   3.654   2.321
 4179TIP3   OH212500   7.121   3.842   0.517
 4179TIP3    H112501   7.072   3.799   0.447
 4179TIP3    H212502   7.195   3.884   0.474
 4180TIP3   OH212503   6.104   4.190   0.276
 4180TIP3    H112504   6.076   4.281   0.263
 4180TIP3    H212505   6.191   4.186   0.236
 4181TIP3   OH212506   5.058   0.176   4.196
 4181TIP3    H112507   5.068   0.247   4.258
 4181TIP3    H212508   4.971   0.140   4.214
 4182TIP3   OH212509   0.963   5.281   1.390
 4182TIP3    H112510   1.037   5.266   1.331
 4182TIP3    H212511   0.961   5.375   1.403
 4183TIP3   OH212512   0.760   2.224   5.106
 4183TIP3    H112513   0.721   2.254   5.188
 4183TIP3    H212514   0.840   2.179   5.133
 4184TIP3   OH212515   5.221   3.221   3.023
 4184TIP3    H112516   5.309   3.192   3.047
 4184TIP3    H212517   5.209   3.191   2.933
 4185TIP3   OH212518   5.628   2.907   3.073
 4185TIP3    H112519   5.681   2.906   2.993
 4185TIP3    H212520   5.575   2.828   3.068
 4186TIP3   OH212521   1.270   6.274   0.032
 4186TIP3    H112522   1.343   6.269   0.093
 4186TIP3    H212523   1.192   6.268   0.087
 4187TIP3   OH212524   7.136   3.308   2.418
 4187TIP3    H112525   7.112   3.324   2.327
 4187TIP3    H212526   7.166   3.218   2.420
 4188TIP3   OH212527   6.787   5.255   2.939
 4188TIP3    H112528   6.759   5.198   2.867
 4188TIP3    H212529   6.839   5.199   2.995
 4189TIP3   OH212530   4.625   4.997   1.417
 4189TIP3    H112531   4.616   4.967   1.326
 4189TIP3    H212532   4.709   4.961   1.445
 4190TIP3   OH212533   6.475   2.195   2.928
 4190TIP3    H112534   6.523   2.227   3.004
 4190TIP3    H212535   6.392   2.163   2.964
 4191TIP3   OH212536   5.032   2.216   1.036
 4191TIP3    H112537   4.969   2.283   1.009
 4191TIP3    H212538   5.030   2.151   0.966
 4192TIP3   OH212539   2.282   5.045   1.385
 4192TIP3    H112540   2.320   5.041   1.473
 4192TIP3    H212541   2.188   5.050   1.400
 4193TIP3   OH212542   0.243   5.966   0.152
 4193TIP3    H112543   0.243   5.951   0.057
 4193TIP3    H212544   0.162   5.925   0.182
 4194TIP3   OH212545   0.124   2.689   3.418
 4194TIP3    H112546   0.062   2.708   3.488
 4194TIP3    H212547   0.115   2.763   3.358
 4195TIP3   OH212548   3.356   3.867   3.345
 4195TIP3    H112549   3.441   3.847   3.384
 4195TIP3    H212550   3.320   3.936   3.401
 4196TIP3   OH212551   0.372   1.245   4.205
 4196TIP3    H112552   0.312   1.171   4.199
 4196TIP3    H212553   0.317   1.317   4.235
 4197TIP3   OH212554   6.876   1.863   5.713
 4197TIP3    H112555   6.885   1.871   5.808
 4197TIP3    H212556   6.787   1.895   5.695
 4198TIP3   OH212557   6.928   4.737   4.956
 4198TIP3    H112558   6.988   4.700   4.891
 4198TIP3    H212559   6.924   4.830   4.936
 4199TIP3   OH212560   5.885   1.031  -0.038
 4199TIP3    H112561   5.831   1.093  -0.087
 4199TIP3    H212562   5.937   1.086   0.021
 4200TIP3   OH212563   2.760   3.148   1.395
 4200TIP3    H112564   2.836   3.203   1.378
 4200TIP3    H212565   2.753   3.091   1.318
 4201TIP3   OH212566   6.391   4.702   5.828
 4201TIP3    H112567   6.468   4.692   5.884
 4201TIP3    H212568   6.326   4.642   5.866
 4202TIP3   OH212569   1.252   2.436   5.464
 4202TIP3    H112570   1.314   2.365   5.445
 4202TIP3    H212571   1.210   2.409   5.546
 4203TIP3   OH212572   6.886   3.921   1.452
 4203TIP3    H112573   6.809   3.894   1.403
 4203TIP3    H212574   6.957   3.867   1.418
 4204TIP3   OH212575   1.212   0.420   4.280
 4204TIP3    H112576   1.211   0.408   4.185
 4204TIP3    H212577   1.303   0.442   4.300
 4205TIP3   OH212578   0.469   2.882   0.795
 4205TIP3    H112579   0.415   2.869   0.873
 4205TIP3    H212580   0.407   2.888   0.723
 4206TIP3   OH212581   3.328   3.146   5.045
 4206TIP3    H112582   3.341   3.108   4.959
 4206TIP3    H212583   3.410   3.192   5.064
 4207TIP3   OH212584   2.717   5.616   2.082
 4207TIP3    H112585   2.797   5.661   2.109
 4207TIP3    H212586   2.731   5.525   2.107
 4208TIP3   OH212587   2.753   1.470   5.744
 4208TIP3    H112588   2.808   1.539   5.782
 4208TIP3    H212589   2.671   1.476   5.793
 4209TIP3   OH212590   3.235   2.812   0.008
 4209TIP3    H112591   3.189   2.731   0.027
 4209TIP3    H212592   3.318   2.784  -0.031
 4210TIP3   OH212593   3.191   4.437   5.155
 4210TIP3    H112594   3.106   4.404   5.182
 4210TIP3    H212595   3.171   4.505   5.091
 4211TIP3   OH212596   5.847   3.966   4.242
 4211TIP3    H112597   5.852   3.985   4.335
 4211TIP3    H212598   5.759   3.994   4.216
 4212TIP3   OH212599   3.906   3.485   3.467
 4212TIP3    H112600   3.890   3.479   3.373
 4212TIP3    H212601   3.961   3.562   3.478
 4213TIP3   OH212602   2.058   2.681   2.971
 4213TIP3    H112603   2.019   2.768   2.960
 4213TIP3    H212604   2.047   2.640   2.886
 4214TIP3   OH212605   5.097   4.015   0.178
 4214TIP3    H112606   5.169   3.967   0.137
 4214TIP3    H212607   5.024   3.953   0.178
 4215TIP3   OH212608   6.876   4.268   0.354
 4215TIP3    H112609   6.816   4.320   0.407
 4215TIP3    H212610   6.958   4.317   0.355
 4216TIP3   OH212611   0.553   5.873   5.054
 4216TIP3    H112612   0.489   5.943   5.038
 4216TIP3    H212613   0.635   5.919   5.071
 4217TIP3   OH212614   2.923   3.858   1.091
 4217TIP3    H112615   2.856   3.882   1.028
 4217TIP3    H212616   2.915   3.763   1.100
 4218TIP3   OH212617   4.068   6.408   4.057
 4218TIP3    H112618   4.116   6.410   4.140
 4218TIP3    H212619   3.978   6.387   4.082
 4219TIP3   OH212620   5.996   5.741   3.563
 4219TIP3    H112621   5.982   5.649   3.588
 4219TIP3    H212622   6.080   5.765   3.602
 4220TIP3   OH212623   7.218   6.063   0.582
 4220TIP3    H112624   7.169   6.101   0.655
 4220TIP3    H212625   7.284   6.129   0.560
 4221TIP3   OH212626   2.460   1.626   3.217
 4221TIP3    H112627   2.531   1.566   3.194
 4221TIP3    H212628   2.381   1.572   3.214
 4222TIP3   OH212629   1.335   0.868   5.114
 4222TIP3    H112630   1.322   0.875   5.208
 4222TIP3    H212631   1.429   0.874   5.102
 4223TIP3   OH212632   5.919   6.685   4.085
 4223TIP3    H112633   5.927   6.732   4.168
 4223TIP3    H212634   5.830   6.704   4.055
 4224TIP3   OH212635   4.601   1.757   4.963
 4224TIP3    H112636   4.618   1.698   5.036
 4224TIP3    H212637   4.579   1.699   4.890
 4225TIP3   OH212638   4.444   2.991   4.414
 4225TIP3    H112639   4.387   2.925   4.455
 4225TIP3    H212640   4.419   2.990   4.321
 4226TIP3   OH212641   4.990   5.401   4.863
 4226TIP3    H112642   4.977   5.310   4.888
 4226TIP3    H212643   5.019   5.397   4.772
 4227TIP3   OH212644   3.765   0.492   0.516
 4227TIP3    H112645   3.808   0.575   0.536
 4227TIP3    H212646   3.814   0.457   0.442
 4228TIP3   OH212647   1.118   3.521   1.022
 4228TIP3    H112648   1.175   3.550   0.950
 4228TIP3    H212649   1.030   3.545   0.995
 4229TIP3   OH212650   1.753   5.586   1.047
 4229TIP3    H112651   1.792   5.500   1.065
 4229TIP3    H212652   1.788   5.643   1.115
 4230TIP3   OH212653   0.817   4.528   0.862
 4230TIP3    H112654   0.806   4.438   0.831
 4230TIP3    H212655   0.783   4.526   0.952
 4231TIP3   OH212656   5.800   1.075   3.383
 4231TIP3    H112657   5.855   1.152   3.389
 4231TIP3    H212658   5.785   1.049   3.474
 4232TIP3   OH212659   2.093   5.304   5.376
 4232TIP3    H112660   2.016   5.334   5.329
 4232TIP3    H212661   2.128   5.233   5.323
 4233TIP3   OH212662   0.663   3.911   5.263
 4233TIP3    H112663   0.631   3.941   5.178
 4233TIP3    H212664   0.635   3.820   5.269
 4234TIP3   OH212665   4.928   6.164   3.456
 4234TIP3    H112666   5.020   6.155   3.485
 4234TIP3    H212667   4.898   6.073   3.447
 4235TIP3   OH212668   4.850   3.660   2.554
 4235TIP3    H112669   4.784   3.658   2.623
 4235TIP3    H212670   4.805   3.624   2.477
 4236TIP3   OH212671   4.482   5.999   0.992
 4236TIP3    H112672   4.430   5.924   0.963
 4236TIP3    H212673   4.457   6.070   0.933
 4237TIP3   OH212674   5.314   2.067   1.660
 4237TIP3    H112675   5.313   2.084   1.566
 4237TIP3    H212676   5.322   1.972   1.667
 4238TIP3   OH212677   6.628   4.383   3.462
 4238TIP3    H112678   6.627   4.321   3.389
 4238TIP3    H212679   6.684   4.342   3.527
 4239TIP3   OH212680   1.000   3.106   2.534
 4239TIP3    H112681   0.949   3.099   2.614
 4239TIP3    H212682   1.020   3.015   2.510
 4240TIP3   OH212683   3.365   2.241   5.109
 4240TIP3    H112684   3.447   2.243   5.059
 4240TIP3    H212685   3.392   2.225   5.199
 4241TIP3   OH212686   6.432   5.549   2.852
 4241TIP3    H112687   6.359   5.512   2.902
 4241TIP3    H212688   6.431   5.500   2.769
 4242TIP3   OH212689   5.676   6.121   1.669
 4242TIP3    H112690   5.767   6.134   1.696
 4242TIP3    H212691   5.676   6.036   1.624
 4243TIP3   OH212692   4.607   0.501   1.299
 4243TIP3    H112693   4.589   0.464   1.385
 4243TIP3    H212694   4.703   0.510   1.296
 4244TIP3   OH212695   6.049   4.455   3.430
 4244TIP3    H112696   6.070   4.505   3.508
 4244TIP3    H212697   6.119   4.475   3.368
 4245TIP3   OH212698   6.332   2.518   4.667
 4245TIP3    H112699   6.410   2.538   4.614
 4245TIP3    H212700   6.319   2.595   4.722
 4246TIP3   OH212701   3.628   5.903   4.093
 4246TIP3    H112702   3.554   5.849   4.064
 4246TIP3    H212703   3.589   5.987   4.118
 4247TIP3   OH212704   4.427   2.037   2.844
 4247TIP3    H112705   4.373   2.104   2.803
 4247TIP3    H212706   4.510   2.080   2.863
 4248TIP3   OH212707   2.420   6.179   1.584
 4248TIP3    H112708   2.454   6.198   1.497
 4248TIP3    H212709   2.489   6.128   1.627
 4249TIP3   OH212710   4.416   0.881   0.194
 4249TIP3    H112711   4.510   0.874   0.211
 4249TIP3    H212712   4.387   0.791   0.179
 4250TIP3   OH212713   7.047   2.135   0.916
 4250TIP3    H112714   7.053   2.117   0.822
 4250TIP3    H212715   7.069   2.052   0.958
 4251TIP3   OH212716   4.361   3.271   3.625
 4251TIP3    H112717   4.267   3.267   3.609
 4251TIP3    H212718   4.384   3.362   3.608
 4252TIP3   OH212719   4.167   3.075   3.319
 4252TIP3    H112720   4.126   3.014   3.380
 4252TIP3    H212721   4.093   3.122   3.279
 4253TIP3   OH212722   0.457   5.641   2.567
 4253TIP3    H112723   0.380   5.682   2.527
 4253TIP3    H212724   0.443   5.547   2.555
 4254TIP3   OH212725   3.362   5.247   0.470
 4254TIP3    H112726   3.292   5.313   0.464
 4254TIP3    H212727   3.317   5.167   0.498
 4255TIP3   OH212728   4.214   4.436   2.806
 4255TIP3    H112729   4.307   4.415   2.802
 4255TIP3    H212730   4.190   4.456   2.715
 4256TIP3   OH212731   0.051   1.632   5.868
 4256TIP3    H112732  -0.006   1.681   5.927
 4256TIP3    H212733   0.003   1.551   5.851
 4257TIP3   OH212734   3.024   3.258   1.418
 4257TIP3    H112735   3.003   3.283   1.508
 4257TIP3    H212736   3.110   3.217   1.423
 4258TIP3   OH212737   3.199   0.257   2.383
 4258TIP3    H112738   3.114   0.260   2.426
 4258TIP3    H212739   3.219   0.348   2.362
 4259TIP3   OH212740   3.060   1.378   2.018
 4259TIP3    H112741   3.151   1.348   2.019
 4259TIP3    H212742   3.062   1.462   2.063
 4260TIP3   OH212743   6.063   6.507   2.997
 4260TIP3    H112744   6.001   6.577   2.974
 4260TIP3    H212745   6.131   6.552   3.048
 4261TIP3   OH212746   2.593   2.367   0.992
 4261TIP3    H112747   2.500   2.389   0.981
 4261TIP3    H212748   2.625   2.353   0.903
 4262TIP3   OH212749   6.137   5.494   0.464
 4262TIP3    H112750   6.126   5.585   0.437
 4262TIP3    H212751   6.231   5.478   0.460
 4263TIP3   OH212752   2.161   1.050   0.805
 4263TIP3    H112753   2.241   1.100   0.822
 4263TIP3    H212754   2.141   1.069   0.713
 4264TIP3   OH212755   2.746   4.960   5.775
 4264TIP3    H112756   2.652   4.956   5.792
 4264TIP3    H212757   2.754   4.962   5.680
 4265TIP3   OH212758   0.639   2.727   4.961
 4265TIP3    H112759   0.699   2.656   4.985
 4265TIP3    H212760   0.553   2.696   4.992
 4266TIP3   OH212761   6.017   1.911   3.302
 4266TIP3    H112762   5.964   1.835   3.324
 4266TIP3    H212763   6.031   1.955   3.386
 4267TIP3   OH212764   6.504   4.075   3.588
 4267TIP3    H112765   6.571   4.135   3.622
 4267TIP3    H212766   6.552   4.017   3.530
 4268TIP3   OH212767   1.782   0.396   0.966
 4268TIP3    H112768   1.802   0.363   1.054
 4268TIP3    H212769   1.844   0.467   0.952
 4269TIP3   OH212770   4.851   1.451   1.491
 4269TIP3    H112771   4.824   1.451   1.583
 4269TIP3    H212772   4.835   1.541   1.462
 4270TIP3   OH212773   2.082   1.431   0.300
 4270TIP3    H112774   2.146   1.502   0.300
 4270TIP3    H212775   2.081   1.400   0.209
 4271TIP3   OH212776   6.957   5.778   5.430
 4271TIP3    H112777   6.981   5.692   5.462
 4271TIP3    H212778   7.000   5.785   5.345
 4272TIP3   OH212779   5.849   4.152   0.697
 4272TIP3    H112780   5.919   4.203   0.657
 4272TIP3    H212781   5.837   4.077   0.638
 4273TIP3   OH212782   4.306   0.467   3.902
 4273TIP3    H112783   4.213   0.484   3.889
 4273TIP3    H212784   4.336   0.539   3.959
 4274TIP3   OH212785   4.521   3.260   0.679
 4274TIP3    H112786   4.582   3.328   0.709
 4274TIP3    H212787   4.539   3.185   0.736
 4275TIP3   OH212788   0.688   5.122   0.735
 4275TIP3    H112789   0.670   5.201   0.786
 4275TIP3    H212790   0.756   5.076   0.785
 4276TIP3   OH212791   4.848   6.225   0.328
 4276TIP3    H112792   4.895   6.147   0.298
 4276TIP3    H212793   4.909   6.297   0.313
 4277TIP3   OH212794   6.844   6.832   3.890
 4277TIP3    H112795   6.804   6.822   3.804
 4277TIP3    H212796   6.938   6.829   3.874
 4278TIP3   OH212797   0.313   3.434   0.273
 4278TIP3    H112798   0.292   3.344   0.249
 4278TIP3    H212799   0.315   3.480   0.189
 4279TIP3   OH212800   2.554   4.949   5.012
 4279TIP3    H112801   2.488   4.941   4.944
 4279TIP3    H212802   2.542   5.038   5.046
 4280TIP3   OH212803   1.744   5.549   3.601
 4280TIP3    H112804   1.777   5.487   3.665
 4280TIP3    H212805   1.817   5.560   3.539
 4281TIP3   OH212806   3.769   2.231   1.345
 4281TIP3    H112807   3.814   2.154   1.379
 4281TIP3    H212808   3.691   2.240   1.401
 4282TIP3   OH212809   1.371   2.661   3.477
 4282TIP3    H112810   1.406   2.687   3.391
 4282TIP3    H212811   1.444   2.672   3.537
 4283TIP3   OH212812   1.427   4.963   0.558
 4283TIP3    H112813   1.481   5.022   0.611
 4283TIP3    H212814   1.380   4.910   0.623
 4284TIP3   OH212815   2.237   4.208   1.987
 4284TIP3    H112816   2.257   4.155   2.064
 4284TIP3    H212817   2.221   4.145   1.917
 4285TIP3   OH212818   2.818   2.863   2.006
 4285TIP3    H112819   2.788   2.789   2.058
 4285TIP3    H212820   2.871   2.824   1.937
 4286TIP3   OH212821   5.996   1.227   3.488
 4286TIP3    H112822   6.050   1.285   3.435
 4286TIP3    H212823   6.050   1.209   3.566
 4287TIP3   OH212824   1.549   5.164   5.642
 4287TIP3    H112825   1.578   5.212   5.565
 4287TIP3    H212826   1.485   5.101   5.608
 4288TIP3   OH212827   4.960   2.727   0.733
 4288TIP3    H112828   4.942   2.751   0.643
 4288TIP3    H212829   5.055   2.734   0.742
 4289TIP3   OH212830   3.630   0.045   2.454
 4289TIP3    H112831   3.685  -0.022   2.495
 4289TIP3    H212832   3.605   0.007   2.370
 4290TIP3   OH212833   4.437   1.908   1.209
 4290TIP3    H112834   4.365   1.848   1.231
 4290TIP3    H212835   4.444   1.967   1.284
 4291TIP3   OH212836   3.170   1.305   5.296
 4291TIP3    H112837   3.254   1.290   5.339
 4291TIP3    H212838   3.167   1.240   5.226
 4292TIP3   OH212839   2.075   1.494   5.526
 4292TIP3    H112840   2.156   1.502   5.475
 4292TIP3    H212841   2.007   1.479   5.460
 4293TIP3   OH212842   7.097   3.443   1.556
 4293TIP3    H112843   7.060   3.461   1.470
 4293TIP3    H212844   7.080   3.522   1.607
 4294TIP3   OH212845   5.395   1.755   2.233
 4294TIP3    H112846   5.396   1.661   2.254
 4294TIP3    H212847   5.450   1.795   2.301
 4295TIP3   OH212848   3.929   1.496   2.440
 4295TIP3    H112849   3.891   1.557   2.376
 4295TIP3    H212850   4.023   1.514   2.437
 4296TIP3   OH212851   6.386   1.401   4.679
 4296TIP3    H112852   6.322   1.379   4.611
 4296TIP3    H212853   6.334   1.444   4.747
 4297TIP3   OH212854   6.812   4.963   0.537
 4297TIP3    H112855   6.884   5.007   0.492
 4297TIP3    H212856   6.818   4.872   0.509
 4298TIP3   OH212857   1.502   2.959   1.391
 4298TIP3    H112858   1.563   3.025   1.359
 4298TIP3    H212859   1.453   3.004   1.460
 4299TIP3   OH212860   2.200   0.860   1.698
 4299TIP3    H112861   2.192   0.942   1.747
 4299TIP3    H212862   2.256   0.805   1.753
 4300TIP3   OH212863   4.279   4.530   0.578
 4300TIP3    H112864   4.224   4.591   0.627
 4300TIP3    H212865   4.366   4.571   0.578
 4301TIP3   OH212866   4.241   5.882   3.437
 4301TIP3    H112867   4.157   5.838   3.423
 4301TIP3    H212868   4.248   5.891   3.532
 4302TIP3   OH212869   6.608   4.644   0.530
 4302TIP3    H112870   6.519   4.657   0.497
 4302TIP3    H212871   6.664   4.659   0.454
 4303TIP3   OH212872   7.053   5.981   4.368
 4303TIP3    H112873   7.029   5.900   4.323
 4303TIP3    H212874   6.971   6.015   4.402
 4304TIP3   OH212875   5.268   5.921   3.997
 4304TIP3    H112876   5.254   5.834   3.960
 4304TIP3    H212877   5.226   5.918   4.082
 4305TIP3   OH212878   3.443   2.010   1.072
 4305TIP3    H112879   3.535   2.003   1.097
 4305TIP3    H212880   3.416   1.919   1.058
 4306TIP3   OH212881   2.738   4.337   4.779
 4306TIP3    H112882   2.647   4.346   4.805
 4306TIP3    H212883   2.784   4.314   4.859
 4307TIP3   OH212884   4.221   3.030   4.999
 4307TIP3    H112885   4.265   2.948   5.021
 4307TIP3    H212886   4.291   3.096   4.999
 4308TIP3   OH212887   1.931   1.141   0.120
 4308TIP3    H112888   1.980   1.223   0.129
 4308TIP3    H212889   1.981   1.089   0.057
 4309TIP3   OH212890   5.997   6.546   0.413
 4309TIP3    H112891   5.947   6.627   0.407
 4309TIP3    H212892   6.010   6.532   0.507
 4310TIP3   OH212893   5.772   6.644   0.176
 4310TIP3    H112894   5.786   6.590   0.098
 4310TIP3    H212895   5.721   6.718   0.144
 4311TIP3   OH212896   0.521   5.996   5.373
 4311TIP3    H112897   0.494   5.905   5.376
 4311TIP3    H212898   0.480   6.031   5.294
 4312TIP3   OH212899   4.762   2.994   1.354
 4312TIP3    H112900   4.666   2.995   1.362
 4312TIP3    H212901   4.778   2.973   1.262
 4313TIP3   OH212902   6.361   6.627   3.358
 4313TIP3    H112903   6.330   6.566   3.425
 4313TIP3    H212904   6.385   6.706   3.407
 4314TIP3   OH212905   3.720   3.372   0.195
 4314TIP3    H112906   3.757   3.458   0.178
 4314TIP3    H212907   3.694   3.340   0.109
 4315TIP3   OH212908   6.272   2.917   3.803
 4315TIP3    H112909   6.262   2.993   3.747
 4315TIP3    H212910   6.211   2.932   3.875
 4316TIP3   OH212911   6.371   2.514   2.770
 4316TIP3    H112912   6.420   2.592   2.744
 4316TIP3    H212913   6.400   2.496   2.860
 4317TIP3   OH212914   6.161   5.464   3.884
 4317TIP3    H112915   6.235   5.407   3.865
 4317TIP3    H212916   6.191   5.518   3.957
 4318TIP3   OH212917   0.094   0.135   4.804
 4318TIP3    H112918   0.073   0.228   4.813
 4318TIP3    H212919   0.146   0.130   4.723
 4319TIP3   OH212920   3.909   6.526   1.077
 4319TIP3    H112921   3.869   6.449   1.116
 4319TIP3    H212922   3.849   6.552   1.007
 4320TIP3   OH212923   6.918   3.337   5.069
 4320TIP3    H112924   6.994   3.378   5.111
 4320TIP3    H212925   6.948   3.318   4.980
 4321TIP3   OH212926   3.336   4.227   3.910
 4321TIP3    H112927   3.402   4.296   3.913
 4321TIP3    H212928   3.306   4.227   3.819
 4322TIP3   OH212929   6.890   1.993   1.692
 4322TIP3    H112930   6.849   1.936   1.757
 4322TIP3    H212931   6.817   2.033   1.645
 4323TIP3   OH212932   4.711   3.503   5.358
 4323TIP3    H112933   4.754   3.588   5.368
 4323TIP3    H212934   4.709   3.467   5.447
 4324TIP3   OH212935   0.688   3.444   4.253
 4324TIP3    H112936   0.660   3.409   4.338
 4324TIP3    H212937   0.728   3.528   4.274
 4325TIP3   OH212938   3.916   2.586   0.694
 4325TIP3    H112939   3.895   2.505   0.742
 4325TIP3    H212940   3.841   2.599   0.636
 4326TIP3   OH212941   2.648   3.330   5.041
 4326TIP3    H112942   2.629   3.349   4.949
 4326TIP3    H212943   2.666   3.416   5.080
 4327TIP3   OH212944   4.010   3.085   4.124
 4327TIP3    H112945   4.075   3.025   4.086
 4327TIP3    H212946   3.953   3.108   4.050
 4328TIP3   OH212947   1.753   3.980   0.665
 4328TIP3    H112948   1.782   3.914   0.728
 4328TIP3    H212949   1.798   3.956   0.584
 4329TIP3   OH212950   3.788   0.111   3.548
 4329TIP3    H112951   3.823   0.067   3.471
 4329TIP3    H212952   3.825   0.199   3.544
 4330TIP3   OH212953   2.310   5.774   3.599
 4330TIP3    H112954   2.387   5.792   3.546
 4330TIP3    H212955   2.304   5.679   3.603
 4331TIP3   OH212956   5.799   3.216   5.753
 4331TIP3    H112957   5.768   3.127   5.733
 4331TIP3    H212958   5.853   3.205   5.831
 4332TIP3   OH212959   5.052   3.319   1.924
 4332TIP3    H112960   4.958   3.322   1.941
 4332TIP3    H212961   5.079   3.231   1.949
 4333TIP3   OH212962   6.110   1.619   0.030
 4333TIP3    H112963   6.139   1.552  -0.031
 4333TIP3    H212964   6.185   1.679   0.037
 4334TIP3   OH212965   5.783   3.184   1.743
 4334TIP3    H112966   5.739   3.206   1.661
 4334TIP3    H212967   5.727   3.222   1.811
 4335TIP3   OH212968   4.673   2.713   5.145
 4335TIP3    H112969   4.584   2.743   5.128
 4335TIP3    H212970   4.690   2.651   5.074
 4336TIP3   OH212971   4.508   1.348   0.761
 4336TIP3    H112972   4.543   1.320   0.846
 4336TIP3    H212973   4.467   1.270   0.725
 4337TIP3   OH212974   5.811   0.728   2.856
 4337TIP3    H112975   5.852   0.786   2.920
 4337TIP3    H212976   5.721   0.717   2.886
 4338TIP3   OH212977   2.918   4.324   3.605
 4338TIP3    H112978   2.945   4.265   3.675
 4338TIP3    H212979   2.864   4.270   3.548
 4339TIP3   OH212980   4.415   3.932   4.093
 4339TIP3    H112981   4.486   3.992   4.071
 4339TIP3    H212982   4.336   3.985   4.083
 4340TIP3   OH212983   5.474   1.046   4.413
 4340TIP3    H112984   5.414   0.979   4.444
 4340TIP3    H212985   5.517   1.079   4.493
 4341TIP3   OH212986   3.975   6.018   4.415
 4341TIP3    H112987   4.049   5.959   4.431
 4341TIP3    H212988   3.900   5.975   4.456
 4342TIP3   OH212989   2.713   0.419   2.040
 4342TIP3    H112990   2.750   0.406   2.127
 4342TIP3    H212991   2.783   0.393   1.980
 4343TIP3   OH212992   3.946   3.928   1.507
 4343TIP3    H112993   3.945   4.024   1.515
 4343TIP3    H212994   3.855   3.906   1.487
 4344TIP3   OH212995   0.265   1.109   3.640
 4344TIP3    H112996   0.229   1.156   3.564
 4344TIP3    H212997   0.304   1.030   3.602
 4345TIP3   OH212998   4.041   0.149   0.127
 4345TIP3    H112999   4.118   0.168   0.072
 4345TIP3    H213000   4.052   0.058   0.154
 4346TIP3   OH213001   2.723   0.574   3.639
 4346TIP3    H113002   2.697   0.599   3.728
 4346TIP3    H213003   2.787   0.640   3.613
 4347TIP3   OH213004   1.355   6.072   2.599
 4347TIP3    H113005   1.270   6.039   2.571
 4347TIP3    H213006   1.343   6.094   2.691
 4348TIP3   OH213007   2.138   5.109   0.503
 4348TIP3    H113008   2.208   5.111   0.568
 4348TIP3    H213009   2.141   5.196   0.462
 4349TIP3   OH213010   1.500   2.144   2.475
 4349TIP3    H113011   1.459   2.154   2.561
 4349TIP3    H213012   1.504   2.233   2.440
 4350TIP3   OH213013   6.676   6.089   4.078
 4350TIP3    H113014   6.662   6.000   4.112
 4350TIP3    H213015   6.765   6.087   4.044
 4351TIP3   OH213016   0.242  -0.030   0.894
 4351TIP3    H113017   0.285  -0.001   0.974
 4351TIP3    H213018   0.149  -0.016   0.910
 4352TIP3   OH213019   5.355   3.665   1.925
 4352TIP3    H113020   5.332   3.621   2.007
 4352TIP3    H213021   5.313   3.612   1.857
 4353TIP3   OH213022   7.202   0.553   1.624
 4353TIP3    H113023   7.223   0.488   1.556
 4353TIP3    H213024   7.113   0.530   1.651
 4354TIP3   OH213025   1.990   5.051   1.771
 4354TIP3    H113026   2.085   5.059   1.761
 4354TIP3    H213027   1.964   5.124   1.826
 4355TIP3   OH213028   5.301   2.510   5.308
 4355TIP3    H113029   5.396   2.507   5.298
 4355TIP3    H213030   5.287   2.487   5.400
 4356TIP3   OH213031   0.412   3.035   2.925
 4356TIP3    H113032   0.336   2.979   2.909
 4356TIP3    H213033   0.479   3.001   2.866
 4357TIP3   OH213034   5.637   4.334   4.887
 4357TIP3    H113035   5.585   4.255   4.869
 4357TIP3    H213036   5.712   4.327   4.828
 4358TIP3   OH213037   3.133   5.714   3.725
 4358TIP3    H113038   3.228   5.722   3.726
 4358TIP3    H213039   3.112   5.688   3.635
 4359TIP3   OH213040   4.952   3.761   0.163
 4359TIP3    H113041   4.863   3.760   0.130
 4359TIP3    H213042   4.981   3.670   0.158
 4360TIP3   OH213043   1.339   6.136   0.926
 4360TIP3    H113044   1.256   6.107   0.964
 4360TIP3    H213045   1.403   6.070   0.954
 4361TIP3   OH213046   6.414   2.282   3.728
 4361TIP3    H113047   6.386   2.358   3.779
 4361TIP3    H213048   6.346   2.216   3.745
 4362TIP3   OH213049   4.128   2.075   4.724
 4362TIP3    H113050   4.112   1.981   4.736
 4362TIP3    H213051   4.045   2.116   4.746
 4363TIP3   OH213052   1.574   5.571   4.466
 4363TIP3    H113053   1.638   5.589   4.398
 4363TIP3    H213054   1.504   5.524   4.421
 4364TIP3   OH213055   6.678   2.469   3.427
 4364TIP3    H113056   6.719   2.464   3.513
 4364TIP3    H213057   6.596   2.421   3.436
 4365TIP3   OH213058   1.754   5.348   3.311
 4365TIP3    H113059   1.797   5.431   3.334
 4365TIP3    H213060   1.741   5.304   3.395
 4366TIP3   OH213061   5.541   0.391   4.596
 4366TIP3    H113062   5.516   0.429   4.512
 4366TIP3    H213063   5.622   0.343   4.577
 4367TIP3   OH213064   2.275   0.839   0.982
 4367TIP3    H113065   2.253   0.910   0.922
 4367TIP3    H213066   2.334   0.878   1.046
 4368TIP3   OH213067   4.598   1.982   4.200
 4368TIP3    H113068   4.570   1.891   4.194
 4368TIP3    H213069   4.586   2.017   4.111
 4369TIP3   OH213070   5.848   0.585   3.739
 4369TIP3    H113071   5.870   0.564   3.830
 4369TIP3    H213072   5.931   0.607   3.698
 4370TIP3   OH213073   2.892   3.142   4.697
 4370TIP3    H113074   2.977   3.098   4.694
 4370TIP3    H213075   2.830   3.072   4.721
 4371TIP3   OH213076   1.197   6.162   2.041
 4371TIP3    H113077   1.230   6.192   2.125
 4371TIP3    H213078   1.267   6.181   1.979
 4372TIP3   OH213079   0.968   1.212   1.033
 4372TIP3    H113080   0.948   1.173   1.119
 4372TIP3    H213081   0.979   1.137   0.975
 4373TIP3   OH213082   2.721   1.093   4.853
 4373TIP3    H113083   2.665   1.063   4.924
 4373TIP3    H213084   2.787   1.148   4.896
 4374TIP3   OH213085   4.122   2.227   4.208
 4374TIP3    H113086   4.156   2.159   4.266
 4374TIP3    H213087   4.069   2.283   4.265
 4375TIP3   OH213088   6.516   5.158   0.912
 4375TIP3    H113089   6.506   5.109   0.993
 4375TIP3    H213090   6.577   5.228   0.933
 4376TIP3   OH213091   3.999   0.550   4.634
 4376TIP3    H113092   4.013   0.598   4.552
 4376TIP3    H213093   4.041   0.465   4.619
 4377TIP3   OH213094   1.415   1.938   1.782
 4377TIP3    H113095   1.469   2.013   1.760
 4377TIP3    H213096   1.387   1.954   1.872
 4378TIP3   OH213097   7.043   4.427   3.321
 4378TIP3    H113098   7.032   4.336   3.347
 4378TIP3    H213099   7.066   4.473   3.401
 4379TIP3   OH213100   4.831   5.554   1.296
 4379TIP3    H113101   4.746   5.572   1.336
 4379TIP3    H213102   4.887   5.625   1.327
 4380TIP3   OH213103   2.968   2.202   4.510
 4380TIP3    H113104   2.936   2.272   4.453
 4380TIP3    H213105   2.906   2.200   4.583
 4381TIP3   OH213106   0.522   5.603   4.446
 4381TIP3    H113107   0.561   5.689   4.429
 4381TIP3    H213108   0.596   5.543   4.451
 4382TIP3   OH213109   5.162   0.962   5.140
 4382TIP3    H113110   5.098   0.893   5.129
 4382TIP3    H213111   5.245   0.924   5.109
 4383TIP3   OH213112   3.979   4.738   4.923
 4383TIP3    H113113   3.969   4.650   4.959
 4383TIP3    H213114   4.072   4.746   4.903
 4384TIP3   OH213115   0.200   4.473   5.151
 4384TIP3    H113116   0.290   4.441   5.143
 4384TIP3    H213117   0.204   4.540   5.219
 4385TIP3   OH213118   3.898   2.066   4.394
 4385TIP3    H113119   3.887   2.085   4.301
 4385TIP3    H213120   3.990   2.085   4.412
 4386TIP3   OH213121   7.127   6.124   1.150
 4386TIP3    H113122   7.152   6.130   1.243
 4386TIP3    H213123   7.103   6.213   1.126
 4387TIP3   OH213124   1.514   5.535   0.928
 4387TIP3    H113125   1.603   5.543   0.963
 4387TIP3    H213126   1.527   5.522   0.834
 4388TIP3   OH213127   1.812   0.413   3.548
 4388TIP3    H113128   1.894   0.368   3.527
 4388TIP3    H213129   1.812   0.421   3.643
 4389TIP3   OH213130   1.482   1.825   0.539
 4389TIP3    H113131   1.459   1.737   0.571
 4389TIP3    H213132   1.418   1.842   0.470
 4390TIP3   OH213133   7.121   6.657   3.655
 4390TIP3    H113134   7.113   6.633   3.747
 4390TIP3    H213135   7.030   6.667   3.626
 4391TIP3   OH213136   3.197   1.852   0.267
 4391TIP3    H113137   3.131   1.817   0.327
 4391TIP3    H213138   3.168   1.942   0.248
 4392TIP3   OH213139   4.871   2.659   5.547
 4392TIP3    H113140   4.934   2.599   5.507
 4392TIP3    H213141   4.835   2.708   5.473
 4393TIP3   OH213142   6.272   6.785   2.176
 4393TIP3    H113143   6.250   6.719   2.110
 4393TIP3    H213144   6.323   6.850   2.128
 4394TIP3   OH213145   1.712   4.411   3.526
 4394TIP3    H113146   1.739   4.498   3.496
 4394TIP3    H213147   1.793   4.360   3.527
 4395TIP3   OH213148   4.877   5.129   4.833
 4395TIP3    H113149   4.851   5.084   4.753
 4395TIP3    H213150   4.961   5.090   4.856
 4396TIP3   OH213151   4.707   4.145   2.153
 4396TIP3    H113152   4.734   4.106   2.071
 4396TIP3    H213153   4.628   4.194   2.132
 4397TIP3   OH213154   5.402   2.009   5.165
 4397TIP3    H113155   5.428   1.985   5.076
 4397TIP3    H213156   5.477   2.056   5.201
 4398TIP3   OH213157   3.523   1.102   4.754
 4398TIP3    H113158   3.529   1.007   4.762
 4398TIP3    H213159   3.564   1.121   4.670
 4399TIP3   OH213160   0.120   3.169   0.608
 4399TIP3    H113161   0.036   3.186   0.651
 4399TIP3    H213162   0.104   3.186   0.515
 4400TIP3   OH213163   0.618   2.611   4.532
 4400TIP3    H113164   0.615   2.555   4.610
 4400TIP3    H213165   0.711   2.627   4.517
 4401TIP3   OH213166   1.361   4.313   1.275
 4401TIP3    H113167   1.400   4.242   1.225
 4401TIP3    H213168   1.395   4.302   1.364
 4402TIP3   OH213169   0.062   1.493   5.257
 4402TIP3    H113170  -0.022   1.526   5.289
 4402TIP3    H213171   0.047   1.473   5.164
 4403TIP3   OH213172   5.453   2.303   1.043
 4403TIP3    H113173   5.423   2.370   0.982
 4403TIP3    H213174   5.372   2.258   1.070
 4404TIP3   OH213175   6.937   1.526   4.661
 4404TIP3    H113176   6.963   1.462   4.727
 4404TIP3    H213177   6.856   1.491   4.624
 4405TIP3   OH213178   1.031   6.437   2.600
 4405TIP3    H113179   0.993   6.389   2.527
 4405TIP3    H213180   1.126   6.433   2.585
 4406TIP3   OH213181   2.815   4.471   2.268
 4406TIP3    H113182   2.724   4.485   2.295
 4406TIP3    H213183   2.807   4.419   2.187
 4407TIP3   OH213184   6.986   4.576   0.732
 4407TIP3    H113185   6.972   4.615   0.646
 4407TIP3    H213186   6.898   4.552   0.762
 4408TIP3   OH213187   6.260   2.230   4.072
 4408TIP3    H113188   6.341   2.208   4.119
 4408TIP3    H213189   6.269   2.187   3.987
 4409TIP3   OH213190   1.872   6.687   0.566
 4409TIP3    H113191   1.836   6.603   0.539
 4409TIP3    H213192   1.796   6.745   0.571
 4410TIP3   OH213193   6.474   5.637   4.278
 4410TIP3    H113194   6.552   5.680   4.312
 4410TIP3    H213195   6.506   5.557   4.236
 4411TIP3   OH213196   1.798   5.296   1.018
 4411TIP3    H113197   1.870   5.264   1.072
 4411TIP3    H213198   1.836   5.306   0.931
 4412TIP3   OH213199   4.174   1.825   1.653
 4412TIP3    H113200   4.119   1.752   1.624
 4412TIP3    H213201   4.205   1.799   1.740
 4413TIP3   OH213202   5.733   3.101   3.227
 4413TIP3    H113203   5.767   3.106   3.138
 4413TIP3    H213204   5.776   3.174   3.273
 4414TIP3   OH213205   3.463   5.500   3.422
 4414TIP3    H113206   3.480   5.428   3.361
 4414TIP3    H213207   3.381   5.475   3.465
 4415TIP3   OH213208   4.077   0.808   1.412
 4415TIP3    H113209   4.080   0.903   1.427
 4415TIP3    H213210   4.169   0.782   1.409
 4416TIP3   OH213211   6.460   3.865   1.139
 4416TIP3    H113212   6.400   3.886   1.211
 4416TIP3    H213213   6.404   3.862   1.062
 4417TIP3   OH213214   3.934   1.332   5.763
 4417TIP3    H113215   4.009   1.298   5.715
 4417TIP3    H213216   3.858   1.295   5.718
 4418TIP3   OH213217   1.789   4.629   3.868
 4418TIP3    H113218   1.874   4.669   3.851
 4418TIP3    H213219   1.797   4.593   3.956
 4419TIP3   OH213220   4.302   6.592   5.649
 4419TIP3    H113221   4.251   6.644   5.710
 4419TIP3    H213222   4.348   6.528   5.704
 4420TIP3   OH213223   3.710   1.935   1.102
 4420TIP3    H113224   3.718   1.930   1.007
 4420TIP3    H213225   3.800   1.944   1.134
 4421TIP3   OH213226   2.375   4.293   0.905
 4421TIP3    H113227   2.460   4.272   0.866
 4421TIP3    H213228   2.332   4.348   0.840
 4422TIP3   OH213229   6.182   3.683   3.627
 4422TIP3    H113230   6.261   3.700   3.678
 4422TIP3    H213231   6.127   3.760   3.641
 4423TIP3   OH213232   6.015   0.331   2.756
 4423TIP3    H113233   6.101   0.326   2.797
 4423TIP3    H213234   5.969   0.253   2.787
 4424TIP3   OH213235   6.565   3.995   4.779
 4424TIP3    H113236   6.529   4.057   4.715
 4424TIP3    H213237   6.629   4.047   4.829
 4425TIP3   OH213238   0.060   2.549   2.618
 4425TIP3    H113239   0.097   2.632   2.586
 4425TIP3    H213240   0.133   2.506   2.663
 4426TIP3   OH213241   4.856   2.492   1.637
 4426TIP3    H113242   4.892   2.428   1.576
 4426TIP3    H213243   4.856   2.575   1.589
 4427TIP3   OH213244   5.900   0.687   5.032
 4427TIP3    H113245   5.930   0.602   5.000
 4427TIP3    H213246   5.886   0.674   5.126
 4428TIP3   OH213247   5.285   4.892   4.183
 4428TIP3    H113248   5.292   4.946   4.104
 4428TIP3    H213249   5.342   4.817   4.166
 4429TIP3   OH213250   2.604   3.951   0.932
 4429TIP3    H113251   2.661   4.021   0.900
 4429TIP3    H213252   2.610   3.957   1.028
 4430TIP3   OH213253   0.312   6.357   5.517
 4430TIP3    H113254   0.342   6.428   5.460
 4430TIP3    H213255   0.391   6.325   5.560
 4431TIP3   OH213256   5.807   6.013   5.319
 4431TIP3    H113257   5.780   5.938   5.372
 4431TIP3    H213258   5.897   5.991   5.292
 4432TIP3   OH213259   3.228   5.626   4.388
 4432TIP3    H113260   3.280   5.706   4.382
 4432TIP3    H213261   3.221   5.594   4.298
 4433TIP3   OH213262   0.509   5.027   5.308
 4433TIP3    H113263   0.449   4.996   5.376
 4433TIP3    H213264   0.458   5.090   5.257
 4434TIP3   OH213265   4.409   6.150   1.905
 4434TIP3    H113266   4.474   6.177   1.969
 4434TIP3    H213267   4.461   6.128   1.826
 4435TIP3   OH213268   1.977   1.591   3.154
 4435TIP3    H113269   1.889   1.562   3.131
 4435TIP3    H213270   1.965   1.645   3.232
 4436TIP3   OH213271   5.259   4.208   0.732
 4436TIP3    H113272   5.184   4.256   0.698
 4436TIP3    H213273   5.288   4.154   0.658
 4437TIP3   OH213274   2.951   4.436   4.601
 4437TIP3    H113275   2.890   4.456   4.672
 4437TIP3    H213276   3.031   4.407   4.646
 4438TIP3   OH213277   5.790   5.024   1.282
 4438TIP3    H113278   5.739   4.987   1.210
 4438TIP3    H213279   5.798   4.953   1.346
 4439TIP3   OH213280   5.370   2.864   2.796
 4439TIP3    H113281   5.428   2.807   2.745
 4439TIP3    H213282   5.426   2.935   2.827
 4440TIP3   OH213283   2.656   6.194   2.154
 4440TIP3    H113284   2.746   6.165   2.136
 4440TIP3    H213285   2.642   6.172   2.246
 4441TIP3   OH213286   0.276   4.520   5.761
 4441TIP3    H113287   0.193   4.502   5.715
 4441TIP3    H213288   0.257   4.595   5.817
 4442TIP3   OH213289   0.199   4.574   1.233
 4442TIP3    H113290   0.126   4.513   1.224
 4442TIP3    H213291   0.272   4.521   1.262
 4443TIP3   OH213292   0.095   5.310   4.421
 4443TIP3    H113293   0.094   5.396   4.378
 4443TIP3    H213294   0.165   5.317   4.487
 4444TIP3   OH213295   5.706   4.484   3.800
 4444TIP3    H113296   5.717   4.493   3.894
 4444TIP3    H213297   5.613   4.501   3.785
 4445TIP3   OH213298   3.853   2.590   1.924
 4445TIP3    H113299   3.852   2.513   1.866
 4445TIP3    H213300   3.832   2.555   2.010
 4446TIP3   OH213301   3.300   2.979   2.410
 4446TIP3    H113302   3.311   3.046   2.342
 4446TIP3    H213303   3.347   3.014   2.486
 4447TIP3   OH213304   6.165   3.914   3.358
 4447TIP3    H113305   6.145   3.994   3.310
 4447TIP3    H213306   6.236   3.872   3.308
 4448TIP3   OH213307   2.713   4.126   2.363
 4448TIP3    H113308   2.784   4.190   2.363
 4448TIP3    H213309   2.749   4.050   2.407
 4449TIP3   OH213310   4.810   1.055   1.832
 4449TIP3    H113311   4.799   0.961   1.821
 4449TIP3    H213312   4.881   1.064   1.896
 4450TIP3   OH213313   4.544   1.675   3.520
 4450TIP3    H113314   4.602   1.708   3.589
 4450TIP3    H213315   4.456   1.687   3.556
 4451TIP3   OH213316   6.563   1.203   4.646
 4451TIP3    H113317   6.582   1.173   4.734
 4451TIP3    H213318   6.504   1.277   4.657
 4452TIP3   OH213319   4.928   4.240   5.699
 4452TIP3    H113320   4.930   4.336   5.691
 4452TIP3    H213321   4.840   4.220   5.731
 4453TIP3   OH213322   5.083   4.542   2.327
 4453TIP3    H113323   5.089   4.447   2.337
 4453TIP3    H213324   5.109   4.559   2.237
 4454TIP3   OH213325   1.891   1.442   3.593
 4454TIP3    H113326   1.804   1.473   3.565
 4454TIP3    H213327   1.932   1.410   3.513
 4455TIP3   OH213328   6.475   1.321   5.598
 4455TIP3    H113329   6.478   1.375   5.676
 4455TIP3    H213330   6.458   1.382   5.527
 4456TIP3   OH213331   3.893   6.684   5.572
 4456TIP3    H113332   3.972   6.650   5.529
 4456TIP3    H213333   3.865   6.757   5.516
 4457TIP3   OH213334   1.870   5.334   5.230
 4457TIP3    H113335   1.847   5.427   5.226
 4457TIP3    H213336   1.887   5.309   5.140
 4458TIP3   OH213337   4.635   6.041   2.106
 4458TIP3    H113338   4.701   6.046   2.176
 4458TIP3    H213339   4.615   5.947   2.098
 4459TIP3   OH213340   0.894   0.952   4.488
 4459TIP3    H113341   0.872   1.019   4.422
 4459TIP3    H213342   0.989   0.953   4.492
 4460TIP3   OH213343   1.805   2.552   1.598
 4460TIP3    H113344   1.885   2.516   1.559
 4460TIP3    H213345   1.765   2.603   1.527
 4461TIP3   OH213346   0.810   3.581   5.260
 4461TIP3    H113347   0.848   3.652   5.208
 4461TIP3    H213348   0.716   3.598   5.259
 4462TIP3   OH213349   0.846   4.540   3.843
 4462TIP3    H113350   0.756   4.570   3.838
 4462TIP3    H213351   0.844   4.452   3.804
 4463TIP3   OH213352   1.406   2.620   0.195
 4463TIP3    H113353   1.433   2.619   0.104
 4463TIP3    H213354   1.378   2.530   0.214
 4464TIP3   OH213355   1.133   6.043   4.814
 4464TIP3    H113356   1.207   5.987   4.791
 4464TIP3    H213357   1.149   6.125   4.766
 4465TIP3   OH213358   5.059   2.535   4.035
 4465TIP3    H113359   5.069   2.501   4.123
 4465TIP3    H213360   5.137   2.589   4.021
 4466TIP3   OH213361   5.636   1.631   5.198
 4466TIP3    H113362   5.723   1.645   5.233
 4466TIP3    H213363   5.580   1.692   5.246
 4467TIP3   OH213364   5.017   4.312   0.993
 4467TIP3    H113365   5.071   4.233   0.992
 4467TIP3    H213366   5.069   4.376   1.041
 4468TIP3   OH213367   0.419   5.966   4.135
 4468TIP3    H113368   0.493   5.941   4.190
 4468TIP3    H213369   0.432   5.917   4.054
 4469TIP3   OH213370   4.308   0.425   5.830
 4469TIP3    H113371   4.229   0.434   5.883
 4469TIP3    H213372   4.380   0.439   5.891
 4470TIP3   OH213373   4.063   0.455   4.934
 4470TIP3    H113374   4.158   0.453   4.942
 4470TIP3    H213375   4.047   0.501   4.851
 4471TIP3   OH213376   4.439   1.748   0.607
 4471TIP3    H113377   4.490   1.823   0.635
 4471TIP3    H213378   4.496   1.673   0.621
 4472TIP3   OH213379   5.613   0.407   3.996
 4472TIP3    H113380   5.545   0.362   4.046
 4472TIP3    H213381   5.693   0.393   4.047
 4473TIP3   OH213382   0.906   0.239   2.496
 4473TIP3    H113383   0.917   0.224   2.402
 4473TIP3    H213384   0.994   0.230   2.533
 4474TIP3   OH213385   0.364   5.635   2.003
 4474TIP3    H113386   0.300   5.670   2.065
 4474TIP3    H213387   0.349   5.684   1.923
 4475TIP3   OH213388   4.213   5.881   4.514
 4475TIP3    H113389   4.250   5.797   4.541
 4475TIP3    H213390   4.281   5.920   4.458
 4476TIP3   OH213391   4.516   2.893   3.013
 4476TIP3    H113392   4.608   2.893   2.987
 4476TIP3    H213393   4.518   2.912   3.107
 4477TIP3   OH213394   6.969   6.242   1.722
 4477TIP3    H113395   6.988   6.298   1.797
 4477TIP3    H213396   6.901   6.289   1.673
 4478TIP3   OH213397   2.954   3.771   4.897
 4478TIP3    H113398   2.945   3.695   4.841
 4478TIP3    H213399   2.939   3.846   4.839
 4479TIP3   OH213400   4.196   2.865   2.284
 4479TIP3    H113401   4.143   2.803   2.335
 4479TIP3    H213402   4.186   2.837   2.194
 4480TIP3   OH213403   3.985   4.440   1.308
 4480TIP3    H113404   3.978   4.481   1.222
 4480TIP3    H213405   3.900   4.454   1.349
 4481TIP3   OH213406   6.646   1.504   5.391
 4481TIP3    H113407   6.688   1.446   5.455
 4481TIP3    H213408   6.684   1.590   5.409
 4482TIP3   OH213409   6.050   5.989   5.182
 4482TIP3    H113410   6.072   5.970   5.090
 4482TIP3    H213411   6.117   6.051   5.210
 4483TIP3   OH213412   2.294   4.569   1.096
 4483TIP3    H113413   2.298   4.664   1.081
 4483TIP3    H213414   2.215   4.541   1.050
 4484TIP3   OH213415   6.690   5.729   1.373
 4484TIP3    H113416   6.734   5.662   1.322
 4484TIP3    H213417   6.689   5.806   1.316
 4485TIP3   OH213418   6.674   2.953   1.044
 4485TIP3    H113419   6.617   3.005   0.986
 4485TIP3    H213420   6.750   2.932   0.989
 4486TIP3   OH213421   1.769   1.879   0.469
 4486TIP3    H113422   1.678   1.860   0.488
 4486TIP3    H213423   1.774   1.880   0.374
 4487TIP3   OH213424   0.776   4.667   1.197
 4487TIP3    H113425   0.855   4.646   1.147
 4487TIP3    H213426   0.807   4.721   1.270
 4488TIP3   OH213427   3.613   3.025   0.250
 4488TIP3    H113428   3.694   3.014   0.201
 4488TIP3    H213429   3.626   2.972   0.329
 4489TIP3   OH213430   4.206   2.925   3.980
 4489TIP3    H113431   4.217   2.845   3.929
 4489TIP3    H213432   4.238   2.995   3.923
 4490TIP3   OH213433   4.265   2.419   3.788
 4490TIP3    H113434   4.253   2.350   3.724
 4490TIP3    H213435   4.360   2.430   3.794
 4491TIP3   OH213436   1.265   1.277   0.859
 4491TIP3    H113437   1.255   1.183   0.842
 4491TIP3    H213438   1.330   1.306   0.795
 4492TIP3   OH213439   0.363   2.608   0.239
 4492TIP3    H113440   0.387   2.538   0.299
 4492TIP3    H213441   0.366   2.568   0.152
 4493TIP3   OH213442   2.369   5.811   2.417
 4493TIP3    H113443   2.344   5.772   2.501
 4493TIP3    H213444   2.299   5.874   2.399
 4494TIP3   OH213445   0.378   0.463   0.150
 4494TIP3    H113446   0.465   0.490   0.120
 4494TIP3    H213447   0.319   0.495   0.082
 4495TIP3   OH213448   2.294   2.257   1.785
 4495TIP3    H113449   2.296   2.342   1.740
 4495TIP3    H213450   2.226   2.266   1.851
 4496TIP3   OH213451   1.672   0.212   3.734
 4496TIP3    H113452   1.636   0.290   3.691
 4496TIP3    H213453   1.628   0.208   3.818
 4497TIP3   OH213454   4.179   4.180   1.648
 4497TIP3    H113455   4.193   4.249   1.583
 4497TIP3    H213456   4.086   4.187   1.670
 4498TIP3   OH213457   1.552   6.635   5.370
 4498TIP3    H113458   1.526   6.637   5.277
 4498TIP3    H213459   1.469   6.632   5.417
 4499TIP3   OH213460   2.244   4.229   3.963
 4499TIP3    H113461   2.266   4.249   3.872
 4499TIP3    H213462   2.251   4.313   4.008
 4500TIP3   OH213463   7.200   5.986   5.050
 4500TIP3    H113464   7.111   6.018   5.061
 4500TIP3    H213465   7.255   6.050   5.095
 4501TIP3   OH213466   1.377   0.570   5.329
 4501TIP3    H113467   1.457   0.585   5.278
 4501TIP3    H213468   1.325   0.510   5.275
 4502TIP3   OH213469   3.629   6.548   3.090
 4502TIP3    H113470   3.574   6.624   3.073
 4502TIP3    H213471   3.689   6.577   3.159
 4503TIP3   OH213472   0.602   0.566   2.940
 4503TIP3    H113473   0.674   0.617   2.904
 4503TIP3    H213474   0.583   0.500   2.873
 4504TIP3   OH213475   0.891   2.707   2.099
 4504TIP3    H113476   0.862   2.749   2.018
 4504TIP3    H213477   0.875   2.614   2.085
 4505TIP3   OH213478   1.712   2.719   4.841
 4505TIP3    H113479   1.649   2.739   4.911
 4505TIP3    H213480   1.687   2.777   4.769
 4506TIP3   OH213481   0.293   1.258   5.012
 4506TIP3    H113482   0.315   1.318   5.083
 4506TIP3    H213483   0.299   1.310   4.932
 4507TIP3   OH213484   6.264   6.460   1.391
 4507TIP3    H113485   6.234   6.550   1.384
 4507TIP3    H213486   6.248   6.423   1.304
 4508TIP3   OH213487   1.131   5.993   2.467
 4508TIP3    H113488   1.100   5.965   2.554
 4508TIP3    H213489   1.127   5.913   2.414
 4509TIP3   OH213490   6.367   4.212   5.666
 4509TIP3    H113491   6.392   4.283   5.608
 4509TIP3    H213492   6.271   4.211   5.663
 4510TIP3   OH213493   4.500   0.991   5.824
 4510TIP3    H113494   4.455   0.997   5.908
 4510TIP3    H213495   4.542   1.076   5.813
 4511TIP3   OH213496   5.175   1.796   1.994
 4511TIP3    H113497   5.218   1.713   2.012
 4511TIP3    H213498   5.242   1.862   2.011
 4512TIP3   OH213499   0.638   5.882   1.911
 4512TIP3    H113500   0.632   5.847   1.999
 4512TIP3    H213501   0.550   5.871   1.874
 4513TIP3   OH213502   5.895   3.273   3.010
 4513TIP3    H113503   5.916   3.365   3.027
 4513TIP3    H213504   5.975   3.237   2.970
 4514TIP3   OH213505   6.544   3.382   5.704
 4514TIP3    H113506   6.477   3.385   5.636
 4514TIP3    H213507   6.506   3.329   5.774
 4515TIP3   OH213508   3.560   5.344   4.782
 4515TIP3    H113509   3.574   5.368   4.690
 4515TIP3    H213510   3.647   5.335   4.819
 4516TIP3   OH213511   4.106   1.467   5.090
 4516TIP3    H113512   4.129   1.375   5.078
 4516TIP3    H213513   4.142   1.489   5.176
 4517TIP3   OH213514   0.682   2.975   4.193
 4517TIP3    H113515   0.732   3.054   4.171
 4517TIP3    H213516   0.591   3.005   4.198
 4518TIP3   OH213517   4.598   6.035   0.121
 4518TIP3    H113518   4.581   5.960   0.064
 4518TIP3    H213519   4.670   6.006   0.176
 4519TIP3   OH213520   1.696   4.661   4.640
 4519TIP3    H113521   1.646   4.715   4.579
 4519TIP3    H213522   1.743   4.725   4.694
 4520TIP3   OH213523   0.499   5.982   1.242
 4520TIP3    H113524   0.463   6.063   1.205
 4520TIP3    H213525   0.432   5.916   1.223
 4521TIP3   OH213526   3.229   6.506   2.741
 4521TIP3    H113527   3.237   6.521   2.836
 4521TIP3    H213528   3.295   6.565   2.703
 4522TIP3   OH213529   4.598   3.303   3.234
 4522TIP3    H113530   4.503   3.290   3.239
 4522TIP3    H213531   4.609   3.372   3.168
 4523TIP3   OH213532   4.494   4.892   5.334
 4523TIP3    H113533   4.409   4.869   5.372
 4523TIP3    H213534   4.489   4.864   5.243
 4524TIP3   OH213535   6.255   2.119   2.644
 4524TIP3    H113536   6.329   2.176   2.661
 4524TIP3    H213537   6.282   2.065   2.569
 4525TIP3   OH213538   2.130   1.803   4.958
 4525TIP3    H113539   2.190   1.854   4.903
 4525TIP3    H213540   2.185   1.768   5.027
 4526TIP3   OH213541   3.551   0.649   3.080
 4526TIP3    H113542   3.637   0.618   3.053
 4526TIP3    H213543   3.490   0.604   3.021
 4527TIP3   OH213544   1.235   1.029   0.768
 4527TIP3    H113545   1.297   0.956   0.776
 4527TIP3    H213546   1.160   1.001   0.822
 4528TIP3   OH213547   4.863   5.950   4.054
 4528TIP3    H113548   4.782   5.899   4.056
 4528TIP3    H213549   4.857   6.007   4.130
 4529TIP3   OH213550   6.414   0.416   0.662
 4529TIP3    H113551   6.382   0.409   0.752
 4529TIP3    H213552   6.345   0.461   0.614
 4530TIP3   OH213553   4.909   2.972   4.143
 4530TIP3    H113554   4.867   2.922   4.213
 4530TIP3    H213555   5.003   2.961   4.159
 4531TIP3   OH213556   4.390   4.291   1.812
 4531TIP3    H113557   4.445   4.351   1.762
 4531TIP3    H213558   4.332   4.252   1.747
 4532TIP3   OH213559   2.221   3.880   3.466
 4532TIP3    H113560   2.207   3.970   3.436
 4532TIP3    H213561   2.307   3.856   3.432
 4533TIP3   OH213562   2.764   1.879   0.341
 4533TIP3    H113563   2.797   1.950   0.285
 4533TIP3    H213564   2.841   1.825   0.359
 4534TIP3   OH213565   1.299   1.612   2.075
 4534TIP3    H113566   1.370   1.622   2.139
 4534TIP3    H213567   1.286   1.699   2.039
 4535TIP3   OH213568   3.135   4.675   1.253
 4535TIP3    H113569   3.172   4.619   1.185
 4535TIP3    H213570   3.061   4.718   1.211
 4536TIP3   OH213571   1.019   5.083   3.565
 4536TIP3    H113572   0.988   5.163   3.607
 4536TIP3    H213573   1.107   5.104   3.535
 4537TIP3   OH213574   5.628   3.616   5.469
 4537TIP3    H113575   5.679   3.629   5.389
 4537TIP3    H213576   5.537   3.613   5.440
 4538TIP3   OH213577   3.431   5.188   3.101
 4538TIP3    H113578   3.482   5.110   3.124
 4538TIP3    H213579   3.494   5.260   3.102
 4539TIP3   OH213580   3.941   2.542   1.017
 4539TIP3    H113581   3.908   2.463   0.974
 4539TIP3    H213582   4.035   2.528   1.026
 4540TIP3   OH213583   1.131   1.284   4.558
 4540TIP3    H113584   1.099   1.261   4.471
 4540TIP3    H213585   1.202   1.346   4.542
 4541TIP3   OH213586   1.787   3.381   0.737
 4541TIP3    H113587   1.838   3.352   0.812
 4541TIP3    H213588   1.826   3.466   0.713
 4542TIP3   OH213589   0.190   6.680   1.348
 4542TIP3    H113590   0.176   6.621   1.274
 4542TIP3    H213591   0.284   6.679   1.362
 4543TIP3   OH213592   3.930   0.257   2.189
 4543TIP3    H113593   3.984   0.316   2.137
 4543TIP3    H213594   3.992   0.197   2.230
 4544TIP3   OH213595   2.560   3.718   4.661
 4544TIP3    H113596   2.642   3.757   4.630
 4544TIP3    H213597   2.521   3.678   4.583
 4545TIP3   OH213598   3.324   1.715   1.395
 4545TIP3    H113599   3.360   1.762   1.470
 4545TIP3    H213600   3.399   1.700   1.337
 4546TIP3   OH213601   5.524   0.198   0.635
 4546TIP3    H113602   5.600   0.211   0.578
 4546TIP3    H213603   5.544   0.118   0.683
 4547TIP3   OH213604   2.495   3.048   2.656
 4547TIP3    H113605   2.485   3.082   2.745
 4547TIP3    H213606   2.533   2.961   2.668
 4548TIP3   OH213607   3.938   1.781   5.758
 4548TIP3    H113608   3.867   1.722   5.732
 4548TIP3    H213609   3.991   1.729   5.818
 4549TIP3   OH213610   6.441   0.623   5.941
 4549TIP3    H113611   6.403   0.699   5.986
 4549TIP3    H213612   6.535   0.630   5.957
 4550TIP3   OH213613   5.995   3.040   1.669
 4550TIP3    H113614   5.922   3.076   1.719
 4550TIP3    H213615   5.986   3.080   1.582
 4551TIP3   OH213616   3.281   6.148   0.837
 4551TIP3    H113617   3.334   6.174   0.762
 4551TIP3    H213618   3.341   6.099   0.893
 4552TIP3   OH213619   6.835   3.190   0.830
 4552TIP3    H113620   6.824   3.098   0.858
 4552TIP3    H213621   6.795   3.193   0.743
 4553TIP3   OH213622   2.947   5.224   1.822
 4553TIP3    H113623   3.012   5.203   1.889
 4553TIP3    H213624   2.980   5.179   1.743
 4554TIP3   OH213625   5.050   4.526   3.090
 4554TIP3    H113626   5.064   4.564   3.003
 4554TIP3    H213627   4.965   4.483   3.085
 4555TIP3   OH213628   1.327   6.534   3.751
 4555TIP3    H113629   1.277   6.476   3.693
 4555TIP3    H213630   1.280   6.532   3.834
 4556TIP3   OH213631   3.798   3.533   3.723
 4556TIP3    H113632   3.703   3.537   3.709
 4556TIP3    H213633   3.834   3.514   3.637
 4557TIP3   OH213634   6.685   1.002   0.569
 4557TIP3    H113635   6.606   0.960   0.534
 4557TIP3    H213636   6.753   0.984   0.503
 4558TIP3   OH213637   1.644   0.255   2.219
 4558TIP3    H113638   1.683   0.273   2.133
 4558TIP3    H213639   1.676   0.325   2.275
 4559TIP3   OH213640   0.469   6.616   5.146
 4559TIP3    H113641   0.542   6.637   5.204
 4559TIP3    H213642   0.506   6.622   5.058
 4560TIP3   OH213643   6.277   5.285   5.284
 4560TIP3    H113644   6.365   5.288   5.247
 4560TIP3    H213645   6.290   5.255   5.374
 4561TIP3   OH213646   0.528   6.663   0.202
 4561TIP3    H113647   0.559   6.620   0.282
 4561TIP3    H213648   0.528   6.593   0.137
 4562TIP3   OH213649   1.658   3.794   0.192
 4562TIP3    H113650   1.705   3.750   0.120
 4562TIP3    H213651   1.654   3.886   0.166
 4563TIP3   OH213652   0.098   2.486   1.816
 4563TIP3    H113653   0.143   2.569   1.799
 4563TIP3    H213654   0.155   2.419   1.778
 4564TIP3   OH213655   3.773   5.917   4.568
 4564TIP3    H113656   3.726   5.834   4.562
 4564TIP3    H213657   3.788   5.929   4.662
 4565TIP3   OH213658   6.902   0.682   1.878
 4565TIP3    H113659   6.809   0.666   1.888
 4565TIP3    H213660   6.932   0.614   1.817
 4566TIP3   OH213661   0.025   5.893   1.099
 4566TIP3    H113662  -0.055   5.846   1.122
 4566TIP3    H213663   0.000   5.985   1.101
 4567TIP3   OH213664   0.622   1.285   5.879
 4567TIP3    H113665   0.662   1.372   5.874
 4567TIP3    H213666   0.685   1.227   5.837
 4568TIP3   OH213667   2.121   4.742   3.697
 4568TIP3    H113668   2.140   4.677   3.629
 4568TIP3    H213669   2.087   4.691   3.770
 4569TIP3   OH213670   4.956   4.090   2.594
 4569TIP3    H113671   5.006   4.028   2.646
 4569TIP3    H213672   4.938   4.043   2.512
 4570TIP3   OH213673   5.963   1.984   4.073
 4570TIP3    H113674   6.029   1.916   4.088
 4570TIP3    H213675   5.985   2.021   3.988
 4571TIP3   OH213676   0.448   4.435   1.794
 4571TIP3    H113677   0.443   4.530   1.783
 4571TIP3    H213678   0.361   4.404   1.771
 4572TIP3   OH213679   1.051   1.684   3.951
 4572TIP3    H113680   1.111   1.645   3.887
 4572TIP3    H213681   0.967   1.688   3.905
 4573TIP3   OH213682   2.059   4.584   3.945
 4573TIP3    H113683   2.144   4.551   3.972
 4573TIP3    H213684   2.016   4.510   3.902
 4574TIP3   OH213685   3.259   0.390   4.061
 4574TIP3    H113686   3.222   0.468   4.021
 4574TIP3    H213687   3.254   0.407   4.155
 4575TIP3   OH213688   0.777   3.159   5.544
 4575TIP3    H113689   0.709   3.106   5.585
 4575TIP3    H213690   0.736   3.195   5.466
 4576TIP3   OH213691   1.300   4.395   1.787
 4576TIP3    H113692   1.217   4.372   1.744
 4576TIP3    H213693   1.287   4.371   1.879
 4577TIP3   OH213694   6.870   0.307   0.815
 4577TIP3    H113695   6.854   0.342   0.902
 4577TIP3    H213696   6.798   0.246   0.799
 4578TIP3   OH213697   1.458   2.829   4.896
 4578TIP3    H113698   1.382   2.817   4.954
 4578TIP3    H213699   1.434   2.784   4.815
 4579TIP3   OH213700   0.869   1.838   2.824
 4579TIP3    H113701   0.957   1.851   2.790
 4579TIP3    H213702   0.855   1.912   2.883
 4580TIP3   OH213703   6.098   4.975   2.295
 4580TIP3    H113704   6.068   4.937   2.378
 4580TIP3    H213705   6.050   5.057   2.288
 4581TIP3   OH213706   5.139   1.627   3.013
 4581TIP3    H113707   5.095   1.627   3.098
 4581TIP3    H213708   5.167   1.717   3.000
 4582TIP3   OH213709   4.247   0.320   2.257
 4582TIP3    H113710   4.214   0.384   2.194
 4582TIP3    H213711   4.214   0.351   2.341
 4583TIP3   OH213712   1.309   2.109   1.335
 4583TIP3    H113713   1.381   2.106   1.273
 4583TIP3    H213714   1.333   2.046   1.403
 4584TIP3   OH213715   5.654   5.991   2.193
 4584TIP3    H113716   5.729   5.931   2.191
 4584TIP3    H213717   5.629   5.995   2.286
 4585TIP3   OH213718   2.853   0.598   4.690
 4585TIP3    H113719   2.813   0.591   4.776
 4585TIP3    H213720   2.889   0.687   4.687
 4586TIP3   OH213721   0.428   5.241   3.796
 4586TIP3    H113722   0.377   5.178   3.745
 4586TIP3    H213723   0.453   5.308   3.732
 4587TIP3   OH213724   1.515   3.025   0.441
 4587TIP3    H113725   1.511   2.962   0.513
 4587TIP3    H213726   1.551   3.104   0.481
 4588TIP3   OH213727   3.689   5.325   3.645
 4588TIP3    H113728   3.649   5.238   3.638
 4588TIP3    H213729   3.632   5.372   3.707
 4589TIP3   OH213730   3.884   2.955   3.291
 4589TIP3    H113731   3.794   2.959   3.324
 4589TIP3    H213732   3.896   3.038   3.244
 4590TIP3   OH213733   2.939   3.560   1.621
 4590TIP3    H113734   2.926   3.485   1.679
 4590TIP3    H213735   3.001   3.617   1.668
 4591TIP3   OH213736   4.637   1.085   0.743
 4591TIP3    H113737   4.701   1.055   0.808
 4591TIP3    H213738   4.552   1.071   0.784
 4592TIP3   OH213739   2.398   3.012   1.109
 4592TIP3    H113740   2.483   2.970   1.120
 4592TIP3    H213741   2.415   3.105   1.123
 4593TIP3   OH213742   5.322   2.320   3.175
 4593TIP3    H113743   5.307   2.246   3.234
 4593TIP3    H213744   5.271   2.298   3.097
 4594TIP3   OH213745   2.529   3.746   3.712
 4594TIP3    H113746   2.465   3.785   3.771
 4594TIP3    H213747   2.522   3.652   3.727
 4595TIP3   OH213748   0.146   2.221   2.386
 4595TIP3    H113749   0.152   2.181   2.473
 4595TIP3    H213750   0.071   2.280   2.392
 4596TIP3   OH213751   6.229   3.581   3.960
 4596TIP3    H113752   6.290   3.633   3.908
 4596TIP3    H213753   6.143   3.598   3.922
 4597TIP3   OH213754   6.003   6.600   5.076
 4597TIP3    H113755   6.030   6.649   5.153
 4597TIP3    H213756   5.918   6.562   5.101
 4598TIP3   OH213757   6.898   2.407   5.710
 4598TIP3    H113758   6.978   2.460   5.721
 4598TIP3    H213759   6.858   2.407   5.797
 4599TIP3   OH213760   5.933   6.449   4.556
 4599TIP3    H113761   5.875   6.373   4.554
 4599TIP3    H213762   5.969   6.453   4.467
 4600TIP3   OH213763   2.931   4.958   3.913
 4600TIP3    H113764   2.955   4.870   3.883
 4600TIP3    H213765   3.012   5.009   3.906
 4601TIP3   OH213766   3.566   2.698   1.958
 4601TIP3    H113767   3.649   2.742   1.977
 4601TIP3    H213768   3.502   2.745   2.012
 4602TIP3   OH213769   6.530   5.021   5.402
 4602TIP3    H113770   6.483   4.951   5.359
 4602TIP3    H213771   6.611   4.980   5.434
 4603TIP3   OH213772   6.869   0.051   0.453
 4603TIP3    H113773   6.834  -0.006   0.384
 4603TIP3    H213774   6.791   0.089   0.493
 4604TIP3   OH213775   2.931   4.701   1.645
 4604TIP3    H113776   2.913   4.608   1.628
 4604TIP3    H213777   2.889   4.747   1.572
 4605TIP3   OH213778   3.441   1.610   5.287
 4605TIP3    H113779   3.428   1.644   5.376
 4605TIP3    H213780   3.386   1.665   5.232
 4606TIP3   OH213781   1.902   0.192   3.136
 4606TIP3    H113782   1.923   0.268   3.191
 4606TIP3    H213783   1.827   0.221   3.084
 4607TIP3   OH213784   2.120   4.649   1.982
 4607TIP3    H113785   2.121   4.662   2.076
 4607TIP3    H213786   2.029   4.631   1.960
 4608TIP3   OH213787   0.667   3.053   1.231
 4608TIP3    H113788   0.579   3.058   1.193
 4608TIP3    H213789   0.704   2.973   1.194
 4609TIP3   OH213790   0.481   4.569   0.586
 4609TIP3    H113791   0.459   4.570   0.493
 4609TIP3    H213792   0.463   4.658   0.616
 4610TIP3   OH213793   1.435   2.244   0.791
 4610TIP3    H113794   1.454   2.190   0.714
 4610TIP3    H213795   1.465   2.332   0.767
 4611TIP3   OH213796   2.529   3.886   4.865
 4611TIP3    H113797   2.493   3.842   4.788
 4611TIP3    H213798   2.461   3.948   4.893
 4612TIP3   OH213799   5.885   5.968   3.329
 4612TIP3    H113800   5.829   5.919   3.389
 4612TIP3    H213801   5.933   6.029   3.384
 4613TIP3   OH213802   3.446   3.414   4.160
 4613TIP3    H113803   3.385   3.485   4.182
 4613TIP3    H213804   3.478   3.383   4.245
 4614TIP3   OH213805   0.571   4.081   3.244
 4614TIP3    H113806   0.584   4.172   3.269
 4614TIP3    H213807   0.551   4.036   3.326
 4615TIP3   OH213808   2.033   4.573   0.966
 4615TIP3    H113809   2.012   4.496   0.913
 4615TIP3    H213810   2.003   4.647   0.912
 4616TIP3   OH213811   4.420   4.269   1.261
 4616TIP3    H113812   4.421   4.232   1.350
 4616TIP3    H213813   4.351   4.221   1.216
 4617TIP3   OH213814   6.904   4.259   3.050
 4617TIP3    H113815   6.885   4.350   3.074
 4617TIP3    H213816   6.937   4.220   3.131
 4618TIP3   OH213817   6.972   1.808   4.646
 4618TIP3    H113818   7.063   1.798   4.617
 4618TIP3    H213819   6.931   1.725   4.623
 4619TIP3   OH213820   4.315   1.087   3.452
 4619TIP3    H113821   4.253   1.064   3.521
 4619TIP3    H213822   4.269   1.154   3.401
 4620TIP3   OH213823   6.837   3.218   3.034
 4620TIP3    H113824   6.906   3.151   3.036
 4620TIP3    H213825   6.759   3.173   3.067
 4621TIP3   OH213826   6.171   2.196   1.354
 4621TIP3    H113827   6.162   2.199   1.449
 4621TIP3    H213828   6.264   2.179   1.339
 4622TIP3   OH213829   5.512   4.476   1.758
 4622TIP3    H113830   5.479   4.432   1.837
 4622TIP3    H213831   5.605   4.454   1.757
 4623TIP3   OH213832   1.222   5.738   3.027
 4623TIP3    H113833   1.278   5.812   3.003
 4623TIP3    H213834   1.257   5.664   2.977
 4624TIP3   OH213835   6.312   2.774   4.864
 4624TIP3    H113836   6.259   2.719   4.922
 4624TIP3    H213837   6.400   2.737   4.869
 4625TIP3   OH213838   2.137   6.222   3.106
 4625TIP3    H113839   2.199   6.294   3.116
 4625TIP3    H213840   2.166   6.157   3.170
 4626TIP3   OH213841   2.280   1.416   4.923
 4626TIP3    H113842   2.285   1.511   4.927
 4626TIP3    H213843   2.360   1.386   4.966
 4627TIP3   OH213844   7.153   0.173   1.559
 4627TIP3    H113845   7.223   0.130   1.608
 4627TIP3    H213846   7.094   0.207   1.626
 4628TIP3   OH213847   1.906   5.023   2.734
 4628TIP3    H113848   1.918   4.929   2.728
 4628TIP3    H213849   1.879   5.039   2.824
 4629TIP3   OH213850   5.247   2.281   2.611
 4629TIP3    H113851   5.332   2.316   2.639
 4629TIP3    H213852   5.229   2.326   2.529
 4630TIP3   OH213853   1.036   6.027   3.110
 4630TIP3    H113854   1.054   5.939   3.144
 4630TIP3    H213855   1.116   6.076   3.126
 4631TIP3   OH213856   5.516   6.093   4.615
 4631TIP3    H113857   5.451   6.159   4.638
 4631TIP3    H213858   5.498   6.020   4.674
 4632TIP3   OH213859   3.723   4.079   1.788
 4632TIP3    H113860   3.797   4.019   1.781
 4632TIP3    H213861   3.667   4.040   1.855
 4633TIP3   OH213862   2.639   5.841   2.411
 4633TIP3    H113863   2.557   5.886   2.430
 4633TIP3    H213864   2.640   5.831   2.316
 4634TIP3   OH213865   4.559   1.214   5.082
 4634TIP3    H113866   4.524   1.293   5.042
 4634TIP3    H213867   4.559   1.149   5.012
 4635TIP3   OH213868   5.100   3.500   2.365
 4635TIP3    H113869   5.147   3.512   2.447
 4635TIP3    H213870   5.106   3.406   2.347
 4636TIP3   OH213871   0.908   3.488   1.940
 4636TIP3    H113872   0.889   3.406   1.895
 4636TIP3    H213873   0.993   3.473   1.981
 4637TIP3   OH213874   3.797   4.820   5.301
 4637TIP3    H113875   3.810   4.742   5.247
 4637TIP3    H213876   3.763   4.886   5.240
 4638TIP3   OH213877   3.118   6.795   2.761
 4638TIP3    H113878   3.157   6.759   2.681
 4638TIP3    H213879   3.141   6.733   2.829
 4639TIP3   OH213880   5.622   1.031   1.206
 4639TIP3    H113881   5.651   1.114   1.245
 4639TIP3    H213882   5.690   1.009   1.142
 4640TIP3   OH213883   6.007   1.364   5.506
 4640TIP3    H113884   6.086   1.313   5.527
 4640TIP3    H213885   5.950   1.302   5.460
 4641TIP3   OH213886   5.197   3.966   3.303
 4641TIP3    H113887   5.285   4.002   3.292
 4641TIP3    H213888   5.200   3.916   3.384
 4642TIP3   OH213889   1.391   3.714   0.318
 4642TIP3    H113890   1.376   3.693   0.410
 4642TIP3    H213891   1.468   3.770   0.318
 4643TIP3   OH213892   5.986   6.158   3.060
 4643TIP3    H113893   5.956   6.216   2.990
 4643TIP3    H213894   5.914   6.097   3.072
 4644TIP3   OH213895   3.615   2.030   4.000
 4644TIP3    H113896   3.568   2.098   3.952
 4644TIP3    H213897   3.559   2.010   4.075
 4645TIP3   OH213898   1.182   2.359   5.742
 4645TIP3    H113899   1.111   2.387   5.799
 4645TIP3    H213900   1.185   2.264   5.752
 4646TIP3   OH213901   0.498   3.477   3.240
 4646TIP3    H113902   0.442   3.537   3.191
 4646TIP3    H213903   0.551   3.433   3.174
 4647TIP3   OH213904   5.010   6.134   2.849
 4647TIP3    H113905   5.045   6.179   2.927
 4647TIP3    H213906   4.949   6.070   2.884
 4648TIP3   OH213907   1.245   1.365   2.641
 4648TIP3    H113908   1.247   1.342   2.548
 4648TIP3    H213909   1.270   1.458   2.643
 4649TIP3   OH213910   1.041   0.630   1.310
 4649TIP3    H113911   1.079   0.633   1.398
 4649TIP3    H213912   1.116   0.637   1.251
 4650TIP3   OH213913   7.052   1.315   0.744
 4650TIP3    H113914   7.036   1.306   0.838
 4650TIP3    H213915   6.965   1.322   0.705
 4651TIP3   OH213916   4.091   2.700   2.786
 4651TIP3    H113917   4.037   2.705   2.864
 4651TIP3    H213918   4.166   2.756   2.805
 4652TIP3   OH213919   6.663   5.069   2.386
 4652TIP3    H113920   6.732   5.110   2.438
 4652TIP3    H213921   6.703   5.056   2.300
 4653TIP3   OH213922   1.676   4.508   0.717
 4653TIP3    H113923   1.693   4.599   0.694
 4653TIP3    H213924   1.753   4.481   0.766
 4654TIP3   OH213925   3.177   5.429   0.440
 4654TIP3    H113926   3.138   5.433   0.527
 4654TIP3    H213927   3.121   5.485   0.386
 4655TIP3   OH213928   4.907   1.849   1.986
 4655TIP3    H113929   5.002   1.836   1.986
 4655TIP3    H213930   4.891   1.912   1.916
 4656TIP3   OH213931   1.424   0.378   1.929
 4656TIP3    H113932   1.454   0.298   1.972
 4656TIP3    H213933   1.430   0.360   1.835
 4657TIP3   OH213934   4.155   1.764   3.867
 4657TIP3    H113935   4.215   1.711   3.920
 4657TIP3    H213936   4.136   1.840   3.922
 4658TIP3   OH213937   1.429   3.488   4.147
 4658TIP3    H113938   1.474   3.483   4.062
 4658TIP3    H213939   1.346   3.531   4.127
 4659TIP3   OH213940   3.051   5.926   2.733
 4659TIP3    H113941   2.992   5.923   2.658
 4659TIP3    H213942   3.104   5.847   2.725
 4660TIP3   OH213943   6.251   3.547   1.543
 4660TIP3    H113944   6.157   3.559   1.557
 4660TIP3    H213945   6.271   3.464   1.586
 4661TIP3   OH213946   0.113   3.379   2.632
 4661TIP3    H113947   0.048   3.403   2.566
 4661TIP3    H213948   0.196   3.415   2.600
 4662TIP3   OH213949   4.023   0.634   1.179
 4662TIP3    H113950   4.045   0.712   1.230
 4662TIP3    H213951   4.102   0.580   1.183
 4663TIP3   OH213952   1.622   0.966   3.095
 4663TIP3    H113953   1.569   1.045   3.081
 4663TIP3    H213954   1.648   0.971   3.187
 4664TIP3   OH213955   1.473   0.659   5.865
 4664TIP3    H113956   1.435   0.747   5.873
 4664TIP3    H213957   1.448   0.630   5.777
 4665TIP3   OH213958   7.050   4.159   4.587
 4665TIP3    H113959   7.049   4.184   4.680
 4665TIP3    H213960   6.958   4.154   4.563
 4666TIP3   OH213961   3.870   5.387   1.450
 4666TIP3    H113962   3.958   5.398   1.415
 4666TIP3    H213963   3.855   5.293   1.448
 4667TIP3   OH213964   0.910   0.220   0.323
 4667TIP3    H113965   0.826   0.228   0.279
 4667TIP3    H213966   0.941   0.310   0.333
 4668TIP3   OH213967   4.944   3.206   3.511
 4668TIP3    H113968   4.908   3.118   3.523
 4668TIP3    H213969   4.868   3.260   3.491
 4669TIP3   OH213970   6.310   5.775   2.627
 4669TIP3    H113971   6.388   5.721   2.612
 4669TIP3    H213972   6.257   5.723   2.688
 4670TIP3   OH213973   7.236   0.156   0.893
 4670TIP3    H113974   7.273   0.206   0.966
 4670TIP3    H213975   7.153   0.122   0.926
 4671TIP3   OH213976   2.537   6.679   4.457
 4671TIP3    H113977   2.536   6.672   4.362
 4671TIP3    H213978   2.445   6.677   4.483
 4672TIP3   OH213979   6.223   2.714   4.201
 4672TIP3    H113980   6.200   2.632   4.245
 4672TIP3    H213981   6.243   2.688   4.111
 4673TIP3   OH213982   6.575   6.585   3.719
 4673TIP3    H113983   6.644   6.520   3.704
 4673TIP3    H213984   6.542   6.565   3.807
 4674TIP3   OH213985   4.833   3.768   2.189
 4674TIP3    H113986   4.776   3.747   2.114
 4674TIP3    H213987   4.854   3.683   2.227
 4675TIP3   OH213988   2.562   0.126   2.238
 4675TIP3    H113989   2.538   0.124   2.146
 4675TIP3    H213990   2.650   0.087   2.240
 4676TIP3   OH213991   5.737   0.320   1.752
 4676TIP3    H113992   5.806   0.341   1.815
 4676TIP3    H213993   5.697   0.240   1.787
 4677TIP3   OH213994   7.054   0.907   3.727
 4677TIP3    H113995   6.967   0.914   3.768
 4677TIP3    H213996   7.115   0.935   3.795
 4678TIP3   OH213997   6.222   6.230   5.940
 4678TIP3    H113998   6.255   6.203   5.854
 4678TIP3    H213999   6.265   6.313   5.957
 4679TIP3   OH214000   2.482   2.071   1.816
 4679TIP3    H114001   2.496   2.099   1.907
 4679TIP3    H214002   2.404   2.119   1.788
 4680TIP3   OH214003   4.311   4.824   2.601
 4680TIP3    H114004   4.325   4.810   2.695
 4680TIP3    H214005   4.381   4.884   2.575
 4681TIP3   OH214006   3.267   5.599   4.660
 4681TIP3    H114007   3.322   5.529   4.695
 4681TIP3    H214008   3.267   5.586   4.566
 4682TIP3   OH214009   6.966   1.159   3.500
 4682TIP3    H114010   6.886   1.129   3.543
 4682TIP3    H214011   6.982   1.094   3.432
 4683TIP3   OH214012   4.637   1.728   4.111
 4683TIP3    H114013   4.698   1.749   4.041
 4683TIP3    H214014   4.684   1.665   4.166
 4684TIP3   OH214015   0.685   3.583   2.836
 4684TIP3    H114016   0.683   3.679   2.831
 4684TIP3    H214017   0.601   3.560   2.875
 4685TIP3   OH214018   7.021   5.096   3.347
 4685TIP3    H114019   7.026   5.192   3.338
 4685TIP3    H214020   7.099   5.072   3.396
 4686TIP3   OH214021   6.999   3.784   5.437
 4686TIP3    H114022   6.989   3.842   5.512
 4686TIP3    H214023   7.094   3.773   5.427
 4687TIP3   OH214024   5.002   5.798   2.715
 4687TIP3    H114025   4.940   5.726   2.727
 4687TIP3    H214026   5.087   5.755   2.711
 4688TIP3   OH214027   5.436   5.452   1.429
 4688TIP3    H114028   5.453   5.407   1.346
 4688TIP3    H214029   5.518   5.442   1.478
 4689TIP3   OH214030   1.710   3.681   0.860
 4689TIP3    H114031   1.694   3.605   0.916
 4689TIP3    H214032   1.781   3.653   0.802
 4690TIP3   OH214033   0.986   3.550   2.818
 4690TIP3    H114034   0.993   3.627   2.761
 4690TIP3    H214035   0.901   3.560   2.861
 4691TIP3   OH214036   3.344   3.398   1.266
 4691TIP3    H114037   3.295   3.461   1.319
 4691TIP3    H214038   3.282   3.369   1.200
 4692TIP3   OH214039   2.070   6.117   0.896
 4692TIP3    H114040   2.062   6.146   0.987
 4692TIP3    H214041   1.992   6.152   0.852
 4693TIP3   OH214042   4.568   0.580   2.014
 4693TIP3    H114043   4.568   0.525   1.936
 4693TIP3    H214044   4.481   0.620   2.016
 4694TIP3   OH214045   6.393   5.854   5.142
 4694TIP3    H114046   6.464   5.859   5.078
 4694TIP3    H214047   6.400   5.934   5.193
 4695TIP3   OH214048   6.208   4.198   4.748
 4695TIP3    H114049   6.253   4.275   4.781
 4695TIP3    H214050   6.225   4.198   4.653
 4696TIP3   OH214051   5.291   2.514   5.582
 4696TIP3    H114052   5.341   2.593   5.566
 4696TIP3    H214053   5.350   2.459   5.635
 4697TIP3   OH214054   3.930   4.205   1.517
 4697TIP3    H114055   3.845   4.212   1.561
 4697TIP3    H214056   3.939   4.287   1.468
 4698TIP3   OH214057   3.368   3.876   4.419
 4698TIP3    H114058   3.377   3.905   4.510
 4698TIP3    H214059   3.442   3.818   4.404
 4699TIP3   OH214060   0.140   1.286   1.825
 4699TIP3    H114061   0.153   1.356   1.761
 4699TIP3    H214062   0.189   1.212   1.789
 4700TIP3   OH214063   5.412   3.081   1.356
 4700TIP3    H114064   5.475   3.114   1.420
 4700TIP3    H214065   5.452   3.102   1.271
 4701TIP3   OH214066   2.056   5.386   1.578
 4701TIP3    H114067   2.131   5.373   1.520
 4701TIP3    H214068   2.008   5.304   1.574
 4702TIP3   OH214069   2.143   2.101   2.508
 4702TIP3    H114070   2.076   2.133   2.448
 4702TIP3    H214071   2.102   2.026   2.551
 4703TIP3   OH214072   2.179   4.851   2.975
 4703TIP3    H114073   2.159   4.943   2.960
 4703TIP3    H214074   2.132   4.828   3.055
 4704TIP3   OH214075   2.321   2.536   1.742
 4704TIP3    H114076   2.285   2.541   1.831
 4704TIP3    H214077   2.322   2.626   1.711
 4705TIP3   OH214078   2.963   6.638   3.185
 4705TIP3    H114079   2.900   6.665   3.251
 4705TIP3    H214080   2.976   6.544   3.201
 4706TIP3   OH214081   0.787   1.294   0.350
 4706TIP3    H114082   0.851   1.335   0.408
 4706TIP3    H214083   0.775   1.356   0.278
 4707TIP3   OH214084   2.783   0.439   3.416
 4707TIP3    H114085   2.750   0.467   3.501
 4707TIP3    H214086   2.869   0.401   3.434
 4708TIP3   OH214087   6.842   2.222   3.475
 4708TIP3    H114088   6.754   2.225   3.513
 4708TIP3    H214089   6.828   2.188   3.386
 4709TIP3   OH214090   3.197   2.106   0.955
 4709TIP3    H114091   3.268   2.095   1.018
 4709TIP3    H214092   3.235   2.081   0.871
 4710TIP3   OH214093   2.906   5.911   5.731
 4710TIP3    H114094   2.832   5.896   5.789
 4710TIP3    H214095   2.960   5.974   5.777
 4711TIP3   OH214096   4.877   4.275   4.337
 4711TIP3    H114097   4.859   4.366   4.313
 4711TIP3    H214098   4.938   4.282   4.411
 4712TIP3   OH214099   3.306   5.538   3.004
 4712TIP3    H114100   3.384   5.535   2.948
 4712TIP3    H214101   3.233   5.537   2.943
 4713TIP3   OH214102   5.722   6.414   2.830
 4713TIP3    H114103   5.711   6.382   2.919
 4713TIP3    H214104   5.644   6.467   2.814
 4714TIP3   OH214105   4.925   1.622   0.188
 4714TIP3    H114106   4.881   1.556   0.242
 4714TIP3    H214107   4.990   1.573   0.139
 4715TIP3   OH214108   1.268   2.713   1.956
 4715TIP3    H114109   1.362   2.713   1.940
 4715TIP3    H214110   1.231   2.768   1.887
 4716TIP3   OH214111   5.607   4.874   3.859
 4716TIP3    H114112   5.616   4.969   3.871
 4716TIP3    H214113   5.558   4.864   3.777
 4717TIP3   OH214114   6.944   0.220   3.906
 4717TIP3    H114115   6.994   0.138   3.903
 4717TIP3    H214116   7.011   0.288   3.907
 4718TIP3   OH214117   5.666   4.438   5.568
 4718TIP3    H114118   5.625   4.467   5.487
 4718TIP3    H214119   5.624   4.355   5.588
 4719TIP3   OH214120   0.551   0.638   2.614
 4719TIP3    H114121   0.625   0.587   2.580
 4719TIP3    H214122   0.549   0.716   2.558
 4720TIP3   OH214123   4.702   4.659   0.230
 4720TIP3    H114124   4.681   4.581   0.178
 4720TIP3    H214125   4.776   4.699   0.185
 4721TIP3   OH214126   3.278   4.556   1.062
 4721TIP3    H114127   3.305   4.484   1.005
 4721TIP3    H214128   3.332   4.630   1.035
 4722TIP3   OH214129   1.187   0.348   0.221
 4722TIP3    H114130   1.125   0.419   0.236
 4722TIP3    H214131   1.257   0.362   0.285
 4723TIP3   OH214132   6.323   0.682   2.716
 4723TIP3    H114133   6.321   0.721   2.804
 4723TIP3    H214134   6.262   0.735   2.665
 4724TIP3   OH214135   2.203   0.645   0.461
 4724TIP3    H114136   2.137   0.688   0.406
 4724TIP3    H214137   2.267   0.713   0.480
 4725TIP3   OH214138   5.357   0.868   3.522
 4725TIP3    H114139   5.450   0.842   3.524
 4725TIP3    H214140   5.356   0.948   3.470
 4726TIP3   OH214141   7.008   1.566   5.345
 4726TIP3    H114142   6.977   1.536   5.260
 4726TIP3    H214143   6.984   1.495   5.405
 4727TIP3   OH214144   5.107   5.063   5.010
 4727TIP3    H114145   5.198   5.079   5.037
 4727TIP3    H214146   5.087   4.976   5.045
 4728TIP3   OH214147   5.766   0.783   0.365
 4728TIP3    H114148   5.672   0.777   0.346
 4728TIP3    H214149   5.807   0.798   0.281
 4729TIP3   OH214150   0.674   6.000   3.570
 4729TIP3    H114151   0.719   6.077   3.535
 4729TIP3    H214152   0.703   5.928   3.514
 4730TIP3   OH214153   4.982   1.983   0.873
 4730TIP3    H114154   4.896   1.981   0.916
 4730TIP3    H214155   5.035   1.921   0.923
 4731TIP3   OH214156   7.102   0.211   3.568
 4731TIP3    H114157   7.114   0.224   3.473
 4731TIP3    H214158   7.027   0.152   3.575
 4732TIP3   OH214159   0.413   2.583   4.976
 4732TIP3    H114160   0.351   2.512   4.961
 4732TIP3    H214161   0.358   2.661   4.988
 4733TIP3   OH214162   3.108   0.805   2.346
 4733TIP3    H114163   3.149   0.886   2.316
 4733TIP3    H214164   3.015   0.819   2.332
 4734TIP3   OH214165   7.070   3.348   4.581
 4734TIP3    H114166   7.130   3.274   4.589
 4734TIP3    H214167   7.093   3.389   4.497
 4735TIP3   OH214168   1.175   5.262   1.187
 4735TIP3    H114169   1.218   5.286   1.269
 4735TIP3    H214170   1.227   5.304   1.119
 4736TIP3   OH214171   6.299   0.717   1.292
 4736TIP3    H114172   6.287   0.799   1.339
 4736TIP3    H214173   6.294   0.740   1.200
 4737TIP3   OH214174   0.925   6.335   5.185
 4737TIP3    H114175   0.901   6.321   5.277
 4737TIP3    H214176   0.993   6.271   5.168
 4738TIP3   OH214177   1.629   4.271   0.586
 4738TIP3    H114178   1.664   4.342   0.640
 4738TIP3    H214179   1.664   4.191   0.625
 4739TIP3   OH214180   4.244   5.166   1.036
 4739TIP3    H114181   4.225   5.201   0.949
 4739TIP3    H214182   4.177   5.100   1.050
 4740TIP3   OH214183   1.508  -0.008   4.594
 4740TIP3    H114184   1.462  -0.046   4.519
 4740TIP3    H214185   1.547  -0.082   4.640
 4741TIP3   OH214186   6.046   2.325   3.401
 4741TIP3    H114187   6.016   2.352   3.315
 4741TIP3    H214188   6.079   2.405   3.442
 4742TIP3   OH214189   3.964   5.563   5.667
 4742TIP3    H114190   3.909   5.579   5.591
 4742TIP3    H214191   3.995   5.473   5.656
 4743TIP3   OH214192   1.913   0.610   4.516
 4743TIP3    H114193   1.928   0.648   4.603
 4743TIP3    H214194   1.891   0.685   4.460
 4744TIP3   OH214195   3.632   3.478   1.874
 4744TIP3    H114196   3.666   3.558   1.915
 4744TIP3    H214197   3.662   3.407   1.931
 4745TIP3   OH214198   1.047   0.000   0.367
 4745TIP3    H114199   0.997   0.078   0.344
 4745TIP3    H214200   1.028  -0.062   0.297
 4746TIP3   OH214201   5.413   3.020   0.836
 4746TIP3    H114202   5.323   3.053   0.833
 4746TIP3    H214203   5.450   3.057   0.916
 4747TIP3   OH214204   0.357   6.015   2.309
 4747TIP3    H114205   0.262   6.006   2.314
 4747TIP3    H214206   0.382   6.055   2.392
 4748TIP3   OH214207   3.768   0.293   1.473
 4748TIP3    H114208   3.696   0.254   1.422
 4748TIP3    H214209   3.831   0.321   1.407
 4749TIP3   OH214210   2.881   5.390   3.029
 4749TIP3    H114211   2.890   5.481   3.057
 4749TIP3    H214212   2.927   5.339   3.096
 4750TIP3   OH214213   2.832   4.378   1.997
 4750TIP3    H114214   2.771   4.419   1.936
 4750TIP3    H214215   2.797   4.291   2.012
 4751TIP3   OH214216   0.672   3.069   4.579
 4751TIP3    H114217   0.602   3.016   4.540
 4751TIP3    H214218   0.698   3.021   4.658
 4752TIP3   OH214219   4.401   2.620   2.171
 4752TIP3    H114220   4.439   2.697   2.129
 4752TIP3    H214221   4.308   2.624   2.149
 4753TIP3   OH214222   4.743   0.143   4.248
 4753TIP3    H114223   4.716   0.058   4.214
 4753TIP3    H214224   4.661   0.186   4.272
 4754TIP3   OH214225   4.626   6.425   2.254
 4754TIP3    H114226   4.560   6.494   2.260
 4754TIP3    H214227   4.626   6.399   2.162
 4755TIP3   OH214228   5.244   4.862   2.684
 4755TIP3    H114229   5.168   4.896   2.636
 4755TIP3    H214230   5.299   4.821   2.618
 4756TIP3   OH214231   1.732   2.757   1.386
 4756TIP3    H114232   1.686   2.700   1.324
 4756TIP3    H214233   1.668   2.825   1.408
 4757TIP3   OH214234   2.925   5.537   0.057
 4757TIP3    H114235   3.013   5.499   0.051
 4757TIP3    H214236   2.918   5.567   0.148
 4758TIP3   OH214237   4.144   0.124   0.562
 4758TIP3    H114238   4.076   0.187   0.586
 4758TIP3    H214239   4.215   0.140   0.623
 4759TIP3   OH214240   6.048   6.612   3.659
 4759TIP3    H114241   6.060   6.628   3.753
 4759TIP3    H214242   6.092   6.686   3.616
 4760TIP3   OH214243   2.319   1.200   3.307
 4760TIP3    H114244   2.387   1.152   3.355
 4760TIP3    H214245   2.366   1.263   3.254
 4761TIP3   OH214246   1.442   0.980   4.587
 4761TIP3    H114247   1.394   0.981   4.505
 4761TIP3    H214248   1.394   0.918   4.643
 4762TIP3   OH214249   4.290   0.386   1.725
 4762TIP3    H114250   4.244   0.312   1.766
 4762TIP3    H214251   4.378   0.383   1.762
 4763TIP3   OH214252   6.269   5.939   1.010
 4763TIP3    H114253   6.179   5.950   1.041
 4763TIP3    H214254   6.308   5.877   1.071
 4764TIP3   OH214255   5.753   2.643   1.628
 4764TIP3    H114256   5.775   2.605   1.713
 4764TIP3    H214257   5.664   2.612   1.610
 4765TIP3   OH214258   5.855   3.667   5.276
 4765TIP3    H114259   5.907   3.727   5.224
 4765TIP3    H214260   5.842   3.591   5.219
 4766TIP3   OH214261   6.352   4.959   3.026
 4766TIP3    H114262   6.345   5.001   3.111
 4766TIP3    H214263   6.332   5.029   2.963
 4767TIP3   OH214264   0.245   1.681   3.277
 4767TIP3    H114265   0.281   1.717   3.358
 4767TIP3    H214266   0.150   1.693   3.285
 4768TIP3   OH214267   3.844   6.684   2.333
 4768TIP3    H114268   3.835   6.776   2.355
 4768TIP3    H214269   3.907   6.683   2.260
 4769TIP3   OH214270   1.142   2.422   4.075
 4769TIP3    H114271   1.145   2.495   4.014
 4769TIP3    H214272   1.234   2.394   4.084
 4770TIP3   OH214273   0.460   3.966   3.844
 4770TIP3    H114274   0.375   3.960   3.887
 4770TIP3    H214275   0.515   3.903   3.891
 4771TIP3   OH214276   3.820   0.331   4.151
 4771TIP3    H114277   3.845   0.262   4.213
 4771TIP3    H214278   3.797   0.406   4.206
 4772TIP3   OH214279   5.984   1.031   2.455
 4772TIP3    H114280   5.910   0.970   2.459
 4772TIP3    H214281   5.954   1.101   2.396
 4773TIP3   OH214282   2.787   6.557   4.774
 4773TIP3    H114283   2.735   6.579   4.852
 4773TIP3    H214284   2.874   6.536   4.809
 4774TIP3   OH214285   1.171   4.254   2.930
 4774TIP3    H114286   1.218   4.204   2.997
 4774TIP3    H214287   1.185   4.346   2.954
 4775TIP3   OH214288   7.152   4.808   4.179
 4775TIP3    H114289   7.199   4.732   4.146
 4775TIP3    H214290   7.153   4.799   4.274
 4776TIP3   OH214291   3.798   0.447   5.429
 4776TIP3    H114292   3.808   0.354   5.450
 4776TIP3    H214293   3.884   0.474   5.397
 4777TIP3   OH214294   1.334   0.407   5.030
 4777TIP3    H114295   1.390   0.398   4.952
 4777TIP3    H214296   1.354   0.331   5.083
 4778TIP3   OH214297   1.895   2.847   1.046
 4778TIP3    H114298   1.948   2.872   1.121
 4778TIP3    H214299   1.958   2.829   0.977
 4779TIP3   OH214300   1.073   0.356   4.993
 4779TIP3    H114301   1.158   0.397   5.008
 4779TIP3    H214302   1.091   0.262   4.997
 4780TIP3   OH214303   1.510   2.225   5.672
 4780TIP3    H114304   1.440   2.211   5.609
 4780TIP3    H214305   1.506   2.318   5.694
 4781TIP3   OH214306   5.953   1.482   5.189
 4781TIP3    H114307   5.915   1.485   5.101
 4781TIP3    H214308   5.956   1.574   5.216
 4782TIP3   OH214309   0.761   0.843   4.173
 4782TIP3    H114310   0.745   0.926   4.219
 4782TIP3    H214311   0.759   0.777   4.243
 4783TIP3   OH214312   5.227   0.049   4.901
 4783TIP3    H114313   5.159   0.109   4.872
 4783TIP3    H214314   5.280   0.033   4.823
 4784TIP3   OH214315   6.906   2.249   4.254
 4784TIP3    H114316   6.897   2.199   4.335
 4784TIP3    H214317   6.938   2.186   4.190
 4785TIP3   OH214318   6.146   6.681   3.910
 4785TIP3    H114319   6.079   6.695   3.977
 4785TIP3    H214320   6.175   6.591   3.923
 4786TIP3   OH214321   2.416   1.330   3.093
 4786TIP3    H114322   2.345   1.388   3.064
 4786TIP3    H214323   2.482   1.337   3.024
 4787TIP3   OH214324   6.216   4.033   1.016
 4787TIP3    H114325   6.233   4.083   1.096
 4787TIP3    H214326   6.185   3.949   1.047
 4788TIP3   OH214327   6.745   0.289   2.856
 4788TIP3    H114328   6.755   0.194   2.857
 4788TIP3    H214329   6.816   0.322   2.911
 4789TIP3   OH214330   5.724   4.589   4.623
 4789TIP3    H114331   5.641   4.543   4.615
 4789TIP3    H214332   5.752   4.603   4.532
 4790TIP3   OH214333   7.054   5.392   2.408
 4790TIP3    H114334   7.145   5.383   2.436
 4790TIP3    H214335   7.047   5.484   2.381
 4791TIP3   OH214336   0.653   1.874   1.601
 4791TIP3    H114337   0.564   1.908   1.616
 4791TIP3    H214338   0.710   1.942   1.636
 4792TIP3   OH214339   6.185   6.410   3.908
 4792TIP3    H114340   6.119   6.357   3.862
 4792TIP3    H214341   6.265   6.398   3.858
 4793TIP3   OH214342   3.110   5.372   3.937
 4793TIP3    H114343   3.153   5.298   3.894
 4793TIP3    H214344   3.017   5.352   3.931
 4794TIP3   OH214345   4.071   3.829   0.633
 4794TIP3    H114346   4.059   3.776   0.554
 4794TIP3    H214347   4.052   3.918   0.605
 4795TIP3   OH214348   6.751   5.430   5.813
 4795TIP3    H114349   6.711   5.490   5.750
 4795TIP3    H214350   6.686   5.360   5.824
 4796TIP3   OH214351   3.383   5.253   5.927
 4796TIP3    H114352   3.445   5.205   5.872
 4796TIP3    H214353   3.340   5.314   5.867
 4797TIP3   OH214354   5.056   1.787   0.443
 4797TIP3    H114355   5.041   1.736   0.363
 4797TIP3    H214356   5.147   1.767   0.467
 4798TIP3   OH214357   7.002   3.983   2.938
 4798TIP3    H114358   7.063   3.973   2.865
 4798TIP3    H214359   7.007   4.076   2.961
 4799TIP3   OH214360   4.752   2.418   2.850
 4799TIP3    H114361   4.838   2.377   2.837
 4799TIP3    H214362   4.762   2.507   2.816
 4800TIP3   OH214363   0.028   3.573   3.239
 4800TIP3    H114364   0.020   3.478   3.234
 4800TIP3    H214365   0.112   3.592   3.198
 4801TIP3   OH214366   2.247   4.204   4.363
 4801TIP3    H114367   2.153   4.187   4.368
 4801TIP3    H214368   2.255   4.286   4.314
 4802TIP3   OH214369   6.221   0.105   3.770
 4802TIP3    H114370   6.131   0.073   3.763
 4802TIP3    H214371   6.260   0.084   3.685
 4803TIP3   OH214372   1.951   6.548   0.820
 4803TIP3    H114373   1.900   6.622   0.788
 4803TIP3    H214374   1.898   6.510   0.890
 4804TIP3   OH214375   5.878   0.221   3.414
 4804TIP3    H114376   5.858   0.314   3.429
 4804TIP3    H214377   5.793   0.179   3.406
 4805TIP3   OH214378   3.086   5.071   0.144
 4805TIP3    H114379   3.112   5.051   0.234
 4805TIP3    H214380   3.015   5.010   0.126
 4806TIP3   OH214381   2.596   5.837   3.475
 4806TIP3    H114382   2.629   5.748   3.485
 4806TIP3    H214383   2.673   5.889   3.451
 4807TIP3   OH214384   4.441   6.326   0.912
 4807TIP3    H114385   4.401   6.265   0.850
 4807TIP3    H214386   4.517   6.360   0.865
 4808TIP3   OH214387   4.719   1.249   5.340
 4808TIP3    H114388   4.686   1.170   5.384
 4808TIP3    H214389   4.668   1.253   5.259
 4809TIP3   OH214390   4.165   3.298   4.255
 4809TIP3    H114391   4.258   3.304   4.234
 4809TIP3    H214392   4.131   3.234   4.193
 4810TIP3   OH214393   5.369   0.482   3.141
 4810TIP3    H114394   5.354   0.564   3.190
 4810TIP3    H214395   5.438   0.438   3.190
 4811TIP3   OH214396   0.982   3.931   2.834
 4811TIP3    H114397   1.047   3.919   2.765
 4811TIP3    H214398   1.031   3.969   2.907
 4812TIP3   OH214399   0.370   6.187   1.622
 4812TIP3    H114400   0.334   6.169   1.709
 4812TIP3    H214401   0.348   6.110   1.570
 4813TIP3   OH214402   6.440   2.263   4.695
 4813TIP3    H114403   6.373   2.324   4.725
 4813TIP3    H214404   6.515   2.319   4.674
 4814TIP3   OH214405   6.106   1.353   2.851
 4814TIP3    H114406   6.183   1.320   2.897
 4814TIP3    H214407   6.077   1.278   2.798
 4815TIP3   OH214408   0.431   3.848   5.467
 4815TIP3    H114409   0.392   3.859   5.381
 4815TIP3    H214410   0.501   3.913   5.470
 4816TIP3   OH214411   4.673   1.178   2.798
 4816TIP3    H114412   4.626   1.163   2.880
 4816TIP3    H214413   4.613   1.146   2.731
 4817TIP3   OH214414   2.735   1.261   0.820
 4817TIP3    H114415   2.772   1.266   0.732
 4817TIP3    H214416   2.738   1.351   0.852
 4818TIP3   OH214417   6.880   4.838   5.752
 4818TIP3    H114418   6.793   4.876   5.765
 4818TIP3    H214419   6.940   4.912   5.753
 4819TIP3   OH214420   0.454   3.333   0.834
 4819TIP3    H114421   0.548   3.324   0.821
 4819TIP3    H214422   0.436   3.426   0.820
 4820TIP3   OH214423   0.056   6.243   1.596
 4820TIP3    H114424   0.144   6.265   1.625
 4820TIP3    H214425   0.002   6.317   1.623
 4821TIP3   OH214426   5.158   1.228   3.082
 4821TIP3    H114427   5.066   1.209   3.062
 4821TIP3    H214428   5.205   1.149   3.053
 4822TIP3   OH214429   4.903   5.739   2.275
 4822TIP3    H114430   4.859   5.654   2.263
 4822TIP3    H214431   4.861   5.776   2.353
 4823TIP3   OH214432   4.070   2.536   0.150
 4823TIP3    H114433   4.057   2.471   0.220
 4823TIP3    H214434   4.013   2.506   0.079
 4824TIP3   OH214435   4.123   2.768   0.672
 4824TIP3    H114436   4.093   2.807   0.754
 4824TIP3    H214437   4.057   2.702   0.651
 4825TIP3   OH214438   5.084   0.353   2.500
 4825TIP3    H114439   5.005   0.313   2.536
 4825TIP3    H214440   5.134   0.279   2.464
 4826TIP3   OH214441   1.335   2.480   4.327
 4826TIP3    H114442   1.308   2.396   4.365
 4826TIP3    H214443   1.386   2.455   4.249
 4827TIP3   OH214444   2.840   4.867   2.077
 4827TIP3    H114445   2.892   4.870   2.157
 4827TIP3    H214446   2.894   4.820   2.014
 4828TIP3   OH214447   3.374   3.088   2.659
 4828TIP3    H114448   3.351   3.181   2.653
 4828TIP3    H214449   3.308   3.051   2.718
 4829TIP3   OH214450   5.435   6.723   0.468
 4829TIP3    H114451   5.440   6.811   0.506
 4829TIP3    H214452   5.527   6.695   0.459
 4830TIP3   OH214453   0.357   4.577   4.214
 4830TIP3    H114454   0.368   4.667   4.244
 4830TIP3    H214455   0.386   4.523   4.288
 4831TIP3   OH214456   2.671   2.581   2.914
 4831TIP3    H114457   2.673   2.543   3.002
 4831TIP3    H214458   2.754   2.553   2.874
 4832TIP3   OH214459   0.407   5.307   4.331
 4832TIP3    H114460   0.399   5.301   4.426
 4832TIP3    H214461   0.426   5.218   4.302
 4833TIP3   OH214462   4.341   3.692   1.234
 4833TIP3    H114463   4.296   3.626   1.285
 4833TIP3    H214464   4.373   3.755   1.299
 4834TIP3   OH214465   0.658   5.053   1.695
 4834TIP3    H114466   0.573   5.010   1.692
 4834TIP3    H214467   0.720   4.983   1.712
 4835TIP3   OH214468   7.212   1.181   5.614
 4835TIP3    H114469   7.222   1.177   5.709
 4835TIP3    H214470   7.143   1.247   5.600
 4836TIP3   OH214471   1.254   3.006   2.241
 4836TIP3    H114472   1.199   3.031   2.167
 4836TIP3    H214473   1.206   2.933   2.281
 4837TIP3   OH214474   3.493   1.289   5.164
 4837TIP3    H114475   3.417   1.261   5.113
 4837TIP3    H214476   3.527   1.365   5.117
 4838TIP3   OH214477   2.773   4.300   2.710
 4838TIP3    H114478   2.688   4.338   2.688
 4838TIP3    H214479   2.818   4.292   2.626
 4839TIP3   OH214480   5.091   3.516   3.268
 4839TIP3    H114481   5.126   3.431   3.293
 4839TIP3    H214482   5.008   3.523   3.315
 4840TIP3   OH214483   0.798   2.343   1.443
 4840TIP3    H114484   0.739   2.325   1.516
 4840TIP3    H214485   0.871   2.282   1.454
 4841TIP3   OH214486   6.102   1.655   1.785
 4841TIP3    H114487   6.178   1.629   1.838
 4841TIP3    H214488   6.073   1.573   1.743
 4842TIP3   OH214489   3.484   2.085   0.213
 4842TIP3    H114490   3.400   2.101   0.171
 4842TIP3    H214491   3.541   2.155   0.180
 4843TIP3   OH214492   4.057   0.153   2.566
 4843TIP3    H114493   3.963   0.161   2.578
 4843TIP3    H214494   4.092   0.240   2.586
 4844TIP3   OH214495   6.516   1.046   2.860
 4844TIP3    H114496   6.441   1.032   2.801
 4844TIP3    H214497   6.551   0.958   2.874
 4845TIP3   OH214498   3.582   0.158   3.302
 4845TIP3    H114499   3.613   0.129   3.216
 4845TIP3    H214500   3.619   0.246   3.312
 4846TIP3   OH214501   4.806   1.188   5.630
 4846TIP3    H114502   4.781   1.118   5.570
 4846TIP3    H214503   4.800   1.268   5.577
 4847TIP3   OH214504   6.747   6.414   3.495
 4847TIP3    H114505   6.841   6.413   3.512
 4847TIP3    H214506   6.718   6.327   3.522
 4848TIP3   OH214507   6.064   2.977   1.263
 4848TIP3    H114508   6.019   3.042   1.317
 4848TIP3    H214509   6.157   3.001   1.270
 4849TIP3   OH214510   1.582   3.376   3.008
 4849TIP3    H114511   1.601   3.297   3.058
 4849TIP3    H214512   1.535   3.345   2.930
 4850TIP3   OH214513   5.969   3.652   0.366
 4850TIP3    H114514   5.975   3.587   0.436
 4850TIP3    H214515   5.969   3.736   0.411
 4851TIP3   OH214516   4.958   6.713   2.198
 4851TIP3    H114517   4.918   6.638   2.155
 4851TIP3    H214518   4.896   6.737   2.267
 4852TIP3   OH214519   2.558   0.839   4.935
 4852TIP3    H114520   2.543   0.848   4.841
 4852TIP3    H214521   2.630   0.776   4.942
 4853TIP3   OH214522   1.452   1.477   5.254
 4853TIP3    H114523   1.448   1.439   5.167
 4853TIP3    H214524   1.486   1.407   5.310
 4854TIP3   OH214525   5.947   2.282   5.818
 4854TIP3    H114526   5.995   2.364   5.799
 4854TIP3    H214527   5.878   2.279   5.752
 4855TIP3   OH214528   2.380   5.334   5.805
 4855TIP3    H114529   2.354   5.248   5.771
 4855TIP3    H214530   2.299   5.370   5.842
 4856TIP3   OH214531   6.066   6.638   5.832
 4856TIP3    H114532   5.993   6.689   5.796
 4856TIP3    H214533   6.038   6.547   5.821
 4857TIP3   OH214534   3.898   5.054   2.824
 4857TIP3    H114535   3.888   4.972   2.872
 4857TIP3    H214536   3.919   5.028   2.735
 4858TIP3   OH214537   1.703   4.767   2.922
 4858TIP3    H114538   1.640   4.834   2.895
 4858TIP3    H214539   1.706   4.773   3.017
 4859TIP3   OH214540   1.738   4.517   5.868
 4859TIP3    H114541   1.755   4.538   5.959
 4859TIP3    H214542   1.823   4.528   5.824
 4860TIP3   OH214543   4.910   3.192   0.923
 4860TIP3    H114544   4.894   3.270   0.977
 4860TIP3    H214545   4.927   3.122   0.987
 4861TIP3   OH214546   5.078   4.841   2.097
 4861TIP3    H114547   5.017   4.901   2.140
 4861TIP3    H214548   5.146   4.824   2.162
 4862TIP3   OH214549   6.969   3.781   2.355
 4862TIP3    H114550   6.937   3.728   2.283
 4862TIP3    H214551   7.052   3.740   2.381
 4863TIP3   OH214552   1.769   3.630   0.373
 4863TIP3    H114553   1.744   3.540   0.350
 4863TIP3    H214554   1.727   3.684   0.307
 4864TIP3   OH214555   3.994   3.879   0.141
 4864TIP3    H114556   3.905   3.842   0.150
 4864TIP3    H214557   3.980   3.967   0.107
 4865TIP3   OH214558   6.102   3.768   0.123
 4865TIP3    H114559   6.017   3.726   0.132
 4865TIP3    H214560   6.146   3.752   0.206
 4866TIP3   OH214561   2.690   1.691   0.774
 4866TIP3    H114562   2.755   1.761   0.765
 4866TIP3    H214563   2.658   1.677   0.684
 4867TIP3   OH214564   3.018   2.602   3.850
 4867TIP3    H114565   2.979   2.689   3.846
 4867TIP3    H214566   2.960   2.551   3.907
 4868TIP3   OH214567   3.765   3.331   0.827
 4868TIP3    H114568   3.706   3.283   0.769
 4868TIP3    H214569   3.773   3.418   0.788
 4869TIP3   OH214570   5.840   3.057   2.887
 4869TIP3    H114571   5.755   3.048   2.844
 4869TIP3    H214572   5.847   3.149   2.908
 4870TIP3   OH214573   0.995   5.959   0.084
 4870TIP3    H114574   1.058   5.975   0.014
 4870TIP3    H214575   0.939   5.889   0.050
 4871TIP3   OH214576   3.422   0.725   3.323
 4871TIP3    H114577   3.441   0.656   3.387
 4871TIP3    H214578   3.411   0.678   3.240
 4872TIP3   OH214579   2.574   0.055   2.814
 4872TIP3    H114580   2.489   0.043   2.856
 4872TIP3    H214581   2.578   0.148   2.794
 4873TIP3   OH214582   5.132   3.774   3.106
 4873TIP3    H114583   5.130   3.703   3.171
 4873TIP3    H214584   5.111   3.853   3.156
 4874TIP3   OH214585   6.491   1.137   0.255
 4874TIP3    H114586   6.524   1.052   0.284
 4874TIP3    H214587   6.467   1.183   0.336
 4875TIP3   OH214588   4.337   3.735   5.870
 4875TIP3    H114589   4.241   3.739   5.871
 4875TIP3    H214590   4.364   3.788   5.946
 4876TIP3   OH214591   6.228   5.948   2.447
 4876TIP3    H114592   6.151   5.982   2.492
 4876TIP3    H214593   6.247   5.865   2.491
 4877TIP3   OH214594   3.528   5.123   1.337
 4877TIP3    H114595   3.584   5.146   1.263
 4877TIP3    H214596   3.538   5.196   1.398
 4878TIP3   OH214597   4.345   5.582   3.776
 4878TIP3    H114598   4.263   5.575   3.825
 4878TIP3    H214599   4.319   5.615   3.690
 4879TIP3   OH214600   4.322   1.816   4.206
 4879TIP3    H114601   4.379   1.748   4.171
 4879TIP3    H214602   4.243   1.811   4.152
 4880TIP3   OH214603   1.597   5.952   2.499
 4880TIP3    H114604   1.587   5.865   2.539
 4880TIP3    H214605   1.513   5.996   2.515
 4881TIP3   OH214606   4.473   5.483   0.509
 4881TIP3    H114607   4.546   5.425   0.490
 4881TIP3    H214608   4.395   5.427   0.502
 4882TIP3   OH214609   4.399   5.822   2.947
 4882TIP3    H114610   4.363   5.826   3.035
 4882TIP3    H214611   4.483   5.777   2.957
 4883TIP3   OH214612   2.028   0.293   3.960
 4883TIP3    H114613   2.021   0.200   3.936
 4883TIP3    H214614   2.120   0.315   3.944
 4884TIP3   OH214615   6.419   5.850   2.227
 4884TIP3    H114616   6.369   5.882   2.302
 4884TIP3    H214617   6.408   5.755   2.230
 4885TIP3   OH214618   3.331   0.156   3.128
 4885TIP3    H114619   3.363   0.116   3.047
 4885TIP3    H214620   3.403   0.145   3.190
 4886TIP3   OH214621   1.175   3.948   3.051
 4886TIP3    H114622   1.206   4.022   3.104
 4886TIP3    H214623   1.255   3.900   3.030
 4887TIP3   OH214624   0.022   2.326   4.452
 4887TIP3    H114625  -0.001   2.418   4.460
 4887TIP3    H214626  -0.012   2.301   4.365
 4888TIP3   OH214627   5.523   4.822   3.014
 4888TIP3    H114628   5.590   4.754   3.011
 4888TIP3    H214629   5.442   4.775   3.034
 4889TIP3   OH214630   2.248   3.851   4.133
 4889TIP3    H114631   2.319   3.905   4.097
 4889TIP3    H214632   2.253   3.769   4.084
 4890TIP3   OH214633   7.031   2.364   2.851
 4890TIP3    H114634   7.071   2.441   2.810
 4890TIP3    H214635   7.092   2.341   2.921
 4891TIP3   OH214636   3.322   5.256   4.888
 4891TIP3    H114637   3.405   5.293   4.857
 4891TIP3    H214638   3.302   5.186   4.826
 4892TIP3   OH214639   3.778   0.756   1.102
 4892TIP3    H114640   3.805   0.782   1.013
 4892TIP3    H214641   3.849   0.700   1.133
 4893TIP3   OH214642   0.885   3.653   4.062
 4893TIP3    H114643   0.910   3.739   4.028
 4893TIP3    H214644   0.846   3.608   3.987
 4894TIP3   OH214645   2.294   6.436   1.582
 4894TIP3    H114646   2.311   6.342   1.573
 4894TIP3    H214647   2.363   6.468   1.640
 4895TIP3   OH214648   6.542   5.345   4.649
 4895TIP3    H114649   6.527   5.315   4.739
 4895TIP3    H214650   6.595   5.276   4.609
 4896TIP3   OH214651   3.900   3.344   5.313
 4896TIP3    H114652   3.960   3.406   5.354
 4896TIP3    H214653   3.952   3.264   5.304
 4897TIP3   OH214654   1.563   2.674   5.878
 4897TIP3    H114655   1.547   2.704   5.788
 4897TIP3    H214656   1.520   2.589   5.883
 4898TIP3   OH214657   1.401   2.633   0.945
 4898TIP3    H114658   1.396   2.728   0.953
 4898TIP3    H214659   1.425   2.617   0.854
 4899TIP3   OH214660   0.283   2.195   0.172
 4899TIP3    H114661   0.376   2.204   0.152
 4899TIP3    H214662   0.238   2.223   0.092
 4900TIP3   OH214663   3.024   5.431   4.342
 4900TIP3    H114664   3.114   5.460   4.355
 4900TIP3    H214665   2.991   5.415   4.431
 4901TIP3   OH214666   2.722   0.673   5.758
 4901TIP3    H114667   2.683   0.676   5.846
 4901TIP3    H214668   2.652   0.642   5.702
 4902TIP3   OH214669   6.733   5.296   2.176
 4902TIP3    H114670   6.725   5.376   2.125
 4902TIP3    H214671   6.826   5.291   2.199
 4903TIP3   OH214672   1.485   5.690   2.575
 4903TIP3    H114673   1.390   5.678   2.575
 4903TIP3    H214674   1.520   5.601   2.574
 4904TIP3   OH214675   2.061   4.824   5.599
 4904TIP3    H114676   2.071   4.897   5.660
 4904TIP3    H214677   2.108   4.751   5.640
 4905TIP3   OH214678   2.998   0.331   3.729
 4905TIP3    H114679   2.990   0.245   3.687
 4905TIP3    H214680   3.053   0.382   3.669
 4906TIP3   OH214681   0.440   2.582   4.327
 4906TIP3    H114682   0.498   2.583   4.404
 4906TIP3    H214683   0.489   2.630   4.260
 4907TIP3   OH214684   2.287   0.037   1.765
 4907TIP3    H114685   2.275   0.121   1.722
 4907TIP3    H214686   2.307  -0.024   1.694
 4908TIP3   OH214687   5.015   4.475   5.130
 4908TIP3    H114688   5.108   4.497   5.124
 4908TIP3    H214689   4.991   4.446   5.042
 4909TIP3   OH214690   7.069   2.455   1.972
 4909TIP3    H114691   7.007   2.393   1.934
 4909TIP3    H214692   7.135   2.467   1.904
 4910TIP3   OH214693   3.912   6.346   0.863
 4910TIP3    H114694   3.935   6.254   0.871
 4910TIP3    H214695   3.962   6.389   0.933
 4911TIP3   OH214696   0.492   2.205   4.520
 4911TIP3    H114697   0.507   2.209   4.425
 4911TIP3    H214698   0.481   2.297   4.546
 4912TIP3   OH214699   6.094   5.927   2.876
 4912TIP3    H114700   6.070   5.851   2.823
 4912TIP3    H214701   6.131   5.989   2.814
 4913TIP3   OH214702   5.899   4.200   4.521
 4913TIP3    H114703   5.980   4.235   4.483
 4913TIP3    H214704   5.926   4.119   4.564
 4914TIP3   OH214705   0.251   4.252   0.889
 4914TIP3    H114706   0.216   4.341   0.884
 4914TIP3    H214707   0.339   4.259   0.850
 4915TIP3   OH214708   2.017   6.233   4.211
 4915TIP3    H114709   1.946   6.197   4.157
 4915TIP3    H214710   2.004   6.328   4.207
 4916TIP3   OH214711   6.495   2.597   4.438
 4916TIP3    H114712   6.449   2.680   4.428
 4916TIP3    H214713   6.561   2.598   4.369
 4917TIP3   OH214714   1.320   1.381   3.698
 4917TIP3    H114715   1.316   1.346   3.609
 4917TIP3    H214716   1.229   1.403   3.719
 4918TIP3   OH214717   7.049   6.372   1.072
 4918TIP3    H114718   7.055   6.425   1.151
 4918TIP3    H214719   7.055   6.435   1.000
 4919TIP3   OH214720   6.387   3.294   0.598
 4919TIP3    H114721   6.458   3.295   0.534
 4919TIP3    H214722   6.319   3.239   0.558
 4920TIP3   OH214723   4.046   4.350   3.413
 4920TIP3    H114724   4.006   4.418   3.360
 4920TIP3    H214725   4.104   4.396   3.473
 4921TIP3   OH214726   1.749   0.578   0.381
 4921TIP3    H114727   1.761   0.587   0.475
 4921TIP3    H214728   1.740   0.668   0.349
 4922TIP3   OH214729   1.448   1.430   5.723
 4922TIP3    H114730   1.463   1.496   5.791
 4922TIP3    H214731   1.498   1.353   5.753
 4923TIP3   OH214732   2.272   2.340   2.378
 4923TIP3    H114733   2.217   2.267   2.409
 4923TIP3    H214734   2.221   2.379   2.307
 4924TIP3   OH214735   3.006   2.668   5.313
 4924TIP3    H114736   2.992   2.729   5.240
 4924TIP3    H214737   3.038   2.588   5.272
 4925TIP3   OH214738   7.101   0.198   0.358
 4925TIP3    H114739   7.063   0.122   0.402
 4925TIP3    H214740   7.041   0.270   0.380
 4926TIP3   OH214741   0.205   1.836   5.744
 4926TIP3    H114742   0.260   1.884   5.806
 4926TIP3    H214743   0.164   1.767   5.797
 4927TIP3   OH214744   6.236   0.632   2.116
 4927TIP3    H114745   6.235   0.564   2.049
 4927TIP3    H214746   6.321   0.623   2.159
 4928TIP3   OH214747   4.050   2.454   4.358
 4928TIP3    H114748   4.031   2.544   4.331
 4928TIP3    H214749   3.978   2.432   4.418
 4929TIP3   OH214750   0.027   1.930   0.310
 4929TIP3    H114751   0.050   1.922   0.403
 4929TIP3    H214752  -0.067   1.911   0.307
 4930TIP3   OH214753   5.048   1.604   3.829
 4930TIP3    H114754   5.121   1.577   3.773
 4930TIP3    H214755   4.978   1.541   3.809
 4931TIP3   OH214756   3.658   2.840   3.668
 4931TIP3    H114757   3.737   2.793   3.695
 4931TIP3    H214758   3.640   2.900   3.739
 4932TIP3   OH214759   7.057   3.732   1.176
 4932TIP3    H114760   7.043   3.707   1.085
 4932TIP3    H214761   7.085   3.823   1.172
 4933TIP3   OH214762   3.861   5.980   3.952
 4933TIP3    H114763   3.907   6.029   4.021
 4933TIP3    H214764   3.778   5.955   3.993
 4934TIP3   OH214765   2.166   2.565   3.541
 4934TIP3    H114766   2.160   2.652   3.582
 4934TIP3    H214767   2.260   2.549   3.532
 4935TIP3   OH214768   4.440   0.185   2.492
 4935TIP3    H114769   4.470   0.249   2.427
 4935TIP3    H214770   4.346   0.200   2.499
 4936TIP3   OH214771   1.969   5.980   2.091
 4936TIP3    H114772   2.002   5.943   2.010
 4936TIP3    H214773   2.037   5.959   2.156
 4937TIP3   OH214774   0.731   6.454   1.989
 4937TIP3    H114775   0.718   6.366   1.954
 4937TIP3    H214776   0.756   6.440   2.081
 4938TIP3   OH214777   6.186   0.956   1.084
 4938TIP3    H114778   6.239   0.991   1.156
 4938TIP3    H214779   6.209   1.010   1.009
 4939TIP3   OH214780   2.169   4.830   0.649
 4939TIP3    H114781   2.113   4.792   0.716
 4939TIP3    H214782   2.125   4.912   0.626
 4940TIP3   OH214783   6.902   5.025   2.203
 4940TIP3    H114784   6.866   4.994   2.120
 4940TIP3    H214785   6.953   5.102   2.179
 4941TIP3   OH214786   0.991   1.245   3.051
 4941TIP3    H114787   0.908   1.243   3.099
 4941TIP3    H214788   0.968   1.279   2.965
 4942TIP3   OH214789   5.688   2.072   4.675
 4942TIP3    H114790   5.697   2.157   4.719
 4942TIP3    H214791   5.762   2.020   4.706
 4943TIP3   OH214792   4.894   0.510   1.028
 4943TIP3    H114793   4.982   0.543   1.048
 4943TIP3    H214794   4.880   0.439   1.091
 4944TIP3   OH214795   0.609   0.132   5.250
 4944TIP3    H114796   0.586   0.186   5.325
 4944TIP3    H214797   0.529   0.125   5.199
 4945TIP3   OH214798   1.251   2.622   3.901
 4945TIP3    H114799   1.322   2.658   3.954
 4945TIP3    H214800   1.204   2.699   3.870
 4946TIP3   OH214801   2.675   1.658   3.868
 4946TIP3    H114802   2.709   1.727   3.925
 4946TIP3    H214803   2.745   1.592   3.867
 4947TIP3   OH214804   4.505   0.623   3.224
 4947TIP3    H114805   4.491   0.716   3.213
 4947TIP3    H214806   4.544   0.615   3.311
 4948TIP3   OH214807   0.752   1.521   2.131
 4948TIP3    H114808   0.666   1.496   2.097
 4948TIP3    H214809   0.755   1.616   2.122
 4949TIP3   OH214810   5.908   3.187   3.662
 4949TIP3    H114811   5.923   3.109   3.716
 4949TIP3    H214812   5.974   3.250   3.692
 4950TIP3   OH214813   4.061   1.980   3.104
 4950TIP3    H114814   3.992   1.921   3.073
 4950TIP3    H214815   4.143   1.933   3.084
 4951TIP3   OH214816   0.252   5.376   1.807
 4951TIP3    H114817   0.323   5.357   1.869
 4951TIP3    H214818   0.281   5.336   1.725
 4952TIP3   OH214819   7.164   1.876   5.647
 4952TIP3    H114820   7.077   1.843   5.671
 4952TIP3    H214821   7.225   1.817   5.691
 4953TIP3   OH214822   0.070   5.516   5.633
 4953TIP3    H114823   0.085   5.550   5.546
 4953TIP3    H214824   0.068   5.421   5.622
 4954TIP3   OH214825   4.075   5.859   1.605
 4954TIP3    H114826   4.058   5.795   1.674
 4954TIP3    H214827   4.028   5.825   1.529
 4955TIP3   OH214828   6.840   2.778   3.018
 4955TIP3    H114829   6.778   2.801   3.087
 4955TIP3    H214830   6.837   2.851   2.956
 4956TIP3   OH214831   2.376   6.042   2.874
 4956TIP3    H114832   2.312   6.100   2.833
 4956TIP3    H214833   2.420   5.999   2.801
 4957TIP3   OH214834   5.404   6.570   1.083
 4957TIP3    H114835   5.471   6.521   1.131
 4957TIP3    H214836   5.422   6.552   0.991
 4958TIP3   OH214837   4.802   2.899   2.896
 4958TIP3    H114838   4.763   2.966   2.840
 4958TIP3    H214839   4.892   2.890   2.863
 4959TIP3   OH214840   3.905   2.034   3.337
 4959TIP3    H114841   3.830   1.980   3.314
 4959TIP3    H214842   3.976   2.004   3.279
 4960TIP3   OH214843   6.432   1.865   4.095
 4960TIP3    H114844   6.342   1.838   4.078
 4960TIP3    H214845   6.428   1.905   4.182
 4961TIP3   OH214846   0.517   5.215   4.058
 4961TIP3    H114847   0.515   5.304   4.092
 4961TIP3    H214848   0.479   5.221   3.970
 4962TIP3   OH214849   1.658   6.004   0.692
 4962TIP3    H114850   1.567   5.978   0.699
 4962TIP3    H214851   1.707   5.933   0.735
 4963TIP3   OH214852   4.390   4.244   3.173
 4963TIP3    H114853   4.406   4.270   3.264
 4963TIP3    H214854   4.340   4.163   3.180
 4964TIP3   OH214855   0.975   6.242   2.350
 4964TIP3    H114856   1.029   6.171   2.386
 4964TIP3    H214857   0.972   6.225   2.256
 4965TIP3   OH214858   7.227   1.828   5.365
 4965TIP3    H114859   7.194   1.846   5.453
 4965TIP3    H214860   7.321   1.816   5.376
 4966TIP3   OH214861   7.026   4.027   2.473
 4966TIP3    H114862   7.053   3.999   2.560
 4966TIP3    H214863   7.013   3.945   2.425
 4967TIP3   OH214864   4.708   2.149   0.268
 4967TIP3    H114865   4.790   2.168   0.223
 4967TIP3    H214866   4.645   2.133   0.197
 4968TIP3   OH214867   4.895   3.946   3.759
 4968TIP3    H114868   4.920   3.860   3.725
 4968TIP3    H214869   4.877   3.931   3.852
 4969TIP3   OH214870   6.208   5.646   0.736
 4969TIP3    H114871   6.248   5.731   0.718
 4969TIP3    H214872   6.263   5.608   0.805
 4970TIP3   OH214873   0.107   3.217   4.360
 4970TIP3    H114874   0.140   3.166   4.286
 4970TIP3    H214875   0.016   3.236   4.337
 4971TIP3   OH214876   2.689   2.140   5.454
 4971TIP3    H114877   2.752   2.208   5.430
 4971TIP3    H214878   2.607   2.168   5.412
 4972TIP3   OH214879   1.542   3.133   5.734
 4972TIP3    H114880   1.454   3.168   5.717
 4972TIP3    H214881   1.599   3.210   5.732
 4973TIP3   OH214882   2.273   2.315   3.902
 4973TIP3    H114883   2.285   2.401   3.943
 4973TIP3    H214884   2.362   2.278   3.899
 4974TIP3   OH214885   0.975   1.726   4.402
 4974TIP3    H114886   0.898   1.742   4.457
 4974TIP3    H214887   0.960   1.778   4.323
 4975TIP3   OH214888   6.302   5.378   0.151
 4975TIP3    H114889   6.306   5.284   0.169
 4975TIP3    H214890   6.374   5.393   0.090
 4976TIP3   OH214891   6.311   1.078   2.657
 4976TIP3    H114892   6.341   1.163   2.625
 4976TIP3    H214893   6.308   1.023   2.579
 4977TIP3   OH214894   5.350   6.419   1.902
 4977TIP3    H114895   5.325   6.373   1.983
 4977TIP3    H214896   5.292   6.495   1.899
 4978TIP3   OH214897   4.490   3.409   0.331
 4978TIP3    H114898   4.543   3.468   0.385
 4978TIP3    H214899   4.458   3.344   0.393
 4979TIP3   OH214900   2.823   3.733   0.184
 4979TIP3    H114901   2.865   3.650   0.207
 4979TIP3    H214902   2.730   3.712   0.174
 4980TIP3   OH214903   3.609   4.960   4.467
 4980TIP3    H114904   3.653   4.940   4.384
 4980TIP3    H214905   3.549   5.031   4.446
 4981TIP3   OH214906   6.372   4.743   2.091
 4981TIP3    H114907   6.455   4.754   2.138
 4981TIP3    H214908   6.330   4.668   2.134
 4982TIP3   OH214909   1.824   2.622   1.991
 4982TIP3    H114910   1.787   2.546   1.947
 4982TIP3    H214911   1.835   2.687   1.922
 4983TIP3   OH214912   5.997   0.912   3.018
 4983TIP3    H114913   6.030   0.930   3.106
 4983TIP3    H214914   6.062   0.853   2.979
 4984TIP3   OH214915   3.808   2.750   0.293
 4984TIP3    H114916   3.807   2.656   0.276
 4984TIP3    H214917   3.814   2.790   0.206
 4985TIP3   OH214918   4.899   3.752   4.667
 4985TIP3    H114919   4.909   3.658   4.683
 4985TIP3    H214920   4.827   3.758   4.605
 4986TIP3   OH214921   1.763   3.016  -0.025
 4986TIP3    H114922   1.758   2.936   0.026
 4986TIP3    H214923   1.674   3.031  -0.056
 4987TIP3   OH214924   2.576   5.060   2.519
 4987TIP3    H114925   2.552   5.018   2.437
 4987TIP3    H214926   2.495   5.060   2.570
 4988TIP3   OH214927   0.947   3.491   3.295
 4988TIP3    H114928   1.038   3.510   3.274
 4988TIP3    H214929   0.949   3.409   3.343
 4989TIP3   OH214930   7.209   0.824   1.681
 4989TIP3    H114931   7.191   0.813   1.775
 4989TIP3    H214932   7.227   0.736   1.649
 4990TIP3   OH214933   5.257   2.024   2.648
 4990TIP3    H114934   5.260   2.014   2.552
 4990TIP3    H214935   5.254   2.118   2.662
 4991TIP3   OH214936   3.155   5.803   2.005
 4991TIP3    H114937   3.216   5.732   1.986
 4991TIP3    H214938   3.185   5.876   1.951
 4992TIP3   OH214939   6.658   2.652   5.500
 4992TIP3    H114940   6.700   2.709   5.436
 4992TIP3    H214941   6.722   2.644   5.571
 4993TIP3   OH214942   6.605   4.221  -0.036
 4993TIP3    H114943   6.668   4.149  -0.034
 4993TIP3    H214944   6.632   4.278   0.036
 4994TIP3   OH214945   5.685   4.928   3.550
 4994TIP3    H114946   5.693   5.009   3.499
 4994TIP3    H214947   5.661   4.861   3.486
 4995TIP3   OH214948   7.064   3.171   4.204
 4995TIP3    H114949   7.072   3.150   4.111
 4995TIP3    H214950   7.005   3.105   4.239
 4996TIP3   OH214951   5.528   5.300   1.106
 4996TIP3    H114952   5.624   5.305   1.110
 4996TIP3    H214953   5.502   5.380   1.061
 4997TIP3   OH214954   1.721   1.522   0.013
 4997TIP3    H114955   1.740   1.494   0.103
 4997TIP3    H214956   1.785   1.477  -0.041
 4998TIP3   OH214957   2.108   4.145   4.904
 4998TIP3    H114958   2.079   4.196   4.828
 4998TIP3    H214959   2.126   4.210   4.972
 4999TIP3   OH214960   3.685   5.573   1.433
 4999TIP3    H114961   3.765   5.529   1.461
 4999TIP3    H214962   3.620   5.503   1.427
 5000TIP3   OH214963   2.832   3.596   2.657
 5000TIP3    H114964   2.906   3.604   2.596
 5000TIP3    H214965   2.839   3.674   2.712
 5001TIP3   OH214966   3.250   1.019   2.158
 5001TIP3    H114967   3.186   1.048   2.093
 5001TIP3    H214968   3.332   1.011   2.109
 5002TIP3   OH214969   3.839   4.121   0.526
 5002TIP3    H114970   3.929   4.152   0.539
 5002TIP3    H214971   3.801   4.183   0.464
 5003TIP3   OH214972   6.247   0.464   3.341
 5003TIP3    H114973   6.239   0.557   3.361
 5003TIP3    H214974   6.187   0.449   3.268
 5004TIP3   OH214975   3.903   1.067   2.076
 5004TIP3    H114976   3.833   1.007   2.050
 5004TIP3    H214977   3.871   1.107   2.156
 5005TIP3   OH214978   3.042   1.764   4.756
 5005TIP3    H114979   3.073   1.780   4.667
 5005TIP3    H214980   2.963   1.710   4.744
 5006TIP3   OH214981   4.962   3.004   1.096
 5006TIP3    H114982   4.958   2.911   1.071
 5006TIP3    H214983   5.005   3.004   1.181
 5007TIP3   OH214984   2.240   4.276   2.688
 5007TIP3    H114985   2.196   4.360   2.673
 5007TIP3    H214986   2.186   4.212   2.641
 5008TIP3   OH214987   2.781   3.323   2.695
 5008TIP3    H114988   2.711   3.324   2.630
 5008TIP3    H214989   2.813   3.413   2.698
 5009TIP3   OH214990   0.357   2.681   3.193
 5009TIP3    H114991   0.355   2.658   3.286
 5009TIP3    H214992   0.386   2.772   3.191
 5010TIP3   OH214993   0.718   2.042   4.651
 5010TIP3    H114994   0.661   2.073   4.580
 5010TIP3    H214995   0.704   2.106   4.721
 5011TIP3   OH214996   2.454   5.695   4.457
 5011TIP3    H114997   2.397   5.620   4.442
 5011TIP3    H214998   2.528   5.682   4.398
 5012TIP3   OH214999   2.155   5.355   4.224
 5012TIP3    H115000   2.123   5.266   4.237
 5012TIP3    H215001   2.105   5.389   4.149
 5013TIP3   OH215002   6.731   3.249   5.516
 5013TIP3    H115003   6.671   3.286   5.452
 5013TIP3    H215004   6.733   3.313   5.587
 5014TIP3   OH215005   5.392   0.502   3.629
 5014TIP3    H115006   5.316   0.517   3.686
 5014TIP3    H215007   5.465   0.545   3.673
 5015TIP3   OH215008   3.571   2.840   0.446
 5015TIP3    H115009   3.622   2.774   0.400
 5015TIP3    H215010   3.597   2.831   0.537
 5016TIP3   OH215011   5.403   5.700   4.447
 5016TIP3    H115012   5.438   5.653   4.522
 5016TIP3    H215013   5.457   5.670   4.373
 5017TIP3   OH215014   4.182   5.848   1.151
 5017TIP3    H115015   4.139   5.889   1.226
 5017TIP3    H215016   4.259   5.805   1.189
 5018TIP3   OH215017   0.158   2.694   4.384
 5018TIP3    H115018   0.228   2.658   4.439
 5018TIP3    H215019   0.078   2.656   4.420
 5019TIP3   OH215020   3.298   5.972   1.101
 5019TIP3    H115021   3.281   5.953   1.194
 5019TIP3    H215022   3.380   5.927   1.083
 5020TIP3   OH215023   2.098   4.578   2.905
 5020TIP3    H115024   2.155   4.515   2.948
 5020TIP3    H215025   2.134   4.663   2.929
 5021TIP3   OH215026   3.562   3.002   4.215
 5021TIP3    H115027   3.628   2.989   4.147
 5021TIP3    H215028   3.612   3.025   4.293
 5022TIP3   OH215029   2.692   1.180   0.354
 5022TIP3    H115030   2.773   1.211   0.312
 5022TIP3    H215031   2.633   1.255   0.348
 5023TIP3   OH215032   5.064   4.846   5.194
 5023TIP3    H115033   5.053   4.758   5.228
 5023TIP3    H215034   5.159   4.855   5.181
 5024TIP3   OH215035   4.194   5.566   3.273
 5024TIP3    H115036   4.169   5.483   3.313
 5024TIP3    H215037   4.289   5.569   3.284
 5025TIP3   OH215038   6.954   2.145   5.421
 5025TIP3    H115039   7.001   2.153   5.338
 5025TIP3    H215040   7.022   2.123   5.485
 5026TIP3   OH215041   7.165   6.361   4.907
 5026TIP3    H115042   7.164   6.456   4.920
 5026TIP3    H215043   7.073   6.335   4.917
 5027TIP3   OH215044   1.354   5.753   3.454
 5027TIP3    H115045   1.442   5.788   3.440
 5027TIP3    H215046   1.369   5.670   3.500
 5028TIP3   OH215047   0.789   3.286   2.978
 5028TIP3    H115048   0.826   3.355   3.034
 5028TIP3    H215049   0.834   3.206   3.006
 5029TIP3   OH215050   6.932   5.369   2.711
 5029TIP3    H115051   7.004   5.345   2.654
 5029TIP3    H215052   6.942   5.312   2.787
 5030TIP3   OH215053   6.723   3.194   3.407
 5030TIP3    H115054   6.679   3.111   3.390
 5030TIP3    H215055   6.725   3.202   3.502
 5031TIP3   OH215056   2.855   4.968   3.641
 5031TIP3    H115057   2.931   4.924   3.603
 5031TIP3    H215058   2.888   5.008   3.721
 5032TIP3   OH215059   2.543   1.534   4.786
 5032TIP3    H115060   2.477   1.573   4.728
 5032TIP3    H215061   2.594   1.477   4.729
 5033TIP3   OH215062   3.705   5.740   3.807
 5033TIP3    H115063   3.737   5.809   3.866
 5033TIP3    H215064   3.677   5.787   3.728
 5034TIP3   OH215065   1.945   4.010   1.733
 5034TIP3    H115066   1.943   3.993   1.639
 5034TIP3    H215067   1.871   3.961   1.768
 5035TIP3   OH215068   4.165   6.249   1.107
 5035TIP3    H115069   4.187   6.193   1.182
 5035TIP3    H215070   4.121   6.190   1.046
 5036TIP3   OH215071   3.882   3.097   3.871
 5036TIP3    H115072   3.858   3.183   3.906
 5036TIP3    H215073   3.839   3.093   3.786
 5037TIP3   OH215074   0.185   6.418   0.253
 5037TIP3    H115075   0.244   6.350   0.218
 5037TIP3    H215076   0.214   6.429   0.344
 5038TIP3   OH215077   6.754   2.272   3.968
 5038TIP3    H115078   6.685   2.207   3.958
 5038TIP3    H215079   6.809   2.239   4.039
 5039TIP3   OH215080   3.146   2.719   2.762
 5039TIP3    H115081   3.150   2.809   2.731
 5039TIP3    H215082   3.100   2.672   2.692
 5040TIP3   OH215083   0.624   2.298   4.115
 5040TIP3    H115084   0.711   2.323   4.086
 5040TIP3    H215085   0.639   2.221   4.171
 5041TIP3   OH215086   0.313   5.954   1.476
 5041TIP3    H115087   0.352   5.952   1.389
 5041TIP3    H215088   0.223   5.924   1.463
 5042TIP3   OH215089   6.772   1.527   2.566
 5042TIP3    H115090   6.740   1.459   2.507
 5042TIP3    H215091   6.753   1.609   2.521
 5043TIP3   OH215092   0.117   4.817   1.462
 5043TIP3    H115093   0.123   4.912   1.472
 5043TIP3    H215094   0.120   4.803   1.367
 5044TIP3   OH215095   5.166   3.119   3.375
 5044TIP3    H115096   5.111   3.089   3.303
 5044TIP3    H215097   5.106   3.167   3.433
 5045TIP3   OH215098   6.968   5.352   5.514
 5045TIP3    H115099   6.922   5.364   5.431
 5045TIP3    H215100   6.903   5.372   5.581
 5046TIP3   OH215101   1.716   1.582   3.008
 5046TIP3    H115102   1.777   1.613   2.941
 5046TIP3    H215103   1.663   1.515   2.963
 5047TIP3   OH215104   7.285   0.707   4.755
 5047TIP3    H115105   7.206   0.745   4.718
 5047TIP3    H215106   7.292   0.747   4.842
 5048TIP3   OH215107   3.701   4.274   4.723
 5048TIP3    H115108   3.607   4.258   4.709
 5048TIP3    H215109   3.718   4.356   4.677
 5049TIP3   OH215110   6.292   2.364   2.426
 5049TIP3    H115111   6.374   2.370   2.376
 5049TIP3    H215112   6.242   2.296   2.382
 5050TIP3   OH215113   6.033   2.063   3.527
 5050TIP3    H115114   5.949   2.092   3.563
 5050TIP3    H215115   6.084   2.143   3.517
 5051TIP3   OH215116   4.234   0.713   0.994
 5051TIP3    H115117   4.217   0.670   1.078
 5051TIP3    H215118   4.200   0.802   1.005
 5052TIP3   OH215119   2.443   4.724   5.104
 5052TIP3    H115120   2.497   4.803   5.100
 5052TIP3    H215121   2.363   4.747   5.058
 5053TIP3   OH215122   3.439   1.441   1.734
 5053TIP3    H115123   3.412   1.427   1.643
 5053TIP3    H215124   3.453   1.536   1.740
 5054TIP3   OH215125   2.487   4.555   4.358
 5054TIP3    H115126   2.399   4.574   4.390
 5054TIP3    H215127   2.488   4.588   4.269
 5055TIP3   OH215128   2.646   6.501   1.535
 5055TIP3    H115129   2.580   6.452   1.486
 5055TIP3    H215130   2.679   6.438   1.599
 5056TIP3   OH215131   4.651   0.758   5.092
 5056TIP3    H115132   4.700   0.764   5.174
 5056TIP3    H215133   4.642   0.664   5.077
 5057TIP3   OH215134   5.320   5.485   3.024
 5057TIP3    H115135   5.371   5.416   2.982
 5057TIP3    H215136   5.375   5.563   3.017
 5058TIP3   OH215137   1.402   3.306   2.814
 5058TIP3    H115138   1.389   3.213   2.794
 5058TIP3    H215139   1.389   3.351   2.731
 5059TIP3   OH215140   0.575   2.866   1.888
 5059TIP3    H115141   0.547   2.915   1.965
 5059TIP3    H215142   0.600   2.780   1.923
 5060TIP3   OH215143   2.842   3.224   0.755
 5060TIP3    H115144   2.882   3.305   0.725
 5060TIP3    H215145   2.861   3.161   0.685
 5061TIP3   OH215146   0.653   6.649   3.312
 5061TIP3    H115147   0.705   6.650   3.231
 5061TIP3    H215148   0.717   6.665   3.381
 5062TIP3   OH215149   4.802   2.531   2.491
 5062TIP3    H115150   4.847   2.448   2.505
 5062TIP3    H215151   4.745   2.516   2.416
 5063TIP3   OH215152   2.708   5.581   5.259
 5063TIP3    H115153   2.719   5.494   5.222
 5063TIP3    H215154   2.623   5.611   5.227
 5064TIP3   OH215155   3.236   2.424   4.737
 5064TIP3    H115156   3.302   2.488   4.764
 5064TIP3    H215157   3.278   2.339   4.751
 5065TIP3   OH215158   1.668   5.126   5.056
 5065TIP3    H115159   1.751   5.108   5.100
 5065TIP3    H215160   1.633   5.203   5.099
 5066TIP3   OH215161   3.213   3.827   4.200
 5066TIP3    H115162   3.251   3.857   4.283
 5066TIP3    H215163   3.268   3.868   4.133
 5067TIP3   OH215164   2.720   4.124   2.055
 5067TIP3    H115165   2.719   4.110   2.149
 5067TIP3    H215166   2.636   4.166   2.036
 5068TIP3   OH215167   6.055   4.371   2.444
 5068TIP3    H115168   6.022   4.302   2.387
 5068TIP3    H215169   6.041   4.340   2.533
 5069TIP3   OH215170   1.318   1.463   4.424
 5069TIP3    H115171   1.272   1.463   4.340
 5069TIP3    H215172   1.365   1.547   4.426
 5070TIP3   OH215173   3.696   5.055   3.509
 5070TIP3    H115174   3.611   5.040   3.552
 5070TIP3    H215175   3.729   4.968   3.489
 5071TIP3   OH215176   5.692   1.274   5.713
 5071TIP3    H115177   5.607   1.285   5.671
 5071TIP3    H215178   5.738   1.212   5.657
 5072TIP3   OH215179   3.804   0.230   2.596
 5072TIP3    H115180   3.772   0.320   2.589
 5072TIP3    H215181   3.744   0.179   2.542
 5073TIP3   OH215182   5.713   3.416   0.467
 5073TIP3    H115183   5.711   3.429   0.372
 5073TIP3    H215184   5.769   3.486   0.500
 5074TIP3   OH215185   3.660   3.161   3.210
 5074TIP3    H115186   3.596   3.127   3.147
 5074TIP3    H215187   3.625   3.139   3.296
 5075TIP3   OH215188   1.402   5.365   3.005
 5075TIP3    H115189   1.363   5.418   2.935
 5075TIP3    H215190   1.327   5.332   3.055
 5076TIP3   OH215191   4.564   6.013   4.729
 5076TIP3    H115192   4.526   6.099   4.745
 5076TIP3    H215193   4.659   6.027   4.731
 5077TIP3   OH215194   0.609   4.362   5.448
 5077TIP3    H115195   0.638   4.270   5.442
 5077TIP3    H215196   0.543   4.370   5.379
 5078TIP3   OH215197   2.822   4.957   3.199
 5078TIP3    H115198   2.832   5.049   3.224
 5078TIP3    H215199   2.813   4.911   3.282
 5079TIP3   OH215200   3.724   5.576   3.473
 5079TIP3    H115201   3.631   5.553   3.475
 5079TIP3    H215202   3.768   5.501   3.514
 5080TIP3   OH215203   0.439   4.326   5.689
 5080TIP3    H115204   0.421   4.416   5.716
 5080TIP3    H215205   0.447   4.331   5.593
 5081TIP3   OH215206   5.721   4.240   5.134
 5081TIP3    H115207   5.694   4.293   5.059
 5081TIP3    H215208   5.640   4.225   5.183
 5082TIP3   OH215209   0.039   5.743   4.234
 5082TIP3    H115210   0.103   5.671   4.241
 5082TIP3    H215211   0.073   5.810   4.293
 5083TIP3   OH215212   4.781   4.166   0.707
 5083TIP3    H115213   4.852   4.178   0.644
 5083TIP3    H215214   4.725   4.243   0.695
 5084TIP3   OH215215   6.989   2.811   3.374
 5084TIP3    H115216   7.065   2.821   3.317
 5084TIP3    H215217   6.928   2.879   3.344
 5085TIP3   OH215218   4.186   2.035   2.350
 5085TIP3    H115219   4.243   2.100   2.391
 5085TIP3    H215220   4.140   2.085   2.282
 5086TIP3   OH215221   6.892   1.554   1.789
 5086TIP3    H115222   6.924   1.508   1.866
 5086TIP3    H215223   6.845   1.630   1.824
 5087TIP3   OH215224   6.478   1.408   3.201
 5087TIP3    H115225   6.444   1.381   3.116
 5087TIP3    H215226   6.514   1.495   3.186
 5088TIP3   OH215227   5.043   2.304   4.591
 5088TIP3    H115228   5.118   2.262   4.633
 5088TIP3    H215229   5.009   2.364   4.657
 5089TIP3   OH215230   0.430   2.892   3.537
 5089TIP3    H115231   0.465   2.853   3.617
 5089TIP3    H215232   0.335   2.889   3.549
 5090TIP3   OH215233   4.325   4.175   3.838
 5090TIP3    H115234   4.248   4.197   3.786
 5090TIP3    H215235   4.358   4.093   3.801
 5091TIP3   OH215236   1.010   2.400   4.416
 5091TIP3    H115237   1.074   2.417   4.347
 5091TIP3    H215238   0.951   2.475   4.412
 5092TIP3   OH215239   5.564   0.093   5.535
 5092TIP3    H115240   5.499   0.080   5.466
 5092TIP3    H215241   5.641   0.046   5.503
 5093TIP3   OH215242   1.683   1.678   0.875
 5093TIP3    H115243   1.753   1.705   0.934
 5093TIP3    H215244   1.657   1.759   0.830
 5094TIP3   OH215245   1.729   3.055   4.545
 5094TIP3    H115246   1.808   3.068   4.598
 5094TIP3    H215247   1.700   3.144   4.525
 5095TIP3   OH215248   5.922   3.724   1.045
 5095TIP3    H115249   5.922   3.632   1.072
 5095TIP3    H215250   5.846   3.762   1.089
 5096TIP3   OH215251   5.959   6.235   0.362
 5096TIP3    H115252   5.978   6.328   0.375
 5096TIP3    H215253   5.874   6.222   0.404
 5097TIP3   OH215254   6.600   1.119   2.036
 5097TIP3    H115255   6.542   1.143   2.107
 5097TIP3    H215256   6.655   1.049   2.072
 5098TIP3   OH215257   5.003   2.977   1.775
 5098TIP3    H115258   5.022   2.902   1.832
 5098TIP3    H215259   4.938   3.028   1.823
 5099TIP3   OH215260   3.971   3.486   4.237
 5099TIP3    H115261   4.053   3.439   4.255
 5099TIP3    H215262   3.925   3.487   4.321
 5100TIP3   OH215263   0.842   2.627   4.022
 5100TIP3    H115264   0.833   2.722   4.016
 5100TIP3    H215265   0.883   2.602   3.940
 5101TIP3   OH215266   3.946   1.584   4.311
 5101TIP3    H115267   3.894   1.517   4.355
 5101TIP3    H215268   3.889   1.617   4.241
 5102TIP3   OH215269   3.540   6.121   1.203
 5102TIP3    H115270   3.449   6.096   1.217
 5102TIP3    H215271   3.583   6.107   1.287
 5103TIP3   OH215272   1.990   3.261   5.168
 5103TIP3    H115273   1.923   3.329   5.164
 5103TIP3    H215274   2.053   3.293   5.233
 5104TIP3   OH215275   4.634   1.949   0.625
 5104TIP3    H115276   4.706   1.934   0.564
 5104TIP3    H215277   4.670   1.925   0.711
 5105TIP3   OH215278   2.925   4.265   1.292
 5105TIP3    H115279   2.991   4.245   1.358
 5105TIP3    H215280   2.974   4.310   1.222
 5106TIP3   OH215281   0.139   0.088   5.065
 5106TIP3    H115282   0.126   0.125   4.978
 5106TIP3    H215283   0.202   0.147   5.107
 5107TIP3   OH215284   6.266   3.158   1.216
 5107TIP3    H115285   6.214   3.237   1.207
 5107TIP3    H215286   6.357   3.187   1.205
 5108TIP3   OH215287   4.453   5.356   1.256
 5108TIP3    H115288   4.406   5.317   1.330
 5108TIP3    H215289   4.544   5.329   1.269
 5109TIP3   OH215290   3.815   4.394   4.040
 5109TIP3    H115291   3.862   4.397   4.124
 5109TIP3    H215292   3.775   4.307   4.038
 5110TIP3   OH215293   6.332   2.080   5.017
 5110TIP3    H115294   6.330   2.057   5.110
 5110TIP3    H215295   6.425   2.090   4.997
 5111TIP3   OH215296   5.517   3.009   2.280
 5111TIP3    H115297   5.491   3.004   2.188
 5111TIP3    H215298   5.571   3.087   2.286
 5112TIP3   OH215299   5.990   3.976   2.803
 5112TIP3    H115300   6.017   3.960   2.893
 5112TIP3    H215301   6.050   3.924   2.750
 5113TIP3   OH215302   4.968   0.478   2.133
 5113TIP3    H115303   4.932   0.567   2.130
 5113TIP3    H215304   4.971   0.457   2.226
 5114TIP3   OH215305   5.912   3.573   3.410
 5114TIP3    H115306   5.913   3.667   3.426
 5114TIP3    H215307   5.987   3.557   3.353
 5115TIP3   OH215308   2.662   6.442   0.572
 5115TIP3    H115309   2.648   6.357   0.614
 5115TIP3    H215310   2.721   6.488   0.631
 5116TIP3   OH215311   4.232   0.440   0.148
 5116TIP3    H115312   4.176   0.426   0.224
 5116TIP3    H215313   4.245   0.352   0.112
 5117TIP3   OH215314   4.458   2.188   4.275
 5117TIP3    H115315   4.429   2.178   4.366
 5117TIP3    H215316   4.490   2.101   4.251
 5118TIP3   OH215317   1.364   6.732   5.645
 5118TIP3    H115318   1.269   6.724   5.637
 5118TIP3    H215319   1.379   6.826   5.658
 5119TIP3   OH215320   7.007   2.292   3.195
 5119TIP3    H115321   6.922   2.259   3.167
 5119TIP3    H215322   6.988   2.376   3.236
 5120TIP3   OH215323   4.086   6.604   1.758
 5120TIP3    H115324   4.050   6.607   1.846
 5120TIP3    H215325   4.162   6.545   1.765
 5121TIP3   OH215326   6.855   1.750   0.013
 5121TIP3    H115327   6.907   1.826  -0.013
 5121TIP3    H215328   6.871   1.741   0.107
 5122TIP3   OH215329   1.385   5.920   0.640
 5122TIP3    H115330   1.321   5.888   0.704
 5122TIP3    H215331   1.352   5.889   0.556
 5123TIP3   OH215332   1.844   4.260   5.287
 5123TIP3    H115333   1.782   4.227   5.221
 5123TIP3    H215334   1.790   4.306   5.350
 5124TIP3   OH215335   1.271   6.091   3.719
 5124TIP3    H115336   1.341   6.114   3.658
 5124TIP3    H215337   1.217   6.028   3.671
 5125TIP3   OH215338   5.121   1.264   5.455
 5125TIP3    H115339   5.127   1.359   5.448
 5125TIP3    H215340   5.064   1.238   5.383
 5126TIP3   OH215341   2.900   4.021   3.644
 5126TIP3    H115342   2.816   3.987   3.613
 5126TIP3    H215343   2.958   3.944   3.644
 5127TIP3   OH215344   3.719   0.874   4.051
 5127TIP3    H115345   3.790   0.910   3.998
 5127TIP3    H215346   3.646   0.863   3.990
 5128TIP3   OH215347   1.414   5.167   1.380
 5128TIP3    H115348   1.401   5.247   1.432
 5128TIP3    H215349   1.490   5.187   1.324
 5129TIP3   OH215350   3.345   2.516   0.183
 5129TIP3    H115351   3.302   2.455   0.243
 5129TIP3    H215352   3.276   2.578   0.158
 5130TIP3   OH215353   2.700   2.816   0.611
 5130TIP3    H115354   2.726   2.869   0.536
 5130TIP3    H215355   2.673   2.733   0.573
 5131TIP3   OH215356   2.975   5.852   0.708
 5131TIP3    H115357   3.024   5.794   0.649
 5131TIP3    H215358   3.014   5.939   0.693
 5132TIP3   OH215359   5.653   2.633   0.609
 5132TIP3    H115360   5.744   2.656   0.590
 5132TIP3    H215361   5.659   2.566   0.678
 5133TIP3   OH215362   3.711   6.401   4.048
 5133TIP3    H115363   3.652   6.476   4.060
 5133TIP3    H215364   3.779   6.433   3.990
 5134TIP3   OH215365   2.545   0.528   4.564
 5134TIP3    H115366   2.515   0.598   4.622
 5134TIP3    H215367   2.609   0.571   4.507
 5135TIP3   OH215368   2.849   2.243   4.106
 5135TIP3    H115369   2.796   2.242   4.026
 5135TIP3    H215370   2.864   2.336   4.123
 5136TIP3   OH215371   0.755   1.598   0.227
 5136TIP3    H115372   0.700   1.628   0.299
 5136TIP3    H215373   0.701   1.607   0.149
 5137TIP3   OH215374   3.817   5.582   4.522
 5137TIP3    H115375   3.730   5.583   4.563
 5137TIP3    H215376   3.803   5.618   4.434
 5138TIP3   OH215377   5.217   0.081   1.742
 5138TIP3    H115378   5.260   0.085   1.656
 5138TIP3    H215379   5.257   0.153   1.792
 5139TIP3   OH215380   5.728   4.973   4.549
 5139TIP3    H115381   5.647   4.978   4.599
 5139TIP3    H215382   5.701   4.959   4.459
 5140TIP3   OH215383   4.761   3.124   3.128
 5140TIP3    H115384   4.713   3.182   3.187
 5140TIP3    H215385   4.776   3.045   3.180
 5141TIP3   OH215386   0.414   4.846   2.933
 5141TIP3    H115387   0.456   4.760   2.938
 5141TIP3    H215388   0.487   4.908   2.937
 5142TIP3   OH215389   4.991   3.157   2.600
 5142TIP3    H115390   4.972   3.250   2.596
 5142TIP3    H215391   4.914   3.117   2.639
 5143TIP3   OH215392   6.505   0.149   5.900
 5143TIP3    H115393   6.506   0.061   5.862
 5143TIP3    H215394   6.412   0.170   5.910
 5144TIP3   OH215395   2.916   4.397   3.115
 5144TIP3    H115396   2.921   4.483   3.074
 5144TIP3    H215397   2.994   4.392   3.170
 5145TIP3   OH215398   1.441   0.882   2.722
 5145TIP3    H115399   1.372   0.847   2.779
 5145TIP3    H215400   1.395   0.931   2.655
 5146TIP3   OH215401   3.465   1.343   5.448
 5146TIP3    H115402   3.496   1.332   5.358
 5146TIP3    H215403   3.544   1.367   5.497
 5147TIP3   OH215404   4.697   5.272   1.339
 5147TIP3    H115405   4.753   5.229   1.274
 5147TIP3    H215406   4.660   5.200   1.390
 5148TIP3   OH215407   3.481   6.511   5.387
 5148TIP3    H115408   3.431   6.436   5.352
 5148TIP3    H215409   3.562   6.472   5.421
 5149TIP3   OH215410   0.399   3.535   5.457
 5149TIP3    H115411   0.342   3.592   5.508
 5149TIP3    H215412   0.377   3.447   5.487
 5150TIP3   OH215413   5.479   0.001   3.599
 5150TIP3    H115414   5.447   0.038   3.517
 5150TIP3    H215415   5.529   0.073   3.640
 5151TIP3   OH215416   4.839   1.656   2.175
 5151TIP3    H115417   4.773   1.696   2.233
 5151TIP3    H215418   4.880   1.731   2.131
 5152TIP3   OH215419   3.415   1.195   1.114
 5152TIP3    H115420   3.485   1.224   1.055
 5152TIP3    H215421   3.368   1.276   1.137
 5153TIP3   OH215422   4.641   1.883   2.720
 5153TIP3    H115423   4.566   1.912   2.772
 5153TIP3    H215424   4.713   1.939   2.748
 5154TIP3   OH215425   2.524   2.221   2.351
 5154TIP3    H115426   2.433   2.253   2.350
 5154TIP3    H215427   2.554   2.238   2.440
 5155TIP3   OH215428   3.252   0.804   4.690
 5155TIP3    H115429   3.196   0.879   4.708
 5155TIP3    H215430   3.331   0.820   4.740
 5156TIP3   OH215431   2.673   1.399   4.063
 5156TIP3    H115432   2.701   1.488   4.083
 5156TIP3    H215433   2.738   1.365   4.002
 5157TIP3   OH215434   6.555   0.766   0.847
 5157TIP3    H115435   6.493   0.827   0.807
 5157TIP3    H215436   6.634   0.818   0.861
 5158TIP3   OH215437   0.117   1.797   0.549
 5158TIP3    H115438   0.059   1.837   0.614
 5158TIP3    H215439   0.065   1.726   0.511
 5159TIP3   OH215440   3.044   3.788   3.648
 5159TIP3    H115441   3.084   3.804   3.733
 5159TIP3    H215442   3.078   3.703   3.621
 5160TIP3   OH215443   6.524   2.890   4.365
 5160TIP3    H115444   6.484   2.977   4.372
 5160TIP3    H215445   6.579   2.884   4.444
 5161TIP3   OH215446   1.884   3.820   2.914
 5161TIP3    H115447   1.794   3.846   2.897
 5161TIP3    H215448   1.899   3.842   3.006
 5162TIP3   OH215449   4.113   2.576   4.744
 5162TIP3    H115450   4.144   2.624   4.668
 5162TIP3    H215451   4.164   2.495   4.744
 5163TIP3   OH215452   6.026   0.977   4.531
 5163TIP3    H115453   5.964   1.000   4.600
 5163TIP3    H215454   6.110   0.966   4.577
 5164TIP3   OH215455   2.661   0.792   2.718
 5164TIP3    H115456   2.665   0.870   2.663
 5164TIP3    H215457   2.716   0.728   2.673
 5165TIP3   OH215458   2.110   3.356   2.638
 5165TIP3    H115459   2.042   3.344   2.705
 5165TIP3    H215460   2.139   3.447   2.649
 5166TIP3   OH215461   0.923   3.923   4.572
 5166TIP3    H115462   0.994   3.866   4.600
 5166TIP3    H215463   0.888   3.959   4.654
 5167TIP3   OH215464   2.259   0.146   4.798
 5167TIP3    H115465   2.328   0.168   4.735
 5167TIP3    H215466   2.270   0.210   4.868
 5168TIP3   OH215467   3.851   3.058   2.093
 5168TIP3    H115468   3.868   2.996   2.022
 5168TIP3    H215469   3.759   3.082   2.082
 5169TIP3   OH215470   4.310   5.465   5.631
 5169TIP3    H115471   4.222   5.480   5.664
 5169TIP3    H215472   4.297   5.416   5.550
 5170TIP3   OH215473   1.694   6.067   5.587
 5170TIP3    H115474   1.749   6.061   5.665
 5170TIP3    H215475   1.690   6.160   5.567
 5171TIP3   OH215476   2.457   6.142   3.443
 5171TIP3    H115477   2.444   6.109   3.354
 5171TIP3    H215478   2.401   6.086   3.497
 5172TIP3   OH215479   1.533   2.456   2.154
 5172TIP3    H115480   1.505   2.449   2.063
 5172TIP3    H215481   1.459   2.421   2.204
 5173TIP3   OH215482   0.695   0.543   5.263
 5173TIP3    H115483   0.645   0.534   5.344
 5173TIP3    H215484   0.776   0.586   5.289
 5174TIP3   OH215485   6.122   3.853   1.921
 5174TIP3    H115486   6.142   3.889   1.835
 5174TIP3    H215487   6.064   3.779   1.903
 5175TIP3   OH215488   0.734   3.371   4.825
 5175TIP3    H115489   0.824   3.343   4.811
 5175TIP3    H215490   0.712   3.339   4.912
 5176TIP3   OH215491   6.186   3.652   2.919
 5176TIP3    H115492   6.192   3.716   2.990
 5176TIP3    H215493   6.194   3.704   2.839
 5177TIP3   OH215494   3.969   1.532   1.864
 5177TIP3    H115495   3.888   1.489   1.892
 5177TIP3    H215496   3.988   1.494   1.778
 5178TIP3   OH215497   2.092   2.017   3.784
 5178TIP3    H115498   2.149   1.968   3.844
 5178TIP3    H215499   2.145   2.031   3.706
 5179TIP3   OH215500   0.949   1.741   1.862
 5179TIP3    H115501   0.886   1.768   1.929
 5179TIP3    H215502   0.938   1.647   1.855
 5180TIP3   OH215503   5.368   6.155   3.056
 5180TIP3    H115504   5.273   6.161   3.056
 5180TIP3    H215505   5.397   6.246   3.048
 5181TIP3   OH215506   1.278   1.798   0.367
 5181TIP3    H115507   1.287   1.705   0.345
 5181TIP3    H215508   1.192   1.823   0.333
 5182TIP3   OH215509   6.082   3.948   3.047
 5182TIP3    H115510   6.149   3.892   3.086
 5182TIP3    H215511   6.086   4.030   3.097
 5183TIP3   OH215512   1.790   4.976   5.785
 5183TIP3    H115513   1.723   4.934   5.732
 5183TIP3    H215514   1.764   4.958   5.876
 5184TIP3   OH215515   6.575   4.660   5.479
 5184TIP3    H115516   6.606   4.739   5.523
 5184TIP3    H215517   6.653   4.623   5.437
 5185TIP3   OH215518   6.128   2.125   5.659
 5185TIP3    H115519   6.156   2.162   5.575
 5185TIP3    H215520   6.108   2.202   5.713
 5186TIP3   OH215521   5.775   2.223   3.639
 5186TIP3    H115522   5.705   2.176   3.683
 5186TIP3    H215523   5.733   2.301   3.603
 5187TIP3   OH215524   1.594   2.635   5.194
 5187TIP3    H115525   1.655   2.593   5.133
 5187TIP3    H215526   1.640   2.635   5.278
 5188TIP3   OH215527   4.919   4.877   1.082
 5188TIP3    H115528   4.994   4.852   1.136
 5188TIP3    H215529   4.937   4.838   0.997
 5189TIP3   OH215530   5.554   3.442   5.195
 5189TIP3    H115531   5.600   3.522   5.169
 5189TIP3    H215532   5.462   3.469   5.204
 5190TIP3   OH215533   0.302   2.625   4.596
 5190TIP3    H115534   0.326   2.532   4.601
 5190TIP3    H215535   0.221   2.632   4.647
 5191TIP3   OH215536   6.888   1.475   0.249
 5191TIP3    H115537   6.815   1.427   0.210
 5191TIP3    H215538   6.862   1.491   0.339
 5192TIP3   OH215539   6.867   5.591   2.851
 5192TIP3    H115540   6.793   5.556   2.900
 5192TIP3    H215541   6.884   5.526   2.783
 5193TIP3   OH215542   0.857   0.168   5.146
 5193TIP3    H115543   0.774   0.137   5.182
 5193TIP3    H215544   0.832   0.242   5.089
 5194TIP3   OH215545   4.331   2.693   5.322
 5194TIP3    H115546   4.268   2.762   5.343
 5194TIP3    H215547   4.284   2.612   5.339
 5195TIP3   OH215548   7.142   1.550   3.975
 5195TIP3    H115549   7.177   1.464   3.998
 5195TIP3    H215550   7.216   1.610   3.985
 5196TIP3   OH215551   6.902   5.989   2.661
 5196TIP3    H115552   6.859   6.051   2.602
 5196TIP3    H215553   6.838   5.972   2.730
 5197TIP3   OH215554   6.303   2.494   4.022
 5197TIP3    H115555   6.397   2.514   4.026
 5197TIP3    H215556   6.295   2.407   4.061
 5198TIP3   OH215557   0.644   0.220   3.389
 5198TIP3    H115558   0.569   0.174   3.426
 5198TIP3    H215559   0.673   0.278   3.458
 5199TIP3   OH215560   5.317   1.226   4.910
 5199TIP3    H115561   5.261   1.299   4.883
 5199TIP3    H215562   5.327   1.236   5.004
 5200TIP3   OH215563   2.869   2.829   3.767
 5200TIP3    H115564   2.921   2.882   3.706
 5200TIP3    H215565   2.782   2.868   3.764
 5201TIP3   OH215566   3.200   0.637   5.781
 5201TIP3    H115567   3.285   0.682   5.778
 5201TIP3    H215568   3.141   0.701   5.822
 5202TIP3   OH215569   3.602   5.209   5.229
 5202TIP3    H115570   3.537   5.165   5.175
 5202TIP3    H215571   3.561   5.215   5.315
 5203TIP3   OH215572   0.438   4.341   3.015
 5203TIP3    H115573   0.479   4.269   3.064
 5203TIP3    H215574   0.384   4.298   2.949
 5204TIP3   OH215575   2.279   3.701   0.680
 5204TIP3    H115576   2.203   3.680   0.626
 5204TIP3    H215577   2.353   3.663   0.633
 5205TIP3   OH215578   7.146   5.239   4.625
 5205TIP3    H115579   7.094   5.167   4.591
 5205TIP3    H215580   7.203   5.264   4.552
 5206TIP3   OH215581   3.844   1.527   2.978
 5206TIP3    H115582   3.846   1.539   2.883
 5206TIP3    H215583   3.782   1.456   2.992
 5207TIP3   OH215584   5.208   0.759   4.847
 5207TIP3    H115585   5.268   0.786   4.916
 5207TIP3    H215586   5.189   0.667   4.865
 5208TIP3   OH215587   4.369   4.044   5.308
 5208TIP3    H115588   4.416   4.127   5.314
 5208TIP3    H215589   4.353   4.018   5.398
 5209TIP3   OH215590   4.286   1.912   0.379
 5209TIP3    H115591   4.234   1.991   0.394
 5209TIP3    H215592   4.283   1.865   0.462
 5210TIP3   OH215593   0.388   3.782   5.727
 5210TIP3    H115594   0.407   3.807   5.636
 5210TIP3    H215595   0.308   3.730   5.721
 5211TIP3   OH215596   4.370   0.122   2.118
 5211TIP3    H115597   4.301   0.098   2.056
 5211TIP3    H215598   4.333   0.193   2.169
 5212TIP3   OH215599   3.752   3.762   3.205
 5212TIP3    H115600   3.831   3.816   3.194
 5212TIP3    H215601   3.719   3.749   3.117
 5213TIP3   OH215602   1.115   2.743   5.334
 5213TIP3    H115603   1.134   2.828   5.294
 5213TIP3    H215604   1.199   2.698   5.335
 5214TIP3   OH215605   6.860   5.685   1.596
 5214TIP3    H115606   6.925   5.734   1.546
 5214TIP3    H215607   6.781   5.689   1.543
 5215TIP3   OH215608   1.200   5.906   3.939
 5215TIP3    H115609   1.150   5.973   3.985
 5215TIP3    H215610   1.217   5.944   3.853
 5216TIP3   OH215611   6.758   5.334   4.077
 5216TIP3    H115612   6.800   5.389   4.012
 5216TIP3    H215613   6.781   5.244   4.051
 5217TIP3   OH215614   3.207   3.346   4.809
 5217TIP3    H115615   3.263   3.301   4.745
 5217TIP3    H215616   3.268   3.393   4.865
 5218TIP3   OH215617   6.161   5.096   5.606
 5218TIP3    H115618   6.138   5.053   5.524
 5218TIP3    H215619   6.078   5.108   5.652
 5219TIP3   OH215620   4.512   6.337   3.301
 5219TIP3    H115621   4.604   6.354   3.281
 5219TIP3    H215622   4.515   6.272   3.371
 5220TIP3   OH215623   4.830   0.995   0.944
 5220TIP3    H115624   4.813   0.901   0.939
 5220TIP3    H215625   4.920   1.005   0.911
 5221TIP3   OH215626   4.631   3.417   1.529
 5221TIP3    H115627   4.541   3.446   1.544
 5221TIP3    H215628   4.632   3.389   1.438
 5222TIP3   OH215629   3.907   2.279   3.452
 5222TIP3    H115630   3.904   2.196   3.403
 5222TIP3    H215631   3.943   2.342   3.389
 5223TIP3   OH215632   3.545   4.308   2.083
 5223TIP3    H115633   3.551   4.324   2.177
 5223TIP3    H215634   3.452   4.289   2.068
 5224TIP3   OH215635   6.918   6.160   3.547
 5224TIP3    H115636   6.986   6.206   3.498
 5224TIP3    H215637   6.955   6.073   3.564
 5225TIP3   OH215638   4.713   1.999   3.342
 5225TIP3    H115639   4.776   1.947   3.390
 5225TIP3    H215640   4.661   2.043   3.409
 5226TIP3   OH215641   2.576   6.836   1.306
 5226TIP3    H115642   2.509   6.814   1.371
 5226TIP3    H215643   2.615   6.918   1.338
 5227TIP3   OH215644   3.057   2.714   4.592
 5227TIP3    H115645   2.981   2.655   4.591
 5227TIP3    H215646   3.103   2.693   4.673
 5228TIP3   OH215647   4.839   3.348   0.648
 5228TIP3    H115648   4.933   3.366   0.637
 5228TIP3    H215649   4.832   3.308   0.734
 5229TIP3   OH215650   2.210   0.483   2.070
 5229TIP3    H115651   2.149   0.556   2.062
 5229TIP3    H215652   2.154   0.405   2.064
 5230TIP3   OH215653   5.451   1.275   2.478
 5230TIP3    H115654   5.406   1.303   2.558
 5230TIP3    H215655   5.532   1.235   2.509
 5231TIP3   OH215656   3.151   0.900   1.802
 5231TIP3    H115657   3.098   0.961   1.853
 5231TIP3    H215658   3.211   0.956   1.754
 5232TIP3   OH215659   3.990   6.308   4.504
 5232TIP3    H115660   4.018   6.245   4.570
 5232TIP3    H215661   3.906   6.274   4.472
 5233TIP3   OH215662   4.017   3.169   1.854
 5233TIP3    H115663   4.082   3.102   1.833
 5233TIP3    H215664   4.056   3.219   1.926
 5234TIP3   OH215665   2.914   5.576   1.022
 5234TIP3    H115666   2.870   5.492   1.035
 5234TIP3    H215667   2.902   5.595   0.929
 5235TIP3   OH215668   7.072   4.859   5.161
 5235TIP3    H115669   7.028   4.782   5.124
 5235TIP3    H215670   7.099   4.832   5.249
 5236TIP3   OH215671   2.529   6.756   2.529
 5236TIP3    H115672   2.575   6.731   2.449
 5236TIP3    H215673   2.474   6.830   2.503
 5237TIP3   OH215674   0.037   2.341   3.008
 5237TIP3    H115675  -0.012   2.378   3.082
 5237TIP3    H215676   0.110   2.401   2.995
 5238TIP3   OH215677   1.364   6.831   4.084
 5238TIP3    H115678   1.354   6.824   3.989
 5238TIP3    H215679   1.275   6.842   4.117
 5239TIP3   OH215680   0.724   0.592   1.035
 5239TIP3    H115681   0.740   0.642   0.955
 5239TIP3    H215682   0.775   0.638   1.102
 5240TIP3   OH215683   0.031   4.306   2.648
 5240TIP3    H115684   0.080   4.379   2.686
 5240TIP3    H215685   0.054   4.307   2.555
 5241TIP3   OH215686   6.763   2.674   3.844
 5241TIP3    H115687   6.671   2.695   3.858
 5241TIP3    H215688   6.809   2.727   3.910
 5242TIP3   OH215689   6.433   1.839   1.486
 5242TIP3    H115690   6.525   1.815   1.497
 5242TIP3    H215691   6.388   1.756   1.471
 5243TIP3   OH215692   7.159   1.069   0.693
 5243TIP3    H115693   7.121   1.157   0.700
 5243TIP3    H215694   7.232   1.079   0.632
 5244TIP3   OH215695   3.504   0.724   1.154
 5244TIP3    H115696   3.522   0.646   1.207
 5244TIP3    H215697   3.584   0.737   1.102
 5245TIP3   OH215698   2.120   2.412   0.472
 5245TIP3    H115699   2.149   2.500   0.449
 5245TIP3    H215700   2.125   2.409   0.568
 5246TIP3   OH215701   1.877   4.874   3.630
 5246TIP3    H115702   1.853   4.924   3.708
 5246TIP3    H215703   1.965   4.841   3.648
 5247TIP3   OH215704   1.682   6.410   4.493
 5247TIP3    H115705   1.599   6.365   4.479
 5247TIP3    H215706   1.716   6.425   4.405
 5248TIP3   OH215707   4.011   4.672   0.983
 5248TIP3    H115708   3.984   4.586   1.015
 5248TIP3    H215709   3.939   4.702   0.928
 5249TIP3   OH215710   1.179   5.435   5.656
 5249TIP3    H115711   1.090   5.460   5.680
 5249TIP3    H215712   1.215   5.397   5.736
 5250TIP3   OH215713   1.586   0.780   5.009
 5250TIP3    H115714   1.619   0.708   5.063
 5250TIP3    H215715   1.597   0.751   4.919
 5251TIP3   OH215716   4.604   2.086   4.511
 5251TIP3    H115717   4.629   2.051   4.426
 5251TIP3    H215718   4.684   2.126   4.546
 5252TIP3   OH215719   6.260   5.912   0.714
 5252TIP3    H115720   6.236   5.935   0.625
 5252TIP3    H215721   6.243   5.991   0.765
 5253TIP3   OH215722   0.910   4.265   1.956
 5253TIP3    H115723   0.985   4.317   1.985
 5253TIP3    H215724   0.896   4.201   2.026
 5254TIP3   OH215725   1.291   6.262   4.650
 5254TIP3    H115726   1.348   6.189   4.672
 5254TIP3    H215727   1.347   6.324   4.604
 5255TIP3   OH215728   7.091   6.694   4.206
 5255TIP3    H115729   7.096   6.785   4.179
 5255TIP3    H215730   7.179   6.659   4.193
 5256TIP3   OH215731   0.083   5.804   3.122
 5256TIP3    H115732  -0.008   5.800   3.093
 5256TIP3    H215733   0.095   5.894   3.154
 5257TIP3   OH215734   2.570   4.376   1.091
 5257TIP3    H115735   2.633   4.449   1.089
 5257TIP3    H215736   2.496   4.407   1.039
 5258TIP3   OH215737   0.924   0.438   3.607
 5258TIP3    H115738   0.836   0.406   3.627
 5258TIP3    H215739   0.915   0.481   3.522
 5259TIP3   OH215740   3.584   6.470   3.473
 5259TIP3    H115741   3.634   6.537   3.520
 5259TIP3    H215742   3.532   6.426   3.541
 5260TIP3   OH215743   6.726   6.010   1.952
 5260TIP3    H115744   6.779   5.971   1.882
 5260TIP3    H215745   6.678   6.081   1.908
 5261TIP3   OH215746   1.784   1.216   3.757
 5261TIP3    H115747   1.811   1.272   3.684
 5261TIP3    H215748   1.857   1.155   3.768
 5262TIP3   OH215749   5.246   5.321   1.627
 5262TIP3    H115750   5.262   5.354   1.538
 5262TIP3    H215751   5.245   5.400   1.681
 5263TIP3   OH215752   0.611   2.493   1.323
 5263TIP3    H115753   0.693   2.458   1.357
 5263TIP3    H215754   0.581   2.428   1.259
 5264TIP3   OH215755   4.014   0.509   3.345
 5264TIP3    H115756   4.064   0.534   3.268
 5264TIP3    H215757   3.939   0.568   3.345
 5265TIP3   OH215758   4.279   6.474   0.723
 5265TIP3    H115759   4.307   6.562   0.699
 5265TIP3    H215760   4.323   6.457   0.806
 5266TIP3   OH215761   1.269   4.515   5.552
 5266TIP3    H115762   1.181   4.519   5.588
 5266TIP3    H215763   1.276   4.592   5.496
 5267TIP3   OH215764   2.952   0.491   3.993
 5267TIP3    H115765   2.866   0.526   3.970
 5267TIP3    H215766   2.965   0.418   3.932
 5268TIP3   OH215767   1.865   1.541   3.857
 5268TIP3    H115768   1.935   1.586   3.904
 5268TIP3    H215769   1.909   1.473   3.806
 5269TIP3   OH215770   6.299   1.689   2.927
 5269TIP3    H115771   6.340   1.635   2.859
 5269TIP3    H215772   6.213   1.649   2.941
 5270TIP3   OH215773   5.085   2.217   1.735
 5270TIP3    H115774   5.174   2.189   1.713
 5270TIP3    H215775   5.051   2.255   1.654
 5271TIP3   OH215776   3.165   6.753   1.219
 5271TIP3    H115777   3.134   6.838   1.250
 5271TIP3    H215778   3.236   6.729   1.280
 5272TIP3   OH215779   4.976   3.430   2.603
 5272TIP3    H115780   4.945   3.500   2.547
 5272TIP3    H215781   5.028   3.474   2.671
 5273TIP3   OH215782   1.383   1.622   1.473
 5273TIP3    H115783   1.321   1.694   1.477
 5273TIP3    H215784   1.441   1.645   1.400
 5274TIP3   OH215785   2.653   0.949   2.488
 5274TIP3    H115786   2.719   0.918   2.426
 5274TIP3    H215787   2.578   0.973   2.434
 5275TIP3   OH215788   1.435   1.977   0.073
 5275TIP3    H115789   1.485   1.901   0.044
 5275TIP3    H215790   1.497   2.027   0.127
 5276TIP3   OH215791   5.754   3.223   0.832
 5276TIP3    H115792   5.772   3.163   0.905
 5276TIP3    H215793   5.756   3.167   0.754
 5277TIP3   OH215794   6.176   2.953   0.956
 5277TIP3    H115795   6.252   3.011   0.954
 5277TIP3    H215796   6.174   2.918   1.045
 5278TIP3   OH215797   3.667   3.960   4.364
 5278TIP3    H115798   3.662   3.900   4.438
 5278TIP3    H215799   3.614   3.919   4.296
 5279TIP3   OH215800   4.630   6.233   5.128
 5279TIP3    H115801   4.643   6.306   5.189
 5279TIP3    H215802   4.711   6.230   5.076
 5280TIP3   OH215803   2.523   1.216   1.101
 5280TIP3    H115804   2.454   1.265   1.057
 5280TIP3    H215805   2.598   1.275   1.101
 5281TIP3   OH215806   2.380   5.911   5.655
 5281TIP3    H115807   2.376   5.999   5.617
 5281TIP3    H215808   2.474   5.890   5.658
 5282TIP3   OH215809   0.680   0.278   0.194
 5282TIP3    H115810   0.593   0.250   0.165
 5282TIP3    H215811   0.669   0.370   0.218
 5283TIP3   OH215812   1.086   5.174   0.925
 5283TIP3    H115813   1.041   5.178   1.010
 5283TIP3    H215814   1.025   5.214   0.864
 5284TIP3   OH215815   6.643   6.053   1.617
 5284TIP3    H115816   6.566   5.997   1.614
 5284TIP3    H215817   6.711   5.999   1.657
 5285TIP3   OH215818   6.174   0.181   0.830
 5285TIP3    H115819   6.213   0.095   0.813
 5285TIP3    H215820   6.217   0.212   0.909
 5286TIP3   OH215821   2.904   1.206   0.593
 5286TIP3    H115822   2.998   1.203   0.572
 5286TIP3    H215823   2.864   1.150   0.526
 5287TIP3   OH215824   3.137   1.059   4.777
 5287TIP3    H115825   3.199   1.121   4.816
 5287TIP3    H215826   3.090   1.023   4.852
 5288TIP3   OH215827   0.810   3.659   2.511
 5288TIP3    H115828   0.845   3.579   2.550
 5288TIP3    H215829   0.718   3.660   2.536
 5289TIP3   OH215830   0.007   4.969   2.264
 5289TIP3    H115831   0.057   4.986   2.184
 5289TIP3    H215832  -0.083   4.991   2.240
 5290TIP3   OH215833   2.248   4.358   5.855
 5290TIP3    H115834   2.315   4.340   5.921
 5290TIP3    H215835   2.253   4.284   5.795
 5291TIP3   OH215836   0.487   1.910   2.581
 5291TIP3    H115837   0.560   1.858   2.548
 5291TIP3    H215838   0.504   1.998   2.549
 5292TIP3   OH215839   3.279   0.962   5.431
 5292TIP3    H115840   3.274   1.043   5.483
 5292TIP3    H215841   3.371   0.935   5.438
 5293TIP3   OH215842   6.214   3.798   5.327
 5293TIP3    H115843   6.177   3.872   5.375
 5293TIP3    H215844   6.211   3.725   5.389
 5294TIP3   OH215845   1.953   6.273   5.583
 5294TIP3    H115846   2.027   6.229   5.624
 5294TIP3    H215847   1.968   6.263   5.489
 5295TIP3   OH215848   5.157   4.033   2.330
 5295TIP3    H115849   5.204   4.001   2.407
 5295TIP3    H215850   5.188   3.978   2.258
 5296TIP3   OH215851   4.762   3.257   4.266
 5296TIP3    H115852   4.732   3.178   4.310
 5296TIP3    H215853   4.839   3.229   4.217
 5297TIP3   OH215854   3.242   2.811   3.308
 5297TIP3    H115855   3.203   2.736   3.263
 5297TIP3    H215856   3.216   2.801   3.400
 5298TIP3   OH215857   1.881   3.563   3.196
 5298TIP3    H115858   1.865   3.470   3.175
 5298TIP3    H215859   1.913   3.562   3.286
 5299TIP3   OH215860   3.465   2.841   5.851
 5299TIP3    H115861   3.434   2.764   5.804
 5299TIP3    H215862   3.536   2.809   5.906
 5300TIP3   OH215863   0.788   0.575   2.088
 5300TIP3    H115864   0.843   0.504   2.122
 5300TIP3    H215865   0.835   0.608   2.011
 5301TIP3   OH215866   3.263   1.010   0.120
 5301TIP3    H115867   3.200   0.958   0.070
 5301TIP3    H215868   3.208   1.076   0.164
 5302TIP3   OH215869   5.067   6.386   0.366
 5302TIP3    H115870   5.076   6.461   0.425
 5302TIP3    H215871   5.140   6.395   0.304
 5303TIP3   OH215872   1.334   6.079   4.277
 5303TIP3    H115873   1.248   6.037   4.285
 5303TIP3    H215874   1.348   6.085   4.182
 5304TIP3   OH215875   3.019   2.051   4.202
 5304TIP3    H115876   2.953   2.110   4.166
 5304TIP3    H215877   3.066   2.103   4.266
 5305TIP3   OH215878   5.960   5.206   2.333
 5305TIP3    H115879   6.047   5.245   2.329
 5305TIP3    H215880   5.907   5.261   2.275
 5306TIP3   OH215881   7.036   0.538   5.258
 5306TIP3    H115882   7.033   0.540   5.162
 5306TIP3    H215883   7.087   0.615   5.282
 5307TIP3   OH215884   6.197   3.732   5.702
 5307TIP3    H115885   6.128   3.725   5.636
 5307TIP3    H215886   6.245   3.812   5.678
 5308TIP3   OH215887   5.351   0.196   5.702
 5308TIP3    H115888   5.432   0.159   5.667
 5308TIP3    H215889   5.329   0.266   5.640
 5309TIP3   OH215890   5.882   2.580   5.704
 5309TIP3    H115891   5.968   2.540   5.720
 5309TIP3    H215892   5.850   2.537   5.625
 5310TIP3   OH215893   5.857   1.702   5.357
 5310TIP3    H115894   5.904   1.675   5.435
 5310TIP3    H215895   5.870   1.797   5.352
 5311TIP3   OH215896   0.426   5.525   4.709
 5311TIP3    H115897   0.471   5.594   4.759
 5311TIP3    H215898   0.462   5.533   4.620
 5312TIP3   OH215899   0.512   2.456   4.726
 5312TIP3    H115900   0.514   2.371   4.770
 5312TIP3    H215901   0.482   2.517   4.794
 5313TIP3   OH215902   1.711   1.946   0.769
 5313TIP3    H115903   1.743   1.911   0.686
 5313TIP3    H215904   1.688   2.037   0.750
 5314TIP3   OH215905   6.877   1.132   4.772
 5314TIP3    H115906   6.861   1.122   4.678
 5314TIP3    H215907   6.952   1.075   4.789
 5315TIP3   OH215908   0.053   4.996   5.463
 5315TIP3    H115909   0.131   4.980   5.409
 5315TIP3    H215910   0.012   4.910   5.471
 5316TIP3   OH215911   2.640   3.799   4.054
 5316TIP3    H115912   2.728   3.821   4.020
 5316TIP3    H215913   2.590   3.880   4.045
 5317TIP3   OH215914   4.094   5.313   3.357
 5317TIP3    H115915   4.104   5.248   3.426
 5317TIP3    H215916   3.999   5.323   3.347
 5318TIP3   OH215917   6.083   0.710   3.637
 5318TIP3    H115918   6.162   0.763   3.635
 5318TIP3    H215919   6.057   0.703   3.545
 5319TIP3   OH215920   3.212   1.805   4.503
 5319TIP3    H115921   3.231   1.723   4.458
 5319TIP3    H215922   3.128   1.833   4.468
 5320TIP3   OH215923   1.868   5.705   1.739
 5320TIP3    H115924   1.875   5.727   1.832
 5320TIP3    H215925   1.951   5.663   1.718
 5321TIP3   OH215926   4.394   5.172   5.259
 5321TIP3    H115927   4.458   5.126   5.313
 5321TIP3    H215928   4.402   5.133   5.172
 5322TIP3   OH215929   4.361   5.258   1.511
 5322TIP3    H115930   4.298   5.253   1.582
 5322TIP3    H215931   4.337   5.188   1.452
 5323TIP3   OH215932   4.262   1.512   5.668
 5323TIP3    H115933   4.339   1.480   5.620
 5323TIP3    H215934   4.198   1.533   5.600
 5324TIP3   OH215935   6.628   1.482   1.119
 5324TIP3    H115936   6.568   1.419   1.078
 5324TIP3    H215937   6.610   1.565   1.076
 5325TIP3   OH215938   2.074   2.872   4.244
 5325TIP3    H115939   2.063   2.963   4.270
 5325TIP3    H215940   2.128   2.834   4.314
 5326TIP3   OH215941   1.929   4.050   1.147
 5326TIP3    H115942   1.963   3.960   1.147
 5326TIP3    H215943   1.990   4.099   1.093
 5327TIP3   OH215944   3.134   5.972   3.469
 5327TIP3    H115945   3.208   5.993   3.413
 5327TIP3    H215946   3.132   5.876   3.470
 5328TIP3   OH215947   1.798   0.335   2.008
 5328TIP3    H115948   1.772   0.392   1.936
 5328TIP3    H215949   1.891   0.317   1.992
 5329TIP3   OH215950   4.424   0.185   3.056
 5329TIP3    H115951   4.519   0.181   3.070
 5329TIP3    H215952   4.392   0.239   3.129
 5330TIP3   OH215953   6.641   6.533   3.271
 5330TIP3    H115954   6.547   6.551   3.284
 5330TIP3    H215955   6.670   6.500   3.356
 5331TIP3   OH215956   3.907   2.017   1.461
 5331TIP3    H115957   3.969   2.005   1.389
 5331TIP3    H215958   3.961   2.042   1.536
 5332TIP3   OH215959   1.076   5.208   2.708
 5332TIP3    H115960   1.110   5.190   2.620
 5332TIP3    H215961   1.136   5.164   2.767
 5333TIP3   OH215962   3.911   2.354   4.850
 5333TIP3    H115963   3.886   2.307   4.770
 5333TIP3    H215964   4.007   2.350   4.852
 5334TIP3   OH215965   6.689   0.247   5.169
 5334TIP3    H115966   6.780   0.240   5.140
 5334TIP3    H215967   6.689   0.319   5.232
 5335TIP3   OH215968   6.664   0.988   5.877
 5335TIP3    H115969   6.721   0.913   5.890
 5335TIP3    H215970   6.630   1.008   5.965
 5336TIP3   OH215971   3.534   4.328   3.469
 5336TIP3    H115972   3.600   4.398   3.476
 5336TIP3    H215973   3.514   4.306   3.559
 5337TIP3   OH215974   5.544   2.824   3.341
 5337TIP3    H115975   5.539   2.764   3.416
 5337TIP3    H215976   5.462   2.809   3.293
 5338TIP3   OH215977   1.927   3.508   5.665
 5338TIP3    H115978   1.978   3.512   5.746
 5338TIP3    H215979   1.873   3.587   5.666
 5339TIP3   OH215980   6.730   6.306   2.820
 5339TIP3    H115981   6.816   6.338   2.848
 5339TIP3    H215982   6.669   6.346   2.881
 5340TIP3   OH215983   3.208   6.062   5.357
 5340TIP3    H115984   3.237   6.008   5.283
 5340TIP3    H215985   3.155   6.130   5.316
 5341TIP3   OH215986   4.466   2.680   0.330
 5341TIP3    H115987   4.400   2.624   0.371
 5341TIP3    H215988   4.463   2.761   0.381
 5342TIP3   OH215989   1.799   1.395   5.441
 5342TIP3    H115990   1.832   1.308   5.463
 5342TIP3    H215991   1.721   1.405   5.496
 5343TIP3   OH215992   6.154   3.755   2.664
 5343TIP3    H115993   6.240   3.746   2.623
 5343TIP3    H215994   6.120   3.665   2.670
 5344TIP3   OH215995   4.842   2.992   5.071
 5344TIP3    H115996   4.916   3.051   5.086
 5344TIP3    H215997   4.848   2.968   4.979
 5345TIP3   OH215998   2.961   1.581   4.350
 5345TIP3    H115999   2.964   1.672   4.380
 5345TIP3    H216000   3.044   1.568   4.304
 5346TIP3   OH216001   1.414   5.382   4.371
 5346TIP3    H116002   1.455   5.299   4.349
 5346TIP3    H216003   1.320   5.364   4.365
 5347TIP3   OH216004   2.112   5.120   2.932
 5347TIP3    H116005   2.020   5.143   2.948
 5347TIP3    H216006   2.123   5.127   2.838
 5348TIP3   OH216007   0.574   5.270   0.982
 5348TIP3    H116008   0.520   5.192   0.967
 5348TIP3    H216009   0.548   5.301   1.069
 5349TIP3   OH216010   0.130   5.993   2.471
 5349TIP3    H116011   0.064   5.963   2.533
 5349TIP3    H216012   0.095   6.076   2.437
 5350TIP3   OH216013   1.224   5.126   2.918
 5350TIP3    H116014   1.316   5.100   2.917
 5350TIP3    H216015   1.178   5.051   2.957
 5351TIP3   OH216016   6.425   6.755   3.593
 5351TIP3    H116017   6.475   6.831   3.623
 5351TIP3    H216018   6.472   6.680   3.629
 5352TIP3   OH216019   5.049   6.442   5.115
 5352TIP3    H116020   4.960   6.453   5.083
 5352TIP3    H216021   5.049   6.485   5.200
 5353TIP3   OH216022   6.640   0.642   5.486
 5353TIP3    H116023   6.547   0.629   5.506
 5353TIP3    H216024   6.673   0.694   5.559
 5354TIP3   OH216025   0.645   1.044   2.946
 5354TIP3    H116026   0.671   1.095   3.023
 5354TIP3    H216027   0.551   1.061   2.937
 5355TIP3   OH216028   4.665   3.837   5.324
 5355TIP3    H116029   4.676   3.790   5.241
 5355TIP3    H216030   4.590   3.793   5.366
 5356TIP3   OH216031   3.591   0.887   2.453
 5356TIP3    H116032   3.576   0.795   2.432
 5356TIP3    H216033   3.686   0.896   2.453
 5357TIP3   OH216034   0.764   6.125   2.520
 5357TIP3    H116035   0.839   6.157   2.470
 5357TIP3    H216036   0.693   6.184   2.497
 5358TIP3   OH216037   5.637   1.597   5.892
 5358TIP3    H116038   5.702   1.559   5.952
 5358TIP3    H216039   5.676   1.585   5.805
 5359TIP3   OH216040   3.620   1.308   5.758
 5359TIP3    H116041   3.583   1.243   5.699
 5359TIP3    H216042   3.561   1.308   5.834
 5360TIP3   OH216043   1.439   5.469   1.433
 5360TIP3    H116044   1.484   5.436   1.512
 5360TIP3    H216045   1.347   5.476   1.459
 5361TIP3   OH216046   4.411   0.734   3.647
 5361TIP3    H116047   4.323   0.758   3.619
 5361TIP3    H216048   4.403   0.642   3.672
 5362TIP3   OH216049   0.381   0.830   4.329
 5362TIP3    H116050   0.454   0.790   4.281
 5362TIP3    H216051   0.333   0.756   4.366
 5363TIP3   OH216052   1.894   0.075   3.644
 5363TIP3    H116053   1.954   0.125   3.589
 5363TIP3    H216054   1.827   0.138   3.670
 5364TIP3   OH216055   6.666   0.169   5.425
 5364TIP3    H116056   6.720   0.093   5.449
 5364TIP3    H216057   6.645   0.155   5.333
 5365TIP3   OH216058   2.279   5.507   5.483
 5365TIP3    H116059   2.243   5.530   5.569
 5365TIP3    H216060   2.223   5.435   5.452
 5366TIP3   OH216061   6.731   2.654   4.302
 5366TIP3    H116062   6.800   2.616   4.247
 5366TIP3    H216063   6.779   2.698   4.372
 5367TIP3   OH216064   4.582   1.788   5.699
 5367TIP3    H116065   4.564   1.877   5.671
 5367TIP3    H216066   4.677   1.779   5.690
 5368TIP3   OH216067   3.766   3.109   3.628
 5368TIP3    H116068   3.702   3.175   3.654
 5368TIP3    H216069   3.721   3.059   3.560
 5369TIP3   OH216070   2.131   5.216   3.547
 5369TIP3    H116071   2.082   5.154   3.494
 5369TIP3    H216072   2.221   5.210   3.514
 5370TIP3   OH216073   1.480   5.209   0.726
 5370TIP3    H116074   1.476   5.202   0.821
 5370TIP3    H216075   1.392   5.238   0.700
 5371TIP3   OH216076   3.154   0.187   4.927
 5371TIP3    H116077   3.166   0.270   4.882
 5371TIP3    H216078   3.069   0.195   4.970
 5372TIP3   OH216079   2.698   6.200   3.586
 5372TIP3    H116080   2.620   6.193   3.531
 5372TIP3    H216081   2.755   6.262   3.541
 5373TIP3   OH216082   5.999   1.475   2.609
 5373TIP3    H116083   5.990   1.563   2.645
 5373TIP3    H216084   6.047   1.426   2.676
 5374TIP3   OH216085   6.002   0.372   0.396
 5374TIP3    H116086   6.095   0.370   0.372
 5374TIP3    H216087   6.003   0.368   0.492
 5375TIP3   OH216088   6.940   5.785   2.081
 5375TIP3    H116089   6.968   5.868   2.121
 5375TIP3    H216090   6.852   5.771   2.115
 5376TIP3   OH216091   6.993   1.370   4.891
 5376TIP3    H116092   6.978   1.291   4.840
 5376TIP3    H216093   7.088   1.382   4.889
 5377TIP3   OH216094   6.911   2.035   5.076
 5377TIP3    H116095   7.006   2.035   5.079
 5377TIP3    H216096   6.890   1.999   4.989
 5378TIP3   OH216097   1.574   4.488   2.164
 5378TIP3    H116098   1.622   4.424   2.217
 5378TIP3    H216099   1.513   4.529   2.226
 5379TIP3   OH216100   6.275   3.060   4.065
 5379TIP3    H116101   6.239   3.142   4.033
 5379TIP3    H216102   6.370   3.075   4.068
 5380TIP3   OH216103   6.251   1.300   1.576
 5380TIP3    H116104   6.181   1.331   1.633
 5380TIP3    H216105   6.317   1.369   1.580
 5381TIP3   OH216106   0.530   2.436   5.201
 5381TIP3    H116107   0.488   2.350   5.201
 5381TIP3    H216108   0.487   2.484   5.131
 5382TIP3   OH216109   5.422   6.273   2.775
 5382TIP3    H116110   5.437   6.341   2.841
 5382TIP3    H216111   5.381   6.201   2.824
 5383TIP3   OH216112   2.116   3.372   4.833
 5383TIP3    H116113   2.193   3.400   4.783
 5383TIP3    H216114   2.126   3.277   4.841
 5384TIP3   OH216115   5.017   0.222   0.605
 5384TIP3    H116116   4.972   0.285   0.549
 5384TIP3    H216117   4.972   0.229   0.689
 5385TIP3   OH216118   3.747   3.790   0.154
 5385TIP3    H116119   3.656   3.807   0.130
 5385TIP3    H216120   3.758   3.836   0.237
 5386TIP3   OH216121   4.717   1.069   2.288
 5386TIP3    H116122   4.711   1.005   2.359
 5386TIP3    H216123   4.807   1.100   2.290
 5387TIP3   OH216124   0.017   6.626   0.461
 5387TIP3    H116125   0.087   6.650   0.401
 5387TIP3    H216126  -0.058   6.607   0.404
 5388TIP3   OH216127   0.542   0.854   5.398
 5388TIP3    H116128   0.609   0.910   5.438
 5388TIP3    H216129   0.577   0.832   5.312
 5389TIP3   OH216130   1.614   4.496   5.087
 5389TIP3    H116131   1.609   4.402   5.106
 5389TIP3    H216132   1.601   4.502   4.992
 5390TIP3   OH216133   2.588   2.901   3.814
 5390TIP3    H116134   2.547   2.818   3.838
 5390TIP3    H216135   2.518   2.950   3.771
 5391TIP3   OH216136   6.066   1.633   4.547
 5391TIP3    H116137   6.105   1.680   4.621
 5391TIP3    H216138   5.990   1.589   4.584
 5392TIP3   OH216139   4.571   3.185   3.978
 5392TIP3    H116140   4.656   3.145   3.960
 5392TIP3    H216141   4.584   3.235   4.059
 5393TIP3   OH216142   1.767   3.078   3.027
 5393TIP3    H116143   1.674   3.057   3.021
 5393TIP3    H216144   1.804   3.046   2.945
 5394TIP3   OH216145   2.772   2.029   1.434
 5394TIP3    H116146   2.737   1.944   1.459
 5394TIP3    H216147   2.818   2.013   1.352
 5395TIP3   OH216148   1.804   4.652   1.619
 5395TIP3    H116149   1.816   4.640   1.714
 5395TIP3    H216150   1.728   4.709   1.612
 5396TIP3   OH216151   2.813   0.376   1.572
 5396TIP3    H116152   2.761   0.402   1.496
 5396TIP3    H216153   2.807   0.451   1.632
 5397TIP3   OH216154   1.465   5.908   5.571
 5397TIP3    H116155   1.537   5.971   5.569
 5397TIP3    H216156   1.396   5.949   5.518
 5398TIP3   OH216157   1.630   3.647   4.523
 5398TIP3    H116158   1.712   3.615   4.484
 5398TIP3    H216159   1.658   3.713   4.586
 5399TIP3   OH216160   4.046   6.255   3.132
 5399TIP3    H116161   4.041   6.351   3.127
 5399TIP3    H216162   4.137   6.235   3.111
 5400TIP3   OH216163   2.385   0.672   3.081
 5400TIP3    H116164   2.447   0.611   3.121
 5400TIP3    H216165   2.299   0.641   3.109
 5401TIP3   OH216166   6.778   4.778   4.374
 5401TIP3    H116167   6.794   4.829   4.295
 5401TIP3    H216168   6.786   4.841   4.446
 5402TIP3   OH216169   1.102   6.139   5.125
 5402TIP3    H116170   1.196   6.147   5.108
 5402TIP3    H216171   1.064   6.115   5.040
 5403TIP3   OH216172   1.190   5.336   5.044
 5403TIP3    H116173   1.274   5.291   5.029
 5403TIP3    H216174   1.131   5.267   5.073
 5404TIP3   OH216175   3.973   6.391   5.357
 5404TIP3    H116176   4.049   6.449   5.354
 5404TIP3    H216177   4.000   6.314   5.306
 5405TIP3   OH216178   0.558   5.188   2.613
 5405TIP3    H116179   0.616   5.237   2.671
 5405TIP3    H216180   0.479   5.174   2.665
 5406TIP3   OH216181   5.652   2.396   0.758
 5406TIP3    H116182   5.684   2.376   0.846
 5406TIP3    H216183   5.676   2.320   0.705
 5407TIP3   OH216184   3.056   6.468   3.924
 5407TIP3    H116185   3.046   6.397   3.860
 5407TIP3    H216186   3.019   6.432   4.005
 5408TIP3   OH216187   6.593   5.021   1.806
 5408TIP3    H116188   6.509   5.024   1.760
 5408TIP3    H216189   6.648   5.084   1.758
 5409TIP3   OH216190   4.901   4.954   2.717
 5409TIP3    H116191   4.884   4.903   2.796
 5409TIP3    H216192   4.971   5.015   2.743
 5410TIP3   OH216193   5.081   1.691   2.347
 5410TIP3    H116194   5.176   1.697   2.342
 5410TIP3    H216195   5.058   1.615   2.293
 5411TIP3   OH216196   6.525   6.733   4.305
 5411TIP3    H116197   6.568   6.776   4.379
 5411TIP3    H216198   6.438   6.710   4.338
 5412TIP3   OH216199   3.715   1.591   5.701
 5412TIP3    H116200   3.677   1.503   5.707
 5412TIP3    H216201   3.743   1.599   5.610
 5413TIP3   OH216202   4.269   1.631   0.266
 5413TIP3    H116203   4.314   1.547   0.256
 5413TIP3    H216204   4.338   1.696   0.254
 5414TIP3   OH216205   0.344   1.024   4.527
 5414TIP3    H116206   0.396   0.959   4.574
 5414TIP3    H216207   0.335   0.988   4.438
 5415TIP3   OH216208   1.114   0.774   3.293
 5415TIP3    H116209   1.206   0.792   3.313
 5415TIP3    H216210   1.072   0.761   3.378
 5416TIP3   OH216211   1.186   4.491   0.871
 5416TIP3    H116212   1.258   4.489   0.809
 5416TIP3    H216213   1.109   4.465   0.820
 5417TIP3   OH216214   6.242   6.741   2.641
 5417TIP3    H116215   6.302   6.815   2.642
 5417TIP3    H216216   6.177   6.762   2.709
 5418TIP3   OH216217   2.260   5.041   1.674
 5418TIP3    H116218   2.310   4.959   1.683
 5418TIP3    H216219   2.314   5.107   1.718
 5419TIP3   OH216220   0.776   5.702   4.202
 5419TIP3    H116221   0.704   5.678   4.143
 5419TIP3    H216222   0.811   5.782   4.164
 5420TIP3   OH216223   5.641   1.739   3.829
 5420TIP3    H116224   5.645   1.646   3.851
 5420TIP3    H216225   5.621   1.782   3.912
 5421TIP3   OH216226   0.627   5.079   2.066
 5421TIP3    H116227   0.706   5.128   2.089
 5421TIP3    H216228   0.660   4.997   2.030
 5422TIP3   OH216229   7.040   2.059   3.363
 5422TIP3    H116230   7.044   2.132   3.301
 5422TIP3    H216231   6.973   2.084   3.426
 5423TIP3   OH216232   3.407   6.657   4.320
 5423TIP3    H116233   3.391   6.751   4.316
 5423TIP3    H216234   3.476   6.646   4.385
 5424TIP3   OH216235   6.159   5.021   5.353
 5424TIP3    H116236   6.126   5.083   5.288
 5424TIP3    H216237   6.249   5.003   5.325
 5425TIP3   OH216238   5.170   3.113   2.794
 5425TIP3    H116239   5.113   3.129   2.718
 5425TIP3    H216240   5.162   3.019   2.809
 5426TIP3   OH216241   7.018   0.128   0.664
 5426TIP3    H116242   6.952   0.099   0.602
 5426TIP3    H216243   6.973   0.193   0.718
 5427TIP3   OH216244   3.059   3.024   1.951
 5427TIP3    H116245   2.974   3.017   1.907
 5427TIP3    H216246   3.040   3.006   2.043
 5428TIP3   OH216247   1.833   1.365   4.299
 5428TIP3    H116248   1.801   1.365   4.209
 5428TIP3    H216249   1.928   1.362   4.291
 5429TIP3   OH216250   4.982   1.962   3.216
 5429TIP3    H116251   4.900   2.005   3.190
 5429TIP3    H216252   5.009   2.007   3.296
 5430TIP3   OH216253   7.074   6.800   5.430
 5430TIP3    H116254   7.082   6.712   5.467
 5430TIP3    H216255   6.981   6.809   5.409
 5431TIP3   OH216256   0.039   3.519   1.323
 5431TIP3    H116257  -0.045   3.489   1.287
 5431TIP3    H216258   0.058   3.599   1.274
 5432TIP3   OH216259   3.715   3.564   4.921
 5432TIP3    H116260   3.700   3.471   4.939
 5432TIP3    H216261   3.800   3.582   4.959
 5433TIP3   OH216262   4.720   5.554   1.552
 5433TIP3    H116263   4.787   5.622   1.554
 5433TIP3    H216264   4.638   5.601   1.539
 5434TIP3   OH216265   6.074   2.705   3.107
 5434TIP3    H116266   6.168   2.691   3.114
 5434TIP3    H216267   6.066   2.774   3.041
 5435TIP3   OH216268   6.081   5.353   4.272
 5435TIP3    H116269   6.136   5.282   4.303
 5435TIP3    H216270   6.143   5.423   4.249
 5436TIP3   OH216271   0.479   1.898   0.852
 5436TIP3    H116272   0.406   1.956   0.872
 5436TIP3    H216273   0.463   1.868   0.762
 5437TIP3   OH216274   0.538   0.369   4.945
 5437TIP3    H116275   0.612   0.415   4.986
 5437TIP3    H216276   0.565   0.277   4.943
 5438TIP3   OH216277   1.909   4.278   1.753
 5438TIP3    H116278   1.987   4.334   1.759
 5438TIP3    H216279   1.944   4.189   1.751
 5439TIP3   OH216280   2.069   5.438   3.951
 5439TIP3    H116281   2.098   5.361   3.902
 5439TIP3    H216282   2.142   5.500   3.942
 5440TIP3   OH216283   5.448   0.507   1.871
 5440TIP3    H116284   5.505   0.582   1.858
 5440TIP3    H216285   5.364   0.534   1.836
 5441TIP3   OH216286   1.814   0.991   1.282
 5441TIP3    H116287   1.875   1.062   1.264
 5441TIP3    H216288   1.835   0.963   1.371
 5442TIP3   OH216289   0.525   3.058   2.563
 5442TIP3    H116290   0.570   3.016   2.636
 5442TIP3    H216291   0.538   3.152   2.578
 5443TIP3   OH216292   0.111   6.581   4.138
 5443TIP3    H116293   0.141   6.545   4.222
 5443TIP3    H216294   0.191   6.592   4.087
 5444TIP3   OH216295   5.229   1.096   2.641
 5444TIP3    H116296   5.261   1.185   2.625
 5444TIP3    H216297   5.154   1.087   2.582
 5445TIP3   OH216298   2.212   5.760   2.631
 5445TIP3    H116299   2.195   5.671   2.663
 5445TIP3    H216300   2.126   5.791   2.601
 5446TIP3   OH216301   5.013   6.235   1.415
 5446TIP3    H116302   4.950   6.225   1.343
 5446TIP3    H216303   4.999   6.157   1.469
 5447TIP3   OH216304   2.669   5.102   2.071
 5447TIP3    H116305   2.666   5.193   2.099
 5447TIP3    H216306   2.754   5.070   2.102
 5448TIP3   OH216307   5.785   3.912   5.045
 5448TIP3    H116308   5.774   3.999   5.084
 5448TIP3    H216309   5.873   3.886   5.070
 5449TIP3   OH216310   0.978   6.139   0.462
 5449TIP3    H116311   0.942   6.223   0.488
 5449TIP3    H216312   1.069   6.141   0.493
 5450TIP3   OH216313   0.357   0.861   5.643
 5450TIP3    H116314   0.369   0.770   5.668
 5450TIP3    H216315   0.407   0.871   5.562
 5451TIP3   OH216316   5.211   3.657   0.344
 5451TIP3    H116317   5.163   3.575   0.345
 5451TIP3    H216318   5.301   3.632   0.326
 5452TIP3   OH216319   5.575   0.153   0.306
 5452TIP3    H116320   5.498   0.190   0.263
 5452TIP3    H216321   5.552   0.062   0.323
 5453TIP3   OH216322   3.488   0.787   1.644
 5453TIP3    H116323   3.572   0.746   1.620
 5453TIP3    H216324   3.428   0.759   1.575
 5454TIP3   OH216325   1.675   2.066   5.832
 5454TIP3    H116326   1.607   2.108   5.779
 5454TIP3    H216327   1.706   1.994   5.777
 5455TIP3   OH216328   1.446   4.852   3.152
 5455TIP3    H116329   1.475   4.902   3.075
 5455TIP3    H216330   1.367   4.806   3.122
 5456TIP3   OH216331   2.110   6.514   4.069
 5456TIP3    H116332   2.039   6.495   4.008
 5456TIP3    H216333   2.142   6.600   4.042
 5457TIP3   OH216334   5.622   5.345   5.224
 5457TIP3    H116335   5.702   5.293   5.211
 5457TIP3    H216336   5.629   5.416   5.161
 5458TIP3   OH216337   6.610   4.616   3.180
 5458TIP3    H116338   6.597   4.617   3.275
 5458TIP3    H216339   6.624   4.708   3.156
 5459TIP3   OH216340   2.100   0.790   5.040
 5459TIP3    H116341   2.174   0.851   5.029
 5459TIP3    H216342   2.028   0.832   4.994
 5460TIP3   OH216343   2.901   6.193   5.709
 5460TIP3    H116344   2.840   6.120   5.715
 5460TIP3    H216345   2.850   6.265   5.673
 5461TIP3   OH216346   4.740   3.156   0.501
 5461TIP3    H116347   4.721   3.104   0.580
 5461TIP3    H216348   4.746   3.246   0.533
 5462TIP3   OH216349   2.225   3.581   2.696
 5462TIP3    H116350   2.223   3.643   2.623
 5462TIP3    H216351   2.148   3.604   2.748
 5463TIP3   OH216352   1.088   1.125   4.334
 5463TIP3    H116353   1.149   1.192   4.303
 5463TIP3    H216354   1.018   1.125   4.268
 5464TIP3   OH216355   6.794   6.497   0.891
 5464TIP3    H116356   6.723   6.548   0.931
 5464TIP3    H216357   6.862   6.562   0.873
 5465TIP3   OH216358   0.794   1.336   5.489
 5465TIP3    H116359   0.886   1.353   5.469
 5465TIP3    H216360   0.791   1.242   5.508
 5466TIP3   OH216361   6.305   3.469   5.607
 5466TIP3    H116362   6.278   3.554   5.642
 5466TIP3    H216363   6.258   3.405   5.659
 5467TIP3   OH216364   2.561   4.375   3.367
 5467TIP3    H116365   2.628   4.372   3.299
 5467TIP3    H216366   2.496   4.436   3.334
 5468TIP3   OH216367   2.918   4.703   3.097
 5468TIP3    H116368   3.004   4.716   3.057
 5468TIP3    H216369   2.897   4.787   3.138
 5469TIP3   OH216370   3.533   0.498   5.400
 5469TIP3    H116371   3.496   0.451   5.475
 5469TIP3    H216372   3.626   0.475   5.401
 5470TIP3   OH216373   0.448   5.811   0.305
 5470TIP3    H116374   0.408   5.725   0.296
 5470TIP3    H216375   0.376   5.873   0.291
 5471TIP3   OH216376   1.611   5.134   2.007
 5471TIP3    H116377   1.607   5.039   1.995
 5471TIP3    H216378   1.524   5.159   2.036
 5472TIP3   OH216379   5.070   0.644   3.064
 5472TIP3    H116380   5.131   0.570   3.061
 5472TIP3    H216381   5.049   0.655   3.156
 5473TIP3   OH216382   6.088   5.933   2.192
 5473TIP3    H116383   6.137   6.003   2.148
 5473TIP3    H216384   6.143   5.855   2.184
 5474TIP3   OH216385   1.979   1.030   0.586
 5474TIP3    H116386   2.009   0.961   0.528
 5474TIP3    H216387   1.885   1.037   0.570
 5475TIP3   OH216388   2.281   1.828   2.446
 5475TIP3    H116389   2.248   1.909   2.408
 5475TIP3    H216390   2.375   1.829   2.426
 5476TIP3   OH216391   3.866   3.347   3.988
 5476TIP3    H116392   3.796   3.390   3.938
 5476TIP3    H216393   3.884   3.406   4.061
 5477TIP3   OH216394   2.914   4.895   4.195
 5477TIP3    H116395   2.918   4.986   4.226
 5477TIP3    H216396   2.864   4.900   4.114
 5478TIP3   OH216397   7.018   0.247   4.224
 5478TIP3    H116398   6.970   0.328   4.243
 5478TIP3    H216399   7.021   0.244   4.128
 5479TIP3   OH216400   0.566   6.449   0.885
 5479TIP3    H116401   0.655   6.481   0.901
 5479TIP3    H216402   0.577   6.381   0.818
 5480TIP3   OH216403   6.636   4.313   2.131
 5480TIP3    H116404   6.617   4.239   2.188
 5480TIP3    H216405   6.553   4.331   2.086
 5481TIP3   OH216406   6.045   3.361   0.761
 5481TIP3    H116407   6.036   3.269   0.735
 5481TIP3    H216408   6.102   3.358   0.838
 5482TIP3   OH216409   6.989   5.771   4.628
 5482TIP3    H116410   7.005   5.677   4.621
 5482TIP3    H216411   7.071   5.807   4.659
 5483TIP3   OH216412   3.257   4.810   3.353
 5483TIP3    H116413   3.183   4.777   3.405
 5483TIP3    H216414   3.335   4.779   3.400
 5484TIP3   OH216415   0.966   3.252   3.424
 5484TIP3    H116416   1.021   3.221   3.352
 5484TIP3    H216417   0.926   3.172   3.459
 5485TIP3   OH216418   0.626   4.198   1.392
 5485TIP3    H116419   0.673   4.281   1.405
 5485TIP3    H216420   0.579   4.210   1.309
 5486TIP3   OH216421   5.019   6.151   4.446
 5486TIP3    H116422   5.102   6.141   4.399
 5486TIP3    H216423   5.040   6.211   4.518
 5487TIP3   OH216424   4.789   2.793   4.347
 5487TIP3    H116425   4.874   2.749   4.344
 5487TIP3    H216426   4.752   2.768   4.432
 5488TIP3   OH216427   1.803   4.000   4.111
 5488TIP3    H116428   1.896   4.021   4.096
 5488TIP3    H216429   1.782   4.043   4.193
 5489TIP3   OH216430   4.748   2.749   0.316
 5489TIP3    H116431   4.743   2.770   0.409
 5489TIP3    H216432   4.667   2.702   0.297
 5490TIP3   OH216433   3.849   3.908   3.665
 5490TIP3    H116434   3.798   3.842   3.617
 5490TIP3    H216435   3.786   3.976   3.687
 5491TIP3   OH216436   1.302   4.810   1.932
 5491TIP3    H116437   1.285   4.801   2.026
 5491TIP3    H216438   1.217   4.797   1.891
 5492TIP3   OH216439   1.537   0.905   4.280
 5492TIP3    H116440   1.565   0.997   4.281
 5492TIP3    H216441   1.443   0.908   4.300
 5493TIP3   OH216442   5.030   2.350   3.561
 5493TIP3    H116443   5.051   2.387   3.475
 5493TIP3    H216444   5.043   2.255   3.550
 5494TIP3   OH216445   2.902   5.754   5.353
 5494TIP3    H116446   2.931   5.827   5.298
 5494TIP3    H216447   2.812   5.737   5.324
 5495TIP3   OH216448   0.953   5.880   4.913
 5495TIP3    H116449   0.905   5.926   4.982
 5495TIP3    H216450   1.016   5.945   4.881
 5496TIP3   OH216451   4.914   0.509   1.821
 5496TIP3    H116452   4.893   0.423   1.859
 5496TIP3    H216453   4.840   0.565   1.846
 5497TIP3   OH216454   3.841   5.122   1.427
 5497TIP3    H116455   3.797   5.049   1.385
 5497TIP3    H216456   3.824   5.112   1.520
 5498TIP3   OH216457   0.950   4.322   0.471
 5498TIP3    H116458   0.957   4.287   0.382
 5498TIP3    H216459   0.863   4.361   0.474
 5499TIP3   OH216460   0.747   4.695   1.933
 5499TIP3    H116461   0.664   4.737   1.955
 5499TIP3    H216462   0.811   4.766   1.940
 5500TIP3   OH216463   3.462   0.535   4.878
 5500TIP3    H116464   3.374   0.566   4.902
 5500TIP3    H216465   3.517   0.613   4.885
 5501TIP3   OH216466   1.067   0.443   0.987
 5501TIP3    H116467   1.024   0.426   0.903
 5501TIP3    H216468   1.159   0.461   0.964
 5502TIP3   OH216469   3.241   6.401   5.552
 5502TIP3    H116470   3.150   6.397   5.522
 5502TIP3    H216471   3.292   6.406   5.471
 5503TIP3   OH216472   0.958   5.990   0.726
 5503TIP3    H116473   0.888   5.926   0.744
 5503TIP3    H216474   0.956   6.001   0.631
 5504TIP3   OH216475   3.595   4.307   1.674
 5504TIP3    H116476   3.660   4.270   1.734
 5504TIP3    H216477   3.544   4.231   1.644
 5505TIP3   OH216478   4.497   5.758   3.561
 5505TIP3    H116479   4.493   5.837   3.508
 5505TIP3    H216480   4.453   5.783   3.643
 5506TIP3   OH216481   1.492   6.172   2.134
 5506TIP3    H116482   1.537   6.090   2.153
 5506TIP3    H216483   1.486   6.174   2.038
 5507TIP3   OH216484   6.960   4.164   3.304
 5507TIP3    H116485   6.865   4.179   3.311
 5507TIP3    H216486   6.973   4.077   3.342
 5508TIP3   OH216487   2.102   1.174   4.223
 5508TIP3    H116488   2.059   1.168   4.138
 5508TIP3    H216489   2.194   1.187   4.202
 5509TIP3   OH216490   6.828   0.258   3.452
 5509TIP3    H116491   6.796   0.300   3.532
 5509TIP3    H216492   6.749   0.232   3.405
 5510TIP3   OH216493   7.112   4.279   1.836
 5510TIP3    H116494   7.047   4.218   1.801
 5510TIP3    H216495   7.061   4.346   1.880
 5511TIP3   OH216496   0.820   6.547   0.175
 5511TIP3    H116497   0.801   6.454   0.185
 5511TIP3    H216498   0.813   6.582   0.264
 5512TIP3   OH216499   0.419   4.745   5.449
 5512TIP3    H116500   0.503   4.699   5.458
 5512TIP3    H216501   0.419   4.808   5.521
 5513TIP3   OH216502   0.462   1.586   5.714
 5513TIP3    H116503   0.490   1.675   5.694
 5513TIP3    H216504   0.384   1.573   5.660
 5514TIP3   OH216505   4.320   4.099   4.788
 5514TIP3    H116506   4.306   4.164   4.719
 5514TIP3    H216507   4.411   4.072   4.778
 5515TIP3   OH216508   4.109   3.265   1.427
 5515TIP3    H116509   4.152   3.326   1.367
 5515TIP3    H216510   4.092   3.316   1.506
 5516TIP3   OH216511   5.822   5.902   4.070
 5516TIP3    H116512   5.728   5.914   4.080
 5516TIP3    H216513   5.856   5.895   4.160
 5517TIP3   OH216514   0.339   4.971   3.351
 5517TIP3    H116515   0.252   4.932   3.359
 5517TIP3    H216516   0.398   4.897   3.336
 5518TIP3   OH216517   3.271   1.470   1.121
 5518TIP3    H116518   3.226   1.433   1.045
 5518TIP3    H216519   3.346   1.516   1.084
 5519TIP3   OH216520   2.240   5.814   5.883
 5519TIP3    H116521   2.282   5.864   5.953
 5519TIP3    H216522   2.284   5.843   5.803
 5520TIP3   OH216523   1.792   1.930   2.891
 5520TIP3    H116524   1.723   1.893   2.944
 5520TIP3    H216525   1.850   1.856   2.871
 5521TIP3   OH216526   2.835   3.768   2.862
 5521TIP3    H116527   2.886   3.848   2.880
 5521TIP3    H216528   2.744   3.796   2.871
 5522TIP3   OH216529   4.569   2.793   5.464
 5522TIP3    H116530   4.637   2.834   5.410
 5522TIP3    H216531   4.495   2.781   5.404
 5523TIP3   OH216532   1.565   5.504   5.794
 5523TIP3    H116533   1.584   5.411   5.788
 5523TIP3    H216534   1.539   5.530   5.706
 5524TIP3   OH216535   6.458   2.960   5.343
 5524TIP3    H116536   6.379   3.001   5.306
 5524TIP3    H216537   6.512   3.033   5.371
 5525TIP3   OH216538   4.374   0.100   1.444
 5525TIP3    H116539   4.437   0.061   1.382
 5525TIP3    H216540   4.368   0.036   1.515
 5526TIP3   OH216541   1.635   4.031   5.380
 5526TIP3    H116542   1.553   4.032   5.428
 5526TIP3    H216543   1.658   3.938   5.374
 5527TIP3   OH216544   5.283   1.223   5.201
 5527TIP3    H116545   5.261   1.259   5.287
 5527TIP3    H216546   5.204   1.176   5.174
 5528TIP3   OH216547   1.716   0.443   4.442
 5528TIP3    H116548   1.777   0.481   4.506
 5528TIP3    H216549   1.773   0.415   4.370
 5529TIP3   OH216550   3.646   6.195   5.561
 5529TIP3    H116551   3.673   6.286   5.566
 5529TIP3    H216552   3.553   6.196   5.586
 5530TIP3   OH216553   3.446   2.456   3.287
 5530TIP3    H116554   3.474   2.509   3.362
 5530TIP3    H216555   3.528   2.421   3.251
 5531TIP3   OH216556   2.434   5.516   3.632
 5531TIP3    H116557   2.436   5.426   3.664
 5531TIP3    H216558   2.525   5.544   3.633
 5532TIP3   OH216559   0.865   2.824   1.831
 5532TIP3    H116560   0.824   2.775   1.759
 5532TIP3    H216561   0.959   2.818   1.813
 5533TIP3   OH216562   3.001   2.543   2.580
 5533TIP3    H116563   2.912   2.539   2.547
 5533TIP3    H216564   3.057   2.535   2.503
 5534TIP3   OH216565   2.539   4.596   2.531
 5534TIP3    H116566   2.630   4.602   2.559
 5534TIP3    H216567   2.544   4.591   2.435
 5535TIP3   OH216568   1.461   1.216   1.287
 5535TIP3    H116569   1.541   1.220   1.234
 5535TIP3    H216570   1.391   1.202   1.223
 5536TIP3   OH216571   4.870   5.905   0.241
 5536TIP3    H116572   4.810   5.841   0.202
 5536TIP3    H216573   4.838   5.918   0.330
 5537TIP3   OH216574   4.378   3.485   1.595
 5537TIP3    H116575   4.289   3.510   1.570
 5537TIP3    H216576   4.396   3.537   1.673
 5538TIP3   OH216577   3.502   4.929   3.634
 5538TIP3    H116578   3.420   4.970   3.607
 5538TIP3    H216579   3.501   4.933   3.729
 5539TIP3   OH216580   4.792   0.023   4.920
 5539TIP3    H116581   4.836   0.041   5.003
 5539TIP3    H216582   4.787   0.108   4.876
 5540TIP3   OH216583   5.953   5.249   2.842
 5540TIP3    H116584   5.919   5.209   2.762
 5540TIP3    H216585   6.005   5.179   2.884
 5541TIP3   OH216586   5.090   5.131   2.852
 5541TIP3    H116587   5.144   5.081   2.912
 5541TIP3    H216588   5.027   5.177   2.908
 5542TIP3   OH216589   5.425   3.150   3.290
 5542TIP3    H116590   5.473   3.208   3.350
 5542TIP3    H216591   5.334   3.153   3.321
 5543TIP3   OH216592   4.277   0.060   5.827
 5543TIP3    H116593   4.252  -0.032   5.833
 5543TIP3    H216594   4.246   0.088   5.740
 5544TIP3   OH216595   1.515   0.705   1.177
 5544TIP3    H116596   1.598   0.744   1.150
 5544TIP3    H216597   1.540   0.630   1.230
 5545TIP3   OH216598   6.092   5.353   5.755
 5545TIP3    H116599   6.115   5.354   5.848
 5545TIP3    H216600   6.130   5.271   5.721
 5546TIP3   OH216601   1.309   6.169   2.843
 5546TIP3    H116602   1.284   6.241   2.902
 5546TIP3    H216603   1.344   6.102   2.902
 5547TIP3   OH216604   2.297   4.875   0.246
 5547TIP3    H116605   2.288   4.850   0.154
 5547TIP3    H216606   2.210   4.859   0.283
 5548TIP3   OH216607   4.955   4.677   0.151
 5548TIP3    H116608   4.955   4.756   0.097
 5548TIP3    H216609   4.965   4.605   0.088
 5549TIP3   OH216610   2.716   3.834   0.697
 5549TIP3    H116611   2.686   3.857   0.785
 5549TIP3    H216612   2.671   3.894   0.639
 5550TIP3   OH216613   0.128   2.325   5.854
 5550TIP3    H116614   0.133   2.357   5.763
 5550TIP3    H216615   0.036   2.334   5.877
 5551TIP3   OH216616   1.269   3.370   3.561
 5551TIP3    H116617   1.179   3.377   3.592
 5551TIP3    H216618   1.262   3.362   3.466
 5552TIP3   OH216619   6.231   5.589   2.262
 5552TIP3    H116620   6.223   5.571   2.168
 5552TIP3    H216621   6.313   5.546   2.287
 5553TIP3   OH216622   5.951   0.799   1.818
 5553TIP3    H116623   5.940   0.742   1.894
 5553TIP3    H216624   5.990   0.878   1.853
 5554TIP3   OH216625   1.739   1.740   5.069
 5554TIP3    H116626   1.761   1.655   5.106
 5554TIP3    H216627   1.699   1.788   5.142
 5555TIP3   OH216628   6.598   0.348   5.711
 5555TIP3    H116629   6.551   0.323   5.632
 5555TIP3    H216630   6.548   0.311   5.782
 5556TIP3   OH216631   1.713   0.939   4.604
 5556TIP3    H116632   1.734   0.993   4.528
 5556TIP3    H216633   1.618   0.947   4.614
 5557TIP3   OH216634   0.816   3.271   1.802
 5557TIP3    H116635   0.818   3.199   1.865
 5557TIP3    H216636   0.729   3.267   1.763
 5558TIP3   OH216637   0.974   0.278   0.039
 5558TIP3    H116638   0.992   0.271   0.132
 5558TIP3    H216639   0.964   0.187   0.010
 5559TIP3   OH216640   3.164   5.021   0.418
 5559TIP3    H116641   3.140   5.013   0.511
 5559TIP3    H216642   3.182   4.932   0.390
 5560TIP3   OH216643   5.972   2.164   1.858
 5560TIP3    H116644   5.907   2.097   1.838
 5560TIP3    H216645   6.048   2.116   1.892
 5561TIP3   OH216646   5.479   4.491   4.569
 5561TIP3    H116647   5.465   4.535   4.485
 5561TIP3    H216648   5.531   4.414   4.548
 5562TIP3   OH216649   3.472   3.266   4.744
 5562TIP3    H116650   3.508   3.258   4.656
 5562TIP3    H216651   3.536   3.225   4.801
 5563TIP3   OH216652   5.310   1.955   3.248
 5563TIP3    H116653   5.397   1.973   3.212
 5563TIP3    H216654   5.257   1.929   3.172
 5564TIP3   OH216655   4.459   4.823   0.818
 5564TIP3    H116656   4.382   4.769   0.834
 5564TIP3    H216657   4.524   4.792   0.881
 5565TIP3   OH216658   1.363   4.939   1.182
 5565TIP3    H116659   1.407   4.989   1.252
 5565TIP3    H216660   1.324   4.864   1.226
 5566TIP3   OH216661   6.267   1.030   4.693
 5566TIP3    H116662   6.258   1.033   4.788
 5566TIP3    H216663   6.329   1.100   4.672
 5567TIP3   OH216664   6.954   2.175   3.742
 5567TIP3    H116665   6.904   2.149   3.665
 5567TIP3    H216666   6.896   2.160   3.816
 5568TIP3   OH216667   6.055   3.892   0.532
 5568TIP3    H116668   5.981   3.952   0.538
 5568TIP3    H216669   6.067   3.858   0.621
 5569TIP3   OH216670   2.851   1.636   2.871
 5569TIP3    H116671   2.826   1.685   2.950
 5569TIP3    H216672   2.931   1.680   2.840
 5570TIP3   OH216673   6.840   6.303   4.273
 5570TIP3    H116674   6.749   6.280   4.289
 5570TIP3    H216675   6.836   6.387   4.227
 5571TIP3   OH216676   6.185   6.165   5.345
 5571TIP3    H116677   6.115   6.172   5.410
 5571TIP3    H216678   6.180   6.247   5.296
 5572TIP3   OH216679   1.978   3.094   1.367
 5572TIP3    H116680   2.042   3.165   1.377
 5572TIP3    H216681   2.031   3.017   1.344
 5573TIP3   OH216682   1.122   2.078   5.835
 5573TIP3    H116683   1.188   2.032   5.888
 5573TIP3    H216684   1.101   2.017   5.765
 5574TIP3   OH216685   4.908   5.032   5.792
 5574TIP3    H116686   4.869   4.946   5.807
 5574TIP3    H216687   4.896   5.048   5.698
 5575TIP3   OH216688   1.735   5.691   4.282
 5575TIP3    H116689   1.694   5.767   4.242
 5575TIP3    H216690   1.827   5.717   4.293
 5576TIP3   OH216691   6.481   4.925   0.734
 5576TIP3    H116692   6.532   4.873   0.796
 5576TIP3    H216693   6.450   4.999   0.786
 5577TIP3   OH216694   4.030   5.608   1.120
 5577TIP3    H116695   4.113   5.656   1.114
 5577TIP3    H216696   4.051   5.528   1.167
 5578TIP3   OH216697   3.448   1.779   0.354
 5578TIP3    H116698   3.361   1.798   0.317
 5578TIP3    H216699   3.486   1.865   0.370
 5579TIP3   OH216700   2.799   3.125   2.408
 5579TIP3    H116701   2.816   3.132   2.314
 5579TIP3    H216702   2.733   3.193   2.424
 5580TIP3   OH216703   2.794   0.123   1.335
 5580TIP3    H116704   2.760   0.037   1.308
 5580TIP3    H216705   2.791   0.121   1.431
 5581TIP3   OH216706   0.065   4.553   1.603
 5581TIP3    H116707   0.150   4.574   1.564
 5581TIP3    H216708   0.001   4.583   1.539
 5582TIP3   OH216709   5.341   0.026   5.363
 5582TIP3    H116710   5.320   0.114   5.395
 5582TIP3    H216711   5.257  -0.010   5.334
 5583TIP3   OH216712   3.328   3.784   5.489
 5583TIP3    H116713   3.357   3.700   5.453
 5583TIP3    H216714   3.233   3.784   5.478
 5584TIP3   OH216715   1.554   1.463   2.832
 5584TIP3    H116716   1.634   1.465   2.779
 5584TIP3    H216717   1.488   1.505   2.778
 5585TIP3   OH216718   3.800   4.332   1.976
 5585TIP3    H116719   3.789   4.387   1.899
 5585TIP3    H216720   3.711   4.310   2.002
 5586TIP3   OH216721   0.039   2.510   3.707
 5586TIP3    H116722  -0.023   2.490   3.637
 5586TIP3    H216723   0.121   2.529   3.663
 5587TIP3   OH216724   3.735   1.539   3.593
 5587TIP3    H116725   3.680   1.464   3.571
 5587TIP3    H216726   3.674   1.611   3.606
 5588TIP3   OH216727   4.219   1.462   1.577
 5588TIP3    H116728   4.186   1.379   1.612
 5588TIP3    H216729   4.308   1.442   1.549
 5589TIP3   OH216730   2.279   3.996   2.214
 5589TIP3    H116731   2.192   3.993   2.253
 5589TIP3    H216732   2.333   4.040   2.280
 5590TIP3   OH216733   6.799   0.697   0.008
 5590TIP3    H116734   6.741   0.621   0.003
 5590TIP3    H216735   6.800   0.732  -0.081
 5591TIP3   OH216736   4.528   3.874   2.257
 5591TIP3    H116737   4.613   3.894   2.296
 5591TIP3    H216738   4.546   3.868   2.163
 5592TIP3   OH216739   1.602   2.711   3.696
 5592TIP3    H116740   1.630   2.632   3.650
 5592TIP3    H216741   1.669   2.776   3.675
 5593TIP3   OH216742   7.064   0.831   5.520
 5593TIP3    H116743   7.041   0.877   5.601
 5593TIP3    H216744   7.151   0.795   5.537
 5594TIP3   OH216745   0.094   5.655   4.595
 5594TIP3    H116746   0.101   5.650   4.691
 5594TIP3    H216747   0.041   5.733   4.579
 5595TIP3   OH216748   0.026   6.259   2.053
 5595TIP3    H116749  -0.049   6.318   2.050
 5595TIP3    H216750   0.094   6.303   2.002
 5596TIP3   OH216751  -0.038   5.085   4.106
 5596TIP3    H116752   0.051   5.109   4.130
 5596TIP3    H216753  -0.037   4.990   4.101
 5597TIP3   OH216754   1.875   3.925   0.418
 5597TIP3    H116755   1.899   3.845   0.372
 5597TIP3    H216756   1.952   3.981   0.409
 5598TIP3   OH216757   5.861   6.573   0.890
 5598TIP3    H116758   5.858   6.485   0.927
 5598TIP3    H216759   5.773   6.608   0.904
 5599TIP3   OH216760   4.742   0.797   1.781
 5599TIP3    H116761   4.834   0.794   1.809
 5599TIP3    H216762   4.745   0.773   1.689
 5600TIP3   OH216763   1.078   3.538   0.138
 5600TIP3    H116764   1.000   3.559   0.086
 5600TIP3    H216765   1.091   3.614   0.194
 5601TIP3   OH216766   1.241   1.982   1.576
 5601TIP3    H116767   1.300   1.990   1.651
 5601TIP3    H216768   1.182   1.910   1.599
 5602TIP3   OH216769   1.369   2.873  -0.025
 5602TIP3    H116770   1.348   2.904   0.063
 5602TIP3    H216771   1.431   2.802  -0.011
 5603TIP3   OH216772   0.932   4.085   3.469
 5603TIP3    H116773   1.000   4.145   3.439
 5603TIP3    H216774   0.893   4.051   3.389
 5604TIP3   OH216775   3.936   4.781   2.673
 5604TIP3    H116776   3.855   4.733   2.684
 5604TIP3    H216777   3.953   4.778   2.579
 5605TIP3   OH216778   6.470   0.251   4.427
 5605TIP3    H116779   6.399   0.208   4.380
 5605TIP3    H216780   6.429   0.326   4.470
 5606TIP3   OH216781   2.345   1.853   4.267
 5606TIP3    H116782   2.261   1.839   4.311
 5606TIP3    H216783   2.411   1.826   4.332
 5607TIP3   OH216784   2.279   2.410   1.520
 5607TIP3    H116785   2.320   2.434   1.437
 5607TIP3    H216786   2.312   2.474   1.583
 5608TIP3   OH216787   2.000   2.446   1.454
 5608TIP3    H116788   2.092   2.438   1.479
 5608TIP3    H216789   2.000   2.445   1.359
 5609TIP3   OH216790   4.080   0.349   0.980
 5609TIP3    H116791   3.998   0.304   0.960
 5609TIP3    H216792   4.144   0.280   0.993
 5610TIP3   OH216793   0.268   0.557   1.186
 5610TIP3    H116794   0.341   0.530   1.242
 5610TIP3    H216795   0.309   0.610   1.117
 5611TIP3   OH216796   0.352   1.899   3.061
 5611TIP3    H116797   0.384   1.929   3.146
 5611TIP3    H216798   0.278   1.957   3.042
 5612TIP3   OH216799   3.685   6.115   1.423
 5612TIP3    H116800   3.759   6.092   1.479
 5612TIP3    H216801   3.626   6.163   1.480
 5613TIP3   OH216802   3.061   3.140   4.966
 5613TIP3    H116803   3.075   3.198   4.891
 5613TIP3    H216804   3.148   3.129   5.004
 5614TIP3   OH216805   6.753   5.995   0.717
 5614TIP3    H116806   6.786   6.082   0.737
 5614TIP3    H216807   6.684   5.981   0.782
 5615TIP3   OH216808   3.050   5.764   1.371
 5615TIP3    H116809   3.061   5.693   1.434
 5615TIP3    H216810   3.109   5.742   1.299
 5616TIP3   OH216811   7.054   3.033   2.203
 5616TIP3    H116812   7.149   3.027   2.219
 5616TIP3    H216813   7.042   3.122   2.170
 5617TIP3   OH216814   3.499  -0.022   5.662
 5617TIP3    H116815   3.417  -0.016   5.710
 5617TIP3    H216816   3.557   0.041   5.706
 5618TIP3   OH216817   6.710   4.288   4.992
 5618TIP3    H116818   6.795   4.264   5.029
 5618TIP3    H216819   6.724   4.289   4.897
 5619TIP3   OH216820   0.837   1.046   1.289
 5619TIP3    H116821   0.910   1.100   1.318
 5619TIP3    H216822   0.760   1.100   1.304
 5620TIP3   OH216823   2.163   2.243   5.328
 5620TIP3    H116824   2.237   2.183   5.340
 5620TIP3    H216825   2.203   2.322   5.291
 5621TIP3   OH216826   1.925   3.900   3.183
 5621TIP3    H116827   1.959   3.980   3.223
 5621TIP3    H216828   1.873   3.859   3.251
 5622TIP3   OH216829   5.465   5.981   4.370
 5622TIP3    H116830   5.447   5.891   4.396
 5622TIP3    H216831   5.496   6.024   4.450
 5623TIP3   OH216832   4.016   1.844   4.849
 5623TIP3    H116833   3.936   1.892   4.828
 5623TIP3    H216834   3.993   1.752   4.836
 5624TIP3   OH216835   6.038   5.320   0.275
 5624TIP3    H116836   6.115   5.274   0.241
 5624TIP3    H216837   6.074   5.382   0.339
 5625TIP3   OH216838   1.017   4.925   1.109
 5625TIP3    H116839   1.051   4.837   1.127
 5625TIP3    H216840   1.073   4.983   1.161
 5626TIP3   OH216841   5.068   4.813   4.564
 5626TIP3    H116842   4.989   4.862   4.584
 5626TIP3    H216843   5.079   4.824   4.469
 5627TIP3   OH216844   4.908   1.988   1.544
 5627TIP3    H116845   4.971   2.060   1.538
 5627TIP3    H216846   4.954   1.920   1.593
 5628TIP3   OH216847   3.371   3.800   1.142
 5628TIP3    H116848   3.452   3.754   1.165
 5628TIP3    H216849   3.333   3.748   1.071
 5629TIP3   OH216850   2.896   2.519   4.685
 5629TIP3    H116851   2.843   2.526   4.764
 5629TIP3    H216852   2.967   2.459   4.708
 5630TIP3   OH216853   6.954   3.495   1.328
 5630TIP3    H116854   6.990   3.582   1.313
 5630TIP3    H216855   6.916   3.470   1.244
 5631TIP3   OH216856   5.417   4.300   4.076
 5631TIP3    H116857   5.437   4.321   3.985
 5631TIP3    H216858   5.327   4.266   4.074
 5632TIP3   OH216859   3.360   5.214   1.029
 5632TIP3    H116860   3.380   5.124   1.053
 5632TIP3    H216861   3.436   5.244   0.979
 5633TIP3   OH216862   3.117   2.778   2.459
 5633TIP3    H116863   3.166   2.853   2.424
 5633TIP3    H216864   3.110   2.717   2.386
 5634TIP3   OH216865   0.570   0.616  -0.010
 5634TIP3    H116866   0.504   0.663  -0.062
 5634TIP3    H216867   0.617   0.686   0.037
 5635TIP3   OH216868   3.061   1.079   1.101
 5635TIP3    H116869   3.019   1.076   1.015
 5635TIP3    H216870   3.151   1.051   1.085
 5636TIP3   OH216871   7.037   5.153   0.483
 5636TIP3    H116872   7.092   5.219   0.525
 5636TIP3    H216873   7.093   5.075   0.478
 5637TIP3   OH216874   4.835   2.133   4.673
 5637TIP3    H116875   4.794   2.168   4.752
 5637TIP3    H216876   4.883   2.206   4.636
 5638TIP3   OH216877   3.230   2.737   1.381
 5638TIP3    H116878   3.188   2.723   1.296
 5638TIP3    H216879   3.299   2.800   1.363
 5639TIP3   OH216880   3.980   5.264   5.632
 5639TIP3    H116881   3.898   5.257   5.583
 5639TIP3    H216882   4.045   5.220   5.577
 5640TIP3   OH216883   6.587   5.085   2.815
 5640TIP3    H116884   6.605   5.001   2.774
 5640TIP3    H216885   6.504   5.113   2.777
 5641TIP3   OH216886   2.446   4.771   3.015
 5641TIP3    H116887   2.352   4.788   3.013
 5641TIP3    H216888   2.485   4.854   3.042
 5642TIP3   OH216889   4.984   5.197   4.450
 5642TIP3    H116890   5.040   5.143   4.506
 5642TIP3    H216891   5.042   5.264   4.415
 5643TIP3   OH216892   0.437   5.283   1.986
 5643TIP3    H116893   0.453   5.336   2.064
 5643TIP3    H216894   0.477   5.198   2.006
 5644TIP3   OH216895   7.002   5.604   5.132
 5644TIP3    H116896   7.091   5.637   5.145
 5644TIP3    H216897   6.974   5.643   5.049
 5645TIP3   OH216898   1.847   5.061   3.828
 5645TIP3    H116899   1.764   5.073   3.874
 5645TIP3    H216900   1.909   5.035   3.896
 5646TIP3   OH216901   2.058   0.063   0.140
 5646TIP3    H116902   1.979   0.015   0.116
 5646TIP3    H216903   2.090   0.099   0.057
 5647TIP3   OH216904   6.839   6.790   2.132
 5647TIP3    H116905   6.822   6.870   2.183
 5647TIP3    H216906   6.903   6.742   2.185
 5648TIP3   OH216907   5.576   5.849   1.575
 5648TIP3    H116908   5.649   5.791   1.550
 5648TIP3    H216909   5.531   5.868   1.492
 5649TIP3   OH216910   1.496   4.554   1.165
 5649TIP3    H116911   1.463   4.465   1.176
 5649TIP3    H216912   1.575   4.558   1.218
 5650TIP3   OH216913   5.998   5.507   2.072
 5650TIP3    H116914   6.048   5.545   2.000
 5650TIP3    H216915   6.063   5.467   2.129
 5651TIP3   OH216916   7.190   6.081   3.845
 5651TIP3    H116917   7.224   6.150   3.787
 5651TIP3    H216918   7.263   6.061   3.904
 5652TIP3   OH216919   4.605   3.916   0.579
 5652TIP3    H116920   4.663   3.939   0.652
 5652TIP3    H216921   4.659   3.861   0.522
 5653TIP3   OH216922   6.130   0.885   3.990
 5653TIP3    H116923   6.211   0.861   3.946
 5653TIP3    H216924   6.139   0.978   4.008
 5654TIP3   OH216925   1.740   2.997   3.813
 5654TIP3    H116926   1.739   2.920   3.869
 5654TIP3    H216927   1.681   3.059   3.856
 5655TIP3   OH216928   2.529   6.339   3.072
 5655TIP3    H116929   2.583   6.378   3.141
 5655TIP3    H216930   2.461   6.404   3.055
 5656TIP3   OH216931   0.409   1.741   5.215
 5656TIP3    H116932   0.353   1.755   5.292
 5656TIP3    H216933   0.439   1.828   5.190
 5657TIP3   OH216934   0.481   1.366   5.445
 5657TIP3    H116935   0.439   1.352   5.530
 5657TIP3    H216936   0.408   1.387   5.386
 5658TIP3   OH216937   3.149   4.453   3.543
 5658TIP3    H116938   3.131   4.547   3.540
 5658TIP3    H216939   3.070   4.414   3.581
 5659TIP3   OH216940   0.748   1.248   2.059
 5659TIP3    H116941   0.787   1.335   2.065
 5659TIP3    H216942   0.654   1.264   2.058
 5660TIP3   OH216943   5.178   3.860   1.594
 5660TIP3    H116944   5.123   3.789   1.626
 5660TIP3    H216945   5.158   3.934   1.651
 5661TIP3   OH216946   3.959   0.369   3.057
 5661TIP3    H116947   3.913   0.313   2.994
 5661TIP3    H216948   4.050   0.340   3.052
 5662TIP3   OH216949   6.191   1.608   3.570
 5662TIP3    H116950   6.177   1.551   3.494
 5662TIP3    H216951   6.233   1.551   3.635
 5663TIP3   OH216952   6.639   2.240   5.716
 5663TIP3    H116953   6.668   2.149   5.709
 5663TIP3    H216954   6.720   2.291   5.711
 5664TIP3   OH216955   6.011   3.543   4.139
 5664TIP3    H116956   6.068   3.565   4.066
 5664TIP3    H216957   6.035   3.605   4.209
 5665TIP3   OH216958   6.865   1.240   5.739
 5665TIP3    H116959   6.797   1.184   5.701
 5665TIP3    H216960   6.818   1.300   5.797
 5666TIP3   OH216961   5.108   1.064   0.594
 5666TIP3    H116962   5.100   1.014   0.675
 5666TIP3    H216963   5.025   1.048   0.548
 5667TIP3   OH216964   1.275   4.777   5.041
 5667TIP3    H116965   1.362   4.773   5.081
 5667TIP3    H216966   1.290   4.753   4.950
 5668TIP3   OH216967   5.306   5.752   0.887
 5668TIP3    H116968   5.244   5.780   0.820
 5668TIP3    H216969   5.320   5.830   0.940
 5669TIP3   OH216970   5.048   3.119   0.512
 5669TIP3    H116971   4.970   3.170   0.490
 5669TIP3    H216972   5.057   3.057   0.440
 5670TIP3   OH216973   6.573   4.778   1.609
 5670TIP3    H116974   6.487   4.764   1.568
 5670TIP3    H216975   6.559   4.847   1.673
 5671TIP3   OH216976   3.141   2.662   3.609
 5671TIP3    H116977   3.234   2.649   3.591
 5671TIP3    H216978   3.123   2.604   3.683
 5672TIP3   OH216979   1.086   1.850   5.209
 5672TIP3    H116980   1.111   1.776   5.153
 5672TIP3    H216981   1.148   1.919   5.187
 5673TIP3   OH216982   3.772   4.888   1.258
 5673TIP3    H116983   3.846   4.839   1.294
 5673TIP3    H216984   3.695   4.844   1.294
 5674TIP3   OH216985   0.994   5.626   0.363
 5674TIP3    H116986   0.975   5.720   0.362
 5674TIP3    H216987   0.992   5.600   0.271
 5675TIP3   OH216988   1.683   4.885   4.827
 5675TIP3    H116989   1.769   4.849   4.848
 5675TIP3    H216990   1.654   4.927   4.908
 5676TIP3   OH216991   0.931   5.148   3.274
 5676TIP3    H116992   1.026   5.150   3.278
 5676TIP3    H216993   0.905   5.100   3.353
 5677TIP3   OH216994   2.622   5.711   1.005
 5677TIP3    H116995   2.631   5.671   1.092
 5677TIP3    H216996   2.699   5.767   0.996
 5678TIP3   OH216997   1.474   6.709   3.057
 5678TIP3    H116998   1.417   6.634   3.041
 5678TIP3    H216999   1.508   6.733   2.971
 5679TIP3   OH217000   2.207   5.721   4.609
 5679TIP3    H117001   2.150   5.797   4.619
 5679TIP3    H217002   2.284   5.755   4.563
 5680TIP3   OH217003   1.341   0.809   0.567
 5680TIP3    H117004   1.263   0.785   0.617
 5680TIP3    H217005   1.328   0.768   0.481
 5681TIP3   OH217006   4.160   1.612   5.386
 5681TIP3    H117007   4.233   1.628   5.327
 5681TIP3    H217008   4.104   1.689   5.375
 5682TIP3   OH217009   2.875   0.806   1.253
 5682TIP3    H117010   2.792   0.782   1.293
 5682TIP3    H217011   2.852   0.849   1.171
 5683TIP3   OH217012   0.043   6.395   0.851
 5683TIP3    H117013   0.033   6.485   0.883
 5683TIP3    H217014   0.135   6.373   0.869
 5684TIP3   OH217015   5.590   4.157   4.215
 5684TIP3    H117016   5.551   4.070   4.224
 5684TIP3    H217017   5.529   4.204   4.158
 5685TIP3   OH217018   2.802   2.824   5.025
 5685TIP3    H117019   2.781   2.883   4.953
 5685TIP3    H217020   2.879   2.863   5.067
 5686TIP3   OH217021   5.029   0.999   2.454
 5686TIP3    H117022   4.950   1.000   2.508
 5686TIP3    H217023   5.079   0.923   2.486
 5687TIP3   OH217024   3.967   3.332   5.773
 5687TIP3    H117025   4.025   3.276   5.721
 5687TIP3    H217026   4.024   3.372   5.838
 5688TIP3   OH217027   3.214   3.686   3.866
 5688TIP3    H117028   3.177   3.605   3.900
 5688TIP3    H217029   3.302   3.690   3.903
 5689TIP3   OH217030   3.846   3.131   1.658
 5689TIP3    H117031   3.899   3.149   1.736
 5689TIP3    H217032   3.818   3.218   1.628
 5690TIP3   OH217033   6.515   5.214   0.451
 5690TIP3    H117034   6.512   5.199   0.356
 5690TIP3    H217035   6.470   5.139   0.489
 5691TIP3   OH217036  -0.027   3.931   4.529
 5691TIP3    H117037   0.061   3.949   4.560
 5691TIP3    H217038  -0.083   3.989   4.580
 5692TIP3   OH217039   0.673   2.255   4.833
 5692TIP3    H117040   0.712   2.334   4.796
 5692TIP3    H217041   0.708   2.251   4.922
 5693TIP3   OH217042   1.033   0.179   5.585
 5693TIP3    H117043   1.039   0.095   5.630
 5693TIP3    H217044   1.018   0.156   5.493
 5694TIP3   OH217045   4.031   5.715   3.133
 5694TIP3    H117046   3.950   5.672   3.160
 5694TIP3    H217047   4.101   5.662   3.171
 5695TIP3   OH217048   0.140   0.264   0.617
 5695TIP3    H117049   0.210   0.268   0.682
 5695TIP3    H217050   0.158   0.337   0.558
 5696TIP3   OH217051   4.091   1.832   0.143
 5696TIP3    H117052   4.038   1.911   0.154
 5696TIP3    H217053   4.149   1.831   0.219
 5697TIP3   OH217054   7.101   1.364   5.877
 5697TIP3    H117055   7.016   1.325   5.857
 5697TIP3    H217056   7.161   1.289   5.881
 5698TIP3   OH217057   5.318   3.471   3.008
 5698TIP3    H117058   5.283   3.382   3.009
 5698TIP3    H217059   5.369   3.478   3.089
 5699TIP3   OH217060   3.033   6.725   5.111
 5699TIP3    H117061   2.963   6.751   5.171
 5699TIP3    H217062   3.092   6.800   5.108
 5700TIP3   OH217063   6.321   5.902   4.776
 5700TIP3    H117064   6.381   5.835   4.743
 5700TIP3    H217065   6.379   5.968   4.815
 5701TIP3   OH217066   3.116   2.369   1.611
 5701TIP3    H117067   3.160   2.286   1.632
 5701TIP3    H217068   3.048   2.344   1.548
 5702TIP3   OH217069   2.543   6.245   1.916
 5702TIP3    H117070   2.604   6.240   1.990
 5702TIP3    H217071   2.480   6.312   1.942
 5703TIP3   OH217072   3.255   3.392   3.320
 5703TIP3    H117073   3.212   3.438   3.248
 5703TIP3    H217074   3.221   3.303   3.315
 5704TIP3   OH217075   1.657   6.539   2.591
 5704TIP3    H117076   1.743   6.541   2.633
 5704TIP3    H217077   1.597   6.509   2.660
 5705TIP3   OH217078   0.449   2.538   0.674
 5705TIP3    H117079   0.375   2.598   0.670
 5705TIP3    H217080   0.523   2.593   0.700
 5706TIP3   OH217081   2.703   0.553   3.171
 5706TIP3    H117082   2.723   0.528   3.261
 5706TIP3    H217083   2.787   0.577   3.132
 5707TIP3   OH217084   6.998   1.444  -0.026
 5707TIP3    H117085   6.943   1.366  -0.025
 5707TIP3    H217086   6.980   1.487   0.057
 5708TIP3   OH217087   4.616   4.269   5.683
 5708TIP3    H117088   4.529   4.309   5.681
 5708TIP3    H217089   4.599   4.175   5.681
 5709TIP3   OH217090   3.751   3.738   5.217
 5709TIP3    H117091   3.796   3.657   5.192
 5709TIP3    H217092   3.810   3.808   5.190
 5710TIP3   OH217093   1.253   0.756   0.911
 5710TIP3    H117094   1.320   0.818   0.937
 5710TIP3    H217095   1.245   0.696   0.986
 5711TIP3   OH217096   0.038   0.710   1.314
 5711TIP3    H117097  -0.009   0.631   1.288
 5711TIP3    H217098   0.120   0.707   1.266
 5712TIP3   OH217099   3.451   5.314   2.147
 5712TIP3    H117100   3.382   5.380   2.144
 5712TIP3    H217101   3.431   5.262   2.225
 5713TIP3   OH217102   2.867   1.573   3.418
 5713TIP3    H117103   2.841   1.661   3.444
 5713TIP3    H217104   2.810   1.515   3.468
 5714TIP3   OH217105   4.549   2.346   0.930
 5714TIP3    H117106   4.541   2.343   0.835
 5714TIP3    H217107   4.527   2.257   0.958
 5715TIP3   OH217108   3.667   5.292   4.532
 5715TIP3    H117109   3.682   5.281   4.438
 5715TIP3    H217110   3.742   5.249   4.573
 5716TIP3   OH217111   1.010   6.313   4.202
 5716TIP3    H117112   1.054   6.390   4.239
 5716TIP3    H217113   0.920   6.319   4.233
 5717TIP3   OH217114   4.293   3.423   0.552
 5717TIP3    H117115   4.356   3.380   0.609
 5717TIP3    H217116   4.336   3.504   0.525
 5718TIP3   OH217117   6.727   3.709   0.446
 5718TIP3    H117118   6.642   3.725   0.487
 5718TIP3    H217119   6.734   3.614   0.441
 5719TIP3   OH217120   1.295   3.366   2.346
 5719TIP3    H117121   1.296   3.458   2.318
 5719TIP3    H217122   1.202   3.344   2.354
 5720TIP3   OH217123   0.276   5.939   2.952
 5720TIP3    H117124   0.183   5.942   2.977
 5720TIP3    H217125   0.294   6.027   2.919
 5721TIP3   OH217126   1.484   1.223   5.349
 5721TIP3    H117127   1.505   1.140   5.392
 5721TIP3    H217128   1.476   1.201   5.256
 5722TIP3   OH217129   6.025   3.987   4.755
 5722TIP3    H117130   6.057   4.076   4.762
 5722TIP3    H217131   6.081   3.937   4.815
 5723TIP3   OH217132   1.549   4.440   3.755
 5723TIP3    H117133   1.619   4.495   3.792
 5723TIP3    H217134   1.591   4.394   3.683
 5724TIP3   OH217135   5.750   3.903   4.543
 5724TIP3    H117136   5.744   3.940   4.631
 5724TIP3    H217137   5.659   3.891   4.517
 5725TIP3   OH217138   1.211   1.936   1.002
 5725TIP3    H117139   1.231   1.843   0.994
 5725TIP3    H217140   1.201   1.967   0.912
 5726TIP3   OH217141   3.776   6.121   5.107
 5726TIP3    H117142   3.845   6.187   5.101
 5726TIP3    H217143   3.814   6.043   5.065
 5727TIP3   OH217144   2.321   0.065   5.147
 5727TIP3    H117145   2.375  -0.013   5.162
 5727TIP3    H217146   2.255   0.063   5.217
 5728TIP3   OH217147   6.842   1.055   3.061
 5728TIP3    H117148   6.770   1.042   3.123
 5728TIP3    H217149   6.833   1.146   3.033
 5729TIP3   OH217150   3.841   0.406   3.617
 5729TIP3    H117151   3.821   0.498   3.599
 5729TIP3    H217152   3.929   0.408   3.656
 5730TIP3   OH217153   0.368   0.490   3.070
 5730TIP3    H117154   0.377   0.510   3.163
 5730TIP3    H217155   0.440   0.537   3.028
 5731TIP3   OH217156   1.438   5.757   3.852
 5731TIP3    H117157   1.354   5.789   3.885
 5731TIP3    H217158   1.438   5.663   3.873
 5732TIP3   OH217159   6.277   4.633   1.733
 5732TIP3    H117160   6.280   4.630   1.829
 5732TIP3    H217161   6.234   4.717   1.714
 5733TIP3   OH217162   6.428   2.269   1.510
 5733TIP3    H117163   6.350   2.277   1.565
 5733TIP3    H217164   6.454   2.359   1.492
 5734TIP3   OH217165   6.415   1.944   1.794
 5734TIP3    H117166   6.443   1.897   1.715
 5734TIP3    H217167   6.479   2.014   1.805
 5735TIP3   OH217168   4.969   3.989   1.361
 5735TIP3    H117169   4.908   3.929   1.318
 5735TIP3    H217170   4.938   3.993   1.452
 5736TIP3   OH217171   6.342   1.800   4.960
 5736TIP3    H117172   6.376   1.889   4.946
 5736TIP3    H217173   6.420   1.746   4.971
 5737TIP3   OH217174   6.864   4.038   4.897
 5737TIP3    H117175   6.829   3.958   4.937
 5737TIP3    H217176   6.902   4.087   4.969
 5738TIP3   OH217177   0.105   2.034   2.987
 5738TIP3    H117178   0.071   2.122   2.971
 5738TIP3    H217179   0.055   2.003   3.062
 5739TIP3   OH217180   4.634   5.176   2.954
 5739TIP3    H117181   4.605   5.137   3.037
 5739TIP3    H217182   4.557   5.170   2.897
 5740TIP3   OH217183   0.773   0.933   3.340
 5740TIP3    H117184   0.828   0.875   3.287
 5740TIP3    H217185   0.748   0.880   3.416
 5741TIP3   OH217186   0.922   3.171   1.325
 5741TIP3    H117187   0.828   3.176   1.306
 5741TIP3    H217188   0.944   3.078   1.312
 5742TIP3   OH217189   4.442   2.381   2.862
 5742TIP3    H117190   4.413   2.432   2.938
 5742TIP3    H217191   4.536   2.397   2.857
 5743TIP3   OH217192   4.317   3.901   3.176
 5743TIP3    H117193   4.307   3.904   3.272
 5743TIP3    H217194   4.291   3.811   3.153
 5744TIP3   OH217195   1.378   0.208   2.297
 5744TIP3    H117196   1.466   0.218   2.260
 5744TIP3    H217197   1.354   0.118   2.278
 5745TIP3   OH217198   1.265   5.090   3.945
 5745TIP3    H117199   1.200   5.019   3.937
 5745TIP3    H217200   1.218   5.159   3.992
 5746TIP3   OH217201   3.670   0.533   2.669
 5746TIP3    H117202   3.590   0.525   2.721
 5746TIP3    H217203   3.644   0.587   2.595
 5747TIP3   OH217204   2.479   5.437   0.264
 5747TIP3    H117205   2.523   5.484   0.335
 5747TIP3    H217206   2.546   5.431   0.195
 5748TIP3   OH217207   1.062   4.794   1.384
 5748TIP3    H117208   1.134   4.764   1.329
 5748TIP3    H217209   1.104   4.836   1.459
 5749TIP3   OH217210   6.615   5.994   1.177
 5749TIP3    H117211   6.583   5.967   1.091
 5749TIP3    H217212   6.708   6.013   1.162
 5750TIP3   OH217213   4.921   4.712   1.848
 5750TIP3    H117214   4.833   4.743   1.826
 5750TIP3    H217215   4.968   4.792   1.872
 5751TIP3   OH217216   2.437   0.041   0.622
 5751TIP3    H117217   2.368   0.092   0.581
 5751TIP3    H217218   2.429  -0.046   0.583
 5752TIP3   OH217219   5.342   5.665   5.634
 5752TIP3    H117220   5.341   5.738   5.572
 5752TIP3    H217221   5.353   5.587   5.580
 5753TIP3   OH217222   0.690   5.406   4.813
 5753TIP3    H117223   0.748   5.329   4.820
 5753TIP3    H217224   0.711   5.458   4.891
 5754TIP3   OH217225   4.472   6.691   4.330
 5754TIP3    H117226   4.562   6.679   4.299
 5754TIP3    H217227   4.440   6.766   4.282
 5755TIP3   OH217228   5.497   4.811   0.186
 5755TIP3    H117229   5.422   4.859   0.221
 5755TIP3    H217230   5.476   4.719   0.202
 5756TIP3   OH217231   6.611   4.989   5.057
 5756TIP3    H117232   6.661   4.929   5.111
 5756TIP3    H217233   6.568   4.934   4.991
 5757TIP3   OH217234   4.924   6.008   5.253
 5757TIP3    H117235   4.938   5.968   5.338
 5757TIP3    H217236   4.893   6.097   5.273
 5758TIP3   OH217237   4.880   5.802   1.020
 5758TIP3    H117238   4.938   5.863   0.973
 5758TIP3    H217239   4.846   5.745   0.951
 5759TIP3   OH217240   1.825   3.017   1.615
 5759TIP3    H117241   1.901   3.021   1.555
 5759TIP3    H217242   1.758   3.068   1.570
 5760TIP3   OH217243   4.703   4.263   4.676
 5760TIP3    H117244   4.657   4.180   4.668
 5760TIP3    H217245   4.788   4.240   4.714
 5761TIP3   OH217246   2.023   1.198   5.531
 5761TIP3    H117247   2.016   1.290   5.557
 5761TIP3    H217248   2.116   1.178   5.541
 5762TIP3   OH217249   3.014   5.019   5.855
 5762TIP3    H117250   3.040   5.091   5.797
 5762TIP3    H217251   2.919   5.014   5.844
 5763TIP3   OH217252   5.082   0.941   1.156
 5763TIP3    H117253   5.035   1.002   1.212
 5763TIP3    H217254   5.174   0.966   1.164
 5764TIP3   OH217255   6.292   4.839   1.471
 5764TIP3    H117256   6.289   4.925   1.513
 5764TIP3    H217257   6.228   4.787   1.518
 5765TIP3   OH217258   1.599   6.556   3.849
 5765TIP3    H117259   1.509   6.527   3.835
 5765TIP3    H217260   1.596   6.604   3.932
 5766TIP3   OH217261   5.279   3.560   0.746
 5766TIP3    H117262   5.352   3.578   0.687
 5766TIP3    H217263   5.212   3.521   0.690
 5767TIP3   OH217264   1.406   0.738   3.268
 5767TIP3    H117265   1.498   0.726   3.289
 5767TIP3    H217266   1.369   0.650   3.270
 5768TIP3   OH217267   2.284   2.157   1.440
 5768TIP3    H117268   2.326   2.096   1.500
 5768TIP3    H217269   2.291   2.243   1.483
 5769TIP3   OH217270   2.256   5.710   4.212
 5769TIP3    H117271   2.327   5.734   4.153
 5769TIP3    H217272   2.299   5.662   4.283
 5770TIP3   OH217273   1.693   2.060   3.369
 5770TIP3    H117274   1.756   2.024   3.432
 5770TIP3    H217275   1.724   2.149   3.352
 5771TIP3   OH217276   3.189   0.366   5.273
 5771TIP3    H117277   3.186   0.401   5.362
 5771TIP3    H217278   3.104   0.324   5.260
 5772TIP3   OH217279   6.625   6.707   0.655
 5772TIP3    H117280   6.549   6.729   0.708
 5772TIP3    H217281   6.632   6.611   0.662
 5773TIP3   OH217282   6.388   4.423   4.820
 5773TIP3    H117283   6.482   4.438   4.830
 5773TIP3    H217284   6.351   4.450   4.904
 5774TIP3   OH217285   3.520   2.753   0.830
 5774TIP3    H117286   3.591   2.810   0.801
 5774TIP3    H217287   3.509   2.690   0.759
 5775TIP3   OH217288   5.228   4.374   1.782
 5775TIP3    H117289   5.321   4.397   1.773
 5775TIP3    H217290   5.181   4.449   1.747
 5776TIP3   OH217291   7.064   2.422   3.565
 5776TIP3    H117292   7.010   2.345   3.585
 5776TIP3    H217293   7.034   2.450   3.479
 5777TIP3   OH217294   1.991   0.341   1.749
 5777TIP3    H117295   2.056   0.315   1.683
 5777TIP3    H217296   1.985   0.436   1.741
 5778TIP3   OH217297   3.525   5.587   4.275
 5778TIP3    H117298   3.617   5.612   4.261
 5778TIP3    H217299   3.478   5.633   4.206
 5779TIP3   OH217300   3.072   2.569   2.284
 5779TIP3    H117301   3.062   2.493   2.225
 5779TIP3    H217302   3.102   2.639   2.226
 5780TIP3   OH217303   0.892   0.808   2.518
 5780TIP3    H117304   0.828   0.847   2.578
 5780TIP3    H217305   0.887   0.714   2.534
 5781TIP3   OH217306   3.331   3.899   0.682
 5781TIP3    H117307   3.409   3.944   0.715
 5781TIP3    H217308   3.289   3.863   0.760
 5782TIP3   OH217309   1.442   1.739   2.464
 5782TIP3    H117310   1.511   1.783   2.512
 5782TIP3    H217311   1.481   1.716   2.379
 5783TIP3   OH217312   1.396   0.413   0.377
 5783TIP3    H117313   1.464   0.418   0.311
 5783TIP3    H217314   1.439   0.376   0.454
 5784TIP3   OH217315   3.325   6.552   1.419
 5784TIP3    H117316   3.256   6.605   1.459
 5784TIP3    H217317   3.391   6.616   1.392
 5785TIP3   OH217318   6.856   2.591   1.593
 5785TIP3    H117319   6.928   2.630   1.643
 5785TIP3    H217320   6.780   2.647   1.611
 5786TIP3   OH217321   1.671   5.362   3.061
 5786TIP3    H117322   1.709   5.366   3.149
 5786TIP3    H217323   1.578   5.347   3.076
 5787TIP3   OH217324   6.901   6.147   5.357
 5787TIP3    H117325   6.845   6.224   5.365
 5787TIP3    H217326   6.860   6.081   5.412
 5788TIP3   OH217327   0.240   3.338   4.852
 5788TIP3    H117328   0.222   3.427   4.820
 5788TIP3    H217329   0.219   3.282   4.778
 5789TIP3   OH217330   1.106   3.987   0.046
 5789TIP3    H117331   1.055   3.913   0.013
 5789TIP3    H217332   1.181   3.993  -0.014
 5790TIP3   OH217333   1.577   1.690   1.258
 5790TIP3    H117334   1.572   1.777   1.296
 5790TIP3    H217335   1.658   1.653   1.293
 5791TIP3   OH217336   6.251   4.444   3.031
 5791TIP3    H117337   6.181   4.494   2.989
 5791TIP3    H217338   6.273   4.376   2.967
 5792TIP3   OH217339   6.230   4.277   3.965
 5792TIP3    H117340   6.258   4.207   3.907
 5792TIP3    H217341   6.174   4.234   4.030
 5793TIP3   OH217342   5.597   1.697   0.199
 5793TIP3    H117343   5.530   1.715   0.265
 5793TIP3    H217344   5.664   1.647   0.246
 5794TIP3   OH217345   3.744   6.637   0.458
 5794TIP3    H117346   3.838   6.651   0.446
 5794TIP3    H217347   3.738   6.561   0.516
 5795TIP3   OH217348   6.879   5.910   3.812
 5795TIP3    H117349   6.849   5.875   3.728
 5795TIP3    H217350   6.819   5.871   3.876
 5796TIP3   OH217351   5.446   6.323   5.297
 5796TIP3    H117352   5.403   6.391   5.246
 5796TIP3    H217353   5.506   6.371   5.355
 5797TIP3   OH217354   0.176   4.644   5.413
 5797TIP3    H117355   0.266   4.678   5.419
 5797TIP3    H217356   0.179   4.562   5.461
 5798TIP3   OH217357   4.378   6.519   4.584
 5798TIP3    H117358   4.390   6.565   4.500
 5798TIP3    H217359   4.411   6.581   4.650
 5799TIP3   OH217360   2.015   0.770   0.680
 5799TIP3    H117361   2.035   0.763   0.587
 5799TIP3    H217362   2.001   0.864   0.694
 5800TIP3   OH217363   0.511   1.353   2.082
 5800TIP3    H117364   0.432   1.304   2.060
 5800TIP3    H217365   0.487   1.404   2.159
 5801TIP3   OH217366   3.165   3.011   5.359
 5801TIP3    H117367   3.252   2.970   5.360
 5801TIP3    H217368   3.183   3.104   5.351
 5802TIP3   OH217369   5.005   4.094   3.455
 5802TIP3    H117370   4.953   4.158   3.407
 5802TIP3    H217371   5.059   4.053   3.387
 5803TIP3   OH217372   2.058   5.020   3.354
 5803TIP3    H117373   1.978   5.057   3.315
 5803TIP3    H217374   2.064   4.933   3.316
 5804TIP3   OH217375   1.719   3.897   2.174
 5804TIP3    H117376   1.752   3.844   2.101
 5804TIP3    H217377   1.657   3.840   2.219
 5805TIP3   OH217378   3.671   5.859   3.575
 5805TIP3    H117379   3.613   5.808   3.519
 5805TIP3    H217380   3.692   5.937   3.524
 5806TIP3   OH217381   4.132   6.069   2.825
 5806TIP3    H117382   4.156   6.117   2.745
 5806TIP3    H217383   4.060   6.013   2.799
 5807TIP3   OH217384   1.096   3.214   1.762
 5807TIP3    H117385   1.107   3.147   1.829
 5807TIP3    H217386   1.006   3.245   1.773
 5808TIP3   OH217387   4.061   3.728   3.413
 5808TIP3    H117388   4.021   3.785   3.348
 5808TIP3    H217389   4.129   3.681   3.365
 5809TIP3   OH217390   5.322   4.347   0.356
 5809TIP3    H117391   5.246   4.404   0.352
 5809TIP3    H217392   5.285   4.259   0.361
 5810TIP3   OH217393   4.424   3.667   0.489
 5810TIP3    H117394   4.500   3.673   0.547
 5810TIP3    H217395   4.449   3.718   0.412
 5811TIP3   OH217396   5.578   1.570   1.897
 5811TIP3    H117397   5.638   1.517   1.951
 5811TIP3    H217398   5.600   1.546   1.807
 5812TIP3   OH217399   6.619   2.082   4.990
 5812TIP3    H117400   6.604   2.045   4.903
 5812TIP3    H217401   6.688   2.027   5.028
 5813TIP3   OH217402   0.019   0.772   3.538
 5813TIP3    H117403  -0.031   0.850   3.560
 5813TIP3    H217404   0.092   0.771   3.600
 5814TIP3   OH217405   5.116   5.502   1.006
 5814TIP3    H117406   5.159   5.429   0.962
 5814TIP3    H217407   5.166   5.579   0.979
 5815TIP3   OH217408   1.606   6.166   2.743
 5815TIP3    H117409   1.533   6.127   2.695
 5815TIP3    H217410   1.682   6.152   2.687
 5816TIP3   OH217411   0.509   2.008   5.136
 5816TIP3    H117412   0.604   2.007   5.126
 5816TIP3    H217413   0.486   2.101   5.137
 5817TIP3   OH217414   6.356   2.623   3.094
 5817TIP3    H117415   6.427   2.646   3.154
 5817TIP3    H217416   6.342   2.530   3.107
 5818TIP3   OH217417   2.549   4.490   1.819
 5818TIP3    H117418   2.476   4.540   1.853
 5818TIP3    H217419   2.524   4.467   1.730
 5819TIP3   OH217420   2.429   4.638   3.578
 5819TIP3    H117421   2.356   4.591   3.537
 5819TIP3    H217422   2.437   4.719   3.527
 5820TIP3   OH217423   3.048   2.401   3.123
 5820TIP3    H117424   3.140   2.401   3.095
 5820TIP3    H217425   3.007   2.468   3.068
 5821TIP3   OH217426   6.440   3.377   3.857
 5821TIP3    H117427   6.496   3.300   3.864
 5821TIP3    H217428   6.496   3.444   3.818
 5822TIP3   OH217429   3.222   2.122   0.148
 5822TIP3    H117430   3.194   2.101   0.058
 5822TIP3    H217431   3.175   2.203   0.169
 5823TIP3   OH217432   6.934   1.442   3.482
 5823TIP3    H117433   6.941   1.347   3.490
 5823TIP3    H217434   6.842   1.460   3.502
 5824TIP3   OH217435   2.473   5.881   1.414
 5824TIP3    H117436   2.558   5.840   1.402
 5824TIP3    H217437   2.471   5.906   1.506
 5825TIP3   OH217438   1.605   2.102   1.666
 5825TIP3    H117439   1.653   2.181   1.640
 5825TIP3    H217440   1.670   2.032   1.662
 5826TIP3   OH217441   5.147   1.862   4.693
 5826TIP3    H117442   5.202   1.917   4.749
 5826TIP3    H217443   5.209   1.814   4.637
 5827TIP3   OH217444   1.098   6.394   3.025
 5827TIP3    H117445   1.072   6.453   3.096
 5827TIP3    H217446   1.029   6.402   2.960
 5828TIP3   OH217447   4.094   6.088   0.524
 5828TIP3    H117448   4.165   6.049   0.474
 5828TIP3    H217449   4.090   6.037   0.605
 5829TIP3   OH217450   0.625   2.613   2.035
 5829TIP3    H117451   0.649   2.573   1.951
 5829TIP3    H217452   0.641   2.544   2.100
 5830TIP3   OH217453   0.224   0.647   2.094
 5830TIP3    H117454   0.171   0.637   2.173
 5830TIP3    H217455   0.288   0.576   2.099
 5831TIP3   OH217456   5.186   5.005   0.923
 5831TIP3    H117457   5.179   5.068   0.995
 5831TIP3    H217458   5.275   5.019   0.889
 5832TIP3   OH217459   0.432   3.050   5.709
 5832TIP3    H117460   0.404   2.988   5.643
 5832TIP3    H217461   0.428   3.135   5.666
 5833TIP3   OH217462   4.392   3.917   1.393
 5833TIP3    H117463   4.452   3.960   1.332
 5833TIP3    H217464   4.446   3.896   1.469
 5834TIP3   OH217465   2.059   5.339   1.998
 5834TIP3    H117466   1.979   5.329   1.946
 5834TIP3    H217467   2.129   5.347   1.933
 5835TIP3   OH217468   5.387   6.700   3.976
 5835TIP3    H117469   5.402   6.786   4.016
 5835TIP3    H217470   5.336   6.652   4.042
 5836TIP3   OH217471   1.281   2.354   2.210
 5836TIP3    H117472   1.230   2.321   2.136
 5836TIP3    H217473   1.258   2.296   2.283
 5837TIP3   OH217474   4.062   6.607   2.557
 5837TIP3    H117475   4.014   6.612   2.640
 5837TIP3    H217476   3.999   6.637   2.491
 5838TIP3   OH217477   0.550   0.392   1.864
 5838TIP3    H117478   0.635   0.430   1.887
 5838TIP3    H217479   0.508   0.375   1.948
 5839TIP3   OH217480   4.988   4.299   5.327
 5839TIP3    H117481   4.997   4.374   5.268
 5839TIP3    H217482   4.921   4.326   5.390
 5840TIP3   OH217483   1.838   4.301   4.016
 5840TIP3    H117484   1.885   4.282   4.098
 5840TIP3    H217485   1.897   4.359   3.968
 5841TIP3   OH217486   4.230   2.824   3.006
 5841TIP3    H117487   4.215   2.917   2.989
 5841TIP3    H217488   4.324   2.814   2.998
 5842TIP3   OH217489   5.654   5.018   0.310
 5842TIP3    H117490   5.644   4.960   0.234
 5842TIP3    H217491   5.574   5.006   0.360
 5843TIP3   OH217492   5.464   5.045   2.176
 5843TIP3    H117493   5.470   5.043   2.080
 5843TIP3    H217494   5.441   5.135   2.197
 5844TIP3   OH217495   4.349   5.950   3.699
 5844TIP3    H117496   4.299   5.948   3.781
 5844TIP3    H217497   4.433   5.987   3.723
 5845TIP3   OH217498   3.128   4.421   2.737
 5845TIP3    H117499   3.096   4.343   2.783
 5845TIP3    H217500   3.220   4.402   2.720
 5846TIP3   OH217501   5.422   2.907   4.097
 5846TIP3    H117502   5.465   2.980   4.053
 5846TIP3    H217503   5.482   2.883   4.167
 5847TIP3   OH217504   1.653   0.976   5.214
 5847TIP3    H117505   1.715   1.046   5.233
 5847TIP3    H217506   1.705   0.896   5.215
 5848TIP3   OH217507   5.973   0.489   0.108
 5848TIP3    H117508   5.884   0.482   0.073
 5848TIP3    H217509   5.962   0.487   0.203
 5849TIP3   OH217510   5.517   6.039   4.905
 5849TIP3    H117511   5.606   6.041   4.940
 5849TIP3    H217512   5.475   6.118   4.940
 5850TIP3   OH217513   3.613   4.980   1.001
 5850TIP3    H117514   3.625   5.058   0.946
 5850TIP3    H217515   3.662   4.999   1.081
 5851TIP3   OH217516   6.035   0.387   0.672
 5851TIP3    H117517   6.072   0.327   0.737
 5851TIP3    H217518   6.096   0.461   0.671
 5852TIP3   OH217519   5.354   5.895   2.633
 5852TIP3    H117520   5.356   5.941   2.717
 5852TIP3    H217521   5.312   5.811   2.652
 5853TIP3   OH217522   1.483   4.264   0.886
 5853TIP3    H117523   1.531   4.198   0.936
 5853TIP3    H217524   1.452   4.326   0.952
 5854TIP3   OH217525   4.144   1.025   3.663
 5854TIP3    H117526   4.178   1.113   3.679
 5854TIP3    H217527   4.051   1.038   3.647
 5855TIP3   OH217528   1.629   5.427   0.638
 5855TIP3    H117529   1.559   5.481   0.601
 5855TIP3    H217530   1.589   5.341   0.651
 5856TIP3   OH217531   4.870   5.494   5.626
 5856TIP3    H117532   4.913   5.452   5.552
 5856TIP3    H217533   4.777   5.486   5.608
 5857TIP3   OH217534   5.493   2.382   4.237
 5857TIP3    H117535   5.493   2.473   4.208
 5857TIP3    H217536   5.538   2.334   4.167
 5858TIP3   OH217537   7.106   4.002   1.150
 5858TIP3    H117538   7.028   4.058   1.150
 5858TIP3    H217539   7.138   4.005   1.060
 5859TIP3   OH217540   2.113   2.587   2.386
 5859TIP3    H117541   2.141   2.537   2.463
 5859TIP3    H217542   2.026   2.621   2.410
 5860TIP3   OH217543   0.997   3.099   0.911
 5860TIP3    H117544   1.049   3.168   0.952
 5860TIP3    H217545   1.023   3.019   0.956
 5861TIP3   OH217546   5.479   6.018   2.003
 5861TIP3    H117547   5.510   6.089   1.946
 5861TIP3    H217548   5.541   6.016   2.076
 5862TIP3   OH217549   1.309   0.241   3.696
 5862TIP3    H117550   1.352   0.227   3.780
 5862TIP3    H217551   1.360   0.310   3.654
 5863TIP3   OH217552   4.250   3.666   4.844
 5863TIP3    H117553   4.269   3.685   4.936
 5863TIP3    H217554   4.163   3.704   4.829
 5864TIP3   OH217555   3.214   0.531   2.362
 5864TIP3    H117556   3.180   0.619   2.341
 5864TIP3    H217557   3.281   0.515   2.296
 5865TIP3   OH217558   3.256   1.767   2.351
 5865TIP3    H117559   3.321   1.826   2.314
 5865TIP3    H217560   3.307   1.701   2.399
 5866TIP3   OH217561   2.166   3.393   5.317
 5866TIP3    H117562   2.232   3.402   5.248
 5866TIP3    H217563   2.163   3.479   5.358
 5867TIP3   OH217564   6.069   0.179   3.211
 5867TIP3    H117565   6.063   0.267   3.174
 5867TIP3    H217566   6.055   0.190   3.305
 5868TIP3   OH217567   3.302   0.276   0.478
 5868TIP3    H117568   3.266   0.298   0.392
 5868TIP3    H217569   3.279   0.184   0.491
 5869TIP3   OH217570   1.371   6.158   5.079
 5869TIP3    H117571   1.437   6.208   5.128
 5869TIP3    H217572   1.421   6.094   5.029
 5870TIP3   OH217573   3.992   2.234   2.885
 5870TIP3    H117574   3.954   2.318   2.862
 5870TIP3    H217575   4.017   2.243   2.977
 5871TIP3   OH217576   0.332   1.664   4.224
 5871TIP3    H117577   0.237   1.651   4.218
 5871TIP3    H217578   0.351   1.730   4.157
 5872TIP3   OH217579   0.064   3.154   2.786
 5872TIP3    H117580   0.005   3.096   2.738
 5872TIP3    H217581   0.101   3.211   2.718
 5873TIP3   OH217582   1.023   4.728   3.741
 5873TIP3    H117583   0.956   4.669   3.777
 5873TIP3    H217584   1.032   4.797   3.806
 5874TIP3   OH217585   0.051   0.449   4.844
 5874TIP3    H117586   0.083   0.452   4.934
 5874TIP3    H217587   0.047   0.541   4.816
 5875TIP3   OH217588   2.031   3.647   1.866
 5875TIP3    H117589   1.982   3.651   1.784
 5875TIP3    H217590   2.121   3.668   1.842
 5876TIP3   OH217591   4.393   1.076   0.851
 5876TIP3    H117592   4.350   1.028   0.780
 5876TIP3    H217593   4.407   1.011   0.919
 5877TIP3   OH217594   2.697   6.195   4.039
 5877TIP3    H117595   2.752   6.129   4.082
 5877TIP3    H217596   2.691   6.266   4.103
 5878TIP3   OH217597   4.070   4.058   2.254
 5878TIP3    H117598   3.991   4.061   2.200
 5878TIP3    H217599   4.091   4.150   2.270
 5879TIP3   OH217600   6.888   5.539   1.269
 5879TIP3    H117601   6.831   5.489   1.211
 5879TIP3    H217602   6.899   5.484   1.346
 5880TIP3   OH217603   5.636   4.291   4.479
 5880TIP3    H117604   5.627   4.265   4.387
 5880TIP3    H217605   5.728   4.276   4.499
 5881TIP3   OH217606   1.855   5.487   4.748
 5881TIP3    H117607   1.944   5.473   4.717
 5881TIP3    H217608   1.865   5.516   4.839
 5882TIP3   OH217609   5.356   0.263   1.890
 5882TIP3    H117610   5.377   0.351   1.859
 5882TIP3    H217611   5.441   0.221   1.903
 5883TIP3   OH217612   3.098   4.493   4.072
 5883TIP3    H117613   3.036   4.552   4.029
 5883TIP3    H217614   3.085   4.409   4.027
 5884TIP3   OH217615   2.327   3.988   0.910
 5884TIP3    H117616   2.326   4.077   0.874
 5884TIP3    H217617   2.418   3.974   0.938
 5885TIP3   OH217618   4.841   2.629   3.026
 5885TIP3    H117619   4.811   2.691   2.959
 5885TIP3    H217620   4.805   2.545   2.998
 5886TIP3   OH217621   0.081   1.190   5.894
 5886TIP3    H117622   0.146   1.241   5.944
 5886TIP3    H217623   0.119   1.103   5.887
 5887TIP3   OH217624   3.031   2.714   4.313
 5887TIP3    H117625   2.945   2.754   4.324
 5887TIP3    H217626   3.069   2.713   4.401
 5888TIP3   OH217627   6.167   4.463   5.773
 5888TIP3    H117628   6.084   4.464   5.819
 5888TIP3    H217629   6.231   4.437   5.839
 5889TIP3   OH217630   3.588   2.311   4.934
 5889TIP3    H117631   3.602   2.392   4.884
 5889TIP3    H217632   3.534   2.257   4.876
 5890TIP3   OH217633   7.095   1.130   2.990
 5890TIP3    H117634   7.013   1.131   3.039
 5890TIP3    H217635   7.159   1.171   3.048
 5891TIP3   OH217636   3.866   4.081   4.066
 5891TIP3    H117637   3.893   4.062   4.156
 5891TIP3    H217638   3.890   4.002   4.017
 5892TIP3   OH217639   5.809   2.234   4.379
 5892TIP3    H117640   5.859   2.228   4.298
 5892TIP3    H217641   5.835   2.157   4.430
 5893TIP3   OH217642   1.455   4.523   4.075
 5893TIP3    H117643   1.432   4.469   3.999
 5893TIP3    H217644   1.421   4.610   4.053
 5894TIP3   OH217645   2.147   0.908   3.088
 5894TIP3    H117646   2.161   0.820   3.123
 5894TIP3    H217647   2.080   0.897   3.021
 5895TIP3   OH217648   0.940   6.241   2.059
 5895TIP3    H117649   0.921   6.315   2.001
 5895TIP3    H217650   1.028   6.213   2.034
 5896TIP3   OH217651   3.188   5.675   2.709
 5896TIP3    H117652   3.239   5.630   2.642
 5896TIP3    H217653   3.128   5.609   2.742
 5897TIP3   OH217654   1.085   5.677   4.075
 5897TIP3    H117655   1.106   5.750   4.018
 5897TIP3    H217656   0.998   5.649   4.048
 5898TIP3   OH217657   1.298   5.486   4.689
 5898TIP3    H117658   1.253   5.569   4.671
 5898TIP3    H217659   1.294   5.438   4.607
 5899TIP3   OH217660   4.867   6.249   4.985
 5899TIP3    H117661   4.930   6.299   4.933
 5899TIP3    H217662   4.836   6.181   4.925
 5900TIP3   OH217663   2.523   1.019   0.885
 5900TIP3    H117664   2.498   1.066   0.806
 5900TIP3    H217665   2.517   1.085   0.955
 5901TIP3   OH217666   7.009   3.614   0.929
 5901TIP3    H117667   7.029   3.521   0.939
 5901TIP3    H217668   7.053   3.640   0.849
 5902TIP3   OH217669   7.272   5.255   4.868
 5902TIP3    H117670   7.242   5.221   4.784
 5902TIP3    H217671   7.209   5.221   4.931
 5903TIP3   OH217672   0.086   4.434   5.585
 5903TIP3    H117673   0.116   4.343   5.584
 5903TIP3    H217674   0.001   4.430   5.627
 5904TIP3   OH217675   5.613   2.682   0.309
 5904TIP3    H117676   5.627   2.770   0.274
 5904TIP3    H217677   5.624   2.625   0.233
 5905TIP3   OH217678   6.873   4.104   0.117
 5905TIP3    H117679   6.881   4.165   0.190
 5905TIP3    H217680   6.961   4.066   0.108
 5906TIP3   OH217681   4.051   1.745   4.494
 5906TIP3    H117682   4.029   1.693   4.572
 5906TIP3    H217683   4.006   1.700   4.422
 5907TIP3   OH217684   6.394   1.098   1.246
 5907TIP3    H117685   6.425   1.056   1.326
 5907TIP3    H217686   6.467   1.092   1.185
 5908TIP3   OH217687   4.283   0.032   2.864
 5908TIP3    H117688   4.353   0.040   2.929
 5908TIP3    H217689   4.264   0.122   2.839
 5909TIP3   OH217690   0.726   6.527   4.034
 5909TIP3    H117691   0.706   6.605   3.984
 5909TIP3    H217692   0.644   6.503   4.077
 5910TIP3   OH217693   0.298   2.082   3.288
 5910TIP3    H117694   0.244   2.145   3.335
 5910TIP3    H217695   0.378   2.076   3.340
 5911TIP3   OH217696   0.008   5.627   0.209
 5911TIP3    H117697  -0.078   5.651   0.175
 5911TIP3    H217698   0.045   5.710   0.240
 5912TIP3   OH217699   5.069   5.804   3.344
 5912TIP3    H117700   4.996   5.842   3.393
 5912TIP3    H217701   5.029   5.772   3.263
 5913TIP3   OH217702   6.157   2.893   5.206
 5913TIP3    H117703   6.161   2.985   5.229
 5913TIP3    H217704   6.094   2.889   5.134
 5914TIP3   OH217705   0.100   0.654   2.349
 5914TIP3    H117706   0.149   0.729   2.382
 5914TIP3    H217707   0.012   0.665   2.383
 5915TIP3   OH217708   2.211   5.962   1.596
 5915TIP3    H117709   2.247   6.050   1.585
 5915TIP3    H217710   2.218   5.945   1.690
 5916TIP3   OH217711   5.175   0.725   0.228
 5916TIP3    H117712   5.239   0.776   0.178
 5916TIP3    H217713   5.205   0.635   0.220
 5917TIP3   OH217714   4.813   1.681   0.876
 5917TIP3    H117715   4.828   1.661   0.969
 5917TIP3    H217716   4.800   1.775   0.873
 5918TIP3   OH217717   6.193   4.634   0.117
 5918TIP3    H117718   6.223   4.673   0.034
 5918TIP3    H217719   6.133   4.699   0.153
 5919TIP3   OH217720   3.611   0.319   3.738
 5919TIP3    H117721   3.628   0.248   3.800
 5919TIP3    H217722   3.697   0.338   3.700
 5920TIP3   OH217723   4.343   2.357   4.793
 5920TIP3    H117724   4.394   2.330   4.717
 5920TIP3    H217725   4.407   2.362   4.864
 5921TIP3   OH217726   2.750   5.612   3.857
 5921TIP3    H117727   2.828   5.624   3.911
 5921TIP3    H217728   2.723   5.701   3.835
 5922TIP3   OH217729   5.943   4.189   2.267
 5922TIP3    H117730   5.969   4.099   2.246
 5922TIP3    H217731   5.850   4.193   2.243
 5923TIP3   OH217732   1.837   5.068   4.162
 5923TIP3    H117733   1.867   4.983   4.131
 5923TIP3    H217734   1.882   5.081   4.245
 5924TIP3   OH217735   2.449   5.708   2.138
 5924TIP3    H117736   2.544   5.703   2.126
 5924TIP3    H217737   2.435   5.694   2.231
 5925TIP3   OH217738   4.411   0.101   5.007
 5925TIP3    H117739   4.347   0.169   5.031
 5925TIP3    H217740   4.361   0.040   4.954
 5926TIP3   OH217741   5.054   2.455   5.489
 5926TIP3    H117742   5.072   2.361   5.499
 5926TIP3    H217743   5.134   2.497   5.522
 5927TIP3   OH217744   7.127   3.700   4.698
 5927TIP3    H117745   7.046   3.660   4.668
 5927TIP3    H217746   7.150   3.762   4.628
 5928TIP3   OH217747   1.847   2.977   2.769
 5928TIP3    H117748   1.941   2.960   2.779
 5928TIP3    H217749   1.840   3.024   2.686
 5929TIP3   OH217750   6.592   3.509   0.842
 5929TIP3    H117751   6.623   3.584   0.792
 5929TIP3    H217752   6.550   3.452   0.777
 5930TIP3   OH217753   4.514   5.021   3.831
 5930TIP3    H117754   4.469   5.083   3.773
 5930TIP3    H217755   4.605   5.023   3.801
 5931TIP3   OH217756   4.618   3.992   3.472
 5931TIP3    H117757   4.565   3.919   3.439
 5931TIP3    H217758   4.708   3.960   3.468
 5932TIP3   OH217759   6.593   0.671   1.170
 5932TIP3    H117760   6.577   0.669   1.265
 5932TIP3    H217761   6.506   0.662   1.131
 5933TIP3   OH217762   2.051   5.824   0.981
 5933TIP3    H117763   2.018   5.896   0.928
 5933TIP3    H217764   2.017   5.841   1.069
 5934TIP3   OH217765   6.264   0.126   2.474
 5934TIP3    H117766   6.353   0.146   2.502
 5934TIP3    H217767   6.217   0.105   2.555
 5935TIP3   OH217768   6.942   3.766   3.144
 5935TIP3    H117769   7.001   3.810   3.082
 5935TIP3    H217770   6.944   3.674   3.118
 5936TIP3   OH217771   1.086   1.616   3.220
 5936TIP3    H117772   1.123   1.612   3.132
 5936TIP3    H217773   1.147   1.566   3.274
 5937TIP3   OH217774   1.023   6.669   4.496
 5937TIP3    H117775   0.990   6.751   4.532
 5937TIP3    H217776   0.967   6.601   4.535
 5938TIP3   OH217777   5.871   2.897   0.669
 5938TIP3    H117778   5.777   2.882   0.664
 5938TIP3    H217779   5.909   2.810   0.680
 5939TIP3   OH217780   2.092   1.849   0.975
 5939TIP3    H117781   2.142   1.825   0.897
 5939TIP3    H217782   2.050   1.933   0.952
 5940TIP3   OH217783   5.260  -0.005   3.759
 5940TIP3    H117784   5.231   0.085   3.743
 5940TIP3    H217785   5.347  -0.009   3.719
 5941TIP3   OH217786   2.727   1.886   4.493
 5941TIP3    H117787   2.683   1.801   4.500
 5941TIP3    H217788   2.725   1.921   4.582
 5942TIP3   OH217789   1.452   0.625   2.028
 5942TIP3    H117790   1.409   0.570   2.094
 5942TIP3    H217791   1.457   0.570   1.950
 5943TIP3   OH217792   5.122   4.667   0.463
 5943TIP3    H117793   5.060   4.636   0.529
 5943TIP3    H217794   5.073   4.664   0.381
 5944TIP3   OH217795   0.727   5.020   3.451
 5944TIP3    H117796   0.788   4.947   3.466
 5944TIP3    H217797   0.642   4.978   3.440
 5945TIP3   OH217798   5.917   0.276   1.022
 5945TIP3    H117799   5.857   0.234   0.961
 5945TIP3    H217800   5.877   0.264   1.108
 5946TIP3   OH217801   0.881   0.162   1.630
 5946TIP3    H117802   0.875   0.168   1.725
 5946TIP3    H217803   0.871   0.252   1.599
 5947TIP3   OH217804   5.091   6.335   2.109
 5947TIP3    H117805   5.117   6.281   2.183
 5947TIP3    H217806   5.045   6.275   2.050
 5948TIP3   OH217807   4.419   3.763   3.437
 5948TIP3    H117808   4.438   3.726   3.524
 5948TIP3    H217809   4.354   3.830   3.454
 5949TIP3   OH217810   2.292   3.906   2.819
 5949TIP3    H117811   2.200   3.897   2.793
 5949TIP3    H217812   2.309   4.000   2.818
 5950TIP3   OH217813   5.462   6.514   0.813
 5950TIP3    H117814   5.411   6.489   0.736
 5950TIP3    H217815   5.552   6.491   0.790
 5951TIP3   OH217816   2.399   2.149   0.513
 5951TIP3    H117817   2.404   2.200   0.593
 5951TIP3    H217818   2.419   2.212   0.443
 5952TIP3   OH217819   4.660   0.819   3.691
 5952TIP3    H117820   4.654   0.789   3.781
 5952TIP3    H217821   4.573   0.805   3.654
 5953TIP3   OH217822   4.833   4.831   1.464
 5953TIP3    H117823   4.848   4.777   1.542
 5953TIP3    H217824   4.785   4.773   1.404
 5954TIP3   OH217825   6.896   1.802   4.291
 5954TIP3    H117826   6.876   1.805   4.198
 5954TIP3    H217827   6.883   1.710   4.315
 5955TIP3   OH217828   5.874   2.027   2.558
 5955TIP3    H117829   5.795   2.034   2.504
 5955TIP3    H217830   5.923   2.107   2.538
 5956TIP3   OH217831   1.928   2.242   4.428
 5956TIP3    H117832   1.937   2.238   4.524
 5956TIP3    H217833   1.845   2.198   4.411
 5957TIP3   OH217834   6.851   6.229   0.804
 5957TIP3    H117835   6.864   6.324   0.810
 5957TIP3    H217836   6.940   6.194   0.797
 5958TIP3   OH217837   2.289   4.530   4.675
 5958TIP3    H117838   2.318   4.443   4.647
 5958TIP3    H217839   2.239   4.514   4.755
 5959TIP3   OH217840   0.170   2.765   2.490
 5959TIP3    H117841   0.249   2.797   2.447
 5959TIP3    H217842   0.098   2.791   2.433
 5960TIP3   OH217843   4.831   2.890   3.491
 5960TIP3    H117844   4.763   2.843   3.540
 5960TIP3    H217845   4.814   2.867   3.399
 5961TIP3   OH217846   5.603   0.102   1.891
 5961TIP3    H117847   5.662   0.126   1.963
 5961TIP3    H217848   5.615   0.008   1.880
 5962TIP3   OH217849   2.425   6.440   4.768
 5962TIP3    H117850   2.409   6.356   4.724
 5962TIP3    H217851   2.398   6.425   4.858
 5963TIP3   OH217852   6.691   3.468   2.559
 5963TIP3    H117853   6.741   3.435   2.633
 5963TIP3    H217854   6.720   3.558   2.549
 5964TIP3   OH217855   2.704   5.882   5.884
 5964TIP3    H117856   2.657   5.962   5.861
 5964TIP3    H217857   2.635   5.815   5.890
 5965TIP3   OH217858   5.393   6.433   2.283
 5965TIP3    H117859   5.426   6.383   2.358
 5965TIP3    H217860   5.303   6.456   2.308
 5966TIP3   OH217861   4.473   3.893   0.299
 5966TIP3    H117862   4.395   3.921   0.251
 5966TIP3    H217863   4.456   3.918   0.390
 5967TIP3   OH217864   6.888   1.650   4.960
 5967TIP3    H117865   6.844   1.699   4.891
 5967TIP3    H217866   6.916   1.569   4.917
 5968TIP3   OH217867   1.049   3.728   2.595
 5968TIP3    H117868   0.971   3.758   2.548
 5968TIP3    H217869   1.105   3.805   2.600
 5969TIP3   OH217870   1.366   3.040   4.039
 5969TIP3    H117871   1.386   2.971   3.976
 5969TIP3    H217872   1.427   3.111   4.018
 5970TIP3   OH217873   1.317   2.102   5.051
 5970TIP3    H117874   1.346   2.079   5.140
 5970TIP3    H217875   1.398   2.111   5.001
 5971TIP3   OH217876   5.134   0.866   3.679
 5971TIP3    H117877   5.219   0.852   3.636
 5971TIP3    H217878   5.071   0.867   3.608
 5972TIP3   OH217879   0.489   5.256   2.277
 5972TIP3    H117880   0.495   5.168   2.239
 5972TIP3    H217881   0.571   5.267   2.325
 5973TIP3   OH217882   0.114   6.009   4.273
 5973TIP3    H117883   0.022   6.013   4.300
 5973TIP3    H217884   0.131   6.094   4.231
 5974TIP3   OH217885   4.001   2.944   0.367
 5974TIP3    H117886   3.920   2.897   0.386
 5974TIP3    H217887   3.973   3.026   0.326
 5975TIP3   OH217888   2.297   3.846   0.287
 5975TIP3    H117889   2.251   3.904   0.347
 5975TIP3    H217890   2.235   3.776   0.268
 5976TIP3   OH217891   5.666   5.120   1.684
 5976TIP3    H117892   5.687   5.167   1.604
 5976TIP3    H217893   5.582   5.157   1.713
 5977TIP3   OH217894   2.431   3.684   0.975
 5977TIP3    H117895   2.362   3.748   0.993
 5977TIP3    H217896   2.447   3.690   0.881
 5978TIP3   OH217897   5.729   5.884   5.706
 5978TIP3    H117898   5.713   5.847   5.619
 5978TIP3    H217899   5.646   5.872   5.753
 5979TIP3   OH217900   0.819   0.956   3.921
 5979TIP3    H117901   0.766   0.934   3.997
 5979TIP3    H217902   0.803   0.886   3.858
 5980TIP3   OH217903   1.695   2.381   1.172
 5980TIP3    H117904   1.622   2.324   1.193
 5980TIP3    H217905   1.772   2.323   1.172
 5981TIP3   OH217906   1.199   0.258   2.525
 5981TIP3    H117907   1.197   0.166   2.551
 5981TIP3    H217908   1.266   0.262   2.457
 5982TIP3   OH217909   6.528   5.257   3.550
 5982TIP3    H117910   6.434   5.239   3.547
 5982TIP3    H217911   6.556   5.218   3.633
 5983TIP3   OH217912   2.602   6.372   3.773
 5983TIP3    H117913   2.638   6.294   3.730
 5983TIP3    H217914   2.679   6.423   3.799
 5984TIP3   OH217915   4.658   1.718   2.402
 5984TIP3    H117916   4.617   1.800   2.427
 5984TIP3    H217917   4.604   1.650   2.442
 5985TIP3   OH217918   2.161   4.232   1.054
 5985TIP3    H117919   2.186   4.287   1.129
 5985TIP3    H217920   2.244   4.208   1.014
 5986TIP3   OH217921   3.558   2.718   2.376
 5986TIP3    H117922   3.528   2.791   2.321
 5986TIP3    H217923   3.511   2.730   2.459
 5987TIP3   OH217924   4.613   1.011   4.887
 5987TIP3    H117925   4.557   0.988   4.812
 5987TIP3    H217926   4.702   0.992   4.857
 5988TIP3   OH217927   1.097   3.944   5.300
 5988TIP3    H117928   1.126   4.030   5.330
 5988TIP3    H217929   1.019   3.962   5.248
 5989TIP3   OH217930   4.582   6.003   5.247
 5989TIP3    H117931   4.601   6.073   5.186
 5989TIP3    H217932   4.525   6.042   5.313
 5990TIP3   OH217933   1.963   3.478   3.902
 5990TIP3    H117934   1.976   3.396   3.949
 5990TIP3    H217935   1.874   3.506   3.925
 5991TIP3   OH217936   0.276   0.353   1.495
 5991TIP3    H117937   0.329   0.432   1.489
 5991TIP3    H217938   0.220   0.367   1.571
 5992TIP3   OH217939   2.215   1.778   2.805
 5992TIP3    H117940   2.210   1.828   2.887
 5992TIP3    H217941   2.167   1.831   2.742
 5993TIP3   OH217942   5.983   3.622   1.880
 5993TIP3    H117943   5.910   3.642   1.938
 5993TIP3    H217944   6.017   3.539   1.912
 5994TIP3   OH217945   1.225   5.997   5.470
 5994TIP3    H117946   1.137   6.019   5.438
 5994TIP3    H217947   1.211   5.933   5.540
 5995TIP3   OH217948   6.075   3.296   5.693
 5995TIP3    H117949   5.987   3.328   5.673
 5995TIP3    H217950   6.072   3.276   5.787
 5996TIP3   OH217951   4.716   6.627   0.889
 5996TIP3    H117952   4.657   6.700   0.867
 5996TIP3    H217953   4.737   6.587   0.805
 5997TIP3   OH217954   7.046   6.243   3.127
 5997TIP3    H117955   7.012   6.297   3.056
 5997TIP3    H217956   7.119   6.293   3.163
 5998TIP3   OH217957   5.987   0.252   2.369
 5998TIP3    H117958   5.998   0.320   2.302
 5998TIP3    H217959   6.077   0.225   2.390
 5999TIP3   OH217960   0.050   5.990   2.172
 5999TIP3    H117961  -0.027   6.002   2.229
 5999TIP3    H217962   0.061   6.075   2.129
 6000TIP3   OH217963   2.131   5.571   5.725
 6000TIP3    H117964   2.135   5.659   5.764
 6000TIP3    H217965   2.042   5.564   5.690
 6001TIP3   OH217966   0.890   4.780   3.478
 6001TIP3    H117967   0.945   4.777   3.556
 6001TIP3    H217968   0.812   4.730   3.502
 6002TIP3   OH217969   3.456   6.547   5.773
 6002TIP3    H117970   3.441   6.630   5.728
 6002TIP3    H217971   3.536   6.561   5.824
 6003TIP3   OH217972   6.830   0.543   4.852
 6003TIP3    H117973   6.922   0.521   4.834
 6003TIP3    H217974   6.780   0.477   4.804
 6004TIP3   OH217975   0.593   2.263   1.946
 6004TIP3    H117976   0.652   2.239   2.017
 6004TIP3    H217977   0.649   2.311   1.884
 6005TIP3   OH217978   5.514   2.546   4.699
 6005TIP3    H117979   5.428   2.520   4.733
 6005TIP3    H217980   5.546   2.610   4.763
 6006TIP3   OH217981   6.614   2.689   4.768
 6006TIP3    H117982   6.592   2.602   4.801
 6006TIP3    H217983   6.657   2.732   4.841
 6007TIP3   OH217984   5.580   1.654   4.137
 6007TIP3    H117985   5.621   1.605   4.208
 6007TIP3    H217986   5.612   1.744   4.148
 6008TIP3   OH217987   2.373   6.733   3.119
 6008TIP3    H117988   2.394   6.715   3.210
 6008TIP3    H217989   2.375   6.647   3.076
 6009TIP3   OH217990   6.343   1.125   5.323
 6009TIP3    H117991   6.380   1.038   5.337
 6009TIP3    H217992   6.263   1.109   5.273
 6010TIP3   OH217993   2.367   2.281   0.747
 6010TIP3    H117994   2.276   2.252   0.740
 6010TIP3    H217995   2.393   2.258   0.837
 6011TIP3   OH217996   4.904   0.064   5.169
 6011TIP3    H117997   4.978   0.003   5.163
 6011TIP3    H217998   4.837   0.015   5.217
 6012TIP3   OH217999   5.362   4.493   2.500
 6012TIP3    H118000   5.287   4.439   2.526
 6012TIP3    H218001   5.439   4.442   2.528
 6013TIP3   OH218002   0.976   4.518   5.532
 6013TIP3    H118003   0.896   4.490   5.577
 6013TIP3    H218004   0.962   4.611   5.514
 6014TIP3   OH218005   0.963   4.533   4.659
 6014TIP3    H118006   1.030   4.476   4.696
 6014TIP3    H218007   0.880   4.493   4.685
 6015TIP3   OH218008   3.108   4.712   5.823
 6015TIP3    H118009   3.030   4.749   5.865
 6015TIP3    H218010   3.080   4.690   5.734
 6016TIP3   OH218011   5.275   5.563   5.297
 6016TIP3    H118012   5.312   5.498   5.357
 6016TIP3    H218013   5.234   5.512   5.228
 6017TIP3   OH218014   5.257   4.734   3.402
 6017TIP3    H118015   5.237   4.677   3.327
 6017TIP3    H218016   5.324   4.794   3.369
 6018TIP3   OH218017   5.815   3.931   1.438
 6018TIP3    H118018   5.796   3.908   1.529
 6018TIP3    H218019   5.753   3.880   1.387
 6019TIP3   OH218020   7.164   1.223   1.450
 6019TIP3    H118021   7.183   1.289   1.383
 6019TIP3    H218022   7.088   1.175   1.416
 6020TIP3   OH218023   6.825   4.252   4.227
 6020TIP3    H118024   6.896   4.316   4.230
 6020TIP3    H218025   6.745   4.304   4.237
 6021TIP3   OH218026   4.015   1.007   5.106
 6021TIP3    H118027   3.940   0.973   5.056
 6021TIP3    H218028   4.068   0.931   5.126
 6022TIP3   OH218029   5.570   4.317   0.470
 6022TIP3    H118030   5.562   4.336   0.563
 6022TIP3    H218031   5.483   4.335   0.434
 6023TIP3   OH218032   4.266   0.716   2.648
 6023TIP3    H118033   4.302   0.671   2.571
 6023TIP3    H218034   4.344   0.751   2.693
 6024TIP3   OH218035   2.378   2.002   5.328
 6024TIP3    H118036   2.328   1.920   5.325
 6024TIP3    H218037   2.427   2.003   5.246
 6025TIP3   OH218038   1.995   5.087   5.588
 6025TIP3    H118039   2.053   5.039   5.529
 6025TIP3    H218040   1.921   5.113   5.533
 6026TIP3   OH218041   4.133   6.111   4.678
 6026TIP3    H118042   4.097   6.048   4.741
 6026TIP3    H218043   4.152   6.059   4.600
 6027TIP3   OH218044   0.654   3.303   2.708
 6027TIP3    H118045   0.687   3.374   2.763
 6027TIP3    H218046   0.589   3.345   2.651
 6028TIP3   OH218047   1.801   6.322   5.883
 6028TIP3    H118048   1.720   6.276   5.904
 6028TIP3    H218049   1.838   6.273   5.809
 6029TIP3   OH218050   0.524   2.012   2.211
 6029TIP3    H118051   0.609   1.973   2.190
 6029TIP3    H218052   0.535   2.045   2.300
 6030TIP3   OH218053   1.756   5.831   5.440
 6030TIP3    H118054   1.741   5.900   5.505
 6030TIP3    H218055   1.678   5.833   5.385
 6031TIP3   OH218056   3.556   4.069   0.684
 6031TIP3    H118057   3.561   4.164   0.678
 6031TIP3    H218058   3.648   4.040   0.684
 6032TIP3   OH218059   1.771   0.036   5.218
 6032TIP3    H118060   1.710   0.032   5.144
 6032TIP3    H218061   1.714   0.043   5.295
 6033TIP3   OH218062   6.860   0.296   2.144
 6033TIP3    H118063   6.920   0.344   2.201
 6033TIP3    H218064   6.811   0.364   2.098
 6034TIP3   OH218065   0.934   5.713   3.611
 6034TIP3    H118066   0.874   5.662   3.665
 6034TIP3    H218067   0.938   5.666   3.527
 6035TIP3   OH218068   3.944   0.284   4.564
 6035TIP3    H118069   3.935   0.238   4.481
 6035TIP3    H218070   3.856   0.314   4.585
 6036TIP3   OH218071   1.228   3.905   2.704
 6036TIP3    H118072   1.302   3.854   2.669
 6036TIP3    H218073   1.268   3.985   2.737
 6037TIP3   OH218074   4.214   5.989   3.942
 6037TIP3    H118075   4.248   6.066   3.988
 6037TIP3    H218076   4.271   5.917   3.970
 6038TIP3   OH218077   5.182   4.589   2.051
 6038TIP3    H118078   5.149   4.676   2.074
 6038TIP3    H218079   5.265   4.606   2.006
 6039TIP3   OH218080   5.457   6.416   3.023
 6039TIP3    H118081   5.387   6.469   3.063
 6039TIP3    H218082   5.527   6.417   3.088
 6040TIP3   OH218083   7.171   4.878   1.988
 6040TIP3    H118084   7.230   4.853   1.918
 6040TIP3    H218085   7.085   4.847   1.960
 6041TIP3   OH218086   3.195   6.186   5.723
 6041TIP3    H118087   3.103   6.179   5.746
 6041TIP3    H218088   3.202   6.269   5.676
 6042TIP3   OH218089   3.565   4.071   5.778
 6042TIP3    H118090   3.625   4.009   5.819
 6042TIP3    H218091   3.617   4.115   5.711
 6043TIP3   OH218092   1.871   1.556   5.236
 6043TIP3    H118093   1.950   1.523   5.194
 6043TIP3    H218094   1.847   1.489   5.300
 6044TIP3   OH218095   5.770   6.612   4.801
 6044TIP3    H118096   5.839   6.673   4.774
 6044TIP3    H218097   5.739   6.575   4.718
 6045TIP3   OH218098   5.599   4.622   3.553
 6045TIP3    H118099   5.658   4.562   3.598
 6045TIP3    H218100   5.527   4.566   3.522
 6046TIP3   OH218101   4.858   4.850   0.517
 6046TIP3    H118102   4.781   4.892   0.480
 6046TIP3    H218103   4.892   4.915   0.580
 6047TIP3   OH218104   6.440   3.012   3.506
 6047TIP3    H118105   6.381   3.045   3.574
 6047TIP3    H218106   6.411   3.056   3.426
 6048TIP3   OH218107   6.396   3.034   1.834
 6048TIP3    H118108   6.482   3.030   1.791
 6048TIP3    H218109   6.367   2.943   1.837
 6049TIP3   OH218110   2.782   4.697   0.549
 6049TIP3    H118111   2.788   4.769   0.487
 6049TIP3    H218112   2.824   4.623   0.504
 6050TIP3   OH218113   5.310   0.362   0.783
 6050TIP3    H118114   5.278   0.297   0.845
 6050TIP3    H218115   5.403   0.341   0.773
 6051TIP3   OH218116   0.746   6.751   2.695
 6051TIP3    H118117   0.829   6.733   2.739
 6051TIP3    H218118   0.681   6.749   2.765
 6052TIP3   OH218119   0.329   1.082   0.038
 6052TIP3    H118120   0.376   1.046  -0.037
 6052TIP3    H218121   0.320   1.009   0.098
 6053TIP3   OH218122   6.287   5.201   2.867
 6053TIP3    H118123   6.260   5.287   2.898
 6053TIP3    H218124   6.207   5.163   2.831
 6054TIP3   OH218125   5.117   0.872   1.612
 6054TIP3    H118126   5.067   0.832   1.683
 6054TIP3    H218127   5.195   0.908   1.655
 6055TIP3   OH218128   2.085   3.459   1.210
 6055TIP3    H118129   2.138   3.443   1.288
 6055TIP3    H218130   2.000   3.488   1.244
 6056TIP3   OH218131   2.008   4.125   2.557
 6056TIP3    H118132   2.016   4.032   2.578
 6056TIP3    H218133   1.964   4.163   2.632
 6057TIP3   OH218134   1.846   0.662   3.286
 6057TIP3    H118135   1.816   0.637   3.199
 6057TIP3    H218136   1.802   0.745   3.304
 6058TIP3   OH218137   5.086   3.854   5.882
 6058TIP3    H118138   5.092   3.758   5.878
 6058TIP3    H218139   5.079   3.881   5.791
 6059TIP3   OH218140   1.512   1.199   3.755
 6059TIP3    H118141   1.449   1.263   3.721
 6059TIP3    H218142   1.597   1.242   3.744
 6060TIP3   OH218143   5.105   2.593   3.701
 6060TIP3    H118144   5.053   2.617   3.778
 6060TIP3    H218145   5.061   2.515   3.666
 6061TIP3   OH218146   3.581   3.417   3.051
 6061TIP3    H118147   3.510   3.355   3.036
 6061TIP3    H218148   3.553   3.498   3.009
 6062TIP3   OH218149   4.332   1.675   0.987
 6062TIP3    H118150   4.390   1.632   1.049
 6062TIP3    H218151   4.255   1.619   0.982
 6063TIP3   OH218152   5.053   2.662   4.878
 6063TIP3    H118153   5.062   2.648   4.972
 6063TIP3    H218154   5.020   2.751   4.870
 6064TIP3   OH218155   2.715   1.680   2.179
 6064TIP3    H118156   2.787   1.740   2.159
 6064TIP3    H218157   2.756   1.609   2.227
 6065TIP3   OH218158   5.009   6.036   0.863
 6065TIP3    H118159   5.065   6.107   0.893
 6065TIP3    H218160   5.038   6.019   0.773
 6066TIP3   OH218161   2.211   1.840   1.977
 6066TIP3    H118162   2.145   1.781   2.013
 6066TIP3    H218163   2.241   1.891   2.052
 6067TIP3   OH218164   0.330   1.540   5.944
 6067TIP3    H118165   0.246   1.573   5.912
 6067TIP3    H218166   0.393   1.566   5.877
 6068TIP3   OH218167   1.356   6.422   0.476
 6068TIP3    H118168   1.372   6.379   0.392
 6068TIP3    H218169   1.382   6.513   0.461
 6069TIP3   OH218170   6.430   5.492   0.450
 6069TIP3    H118171   6.451   5.511   0.542
 6069TIP3    H218172   6.457   5.401   0.438
 6070TIP3   OH218173   0.855   5.163   1.847
 6070TIP3    H118174   0.830   5.255   1.838
 6070TIP3    H218175   0.791   5.116   1.794
 6071TIP3   OH218176   0.829   5.770   0.737
 6071TIP3    H118177   0.782   5.713   0.798
 6071TIP3    H218178   0.766   5.791   0.669
 6072TIP3   OH218179   3.385   1.020   2.580
 6072TIP3    H118180   3.440   0.967   2.522
 6072TIP3    H218181   3.349   1.088   2.523
 6073TIP3   OH218182   0.321   5.728   3.308
 6073TIP3    H118183   0.379   5.787   3.260
 6073TIP3    H218184   0.362   5.717   3.393
 6074TIP3   OH218185   5.311   1.000   1.431
 6074TIP3    H118186   5.331   0.918   1.386
 6074TIP3    H218187   5.230   0.982   1.478
 6075TIP3   OH218188   2.412   1.398   0.675
 6075TIP3    H118189   2.373   1.482   0.650
 6075TIP3    H218190   2.404   1.395   0.770
 6076TIP3   OH218191   4.179   2.154   1.336
 6076TIP3    H118192   4.212   2.147   1.247
 6076TIP3    H218193   4.120   2.229   1.335
 6077TIP3   OH218194   2.870   3.943   3.956
 6077TIP3    H118195   2.877   3.983   4.042
 6077TIP3    H218196   2.799   3.990   3.913
 6078TIP3   OH218197   1.129   6.752   3.489
 6078TIP3    H118198   1.160   6.804   3.415
 6078TIP3    H218199   1.209   6.717   3.529
 6079TIP3   OH218200   3.151   3.854   0.895
 6079TIP3    H118201   3.104   3.772   0.909
 6079TIP3    H218202   3.155   3.894   0.982
 6080TIP3   OH218203   0.198   2.473   1.497
 6080TIP3    H118204   0.178   2.564   1.521
 6080TIP3    H218205   0.114   2.427   1.507
 6081TIP3   OH218206   1.121   0.727   4.311
 6081TIP3    H118207   1.083   0.754   4.227
 6081TIP3    H218208   1.153   0.637   4.294
 6082TIP3   OH218209   2.142   2.742   5.561
 6082TIP3    H118210   2.112   2.805   5.627
 6082TIP3    H218211   2.137   2.789   5.478
 6083TIP3   OH218212   3.659   6.770   0.242
 6083TIP3    H118213   3.661   6.707   0.313
 6083TIP3    H218214   3.583   6.825   0.262
 6084TIP3   OH218215   3.594   0.772   0.466
 6084TIP3    H118216   3.572   0.801   0.377
 6084TIP3    H218217   3.542   0.693   0.479
 6085TIP3   OH218218   4.952   1.626   4.817
 6085TIP3    H118219   4.911   1.551   4.772
 6085TIP3    H218220   4.901   1.701   4.789
 6086TIP3   OH218221   1.285   5.328   2.196
 6086TIP3    H118222   1.374   5.362   2.206
 6086TIP3    H218223   1.290   5.237   2.225
 6087TIP3   OH218224   4.696   5.430   2.152
 6087TIP3    H118225   4.657   5.483   2.083
 6087TIP3    H218226   4.788   5.422   2.128
 6088TIP3   OH218227   4.649   4.103   1.681
 6088TIP3    H118228   4.630   4.163   1.610
 6088TIP3    H218229   4.652   4.157   1.760
 6089TIP3   OH218230   0.970   3.048   5.845
 6089TIP3    H118231   0.951   3.142   5.846
 6089TIP3    H218232   1.061   3.041   5.875
 6090TIP3   OH218233   1.468   4.868   5.754
 6090TIP3    H118234   1.409   4.855   5.679
 6090TIP3    H218235   1.464   4.785   5.802
 6091TIP3   OH218236   7.047   2.620   5.531
 6091TIP3    H118237   7.078   2.710   5.520
 6091TIP3    H218238   7.100   2.569   5.470
 6092TIP3   OH218239   4.691   1.641   2.877
 6092TIP3    H118240   4.633   1.693   2.821
 6092TIP3    H218241   4.779   1.661   2.846
 6093TIP3   OH218242   3.480   5.483   0.291
 6093TIP3    H118243   3.428   5.561   0.270
 6093TIP3    H218244   3.415   5.419   0.320
 6094TIP3   OH218245   4.627   4.066   2.772
 6094TIP3    H118246   4.622   4.074   2.677
 6094TIP3    H218247   4.535   4.059   2.800
 6095TIP3   OH218248   1.846   6.436   4.951
 6095TIP3    H118249   1.815   6.526   4.942
 6095TIP3    H218250   1.941   6.445   4.960
 6096TIP3   OH218251   2.845   4.446   3.921
 6096TIP3    H118252   2.777   4.427   3.985
 6096TIP3    H218253   2.880   4.361   3.897
 6097TIP3   OH218254   5.165   2.966   0.300
 6097TIP3    H118255   5.163   2.885   0.349
 6097TIP3    H218256   5.113   2.949   0.222
 6098TIP3   OH218257   5.332   5.098   3.695
 6098TIP3    H118258   5.362   5.103   3.604
 6098TIP3    H218259   5.258   5.158   3.700
 6099TIP3   OH218260   3.181   3.553   2.209
 6099TIP3    H118261   3.144   3.519   2.127
 6099TIP3    H218262   3.269   3.583   2.185
 6100TIP3   OH218263   0.542   3.800   1.408
 6100TIP3    H118264   0.485   3.781   1.482
 6100TIP3    H218265   0.482   3.815   1.335
 6101TIP3   OH218266   0.280   5.833   1.167
 6101TIP3    H118267   0.199   5.876   1.139
 6101TIP3    H218268   0.324   5.809   1.085
 6102TIP3   OH218269   3.217   6.829   3.296
 6102TIP3    H118270   3.256   6.795   3.376
 6102TIP3    H218271   3.285   6.820   3.229
 6103TIP3   OH218272   3.627   3.016   5.710
 6103TIP3    H118273   3.594   2.937   5.754
 6103TIP3    H218274   3.720   3.000   5.698
 6104TIP3   OH218275   0.373   2.154   2.048
 6104TIP3    H118276   0.417   2.115   2.123
 6104TIP3    H218277   0.443   2.192   1.995
 6105TIP3   OH218278   2.877   2.191   5.236
 6105TIP3    H118279   2.830   2.111   5.260
 6105TIP3    H218280   2.969   2.164   5.233
 6106TIP3   OH218281   0.580   4.605   3.737
 6106TIP3    H118282   0.550   4.567   3.819
 6106TIP3    H218283   0.586   4.699   3.754
 6107TIP3   OH218284   5.258   4.935   2.941
 6107TIP3    H118285   5.249   4.897   2.854
 6107TIP3    H218286   5.349   4.918   2.965
 6108TIP3   OH218287   1.296   0.156   0.049
 6108TIP3    H118288   1.243   0.216   0.102
 6108TIP3    H218289   1.232   0.102   0.003
 6109TIP3   OH218290   6.052   4.600   3.679
 6109TIP3    H118291   5.981   4.609   3.743
 6109TIP3    H218292   6.086   4.689   3.668
 6110TIP3   OH218293   1.541   5.957   1.000
 6110TIP3    H118294   1.591   6.005   1.066
 6110TIP3    H218295   1.607   5.918   0.943
 6111TIP3   OH218296   1.184   4.082   1.075
 6111TIP3    H118297   1.194   4.136   1.153
 6111TIP3    H218298   1.167   3.994   1.108
 6112TIP3   OH218299   2.802   3.755   4.532
 6112TIP3    H118300   2.844   3.796   4.608
 6112TIP3    H218301   2.866   3.764   4.462
 6113TIP3   OH218302   6.867   2.406   5.435
 6113TIP3    H118303   6.876   2.310   5.438
 6113TIP3    H218304   6.887   2.434   5.525
 6114TIP3   OH218305   2.234   6.027   4.796
 6114TIP3    H118306   2.289   6.094   4.755
 6114TIP3    H218307   2.170   6.004   4.729
 6115TIP3   OH218308   1.909   4.170   2.057
 6115TIP3    H118309   1.884   4.079   2.043
 6115TIP3    H218310   1.853   4.220   1.998
 6116TIP3   OH218311   4.929   5.569   0.348
 6116TIP3    H118312   4.983   5.490   0.340
 6116TIP3    H218313   4.879   5.572   0.266
 6117TIP3   OH218314   6.575   2.476   4.059
 6117TIP3    H118315   6.615   2.425   3.989
 6117TIP3    H218316   6.623   2.451   4.138
 6118TIP3   OH218317   0.532   3.115   5.168
 6118TIP3    H118318   0.579   3.136   5.087
 6118TIP3    H218319   0.561   3.027   5.191
 6119TIP3   OH218320   0.065   4.643   0.038
 6119TIP3    H118321   0.087   4.709  -0.028
 6119TIP3    H218322   0.081   4.559  -0.005
 6120TIP3   OH218323   2.820   0.551   1.142
 6120TIP3    H118324   2.737   0.580   1.104
 6120TIP3    H218325   2.886   0.573   1.075
 6121TIP3   OH218326   0.542   0.715   1.750
 6121TIP3    H118327   0.458   0.674   1.771
 6121TIP3    H218328   0.576   0.746   1.834
 6122TIP3   OH218329   1.110   2.593   5.045
 6122TIP3    H118330   1.098   2.545   4.963
 6122TIP3    H218331   1.059   2.673   5.033
 6123TIP3   OH218332   3.398   0.811   0.741
 6123TIP3    H118333   3.325   0.776   0.690
 6123TIP3    H218334   3.417   0.743   0.805
 6124TIP3   OH218335   0.517   5.771   4.790
 6124TIP3    H118336   0.504   5.792   4.883
 6124TIP3    H218337   0.607   5.796   4.772
 6125TIP3   OH218338   3.517   5.218   5.498
 6125TIP3    H118339   3.538   5.166   5.576
 6125TIP3    H218340   3.433   5.260   5.519
 6126TIP3   OH218341   5.528   1.980   0.307
 6126TIP3    H118342   5.459   1.923   0.273
 6126TIP3    H218343   5.609   1.931   0.293
 6127TIP3   OH218344   5.593   3.880   0.949
 6127TIP3    H118345   5.500   3.856   0.952
 6127TIP3    H218346   5.593   3.975   0.936
 6128TIP3   OH218347   4.074   3.768   4.629
 6128TIP3    H118348   4.111   3.810   4.551
 6128TIP3    H218349   4.029   3.691   4.596
 6129TIP3   OH218350   1.370   6.615   2.551
 6129TIP3    H118351   1.462   6.597   2.567
 6129TIP3    H218352   1.330   6.528   2.542
 6130TIP3   OH218353   3.533   0.588   4.163
 6130TIP3    H118354   3.459   0.621   4.113
 6130TIP3    H218355   3.496   0.564   4.248
 6131TIP3   OH218356   4.012   3.844   2.407
 6131TIP3    H118357   4.106   3.825   2.403
 6131TIP3    H218358   4.001   3.918   2.347
 6132TIP3   OH218359   5.744   5.517   3.731
 6132TIP3    H118360   5.702   5.455   3.671
 6132TIP3    H218361   5.837   5.507   3.715
 6133TIP3   OH218362   1.471   6.293   0.238
 6133TIP3    H118363   1.510   6.233   0.302
 6133TIP3    H218364   1.546   6.322   0.185
 6134TIP3   OH218365   4.236   0.617   1.906
 6134TIP3    H118366   4.258   0.539   1.856
 6134TIP3    H218367   4.223   0.585   1.995
 6135TIP3   OH218368   6.163   2.201   1.632
 6135TIP3    H118369   6.094   2.172   1.691
 6135TIP3    H218370   6.223   2.251   1.687
 6136TIP3   OH218371   4.895   5.597   5.274
 6136TIP3    H118372   4.887   5.587   5.179
 6136TIP3    H218373   4.839   5.671   5.296
 6137TIP3   OH218374   7.092   6.532   3.937
 6137TIP3    H118375   7.162   6.552   3.999
 6137TIP3    H218376   7.131   6.465   3.879
 6138TIP3   OH218377   1.643   3.270   1.702
 6138TIP3    H118378   1.600   3.296   1.783
 6138TIP3    H218379   1.606   3.184   1.682
 6139TIP3   OH218380   4.560   4.651   3.704
 6139TIP3    H118381   4.579   4.713   3.774
 6139TIP3    H218382   4.501   4.698   3.646
 6140TIP3   OH218383   3.168   6.353   1.934
 6140TIP3    H118384   3.195   6.432   1.887
 6140TIP3    H218385   3.239   6.335   1.995
 6141TIP3   OH218386   2.078   4.853   5.261
 6141TIP3    H118387   2.091   4.768   5.304
 6141TIP3    H218388   2.140   4.852   5.188
 6142TIP3   OH218389   2.358   6.169   2.148
 6142TIP3    H118390   2.451   6.191   2.151
 6142TIP3    H218391   2.318   6.224   2.215
 6143TIP3   OH218392   2.445   4.261   5.375
 6143TIP3    H118393   2.501   4.338   5.388
 6143TIP3    H218394   2.487   4.212   5.305
 6144TIP3   OH218395   1.902   5.771   1.201
 6144TIP3    H118396   1.963   5.712   1.245
 6144TIP3    H218397   1.849   5.808   1.272
 6145TIP3   OH218398   6.603   3.090   1.621
 6145TIP3    H118399   6.570   3.164   1.571
 6145TIP3    H218400   6.684   3.065   1.577
 6146TIP3   OH218401   6.953   3.059   4.516
 6146TIP3    H118402   6.984   3.148   4.528
 6146TIP3    H218403   6.883   3.067   4.451
 6147TIP3   OH218404   1.594   3.858   0.495
 6147TIP3    H118405   1.675   3.854   0.445
 6147TIP3    H218406   1.616   3.908   0.573
 6148TIP3   OH218407   4.633   4.235   1.443
 6148TIP3    H118408   4.580   4.264   1.369
 6148TIP3    H218409   4.716   4.208   1.404
 6149TIP3   OH218410   7.052   1.963   2.234
 6149TIP3    H118411   6.970   1.927   2.201
 6149TIP3    H218412   7.030   1.998   2.321
 6150TIP3   OH218413   4.483   6.297   2.453
 6150TIP3    H118414   4.420   6.367   2.474
 6150TIP3    H218415   4.513   6.318   2.364
 6151TIP3   OH218416   3.185   4.067   0.504
 6151TIP3    H118417   3.163   4.021   0.423
 6151TIP3    H218418   3.213   3.997   0.564
 6152TIP3   OH218419   0.139   2.640   3.947
 6152TIP3    H118420   0.123   2.630   3.853
 6152TIP3    H218421   0.200   2.570   3.969
 6153TIP3   OH218422   0.213   5.038   0.372
 6153TIP3    H118423   0.137   4.983   0.350
 6153TIP3    H218424   0.229   5.021   0.465
 6154TIP3   OH218425   0.381   3.721   1.626
 6154TIP3    H118426   0.301   3.677   1.599
 6154TIP3    H218427   0.352   3.784   1.692
 6155TIP3   OH218428   1.613   5.750   2.829
 6155TIP3    H118429   1.688   5.691   2.816
 6155TIP3    H218430   1.549   5.723   2.763
 6156TIP3   OH218431   0.186   3.603   4.772
 6156TIP3    H118432   0.093   3.612   4.752
 6156TIP3    H218433   0.230   3.652   4.702
 6157TIP3   OH218434   4.524   4.510   1.726
 6157TIP3    H118435   4.578   4.570   1.777
 6157TIP3    H218436   4.444   4.559   1.708
 6158TIP3   OH218437   5.116   0.611   5.505
 6158TIP3    H118438   5.163   0.686   5.543
 6158TIP3    H218439   5.143   0.537   5.559
 6159TIP3   OH218440   7.076   1.151   0.190
 6159TIP3    H118441   7.145   1.215   0.173
 6159TIP3    H218442   7.122   1.069   0.206
 6160TIP3   OH218443   4.061   3.291   2.551
 6160TIP3    H118444   4.048   3.226   2.619
 6160TIP3    H218445   3.985   3.349   2.557
 6161TIP3   OH218446   3.623   1.027   3.540
 6161TIP3    H118447   3.603   1.011   3.448
 6161TIP3    H218448   3.595   0.947   3.585
 6162TIP3   OH218449   3.288   6.371   4.958
 6162TIP3    H118450   3.261   6.310   5.027
 6162TIP3    H218451   3.331   6.316   4.893
 6163TIP3   OH218452   2.681   1.456   0.581
 6163TIP3    H118453   2.643   1.485   0.499
 6163TIP3    H218454   2.612   1.405   0.623
 6164TIP3   OH218455   5.581   2.037   1.005
 6164TIP3    H118456   5.593   2.040   1.100
 6164TIP3    H218457   5.508   2.097   0.988
 6165TIP3   OH218458   2.180   3.166   5.491
 6165TIP3    H118459   2.168   3.239   5.429
 6165TIP3    H218460   2.271   3.141   5.481
 6166TIP3   OH218461   7.221   0.183   3.305
 6166TIP3    H118462   7.283   0.223   3.245
 6166TIP3    H218463   7.135   0.201   3.267
 6167TIP3   OH218464   3.436   3.758   1.873
 6167TIP3    H118465   3.491   3.779   1.798
 6167TIP3    H218466   3.349   3.743   1.835
 6168TIP3   OH218467   2.117   6.474   5.052
 6168TIP3    H118468   2.204   6.434   5.061
 6168TIP3    H218469   2.123   6.556   5.100
 6169TIP3   OH218470   0.657   0.984   4.620
 6169TIP3    H118471   0.745   0.981   4.581
 6169TIP3    H218472   0.627   1.074   4.606
 6170TIP3   OH218473   5.793   4.299   4.091
 6170TIP3    H118474   5.804   4.293   3.997
 6170TIP3    H218475   5.720   4.241   4.111
 6171TIP3   OH218476   3.679   1.790   5.433
 6171TIP3    H118477   3.720   1.843   5.501
 6171TIP3    H218478   3.592   1.768   5.468
 6172TIP3   OH218479   5.165  -0.029   3.335
 6172TIP3    H118480   5.104  -0.037   3.408
 6172TIP3    H218481   5.223   0.043   3.360
 6173TIP3   OH218482   3.484   5.032   1.821
 6173TIP3    H118483   3.488   4.942   1.786
 6173TIP3    H218484   3.491   5.021   1.916
 6174TIP3   OH218485   0.170   3.518   3.844
 6174TIP3    H118486   0.127   3.586   3.897
 6174TIP3    H218487   0.261   3.519   3.873
 6175TIP3   OH218488   3.020   2.983   3.047
 6175TIP3    H118489   2.967   3.055   3.013
 6175TIP3    H218490   2.956   2.924   3.087
 6176TIP3   OH218491   2.645   4.347   4.109
 6176TIP3    H118492   2.588   4.270   4.115
 6176TIP3    H218493   2.686   4.353   4.195
 6177TIP3   OH218494   5.275   3.977   2.580
 6177TIP3    H118495   5.226   3.928   2.646
 6177TIP3    H218496   5.336   3.912   2.543
 6178TIP3   OH218497   6.786   0.952   0.812
 6178TIP3    H118498   6.864   0.900   0.795
 6178TIP3    H218499   6.758   0.983   0.726
 6179TIP3   OH218500   6.010   2.630   4.502
 6179TIP3    H118501   6.061   2.711   4.506
 6179TIP3    H218502   6.040   2.586   4.423
 6180TIP3   OH218503   4.404   6.224   4.685
 6180TIP3    H118504   4.410   6.318   4.666
 6180TIP3    H218505   4.311   6.209   4.700
 6181TIP3   OH218506   4.960   5.257   2.484
 6181TIP3    H118507   5.007   5.175   2.467
 6181TIP3    H218508   4.911   5.239   2.565
 6182TIP3   OH218509   4.288   4.722   0.317
 6182TIP3    H118510   4.254   4.639   0.351
 6182TIP3    H218511   4.287   4.711   0.222
 6183TIP3   OH218512   4.033   2.104   5.334
 6183TIP3    H118513   3.952   2.148   5.359
 6183TIP3    H218514   4.028   2.096   5.239
 6184TIP3   OH218515   1.514   4.387   4.331
 6184TIP3    H118516   1.484   4.423   4.248
 6184TIP3    H218517   1.437   4.343   4.368
 6185TIP3   OH218518   2.864   0.670   2.963
 6185TIP3    H118519   2.924   0.690   2.891
 6185TIP3    H218520   2.783   0.644   2.920
 6186TIP3   OH218521   2.153   3.640   4.960
 6186TIP3    H118522   2.166   3.546   4.946
 6186TIP3    H218523   2.143   3.677   4.872
 6187TIP3   OH218524   3.623   2.468   2.272
 6187TIP3    H118525   3.538   2.463   2.228
 6187TIP3    H218526   3.617   2.547   2.326
 6188TIP3   OH218527   2.852   1.019   1.573
 6188TIP3    H118528   2.841   1.090   1.637
 6188TIP3    H218529   2.937   1.036   1.533
 6189TIP3   OH218530   3.370   6.338   3.603
 6189TIP3    H118531   3.288   6.293   3.624
 6189TIP3    H218532   3.344   6.429   3.588
 6190TIP3   OH218533   3.702   6.462   2.287
 6190TIP3    H118534   3.771   6.522   2.316
 6190TIP3    H218535   3.744   6.407   2.220
 6191TIP3   OH218536   1.770   1.277   1.497
 6191TIP3    H118537   1.758   1.318   1.411
 6191TIP3    H218538   1.689   1.297   1.544
 6192TIP3   OH218539   6.349   4.269   2.182
 6192TIP3    H118540   6.338   4.322   2.261
 6192TIP3    H218541   6.314   4.183   2.205
 6193TIP3   OH218542   0.531   2.625   2.474
 6193TIP3    H118543   0.476   2.683   2.527
 6193TIP3    H218544   0.471   2.557   2.442
 6194TIP3   OH218545   5.227   3.038   5.016
 6194TIP3    H118546   5.269   3.083   5.090
 6194TIP3    H218547   5.278   3.064   4.940
 6195TIP3   OH218548   2.566   3.235   3.727
 6195TIP3    H118549   2.547   3.328   3.729
 6195TIP3    H218550   2.495   3.195   3.777
 6196TIP3   OH218551   3.291   5.580   1.885
 6196TIP3    H118552   3.327   5.500   1.923
 6196TIP3    H218553   3.199   5.561   1.870
 6197TIP3   OH218554   2.047   2.750   4.000
 6197TIP3    H118555   2.047   2.805   4.079
 6197TIP3    H218556   1.956   2.753   3.970
 6198TIP3   OH218557   1.559   5.643   3.234
 6198TIP3    H118558   1.521   5.596   3.160
 6198TIP3    H218559   1.517   5.605   3.311
 6199TIP3   OH218560   3.396   2.664   5.642
 6199TIP3    H118561   3.301   2.675   5.634
 6199TIP3    H218562   3.411   2.571   5.622
 6200TIP3   OH218563   7.139   4.311   2.152
 6200TIP3    H118564   7.235   4.308   2.159
 6200TIP3    H218565   7.108   4.263   2.228
 6201TIP3   OH218566   0.151   3.239   1.100
 6201TIP3    H118567   0.116   3.322   1.066
 6201TIP3    H218568   0.199   3.202   1.027
 6202TIP3   OH218569   0.239   5.460   3.859
 6202TIP3    H118570   0.242   5.369   3.830
 6202TIP3    H218571   0.222   5.454   3.953
 6203TIP3   OH218572   4.876   6.809   2.801
 6203TIP3    H118573   4.958   6.765   2.822
 6203TIP3    H218574   4.876   6.815   2.706
 6204TIP3   OH218575   5.931   6.213   1.223
 6204TIP3    H118576   5.885   6.240   1.143
 6204TIP3    H218577   5.965   6.295   1.259
 6205TIP3   OH218578   3.422   6.068   4.865
 6205TIP3    H118579   3.369   6.006   4.814
 6205TIP3    H218580   3.432   6.144   4.808
 6206TIP3   OH218581   6.624   5.504   3.447
 6206TIP3    H118582   6.590   5.421   3.481
 6206TIP3    H218583   6.715   5.486   3.427
 6207TIP3   OH218584   5.393   5.902   3.561
 6207TIP3    H118585   5.420   5.978   3.510
 6207TIP3    H218586   5.473   5.868   3.600
 6208TIP3   OH218587   4.784   3.361   2.015
 6208TIP3    H118588   4.750   3.439   1.970
 6208TIP3    H218589   4.723   3.345   2.086
 6209TIP3   OH218590   1.718   4.338   2.361
 6209TIP3    H118591   1.692   4.246   2.360
 6209TIP3    H218592   1.799   4.340   2.412
 6210TIP3   OH218593   2.225   3.818   1.582
 6210TIP3    H118594   2.132   3.836   1.574
 6210TIP3    H218595   2.268   3.900   1.559
 6211TIP3   OH218596   5.530   5.468   1.690
 6211TIP3    H118597   5.475   5.392   1.708
 6211TIP3    H218598   5.469   5.542   1.684
 6212TIP3   OH218599   5.250   2.304   5.127
 6212TIP3    H118600   5.225   2.279   5.216
 6212TIP3    H218601   5.255   2.399   5.129
 6213TIP3   OH218602   4.124   2.876   5.404
 6213TIP3    H118603   4.049   2.930   5.379
 6213TIP3    H218604   4.185   2.938   5.445
 6214TIP3   OH218605   0.058   4.112   3.331
 6214TIP3    H118606   0.139   4.073   3.299
 6214TIP3    H218607   0.013   4.141   3.252
 6215TIP3   OH218608   6.701   2.936   0.687
 6215TIP3    H118609   6.736   2.847   0.690
 6215TIP3    H218610   6.675   2.949   0.596
 6216TIP3   OH218611   1.759   2.421   0.842
 6216TIP3    H118612   1.751   2.512   0.812
 6216TIP3    H218613   1.748   2.426   0.937
 6217TIP3   OH218614   0.138   4.833   1.182
 6217TIP3    H118615   0.158   4.740   1.194
 6217TIP3    H218616   0.219   4.870   1.147
 6218TIP3   OH218617   1.199   3.596   1.280
 6218TIP3    H118618   1.141   3.598   1.357
 6218TIP3    H218619   1.152   3.542   1.216
 6219TIP3   OH218620   7.101   0.406   1.976
 6219TIP3    H118621   7.160   0.480   1.994
 6219TIP3    H218622   7.013   0.444   1.980
 6220TIP3   OH218623   1.798   4.389   1.484
 6220TIP3    H118624   1.713   4.389   1.528
 6220TIP3    H218625   1.849   4.455   1.530
 6221TIP3   OH218626   1.949   4.774   0.828
 6221TIP3    H118627   1.949   4.865   0.798
 6221TIP3    H218628   1.895   4.774   0.907
 6222TIP3   OH218629   5.605   3.096   5.008
 6222TIP3    H118630   5.639   3.039   4.939
 6222TIP3    H218631   5.536   3.147   4.965
 6223TIP3   OH218632   3.381   5.133   0.055
 6223TIP3    H118633   3.368   5.104   0.145
 6223TIP3    H218634   3.325   5.076   0.003
 6224TIP3   OH218635   1.473   0.475   4.315
 6224TIP3    H118636   1.549   0.425   4.345
 6224TIP3    H218637   1.504   0.565   4.311
 6225TIP3   OH218638   1.544   6.513   5.647
 6225TIP3    H118639   1.479   6.442   5.644
 6225TIP3    H218640   1.493   6.593   5.642
 6226TIP3   OH218641   0.342   6.145   2.581
 6226TIP3    H118642   0.277   6.079   2.558
 6226TIP3    H218643   0.327   6.162   2.674
 6227TIP3   OH218644   1.179   1.494   5.317
 6227TIP3    H118645   1.192   1.431   5.388
 6227TIP3    H218646   1.268   1.513   5.286
 6228TIP3   OH218647   3.167   4.758   0.328
 6228TIP3    H118648   3.219   4.756   0.248
 6228TIP3    H218649   3.079   4.781   0.299
 6229TIP3   OH218650   2.521   3.305   5.653
 6229TIP3    H118651   2.482   3.299   5.740
 6229TIP3    H218652   2.554   3.394   5.647
 6230TIP3   OH218653   5.537   2.050   3.118
 6230TIP3    H118654   5.505   2.110   3.050
 6230TIP3    H218655   5.631   2.070   3.125
 6231TIP3   OH218656   6.809   2.810   5.345
 6231TIP3    H118657   6.841   2.886   5.296
 6231TIP3    H218658   6.855   2.736   5.308
 6232TIP3   OH218659   0.693   3.169   0.819
 6232TIP3    H118660   0.642   3.092   0.794
 6232TIP3    H218661   0.777   3.134   0.850
 6233TIP3   OH218662   2.207   4.446   4.248
 6233TIP3    H118663   2.277   4.469   4.187
 6233TIP3    H218664   2.189   4.527   4.296
 6234TIP3   OH218665   6.606   3.326   2.335
 6234TIP3    H118666   6.553   3.254   2.369
 6234TIP3    H218667   6.651   3.361   2.411
 6235TIP3   OH218668   4.585   4.071   2.504
 6235TIP3    H118669   4.593   4.167   2.504
 6235TIP3    H218670   4.662   4.040   2.455
 6236TIP3   OH218671   3.811   4.285   0.274
 6236TIP3    H118672   3.767   4.245   0.198
 6236TIP3    H218673   3.805   4.379   0.258
 6237TIP3   OH218674   5.087   2.611   2.581
 6237TIP3    H118675   5.049   2.565   2.656
 6237TIP3    H218676   5.122   2.540   2.526
 6238TIP3   OH218677   3.402   4.427   1.375
 6238TIP3    H118678   3.444   4.499   1.329
 6238TIP3    H218679   3.363   4.467   1.452
 6239TIP3   OH218680   6.868   2.306   1.860
 6239TIP3    H118681   6.789   2.357   1.879
 6239TIP3    H218682   6.850   2.268   1.773
 6240TIP3   OH218683   6.726   0.632   0.369
 6240TIP3    H118684   6.790   0.562   0.383
 6240TIP3    H218685   6.642   0.586   0.357
 6241TIP3   OH218686   2.781   5.740   2.756
 6241TIP3    H118687   2.828   5.774   2.832
 6241TIP3    H218688   2.811   5.794   2.683
 6242TIP3   OH218689   4.507   1.066   2.619
 6242TIP3    H118690   4.488   1.090   2.528
 6242TIP3    H218691   4.520   0.971   2.616
 6243TIP3   OH218692   6.692   4.394   0.557
 6243TIP3    H118693   6.640   4.315   0.574
 6243TIP3    H218694   6.633   4.466   0.575
 6244TIP3   OH218695   3.459   1.996   5.568
 6244TIP3    H118696   3.422   1.909   5.586
 6244TIP3    H218697   3.552   1.987   5.589
 6245TIP3   OH218698   5.573   5.592   4.251
 6245TIP3    H118699   5.612   5.620   4.168
 6245TIP3    H218700   5.647   5.567   4.306
 6246TIP3   OH218701   0.406   4.524   3.215
 6246TIP3    H118702   0.397   4.477   3.131
 6246TIP3    H218703   0.423   4.455   3.279
 6247TIP3   OH218704   2.570   1.101   3.373
 6247TIP3    H118705   2.587   1.060   3.288
 6247TIP3    H218706   2.551   1.027   3.431
 6248TIP3   OH218707   7.088   0.914   4.199
 6248TIP3    H118708   7.087   0.992   4.254
 6248TIP3    H218709   7.098   0.947   4.110
 6249TIP3   OH218710   1.919   0.974   2.301
 6249TIP3    H118711   1.891   0.896   2.253
 6249TIP3    H218712   1.838   1.020   2.321
 6250TIP3   OH218713   5.644   4.965   0.966
 6250TIP3    H118714   5.635   4.935   0.876
 6250TIP3    H218715   5.654   4.886   1.017
 6251TIP3   OH218716   4.390   6.183   2.754
 6251TIP3    H118717   4.474   6.224   2.776
 6251TIP3    H218718   4.339   6.188   2.835
 6252TIP3   OH218719   4.189   0.774   5.142
 6252TIP3    H118720   4.265   0.813   5.099
 6252TIP3    H218721   4.179   0.689   5.100
 6253TIP3   OH218722   3.009   5.549   1.646
 6253TIP3    H118723   3.096   5.587   1.660
 6253TIP3    H218724   3.027   5.466   1.602
 6254TIP3   OH218725   3.240   1.193   0.556
 6254TIP3    H118726   3.259   1.111   0.513
 6254TIP3    H218727   3.242   1.173   0.650
 6255TIP3   OH218728   0.587   4.065   4.376
 6255TIP3    H118729   0.558   4.132   4.314
 6255TIP3    H218730   0.616   3.992   4.321
 6256TIP3   OH218731   5.441   2.732   3.789
 6256TIP3    H118732   5.512   2.707   3.730
 6256TIP3    H218733   5.361   2.722   3.736
 6257TIP3   OH218734   1.334   4.649   3.476
 6257TIP3    H118735   1.417   4.682   3.511
 6257TIP3    H218736   1.273   4.723   3.487
 6258TIP3   OH218737   3.997   2.354   1.255
 6258TIP3    H118738   3.912   2.310   1.248
 6258TIP3    H218739   3.978   2.446   1.233
 6259TIP3   OH218740   6.495   0.729   4.651
 6259TIP3    H118741   6.516   0.659   4.590
 6259TIP3    H218742   6.575   0.743   4.702
 6260TIP3   OH218743   0.829   1.799   5.037
 6260TIP3    H118744   0.818   1.805   5.132
 6260TIP3    H218745   0.913   1.841   5.019
 6261TIP3   OH218746   1.236   3.054   3.052
 6261TIP3    H118747   1.149   3.080   3.021
 6261TIP3    H218748   1.223   2.967   3.090
 6262TIP3   OH218749   4.153   0.807   5.573
 6262TIP3    H118750   4.072   0.772   5.536
 6262TIP3    H218751   4.137   0.810   5.667
 6263TIP3   OH218752   4.453   5.613   3.319
 6263TIP3    H118753   4.459   5.680   3.388
 6263TIP3    H218754   4.539   5.616   3.276
 6264TIP3   OH218755   2.037   4.401   2.163
 6264TIP3    H118756   1.962   4.443   2.204
 6264TIP3    H218757   2.001   4.323   2.120
 6265TIP3   OH218758   3.896   6.671   1.959
 6265TIP3    H118759   3.816   6.673   1.907
 6265TIP3    H218760   3.919   6.763   1.970
 6266TIP3   OH218761   0.745   6.202   5.423
 6266TIP3    H118762   0.685   6.137   5.386
 6266TIP3    H218763   0.700   6.286   5.411
 6267TIP3   OH218764   6.531   0.365   1.789
 6267TIP3    H118765   6.595   0.399   1.725
 6267TIP3    H218766   6.464   0.323   1.735
 6268TIP3   OH218767   0.142   6.714   4.661
 6268TIP3    H118768   0.075   6.649   4.683
 6268TIP3    H218769   0.098   6.773   4.599
 6269TIP3   OH218770   5.594   0.413   5.347
 6269TIP3    H118771   5.514   0.394   5.397
 6269TIP3    H218772   5.562   0.451   5.264
 6270TIP3   OH218773   1.542   0.918   0.089
 6270TIP3    H118774   1.526   0.861   0.164
 6270TIP3    H218775   1.563   1.003   0.128
 6271TIP3   OH218776   6.370   1.471   3.786
 6271TIP3    H118777   6.362   1.401   3.851
 6271TIP3    H218778   6.451   1.517   3.810
 6272TIP3   OH218779   3.047   6.056   0.331
 6272TIP3    H118780   3.023   6.139   0.373
 6272TIP3    H218781   3.105   6.082   0.260
 6273TIP3   OH218782   4.458   0.630   0.586
 6273TIP3    H118783   4.485   0.660   0.673
 6273TIP3    H218784   4.375   0.586   0.601
 6274TIP3   OH218785   2.136   3.544   4.371
 6274TIP3    H118786   2.067   3.544   4.305
 6274TIP3    H218787   2.217   3.535   4.320
 6275TIP3   OH218788   3.136   1.142   3.540
 6275TIP3    H118789   3.183   1.079   3.485
 6275TIP3    H218790   3.064   1.172   3.485
 6276TIP3   OH218791   1.278   1.864   3.910
 6276TIP3    H118792   1.202   1.923   3.912
 6276TIP3    H218793   1.293   1.847   3.817
 6277TIP3   OH218794   0.216   3.167   0.201
 6277TIP3    H118795   0.256   3.132   0.121
 6277TIP3    H218796   0.172   3.092   0.240
 6278TIP3   OH218797   3.312   5.025   4.457
 6278TIP3    H118798   3.357   5.070   4.386
 6278TIP3    H218799   3.220   5.027   4.432
 6279TIP3   OH218800   5.288   4.624   1.586
 6279TIP3    H118801   5.338   4.553   1.546
 6279TIP3    H218802   5.199   4.590   1.591
 6280TIP3   OH218803   2.840   0.083   4.662
 6280TIP3    H118804   2.893   0.158   4.690
 6280TIP3    H218805   2.798   0.113   4.582
 6281TIP3   OH218806   2.858   3.993   1.316
 6281TIP3    H118807   2.855   3.943   1.235
 6281TIP3    H218808   2.863   4.084   1.288
 6282TIP3   OH218809   2.867   2.149   3.518
 6282TIP3    H118810   2.887   2.191   3.602
 6282TIP3    H218811   2.928   2.190   3.456
 6283TIP3   OH218812   3.265   6.585   1.845
 6283TIP3    H118813   3.359   6.597   1.833
 6283TIP3    H218814   3.226   6.619   1.764
 6284TIP3   OH218815   3.210   6.330   0.291
 6284TIP3    H118816   3.265   6.407   0.296
 6284TIP3    H218817   3.157   6.332   0.370
 6285TIP3   OH218818   3.163   0.386   0.281
 6285TIP3    H118819   3.229   0.394   0.211
 6285TIP3    H218820   3.096   0.450   0.258
 6286TIP3   OH218821   7.172   1.260   1.080
 6286TIP3    H118822   7.080   1.285   1.072
 6286TIP3    H218823   7.170   1.169   1.110
 6287TIP3   OH218824   6.388   3.659   0.078
 6287TIP3    H118825   6.319   3.613   0.127
 6287TIP3    H218826   6.396   3.609  -0.003
 6288TIP3   OH218827   0.247   1.087   1.125
 6288TIP3    H118828   0.262   1.056   1.036
 6288TIP3    H218829   0.215   1.176   1.114
 6289TIP3   OH218830   6.570   5.543   0.700
 6289TIP3    H118831   6.643   5.531   0.761
 6289TIP3    H218832   6.492   5.526   0.753
 6290TIP3   OH218833   6.695   3.252   0.598
 6290TIP3    H118834   6.673   3.178   0.542
 6290TIP3    H218835   6.728   3.318   0.538
 6291TIP3   OH218836   4.279   6.092   1.310
 6291TIP3    H118837   4.265   6.006   1.351
 6291TIP3    H218838   4.374   6.100   1.302
 6292TIP3   OH218839   7.004   6.307   5.681
 6292TIP3    H118840   6.948   6.315   5.759
 6292TIP3    H218841   6.981   6.222   5.644
 6293TIP3   OH218842   3.262   5.501   4.120
 6293TIP3    H118843   3.174   5.489   4.085
 6293TIP3    H218844   3.306   5.418   4.103
 6294TIP3   OH218845   0.604   6.666   0.614
 6294TIP3    H118846   0.635   6.607   0.546
 6294TIP3    H218847   0.670   6.659   0.684
 6295TIP3   OH218848   3.697   3.300   2.679
 6295TIP3    H118849   3.615   3.253   2.691
 6295TIP3    H218850   3.758   3.259   2.741
 6296TIP3   OH218851   6.155   0.084   1.405
 6296TIP3    H118852   6.207   0.072   1.326
 6296TIP3    H218853   6.183   0.014   1.464
 6297TIP3   OH218854   2.273   6.806   3.744
 6297TIP3    H118855   2.209   6.756   3.693
 6297TIP3    H218856   2.333   6.739   3.778
 6298TIP3   OH218857   7.112   2.875   4.032
 6298TIP3    H118858   7.181   2.878   4.098
 6298TIP3    H218859   7.031   2.889   4.082
 6299TIP3   OH218860   0.600   3.665   1.020
 6299TIP3    H118861   0.597   3.692   0.928
 6299TIP3    H218862   0.561   3.577   1.020
 6300TIP3   OH218863   5.306   2.071   4.821
 6300TIP3    H118864   5.226   2.104   4.861
 6300TIP3    H218865   5.360   2.149   4.808
 6301TIP3   OH218866   1.367   4.462   0.649
 6301TIP3    H118867   1.351   4.413   0.569
 6301TIP3    H218868   1.446   4.422   0.686
 6302TIP3   OH218869   1.475   5.557   0.465
 6302TIP3    H118870   1.534   5.547   0.390
 6302TIP3    H218871   1.437   5.644   0.454
 6303TIP3   OH218872   4.119   0.844   2.048
 6303TIP3    H118873   4.076   0.929   2.045
 6303TIP3    H218874   4.084   0.797   1.972
 6304TIP3   OH218875   3.848   6.013   5.525
 6304TIP3    H118876   3.821   5.924   5.547
 6304TIP3    H218877   3.792   6.069   5.579
 6305TIP3   OH218878   5.909   5.004   0.240
 6305TIP3    H118879   5.817   5.007   0.265
 6305TIP3    H218880   5.956   5.012   0.322
 6306TIP3   OH218881   3.185   0.771   1.234
 6306TIP3    H118882   3.090   0.782   1.232
 6306TIP3    H218883   3.215   0.816   1.155
 6307TIP3   OH218884   0.431   6.622   4.564
 6307TIP3    H118885   0.339   6.596   4.571
 6307TIP3    H218886   0.434   6.710   4.602
 6308TIP3   OH218887   2.572   1.968   3.090
 6308TIP3    H118888   2.628   2.033   3.046
 6308TIP3    H218889   2.493   2.016   3.113
 6309TIP3   OH218890   6.150   5.779   1.894
 6309TIP3    H118891   6.121   5.871   1.898
 6309TIP3    H218892   6.073   5.731   1.864
 6310TIP3   OH218893   3.374   2.612   5.303
 6310TIP3    H118894   3.451   2.590   5.252
 6310TIP3    H218895   3.300   2.575   5.254
 6311TIP3   OH218896   5.633   5.820   3.351
 6311TIP3    H118897   5.546   5.856   3.336
 6311TIP3    H218898   5.655   5.775   3.269
 6312TIP3   OH218899   4.954   3.319   2.996
 6312TIP3    H118900   5.049   3.307   2.996
 6312TIP3    H218901   4.920   3.241   3.040
 6313TIP3   OH218902   3.757   5.158   4.986
 6313TIP3    H118903   3.710   5.179   5.067
 6313TIP3    H218904   3.806   5.078   5.008
 6314TIP3   OH218905   3.512   6.089   4.282
 6314TIP3    H118906   3.544   6.162   4.228
 6314TIP3    H218907   3.532   6.115   4.372
 6315TIP3   OH218908   6.128   1.769   5.140
 6315TIP3    H118909   6.138   1.705   5.209
 6315TIP3    H218910   6.208   1.762   5.088
 6316TIP3   OH218911   0.244   5.448   4.917
 6316TIP3    H118912   0.302   5.471   4.843
 6316TIP3    H218913   0.190   5.377   4.883
 6317TIP3   OH218914   2.964   3.591   2.425
 6317TIP3    H118915   3.051   3.561   2.397
 6317TIP3    H218916   2.954   3.678   2.386
 6318TIP3   OH218917   3.257   5.015   2.212
 6318TIP3    H118918   3.261   4.927   2.249
 6318TIP3    H218919   3.331   5.061   2.251
 6319TIP3   OH218920   1.003   6.590   5.031
 6319TIP3    H118921   1.075   6.641   5.069
 6319TIP3    H218922   1.046   6.524   4.978
 6320TIP3   OH218923   4.973   5.076   0.728
 6320TIP3    H118924   4.910   5.121   0.785
 6320TIP3    H218925   5.039   5.041   0.788
 6321TIP3   OH218926   4.013   4.783   1.334
 6321TIP3    H118927   4.023   4.814   1.424
 6321TIP3    H218928   4.082   4.717   1.323
 6322TIP3   OH218929   2.287   0.846   3.397
 6322TIP3    H118930   2.368   0.823   3.441
 6322TIP3    H218931   2.313   0.910   3.330
 6323TIP3   OH218932   0.317   1.229   0.744
 6323TIP3    H118933   0.271   1.253   0.664
 6323TIP3    H218934   0.265   1.270   0.814
 6324TIP3   OH218935   3.227   3.581   3.555
 6324TIP3    H118936   3.296   3.572   3.489
 6324TIP3    H218937   3.146   3.578   3.505
 6325TIP3   OH218938   5.108   3.421   0.568
 6325TIP3    H118939   5.071   3.411   0.480
 6325TIP3    H218940   5.187   3.367   0.567
 6326TIP3   OH218941   0.734   2.272   5.377
 6326TIP3    H118942   0.717   2.365   5.391
 6326TIP3    H218943   0.674   2.227   5.437
 6327TIP3   OH218944   6.977   4.114   1.629
 6327TIP3    H118945   7.009   4.192   1.585
 6327TIP3    H218946   6.955   4.053   1.559
 6328TIP3   OH218947   5.948   0.377   5.714
 6328TIP3    H118948   5.869   0.347   5.670
 6328TIP3    H218949   6.011   0.306   5.701
 6329TIP3   OH218950   2.744   1.501   5.478
 6329TIP3    H118951   2.750   1.504   5.573
 6329TIP3    H218952   2.821   1.452   5.451
 6330TIP3   OH218953   2.654   2.843   2.709
 6330TIP3    H118954   2.680   2.751   2.717
 6330TIP3    H218955   2.734   2.888   2.682
 6331TIP3   OH218956   0.867   0.890   1.526
 6331TIP3    H118957   0.931   0.840   1.577
 6331TIP3    H218958   0.913   0.915   1.447
 6332TIP3   OH218959   5.979   3.600   4.878
 6332TIP3    H118960   5.999   3.551   4.958
 6332TIP3    H218961   6.028   3.682   4.888
 6333TIP3   OH218962   1.383   4.574   1.529
 6333TIP3    H118963   1.390   4.480   1.515
 6333TIP3    H218964   1.474   4.603   1.539
 6334TIP3   OH218965   1.117   2.797   1.734
 6334TIP3    H118966   1.115   2.866   1.667
 6334TIP3    H218967   1.150   2.720   1.687
 6335TIP3   OH218968   6.700   0.476   1.022
 6335TIP3    H118969   6.673   0.502   0.934
 6335TIP3    H218970   6.677   0.550   1.077
 6336TIP3   OH218971   3.931   3.210   5.043
 6336TIP3    H118972   3.994   3.195   5.114
 6336TIP3    H218973   3.978   3.264   4.980
 6337TIP3   OH218974   1.304   4.207   5.804
 6337TIP3    H118975   1.304   4.249   5.719
 6337TIP3    H218976   1.258   4.268   5.861
 6338TIP3   OH218977   3.609   5.231   0.878
 6338TIP3    H118978   3.594   5.284   0.799
 6338TIP3    H218979   3.653   5.290   0.939
 6339TIP3   OH218980   6.278   1.617   1.419
 6339TIP3    H118981   6.192   1.647   1.390
 6339TIP3    H218982   6.293   1.537   1.369
 6340TIP3   OH218983   0.205   4.979   4.923
 6340TIP3    H118984   0.135   5.040   4.946
 6340TIP3    H218985   0.260   5.028   4.862
 6341TIP3   OH218986   5.216   4.089   1.282
 6341TIP3    H118987   5.136   4.054   1.322
 6341TIP3    H218988   5.198   4.088   1.188
 6342TIP3   OH218989   3.421   4.655   2.575
 6342TIP3    H118990   3.505   4.634   2.615
 6342TIP3    H218991   3.366   4.684   2.648
 6343TIP3   OH218992   2.058   0.805   0.285
 6343TIP3    H118993   2.128   0.863   0.255
 6343TIP3    H218994   1.981   0.861   0.290
 6344TIP3   OH218995   2.899   2.075   3.195
 6344TIP3    H118996   2.969   2.135   3.170
 6344TIP3    H218997   2.924   2.045   3.283
 6345TIP3   OH218998   2.602   4.547   0.704
 6345TIP3    H118999   2.658   4.624   0.695
 6345TIP3    H219000   2.519   4.573   0.664
 6346TIP3   OH219001   0.761   1.709   3.049
 6346TIP3    H119002   0.828   1.732   2.985
 6346TIP3    H219003   0.701   1.784   3.049
 6347TIP3   OH219004   2.516   3.505   4.862
 6347TIP3    H119005   2.460   3.583   4.856
 6347TIP3    H219006   2.599   3.532   4.822
 6348TIP3   OH219007   3.075   4.891   4.791
 6348TIP3    H119008   3.014   4.854   4.727
 6348TIP3    H219009   3.019   4.923   4.862
 6349TIP3   OH219010   2.889   1.539   0.896
 6349TIP3    H119011   2.819   1.595   0.861
 6349TIP3    H219012   2.955   1.601   0.926
 6350TIP3   OH219013   4.687   2.731   3.674
 6350TIP3    H119014   4.696   2.646   3.716
 6350TIP3    H219015   4.605   2.766   3.708
 6351TIP3   OH219016   1.091   3.288   2.773
 6351TIP3    H119017   1.040   3.364   2.802
 6351TIP3    H219018   1.142   3.321   2.699
 6352TIP3   OH219019   1.378   2.832   3.191
 6352TIP3    H119020   1.425   2.871   3.117
 6352TIP3    H219021   1.366   2.740   3.166
 6353TIP3   OH219022   2.204   6.633   0.855
 6353TIP3    H119023   2.214   6.625   0.950
 6353TIP3    H219024   2.118   6.594   0.838
 6354TIP3   OH219025   5.404   5.023   0.431
 6354TIP3    H119026   5.344   4.988   0.496
 6354TIP3    H219027   5.354   5.090   0.384
 6355TIP3   OH219028   2.205   5.698   1.489
 6355TIP3    H119029   2.191   5.792   1.500
 6355TIP3    H219030   2.188   5.661   1.576
 6356TIP3   OH219031   4.996   1.373   2.085
 6356TIP3    H119032   5.050   1.349   2.160
 6356TIP3    H219033   5.018   1.308   2.018
 6357TIP3   OH219034   0.684   0.310   0.962
 6357TIP3    H119035   0.627   0.258   1.019
 6357TIP3    H219036   0.714   0.382   1.018
 6358TIP3   OH219037   3.356   4.408   0.182
 6358TIP3    H119038   3.392   4.389   0.095
 6358TIP3    H219039   3.312   4.327   0.208
 6359TIP3   OH219040   5.615   3.510   4.106
 6359TIP3    H119041   5.656   3.556   4.178
 6359TIP3    H219042   5.658   3.424   4.105
 6360TIP3   OH219043   5.402   1.331   3.691
 6360TIP3    H119044   5.460   1.327   3.615
 6360TIP3    H219045   5.388   1.240   3.715
 6361TIP3   OH219046   6.547   2.430   5.420
 6361TIP3    H119047   6.596   2.360   5.462
 6361TIP3    H219048   6.593   2.510   5.446
 6362TIP3   OH219049   0.018   2.211   2.693
 6362TIP3    H119050   0.098   2.161   2.682
 6362TIP3    H219051   0.045   2.288   2.744
 6363TIP3   OH219052   1.290   3.150   5.438
 6363TIP3    H119053   1.344   3.149   5.359
 6363TIP3    H219054   1.201   3.133   5.407
 6364TIP3   OH219055   0.409   1.219   2.538
 6364TIP3    H119056   0.490   1.183   2.575
 6364TIP3    H219057   0.340   1.186   2.595
 6365TIP3   OH219058   3.984   6.739   0.797
 6365TIP3    H119059   4.063   6.790   0.819
 6365TIP3    H219060   3.996   6.715   0.705
 6366TIP3   OH219061   5.694   6.068   3.153
 6366TIP3    H119062   5.701   6.003   3.083
 6366TIP3    H219063   5.764   6.044   3.214
 6367TIP3   OH219064   4.509   5.144   1.863
 6367TIP3    H119065   4.547   5.186   1.786
 6367TIP3    H219066   4.583   5.129   1.922
 6368TIP3   OH219067   0.788   5.274   2.716
 6368TIP3    H119068   0.805   5.353   2.767
 6368TIP3    H219069   0.873   5.228   2.714
 6369TIP3   OH219070   3.704   1.712   4.723
 6369TIP3    H119071   3.667   1.747   4.642
 6369TIP3    H219072   3.634   1.722   4.788
 6370TIP3   OH219073   5.049   0.388   3.453
 6370TIP3    H119074   4.988   0.333   3.405
 6370TIP3    H219075   5.071   0.458   3.392
 6371TIP3   OH219076   3.970   5.709   5.889
 6371TIP3    H119077   4.001   5.796   5.863
 6371TIP3    H219078   3.984   5.655   5.811
 6372TIP3   OH219079   0.980   3.055   5.139
 6372TIP3    H119080   0.983   3.149   5.158
 6372TIP3    H219081   0.998   3.012   5.222
 6373TIP3   OH219082   1.212   0.318   4.017
 6373TIP3    H119083   1.237   0.406   3.987
 6373TIP3    H219084   1.153   0.286   3.949
 6374TIP3   OH219085   4.023   0.499   3.917
 6374TIP3    H119086   3.979   0.416   3.894
 6374TIP3    H219087   4.021   0.501   4.013
 6375TIP3   OH219088   6.387   5.132   2.507
 6375TIP3    H119089   6.475   5.116   2.471
 6375TIP3    H219090   6.346   5.045   2.510
 6376TIP3   OH219091   2.801   2.755   4.052
 6376TIP3    H119092   2.746   2.810   4.108
 6376TIP3    H219093   2.772   2.775   3.963
 6377TIP3   OH219094   2.709   3.341   4.715
 6377TIP3    H119095   2.784   3.286   4.737
 6377TIP3    H219096   2.731   3.379   4.630
 6378TIP3   OH219097   3.899   0.800   2.903
 6378TIP3    H119098   3.861   0.871   2.851
 6378TIP3    H219099   3.955   0.844   2.967
 6379TIP3   OH219100   3.705   4.326   5.250
 6379TIP3    H119101   3.616   4.350   5.224
 6379TIP3    H219102   3.743   4.285   5.172
 6380TIP3   OH219103   5.186   5.402   2.430
 6380TIP3    H119104   5.098   5.366   2.441
 6380TIP3    H219105   5.241   5.351   2.490
 6381TIP3   OH219106   1.059   1.773   1.622
 6381TIP3    H119107   0.994   1.779   1.552
 6381TIP3    H219108   1.008   1.751   1.700
 6382TIP3   OH219109   4.008   5.995   5.304
 6382TIP3    H119110   3.951   5.974   5.230
 6382TIP3    H219111   3.949   5.998   5.380
 6383TIP3   OH219112   1.690   3.396   2.523
 6383TIP3    H119113   1.635   3.439   2.588
 6383TIP3    H219114   1.660   3.429   2.439
 6384TIP3   OH219115   0.280   2.830   4.980
 6384TIP3    H119116   0.318   2.893   4.919
 6384TIP3    H219117   0.186   2.831   4.961
 6385TIP3   OH219118   2.799   2.264   4.974
 6385TIP3    H119119   2.858   2.260   5.049
 6385TIP3    H219120   2.792   2.357   4.953
 6386TIP3   OH219121   0.648   6.337   1.424
 6386TIP3    H119122   0.743   6.343   1.432
 6386TIP3    H219123   0.614   6.368   1.508
 6387TIP3   OH219124   2.577   4.972   1.845
 6387TIP3    H119125   2.606   5.027   1.917
 6387TIP3    H219126   2.620   4.888   1.859
 6388TIP3   OH219127   3.876   1.639   5.090
 6388TIP3    H119128   3.958   1.608   5.051
 6388TIP3    H219129   3.898   1.657   5.181
 6389TIP3   OH219130   6.613   0.117   0.855
 6389TIP3    H119131   6.601   0.163   0.772
 6389TIP3    H219132   6.588   0.180   0.922
 6390TIP3   OH219133   6.470   2.805   0.308
 6390TIP3    H119134   6.422   2.764   0.236
 6390TIP3    H219135   6.466   2.742   0.379
 6391TIP3   OH219136   7.080   3.758   4.973
 6391TIP3    H119137   6.995   3.775   5.015
 6391TIP3    H219138   7.063   3.771   4.880
 6392TIP3   OH219139   2.141   1.208   4.853
 6392TIP3    H119140   2.180   1.273   4.912
 6392TIP3    H219141   2.215   1.152   4.828
 6393TIP3   OH219142   0.334   6.102   1.886
 6393TIP3    H119143   0.251   6.066   1.915
 6393TIP3    H219144   0.391   6.098   1.963
 6394TIP3   OH219145   4.313   1.067   5.350
 6394TIP3    H119146   4.373   1.074   5.276
 6394TIP3    H219147   4.326   0.979   5.384
 6395TIP3   OH219148   0.578   0.105   4.914
 6395TIP3    H119149   0.543   0.020   4.939
 6395TIP3    H219150   0.665   0.086   4.879
 6396TIP3   OH219151   0.385   3.011   4.782
 6396TIP3    H119152   0.327   3.047   4.715
 6396TIP3    H219153   0.461   2.980   4.733
 6397TIP3   OH219154   1.949   1.718   3.648
 6397TIP3    H119155   1.969   1.624   3.642
 6397TIP3    H219156   2.030   1.758   3.677
 6398TIP3   OH219157   5.326   5.019   0.009
 6398TIP3    H119158   5.382   5.088   0.046
 6398TIP3    H219159   5.279   4.984   0.085
 6399TIP3   OH219160   6.969   4.977   1.372
 6399TIP3    H119161   6.958   4.998   1.465
 6399TIP3    H219162   6.880   4.977   1.336
 6400TIP3   OH219163   0.691   1.925   1.327
 6400TIP3    H119164   0.658   1.899   1.413
 6400TIP3    H219165   0.782   1.896   1.327
 6401TIP3   OH219166   3.894   4.842   3.037
 6401TIP3    H119167   3.901   4.889   3.120
 6401TIP3    H219168   3.895   4.750   3.061
 6402TIP3   OH219169   3.316   0.905   1.013
 6402TIP3    H119170   3.387   0.964   0.987
 6402TIP3    H219171   3.320   0.833   0.950
 6403TIP3   OH219172   7.147   5.534   3.780
 6403TIP3    H119173   7.196   5.617   3.772
 6403TIP3    H219174   7.214   5.466   3.767
 6404TIP3   OH219175   3.762   4.588   5.163
 6404TIP3    H119176   3.744   4.499   5.193
 6404TIP3    H219177   3.744   4.586   5.069
 6405TIP3   OH219178   0.555   3.274   0.263
 6405TIP3    H119179   0.503   3.349   0.292
 6405TIP3    H219180   0.608   3.307   0.191
 6406TIP3   OH219181   2.549   1.794   1.476
 6406TIP3    H119182   2.575   1.772   1.387
 6406TIP3    H219183   2.495   1.720   1.504
 6407TIP3   OH219184   2.304   2.960   2.402
 6407TIP3    H119185   2.293   3.056   2.404
 6407TIP3    H219186   2.399   2.947   2.398
 6408TIP3   OH219187   6.565   3.828   0.163
 6408TIP3    H119188   6.510   3.752   0.144
 6408TIP3    H219189   6.502   3.899   0.177
 6409TIP3   OH219190   0.256   5.616   0.008
 6409TIP3    H119191   0.219   5.683  -0.049
 6409TIP3    H219192   0.181   5.564   0.036
 6410TIP3   OH219193   6.438   2.351   3.473
 6410TIP3    H119194   6.442   2.322   3.564
 6410TIP3    H219195   6.349   2.385   3.462
 6411TIP3   OH219196   3.959   5.642   4.747
 6411TIP3    H119197   3.923   5.642   4.659
 6411TIP3    H219198   3.955   5.550   4.775
 6412TIP3   OH219199   3.760   4.297  -0.093
 6412TIP3    H119200   3.686   4.253  -0.050
 6412TIP3    H219201   3.778   4.245  -0.171
 6413TIP3   OH219202   7.187   1.444   3.566
 6413TIP3    H119203   7.098   1.463   3.538
 6413TIP3    H219204   7.222   1.529   3.593
 6414TIP3   OH219205   5.995   5.625   3.310
 6414TIP3    H119206   6.089   5.607   3.304
 6414TIP3    H219207   5.989   5.699   3.371
 6415TIP3   OH219208   4.609   1.070   3.435
 6415TIP3    H119209   4.618   1.158   3.397
 6415TIP3    H219210   4.517   1.065   3.461
 6416TIP3   OH219211   6.565   3.554   1.126
 6416TIP3    H119212   6.518   3.629   1.163
 6416TIP3    H219213   6.553   3.563   1.031
 6417TIP3   OH219214   3.438   5.757   3.418
 6417TIP3    H119215   3.392   5.771   3.335
 6417TIP3    H219216   3.438   5.662   3.430
 6418TIP3   OH219217   4.886   0.685   2.753
 6418TIP3    H119218   4.798   0.723   2.757
 6418TIP3    H219219   4.879   0.602   2.800
 6419TIP3   OH219220   1.169   3.043   3.497
 6419TIP3    H119221   1.189   3.123   3.546
 6419TIP3    H219222   1.254   3.000   3.487
 6420TIP3   OH219223   4.828   6.515   3.949
 6420TIP3    H119224   4.778   6.469   3.882
 6420TIP3    H219225   4.906   6.460   3.963
 6421TIP3   OH219226   0.603   6.480   0.407
 6421TIP3    H119227   0.524   6.447   0.449
 6421TIP3    H219228   0.623   6.416   0.338
 6422TIP3   OH219229   6.035   2.871   3.496
 6422TIP3    H119230   6.062   2.797   3.442
 6422TIP3    H219231   6.046   2.947   3.440
 6423TIP3   OH219232   5.543   1.043   0.062
 6423TIP3    H119233   5.471   0.994   0.102
 6423TIP3    H219234   5.559   0.997  -0.021
 6424TIP3   OH219235   6.553   3.453   1.801
 6424TIP3    H119236   6.494   3.454   1.876
 6424TIP3    H219237   6.496   3.433   1.726
 6425TIP3   OH219238   5.077   6.745   3.697
 6425TIP3    H119239   5.025   6.809   3.747
 6425TIP3    H219240   5.014   6.707   3.636
 6426TIP3   OH219241   3.994   1.241   4.330
 6426TIP3    H119242   4.033   1.315   4.283
 6426TIP3    H219243   3.989   1.171   4.264
 6427TIP3   OH219244   4.454   3.015   3.538
 6427TIP3    H119245   4.449   3.103   3.575
 6427TIP3    H219246   4.480   2.959   3.611
 6428TIP3   OH219247   3.381   5.736   2.295
 6428TIP3    H119248   3.362   5.661   2.239
 6428TIP3    H219249   3.439   5.701   2.363
 6429TIP3   OH219250   6.303   6.141   1.779
 6429TIP3    H119251   6.225   6.099   1.815
 6429TIP3    H219252   6.276   6.230   1.759
 6430TIP3   OH219253   0.204   6.449   2.526
 6430TIP3    H119254   0.148   6.482   2.596
 6430TIP3    H219255   0.231   6.362   2.555
 6431TIP3   OH219256   0.239   4.867   5.854
 6431TIP3    H119257   0.332   4.871   5.874
 6431TIP3    H219258   0.232   4.903   5.766
 6432TIP3   OH219259   5.231   1.543   3.636
 6432TIP3    H119260   5.283   1.464   3.651
 6432TIP3    H219261   5.283   1.593   3.573
 6433TIP3   OH219262   2.281   1.828  -0.006
 6433TIP3    H119263   2.357   1.780  -0.040
 6433TIP3    H219264   2.319   1.904   0.039
 6434TIP3   OH219265   6.356   5.055   1.659
 6434TIP3    H119266   6.283   5.091   1.708
 6434TIP3    H219267   6.372   5.117   1.589
 6435TIP3   OH219268   4.020   0.985   0.847
 6435TIP3    H119269   4.051   0.965   0.936
 6435TIP3    H219270   4.082   0.940   0.789
 6436TIP3   OH219271   6.928   3.581   4.220
 6436TIP3    H119272   6.849   3.635   4.217
 6436TIP3    H219273   6.958   3.579   4.129
 6437TIP3   OH219274   5.099   2.782   3.338
 6437TIP3    H119275   5.101   2.717   3.268
 6437TIP3    H219276   5.079   2.865   3.294
 6438TIP3   OH219277   1.923   2.754   0.648
 6438TIP3    H119278   1.921   2.848   0.633
 6438TIP3    H219279   1.901   2.715   0.564
 6439TIP3   OH219280   6.501   2.876   1.429
 6439TIP3    H119281   6.413   2.861   1.464
 6439TIP3    H219282   6.547   2.923   1.499
 6440TIP3   OH219283   0.297   4.574   3.597
 6440TIP3    H119284   0.385   4.555   3.627
 6440TIP3    H219285   0.256   4.488   3.587
 6441TIP3   OH219286   7.070   2.442   4.807
 6441TIP3    H119287   7.114   2.357   4.816
 6441TIP3    H219288   7.003   2.442   4.874
 6442TIP3   OH219289   4.711   2.510   4.634
 6442TIP3    H119290   4.700   2.483   4.725
 6442TIP3    H219291   4.747   2.599   4.640
 6443TIP3   OH219292   5.860   5.750   2.179
 6443TIP3    H119293   5.944   5.794   2.193
 6443TIP3    H219294   5.872   5.699   2.099
 6444TIP3   OH219295   7.118   3.428   4.297
 6444TIP3    H119296   7.069   3.503   4.262
 6444TIP3    H219297   7.082   3.352   4.251
 6445TIP3   OH219298   1.781   6.601   3.582
 6445TIP3    H119299   1.876   6.596   3.592
 6445TIP3    H219300   1.755   6.678   3.633
 6446TIP3   OH219301   5.090   3.361   5.476
 6446TIP3    H119302   5.140   3.280   5.476
 6446TIP3    H219303   5.072   3.378   5.568
 6447TIP3   OH219304   4.594   4.623   2.000
 6447TIP3    H119305   4.633   4.537   2.017
 6447TIP3    H219306   4.509   4.620   2.043
 6448TIP3   OH219307   5.814   5.514   2.585
 6448TIP3    H119308   5.901   5.476   2.569
 6448TIP3    H219309   5.821   5.604   2.556
 6449TIP3   OH219310   7.075   0.340   4.675
 6449TIP3    H119311   7.109   0.257   4.641
 6449TIP3    H219312   7.142   0.370   4.736
 6450TIP3   OH219313   2.326   0.984   5.049
 6450TIP3    H119314   2.360   1.071   5.072
 6450TIP3    H219315   2.398   0.942   5.002
 6451TIP3   OH219316   5.193   6.426   1.439
 6451TIP3    H119317   5.260   6.410   1.505
 6451TIP3    H219318   5.140   6.347   1.438
 6452TIP3   OH219319   5.161   6.174   5.489
 6452TIP3    H119320   5.164   6.191   5.395
 6452TIP3    H219321   5.213   6.095   5.502
 6453TIP3   OH219322   7.284   5.333   2.673
 6453TIP3    H119323   7.370   5.314   2.709
 6453TIP3    H219324   7.300   5.353   2.581
 6454TIP3   OH219325   6.633   1.105   5.632
 6454TIP3    H119326   6.574   1.180   5.624
 6454TIP3    H219327   6.626   1.078   5.724
 6455TIP3   OH219328   0.294   2.577   5.358
 6455TIP3    H119329   0.309   2.662   5.318
 6455TIP3    H219330   0.378   2.532   5.351
 6456TIP3   OH219331   1.722   1.511   1.744
 6456TIP3    H119332   1.680   1.455   1.679
 6456TIP3    H219333   1.650   1.564   1.780
 6457TIP3   OH219334   6.630   6.410   2.237
 6457TIP3    H119335   6.605   6.383   2.325
 6457TIP3    H219336   6.616   6.505   2.237
 6458TIP3   OH219337   3.698   2.643   1.457
 6458TIP3    H119338   3.657   2.661   1.542
 6458TIP3    H219339   3.755   2.569   1.474
 6459TIP3   OH219340   7.062   5.508   4.673
 6459TIP3    H119341   7.136   5.553   4.714
 6459TIP3    H219342   7.096   5.422   4.648
 6460TIP3   OH219343   3.935   1.346   1.180
 6460TIP3    H119344   3.980   1.361   1.097
 6460TIP3    H219345   3.848   1.384   1.167
 6461TIP3   OH219346   6.199   2.474   2.169
 6461TIP3    H119347   6.185   2.481   2.075
 6461TIP3    H219348   6.242   2.556   2.194
 6462TIP3   OH219349   0.189   3.127   3.452
 6462TIP3    H119350   0.266   3.156   3.403
 6462TIP3    H219351   0.125   3.197   3.440
 6463TIP3   OH219352   5.174   0.123   5.910
 6463TIP3    H119353   5.255   0.135   5.861
 6463TIP3    H219354   5.118   0.194   5.881
 6464TIP3   OH219355   6.439   1.913   0.679
 6464TIP3    H119356   6.490   1.860   0.741
 6464TIP3    H219357   6.382   1.850   0.635
 6465TIP3   OH219358   2.102   2.648   1.974
 6465TIP3    H119359   2.019   2.633   2.018
 6465TIP3    H219360   2.080   2.704   1.899
 6466TIP3   OH219361   2.930   3.313   1.785
 6466TIP3    H119362   2.848   3.264   1.792
 6466TIP3    H219363   2.996   3.246   1.766
 6467TIP3   OH219364   1.396   5.186   0.151
 6467TIP3    H119365   1.333   5.115   0.154
 6467TIP3    H219366   1.367   5.247   0.220
 6468TIP3   OH219367   7.114   1.549   3.299
 6468TIP3    H119368   7.030   1.543   3.344
 6468TIP3    H219369   7.176   1.574   3.367
 6469TIP3   OH219370   1.597   6.419   2.181
 6469TIP3    H119371   1.688   6.403   2.156
 6469TIP3    H219372   1.558   6.332   2.189
 6470TIP3   OH219373   7.168   2.766   2.327
 6470TIP3    H119374   7.107   2.694   2.344
 6470TIP3    H219375   7.193   2.755   2.235
 6471TIP3   OH219376   1.050   0.371   4.729
 6471TIP3    H119377   1.033   0.365   4.823
 6471TIP3    H219378   1.145   0.358   4.721
 6472TIP3   OH219379   6.098   4.548   0.844
 6472TIP3    H119380   6.176   4.532   0.791
 6472TIP3    H219381   6.105   4.640   0.871
 6473TIP3   OH219382   5.356   3.441   1.259
 6473TIP3    H119383   5.317   3.504   1.320
 6473TIP3    H219384   5.297   3.366   1.261
 6474TIP3   OH219385   6.644   4.391   0.174
 6474TIP3    H119386   6.635   4.372   0.267
 6474TIP3    H219387   6.598   4.475   0.162
 6475TIP3   OH219388   4.573   4.514   3.317
 6475TIP3    H119389   4.650   4.519   3.373
 6475TIP3    H219390   4.528   4.434   3.345
 6476TIP3   OH219391   2.899   1.763   0.125
 6476TIP3    H119392   2.808   1.780   0.146
 6476TIP3    H219393   2.916   1.816   0.047
 6477TIP3   OH219394   5.324   0.497   5.661
 6477TIP3    H119395   5.325   0.527   5.752
 6477TIP3    H219396   5.391   0.550   5.618
 6478TIP3   OH219397   6.505   0.801   4.128
 6478TIP3    H119398   6.474   0.834   4.212
 6478TIP3    H219399   6.595   0.833   4.120
 6479TIP3   OH219400   5.624   3.167   4.092
 6479TIP3    H119401   5.708   3.211   4.078
 6479TIP3    H219402   5.581   3.219   4.160
 6480TIP3   OH219403   6.110   0.126   0.539
 6480TIP3    H119404   6.154   0.041   0.539
 6480TIP3    H219405   6.137   0.167   0.621
 6481TIP3   OH219406   1.436   2.946   3.430
 6481TIP3    H119407   1.430   2.915   3.340
 6481TIP3    H219408   1.529   2.935   3.453
 6482TIP3   OH219409   4.415   6.170   5.421
 6482TIP3    H119410   4.339   6.151   5.476
 6482TIP3    H219411   4.395   6.256   5.383
 6483TIP3   OH219412   6.173   1.094   4.288
 6483TIP3    H119413   6.174   1.109   4.193
 6483TIP3    H219414   6.249   1.142   4.321
 6484TIP3   OH219415   1.223   2.372   0.517
 6484TIP3    H119416   1.221   2.450   0.573
 6484TIP3    H219417   1.216   2.299   0.578
 6485TIP3   OH219418   5.454   3.895   1.474
 6485TIP3    H119419   5.490   3.814   1.509
 6485TIP3    H219420   5.359   3.884   1.479
 6486TIP3   OH219421   0.759   4.078   2.691
 6486TIP3    H119422   0.852   4.061   2.675
 6486TIP3    H219423   0.758   4.140   2.763
 6487TIP3   OH219424   1.629   0.717   5.455
 6487TIP3    H119425   1.636   0.633   5.500
 6487TIP3    H219426   1.691   0.710   5.382
 6488TIP3   OH219427   0.510   0.575   1.380
 6488TIP3    H119428   0.532   0.523   1.457
 6488TIP3    H219429   0.582   0.637   1.371
 6489TIP3   OH219430   1.648   6.142   0.451
 6489TIP3    H119431   1.653   6.087   0.529
 6489TIP3    H219432   1.673   6.083   0.379
 6490TIP3   OH219433   6.481   4.652   0.164
 6490TIP3    H119434   6.442   4.738   0.179
 6490TIP3    H219435   6.411   4.589   0.186
 6491TIP3   OH219436   2.343   1.494   4.340
 6491TIP3    H119437   2.257   1.477   4.301
 6491TIP3    H219438   2.373   1.409   4.370
 6492TIP3   OH219439   4.914   3.737   5.594
 6492TIP3    H119440   4.892   3.675   5.664
 6492TIP3    H219441   4.868   3.817   5.619
 6493TIP3   OH219442   0.201   4.348   2.100
 6493TIP3    H119443   0.236   4.389   2.021
 6493TIP3    H219444   0.251   4.386   2.172
 6494TIP3   OH219445   4.425   5.800   3.964
 6494TIP3    H119446   4.500   5.851   3.934
 6494TIP3    H219447   4.421   5.725   3.905
 6495TIP3   OH219448   2.333   6.161   0.294
 6495TIP3    H119449   2.338   6.205   0.379
 6495TIP3    H219450   2.404   6.201   0.242
 6496TIP3   OH219451   0.322   5.488   4.131
 6496TIP3    H119452   0.336   5.418   4.194
 6496TIP3    H219453   0.305   5.566   4.184
 6497TIP3   OH219454   0.400   4.567   0.037
 6497TIP3    H119455   0.341   4.553  -0.037
 6497TIP3    H219456   0.376   4.653   0.071
 6498TIP3   OH219457   1.733   4.068   2.372
 6498TIP3    H119458   1.731   4.009   2.296
 6498TIP3    H219459   1.822   4.061   2.406
 6499TIP3   OH219460   3.071   5.350   5.231
 6499TIP3    H119461   3.111   5.278   5.183
 6499TIP3    H219462   2.991   5.312   5.270
 6500TIP3   OH219463   0.903   3.533   5.510
 6500TIP3    H119464   0.864   3.550   5.425
 6500TIP3    H219465   0.832   3.547   5.573
 6501TIP3   OH219466   3.775   4.548   2.209
 6501TIP3    H119467   3.688   4.588   2.214
 6501TIP3    H219468   3.764   4.476   2.147
 6502TIP3   OH219469   6.364   6.595   5.292
 6502TIP3    H119470   6.356   6.576   5.198
 6502TIP3    H219471   6.291   6.548   5.332
 6503TIP3   OH219472   5.822   4.098   1.086
 6503TIP3    H119473   5.755   4.071   1.147
 6503TIP3    H219474   5.774   4.128   1.009
 6504TIP3   OH219475   4.095   2.086   1.656
 6504TIP3    H119476   4.178   2.131   1.672
 6504TIP3    H219477   4.119   1.993   1.656
 6505TIP3   OH219478   0.312   6.248   4.513
 6505TIP3    H119479   0.310   6.266   4.607
 6505TIP3    H219480   0.322   6.153   4.508
 6506TIP3   OH219481   1.708   1.112   2.631
 6506TIP3    H119482   1.613   1.116   2.641
 6506TIP3    H219483   1.740   1.083   2.717
 6507TIP3   OH219484   4.895   5.153   1.183
 6507TIP3    H119485   4.884   5.093   1.110
 6507TIP3    H219486   4.939   5.229   1.146
 6508TIP3   OH219487   4.544   1.978   2.458
 6508TIP3    H119488   4.555   1.943   2.547
 6508TIP3    H219489   4.561   2.072   2.467
 6509TIP3   OH219490   3.843   2.903   2.646
 6509TIP3    H119491   3.903   2.874   2.714
 6509TIP3    H219492   3.762   2.926   2.692
 6510TIP3   OH219493   1.768   0.668   1.979
 6510TIP3    H119494   1.829   0.618   1.925
 6510TIP3    H219495   1.687   0.669   1.928
 6511TIP3   OH219496   2.696   0.383   1.326
 6511TIP3    H119497   2.714   0.439   1.251
 6511TIP3    H219498   2.725   0.296   1.298
 6512TIP3   OH219499   2.078   1.720   2.248
 6512TIP3    H119500   2.016   1.718   2.321
 6512TIP3    H219501   2.158   1.756   2.286
 6513TIP3   OH219502   2.618   2.291   4.643
 6513TIP3    H119503   2.581   2.350   4.709
 6513TIP3    H219504   2.599   2.335   4.560
 6514TIP3   OH219505   6.962   6.360   1.971
 6514TIP3    H119506   6.919   6.446   1.973
 6514TIP3    H219507   6.903   6.303   2.020
 6515TIP3   OH219508   7.005   5.406   0.029
 6515TIP3    H119509   7.063   5.337   0.061
 6515TIP3    H219510   6.944   5.421   0.102
 6516TIP3   OH219511   7.118   4.318   3.586
 6516TIP3    H119512   7.155   4.246   3.534
 6516TIP3    H219513   7.187   4.385   3.586
 6517TIP3   OH219514   5.709   6.331   3.145
 6517TIP3    H119515   5.776   6.338   3.212
 6517TIP3    H219516   5.699   6.237   3.130
 6518TIP3   OH219517   1.768   6.435   1.402
 6518TIP3    H119518   1.751   6.520   1.443
 6518TIP3    H219519   1.859   6.416   1.422
 6519TIP3   OH219520   6.985   2.361   2.210
 6519TIP3    H119521   7.048   2.326   2.272
 6519TIP3    H219522   7.036   2.379   2.131
 6520TIP3   OH219523   1.609   1.852   4.849
 6520TIP3    H119524   1.551   1.789   4.806
 6520TIP3    H219525   1.668   1.798   4.901
 6521TIP3   OH219526   2.419   2.476   0.109
 6521TIP3    H119527   2.437   2.567   0.088
 6521TIP3    H219528   2.410   2.432   0.024
 6522TIP3   OH219529   0.829   6.591   5.533
 6522TIP3    H119530   0.849   6.680   5.560
 6522TIP3    H219531   0.793   6.600   5.444
 6523TIP3   OH219532   2.216   4.852   2.501
 6523TIP3    H119533   2.253   4.921   2.446
 6523TIP3    H219534   2.263   4.859   2.584
 6524TIP3   OH219535   3.442   1.718   5.575
 6524TIP3    H119536   3.371   1.658   5.553
 6524TIP3    H219537   3.458   1.704   5.669
 6525TIP3   OH219538   6.629   4.581   1.349
 6525TIP3    H119539   6.710   4.611   1.391
 6525TIP3    H219540   6.569   4.563   1.421
 6526TIP3   OH219541   1.428   6.587   1.425
 6526TIP3    H119542   1.340   6.550   1.441
 6526TIP3    H219543   1.418   6.637   1.344
 6527TIP3   OH219544   3.052   1.729   0.998
 6527TIP3    H119545   3.100   1.809   1.022
 6527TIP3    H219546   3.069   1.669   1.071
 6528TIP3   OH219547   0.550   6.575   1.160
 6528TIP3    H119548   0.549   6.479   1.153
 6528TIP3    H219549   0.546   6.606   1.070
 6529TIP3   OH219550   4.389   5.759   0.240
 6529TIP3    H119551   4.460   5.695   0.248
 6529TIP3    H219552   4.400   5.796   0.152
 6530TIP3   OH219553   1.941   2.899   5.726
 6530TIP3    H119554   1.903   2.878   5.641
 6530TIP3    H219555   1.884   2.855   5.789
 6531TIP3   OH219556   0.870   6.429   0.947
 6531TIP3    H119557   0.921   6.355   0.915
 6531TIP3    H219558   0.871   6.492   0.876
 6532TIP3   OH219559   5.472   0.390   3.400
 6532TIP3    H119560   5.418   0.420   3.474
 6532TIP3    H219561   5.559   0.428   3.417
 6533TIP3   OH219562   6.833   3.930   0.650
 6533TIP3    H119563   6.913   3.905   0.604
 6533TIP3    H219564   6.767   3.941   0.582
 6534TIP3   OH219565   3.325   1.260   4.904
 6534TIP3    H119566   3.379   1.210   4.843
 6534TIP3    H219567   3.345   1.352   4.885
 6535TIP3   OH219568   4.976   2.929   3.740
 6535TIP3    H119569   4.931   2.890   3.665
 6535TIP3    H219570   4.961   2.867   3.812
 6536TIP3   OH219571   3.171   2.639   1.662
 6536TIP3    H119572   3.142   2.549   1.651
 6536TIP3    H219573   3.182   2.672   1.572
 6537TIP3   OH219574   2.602   2.844   4.212
 6537TIP3    H119575   2.510   2.837   4.187
 6537TIP3    H219576   2.617   2.772   4.273
 6538TIP3   OH219577   2.763   6.549   4.504
 6538TIP3    H119578   2.685   6.604   4.492
 6538TIP3    H219579   2.768   6.535   4.598
 6539TIP3   OH219580   2.436   2.996   5.860
 6539TIP3    H119581   2.353   2.949   5.846
 6539TIP3    H219582   2.497   2.954   5.800
 6540TIP3   OH219583   4.360   4.067   0.618
 6540TIP3    H119584   4.395   4.092   0.703
 6540TIP3    H219585   4.422   4.001   0.585
 6541TIP3   OH219586   2.333   4.016   4.981
 6541TIP3    H119587   2.317   3.958   5.056
 6541TIP3    H219588   2.247   4.050   4.958
 6542TIP3   OH219589   5.120   1.936   5.055
 6542TIP3    H119590   5.092   2.020   5.019
 6542TIP3    H219591   5.212   1.948   5.076
 6543TIP3   OH219592   5.311   6.318   3.451
 6543TIP3    H119593   5.394   6.282   3.422
 6543TIP3    H219594   5.330   6.361   3.534
 6544TIP3   OH219595   3.135   4.231   4.814
 6544TIP3    H119596   3.077   4.199   4.883
 6544TIP3    H219597   3.202   4.281   4.861
 6545TIP3   OH219598   4.693   3.556   0.493
 6545TIP3    H119599   4.745   3.495   0.545
 6545TIP3    H219600   4.729   3.548   0.405
 6546TIP3   OH219601   3.245   1.669   3.629
 6546TIP3    H119602   3.250   1.759   3.661
 6546TIP3    H219603   3.161   1.637   3.661
 6547TIP3   OH219604   7.258   3.721   2.441
 6547TIP3    H119605   7.297   3.644   2.399
 6547TIP3    H219606   7.329   3.785   2.444
 6548TIP3   OH219607   5.421   2.273   1.997
 6548TIP3    H119608   5.397   2.245   2.086
 6548TIP3    H219609   5.462   2.195   1.959
 6549TIP3   OH219610   4.940   5.694   3.750
 6549TIP3    H119611   4.976   5.712   3.664
 6549TIP3    H219612   5.014   5.703   3.810
 6550TIP3   OH219613   2.502   5.258   3.760
 6550TIP3    H119614   2.569   5.196   3.731
 6550TIP3    H219615   2.543   5.306   3.832
 6551TIP3   OH219616   4.494   0.197   4.435
 6551TIP3    H119617   4.454   0.110   4.439
 6551TIP3    H219618   4.420   0.258   4.441
 6552TIP3   OH219619   2.649   6.150   2.423
 6552TIP3    H119620   2.724   6.149   2.482
 6552TIP3    H219621   2.574   6.165   2.480
 6553TIP3   OH219622   1.217   0.684   4.987
 6553TIP3    H119623   1.270   0.607   5.007
 6553TIP3    H219624   1.253   0.754   5.042
 6554TIP3   OH219625   4.369   1.508   1.854
 6554TIP3    H119626   4.306   1.517   1.783
 6554TIP3    H219627   4.424   1.435   1.829
 6555TIP3   OH219628   0.226   3.124   2.519
 6555TIP3    H119629   0.268   3.203   2.553
 6555TIP3    H219630   0.287   3.053   2.540
 6556TIP3   OH219631   1.309   4.317   3.942
 6556TIP3    H119632   1.385   4.266   3.967
 6556TIP3    H219633   1.309   4.314   3.846
 6557TIP3   OH219634   4.729   6.699   0.417
 6557TIP3    H119635   4.782   6.712   0.338
 6557TIP3    H219636   4.655   6.758   0.407
 6558TIP3   OH219637   5.944   5.186   4.592
 6558TIP3    H119638   6.010   5.118   4.578
 6558TIP3    H219639   5.862   5.138   4.604
 6559TIP3   OH219640   1.627   5.624   0.252
 6559TIP3    H119641   1.543   5.612   0.207
 6559TIP3    H219642   1.674   5.688   0.198
 6560TIP3   OH219643   7.220   2.263   0.676
 6560TIP3    H119644   7.292   2.225   0.727
 6560TIP3    H219645   7.189   2.191   0.621
 6561TIP3   OH219646   0.107   4.340   3.949
 6561TIP3    H119647   0.174   4.273   3.933
 6561TIP3    H219648   0.063   4.351   3.865
 6562TIP3   OH219649   4.721   3.041   4.444
 6562TIP3    H119650   4.626   3.049   4.436
 6562TIP3    H219651   4.741   2.954   4.408
 6563TIP3   OH219652   2.771   5.359   2.151
 6563TIP3    H119653   2.861   5.325   2.145
 6563TIP3    H219654   2.756   5.370   2.245
 6564TIP3   OH219655   3.231   0.940   0.423
 6564TIP3    H119656   3.247   0.870   0.486
 6564TIP3    H219657   3.249   0.900   0.338
 6565TIP3   OH219658   3.715   2.724   1.028
 6565TIP3    H119659   3.653   2.719   0.955
 6565TIP3    H219660   3.788   2.668   1.002
 6566TIP3   OH219661   2.621   5.401   3.962
 6566TIP3    H119662   2.641   5.407   4.055
 6566TIP3    H219663   2.639   5.488   3.928
 6567TIP3   OH219664   1.469   5.160   3.691
 6567TIP3    H119665   1.562   5.158   3.668
 6567TIP3    H219666   1.465   5.118   3.778
 6568TIP3   OH219667   2.452   5.788   3.242
 6568TIP3    H119668   2.461   5.851   3.171
 6568TIP3    H219669   2.508   5.824   3.312
 6569TIP3   OH219670   4.725   5.510   1.810
 6569TIP3    H119671   4.728   5.510   1.715
 6569TIP3    H219672   4.633   5.498   1.832
 6570TIP3   OH219673   4.754   3.421   5.615
 6570TIP3    H119674   4.718   3.380   5.694
 6570TIP3    H219675   4.849   3.416   5.627
 6571TIP3   OH219676   1.683   2.519   4.369
 6571TIP3    H119677   1.596   2.557   4.356
 6571TIP3    H219678   1.734   2.553   4.295
 6572TIP3   OH219679   3.591   3.718   4.470
 6572TIP3    H119680   3.646   3.649   4.507
 6572TIP3    H219681   3.603   3.711   4.375
 6573TIP3   OH219682   3.677   4.001   1.460
 6573TIP3    H119683   3.648   4.080   1.414
 6573TIP3    H219684   3.595   3.957   1.487
 6574TIP3   OH219685   6.753   2.596   0.644
 6574TIP3    H119686   6.722   2.521   0.694
 6574TIP3    H219687   6.839   2.569   0.611
 6575TIP3   OH219688   4.610   1.509   0.162
 6575TIP3    H119689   4.644   1.577   0.104
 6575TIP3    H219690   4.613   1.548   0.249
 6576TIP3   OH219691   4.566   1.956   4.755
 6576TIP3    H119692   4.531   1.870   4.731
 6576TIP3    H219693   4.591   1.996   4.672
 6577TIP3   OH219694   1.746   4.214   1.062
 6577TIP3    H119695   1.804   4.240   0.990
 6577TIP3    H219696   1.796   4.149   1.111
 6578TIP3   OH219697   4.452   1.104   2.351
 6578TIP3    H119698   4.404   1.060   2.281
 6578TIP3    H219699   4.542   1.110   2.318
 6579TIP3   OH219700   0.467   0.504   0.850
 6579TIP3    H119701   0.550   0.504   0.899
 6579TIP3    H219702   0.418   0.578   0.886
 6580TIP3   OH219703   2.839   0.877   2.280
 6580TIP3    H119704   2.800   0.790   2.289
 6580TIP3    H219705   2.826   0.900   2.188
 6581TIP3   OH219706   6.352   6.552   2.824
 6581TIP3    H119707   6.344   6.571   2.731
 6581TIP3    H219708   6.291   6.611   2.867
 6582TIP3   OH219709   1.730   6.369   0.158
 6582TIP3    H119710   1.699   6.433   0.094
 6582TIP3    H219711   1.819   6.347   0.130
 6583TIP3   OH219712   3.293   3.913   2.701
 6583TIP3    H119713   3.291   3.937   2.793
 6583TIP3    H219714   3.213   3.950   2.664
 6584TIP3   OH219715   4.288   6.195   4.124
 6584TIP3    H119716   4.370   6.148   4.135
 6584TIP3    H219717   4.300   6.277   4.173
 6585TIP3   OH219718   5.549   6.472   4.121
 6585TIP3    H119719   5.566   6.398   4.180
 6585TIP3    H219720   5.543   6.433   4.034
 6586TIP3   OH219721   5.953   0.688   3.393
 6586TIP3    H119722   5.956   0.783   3.391
 6586TIP3    H219723   5.927   0.663   3.305
 6587TIP3   OH219724   1.621   3.869   1.031
 6587TIP3    H119725   1.664   3.805   0.975
 6587TIP3    H219726   1.535   3.883   0.990
 6588TIP3   OH219727   2.752   5.327   1.610
 6588TIP3    H119728   2.820   5.294   1.551
 6588TIP3    H219729   2.793   5.330   1.696
 6589TIP3   OH219730   6.635   3.897   3.448
 6589TIP3    H119731   6.722   3.921   3.415
 6589TIP3    H219732   6.613   3.817   3.401
 6590TIP3   OH219733   6.229   2.567   5.037
 6590TIP3    H119734   6.162   2.501   5.058
 6590TIP3    H219735   6.296   2.554   5.104
 6591TIP3   OH219736   2.197   0.891   3.650
 6591TIP3    H119737   2.233   0.894   3.562
 6591TIP3    H219738   2.158   0.804   3.657
 6592TIP3   OH219739   3.987   1.990   2.707
 6592TIP3    H119740   4.038   1.919   2.745
 6592TIP3    H219741   4.015   2.068   2.755
 6593TIP3   OH219742   6.251   6.164   0.797
 6593TIP3    H119743   6.169   6.205   0.770
 6593TIP3    H219744   6.320   6.222   0.764
 6594TIP3   OH219745   5.949   1.373   3.923
 6594TIP3    H119746   5.975   1.389   4.014
 6594TIP3    H219747   5.967   1.456   3.878
 6595TIP3   OH219748   3.253   5.129   1.263
 6595TIP3    H119749   3.248   5.159   1.173
 6595TIP3    H219750   3.340   5.157   1.293
 6596TIP3   OH219751   1.142   2.342   0.093
 6596TIP3    H119752   1.148   2.248   0.077
 6596TIP3    H219753   1.223   2.364   0.137
 6597TIP3   OH219754   4.663   6.769   3.856
 6597TIP3    H119755   4.625   6.732   3.776
 6597TIP3    H219756   4.686   6.693   3.909
 6598TIP3   OH219757   6.173   2.094   3.181
 6598TIP3    H119758   6.203   2.034   3.113
 6598TIP3    H219759   6.124   2.038   3.242
 6599TIP3   OH219760   2.971   0.997   0.365
 6599TIP3    H119761   3.049   0.944   0.382
 6599TIP3    H219762   2.902   0.934   0.351
 6600TIP3   OH219763   6.770   5.501   0.908
 6600TIP3    H119764   6.862   5.512   0.934
 6600TIP3    H219765   6.756   5.407   0.908
 6601TIP3   OH219766   0.855   0.403   1.499
 6601TIP3    H119767   0.874   0.451   1.418
 6601TIP3    H219768   0.760   0.411   1.509
 6602TIP3   OH219769   0.221   6.378   3.564
 6602TIP3    H119770   0.312   6.389   3.538
 6602TIP3    H219771   0.176   6.456   3.532
 6603TIP3   OH219772   5.693   6.694   1.257
 6603TIP3    H119773   5.781   6.693   1.296
 6603TIP3    H219774   5.708   6.679   1.164
 6604TIP3   OH219775   2.851   4.688   5.573
 6604TIP3    H119776   2.779   4.640   5.615
 6604TIP3    H219777   2.811   4.770   5.545
 6605TIP3   OH219778   3.072   1.343   1.297
 6605TIP3    H119779   3.060   1.256   1.335
 6605TIP3    H219780   3.111   1.326   1.211
 6606TIP3   OH219781   4.783   2.288   4.006
 6606TIP3    H119782   4.717   2.223   3.984
 6606TIP3    H219783   4.735   2.352   4.059
 6607TIP3   OH219784   1.278   6.524   1.851
 6607TIP3    H119785   1.276   6.601   1.794
 6607TIP3    H219786   1.311   6.556   1.934
 6608TIP3   OH219787   2.384   2.959   1.429
 6608TIP3    H119788   2.431   3.042   1.424
 6608TIP3    H219789   2.438   2.899   1.378
 6609TIP3   OH219790   1.174   0.313   2.082
 6609TIP3    H119791   1.268   0.315   2.098
 6609TIP3    H219792   1.165   0.332   1.988
 6610TIP3   OH219793   5.016   5.587   4.155
 6610TIP3    H119794   4.928   5.578   4.121
 6610TIP3    H219795   5.069   5.528   4.101
 6611TIP3   OH219796   4.624   2.973   4.835
 6611TIP3    H119797   4.630   2.961   4.930
 6611TIP3    H219798   4.549   3.032   4.824
 6612TIP3   OH219799   4.162   2.712   2.061
 6612TIP3    H119800   4.069   2.694   2.048
 6612TIP3    H219801   4.204   2.686   1.979
 6613TIP3   OH219802   3.271   0.043   5.380
 6613TIP3    H119803   3.193   0.085   5.345
 6613TIP3    H219804   3.309   0.107   5.440
 6614TIP3   OH219805   5.287   6.809   2.724
 6614TIP3    H119806   5.243   6.788   2.807
 6614TIP3    H219807   5.311   6.724   2.688
 6615TIP3   OH219808   3.346   3.540   4.938
 6615TIP3    H119809   3.413   3.598   4.974
 6615TIP3    H219810   3.324   3.578   4.853
 6616TIP3   OH219811   6.134   5.792   4.535
 6616TIP3    H119812   6.168   5.704   4.519
 6616TIP3    H219813   6.192   5.828   4.603
 6617TIP3   OH219814   0.012   3.718   2.034
 6617TIP3    H119815   0.021   3.803   1.991
 6617TIP3    H219816   0.055   3.730   2.119
 6618TIP3   OH219817   5.491   3.107   3.863
 6618TIP3    H119818   5.550   3.132   3.934
 6618TIP3    H219819   5.536   3.035   3.819
 6619TIP3   OH219820   6.093   1.170   2.202
 6619TIP3    H119821   6.096   1.095   2.261
 6619TIP3    H219822   6.183   1.203   2.201
 6620TIP3   OH219823   3.537   2.499   2.815
 6620TIP3    H119824   3.567   2.492   2.725
 6620TIP3    H219825   3.445   2.524   2.808
 6621TIP3   OH219826   4.075   4.182   2.963
 6621TIP3    H119827   4.127   4.146   2.891
 6621TIP3    H219828   4.031   4.258   2.925
 6622TIP3   OH219829   6.689   0.037   4.859
 6622TIP3    H119830   6.771  -0.002   4.889
 6622TIP3    H219831   6.636   0.045   4.939
 6623TIP3   OH219832   0.198   2.176   0.859
 6623TIP3    H119833   0.256   2.251   0.871
 6623TIP3    H219834   0.198   2.132   0.944
 6624TIP3   OH219835   5.808   2.392   1.905
 6624TIP3    H119836   5.882   2.332   1.903
 6624TIP3    H219837   5.758   2.373   1.825
 6625TIP3   OH219838   1.673   1.063   2.006
 6625TIP3    H119839   1.646   1.063   2.098
 6625TIP3    H219840   1.728   1.140   1.997
 6626TIP3   OH219841   1.264   0.496   0.762
 6626TIP3    H119842   1.277   0.589   0.748
 6626TIP3    H219843   1.349   0.462   0.789
 6627TIP3   OH219844   4.353   2.426   1.433
 6627TIP3    H119845   4.402   2.458   1.357
 6627TIP3    H219846   4.306   2.349   1.402
 6628TIP3   OH219847   3.004   3.427   0.666
 6628TIP3    H119848   3.025   3.390   0.581
 6628TIP3    H219849   3.088   3.451   0.704
 6629TIP3   OH219850   1.497   2.532   0.704
 6629TIP3    H119851   1.417   2.535   0.651
 6629TIP3    H219852   1.568   2.538   0.639
 6630TIP3   OH219853   6.111   3.228   4.530
 6630TIP3    H119854   6.041   3.199   4.589
 6630TIP3    H219855   6.116   3.161   4.462
 6631TIP3   OH219856   5.260   0.394   4.430
 6631TIP3    H119857   5.247   0.440   4.513
 6631TIP3    H219858   5.172   0.389   4.392
 6632TIP3   OH219859   1.478   4.580   1.857
 6632TIP3    H119860   1.409   4.519   1.829
 6632TIP3    H219861   1.480   4.647   1.789
 6633TIP3   OH219862   4.704   0.497   5.096
 6633TIP3    H119863   4.686   0.429   5.160
 6633TIP3    H219864   4.784   0.468   5.052
 6634TIP3   OH219865   1.122   3.851   1.207
 6634TIP3    H119866   1.031   3.821   1.201
 6634TIP3    H219867   1.173   3.770   1.211
 6635TIP3   OH219868   3.451   4.676   1.269
 6635TIP3    H119869   3.467   4.743   1.336
 6635TIP3    H219870   3.358   4.688   1.246
 6636TIP3   OH219871   2.342   1.655   5.093
 6636TIP3    H119872   2.371   1.746   5.088
 6636TIP3    H219873   2.422   1.603   5.087
 6637TIP3   OH219874   2.495   6.643   3.366
 6637TIP3    H119875   2.521   6.598   3.446
 6637TIP3    H219876   2.425   6.702   3.394
 6638TIP3   OH219877   1.323   4.944   1.547
 6638TIP3    H119878   1.361   5.018   1.499
 6638TIP3    H219879   1.230   4.964   1.552
 6639TIP3   OH219880   6.459   3.682   2.604
 6639TIP3    H119881   6.458   3.639   2.519
 6639TIP3    H219882   6.527   3.750   2.595
 6640TIP3   OH219883   5.187   4.159   4.013
 6640TIP3    H119884   5.107   4.108   4.028
 6640TIP3    H219885   5.210   4.142   3.922
 6641TIP3   OH219886   6.146   2.887   5.651
 6641TIP3    H119887   6.232   2.927   5.641
 6641TIP3    H219888   6.136   2.874   5.746
 6642TIP3   OH219889   6.873   2.930   4.218
 6642TIP3    H119890   6.792   2.914   4.170
 6642TIP3    H219891   6.879   2.856   4.279
 6643TIP3   OH219892   1.084   4.311   1.293
 6643TIP3    H119893   1.175   4.339   1.280
 6643TIP3    H219894   1.091   4.230   1.345
 6644TIP3   OH219895   2.763   3.563   1.396
 6644TIP3    H119896   2.813   3.520   1.327
 6644TIP3    H219897   2.827   3.581   1.465
 6645TIP3   OH219898   0.315   0.293   0.808
 6645TIP3    H119899   0.368   0.373   0.809
 6645TIP3    H219900   0.377   0.223   0.827
 6646TIP3   OH219901   0.896   0.571   4.621
 6646TIP3    H119902   0.826   0.563   4.686
 6646TIP3    H219903   0.957   0.500   4.642
 6647TIP3   OH219904   2.878   4.400   0.817
 6647TIP3    H119905   2.847   4.484   0.783
 6647TIP3    H219906   2.921   4.358   0.742
 6648TIP3   OH219907   5.543   1.092   1.555
 6648TIP3    H119908   5.567   1.000   1.553
 6648TIP3    H219909   5.457   1.096   1.512
 6649TIP3   OH219910   2.133   5.585   1.741
 6649TIP3    H119911   2.171   5.561   1.825
 6649TIP3    H219912   2.134   5.504   1.690
 6650TIP3   OH219913   5.389   3.693   2.865
 6650TIP3    H119914   5.388   3.665   2.773
 6650TIP3    H219915   5.388   3.611   2.914
 6651TIP3   OH219916   6.082   3.487   2.218
 6651TIP3    H119917   6.070   3.459   2.127
 6651TIP3    H219918   6.134   3.567   2.211
 6652TIP3   OH219919   4.906   2.459   1.911
 6652TIP3    H119920   4.918   2.476   1.818
 6652TIP3    H219921   4.899   2.364   1.918
 6653TIP3   OH219922   0.520   1.608   3.379
 6653TIP3    H119923   0.458   1.672   3.413
 6653TIP3    H219924   0.494   1.594   3.288
 6654TIP3   OH219925   2.863   1.052   3.196
 6654TIP3    H119926   2.935   0.989   3.190
 6654TIP3    H219927   2.785   1.001   3.178
 6655TIP3   OH219928   3.217   1.689   3.328
 6655TIP3    H119929   3.186   1.606   3.365
 6655TIP3    H219930   3.243   1.667   3.239
 6656TIP3   OH219931   2.479   1.197   5.115
 6656TIP3    H119932   2.510   1.283   5.143
 6656TIP3    H219933   2.557   1.142   5.118
 6657TIP3   OH219934   0.197   4.325   3.568
 6657TIP3    H119935   0.202   4.272   3.488
 6657TIP3    H219936   0.214   4.264   3.639
 6658TIP3   OH219937   3.045   5.243   0.945
 6658TIP3    H119938   3.118   5.302   0.930
 6658TIP3    H219939   3.085   5.166   0.986
 6659TIP3   OH219940   3.938   0.676   0.627
 6659TIP3    H119941   3.882   0.707   0.698
 6659TIP3    H219942   4.007   0.627   0.672
 6660TIP3   OH219943   4.513   5.587   1.026
 6660TIP3    H119944   4.596   5.603   0.980
 6660TIP3    H219945   4.445   5.604   0.961
 6661TIP3   OH219946   0.760   3.717   4.424
 6661TIP3    H119947   0.671   3.707   4.458
 6661TIP3    H219948   0.773   3.812   4.420
 6662TIP3   OH219949   6.142   6.193   4.304
 6662TIP3    H119950   6.148   6.288   4.297
 6662TIP3    H219951   6.199   6.170   4.378
 6663TIP3   OH219952   5.728   4.311   1.974
 6663TIP3    H119953   5.787   4.249   2.017
 6663TIP3    H219954   5.643   4.293   2.014
 6664TIP3   OH219955   6.553   0.511  -0.002
 6664TIP3    H119956   6.543   0.451   0.072
 6664TIP3    H219957   6.470   0.559  -0.006
 6665TIP3   OH219958   0.709   6.722   1.523
 6665TIP3    H119959   0.764   6.711   1.601
 6665TIP3    H219960   0.699   6.817   1.514
 6666TIP3   OH219961   2.098   2.588   2.707
 6666TIP3    H119962   2.014   2.609   2.667
 6666TIP3    H219963   2.158   2.654   2.673
 6667TIP3   OH219964   2.728   3.179  -0.008
 6667TIP3    H119965   2.672   3.102   0.000
 6667TIP3    H219966   2.793   3.168   0.062
 6668TIP3   OH219967   1.334   4.485   2.635
 6668TIP3    H119968   1.330   4.577   2.662
 6668TIP3    H219969   1.381   4.441   2.706
 6669TIP3   OH219970   2.905   3.158   1.020
 6669TIP3    H119971   2.878   3.170   0.929
 6669TIP3    H219972   2.901   3.064   1.035
 6670TIP3   OH219973   6.932   4.242   1.171
 6670TIP3    H119974   6.909   4.268   1.082
 6670TIP3    H219975   6.850   4.248   1.220
 6671TIP3   OH219976   6.515   2.800   0.836
 6671TIP3    H119977   6.560   2.772   0.916
 6671TIP3    H219978   6.578   2.856   0.791
 6672TIP3   OH219979   6.458   1.127   4.394
 6672TIP3    H119980   6.416   1.203   4.353
 6672TIP3    H219981   6.506   1.164   4.468
 6673TIP3   OH219982   1.110   4.071   0.635
 6673TIP3    H119983   1.177   4.079   0.703
 6673TIP3    H219984   1.094   4.161   0.607
 6674TIP3   OH219985   5.679   1.956   3.408
 6674TIP3    H119986   5.695   2.049   3.395
 6674TIP3    H219987   5.712   1.914   3.329
 6675TIP3   OH219988   0.496   1.950   3.786
 6675TIP3    H119989   0.528   2.032   3.748
 6675TIP3    H219990   0.417   1.929   3.735
 6676TIP3   OH219991   5.475   4.343   5.211
 6676TIP3    H119992   5.428   4.413   5.166
 6676TIP3    H219993   5.507   4.383   5.291
 6677TIP3   OH219994   1.784   6.491   5.391
 6677TIP3    H119995   1.709   6.550   5.385
 6677TIP3    H219996   1.821   6.508   5.477
 6678TIP3   OH219997   2.893   0.794   1.719
 6678TIP3    H119998   2.978   0.824   1.751
 6678TIP3    H219999   2.875   0.849   1.643
 6679TIP3   OH220000   0.761   3.952   1.398
 6679TIP3    H120001   0.710   4.028   1.424
 6679TIP3    H220002   0.700   3.879   1.404
 6680TIP3   OH220003   5.508   1.305   3.446
 6680TIP3    H120004   5.583   1.359   3.471
 6680TIP3    H220005   5.543   1.244   3.381
 6681TIP3   OH220006   1.135   5.766   2.296
 6681TIP3    H120007   1.103   5.814   2.219
 6681TIP3    H220008   1.217   5.727   2.266
 6682TIP3   OH220009   2.493   5.256   4.333
 6682TIP3    H120010   2.444   5.272   4.252
 6682TIP3    H220011   2.461   5.172   4.364
 6683TIP3   OH220012   5.737   5.023   5.094
 6683TIP3    H120013   5.692   5.094   5.139
 6683TIP3    H220014   5.827   5.053   5.085
 6684TIP3   OH220015   0.590   2.266   2.891
 6684TIP3    H120016   0.661   2.255   2.955
 6684TIP3    H220017   0.512   2.233   2.937
 6685TIP3   OH220018   3.581   2.912   2.747
 6685TIP3    H120019   3.534   2.989   2.716
 6685TIP3    H220020   3.563   2.845   2.682
 6686TIP3   OH220021   5.962   5.157   1.106
 6686TIP3    H120022   5.906   5.101   1.160
 6686TIP3    H220023   5.906   5.230   1.080
 6687TIP3   OH220024   6.670   1.319   2.405
 6687TIP3    H120025   6.587   1.315   2.357
 6687TIP3    H220026   6.654   1.268   2.484
 6688TIP3   OH220027   1.358   4.133   2.783
 6688TIP3    H120028   1.280   4.171   2.823
 6688TIP3    H220029   1.429   4.193   2.808
 6689TIP3   OH220030   6.801   1.262   0.646
 6689TIP3    H120031   6.717   1.302   0.625
 6689TIP3    H220032   6.792   1.170   0.619
 6690TIP3   OH220033   5.871   4.454   5.784
 6690TIP3    H120034   5.804   4.399   5.825
 6690TIP3    H220035   5.868   4.432   5.691
 6691TIP3   OH220036   1.849   1.253   3.309
 6691TIP3    H120037   1.881   1.162   3.306
 6691TIP3    H220038   1.926   1.304   3.334
 6692TIP3   OH220039   0.451   6.251   1.165
 6692TIP3    H120040   0.545   6.268   1.169
 6692TIP3    H220041   0.419   6.275   1.252
 6693TIP3   OH220042   7.119   0.040   2.293
 6693TIP3    H120043   7.114   0.128   2.331
 6693TIP3    H220044   7.124  -0.018   2.369
 6694TIP3   OH220045   2.088   1.514   4.221
 6694TIP3    H120046   2.057   1.604   4.217
 6694TIP3    H220047   2.095   1.486   4.130
 6695TIP3   OH220048   3.138   2.702   3.046
 6695TIP3    H120049   3.080   2.773   3.073
 6695TIP3    H220050   3.165   2.725   2.957
 6696TIP3   OH220051   0.533   5.661   4.106
 6696TIP3    H120052   0.516   5.720   4.033
 6696TIP3    H220053   0.478   5.585   4.090
 6697TIP3   OH220054   5.655   1.683   1.099
 6697TIP3    H120055   5.658   1.742   1.174
 6697TIP3    H220056   5.747   1.661   1.082
 6698TIP3   OH220057   1.024   1.664   2.129
 6698TIP3    H120058   1.049   1.755   2.111
 6698TIP3    H220059   0.973   1.638   2.053
 6699TIP3   OH220060   4.530   0.687   2.261
 6699TIP3    H120061   4.483   0.767   2.240
 6699TIP3    H220062   4.557   0.652   2.176
 6700TIP3   OH220063   0.101   6.397   5.346
 6700TIP3    H120064   0.184   6.370   5.385
 6700TIP3    H220065   0.046   6.319   5.347
 6701TIP3   OH220066   5.208   1.870   2.878
 6701TIP3    H120067   5.147   1.940   2.899
 6701TIP3    H220068   5.242   1.892   2.791
 6702TIP3   OH220069   7.195   5.645   2.014
 6702TIP3    H120070   7.109   5.670   2.047
 6702TIP3    H220071   7.181   5.559   1.974
 6703TIP3   OH220072   4.454   5.000   3.286
 6703TIP3    H120073   4.369   5.023   3.324
 6703TIP3    H220074   4.439   4.918   3.240
 6704TIP3   OH220075   2.813   3.129   5.058
 6704TIP3    H120076   2.894   3.153   5.014
 6704TIP3    H220077   2.767   3.212   5.071
 6705TIP3   OH220078   3.953   5.819   2.413
 6705TIP3    H120079   3.953   5.726   2.391
 6705TIP3    H220080   4.038   5.851   2.383
 6706TIP3   OH220081   4.296   3.289   5.088
 6706TIP3    H120082   4.261   3.372   5.058
 6706TIP3    H220083   4.385   3.310   5.117
 6707TIP3   OH220084   5.420   5.303   2.237
 6707TIP3    H120085   5.361   5.352   2.179
 6707TIP3    H220086   5.380   5.310   2.324
 6708TIP3   OH220087   2.061   0.084   5.710
 6708TIP3    H120088   1.998   0.059   5.778
 6708TIP3    H220089   2.133   0.022   5.719
 6709TIP3   OH220090   0.814   4.681   2.573
 6709TIP3    H120091   0.859   4.721   2.498
 6709TIP3    H220092   0.883   4.670   2.638
 6710TIP3   OH220093   0.240   5.580   4.384
 6710TIP3    H120094   0.327   5.570   4.423
 6710TIP3    H220095   0.182   5.600   4.458
 6711TIP3   OH220096   4.410   3.493   3.905
 6711TIP3    H120097   4.315   3.482   3.906
 6711TIP3    H220098   4.426   3.569   3.961
 6712TIP3   OH220099   4.006   4.542   5.471
 6712TIP3    H120100   3.949   4.617   5.490
 6712TIP3    H220101   4.083   4.580   5.431
 6713TIP3   OH220102   0.065   6.515   0.033
 6713TIP3    H120103   0.113   6.474   0.104
 6713TIP3    H220104   0.058   6.607   0.057
 6714TIP3   OH220105   1.087   3.381   4.745
 6714TIP3    H120106   1.114   3.289   4.745
 6714TIP3    H220107   1.043   3.394   4.661
 6715TIP3   OH220108   1.203   5.676   4.972
 6715TIP3    H120109   1.245   5.590   4.967
 6715TIP3    H220110   1.194   5.704   4.881
 6716TIP3   OH220111   4.918   1.335   3.300
 6716TIP3    H120112   4.989   1.303   3.244
 6716TIP3    H220113   4.936   1.296   3.385
 6717TIP3   OH220114   7.171   1.637   1.581
 6717TIP3    H120115   7.247   1.695   1.577
 6717TIP3    H220116   7.160   1.618   1.674
 6718TIP3   OH220117   3.091   1.604   2.168
 6718TIP3    H120118   3.049   1.667   2.110
 6718TIP3    H220119   3.129   1.658   2.238
 6719TIP3   OH220120   2.830   2.295   1.183
 6719TIP3    H120121   2.766   2.339   1.126
 6719TIP3    H220122   2.895   2.363   1.202
 6720TIP3   OH220123  -0.010   6.114   4.564
 6720TIP3    H120124  -0.074   6.071   4.507
 6720TIP3    H220125   0.038   6.173   4.506
 6721TIP3   OH220126   5.311   0.476   2.130
 6721TIP3    H120127   5.233   0.431   2.096
 6721TIP3    H220128   5.368   0.485   2.054
 6722TIP3   OH220129   0.751   5.059   4.126
 6722TIP3    H120130   0.820   5.035   4.064
 6722TIP3    H220131   0.704   5.130   4.084
 6723TIP3   OH220132   4.997   2.089   0.228
 6723TIP3    H120133   4.972   2.139   0.150
 6723TIP3    H220134   4.967   2.000   0.210
 6724TIP3   OH220135   2.233   0.066   3.419
 6724TIP3    H120136   2.182  -0.009   3.449
 6724TIP3    H220137   2.214   0.071   3.325
 6725TIP3   OH220138   4.606   6.557   1.185
 6725TIP3    H120139   4.550   6.482   1.169
 6725TIP3    H220140   4.551   6.618   1.234
 6726TIP3   OH220141   4.623   1.156   0.429
 6726TIP3    H120142   4.543   1.146   0.479
 6726TIP3    H220143   4.601   1.218   0.359
 6727TIP3   OH220144   1.391   4.731   0.718
 6727TIP3    H120145   1.411   4.739   0.811
 6727TIP3    H220146   1.368   4.639   0.705
 6728TIP3   OH220147   7.049   4.435   5.694
 6728TIP3    H120148   7.043   4.376   5.769
 6728TIP3    H220149   6.965   4.480   5.691
 6729TIP3   OH220150   2.346   2.650   3.028
 6729TIP3    H120151   2.251   2.654   3.025
 6729TIP3    H220152   2.367   2.564   2.991
 6730TIP3   OH220153   3.478   6.556   5.068
 6730TIP3    H120154   3.454   6.557   5.161
 6730TIP3    H220155   3.411   6.501   5.027
 6731TIP3   OH220156   2.307   1.074   2.936
 6731TIP3    H120157   2.253   1.145   2.899
 6731TIP3    H220158   2.247   1.026   2.993
 6732TIP3   OH220159   2.235   3.601   3.999
 6732TIP3    H120160   2.271   3.555   3.924
 6732TIP3    H220161   2.140   3.590   3.991
 6733TIP3   OH220162   1.018   6.211   5.459
 6733TIP3    H120163   0.929   6.175   5.451
 6733TIP3    H220164   1.043   6.192   5.549
 6734TIP3   OH220165   0.496   5.026   0.521
 6734TIP3    H120166   0.416   5.054   0.565
 6734TIP3    H220167   0.552   5.104   0.523
 6735TIP3   OH220168   5.657   4.053   2.899
 6735TIP3    H120169   5.590   4.026   2.962
 6735TIP3    H220170   5.705   4.123   2.945
 6736TIP3   OH220171   6.840   6.524   4.123
 6736TIP3    H120172   6.926   6.539   4.083
 6736TIP3    H220173   6.829   6.596   4.186
 6737TIP3   OH220174   1.830   6.431   0.425
 6737TIP3    H120175   1.744   6.426   0.467
 6737TIP3    H220176   1.819   6.387   0.341
 6738TIP3   OH220177   2.563   2.099   4.823
 6738TIP3    H120178   2.575   2.142   4.907
 6738TIP3    H220179   2.596   2.161   4.758
 6739TIP3   OH220180   0.352   1.834   3.474
 6739TIP3    H120181   0.278   1.891   3.496
 6739TIP3    H220182   0.429   1.888   3.487
 6740TIP3   OH220183   4.061   6.267   1.825
 6740TIP3    H120184   4.068   6.210   1.902
 6740TIP3    H220185   4.066   6.355   1.860
 6741TIP3   OH220186   0.421   4.377   2.273
 6741TIP3    H120187   0.480   4.372   2.198
 6741TIP3    H220188   0.478   4.363   2.349
 6742TIP3   OH220189   5.053   1.756   4.134
 6742TIP3    H120190   5.146   1.756   4.113
 6742TIP3    H220191   5.016   1.685   4.083
 6743TIP3   OH220192   6.662   0.954   3.282
 6743TIP3    H120193   6.697   0.910   3.360
 6743TIP3    H220194   6.608   1.025   3.316
 6744TIP3   OH220195   7.029   2.076   2.832
 6744TIP3    H120196   7.032   2.172   2.841
 6744TIP3    H220197   7.108   2.055   2.783
 6745TIP3   OH220198   6.568   3.807   4.573
 6745TIP3    H120199   6.590   3.839   4.660
 6745TIP3    H220200   6.485   3.759   4.585
 6746TIP3   OH220201   6.603   5.608   5.664
 6746TIP3    H120202   6.523   5.591   5.614
 6746TIP3    H220203   6.652   5.670   5.610
 6747TIP3   OH220204   4.261   3.661   2.032
 6747TIP3    H120205   4.174   3.625   2.050
 6747TIP3    H220206   4.256   3.752   2.060
 6748TIP3   OH220207   3.905   5.017   3.255
 6748TIP3    H120208   3.889   5.106   3.288
 6748TIP3    H220209   3.991   4.993   3.288
 6749TIP3   OH220210   2.508   5.891   0.259
 6749TIP3    H120211   2.515   5.967   0.316
 6749TIP3    H220212   2.534   5.923   0.172
 6750TIP3   OH220213   4.281   2.178   0.763
 6750TIP3    H120214   4.371   2.191   0.733
 6750TIP3    H220215   4.281   2.091   0.802
 6751TIP3   OH220216   4.935   4.524   1.424
 6751TIP3    H120217   4.924   4.443   1.374
 6751TIP3    H220218   4.991   4.499   1.497
 6752TIP3   OH220219   7.128   5.188   0.141
 6752TIP3    H120220   7.092   5.101   0.125
 6752TIP3    H220221   7.222   5.179   0.125
 6753TIP3   OH220222   3.958   5.339   2.609
 6753TIP3    H120223   3.998   5.274   2.668
 6753TIP3    H220224   4.008   5.331   2.528
 6754TIP3   OH220225   4.751   3.252   4.807
 6754TIP3    H120226   4.669   3.291   4.777
 6754TIP3    H220227   4.738   3.158   4.799
 6755TIP3   OH220228   6.509   0.365   3.110
 6755TIP3    H120229   6.429   0.387   3.061
 6755TIP3    H220230   6.572   0.433   3.084
 6756TIP3   OH220231   5.762   2.390   2.656
 6756TIP3    H120232   5.808   2.406   2.573
 6756TIP3    H220233   5.824   2.341   2.709
 6757TIP3   OH220234   0.480   4.842   1.983
 6757TIP3    H120235   0.476   4.937   1.996
 6757TIP3    H220236   0.393   4.811   2.008
 6758TIP3   OH220237   3.840   5.185   4.724
 6758TIP3    H120238   3.794   5.173   4.807
 6758TIP3    H220239   3.922   5.229   4.747
 6759TIP3   OH220240   1.603   4.843   1.978
 6759TIP3    H120241   1.525   4.815   1.931
 6759TIP3    H220242   1.668   4.776   1.959
 6760TIP3   OH220243   0.023   3.301   3.798
 6760TIP3    H120244   0.012   3.300   3.703
 6760TIP3    H220245   0.063   3.386   3.816
 6761TIP3   OH220246   4.241   3.096   2.970
 6761TIP3    H120247   4.213   3.175   3.016
 6761TIP3    H220248   4.337   3.099   2.973
 6762TIP3   OH220249   2.219   0.390   3.008
 6762TIP3    H120250   2.205   0.457   2.941
 6762TIP3    H220251   2.185   0.310   2.969
 6763TIP3   OH220252   1.489   4.304   3.104
 6763TIP3    H120253   1.415   4.256   3.140
 6763TIP3    H220254   1.499   4.379   3.162
 6764TIP3   OH220255   3.635   1.513   5.100
 6764TIP3    H120256   3.722   1.554   5.102
 6764TIP3    H220257   3.593   1.544   5.180
 6765TIP3   OH220258   3.557   1.662   2.014
 6765TIP3    H120259   3.486   1.715   1.977
 6765TIP3    H220260   3.628   1.725   2.030
 6766TIP3   OH220261   1.429   2.568   3.113
 6766TIP3    H120262   1.453   2.585   3.022
 6766TIP3    H220263   1.471   2.484   3.134
 6767TIP3   OH220264   2.603   3.412   1.857
 6767TIP3    H120265   2.575   3.371   1.775
 6767TIP3    H220266   2.631   3.500   1.831
 6768TIP3   OH220267   4.639   1.541   5.864
 6768TIP3    H120268   4.597   1.612   5.816
 6768TIP3    H220269   4.717   1.521   5.813
 6769TIP3   OH220270   6.724   0.687   3.377
 6769TIP3    H120271   6.791   0.706   3.442
 6769TIP3    H220272   6.649   0.654   3.428
 6770TIP3   OH220273   3.325   6.334   5.257
 6770TIP3    H120274   3.388   6.278   5.212
 6770TIP3    H220275   3.240   6.308   5.220
 6771TIP3   OH220276   4.185   5.459   2.761
 6771TIP3    H120277   4.121   5.446   2.690
 6771TIP3    H220278   4.164   5.546   2.796
 6772TIP3   OH220279   5.808   6.307   0.988
 6772TIP3    H120280   5.742   6.334   1.053
 6772TIP3    H220281   5.762   6.247   0.931
 6773TIP3   OH220282   4.340   0.334   3.270
 6773TIP3    H120283   4.261   0.361   3.222
 6773TIP3    H220284   4.355   0.405   3.333
 6774TIP3   OH220285   5.473   4.716   4.039
 6774TIP3    H120286   5.488   4.778   3.968
 6774TIP3    H220287   5.556   4.668   4.047
 6775TIP3   OH220288   6.000   1.955   5.283
 6775TIP3    H120289   6.062   1.914   5.223
 6775TIP3    H220290   6.028   1.926   5.370
 6776TIP3   OH220291   1.226   4.361   0.418
 6776TIP3    H120292   1.237   4.357   0.323
 6776TIP3    H220293   1.136   4.335   0.433
 6777TIP3   OH220294   1.918   5.944   0.027
 6777TIP3    H120295   1.990   5.958   0.089
 6777TIP3    H220296   1.933   6.009  -0.042
 6778TIP3   OH220297   0.117   1.255   3.445
 6778TIP3    H120298   0.142   1.297   3.363
 6778TIP3    H220299   0.051   1.314   3.483
 6779TIP3   OH220300   0.063   5.636   4.863
 6779TIP3    H120301   0.111   5.711   4.900
 6779TIP3    H220302   0.114   5.560   4.890
 6780TIP3   OH220303   2.584   2.892   1.817
 6780TIP3    H120304   2.561   2.974   1.861
 6780TIP3    H220305   2.567   2.825   1.884
 6781TIP3   OH220306   2.872   3.934   1.859
 6781TIP3    H120307   2.852   4.008   1.916
 6781TIP3    H220308   2.851   3.965   1.771
 6782TIP3   OH220309   4.752   2.826   2.188
 6782TIP3    H120310   4.728   2.907   2.233
 6782TIP3    H220311   4.811   2.781   2.248
 6783TIP3   OH220312   5.468   0.542   4.822
 6783TIP3    H120313   5.525   0.618   4.830
 6783TIP3    H220314   5.502   0.494   4.747
 6784TIP3   OH220315   5.574   0.825   1.630
 6784TIP3    H120316   5.588   0.782   1.714
 6784TIP3    H220317   5.630   0.777   1.569
 6785TIP3   OH220318   5.319   6.298   3.756
 6785TIP3    H120319   5.286   6.383   3.786
 6785TIP3    H220320   5.414   6.310   3.750
 6786TIP3   OH220321   0.896   0.134   3.305
 6786TIP3    H120322   0.919   0.111   3.395
 6786TIP3    H220323   0.811   0.179   3.313
 6787TIP3   OH220324   4.834   5.401   3.775
 6787TIP3    H120325   4.782   5.328   3.808
 6787TIP3    H220326   4.773   5.449   3.719
 6788TIP3   OH220327   0.630   1.397   2.808
 6788TIP3    H120328   0.633   1.492   2.801
 6788TIP3    H220329   0.682   1.376   2.885
 6789TIP3   OH220330   3.765   6.236   2.663
 6789TIP3    H120331   3.736   6.147   2.685
 6789TIP3    H220332   3.760   6.284   2.746
 6790TIP3   OH220333   2.306   0.314   5.005
 6790TIP3    H120334   2.335   0.244   5.063
 6790TIP3    H220335   2.250   0.369   5.060
 6791TIP3   OH220336   2.730   2.353   1.719
 6791TIP3    H120337   2.752   2.262   1.739
 6791TIP3    H220338   2.640   2.363   1.751
 6792TIP3   OH220339   2.050   5.128   4.380
 6792TIP3    H120340   2.017   5.206   4.424
 6792TIP3    H220341   1.989   5.058   4.404
 6793TIP3   OH220342   3.039   4.880   1.855
 6793TIP3    H120343   3.123   4.866   1.810
 6793TIP3    H220344   2.974   4.856   1.789
 6794TIP3   OH220345   6.132   4.583   5.522
 6794TIP3    H120346   6.173   4.663   5.555
 6794TIP3    H220347   6.150   4.517   5.590
 6795TIP3   OH220348   6.043   0.201   4.113
 6795TIP3    H120349   6.006   0.198   4.201
 6795TIP3    H220350   6.115   0.139   4.115
 6796TIP3   OH220351   5.411   0.884   3.063
 6796TIP3    H120352   5.373   0.898   3.150
 6796TIP3    H220353   5.343   0.914   3.002
 6797TIP3   OH220354   5.222   6.563   4.780
 6797TIP3    H120355   5.254   6.615   4.707
 6797TIP3    H220356   5.188   6.627   4.842
 6798TIP3   OH220357   6.949   6.066   5.094
 6798TIP3    H120358   6.923   6.098   5.180
 6798TIP3    H220359   6.956   6.145   5.040
 6799TIP3   OH220360   4.315   6.671   3.515
 6799TIP3    H120361   4.331   6.587   3.558
 6799TIP3    H220362   4.317   6.735   3.587
 6800TIP3   OH220363   6.214   1.646   5.363
 6800TIP3    H120364   6.156   1.625   5.437
 6800TIP3    H220365   6.273   1.571   5.357
 6801TIP3   OH220366   2.996   2.391   2.079
 6801TIP3    H120367   2.903   2.382   2.098
 6801TIP3    H220368   2.999   2.430   1.991
 6802TIP3   OH220369   2.756   3.460   5.779
 6802TIP3    H120370   2.720   3.381   5.819
 6802TIP3    H220371   2.795   3.508   5.852
 6803TIP3   OH220372   0.614   4.225   2.459
 6803TIP3    H120373   0.682   4.191   2.518
 6803TIP3    H220374   0.639   4.192   2.372
 6804TIP3   OH220375   6.809   4.163   4.489
 6804TIP3    H120376   6.835   4.190   4.401
 6804TIP3    H220377   6.729   4.112   4.476
 6805TIP3   OH220378   2.628   5.841   3.780
 6805TIP3    H120379   2.626   5.861   3.686
 6805TIP3    H220380   2.573   5.909   3.820
 6806TIP3   OH220381   0.746   1.369   2.558
 6806TIP3    H120382   0.778   1.282   2.535
 6806TIP3    H220383   0.684   1.354   2.630
 6807TIP3   OH220384   3.391   3.670   4.663
 6807TIP3    H120385   3.453   3.721   4.611
 6807TIP3    H220386   3.341   3.736   4.712
 6808TIP3   OH220387   4.102   0.715   0.228
 6808TIP3    H120388   4.156   0.757   0.161
 6808TIP3    H220389   4.158   0.646   0.264
 6809TIP3   OH220390   2.325   1.021   5.935
 6809TIP3    H120391   2.388   0.949   5.943
 6809TIP3    H220392   2.312   1.031   5.841
 6810TIP3   OH220393   1.030   2.655   0.475
 6810TIP3    H120394   1.052   2.726   0.414
 6810TIP3    H220395   1.000   2.584   0.418
 6811TIP3   OH220396   4.811   2.212   2.211
 6811TIP3    H120397   4.719   2.189   2.226
 6811TIP3    H220398   4.823   2.207   2.116
 6812TIP3   OH220399   5.848   0.157   0.249
 6812TIP3    H120400   5.884   0.233   0.294
 6812TIP3    H220401   5.757   0.153   0.278
 6813TIP3   OH220402   7.174   6.050   1.771
 6813TIP3    H120403   7.089   6.091   1.787
 6813TIP3    H220404   7.215   6.106   1.705
 6814TIP3   OH220405   1.822   1.598   1.352
 6814TIP3    H120406   1.891   1.572   1.412
 6814TIP3    H220407   1.799   1.518   1.306
 6815TIP3   OH220408   3.299   0.713   4.088
 6815TIP3    H120409   3.330   0.797   4.123
 6815TIP3    H220410   3.208   0.730   4.063
 6816TIP3   OH220411   4.497   5.860   2.644
 6816TIP3    H120412   4.427   5.882   2.705
 6816TIP3    H220413   4.481   5.768   2.621
 6817TIP3   OH220414   5.059   1.824   1.689
 6817TIP3    H120415   5.046   1.740   1.733
 6817TIP3    H220416   5.153   1.840   1.697
 6818TIP3   OH220417   3.510   1.766   4.923
 6818TIP3    H120418   3.442   1.833   4.923
 6818TIP3    H220419   3.559   1.782   5.004
 6819TIP3   OH220420   0.662   4.309   4.541
 6819TIP3    H120421   0.753   4.324   4.513
 6819TIP3    H220422   0.633   4.235   4.488
 6820TIP3   OH220423   0.040   3.214   1.589
 6820TIP3    H120424  -0.008   3.296   1.579
 6820TIP3    H220425   0.105   3.216   1.518
 6821TIP3   OH220426   1.658   5.801   3.673
 6821TIP3    H120427   1.695   5.718   3.641
 6821TIP3    H220428   1.581   5.775   3.724
 6822TIP3   OH220429   1.493   1.852   3.321
 6822TIP3    H120430   1.402   1.881   3.314
 6822TIP3    H220431   1.535   1.919   3.375
 6823TIP3   OH220432   0.364   2.364   3.540
 6823TIP3    H120433   0.434   2.407   3.491
 6823TIP3    H220434   0.345   2.424   3.613
 6824TIP3   OH220435   3.956   5.994   1.307
 6824TIP3    H120436   3.934   5.958   1.221
 6824TIP3    H220437   3.874   5.988   1.358
 6825TIP3   OH220438   6.043   6.335   0.737
 6825TIP3    H120439   6.028   6.409   0.678
 6825TIP3    H220440   5.955   6.304   0.759
 6826TIP3   OH220441   2.393   0.721   1.470
 6826TIP3    H120442   2.309   0.676   1.480
 6826TIP3    H220443   2.421   0.739   1.560
 6827TIP3   OH220444   5.704   3.249   1.172
 6827TIP3    H120445   5.785   3.298   1.154
 6827TIP3    H220446   5.729   3.157   1.160
 6828TIP3   OH220447   5.025   6.644   1.372
 6828TIP3    H120448   5.048   6.719   1.427
 6828TIP3    H220449   5.076   6.572   1.409
 6829TIP3   OH220450   3.878   5.754   2.074
 6829TIP3    H120451   3.875   5.678   2.132
 6829TIP3    H220452   3.833   5.823   2.123
 6830TIP3   OH220453   1.254   1.613   0.936
 6830TIP3    H120454   1.192   1.549   0.902
 6830TIP3    H220455   1.331   1.561   0.960
 6831TIP3   OH220456   5.768   6.810   4.522
 6831TIP3    H120457   5.738   6.740   4.463
 6831TIP3    H220458   5.804   6.877   4.464
 6832TIP3   OH220459   2.248   6.203   3.913
 6832TIP3    H120460   2.168   6.160   3.942
 6832TIP3    H220461   2.261   6.275   3.974
 6833TIP3   OH220462   3.425   4.226   4.728
 6833TIP3    H120463   3.405   4.243   4.821
 6833TIP3    H220464   3.345   4.252   4.682
 6834TIP3   OH220465   5.641   3.737   3.811
 6834TIP3    H120466   5.573   3.726   3.878
 6834TIP3    H220467   5.712   3.782   3.856
 6835TIP3   OH220468   2.888   4.688   0.791
 6835TIP3    H120469   2.833   4.738   0.729
 6835TIP3    H220470   2.972   4.679   0.746
 6836TIP3   OH220471   3.881   4.323   0.785
 6836TIP3    H120472   3.864   4.247   0.728
 6836TIP3    H220473   3.890   4.396   0.725
 6837TIP3   OH220474   0.657   6.311   0.672
 6837TIP3    H120475   0.632   6.224   0.641
 6837TIP3    H220476   0.736   6.333   0.622
 6838TIP3   OH220477   3.249   5.471   1.463
 6838TIP3    H120478   3.175   5.417   1.436
 6838TIP3    H220479   3.316   5.409   1.491
 6839TIP3   OH220480   1.591   5.951   0.247
 6839TIP3    H120481   1.496   5.951   0.239
 6839TIP3    H220482   1.622   5.918   0.163
 6840TIP3   OH220483   5.536   4.925   5.288
 6840TIP3    H120484   5.595   4.862   5.248
 6840TIP3    H220485   5.587   5.006   5.294
 6841TIP3   OH220486   3.268   2.803   1.900
 6841TIP3    H120487   3.185   2.851   1.893
 6841TIP3    H220488   3.263   2.737   1.832
 6842TIP3   OH220489   4.894   0.285   1.967
 6842TIP3    H120490   4.925   0.357   2.021
 6842TIP3    H220491   4.871   0.216   2.029
 6843TIP3   OH220492   3.612   1.200   1.761
 6843TIP3    H120493   3.586   1.291   1.751
 6843TIP3    H220494   3.566   1.153   1.691
 6844TIP3   OH220495   5.601   3.676   3.362
 6844TIP3    H120496   5.557   3.677   3.448
 6844TIP3    H220497   5.693   3.663   3.383
 6845TIP3   OH220498   5.613   4.945   0.649
 6845TIP3    H120499   5.551   4.906   0.588
 6845TIP3    H220500   5.668   4.872   0.678
 6846TIP3   OH220501   2.909   5.369   4.591
 6846TIP3    H120502   2.989   5.321   4.613
 6846TIP3    H220503   2.841   5.302   4.591
 6847TIP3   OH220504   6.416   3.372   2.552
 6847TIP3    H120505   6.370   3.390   2.634
 6847TIP3    H220506   6.495   3.426   2.556
 6848TIP3   OH220507   2.254   5.256   3.132
 6848TIP3    H120508   2.271   5.336   3.083
 6848TIP3    H220509   2.189   5.210   3.080
 6849TIP3   OH220510   5.173   4.985   2.407
 6849TIP3    H120511   5.265   5.012   2.408
 6849TIP3    H220512   5.172   4.908   2.350
 6850TIP3   OH220513   5.168   3.855   3.815
 6850TIP3    H120514   5.144   3.942   3.849
 6850TIP3    H220515   5.170   3.799   3.892
 6851TIP3   OH220516   6.776   2.149   3.201
 6851TIP3    H120517   6.794   2.069   3.151
 6851TIP3    H220518   6.693   2.181   3.165
 6852TIP3   OH220519   5.789   5.341   0.037
 6852TIP3    H120520   5.847   5.268   0.015
 6852TIP3    H220521   5.822   5.372   0.122
 6853TIP3   OH220522   1.858   3.625   0.644
 6853TIP3    H120523   1.798   3.643   0.571
 6853TIP3    H220524   1.944   3.619   0.603
 6854TIP3   OH220525   0.251   1.403   4.782
 6854TIP3    H120526   0.258   1.374   4.691
 6854TIP3    H220527   0.258   1.498   4.777
 6855TIP3   OH220528   5.407   6.691   3.418
 6855TIP3    H120529   5.354   6.718   3.493
 6855TIP3    H220530   5.460   6.768   3.397
 6856TIP3   OH220531   0.396   4.547   4.814
 6856TIP3    H120532   0.322   4.601   4.842
 6856TIP3    H220533   0.356   4.472   4.771
 6857TIP3   OH220534   3.707   2.147   0.771
 6857TIP3    H120535   3.643   2.207   0.809
 6857TIP3    H220536   3.680   2.061   0.803
 6858TIP3   OH220537   4.568   2.014   2.178
 6858TIP3    H120538   4.507   2.086   2.191
 6858TIP3    H220539   4.576   1.973   2.265
 6859TIP3   OH220540   7.213   5.765   5.677
 6859TIP3    H120541   7.252   5.810   5.603
 6859TIP3    H220542   7.200   5.675   5.647
 6860TIP3   OH220543   4.630   5.656   0.377
 6860TIP3    H120544   4.703   5.624   0.430
 6860TIP3    H220545   4.555   5.604   0.406
 6861TIP3   OH220546   1.425   3.879   1.300
 6861TIP3    H120547   1.339   3.910   1.271
 6861TIP3    H220548   1.406   3.824   1.375
 6862TIP3   OH220549   2.662   2.639   3.653
 6862TIP3    H120550   2.587   2.592   3.689
 6862TIP3    H220551   2.702   2.682   3.728
 6863TIP3   OH220552   2.879   5.086   4.493
 6863TIP3    H120553   2.863   5.013   4.554
 6863TIP3    H220554   2.799   5.138   4.497
 6864TIP3   OH220555   5.855   0.345   5.268
 6864TIP3    H120556   5.868   0.405   5.195
 6864TIP3    H220557   5.763   0.356   5.292
 6865TIP3   OH220558   6.326   0.937   0.777
 6865TIP3    H120559   6.276   0.908   0.701
 6865TIP3    H220560   6.304   1.030   0.786
 6866TIP3   OH220561   2.559   2.182   5.092
 6866TIP3    H120562   2.543   2.224   5.177
 6866TIP3    H220563   2.646   2.212   5.067
 6867TIP3   OH220564   2.656   5.468   0.030
 6867TIP3    H120565   2.610   5.551   0.030
 6867TIP3    H220566   2.747   5.491   0.010
 6868TIP3   OH220567   0.719   0.266   2.103
 6868TIP3    H120568   0.780   0.258   2.176
 6868TIP3    H220569   0.769   0.238   2.027
 6869TIP3   OH220570   0.162   4.136   1.145
 6869TIP3    H120571   0.213   4.191   1.085
 6869TIP3    H220572   0.071   4.152   1.121
 6870TIP3   OH220573   1.815   6.672   1.190
 6870TIP3    H120574   1.774   6.639   1.270
 6870TIP3    H220575   1.828   6.594   1.136
 6871TIP3   OH220576   6.491   3.354   0.169
 6871TIP3    H120577   6.409   3.370   0.216
 6871TIP3    H220578   6.530   3.441   0.158
 6872TIP3   OH220579   3.445   6.535   0.223
 6872TIP3    H120580   3.369   6.550   0.167
 6872TIP3    H220581   3.520   6.563   0.171
 6873TIP3   OH220582   0.880   4.756   4.538
 6873TIP3    H120583   0.894   4.672   4.583
 6873TIP3    H220584   0.928   4.747   4.455
 6874TIP3   OH220585   4.947   4.875   3.748
 6874TIP3    H120586   4.975   4.831   3.668
 6874TIP3    H220587   4.858   4.903   3.730
 6875TIP3   OH220588   6.816   0.989   4.519
 6875TIP3    H120589   6.761   0.944   4.583
 6875TIP3    H220590   6.858   0.919   4.469
 6876TIP3   OH220591   4.590   2.470   4.049
 6876TIP3    H120592   4.501   2.447   4.077
 6876TIP3    H220593   4.603   2.559   4.083
 6877TIP3   OH220594   2.807   1.168   2.148
 6877TIP3    H120595   2.783   1.181   2.240
 6877TIP3    H220596   2.728   1.190   2.099
 6878TIP3   OH220597   1.887   0.948   1.806
 6878TIP3    H120598   1.888   1.002   1.727
 6878TIP3    H220599   1.856   1.006   1.875
 6879TIP3   OH220600   0.457   5.247   5.068
 6879TIP3    H120601   0.464   5.200   4.985
 6879TIP3    H220602   0.405   5.325   5.048
 6880TIP3   OH220603   0.860   6.801   2.463
 6880TIP3    H120604   0.855   6.896   2.453
 6880TIP3    H220605   0.813   6.784   2.545
 6881TIP3   OH220606   5.059   6.321   4.771
 6881TIP3    H120607   5.097   6.408   4.779
 6881TIP3    H220608   5.120   6.273   4.714
 6882TIP3   OH220609   2.248   3.227   2.435
 6882TIP3    H120610   2.190   3.251   2.507
 6882TIP3    H220611   2.293   3.308   2.411
 6883TIP3   OH220612   3.158   1.509   5.798
 6883TIP3    H120613   3.109   1.511   5.880
 6883TIP3    H220614   3.203   1.425   5.799
 6884TIP3   OH220615   0.222   6.760   0.323
 6884TIP3    H120616   0.296   6.733   0.268
 6884TIP3    H220617   0.262   6.794   0.402
 6885TIP3   OH220618   0.404   3.360   3.505
 6885TIP3    H120619   0.342   3.413   3.554
 6885TIP3    H220620   0.402   3.396   3.416
 6886TIP3   OH220621   4.608   1.248   5.785
 6886TIP3    H120622   4.691   1.233   5.741
 6886TIP3    H220623   4.578   1.333   5.753
 6887TIP3   OH220624   2.439   4.052   4.024
 6887TIP3    H120625   2.510   4.069   3.962
 6887TIP3    H220626   2.378   4.124   4.012
 6888TIP3   OH220627   1.781   0.325   2.664
 6888TIP3    H120628   1.754   0.389   2.597
 6888TIP3    H220629   1.822   0.255   2.615
 6889TIP3   OH220630   2.224   5.163   2.680
 6889TIP3    H120631   2.174   5.171   2.599
 6889TIP3    H220632   2.282   5.239   2.681
 6890TIP3   OH220633   3.604   1.287   1.448
 6890TIP3    H120634   3.517   1.326   1.441
 6890TIP3    H220635   3.588   1.197   1.476
 6891TIP3   OH220636   1.418   3.604   0.079
 6891TIP3    H120637   1.433   3.639   0.167
 6891TIP3    H220638   1.323   3.590   0.074
 6892TIP3   OH220639   3.405   1.892   4.160
 6892TIP3    H120640   3.323   1.916   4.117
 6892TIP3    H220641   3.413   1.954   4.233
 6893TIP3   OH220642   6.706   5.722   1.046
 6893TIP3    H120643   6.765   5.787   1.008
 6893TIP3    H220644   6.727   5.640   1.000
 6894TIP3   OH220645   0.576   1.599   1.905
 6894TIP3    H120646   0.605   1.580   1.816
 6894TIP3    H220647   0.616   1.684   1.926
 6895TIP3   OH220648   3.800   0.869   4.964
 6895TIP3    H120649   3.780   0.793   5.017
 6895TIP3    H220650   3.795   0.838   4.874
 6896TIP3   OH220651   4.257   1.439   4.842
 6896TIP3    H120652   4.195   1.458   4.913
 6896TIP3    H220653   4.342   1.435   4.886
 6897TIP3   OH220654   0.818   2.654   2.473
 6897TIP3    H120655   0.860   2.573   2.444
 6897TIP3    H220656   0.726   2.631   2.481
 6898TIP3   OH220657   0.547   6.535   2.649
 6898TIP3    H120658   0.610   6.600   2.619
 6898TIP3    H220659   0.462   6.578   2.641
 6899TIP3   OH220660   0.784   6.382   4.317
 6899TIP3    H120661   0.780   6.467   4.273
 6899TIP3    H220662   0.708   6.381   4.375
 6900TIP3   OH220663   4.234   6.361   1.469
 6900TIP3    H120664   4.260   6.383   1.558
 6900TIP3    H220665   4.273   6.275   1.453
 6901TIP3   OH220666   7.019   0.469   2.313
 6901TIP3    H120667   7.109   0.435   2.312
 6901TIP3    H220668   7.005   0.496   2.404
 6902TIP3   OH220669   2.804   4.574   5.145
 6902TIP3    H120670   2.731   4.572   5.083
 6902TIP3    H220671   2.864   4.506   5.114
 6903TIP3   OH220672   4.124   3.680   3.681
 6903TIP3    H120673   4.176   3.755   3.709
 6903TIP3    H220674   4.093   3.703   3.594
 6904TIP3   OH220675   3.951   1.785   5.361
 6904TIP3    H120676   3.963   1.861   5.305
 6904TIP3    H220677   3.859   1.790   5.389
 6905TIP3   OH220678   6.549   0.239   0.108
 6905TIP3    H120679   6.635   0.214   0.076
 6905TIP3    H220680   6.488   0.188   0.055
 6906TIP3   OH220681   1.237   0.571   1.528
 6906TIP3    H120682   1.265   0.481   1.513
 6906TIP3    H220683   1.303   0.607   1.587
 6907TIP3   OH220684   4.098   0.323   0.342
 6907TIP3    H120685   4.075   0.268   0.267
 6907TIP3    H220686   4.132   0.261   0.407
 6908TIP3   OH220687   1.514   0.456   3.650
 6908TIP3    H120688   1.547   0.528   3.703
 6908TIP3    H220689   1.474   0.498   3.573
 6909TIP3   OH220690   7.239   4.411   3.132
 6909TIP3    H120691   7.158   4.437   3.175
 6909TIP3    H220692   7.305   4.470   3.168
 6910TIP3   OH220693   6.176   5.448   2.915
 6910TIP3    H120694   6.152   5.500   2.838
 6910TIP3    H220695   6.093   5.414   2.947
 6911TIP3   OH220696   4.466   5.776   5.130
 6911TIP3    H120697   4.429   5.787   5.042
 6911TIP3    H220698   4.515   5.857   5.146
 6912TIP3   OH220699   1.592   5.211   4.231
 6912TIP3    H120700   1.604   5.288   4.175
 6912TIP3    H220701   1.672   5.161   4.220
 6913TIP3   OH220702   5.984   5.203   3.727
 6913TIP3    H120703   6.056   5.151   3.763
 6913TIP3    H220704   5.934   5.232   3.804
 6914TIP3   OH220705   6.757   2.165   2.607
 6914TIP3    H120706   6.688   2.230   2.618
 6914TIP3    H220707   6.738   2.099   2.674
 6915TIP3   OH220708   6.891   0.799   1.348
 6915TIP3    H120709   6.897   0.704   1.333
 6915TIP3    H220710   6.849   0.807   1.433
 6916TIP3   OH220711   2.822   6.196   0.604
 6916TIP3    H120712   2.872   6.273   0.629
 6916TIP3    H220713   2.885   6.124   0.607
 6917TIP3   OH220714   6.501   4.955   1.113
 6917TIP3    H120715   6.430   4.960   1.177
 6917TIP3    H220716   6.517   4.861   1.102
 6918TIP3   OH220717   6.421   6.620   2.413
 6918TIP3    H120718   6.339   6.573   2.397
 6918TIP3    H220719   6.393   6.710   2.432
 6919TIP3   OH220720   0.016   2.552   5.336
 6919TIP3    H120721   0.111   2.552   5.326
 6919TIP3    H220722  -0.017   2.566   5.248
 6920TIP3   OH220723   4.615   1.823   2.001
 6920TIP3    H120724   4.700   1.824   1.955
 6920TIP3    H220725   4.611   1.909   2.044
 6921TIP3   OH220726   5.652   4.850   1.662
 6921TIP3    H120727   5.590   4.802   1.607
 6921TIP3    H220728   5.616   4.939   1.666
 6922TIP3   OH220729   6.463   3.307   1.084
 6922TIP3    H120730   6.483   3.384   1.138
 6922TIP3    H220731   6.539   3.297   1.027
 6923TIP3   OH220732   1.143   3.170   4.010
 6923TIP3    H120733   1.212   3.223   3.971
 6923TIP3    H220734   1.187   3.093   4.044
 6924TIP3   OH220735   6.522   2.673   3.312
 6924TIP3    H120736   6.474   2.692   3.392
 6924TIP3    H220737   6.573   2.594   3.332
 6925TIP3   OH220738   4.001   2.080   5.053
 6925TIP3    H120739   4.037   2.166   5.030
 6925TIP3    H220740   4.014   2.027   4.974
 6926TIP3   OH220741   2.145   6.148   5.731
 6926TIP3    H120742   2.175   6.075   5.677
 6926TIP3    H220743   2.064   6.116   5.771
 6927TIP3   OH220744   0.720   5.317   3.211
 6927TIP3    H120745   0.785   5.264   3.258
 6927TIP3    H220746   0.646   5.323   3.272
 6928TIP3   OH220747   1.293   1.981   3.507
 6928TIP3    H120748   1.355   1.930   3.559
 6928TIP3    H220749   1.270   2.055   3.563
 6929TIP3   OH220750   2.626   6.744   1.896
 6929TIP3    H120751   2.628   6.770   1.988
 6929TIP3    H220752   2.704   6.783   1.857
 6930TIP3   OH220753   1.514   6.698   4.398
 6930TIP3    H120754   1.447   6.631   4.413
 6930TIP3    H220755   1.569   6.694   4.476
 6931TIP3   OH220756   1.742   5.366   1.606
 6931TIP3    H120757   1.748   5.461   1.595
 6931TIP3    H220758   1.656   5.352   1.644
 6932TIP3   OH220759   3.214   3.335   0.055
 6932TIP3    H120760   3.218   3.389   0.134
 6932TIP3    H220761   3.257   3.254   0.080
 6933TIP3   OH220762   7.000   3.656   1.714
 6933TIP3    H120763   7.003   3.741   1.758
 6933TIP3    H220764   6.909   3.627   1.725
 6934TIP3   OH220765   1.548   2.162   0.515
 6934TIP3    H120766   1.621   2.135   0.571
 6934TIP3    H220767   1.571   2.130   0.428
 6935TIP3   OH220768   4.626   2.171   3.556
 6935TIP3    H120769   4.692   2.208   3.615
 6935TIP3    H220770   4.574   2.247   3.528
 6936TIP3   OH220771   3.003   3.812   0.627
 6936TIP3    H120772   2.908   3.801   0.638
 6936TIP3    H220773   3.027   3.880   0.689
 6937TIP3   OH220774   6.356   1.666   2.464
 6937TIP3    H120775   6.293   1.737   2.451
 6937TIP3    H220776   6.306   1.586   2.446
 6938TIP3   OH220777   6.850   4.004   4.129
 6938TIP3    H120778   6.836   4.092   4.164
 6938TIP3    H220779   6.931   3.974   4.169
 6939TIP3   OH220780   1.576   4.213   0.318
 6939TIP3    H120781   1.645   4.264   0.275
 6939TIP3    H220782   1.595   4.222   0.412
 6940TIP3   OH220783   2.569   1.794   5.572
 6940TIP3    H120784   2.480   1.759   5.576
 6940TIP3    H220785   2.613   1.739   5.507
 6941TIP3   OH220786   2.171   5.451   3.329
 6941TIP3    H120787   2.249   5.463   3.273
 6941TIP3    H220788   2.198   5.386   3.394
 6942TIP3   OH220789   4.627   5.845   1.734
 6942TIP3    H120790   4.694   5.831   1.668
 6942TIP3    H220791   4.598   5.935   1.722
 6943TIP3   OH220792   3.926   3.065   0.104
 6943TIP3    H120793   3.889   3.123   0.037
 6943TIP3    H220794   3.987   3.121   0.153
 6944TIP3   OH220795   5.072   4.117   3.068
 6944TIP3    H120796   5.043   4.088   3.155
 6944TIP3    H220797   4.994   4.155   3.028
 6945TIP3   OH220798   3.747   0.875   1.923
 6945TIP3    H120799   3.777   0.893   1.834
 6945TIP3    H220800   3.738   0.779   1.926
 6946TIP3   OH220801   3.740   2.296   0.550
 6946TIP3    H120802   3.736   2.223   0.489
 6946TIP3    H220803   3.767   2.258   0.633
 6947TIP3   OH220804   1.891   2.263   3.800
 6947TIP3    H120805   1.847   2.202   3.741
 6947TIP3    H220806   1.985   2.248   3.784
 6948TIP3   OH220807   2.461   3.212   4.717
 6948TIP3    H120808   2.543   3.258   4.736
 6948TIP3    H220809   2.402   3.280   4.684
 6949TIP3   OH220810   5.001   0.415   4.329
 6949TIP3    H120811   4.906   0.408   4.341
 6949TIP3    H220812   5.015   0.504   4.296
 6950TIP3   OH220813   5.773   1.211   1.610
 6950TIP3    H120814   5.687   1.170   1.596
 6950TIP3    H220815   5.835   1.138   1.612
 6951TIP3   OH220816   4.365   2.218   4.555
 6951TIP3    H120817   4.285   2.170   4.576
 6951TIP3    H220818   4.435   2.155   4.573
 6952TIP3   OH220819   2.974   2.448   0.883
 6952TIP3    H120820   2.981   2.458   0.978
 6952TIP3    H220821   3.013   2.527   0.847
 6953TIP3   OH220822   2.208   6.327   1.150
 6953TIP3    H120823   2.175   6.258   1.208
 6953TIP3    H220824   2.301   6.306   1.139
 6954TIP3   OH220825   1.613   0.246   4.648
 6954TIP3    H120826   1.579   0.163   4.612
 6954TIP3    H220827   1.655   0.288   4.574
 6955TIP3   OH220828   2.566   0.400   4.280
 6955TIP3    H120829   2.625   0.471   4.255
 6955TIP3    H220830   2.542   0.358   4.198
 6956TIP3   OH220831   1.470   1.741   4.339
 6956TIP3    H120832   1.557   1.706   4.359
 6956TIP3    H220833   1.453   1.713   4.249
 6957TIP3   OH220834   6.647   4.560   4.851
 6957TIP3    H120835   6.595   4.604   4.918
 6957TIP3    H220836   6.730   4.540   4.894
 6958TIP3   OH220837   0.170   1.621   2.644
 6958TIP3    H120838   0.262   1.602   2.660
 6958TIP3    H220839   0.148   1.689   2.707
 6959TIP3   OH220840   5.275   5.912   2.358
 6959TIP3    H120841   5.244   5.830   2.321
 6959TIP3    H220842   5.325   5.886   2.435
 6960TIP3   OH220843   1.471   3.108   5.209
 6960TIP3    H120844   1.449   3.191   5.166
 6960TIP3    H220845   1.555   3.083   5.172
 6961TIP3   OH220846   6.303   5.591   4.490
 6961TIP3    H120847   6.365   5.541   4.543
 6961TIP3    H220848   6.355   5.622   4.415
 6962TIP3   OH220849   3.608   0.029   3.054
 6962TIP3    H120850   3.677   0.078   3.010
 6962TIP3    H220851   3.559  -0.013   2.984
 6963TIP3   OH220852   6.147   1.456   1.066
 6963TIP3    H120853   6.194   1.412   1.136
 6963TIP3    H220854   6.185   1.420   0.985
 6964TIP3   OH220855   5.956   4.414   3.100
 6964TIP3    H120856   5.936   4.480   3.166
 6964TIP3    H220857   6.042   4.381   3.124
 6965TIP3   OH220858   0.352   6.082   5.025
 6965TIP3    H120859   0.299   6.050   5.098
 6965TIP3    H220860   0.353   6.177   5.036
 6966TIP3   OH220861   0.461   4.232   4.735
 6966TIP3    H120862   0.531   4.259   4.676
 6966TIP3    H220863   0.383   4.227   4.679
 6967TIP3   OH220864   3.207   4.027   2.952
 6967TIP3    H120865   3.117   4.004   2.976
 6967TIP3    H220866   3.202   4.120   2.931
 6968TIP3   OH220867   4.630   0.789  -0.037
 6968TIP3    H120868   4.672   0.809   0.047
 6968TIP3    H220869   4.568   0.719  -0.016
 6969TIP3   OH220870   3.935   3.250   3.258
 6969TIP3    H120871   3.862   3.283   3.205
 6969TIP3    H220872   3.911   3.272   3.348
 6970TIP3   OH220873   2.428   0.139   1.411
 6970TIP3    H120874   2.478   0.058   1.402
 6970TIP3    H220875   2.490   0.201   1.448
 6971TIP3   OH220876   2.970   1.860   5.221
 6971TIP3    H120877   3.022   1.789   5.259
 6971TIP3    H220878   3.012   1.940   5.253
 6972TIP3   OH220879   4.927   1.142   2.996
 6972TIP3    H120880   4.957   1.052   2.983
 6972TIP3    H220881   4.833   1.138   2.976
 6973TIP3   OH220882   0.393   4.138   1.792
 6973TIP3    H120883   0.434   4.219   1.822
 6973TIP3    H220884   0.397   4.080   1.868
 6974TIP3   OH220885   2.704   4.760   5.324
 6974TIP3    H120886   2.748   4.845   5.327
 6974TIP3    H220887   2.755   4.708   5.262
 6975TIP3   OH220888   2.475   0.293   3.729
 6975TIP3    H120889   2.460   0.230   3.658
 6975TIP3    H220890   2.571   0.298   3.735
 6976TIP3   OH220891   2.295   4.463   2.238
 6976TIP3    H120892   2.206   4.469   2.203
 6976TIP3    H220893   2.283   4.434   2.329
 6977TIP3   OH220894   4.134   3.468   5.400
 6977TIP3    H120895   4.197   3.486   5.330
 6977TIP3    H220896   4.174   3.398   5.451
 6978TIP3   OH220897   6.902   1.670   1.025
 6978TIP3    H120898   6.836   1.740   1.029
 6978TIP3    H220899   6.894   1.626   1.110
 6979TIP3   OH220900   2.216   1.971   0.393
 6979TIP3    H120901   2.282   2.030   0.429
 6979TIP3    H220902   2.251   1.946   0.307
 6980TIP3   OH220903   3.282   2.345   0.430
 6980TIP3    H120904   3.202   2.301   0.401
 6980TIP3    H220905   3.260   2.382   0.515
 6981TIP3   OH220906   2.979   3.538   3.388
 6981TIP3    H120907   2.914   3.538   3.458
 6981TIP3    H220908   2.971   3.624   3.347
 6982TIP3   OH220909   0.730   3.923   2.381
 6982TIP3    H120910   0.662   3.922   2.313
 6982TIP3    H220911   0.715   3.842   2.430
 6983TIP3   OH220912   0.213   2.085   5.576
 6983TIP3    H120913   0.127   2.122   5.595
 6983TIP3    H220914   0.244   2.050   5.659
 6984TIP3   OH220915   6.573   0.678   1.449
 6984TIP3    H120916   6.650   0.659   1.503
 6984TIP3    H220917   6.514   0.725   1.506
 6985TIP3   OH220918   4.181   4.629   3.653
 6985TIP3    H120919   4.249   4.562   3.652
 6985TIP3    H220920   4.217   4.699   3.708
 6986TIP3   OH220921   0.435   5.218   3.287
 6986TIP3    H120922   0.487   5.179   3.217
 6986TIP3    H220923   0.378   5.147   3.318
 6987TIP3   OH220924   2.308   0.806   4.120
 6987TIP3    H120925   2.221   0.778   4.146
 6987TIP3    H220926   2.367   0.759   4.179
 6988TIP3   OH220927   0.093   6.374   0.580
 6988TIP3    H120928   0.060   6.362   0.669
 6988TIP3    H220929   0.069   6.464   0.558
 6989TIP3   OH220930   4.670   0.720   4.286
 6989TIP3    H120931   4.653   0.753   4.375
 6989TIP3    H220932   4.637   0.788   4.228
 6990TIP3   OH220933   2.640   3.483   2.123
 6990TIP3    H120934   2.663   3.456   2.034
 6990TIP3    H220935   2.672   3.573   2.130
 6991TIP3   OH220936   3.588   0.576   3.841
 6991TIP3    H120937   3.604   0.567   3.935
 6991TIP3    H220938   3.614   0.492   3.804
 6992TIP3   OH220939   6.130   3.084   2.159
 6992TIP3    H120940   6.145   3.148   2.089
 6992TIP3    H220941   6.204   3.096   2.218
 6993TIP3   OH220942   3.476   5.125   4.242
 6993TIP3    H120943   3.492   5.044   4.194
 6993TIP3    H220944   3.561   5.170   4.242
 6994TIP3   OH220945   5.605   5.756   1.158
 6994TIP3    H120946   5.528   5.724   1.110
 6994TIP3    H220947   5.583   5.846   1.181
 6995TIP3   OH220948   5.832   6.341   4.963
 6995TIP3    H120949   5.912   6.290   4.948
 6995TIP3    H220950   5.834   6.409   4.895
 6996TIP3   OH220951   4.596   6.114   1.685
 6996TIP3    H120952   4.567   6.140   1.597
 6996TIP3    H220953   4.690   6.130   1.686
 6997TIP3   OH220954   0.243   0.962   5.899
 6997TIP3    H120955   0.287   0.919   5.826
 6997TIP3    H220956   0.303   1.032   5.926
 6998TIP3   OH220957   5.186   5.836   5.287
 6998TIP3    H120958   5.112   5.836   5.226
 6998TIP3    H220959   5.213   5.744   5.293
 6999TIP3   OH220960   2.738   5.930   5.000
 6999TIP3    H120961   2.662   5.873   4.985
 6999TIP3    H220962   2.801   5.903   4.933
 7000TIP3   OH220963   6.590   0.482   3.763
 7000TIP3    H120964   6.520   0.418   3.779
 7000TIP3    H220965   6.563   0.528   3.684
 7001TIP3   OH220966   0.084   0.097   1.818
 7001TIP3    H120967   0.003   0.106   1.869
 7001TIP3    H220968   0.151   0.079   1.883
 7002TIP3   OH220969   0.385   5.260   1.595
 7002TIP3    H120970   0.390   5.189   1.532
 7002TIP3    H220971   0.464   5.312   1.579
 7003TIP3   OH220972   3.354   2.331   3.687
 7003TIP3    H120973   3.365   2.274   3.611
 7003TIP3    H220974   3.442   2.361   3.707
 7004TIP3   OH220975   1.253   5.912   1.785
 7004TIP3    H120976   1.293   5.923   1.699
 7004TIP3    H220977   1.165   5.879   1.768
 7005TIP3   OH220978   4.290   0.303   2.795
 7005TIP3    H120979   4.382   0.323   2.777
 7005TIP3    H220980   4.243   0.336   2.719
 7006TIP3   OH220981   5.246   0.478   3.892
 7006TIP3    H120982   5.150   0.482   3.896
 7006TIP3    H220983   5.268   0.390   3.921
 7007TIP3   OH220984   4.455   6.619   2.291
 7007TIP3    H120985   4.446   6.680   2.218
 7007TIP3    H220986   4.423   6.667   2.367
 7008TIP3   OH220987   3.804   0.650   4.208
 7008TIP3    H120988   3.833   0.740   4.195
 7008TIP3    H220989   3.710   0.653   4.188
 7009TIP3   OH220990   7.064   0.672   2.509
 7009TIP3    H120991   7.071   0.740   2.442
 7009TIP3    H220992   7.138   0.688   2.568
 7010TIP3   OH220993   6.171   1.943   0.899
 7010TIP3    H120994   6.089   1.939   0.947
 7010TIP3    H220995   6.226   2.002   0.951
 7011TIP3   OH220996   4.097   4.131   5.210
 7011TIP3    H120997   4.185   4.128   5.249
 7011TIP3    H220998   4.053   4.202   5.257
 7012TIP3   OH220999   4.602   0.470   4.175
 7012TIP3    H121000   4.549   0.498   4.249
 7012TIP3    H221001   4.690   0.502   4.195
 7013TIP3   OH221002   0.362   2.850   5.531
 7013TIP3    H121003   0.370   2.816   5.441
 7013TIP3    H221004   0.286   2.805   5.567
 7014TIP3   OH221005   4.927   2.218   4.333
 7014TIP3    H121006   4.840   2.255   4.345
 7014TIP3    H221007   4.978   2.253   4.406
 7015TIP3   OH221008   1.215   5.304   0.590
 7015TIP3    H121009   1.127   5.267   0.598
 7015TIP3    H221010   1.227   5.355   0.670
 7016TIP3   OH221011   7.099   0.135   2.007
 7016TIP3    H121012   7.112   0.093   2.092
 7016TIP3    H221013   7.123   0.226   2.021
 7017TIP3   OH221014   4.773   0.737   0.884
 7017TIP3    H121015   4.804   0.667   0.941
 7017TIP3    H221016   4.677   0.728   0.884
 7018TIP3   OH221017   5.553   2.103   4.442
 7018TIP3    H121018   5.561   2.198   4.433
 7018TIP3    H221019   5.604   2.081   4.520
 7019TIP3   OH221020   5.862   1.051   1.055
 7019TIP3    H121021   5.948   1.091   1.051
 7019TIP3    H221022   5.808   1.103   0.996
 7020TIP3   OH221023   0.568   6.400   4.506
 7020TIP3    H121024   0.518   6.476   4.536
 7020TIP3    H221025   0.502   6.344   4.463
 7021TIP3   OH221026   4.380   3.056   2.393
 7021TIP3    H121027   4.354   3.043   2.484
 7021TIP3    H221028   4.328   2.992   2.344
 7022TIP3   OH221029   3.052   6.140   3.117
 7022TIP3    H121030   2.969   6.123   3.161
 7022TIP3    H221031   3.101   6.194   3.179
 7023TIP3   OH221032   5.980   3.662   5.523
 7023TIP3    H121033   5.932   3.669   5.441
 7023TIP3    H221034   5.935   3.593   5.572
 7024TIP3   OH221035   5.346   1.805   1.712
 7024TIP3    H121036   5.331   1.764   1.797
 7024TIP3    H221037   5.389   1.737   1.660
 7025TIP3   OH221038   4.416   0.886   3.231
 7025TIP3    H121039   4.402   0.951   3.162
 7025TIP3    H221040   4.422   0.937   3.311
 7026TIP3   OH221041   3.241   4.176   0.126
 7026TIP3    H121042   3.250   4.085   0.152
 7026TIP3    H221043   3.153   4.182   0.090
 7027TIP3   OH221044   4.822   1.038   3.616
 7027TIP3    H121045   4.800   0.946   3.633
 7027TIP3    H221046   4.769   1.061   3.540
 7028TIP3   OH221047   1.616   2.072   4.059
 7028TIP3    H121048   1.525   2.084   4.033
 7028TIP3    H221049   1.645   1.995   4.010
 7029TIP3   OH221050   2.079   3.130   0.468
 7029TIP3    H121051   2.148   3.069   0.441
 7029TIP3    H221052   2.004   3.074   0.488
 7030TIP3   OH221053   7.154   2.898   0.524
 7030TIP3    H121054   7.205   2.939   0.454
 7030TIP3    H221055   7.097   2.836   0.479
 7031TIP3   OH221056   4.268   0.141   0.977
 7031TIP3    H121057   4.216   0.071   0.938
 7031TIP3    H221058   4.313   0.099   1.050
 7032TIP3   OH221059   5.793   1.899   2.105
 7032TIP3    H121060   5.855   1.840   2.063
 7032TIP3    H221061   5.748   1.943   2.033
 7033TIP3   OH221062   2.209   2.650   1.325
 7033TIP3    H121063   2.166   2.581   1.275
 7033TIP3    H221064   2.302   2.628   1.324
 7034TIP3   OH221065   5.887   0.912   2.114
 7034TIP3    H121066   5.948   0.874   2.177
 7034TIP3    H221067   5.802   0.908   2.157
 7035TIP3   OH221068   6.264   5.567   5.566
 7035TIP3    H121069   6.234   5.633   5.504
 7035TIP3    H221070   6.188   5.546   5.619
 7036TIP3   OH221071   4.159   0.787   3.522
 7036TIP3    H121072   4.071   0.753   3.503
 7036TIP3    H221073   4.144   0.877   3.550
 7037TIP3   OH221074   7.137   1.769   5.088
 7037TIP3    H121075   7.048   1.738   5.072
 7037TIP3    H221076   7.147   1.768   5.183
 7038TIP3   OH221077   2.871   5.800   4.789
 7038TIP3    H121078   2.883   5.831   4.699
 7038TIP3    H221079   2.909   5.713   4.791
 7039TIP3   OH221080   4.685   0.968   1.441
 7039TIP3    H121081   4.702   1.036   1.506
 7039TIP3    H221082   4.679   1.015   1.358
 7040TIP3   OH221083   5.140   6.089   3.637
 7040TIP3    H121084   5.214   6.037   3.605
 7040TIP3    H221085   5.180   6.167   3.674
 7041TIP3   OH221086   6.290   0.073   4.043
 7041TIP3    H121087   6.273   0.054   3.951
 7041TIP3    H221088   6.367   0.129   4.042
 7042TIP3   OH221089   0.567   1.599   2.461
 7042TIP3    H121090   0.634   1.531   2.452
 7042TIP3    H221091   0.604   1.675   2.417
 7043TIP3   OH221092   7.177   1.559   5.576
 7043TIP3    H121093   7.149   1.590   5.490
 7043TIP3    H221094   7.096   1.536   5.621
 7044TIP3   OH221095   5.980   4.453   4.284
 7044TIP3    H121096   5.920   4.381   4.264
 7044TIP3    H221097   6.050   4.411   4.334
 7045TIP3   OH221098   4.314   1.881   3.041
 7045TIP3    H121099   4.391   1.900   3.095
 7045TIP3    H221100   4.332   1.924   2.958
 7046TIP3   OH221101   5.054   0.870   3.966
 7046TIP3    H121102   5.134   0.831   4.000
 7046TIP3    H221103   5.042   0.829   3.880
 7047TIP3   OH221104   6.218   3.848   4.894
 7047TIP3    H121105   6.265   3.829   4.813
 7047TIP3    H221106   6.272   3.912   4.940
 7048TIP3   OH221107   0.947   2.445   2.024
 7048TIP3    H121108   0.945   2.426   1.930
 7048TIP3    H221109   0.872   2.396   2.059
 7049TIP3   OH221110   0.884   4.662   4.073
 7049TIP3    H121111   0.867   4.601   4.001
 7049TIP3    H221112   0.810   4.650   4.133
 7050TIP3   OH221113   1.632   6.362   0.593
 7050TIP3    H121114   1.536   6.366   0.602
 7050TIP3    H221115   1.649   6.278   0.552
 7051TIP3   OH221116   3.158   6.197   3.634
 7051TIP3    H121117   3.136   6.112   3.595
 7051TIP3    H221118   3.100   6.205   3.709
 7052TIP3   OH221119   1.302   1.225   3.472
 7052TIP3    H121120   1.342   1.173   3.402
 7052TIP3    H221121   1.253   1.293   3.426
 7053TIP3   OH221122   0.522   0.297   2.758
 7053TIP3    H121123   0.514   0.207   2.788
 7053TIP3    H221124   0.533   0.290   2.664
 7054TIP3   OH221125   6.289   3.294   1.642
 7054TIP3    H121126   6.295   3.216   1.696
 7054TIP3    H221127   6.350   3.277   1.570
 7055TIP3   OH221128   0.285   6.680   0.940
 7055TIP3    H121129   0.340   6.741   0.989
 7055TIP3    H221130   0.216   6.734   0.902
 7056TIP3   OH221131   5.122   6.280   3.099
 7056TIP3    H121132   5.105   6.309   3.188
 7056TIP3    H221133   5.115   6.360   3.046
 7057TIP3   OH221134   5.689   3.299   1.458
 7057TIP3    H121135   5.687   3.290   1.362
 7057TIP3    H221136   5.598   3.282   1.484
 7058TIP3   OH221137   2.975   6.671   0.770
 7058TIP3    H121138   3.010   6.655   0.683
 7058TIP3    H221139   2.909   6.739   0.758
 7059TIP3   OH221140   6.980   1.337   5.503
 7059TIP3    H121141   6.947   1.270   5.443
 7059TIP3    H221142   6.947   1.311   5.589
 7060TIP3   OH221143   4.517   5.514   0.126
 7060TIP3    H121144   4.423   5.497   0.125
 7060TIP3    H221145   4.548   5.470   0.205
 7061TIP3   OH221146   1.449   3.325   1.090
 7061TIP3    H121147   1.367   3.278   1.099
 7061TIP3    H221148   1.507   3.264   1.044
 7062TIP3   OH221149   2.887   6.348   2.396
 7062TIP3    H121150   2.850   6.296   2.468
 7062TIP3    H221151   2.951   6.406   2.439
 7063TIP3   OH221152   6.247   2.071   2.011
 7063TIP3    H121153   6.316   2.110   2.065
 7063TIP3    H221154   6.294   2.027   1.941
 7064TIP3   OH221155   4.382   6.051   0.484
 7064TIP3    H121156   4.472   6.081   0.498
 7064TIP3    H221157   4.388   5.956   0.487
 7065TIP3   OH221158   2.213   1.786   5.308
 7065TIP3    H121159   2.188   1.751   5.393
 7065TIP3    H221160   2.235   1.709   5.255
 7066TIP3   OH221161   3.726   1.915   0.153
 7066TIP3    H121162   3.730   1.844   0.217
 7066TIP3    H221163   3.639   1.952   0.164
 7067TIP3   OH221164   4.235   3.868   4.410
 7067TIP3    H121165   4.218   3.809   4.337
 7067TIP3    H221166   4.270   3.948   4.370
 7068TIP3   OH221167   6.038   2.929   3.996
 7068TIP3    H121168   6.112   2.966   4.044
 7068TIP3    H221169   5.983   2.889   4.063
 7069TIP3   OH221170   3.323   5.863   4.693
 7069TIP3    H121171   3.348   5.893   4.605
 7069TIP3    H221172   3.309   5.769   4.683
 7070TIP3   OH221173   4.039   2.163   2.147
 7070TIP3    H121174   3.952   2.195   2.122
 7070TIP3    H221175   4.100   2.223   2.104
 7071TIP3   OH221176   5.690   1.268   3.838
 7071TIP3    H121177   5.772   1.315   3.821
 7071TIP3    H221178   5.624   1.337   3.839
 7072TIP3   OH221179   1.803   2.769   0.088
 7072TIP3    H121180   1.762   2.707   0.148
 7072TIP3    H221181   1.857   2.716   0.030
 7073TIP3   OH221182   2.059   5.598   0.815
 7073TIP3    H121183   2.089   5.654   0.743
 7073TIP3    H221184   2.068   5.653   0.893
 7074TIP3   OH221185   3.039   2.935   0.242
 7074TIP3    H121186   3.047   3.030   0.247
 7074TIP3    H221187   2.995   2.919   0.159
 7075TIP3   OH221188   0.617   2.407   2.231
 7075TIP3    H121189   0.534   2.399   2.278
 7075TIP3    H221190   0.673   2.339   2.268
 7076TIP3   OH221191   3.855   2.133   4.118
 7076TIP3    H121192   3.912   2.185   4.061
 7076TIP3    H221193   3.784   2.104   4.060
 7077TIP3   OH221194   3.077   5.144   4.331
 7077TIP3    H121195   3.017   5.107   4.395
 7077TIP3    H221196   3.033   5.222   4.298
 7078TIP3   OH221197  -0.068   4.900   0.953
 7078TIP3    H121198   0.016   4.942   0.935
 7078TIP3    H221199  -0.061   4.871   1.044
 7079TIP3   OH221200   6.479   4.296   3.832
 7079TIP3    H121201   6.392   4.287   3.793
 7079TIP3    H221202   6.470   4.256   3.919
 7080TIP3   OH221203   3.194   1.553   4.227
 7080TIP3    H121204   3.185   1.586   4.137
 7080TIP3    H221205   3.254   1.479   4.220
 7081TIP3   OH221206   1.014   5.471   5.237
 7081TIP3    H121207   1.013   5.422   5.155
 7081TIP3    H221208   1.048   5.410   5.302
 7082TIP3   OH221209   4.407   1.055   1.760
 7082TIP3    H121210   4.416   1.004   1.680
 7082TIP3    H221211   4.317   1.086   1.759
 7083TIP3   OH221212   5.967   2.865   4.998
 7083TIP3    H121213   5.988   2.958   5.005
 7083TIP3    H221214   5.941   2.853   4.906
 7084TIP3   OH221215   2.908   0.535   4.265
 7084TIP3    H121216   2.924   0.503   4.177
 7084TIP3    H221217   2.825   0.583   4.258
 7085TIP3   OH221218   6.299   4.145   2.937
 7085TIP3    H121219   6.209   4.113   2.943
 7085TIP3    H221220   6.333   4.105   2.857
 7086TIP3   OH221221   2.280   1.025   4.682
 7086TIP3    H121222   2.253   0.941   4.645
 7086TIP3    H221223   2.376   1.023   4.679
 7087TIP3   OH221224   6.989   5.142   4.320
 7087TIP3    H121225   7.074   5.159   4.280
 7087TIP3    H221226   6.955   5.229   4.340
 7088TIP3   OH221227   2.161   1.502   3.950
 7088TIP3    H121228   2.214   1.426   3.975
 7088TIP3    H221229   2.219   1.553   3.894
 7089TIP3   OH221230   6.604   4.861   5.728
 7089TIP3    H121231   6.574   4.938   5.775
 7089TIP3    H221232   6.534   4.796   5.742
 7090TIP3   OH221233   1.534   4.897   2.255
 7090TIP3    H121234   1.609   4.911   2.197
 7090TIP3    H221235   1.557   4.946   2.335
 7091TIP3   OH221236   4.815   4.527   0.470
 7091TIP3    H121237   4.775   4.447   0.435
 7091TIP3    H221238   4.779   4.596   0.414
 7092TIP3   OH221239   2.439   1.502   2.102
 7092TIP3    H121240   2.439   1.513   2.007
 7092TIP3    H221241   2.494   1.573   2.135
 7093TIP3   OH221242   0.778   3.065   1.972
 7093TIP3    H121243   0.782   2.985   1.918
 7093TIP3    H221244   0.824   3.042   2.052
 7094TIP3   OH221245   6.364   2.694   2.156
 7094TIP3    H121246   6.310   2.769   2.132
 7094TIP3    H221247   6.453   2.718   2.128
 7095TIP3   OH221248   4.684   0.103   2.913
 7095TIP3    H121249   4.709   0.055   2.992
 7095TIP3    H221250   4.758   0.092   2.854
 7096TIP3   OH221251   5.726   2.060   2.328
 7096TIP3    H121252   5.738   1.993   2.262
 7096TIP3    H221253   5.743   2.143   2.282
 7097TIP3   OH221254   5.197   2.030   1.364
 7097TIP3    H121255   5.136   1.962   1.334
 7097TIP3    H221256   5.197   2.095   1.294
 7098TIP3   OH221257   1.353   4.785   3.783
 7098TIP3    H121258   1.366   4.805   3.875
 7098TIP3    H221259   1.258   4.795   3.769
 7099TIP3   OH221260   1.121   6.157   4.010
 7099TIP3    H121261   1.063   6.196   3.944
 7099TIP3    H221262   1.100   6.202   4.091
 7100TIP3   OH221263   2.793   4.984   1.207
 7100TIP3    H121264   2.699   4.970   1.218
 7100TIP3    H221265   2.801   5.076   1.184
 7101TIP3   OH221266   6.825   2.231   0.607
 7101TIP3    H121267   6.782   2.253   0.690
 7101TIP3    H221268   6.775   2.157   0.574
 7102TIP3   OH221269   5.094   0.728   0.493
 7102TIP3    H121270   5.145   0.744   0.414
 7102TIP3    H221271   5.143   0.771   0.563
 7103TIP3   OH221272   1.636   6.014   1.768
 7103TIP3    H121273   1.618   5.942   1.707
 7103TIP3    H221274   1.555   6.065   1.771
 7104TIP3   OH221275   6.851   4.208   2.008
 7104TIP3    H121276   6.782   4.240   2.067
 7104TIP3    H221277   6.869   4.120   2.039
 7105TIP3   OH221278   2.623   3.324   0.893
 7105TIP3    H121279   2.594   3.402   0.845
 7105TIP3    H221280   2.706   3.301   0.852
 7106TIP3   OH221281   7.158   2.387   2.438
 7106TIP3    H121282   7.230   2.428   2.487
 7106TIP3    H221283   7.082   2.394   2.495
 7107TIP3   OH221284   1.297   4.731   2.766
 7107TIP3    H121285   1.321   4.749   2.856
 7107TIP3    H221286   1.354   4.787   2.714
 7108TIP3   OH221287   0.807   0.562   3.874
 7108TIP3    H121288   0.742   0.616   3.828
 7108TIP3    H221289   0.769   0.548   3.961
 7109TIP3   OH221290   6.853   1.626   0.761
 7109TIP3    H121291   6.760   1.603   0.761
 7109TIP3    H221292   6.878   1.629   0.853
 7110TIP3   OH221293   4.649   4.775   1.772
 7110TIP3    H121294   4.586   4.822   1.717
 7110TIP3    H221295   4.603   4.763   1.855
 7111TIP3   OH221296   2.393   3.743   2.268
 7111TIP3    H121297   2.485   3.750   2.244
 7111TIP3    H221298   2.350   3.817   2.225
 7112TIP3   OH221299   4.594   5.142   2.181
 7112TIP3    H121300   4.647   5.193   2.120
 7112TIP3    H221301   4.633   5.160   2.267
 7113TIP3   OH221302   0.729   3.065   0.550
 7113TIP3    H121303   0.664   3.016   0.499
 7113TIP3    H221304   0.757   3.005   0.619
 7114TIP3   OH221305   6.419   4.506   1.532
 7114TIP3    H121306   6.355   4.567   1.568
 7114TIP3    H221307   6.373   4.465   1.459
 7115TIP3   OH221308   7.101   0.518   1.033
 7115TIP3    H121309   7.181   0.514   0.980
 7115TIP3    H221310   7.069   0.607   1.021
 7116TIP3   OH221311   4.916   5.051   0.208
 7116TIP3    H121312   4.966   5.122   0.167
 7116TIP3    H221313   4.894   5.085   0.294
 7117TIP3   OH221314   6.041   3.378   1.944
 7117TIP3    H121315   6.119   3.323   1.954
 7117TIP3    H221316   6.003   3.352   1.861
 7118TIP3   OH221317   4.121   2.635   3.185
 7118TIP3    H121318   4.156   2.678   3.262
 7118TIP3    H221319   4.148   2.691   3.112
 7119TIP3   OH221320   2.331   2.816   1.681
 7119TIP3    H121321   2.421   2.832   1.711
 7119TIP3    H221322   2.332   2.841   1.589
 7120TIP3   OH221323   5.989   3.772   0.777
 7120TIP3    H121324   6.079   3.749   0.802
 7120TIP3    H221325   5.948   3.799   0.859
 7121TIP3   OH221326   0.447   3.599   0.772
 7121TIP3    H121327   0.460   3.689   0.742
 7121TIP3    H221328   0.353   3.582   0.757
 7122TIP3   OH221329   5.931   5.473   3.077
 7122TIP3    H121330   5.935   5.530   3.153
 7122TIP3    H221331   5.854   5.504   3.028
 7123TIP3   OH221332   2.918   3.883   2.247
 7123TIP3    H121333   2.922   3.970   2.205
 7123TIP3    H221334   2.908   3.902   2.340
 7124TIP3   OH221335   4.801   0.067   5.680
 7124TIP3    H121336   4.749   0.108   5.749
 7124TIP3    H221337   4.819  -0.021   5.712
 7125TIP3   OH221338   0.398   0.601   5.777
 7125TIP3    H121339   0.491   0.586   5.757
 7125TIP3    H221340   0.357   0.515   5.767
 7126TIP3   OH221341   0.830   5.048   3.800
 7126TIP3    H121342   0.861   5.013   3.716
 7126TIP3    H221343   0.835   5.143   3.789
 7127TIP3   OH221344   6.928   4.744   0.124
 7127TIP3    H121345   6.963   4.831   0.104
 7127TIP3    H221346   6.957   4.689   0.051
 7128TIP3   OH221347   2.469   5.784   4.057
 7128TIP3    H121348   2.522   5.766   3.979
 7128TIP3    H221349   2.440   5.875   4.044
 7129TIP3   OH221350   3.561   2.122   1.724
 7129TIP3    H121351   3.609   2.039   1.719
 7129TIP3    H221352   3.536   2.130   1.816
 7130TIP3   OH221353   0.140   2.068   4.457
 7130TIP3    H121354   0.098   2.144   4.497
 7130TIP3    H221355   0.071   2.002   4.453
 7131TIP3   OH221356   4.928   4.505   3.736
 7131TIP3    H121357   4.935   4.482   3.829
 7131TIP3    H221358   4.899   4.425   3.693
 7132TIP3   OH221359   0.500   4.701   1.241
 7132TIP3    H121360   0.588   4.689   1.205
 7132TIP3    H221361   0.462   4.613   1.239
 7133TIP3   OH221362   6.425   1.814   5.469
 7133TIP3    H121363   6.348   1.769   5.435
 7133TIP3    H221364   6.471   1.748   5.521
 7134TIP3   OH221365   5.054   1.124   5.691
 7134TIP3    H121366   5.091   1.176   5.619
 7134TIP3    H221367   4.961   1.116   5.670
 7135TIP3   OH221368   3.451   3.696   2.678
 7135TIP3    H121369   3.389   3.768   2.669
 7135TIP3    H221370   3.458   3.682   2.772
 7136TIP3   OH221371   1.128   1.091   4.741
 7136TIP3    H121372   1.132   1.004   4.701
 7136TIP3    H221373   1.123   1.151   4.667
 7137TIP3   OH221374   2.323   4.506   3.954
 7137TIP3    H121375   2.368   4.457   3.886
 7137TIP3    H221376   2.359   4.594   3.949
 7138TIP3   OH221377   2.118   1.872   1.513
 7138TIP3    H121378   2.205   1.874   1.551
 7138TIP3    H221379   2.131   1.839   1.424
 7139TIP3   OH221380   6.198   0.729   5.156
 7139TIP3    H121381   6.209   0.753   5.064
 7139TIP3    H221382   6.106   0.701   5.162
 7140TIP3   OH221383   3.547   1.195   2.738
 7140TIP3    H121384   3.589   1.273   2.701
 7140TIP3    H221385   3.491   1.163   2.667
 7141TIP3   OH221386   1.855   5.300   4.384
 7141TIP3    H121387   1.793   5.353   4.435
 7141TIP3    H221388   1.876   5.354   4.308
 7142TIP3   OH221389   2.746   5.297   5.176
 7142TIP3    H121390   2.663   5.253   5.160
 7142TIP3    H221391   2.802   5.271   5.102
 7143TIP3   OH221392   6.282   5.598   1.620
 7143TIP3    H121393   6.360   5.647   1.645
 7143TIP3    H221394   6.287   5.517   1.671
 7144TIP3   OH221395   1.762   0.321   2.950
 7144TIP3    H121396   1.672   0.348   2.968
 7144TIP3    H221397   1.761   0.286   2.861
 7145TIP3   OH221398   4.165   0.609   2.227
 7145TIP3    H121399   4.206   0.694   2.215
 7145TIP3    H221400   4.074   0.629   2.251
 7146TIP3   OH221401   6.381   1.999   4.315
 7146TIP3    H121402   6.287   1.988   4.330
 7146TIP3    H221403   6.404   2.077   4.365
 7147TIP3   OH221404   6.447   3.536   4.134
 7147TIP3    H121405   6.365   3.552   4.088
 7147TIP3    H221406   6.428   3.556   4.225
 7148TIP3   OH221407   6.156   3.421   1.217
 7148TIP3    H121408   6.075   3.404   1.265
 7148TIP3    H221409   6.184   3.508   1.246
 7149TIP3   OH221410   2.359   6.715   0.630
 7149TIP3    H121411   2.322   6.688   0.714
 7149TIP3    H221412   2.284   6.723   0.571
 7150TIP3   OH221413   3.477   4.951   2.840
 7150TIP3    H121414   3.512   4.872   2.882
 7150TIP3    H221415   3.382   4.939   2.842
 7151TIP3   OH221416   2.120   6.720   2.571
 7151TIP3    H121417   2.155   6.707   2.483
 7151TIP3    H221418   2.071   6.801   2.566
 7152TIP3   OH221419   1.328   3.628   1.869
 7152TIP3    H121420   1.355   3.696   1.807
 7152TIP3    H221421   1.236   3.612   1.848
 7153TIP3   OH221422   5.864   1.570   1.474
 7153TIP3    H121423   5.922   1.634   1.432
 7153TIP3    H221424   5.876   1.490   1.424
 7154TIP3   OH221425   5.289   2.517   1.288
 7154TIP3    H121426   5.377   2.549   1.269
 7154TIP3    H221427   5.235   2.596   1.287
 7155TIP3   OH221428   2.425   4.753   5.434
 7155TIP3    H121429   2.518   4.766   5.413
 7155TIP3    H221430   2.426   4.704   5.517
 7156TIP3   OH221431   2.671   5.324   0.577
 7156TIP3    H121432   2.609   5.305   0.507
 7156TIP3    H221433   2.622   5.378   0.639
 7157TIP3   OH221434   0.813   2.139   0.981
 7157TIP3    H121435   0.804   2.071   1.048
 7157TIP3    H221436   0.864   2.098   0.912
 7158TIP3   OH221437   5.165   5.569   0.640
 7158TIP3    H121438   5.219   5.544   0.565
 7158TIP3    H221439   5.159   5.490   0.693
 7159TIP3   OH221440   3.289   1.178   2.381
 7159TIP3    H121441   3.292   1.131   2.297
 7159TIP3    H221442   3.377   1.214   2.392
 7160TIP3   OH221443   6.751   0.912   2.116
 7160TIP3    H121444   6.747   0.838   2.178
 7160TIP3    H221445   6.844   0.922   2.097
 7161TIP3   OH221446   3.339   6.053   3.277
 7161TIP3    H121447   3.327   6.016   3.190
 7161TIP3    H221448   3.428   6.089   3.276
 7162TIP3   OH221449   4.416   5.783   0.564
 7162TIP3    H121450   4.403   5.699   0.519
 7162TIP3    H221451   4.419   5.760   0.657
 7163TIP3   OH221452   0.774   0.704   4.397
 7163TIP3    H121453   0.804   0.648   4.469
 7163TIP3    H221454   0.789   0.793   4.430
 7164TIP3   OH221455   4.799   0.284   4.002
 7164TIP3    H121456   4.780   0.266   4.094
 7164TIP3    H221457   4.809   0.379   3.997
 7165TIP3   OH221458   4.849   5.908   4.442
 7165TIP3    H121459   4.841   5.989   4.391
 7165TIP3    H221460   4.925   5.924   4.499
 7166TIP3   OH221461   2.269   5.940   1.241
 7166TIP3    H121462   2.286   5.867   1.182
 7166TIP3    H221463   2.320   5.920   1.320
 7167TIP3   OH221464   5.409   4.838   1.225
 7167TIP3    H121465   5.384   4.746   1.225
 7167TIP3    H221466   5.386   4.869   1.313
 7168TIP3   OH221467   2.586   4.038   0.134
 7168TIP3    H121468   2.660   4.075   0.086
 7168TIP3    H221469   2.602   3.944   0.132
 7169TIP3   OH221470   5.637   2.641   5.003
 7169TIP3    H121471   5.550   2.676   4.985
 7169TIP3    H221472   5.630   2.606   5.092
 7170TIP3   OH221473   1.151   2.823   2.398
 7170TIP3    H121474   1.142   2.747   2.341
 7170TIP3    H221475   1.112   2.797   2.481
 7171TIP3   OH221476   0.439   2.032   1.647
 7171TIP3    H121477   0.350   2.016   1.679
 7171TIP3    H221478   0.431   2.108   1.590
 7172TIP3   OH221479   5.283   4.181   2.863
 7172TIP3    H121480   5.231   4.186   2.943
 7172TIP3    H221481   5.291   4.087   2.846
 7173TIP3   OH221482   5.600   0.540   5.092
 7173TIP3    H121483   5.607   0.532   4.997
 7173TIP3    H221484   5.648   0.620   5.114
 7174TIP3   OH221485   4.534   6.072   3.061
 7174TIP3    H121486   4.612   6.124   3.082
 7174TIP3    H221487   4.543   6.051   2.968
 7175TIP3   OH221488   5.215   1.628   3.325
 7175TIP3    H121489   5.134   1.632   3.274
 7175TIP3    H221490   5.223   1.714   3.365
 7176TIP3   OH221491   1.216   3.463   3.266
 7176TIP3    H121492   1.262   3.521   3.204
 7176TIP3    H221493   1.266   3.382   3.264
 7177TIP3   OH221494   4.129   5.766   5.383
 7177TIP3    H121495   4.087   5.850   5.360
 7177TIP3    H221496   4.060   5.716   5.427
 7178TIP3   OH221497   1.735   6.253   2.482
 7178TIP3    H121498   1.728   6.213   2.396
 7178TIP3    H221499   1.689   6.337   2.473
 7179TIP3   OH221500   5.029   5.552   2.977
 7179TIP3    H121501   4.989   5.508   3.052
 7179TIP3    H221502   5.122   5.529   2.983
 7180TIP3   OH221503   2.530   4.279   1.993
 7180TIP3    H121504   2.548   4.363   1.951
 7180TIP3    H221505   2.437   4.284   2.018
 7181TIP3   OH221506   2.640   0.880   3.223
 7181TIP3    H121507   2.638   0.821   3.298
 7181TIP3    H221508   2.607   0.828   3.150
 7182TIP3   OH221509   3.807   6.153   2.961
 7182TIP3    H121510   3.807   6.057   2.956
 7182TIP3    H221511   3.896   6.176   2.986
 7183TIP3   OH221512   1.099   3.899   1.637
 7183TIP3    H121513   1.117   3.932   1.726
 7183TIP3    H221514   1.176   3.846   1.616
 7184TIP3   OH221515   2.474   0.350   1.006
 7184TIP3    H121516   2.498   0.437   1.037
 7184TIP3    H221517   2.384   0.338   1.034
 7185TIP3   OH221518   5.604   6.762   2.722
 7185TIP3    H121519   5.512   6.780   2.742
 7185TIP3    H221520   5.650   6.842   2.749
 7186TIP3   OH221521   3.299   0.753   3.802
 7186TIP3    H121522   3.297   0.715   3.890
 7186TIP3    H221523   3.224   0.812   3.800
 7187TIP3   OH221524   1.408   3.942   3.982
 7187TIP3    H121525   1.449   4.027   3.968
 7187TIP3    H221526   1.412   3.929   4.077
 7188TIP3   OH221527   1.456   2.803   3.923
 7188TIP3    H121528   1.486   2.791   3.833
 7188TIP3    H221529   1.531   2.781   3.977
 7189TIP3   OH221530   5.847   4.423   2.828
 7189TIP3    H121531   5.861   4.357   2.760
 7189TIP3    H221532   5.908   4.399   2.898
 7190TIP3   OH221533   5.322   3.789   0.924
 7190TIP3    H121534   5.309   3.706   0.878
 7190TIP3    H221535   5.340   3.763   1.014
 7191TIP3   OH221536   2.495   2.661   4.410
 7191TIP3    H121537   2.497   2.568   4.387
 7191TIP3    H221538   2.402   2.680   4.423
 7192TIP3   OH221539   2.546   2.644   2.411
 7192TIP3    H121540   2.478   2.613   2.471
 7192TIP3    H221541   2.515   2.729   2.381
 7193TIP3   OH221542   1.947   4.658   0.504
 7193TIP3    H121543   1.960   4.734   0.446
 7193TIP3    H221544   1.899   4.694   0.579
 7194TIP3   OH221545   0.172   2.949   3.667
 7194TIP3    H121546   0.080   2.927   3.684
 7194TIP3    H221547   0.169   3.016   3.599
 7195TIP3   OH221548   2.312   4.789   3.981
 7195TIP3    H121549   2.394   4.794   4.031
 7195TIP3    H221550   2.321   4.857   3.915
 7196TIP3   OH221551   4.880   6.487   5.672
 7196TIP3    H121552   4.866   6.553   5.740
 7196TIP3    H221553   4.836   6.409   5.705
 7197TIP3   OH221554   2.698   0.101   0.537
 7197TIP3    H121555   2.657   0.187   0.534
 7197TIP3    H221556   2.633   0.045   0.579
 7198TIP3   OH221557   3.767   1.448   4.457
 7198TIP3    H121558   3.777   1.425   4.549
 7198TIP3    H221559   3.726   1.371   4.417
 7199TIP3   OH221560   4.534   2.987   5.196
 7199TIP3    H121561   4.608   2.940   5.233
 7199TIP3    H221562   4.484   2.921   5.148
 7200TIP3   OH221563   5.718   6.105   0.814
 7200TIP3    H121564   5.691   6.014   0.824
 7200TIP3    H221565   5.779   6.104   0.740
 7201TIP3   OH221566   2.224   1.675   3.685
 7201TIP3    H121567   2.295   1.701   3.745
 7201TIP3    H221568   2.250   1.588   3.654
 7202TIP3   OH221569   2.334   0.008   1.145
 7202TIP3    H121570   2.391   0.027   1.071
 7202TIP3    H221571   2.359   0.073   1.211
 7203TIP3   OH221572   1.631   2.940   1.106
 7203TIP3    H121573   1.719   2.907   1.092
 7203TIP3    H221574   1.614   2.925   1.199
 7204TIP3   OH221575   2.248   6.038   3.275
 7204TIP3    H121576   2.291   5.988   3.205
 7204TIP3    H221577   2.189   5.975   3.316
 7205TIP3   OH221578   0.518   5.662   3.518
 7205TIP3    H121579   0.461   5.668   3.595
 7205TIP3    H221580   0.566   5.745   3.517
 7206TIP3   OH221581   5.021   0.795   0.793
 7206TIP3    H121582   4.931   0.773   0.819
 7206TIP3    H221583   5.065   0.710   0.784
 7207TIP3   OH221584   3.724   4.515   0.192
 7207TIP3    H121585   3.650   4.466   0.158
 7207TIP3    H221586   3.688   4.601   0.214
 7208TIP3   OH221587   1.403   4.050   5.517
 7208TIP3    H121588   1.390   4.144   5.510
 7208TIP3    H221589   1.323   4.017   5.558
 7209TIP3   OH221590   6.566   6.208   1.839
 7209TIP3    H121591   6.612   6.204   1.755
 7209TIP3    H221592   6.476   6.184   1.819
 7210TIP3   OH221593   1.422   1.208   1.757
 7210TIP3    H121594   1.505   1.253   1.741
 7210TIP3    H221595   1.447   1.120   1.786
 7211TIP3   OH221596   2.574   3.256   2.508
 7211TIP3    H121597   2.535   3.172   2.531
 7211TIP3    H221598   2.534   3.318   2.568
 7212TIP3   OH221599   0.775   5.446   5.911
 7212TIP3    H121600   0.730   5.528   5.890
 7212TIP3    H221601   0.737   5.418   5.994
 7213TIP3   OH221602   4.963   0.870   2.965
 7213TIP3    H121603   4.959   0.840   2.874
 7213TIP3    H221604   5.003   0.798   3.013
 7214TIP3   OH221605   0.234   2.689   0.612
 7214TIP3    H121606   0.268   2.774   0.584
 7214TIP3    H221607   0.148   2.708   0.649
 7215TIP3   OH221608   6.573   6.490   4.012
 7215TIP3    H121609   6.656   6.489   4.058
 7215TIP3    H221610   6.551   6.397   4.000
 7216TIP3   OH221611   0.978   2.911   1.227
 7216TIP3    H121612   0.894   2.875   1.199
 7216TIP3    H221613   1.026   2.836   1.263
 7217TIP3   OH221614   0.992   5.160   5.131
 7217TIP3    H121615   0.940   5.180   5.209
 7217TIP3    H221616   0.932   5.170   5.058
 7218TIP3   OH221617   3.002   4.188   1.837
 7218TIP3    H121618   2.940   4.172   1.766
 7218TIP3    H221619   2.977   4.274   1.872
 7219TIP3   OH221620   5.555   5.076   4.153
 7219TIP3    H121621   5.468   5.078   4.114
 7219TIP3    H221622   5.602   5.148   4.111
 7220TIP3   OH221623   1.226   2.681   4.474
 7220TIP3    H121624   1.262   2.612   4.419
 7220TIP3    H221625   1.239   2.650   4.564
 7221TIP3   OH221626   0.886   2.349   4.093
 7221TIP3    H121627   0.859   2.441   4.087
 7221TIP3    H221628   0.979   2.351   4.070
 7222TIP3   OH221629   4.614   1.160   3.069
 7222TIP3    H121630   4.645   1.071   3.049
 7222TIP3    H221631   4.519   1.149   3.082
 7223TIP3   OH221632   6.659   5.200   3.794
 7223TIP3    H121633   6.634   5.183   3.885
 7223TIP3    H221634   6.708   5.122   3.768
 7224TIP3   OH221635   1.945   2.240   2.319
 7224TIP3    H121636   1.857   2.204   2.331
 7224TIP3    H221637   1.936   2.300   2.245
 7225TIP3   OH221638   1.221   1.237   2.368
 7225TIP3    H121639   1.208   1.280   2.284
 7225TIP3    H221640   1.308   1.198   2.363
 7226TIP3   OH221641   3.509   5.513   3.788
 7226TIP3    H121642   3.586   5.547   3.833
 7226TIP3    H221643   3.475   5.587   3.738
 7227TIP3   OH221644   1.088   5.391   2.940
 7227TIP3    H121645   0.992   5.396   2.940
 7227TIP3    H221646   1.107   5.308   2.896
 7228TIP3   OH221647   6.648   4.223   3.247
 7228TIP3    H121648   6.581   4.160   3.223
 7228TIP3    H221649   6.695   4.241   3.165
 7229TIP3   OH221650   1.121   2.287   4.640
 7229TIP3    H121651   1.072   2.310   4.562
 7229TIP3    H221652   1.204   2.253   4.607
 7230TIP3   OH221653   6.418   2.495   1.057
 7230TIP3    H121654   6.327   2.519   1.074
 7230TIP3    H221655   6.466   2.578   1.060
 7231TIP3   OH221656   4.266   2.441   5.475
 7231TIP3    H121657   4.302   2.461   5.561
 7231TIP3    H221658   4.180   2.483   5.475
 7232TIP3   OH221659   7.108   6.520   5.550
 7232TIP3    H121660   7.170   6.481   5.488
 7232TIP3    H221661   7.069   6.445   5.595
 7233TIP3   OH221662   4.861   1.969   4.264
 7233TIP3    H121663   4.770   1.978   4.234
 7233TIP3    H221664   4.890   2.058   4.281
 7234TIP3   OH221665   2.600   6.105   0.435
 7234TIP3    H121666   2.683   6.141   0.464
 7234TIP3    H221667   2.534   6.167   0.465
 7235TIP3   OH221668   6.859   3.623   4.630
 7235TIP3    H121669   6.839   3.715   4.617
 7235TIP3    H221670   6.836   3.581   4.547
 7236TIP3   OH221671   3.822   3.458   2.485
 7236TIP3    H121672   3.764   3.399   2.533
 7236TIP3    H221673   3.862   3.403   2.418
 7237TIP3   OH221674   1.136   3.939   0.348
 7237TIP3    H121675   1.224   3.976   0.353
 7237TIP3    H221676   1.114   3.942   0.255
 7238TIP3   OH221677   0.508   5.119   4.840
 7238TIP3    H121678   0.532   5.034   4.802
 7238TIP3    H221679   0.592   5.162   4.856
 7239TIP3   OH221680   5.603   4.687   1.412
 7239TIP3    H121681   5.574   4.597   1.422
 7239TIP3    H221682   5.530   4.740   1.444
 7240TIP3   OH221683   2.533   1.325   1.576
 7240TIP3    H121684   2.609   1.341   1.520
 7240TIP3    H221685   2.487   1.409   1.577
 7241TIP3   OH221686   1.006   2.033   1.835
 7241TIP3    H121687   1.001   1.940   1.856
 7241TIP3    H221688   0.931   2.049   1.777
 7242TIP3   OH221689   4.683   3.380   3.484
 7242TIP3    H121690   4.642   3.363   3.399
 7242TIP3    H221691   4.653   3.308   3.539
 7243TIP3   OH221692   6.643   2.361   1.127
 7243TIP3    H121693   6.682   2.406   1.202
 7243TIP3    H221694   6.565   2.411   1.106
 7244TIP3   OH221695   0.376   0.798   0.651
 7244TIP3    H121696   0.398   0.844   0.732
 7244TIP3    H221697   0.445   0.824   0.590
 7245TIP3   OH221698   5.610   0.407   0.969
 7245TIP3    H121699   5.659   0.333   0.934
 7245TIP3    H221700   5.676   0.462   1.013
 7246TIP3   OH221701   2.354   3.537   5.708
 7246TIP3    H121702   2.311   3.550   5.624
 7246TIP3    H221703   2.444   3.566   5.694
 7247TIP3   OH221704   7.162   6.468   1.719
 7247TIP3    H121705   7.177   6.528   1.792
 7247TIP3    H221706   7.078   6.496   1.682
 7248TIP3   OH221707   1.125   3.343   2.039
 7248TIP3    H121708   1.216   3.314   2.040
 7248TIP3    H221709   1.100   3.347   2.132
 7249TIP3   OH221710   3.928   3.538   5.105
 7249TIP3    H121711   4.023   3.538   5.107
 7249TIP3    H221712   3.903   3.461   5.157
 7250TIP3   OH221713   2.317   1.626   0.279
 7250TIP3    H121714   2.315   1.642   0.373
 7250TIP3    H221715   2.390   1.678   0.247
 7251TIP3   OH221716   1.717   0.638   4.823
 7251TIP3    H121717   1.791   0.694   4.798
 7251TIP3    H221718   1.664   0.633   4.743
 7252TIP3   OH221719   1.864   6.745   5.261
 7252TIP3    H121720   1.953   6.738   5.226
 7252TIP3    H221721   1.853   6.667   5.315
 7253TIP3   OH221722   5.748   1.759   0.447
 7253TIP3    H121723   5.802   1.680   0.453
 7253TIP3    H221724   5.694   1.758   0.526
 7254TIP3   OH221725   0.450   4.623   0.952
 7254TIP3    H121726   0.358   4.599   0.942
 7254TIP3    H221727   0.466   4.687   0.883
 7255TIP3   OH221728   3.895   6.650   4.271
 7255TIP3    H121729   3.902   6.708   4.195
 7255TIP3    H221730   3.983   6.648   4.308
 7256TIP3   OH221731   0.769   2.910   4.782
 7256TIP3    H121732   0.707   2.856   4.832
 7256TIP3    H221733   0.840   2.850   4.759
 7257TIP3   OH221734   6.921   5.524   3.951
 7257TIP3    H121735   6.849   5.537   3.891
 7257TIP3    H221736   7.000   5.539   3.899
 7258TIP3   OH221737   5.940   4.342   3.743
 7258TIP3    H121738   5.853   4.380   3.754
 7258TIP3    H221739   5.996   4.417   3.723
 7259TIP3   OH221740   1.335   4.051   1.778
 7259TIP3    H121741   1.406   4.077   1.838
 7259TIP3    H221742   1.256   4.054   1.831
 7260TIP3   OH221743   4.429   2.268   2.166
 7260TIP3    H121744   4.385   2.330   2.223
 7260TIP3    H221745   4.481   2.323   2.107
 7261TIP3   OH221746   3.642   5.153   2.780
 7261TIP3    H121747   3.572   5.091   2.800
 7261TIP3    H221748   3.722   5.108   2.806
 7262TIP3   OH221749   2.268   5.925   2.052
 7262TIP3    H121750   2.286   6.003   2.105
 7262TIP3    H221751   2.354   5.898   2.019
 7263TIP3   OH221752   1.539   5.896   2.157
 7263TIP3    H121753   1.502   5.853   2.081
 7263TIP3    H221754   1.531   5.832   2.228
 7264TIP3   OH221755   1.431   5.102   4.898
 7264TIP3    H121756   1.512   5.099   4.948
 7264TIP3    H221757   1.438   5.182   4.845
 7265TIP3   OH221758   4.715   6.679   3.362
 7265TIP3    H121759   4.718   6.773   3.346
 7265TIP3    H221760   4.733   6.638   3.278
 7266TIP3   OH221761   5.907   4.197   2.664
 7266TIP3    H121762   5.849   4.151   2.604
 7266TIP3    H221763   5.934   4.131   2.728
 7267TIP3   OH221764   2.409   6.001   0.613
 7267TIP3    H121765   2.448   6.065   0.673
 7267TIP3    H221766   2.482   5.943   0.589
 7268TIP3   OH221767   4.028   2.628   5.406
 7268TIP3    H121768   3.963   2.620   5.336
 7268TIP3    H221769   4.043   2.722   5.413
 7269TIP3   OH221770   5.761   1.981   0.805
 7269TIP3    H121771   5.706   2.021   0.872
 7269TIP3    H221772   5.839   2.036   0.802
 7270TIP3   OH221773   4.241   3.961   1.795
 7270TIP3    H121774   4.218   4.021   1.724
 7270TIP3    H221775   4.209   4.004   1.874
 7271TIP3   OH221776   3.489   0.520   0.485
 7271TIP3    H121777   3.450   0.433   0.487
 7271TIP3    H221778   3.570   0.512   0.536
 7272TIP3   OH221779   4.415   2.933   3.295
 7272TIP3    H121780   4.448   2.963   3.380
 7272TIP3    H221781   4.329   2.975   3.288
 7273TIP3   OH221782   6.848   5.737   0.622
 7273TIP3    H121783   6.874   5.645   0.631
 7273TIP3    H221784   6.879   5.778   0.703
 7274TIP3   OH221785   2.417   6.374   4.371
 7274TIP3    H121786   2.423   6.312   4.444
 7274TIP3    H221787   2.380   6.453   4.410
 7275TIP3   OH221788   6.401   3.565   3.176
 7275TIP3    H121789   6.489   3.581   3.143
 7275TIP3    H221790   6.411   3.556   3.271
 7276TIP3   OH221791   4.671   5.757   4.795
 7276TIP3    H121792   4.729   5.781   4.722
 7276TIP3    H221793   4.627   5.838   4.818
 7277TIP3   OH221794   5.803   0.152   4.531
 7277TIP3    H121795   5.753   0.103   4.595
 7277TIP3    H221796   5.740   0.169   4.460
 7278TIP3   OH221797   1.485   4.575   5.795
 7278TIP3    H121798   1.575   4.560   5.826
 7278TIP3    H221799   1.490   4.557   5.701
 7279TIP3   OH221800   6.717   1.719   2.903
 7279TIP3    H121801   6.746   1.767   2.825
 7279TIP3    H221802   6.781   1.742   2.971
 7280TIP3   OH221803   1.097   5.298   5.444
 7280TIP3    H121804   1.146   5.316   5.524
 7280TIP3    H221805   1.008   5.279   5.474
 7281TIP3   OH221806   2.065   2.036   4.258
 7281TIP3    H121807   2.066   2.108   4.321
 7281TIP3    H221808   2.088   2.078   4.175
 7282TIP3   OH221809   4.754   0.164   2.486
 7282TIP3    H121810   4.659   0.152   2.486
 7282TIP3    H221811   4.770   0.230   2.553
 7283TIP3   OH221812   5.668   6.263   1.417
 7283TIP3    H121813   5.627   6.227   1.496
 7283TIP3    H221814   5.751   6.216   1.409
 7284TIP3   OH221815   2.356   3.332   1.943
 7284TIP3    H121816   2.443   3.365   1.922
 7284TIP3    H221817   2.321   3.301   1.860
 7285TIP3   OH221818   6.267   3.942   1.341
 7285TIP3    H121819   6.281   4.030   1.377
 7285TIP3    H221820   6.177   3.944   1.307
 7286TIP3   OH221821   4.887   6.783   0.637
 7286TIP3    H121822   4.978   6.760   0.617
 7286TIP3    H221823   4.835   6.742   0.568
 7287TIP3   OH221824   6.072   4.507   2.045
 7287TIP3    H121825   6.092   4.553   2.127
 7287TIP3    H221826   6.001   4.559   2.006
 7288TIP3   OH221827   5.438   1.796   0.922
 7288TIP3    H121828   5.501   1.772   0.990
 7288TIP3    H221829   5.468   1.882   0.891
 7289TIP3   OH221830   4.152   0.565   0.753
 7289TIP3    H121831   4.155   0.623   0.829
 7289TIP3    H221832   4.167   0.478   0.790
 7290TIP3   OH221833   5.315   3.383   4.630
 7290TIP3    H121834   5.392   3.427   4.667
 7290TIP3    H221835   5.341   3.362   4.540
 7291TIP3   OH221836   2.511   6.039   3.099
 7291TIP3    H121837   2.518   6.134   3.110
 7291TIP3    H221838   2.460   6.028   3.019
 7292TIP3   OH221839   3.252   2.119   1.316
 7292TIP3    H121840   3.189   2.068   1.266
 7292TIP3    H221841   3.337   2.098   1.276
 7293TIP3   OH221842   3.205   0.425   4.744
 7293TIP3    H121843   3.215   0.488   4.816
 7293TIP3    H221844   3.206   0.479   4.665
 7294TIP3   OH221845   4.013   3.480   0.615
 7294TIP3    H121846   4.102   3.471   0.580
 7294TIP3    H221847   4.022   3.463   0.708
 7295TIP3   OH221848   4.556   3.242   1.721
 7295TIP3    H121849   4.513   3.303   1.781
 7295TIP3    H221850   4.559   3.289   1.637
 7296TIP3   OH221851   7.132   4.759   5.446
 7296TIP3    H121852   7.123   4.726   5.535
 7296TIP3    H221853   7.219   4.731   5.418
 7297TIP3   OH221854   6.715   2.815   1.770
 7297TIP3    H121855   6.810   2.806   1.764
 7297TIP3    H221856   6.690   2.867   1.694
 7298TIP3   OH221857   1.803   2.868   5.485
 7298TIP3    H121858   1.717   2.906   5.501
 7298TIP3    H221859   1.862   2.943   5.476
 7299TIP3   OH221860   2.029   6.526   4.333
 7299TIP3    H121861   2.061   6.541   4.244
 7299TIP3    H221862   1.936   6.505   4.321
 7300TIP3   OH221863   0.809   0.273   2.760
 7300TIP3    H121864   0.718   0.303   2.760
 7300TIP3    H221865   0.828   0.254   2.669
 7301TIP3   OH221866   5.545   0.652   2.306
 7301TIP3    H121867   5.555   0.649   2.401
 7301TIP3    H221868   5.591   0.574   2.275
 7302TIP3   OH221869   6.594   1.578   0.794
 7302TIP3    H121870   6.526   1.511   0.806
 7302TIP3    H221871   6.580   1.639   0.867
 7303TIP3   OH221872   2.384   6.359   5.069
 7303TIP3    H121873   2.401   6.266   5.054
 7303TIP3    H221874   2.459   6.390   5.118
 7304TIP3   OH221875   3.553   1.256   2.415
 7304TIP3    H121876   3.630   1.255   2.471
 7304TIP3    H221877   3.588   1.245   2.326
 7305TIP3   OH221878   4.660   5.760   4.125
 7305TIP3    H121879   4.601   5.738   4.197
 7305TIP3    H221880   4.719   5.685   4.119
 7306TIP3   OH221881   1.462   2.093   1.057
 7306TIP3    H121882   1.378   2.050   1.044
 7306TIP3    H221883   1.479   2.138   0.974
 7307TIP3   OH221884   6.935   0.454   3.670
 7307TIP3    H121885   6.996   0.391   3.630
 7307TIP3    H221886   6.852   0.408   3.673
 7308TIP3   OH221887   6.222   5.057   1.219
 7308TIP3    H121888   6.205   4.967   1.247
 7308TIP3    H221889   6.142   5.084   1.173
 7309TIP3   OH221890   3.979   4.956   4.267
 7309TIP3    H121891   3.960   4.926   4.356
 7309TIP3    H221892   4.046   5.023   4.279
 7310TIP3   OH221893   0.356   6.224   2.891
 7310TIP3    H121894   0.418   6.290   2.921
 7310TIP3    H221895   0.270   6.263   2.905
 7311TIP3   OH221896   4.307   5.964   5.801
 7311TIP3    H121897   4.330   5.875   5.829
 7311TIP3    H221898   4.323   5.965   5.707
 7312TIP3   OH221899   1.225   3.398   3.865
 7312TIP3    H121900   1.283   3.472   3.843
 7312TIP3    H221901   1.179   3.379   3.784
 7313TIP3   OH221902   7.012   0.539   5.573
 7313TIP3    H121903   6.978   0.624   5.545
 7313TIP3    H221904   7.028   0.549   5.667
 7314TIP3   OH221905   2.827   3.563   5.471
 7314TIP3    H121906   2.807   3.656   5.469
 7314TIP3    H221907   2.833   3.541   5.564
 7315TIP3   OH221908   2.010   4.910   0.337
 7315TIP3    H121909   1.950   4.975   0.301
 7315TIP3    H221910   2.067   4.959   0.396
 7316TIP3   OH221911   5.753   5.703   3.134
 7316TIP3    H121912   5.791   5.763   3.068
 7316TIP3    H221913   5.825   5.687   3.195
 7317TIP3   OH221914   5.779   4.440   1.672
 7317TIP3    H121915   5.810   4.512   1.727
 7317TIP3    H221916   5.842   4.436   1.600
 7318TIP3   OH221917   2.459   2.491   1.298
 7318TIP3    H121918   2.525   2.421   1.297
 7318TIP3    H221919   2.437   2.505   1.206
 7319TIP3   OH221920   2.409   2.437   5.840
 7319TIP3    H121921   2.332   2.401   5.794
 7319TIP3    H221922   2.420   2.524   5.802
 7320TIP3   OH221923   7.213   4.494   4.967
 7320TIP3    H121924   7.165   4.526   5.043
 7320TIP3    H221925   7.304   4.488   4.997
 7321TIP3   OH221926   3.152   3.952   3.881
 7321TIP3    H121927   3.057   3.961   3.886
 7321TIP3    H221928   3.167   3.857   3.884
 7322TIP3   OH221929   2.239   1.884   3.070
 7322TIP3    H121930   2.158   1.915   3.111
 7322TIP3    H221931   2.308   1.939   3.109
 7323TIP3   OH221932   5.678   0.832   3.283
 7323TIP3    H121933   5.724   0.913   3.303
 7323TIP3    H221934   5.616   0.820   3.355
 7324TIP3   OH221935   4.498   4.860   4.041
 7324TIP3    H121936   4.408   4.830   4.054
 7324TIP3    H221937   4.495   4.910   3.959
 7325TIP3   OH221938   2.370   5.137   2.002
 7325TIP3    H121939   2.340   5.047   2.011
 7325TIP3    H221940   2.462   5.134   2.025
 7326TIP3   OH221941   5.218   2.080   3.794
 7326TIP3    H121942   5.146   2.140   3.813
 7326TIP3    H221943   5.264   2.072   3.878
 7327TIP3   OH221944   0.944   4.740   2.335
 7327TIP3    H121945   0.980   4.828   2.325
 7327TIP3    H221946   1.016   4.682   2.311
 7328TIP3   OH221947   2.965   2.269   0.437
 7328TIP3    H121948   2.873   2.244   0.445
 7328TIP3    H221949   3.010   2.220   0.506
 7329TIP3   OH221950   3.389   1.993   2.234
 7329TIP3    H121951   3.361   1.994   2.326
 7329TIP3    H221952   3.483   1.976   2.238
 7330TIP3   OH221953   0.422   3.975   2.015
 7330TIP3    H121954   0.351   4.011   2.069
 7330TIP3    H221955   0.460   3.906   2.069
 7331TIP3   OH221956   0.989   4.688   2.899
 7331TIP3    H121957   0.969   4.600   2.869
 7331TIP3    H221958   0.909   4.717   2.943
 7332TIP3   OH221959   1.356   2.440   1.134
 7332TIP3    H121960   1.288   2.387   1.094
 7332TIP3    H221961   1.392   2.492   1.062
 7333TIP3   OH221962   2.460   5.195   5.083
 7333TIP3    H121963   2.373   5.176   5.118
 7333TIP3    H221964   2.447   5.264   5.019
 7334TIP3   OH221965   4.322   0.534   3.463
 7334TIP3    H121966   4.374   0.610   3.489
 7334TIP3    H221967   4.262   0.567   3.396
 7335TIP3   OH221968   0.392   0.187   0.124
 7335TIP3    H121969   0.387   0.173   0.218
 7335TIP3    H221970   0.363   0.277   0.111
 7336TIP3   OH221971   5.441   1.573   3.138
 7336TIP3    H121972   5.358   1.585   3.184
 7336TIP3    H221973   5.437   1.636   3.066
 7337TIP3   OH221974   3.697   6.391   2.881
 7337TIP3    H121975   3.655   6.448   2.945
 7337TIP3    H221976   3.668   6.303   2.904
 7338TIP3   OH221977   4.802   0.733   2.111
 7338TIP3    H121978   4.724   0.686   2.081
 7338TIP3    H221979   4.778   0.826   2.104
 7339TIP3   OH221980   2.731   0.263   4.486
 7339TIP3    H121981   2.800   0.327   4.506
 7339TIP3    H221982   2.656   0.315   4.458
 7340TIP3   OH221983   1.236   4.619   4.258
 7340TIP3    H121984   1.288   4.587   4.184
 7340TIP3    H221985   1.236   4.546   4.320
 7341TIP3   OH221986   3.625   4.114   2.646
 7341TIP3    H121987   3.679   4.130   2.724
 7341TIP3    H221988   3.642   4.022   2.625
 7342TIP3   OH221989   2.068   4.068   4.123
 7342TIP3    H121990   2.126   3.993   4.113
 7342TIP3    H221991   2.107   4.136   4.067
 7343TIP3   OH221992   5.680   5.318   2.402
 7343TIP3    H121993   5.680   5.358   2.315
 7343TIP3    H221994   5.706   5.388   2.461
 7344TIP3   OH221995   2.002   6.192   5.312
 7344TIP3    H121996   1.940   6.120   5.313
 7344TIP3    H221997   1.984   6.239   5.231
 7345TIP3   OH221998   7.075   1.234   1.700
 7345TIP3    H121999   7.157   1.251   1.745
 7345TIP3    H222000   7.095   1.248   1.607
 7346TIP3   OH222001   1.190   0.931   1.163
 7346TIP3    H122002   1.243   0.851   1.169
 7346TIP3    H222003   1.157   0.944   1.252
 7347TIP3   OH222004   6.619   0.528   4.447
 7347TIP3    H122005   6.636   0.446   4.494
 7347TIP3    H222006   6.580   0.500   4.364
 7348TIP3   OH222007   5.385   3.901   3.034
 7348TIP3    H122008   5.297   3.893   3.070
 7348TIP3    H222009   5.394   3.828   2.973
 7349TIP3   OH222010   3.545   0.504   3.466
 7349TIP3    H122011   3.592   0.457   3.534
 7349TIP3    H222012   3.469   0.449   3.448
 7350TIP3   OH222013   0.409   2.154   0.609
 7350TIP3    H122014   0.334   2.158   0.669
 7350TIP3    H222015   0.384   2.211   0.536
 7351TIP3   OH222016   0.559   4.192   3.950
 7351TIP3    H122017   0.520   4.120   3.899
 7351TIP3    H222018   0.652   4.189   3.930
 7352TIP3   OH222019   5.026   1.761   4.451
 7352TIP3    H122020   4.991   1.808   4.526
 7352TIP3    H222021   5.076   1.689   4.488
 7353TIP3   OH222022   3.547   2.752   0.014
 7353TIP3    H122023   3.550   2.658   0.028
 7353TIP3    H222024   3.637   2.782   0.023
 7354TIP3   OH222025   0.834   4.860   4.845
 7354TIP3    H122026   0.816   4.795   4.913
 7354TIP3    H222027   0.927   4.851   4.827
 7355TIP3   OH222028   5.340   0.119   4.626
 7355TIP3    H122029   5.273   0.187   4.625
 7355TIP3    H222030   5.370   0.113   4.536
 7356TIP3   OH222031   3.830   2.512   2.947
 7356TIP3    H122032   3.827   2.605   2.967
 7356TIP3    H222033   3.752   2.496   2.894
 7357TIP3   OH222034   5.892   2.639   2.000
 7357TIP3    H122035   5.840   2.699   2.054
 7357TIP3    H222036   5.844   2.556   2.004
 7358TIP3   OH222037   2.409   4.608   3.238
 7358TIP3    H122038   2.419   4.695   3.278
 7358TIP3    H222039   2.439   4.619   3.148
 7359TIP3   OH222040   2.072   6.077   5.007
 7359TIP3    H122041   2.137   6.049   4.942
 7359TIP3    H222042   2.000   6.112   4.954
 7360TIP3   OH222043   6.257   6.727   4.333
 7360TIP3    H122044   6.266   6.657   4.268
 7360TIP3    H222045   6.192   6.786   4.295
 7361TIP3   OH222046   7.198   5.214   5.601
 7361TIP3    H122047   7.132   5.266   5.557
 7361TIP3    H222048   7.222   5.145   5.538
 7362TIP3   OH222049   0.844   5.620   4.567
 7362TIP3    H122050   0.846   5.711   4.540
 7362TIP3    H222051   0.864   5.622   4.661
 7363TIP3   OH222052   6.380   5.313   5.565
 7363TIP3    H122053   6.326   5.391   5.555
 7363TIP3    H222054   6.319   5.245   5.594
 7364TIP3   OH222055   5.730   0.491   3.453
 7364TIP3    H122056   5.773   0.534   3.527
 7364TIP3    H222057   5.776   0.525   3.376
 7365TIP3   OH222058   3.780   5.053   5.897
 7365TIP3    H122059   3.776   5.016   5.985
 7365TIP3    H222060   3.868   5.089   5.891
 7366TIP3   OH222061   1.367   2.133   3.247
 7366TIP3    H122062   1.347   2.215   3.293
 7366TIP3    H222063   1.374   2.068   3.317
 7367TIP3   OH222064   0.007   1.280   4.067
 7367TIP3    H122065  -0.067   1.243   4.115
 7367TIP3    H222066   0.043   1.206   4.017
 7368TIP3   OH222067   3.479   0.109   2.203
 7368TIP3    H122068   3.556   0.108   2.146
 7368TIP3    H222069   3.476   0.198   2.238
 7369TIP3   OH222070   1.723   3.836   5.041
 7369TIP3    H122071   1.677   3.829   5.125
 7369TIP3    H222072   1.693   3.760   4.991
 7370TIP3   OH222073   0.548   2.839   2.167
 7370TIP3    H122074   0.621   2.858   2.227
 7370TIP3    H222075   0.571   2.756   2.126
 7371TIP3   OH222076   0.413   5.055   1.389
 7371TIP3    H122077   0.386   4.970   1.422
 7371TIP3    H222078   0.473   5.036   1.318
 7372TIP3   OH222079   6.001   2.845   0.217
 7372TIP3    H122080   6.088   2.883   0.200
 7372TIP3    H222081   5.944   2.885   0.150
 7373TIP3   OH222082   6.245   2.857   1.513
 7373TIP3    H122083   6.214   2.779   1.557
 7373TIP3    H222084   6.239   2.926   1.579
 7374TIP3   OH222085   1.702   6.666   4.619
 7374TIP3    H122086   1.650   6.649   4.697
 7374TIP3    H222087   1.704   6.583   4.572
 7375TIP3   OH222088   6.322   2.761   1.826
 7375TIP3    H122089   6.402   2.708   1.822
 7375TIP3    H222090   6.252   2.697   1.838
 7376TIP3   OH222091   5.449   0.563   4.360
 7376TIP3    H122092   5.431   0.654   4.335
 7376TIP3    H222093   5.363   0.520   4.357
 7377TIP3   OH222094   5.177   0.633   2.685
 7377TIP3    H122095   5.162   0.642   2.591
 7377TIP3    H222096   5.089   0.630   2.723
 7378TIP3   OH222097   4.846   2.746   1.476
 7378TIP3    H122098   4.929   2.761   1.430
 7378TIP3    H222099   4.785   2.808   1.435
 7379TIP3   OH222100   0.062   5.596   1.157
 7379TIP3    H122101   0.119   5.656   1.205
 7379TIP3    H222102  -0.013   5.583   1.215
 7380TIP3   OH222103   3.895   4.921   0.307
 7380TIP3    H122104   3.925   4.831   0.315
 7380TIP3    H222105   3.799   4.915   0.303
 7381TIP3   OH222106   4.535   4.543   1.220
 7381TIP3    H122107   4.619   4.559   1.264
 7381TIP3    H222108   4.513   4.453   1.245
 7382TIP3   OH222109   2.291   5.932  -0.009
 7382TIP3    H122110   2.366   5.987  -0.030
 7382TIP3    H222111   2.326   5.865   0.049
 7383TIP3   OH222112   7.142   2.851   5.442
 7383TIP3    H122113   7.230   2.845   5.405
 7383TIP3    H222114   7.137   2.940   5.477
 7384TIP3   OH222115   6.521   3.758   5.286
 7384TIP3    H122116   6.593   3.697   5.268
 7384TIP3    H222117   6.451   3.702   5.319
 7385TIP3   OH222118   6.440   4.176   4.546
 7385TIP3    H122119   6.367   4.238   4.539
 7385TIP3    H222120   6.400   4.090   4.532
 7386TIP3   OH222121   6.433   6.338   1.599
 7386TIP3    H122122   6.388   6.400   1.542
 7386TIP3    H222123   6.481   6.281   1.539
 7387TIP3   OH222124   3.220   0.643   4.935
 7387TIP3    H122125   3.192   0.637   5.026
 7387TIP3    H222126   3.175   0.720   4.901
 7388TIP3   OH222127   7.131   0.549   3.371
 7388TIP3    H122128   7.120   0.644   3.383
 7388TIP3    H222129   7.065   0.525   3.306
 7389TIP3   OH222130   2.512   1.483   5.892
 7389TIP3    H122131   2.463   1.526   5.821
 7389TIP3    H222132   2.498   1.540   5.968
 7390TIP3   OH222133   4.548   1.624   1.186
 7390TIP3    H122134   4.523   1.599   1.275
 7390TIP3    H222135   4.506   1.709   1.173
 7391TIP3   OH222136   3.791   3.866   0.399
 7391TIP3    H122137   3.726   3.810   0.442
 7391TIP3    H222138   3.796   3.944   0.454
 7392TIP3   OH222139   0.354   1.214   0.333
 7392TIP3    H122140   0.394   1.297   0.359
 7392TIP3    H222141   0.427   1.152   0.330
 7393TIP3   OH222142   0.959   0.348   1.214
 7393TIP3    H122143   0.983   0.438   1.196
 7393TIP3    H222144   0.961   0.304   1.129
 7394TIP3   OH222145   1.364   0.498   0.052
 7394TIP3    H122146   1.317   0.448   0.119
 7394TIP3    H222147   1.455   0.497   0.083
 7395TIP3   OH222148   5.773   0.243   4.846
 7395TIP3    H122149   5.800   0.174   4.785
 7395TIP3    H222150   5.691   0.212   4.882
 7396TIP3   OH222151   2.149   6.312   4.523
 7396TIP3    H122152   2.060   6.320   4.558
 7396TIP3    H222153   2.138   6.311   4.428
 7397TIP3   OH222154   2.848   2.238   2.800
 7397TIP3    H122155   2.877   2.329   2.810
 7397TIP3    H222156   2.889   2.208   2.718
 7398TIP3   OH222157   4.470   4.981   1.109
 7398TIP3    H122158   4.510   5.049   1.053
 7398TIP3    H222159   4.377   4.986   1.089
 7399TIP3   OH222160   4.448   4.690   4.698
 7399TIP3    H122161   4.481   4.622   4.639
 7399TIP3    H222162   4.358   4.665   4.714
 7400TIP3   OH222163   4.343   6.437   5.374
 7400TIP3    H122164   4.279   6.481   5.431
 7400TIP3    H222165   4.428   6.459   5.412
 7401TIP3   OH222166   6.552   1.649   4.002
 7401TIP3    H122167   6.538   1.734   4.043
 7401TIP3    H222168   6.532   1.586   4.071
 7402TIP3   OH222169   1.369   3.080   1.607
 7402TIP3    H122170   1.362   3.050   1.697
 7402TIP3    H222171   1.363   3.175   1.612
 7403TIP3   OH222172   0.196   0.720   3.022
 7403TIP3    H122173   0.259   0.701   2.952
 7403TIP3    H222174   0.140   0.788   2.986
 7404TIP3   OH222175   5.353   0.265   0.223
 7404TIP3    H122176   5.338   0.271   0.317
 7404TIP3    H222177   5.327   0.350   0.188
 7405TIP3   OH222178   3.966   3.475   4.552
 7405TIP3    H122179   3.879   3.480   4.591
 7405TIP3    H222180   3.966   3.393   4.504
 7406TIP3   OH222181   2.848   1.342   2.771
 7406TIP3    H122182   2.854   1.270   2.708
 7406TIP3    H222183   2.894   1.311   2.849
 7407TIP3   OH222184   6.321   3.963   0.202
 7407TIP3    H122185   6.280   3.917   0.129
 7407TIP3    H222186   6.326   3.898   0.272
 7408TIP3   OH222187   2.580   0.760   3.444
 7408TIP3    H122188   2.559   0.803   3.527
 7408TIP3    H222189   2.574   0.666   3.464
 7409TIP3   OH222190   4.437   3.467   4.880
 7409TIP3    H122191   4.372   3.535   4.859
 7409TIP3    H222192   4.521   3.513   4.881
 7410TIP3   OH222193   4.881   0.976   4.663
 7410TIP3    H122194   4.903   0.923   4.739
 7410TIP3    H222195   4.964   1.017   4.638
 7411TIP3   OH222196   4.576   2.257   2.414
 7411TIP3    H122197   4.488   2.251   2.452
 7411TIP3    H222198   4.574   2.335   2.360
 7412TIP3   OH222199   1.177   2.810   2.839
 7412TIP3    H122200   1.236   2.735   2.834
 7412TIP3    H222201   1.116   2.797   2.767
 7413TIP3   OH222202   3.283   3.192   1.434
 7413TIP3    H122203   3.303   3.106   1.396
 7413TIP3    H222204   3.325   3.255   1.376
 7414TIP3   OH222205   0.193   1.558   2.028
 7414TIP3    H122206   0.278   1.559   2.072
 7414TIP3    H222207   0.213   1.530   1.938
 7415TIP3   OH222208   5.622   3.011   2.743
 7415TIP3    H122209   5.591   3.099   2.724
 7415TIP3    H222210   5.599   2.960   2.666
 7416TIP3   OH222211   6.481   4.746   4.329
 7416TIP3    H122212   6.483   4.663   4.378
 7416TIP3    H222213   6.569   4.756   4.295
 7417TIP3   OH222214   0.208   5.177   5.719
 7417TIP3    H122215   0.117   5.182   5.689
 7417TIP3    H222216   0.203   5.194   5.813
 7418TIP3   OH222217   4.157   2.378   1.976
 7418TIP3    H122218   4.232   2.361   1.920
 7418TIP3    H222219   4.090   2.412   1.917
 7419TIP3   OH222220   0.526   5.308   5.651
 7419TIP3    H122221   0.466   5.342   5.584
 7419TIP3    H222222   0.493   5.344   5.734
 7420TIP3   OH222223   5.795   5.133   0.715
 7420TIP3    H122224   5.725   5.068   0.706
 7420TIP3    H222225   5.800   5.150   0.809
 7421TIP3   OH222226   2.784   0.346   0.320
 7421TIP3    H122227   2.700   0.300   0.319
 7421TIP3    H222228   2.847   0.284   0.283
 7422TIP3   OH222229   2.686   3.675   1.807
 7422TIP3    H122230   2.754   3.739   1.786
 7422TIP3    H222231   2.629   3.720   1.870
 7423TIP3   OH222232   1.519   5.638   5.560
 7423TIP3    H122233   1.486   5.727   5.574
 7423TIP3    H222234   1.529   5.631   5.465
 7424TIP3   OH222235   5.611   5.618   2.335
 7424TIP3    H122236   5.700   5.616   2.300
 7424TIP3    H222237   5.557   5.585   2.263
 7425TIP3   OH222238   0.255   5.983   5.275
 7425TIP3    H122239   0.250   5.887   5.274
 7425TIP3    H222240   0.173   6.011   5.315
 7426TIP3   OH222241   2.723   2.402   5.699
 7426TIP3    H122242   2.724   2.409   5.604
 7426TIP3    H222243   2.778   2.326   5.719
 7427TIP3   OH222244   1.141   3.617   5.599
 7427TIP3    H122245   1.048   3.595   5.594
 7427TIP3    H222246   1.175   3.599   5.511
 7428TIP3   OH222247   6.200   4.730   5.135
 7428TIP3    H122248   6.209   4.790   5.061
 7428TIP3    H222249   6.232   4.780   5.211
 7429TIP3   OH222250   0.105   1.417   0.645
 7429TIP3    H122251   0.154   1.485   0.692
 7429TIP3    H222252   0.032   1.395   0.702
 7430TIP3   OH222253   5.808   1.064   2.833
 7430TIP3    H122254   5.897   1.053   2.866
 7430TIP3    H222255   5.753   1.066   2.911
 7431TIP3   OH222256   6.240   3.201   4.826
 7431TIP3    H122257   6.204   3.143   4.759
 7431TIP3    H222258   6.231   3.289   4.790
 7432TIP3   OH222259   1.499   6.180   3.596
 7432TIP3    H122260   1.535   6.108   3.544
 7432TIP3    H222261   1.555   6.255   3.577
 7433TIP3   OH222262   4.290   2.567   0.740
 7433TIP3    H122263   4.238   2.640   0.706
 7433TIP3    H222264   4.302   2.510   0.664
 7434TIP3   OH222265   2.316   4.064   1.536
 7434TIP3    H122266   2.287   4.153   1.558
 7434TIP3    H222267   2.295   4.055   1.443
 7435TIP3   OH222268   3.900   6.503   5.789
 7435TIP3    H122269   3.873   6.549   5.709
 7435TIP3    H222270   3.844   6.426   5.792
 7436TIP3   OH222271   6.026   4.896   3.531
 7436TIP3    H122272   5.939   4.917   3.563
 7436TIP3    H222273   6.083   4.906   3.607
 7437TIP3   OH222274   0.133   0.783   5.018
 7437TIP3    H122275   0.139   0.874   5.046
 7437TIP3    H222276   0.216   0.744   5.045
 7438TIP3   OH222277   3.806   2.364   1.786
 7438TIP3    H122278   3.717   2.366   1.821
 7438TIP3    H222279   3.833   2.273   1.794
 7439TIP3   OH222280   1.223   4.322   2.034
 7439TIP3    H122281   1.190   4.350   2.120
 7439TIP3    H222282   1.309   4.284   2.053
 7440TIP3   OH222283   5.053   3.007   3.143
 7440TIP3    H122284   5.092   3.083   3.101
 7440TIP3    H222285   4.986   2.978   3.081
 7441TIP3   OH222286   2.868   0.570   0.194
 7441TIP3    H122287   2.829   0.531   0.116
 7441TIP3    H222288   2.874   0.498   0.256
 7442TIP3   OH222289   5.342   0.665   3.334
 7442TIP3    H122290   5.335   0.745   3.386
 7442TIP3    H222291   5.368   0.597   3.397
 7443TIP3   OH222292   4.222   4.446   0.239
 7443TIP3    H122293   4.278   4.408   0.172
 7443TIP3    H222294   4.241   4.395   0.318
 7444TIP3   OH222295   3.063   6.459   2.171
 7444TIP3    H122296   3.060   6.428   2.261
 7444TIP3    H222297   3.047   6.381   2.118
 7445TIP3   OH222298   6.519   3.815   4.989
 7445TIP3    H122299   6.458   3.857   5.050
 7445TIP3    H222300   6.527   3.877   4.917
 7446TIP3   OH222301   7.207   3.512   5.472
 7446TIP3    H122302   7.135   3.460   5.508
 7446TIP3    H222303   7.244   3.456   5.403
 7447TIP3   OH222304   3.051   0.731   3.971
 7447TIP3    H122305   3.017   0.644   3.949
 7447TIP3    H222306   2.976   0.790   3.959
 7448TIP3   OH222307   0.603   5.863   4.340
 7448TIP3    H122308   0.679   5.874   4.397
 7448TIP3    H222309   0.625   5.788   4.284
 7449TIP3   OH222310   2.815   3.146   2.925
 7449TIP3    H122311   2.733   3.140   2.975
 7449TIP3    H222312   2.787   3.163   2.836
 7450TIP3   OH222313   5.699   5.602   4.006
 7450TIP3    H122314   5.760   5.676   4.008
 7450TIP3    H222315   5.694   5.578   3.913
 7451TIP3   OH222316   4.882   5.427   0.602
 7451TIP3    H122317   4.896   5.336   0.578
 7451TIP3    H222318   4.911   5.477   0.525
 7452TIP3   OH222319   2.883   4.352   5.754
 7452TIP3    H122320   2.928   4.339   5.671
 7452TIP3    H222321   2.792   4.330   5.737
 7453TIP3   OH222322   2.053   4.567   5.410
 7453TIP3    H122323   2.124   4.534   5.354
 7453TIP3    H222324   1.978   4.575   5.351
 7454TIP3   OH222325   6.924   5.694   5.902
 7454TIP3    H122326   6.908   5.632   5.831
 7454TIP3    H222327   6.845   5.749   5.904
 7455TIP3   OH222328   2.091   1.290   0.550
 7455TIP3    H122329   2.097   1.338   0.467
 7455TIP3    H222330   2.116   1.200   0.528
 7456TIP3   OH222331   2.414   4.646   0.305
 7456TIP3    H122332   2.496   4.659   0.258
 7456TIP3    H222333   2.369   4.730   0.299
 7457TIP3   OH222334   4.122   5.654   0.370
 7457TIP3    H122335   4.180   5.611   0.308
 7457TIP3    H222336   4.129   5.748   0.349
 7458TIP3   OH222337   0.818   3.950   1.909
 7458TIP3    H122338   0.745   4.003   1.877
 7458TIP3    H222339   0.796   3.861   1.881
 7459TIP3   OH222340   6.680   2.434   1.995
 7459TIP3    H122341   6.620   2.470   1.929
 7459TIP3    H222342   6.717   2.511   2.038
 7460TIP3   OH222343   5.503   1.458   5.554
 7460TIP3    H122344   5.422   1.435   5.599
 7460TIP3    H222345   5.477   1.471   5.463
 7461TIP3   OH222346   2.570   2.937   2.367
 7461TIP3    H122347   2.623   3.000   2.416
 7461TIP3    H222348   2.633   2.892   2.310
 7462TIP3   OH222349   4.442   5.441   4.185
 7462TIP3    H122350   4.455   5.365   4.241
 7462TIP3    H222351   4.500   5.509   4.222
 7463TIP3   OH222352   5.219   2.769   5.785
 7463TIP3    H122353   5.240   2.714   5.709
 7463TIP3    H222354   5.238   2.713   5.860
 7464TIP3   OH222355   0.616   4.341   3.346
 7464TIP3    H122356   0.621   4.435   3.327
 7464TIP3    H222357   0.592   4.337   3.438
 7465TIP3   OH222358   1.517   0.038   5.394
 7465TIP3    H122359   1.547  -0.048   5.363
 7465TIP3    H222360   1.531   0.036   5.488
 7466TIP3   OH222361   5.267   4.306   4.650
 7466TIP3    H122362   5.202   4.281   4.584
 7466TIP3    H222363   5.305   4.388   4.617
 7467TIP3   OH222364   1.167   2.232   1.982
 7467TIP3    H122365   1.120   2.315   1.969
 7467TIP3    H222366   1.129   2.173   1.918
 7468TIP3   OH222367   5.946   2.175   0.462
 7468TIP3    H122368   5.981   2.089   0.484
 7468TIP3    H222369   6.023   2.231   0.454
 7469TIP3   OH222370   6.519   2.325   5.173
 7469TIP3    H122371   6.555   2.365   5.252
 7469TIP3    H222372   6.552   2.235   5.175
 7470TIP3   OH222373   6.668   3.121   2.634
 7470TIP3    H122374   6.650   3.181   2.707
 7470TIP3    H222375   6.745   3.159   2.592
 7471TIP3   OH222376   6.771   5.226   0.965
 7471TIP3    H122377   6.748   5.140   0.930
 7471TIP3    H222378   6.864   5.220   0.986
 7472TIP3   OH222379   1.169   4.187   5.386
 7472TIP3    H122380   1.113   4.254   5.347
 7472TIP3    H222381   1.239   4.237   5.429
 7473TIP3   OH222382   3.244   6.573   3.002
 7473TIP3    H122383   3.165   6.604   3.047
 7473TIP3    H222384   3.302   6.544   3.073
 7474TIP3   OH222385   2.499   2.352   5.372
 7474TIP3    H122386   2.577   2.382   5.418
 7474TIP3    H222387   2.433   2.420   5.391
 7475TIP3   OH222388   1.602   4.463   4.829
 7475TIP3    H122389   1.585   4.529   4.762
 7475TIP3    H222390   1.697   4.452   4.829
 7476TIP3   OH222391   6.248   2.343   3.105
 7476TIP3    H122392   6.222   2.254   3.129
 7476TIP3    H222393   6.167   2.383   3.072
 7477TIP3   OH222394   1.201   3.926   2.145
 7477TIP3    H122395   1.174   3.912   2.236
 7477TIP3    H222396   1.270   3.861   2.131
 7478TIP3   OH222397   4.259   2.504   0.433
 7478TIP3    H122398   4.171   2.511   0.470
 7478TIP3    H222399   4.255   2.427   0.376
 7479TIP3   OH222400   4.137   3.332   3.072
 7479TIP3    H122401   4.060   3.335   3.129
 7479TIP3    H222402   4.125   3.406   3.012
 7480TIP3   OH222403   3.366   4.309   2.979
 7480TIP3    H122404   3.371   4.399   3.012
 7480TIP3    H222405   3.376   4.317   2.884
 7481TIP3   OH222406   6.327   3.923   4.482
 7481TIP3    H122407   6.282   3.847   4.519
 7481TIP3    H222408   6.263   3.961   4.422
 7482TIP3   OH222409   0.651   0.401   3.628
 7482TIP3    H122410   0.608   0.484   3.606
 7482TIP3    H222411   0.610   0.374   3.711
 7483TIP3   OH222412   6.333   1.737   0.505
 7483TIP3    H122413   6.409   1.708   0.455
 7483TIP3    H222414   6.263   1.746   0.440
 7484TIP3   OH222415   0.245   6.131   3.478
 7484TIP3    H122416   0.321   6.153   3.425
 7484TIP3    H222417   0.215   6.214   3.514
 7485TIP3   OH222418   0.676   4.570   3.490
 7485TIP3    H122419   0.632   4.580   3.574
 7485TIP3    H222420   0.764   4.537   3.513
 7486TIP3   OH222421   1.282   1.217   1.490
 7486TIP3    H122422   1.339   1.214   1.566
 7486TIP3    H222423   1.341   1.231   1.416
 7487TIP3   OH222424   6.724   1.796   1.844
 7487TIP3    H122425   6.649   1.735   1.838
 7487TIP3    H222426   6.708   1.844   1.925
 7488TIP3   OH222427   6.612   3.636   5.611
 7488TIP3    H122428   6.552   3.642   5.536
 7488TIP3    H222429   6.608   3.544   5.637
 7489TIP3   OH222430   5.254   0.549   2.420
 7489TIP3    H122431   5.267   0.523   2.329
 7489TIP3    H222432   5.193   0.485   2.456
 7490TIP3   OH222433   2.049   2.671   5.231
 7490TIP3    H122434   1.968   2.641   5.272
 7490TIP3    H222435   2.051   2.765   5.247
 7491TIP3   OH222436   3.084   1.632   1.272
 7491TIP3    H122437   3.166   1.663   1.312
 7491TIP3    H222438   3.097   1.538   1.262
 7492TIP3   OH222439   5.632   6.431   1.189
 7492TIP3    H122440   5.624   6.350   1.239
 7492TIP3    H222441   5.652   6.498   1.255
 7493TIP3   OH222442   6.073   3.920   3.669
 7493TIP3    H122443   6.016   3.971   3.727
 7493TIP3    H222444   6.022   3.906   3.590
 7494TIP3   OH222445   6.138   1.157   4.032
 7494TIP3    H122446   6.064   1.207   3.998
 7494TIP3    H222447   6.215   1.198   3.992
 7495TIP3   OH222448   1.258   1.700   5.062
 7495TIP3    H122449   1.342   1.714   5.105
 7495TIP3    H222450   1.275   1.717   4.970
 7496TIP3   OH222451   1.954   0.552   2.311
 7496TIP3    H122452   1.860   0.547   2.329
 7496TIP3    H222453   1.992   0.586   2.392
 7497TIP3   OH222454   4.438   4.391   0.044
 7497TIP3    H122455   4.430   4.296   0.028
 7497TIP3    H222456   4.532   4.407   0.046
 7498TIP3   OH222457   6.198   0.605   0.625
 7498TIP3    H122458   6.275   0.653   0.595
 7498TIP3    H222459   6.123   0.655   0.593
 7499TIP3   OH222460   4.937   1.221   4.967
 7499TIP3    H122461   4.918   1.155   4.900
 7499TIP3    H222462   4.991   1.286   4.922
 7500TIP3   OH222463   4.647   3.694   4.032
 7500TIP3    H122464   4.585   3.734   4.093
 7500TIP3    H222465   4.718   3.663   4.088
 7501TIP3   OH222466   4.441   3.899   5.082
 7501TIP3    H122467   4.379   3.964   5.048
 7501TIP3    H222468   4.455   3.924   5.173
 7502TIP3   OH222469   5.671   1.517   4.349
 7502TIP3    H122470   5.597   1.458   4.363
 7502TIP3    H222471   5.726   1.506   4.427
 7503TIP3   OH222472   4.746   5.295   2.707
 7503TIP3    H122473   4.756   5.253   2.793
 7503TIP3    H222474   4.660   5.267   2.677
 7504TIP3   OH222475   5.876   3.311   3.378
 7504TIP3    H122476   5.898   3.290   3.469
 7504TIP3    H222477   5.871   3.407   3.376
 7505TIP3   OH222478   3.486   0.204   1.007
 7505TIP3    H122479   3.509   0.112   1.016
 7505TIP3    H222480   3.394   0.205   0.981
 7506TIP3   OH222481   1.324   2.424   3.722
 7506TIP3    H122482   1.412   2.452   3.700
 7506TIP3    H222483   1.297   2.483   3.793
 7507TIP3   OH222484   4.182   1.522   2.451
 7507TIP3    H122485   4.260   1.578   2.460
 7507TIP3    H222486   4.215   1.433   2.463
 7508TIP3   OH222487   4.925   1.438   4.655
 7508TIP3    H122488   4.834   1.429   4.626
 7508TIP3    H222489   4.970   1.365   4.613
 7509TIP3   OH222490   0.836   6.698   0.430
 7509TIP3    H122491   0.876   6.732   0.350
 7509TIP3    H222492   0.785   6.771   0.465
 7510TIP3   OH222493   6.400   3.740   3.815
 7510TIP3    H122494   6.489   3.742   3.779
 7510TIP3    H222495   6.381   3.831   3.838
 7511TIP3   OH222496   0.965   1.552   2.877
 7511TIP3    H122497   1.020   1.571   2.954
 7511TIP3    H222498   0.980   1.459   2.860
 7512TIP3   OH222499   5.443   5.087   5.004
 7512TIP3    H122500   5.464   5.117   4.915
 7512TIP3    H222501   5.493   5.005   5.013
 7513TIP3   OH222502   4.027   3.075   2.322
 7513TIP3    H122503   3.996   3.070   2.232
 7513TIP3    H222504   4.062   2.987   2.340
 7514TIP3   OH222505   5.924   5.364   4.819
 7514TIP3    H122506   5.996   5.376   4.881
 7514TIP3    H222507   5.963   5.316   4.746
 7515TIP3   OH222508   7.097   1.943   1.460
 7515TIP3    H122509   7.165   1.967   1.522
 7515TIP3    H222510   7.037   1.888   1.510
 7516TIP3   OH222511   4.341   4.426   4.964
 7516TIP3    H122512   4.260   4.378   4.983
 7516TIP3    H222513   4.329   4.511   5.005
 7517TIP3   OH222514   2.434   4.145   2.396
 7517TIP3    H122515   2.529   4.133   2.397
 7517TIP3    H222516   2.409   4.151   2.488
 7518TIP3   OH222517   6.004   4.782   1.171
 7518TIP3    H122518   6.085   4.752   1.211
 7518TIP3    H222519   5.937   4.770   1.238
 7519TIP3   OH222520   3.649   0.212   5.105
 7519TIP3    H122521   3.708   0.249   5.039
 7519TIP3    H222522   3.572   0.269   5.102
 7520TIP3   OH222523   1.290   2.312   2.634
 7520TIP3    H122524   1.268   2.401   2.609
 7520TIP3    H222525   1.242   2.257   2.572
 7521TIP3   OH222526   2.202   5.462   2.915
 7521TIP3    H122527   2.274   5.522   2.937
 7521TIP3    H222528   2.188   5.475   2.821
 7522TIP3   OH222529   1.277   3.282   0.007
 7522TIP3    H122530   1.269   3.305   0.099
 7522TIP3    H222531   1.365   3.247  -0.002
 7523TIP3   OH222532   2.657   4.703   0.182
 7523TIP3    H122533   2.735   4.648   0.181
 7523TIP3    H222534   2.679   4.777   0.125
 7524TIP3   OH222535   5.209   1.004   2.898
 7524TIP3    H122536   5.126   0.956   2.899
 7524TIP3    H222537   5.219   1.031   2.806
 7525TIP3   OH222538   5.460   4.480   0.157
 7525TIP3    H122539   5.383   4.527   0.123
 7525TIP3    H222540   5.424   4.422   0.224
 7526TIP3   OH222541   1.378   3.689   1.103
 7526TIP3    H122542   1.439   3.736   1.162
 7526TIP3    H222543   1.326   3.634   1.162
 7527TIP3   OH222544   4.227   3.240   2.131
 7527TIP3    H122545   4.241   3.178   2.202
 7527TIP3    H222546   4.283   3.208   2.060
 7528TIP3   OH222547   5.898   3.071   1.050
 7528TIP3    H122548   5.979   3.084   1.001
 7528TIP3    H222549   5.917   2.997   1.109
 7529TIP3   OH222550   3.385   5.695   0.961
 7529TIP3    H122551   3.413   5.679   0.871
 7529TIP3    H222552   3.462   5.732   1.004
 7530TIP3   OH222553   0.048   4.819   3.874
 7530TIP3    H122554  -0.047   4.830   3.882
 7530TIP3    H222555   0.070   4.752   3.939
 7531TIP3   OH222556   4.538   5.899   3.336
 7531TIP3    H122557   4.478   5.892   3.262
 7531TIP3    H222558   4.522   5.986   3.373
 7532TIP3   OH222559   4.211   4.368   1.997
 7532TIP3    H122560   4.280   4.334   1.940
 7532TIP3    H222561   4.169   4.290   2.033
 7533TIP3   OH222562   6.040   0.233   4.408
 7533TIP3    H122563   6.091   0.156   4.433
 7533TIP3    H222564   5.958   0.224   4.455
 7534TIP3   OH222565   2.008   6.402   1.526
 7534TIP3    H122566   1.987   6.435   1.613
 7534TIP3    H222567   2.100   6.376   1.532
 7535TIP3   OH222568   1.801   3.115   4.221
 7535TIP3    H122569   1.878   3.097   4.276
 7535TIP3    H222570   1.761   3.029   4.206
 7536TIP3   OH222571   5.915   5.846   0.894
 7536TIP3    H122572   5.945   5.851   0.803
 7536TIP3    H222573   5.948   5.926   0.934
 7537TIP3   OH222574   5.827   0.386   2.564
 7537TIP3    H122575   5.892   0.369   2.632
 7537TIP3    H222576   5.813   0.301   2.522
 7538TIP3   OH222577   2.462   2.886   2.944
 7538TIP3    H122578   2.547   2.864   2.906
 7538TIP3    H222579   2.426   2.801   2.972
 7539TIP3   OH222580   2.250   5.575   5.192
 7539TIP3    H122581   2.196   5.649   5.217
 7539TIP3    H222582   2.256   5.521   5.271
 7540TIP3   OH222583   5.388   2.791   1.496
 7540TIP3    H122584   5.396   2.808   1.402
 7540TIP3    H222585   5.330   2.861   1.528
 7541TIP3   OH222586   3.070   4.044   5.337
 7541TIP3    H122587   3.036   3.967   5.382
 7541TIP3    H222588   3.092   4.105   5.406
 7542TIP3   OH222589   2.117   1.269   4.581
 7542TIP3    H122590   2.026   1.279   4.551
 7542TIP3    H222591   2.110   1.221   4.663
 7543TIP3   OH222592   6.650   4.430   1.653
 7543TIP3    H122593   6.570   4.436   1.600
 7543TIP3    H222594   6.638   4.352   1.707
 7544TIP3   OH222595   3.566   1.090   0.153
 7544TIP3    H122596   3.474   1.068   0.135
 7544TIP3    H222597   3.597   1.018   0.207
 7545TIP3   OH222598   3.422   2.548   1.606
 7545TIP3    H122599   3.343   2.589   1.641
 7545TIP3    H222600   3.494   2.600   1.642
 7546TIP3   OH222601   0.606   0.518   4.696
 7546TIP3    H122602   0.608   0.467   4.777
 7546TIP3    H222603   0.519   0.558   4.695
 7547TIP3   OH222604   2.833   0.058   1.066
 7547TIP3    H122605   2.927   0.069   1.080
 7547TIP3    H222606   2.793   0.089   1.148
 7548TIP3   OH222607   3.067   0.271   5.528
 7548TIP3    H122608   2.994   0.316   5.570
 7548TIP3    H222609   3.144   0.298   5.579
 7549TIP3   OH222610   5.574   1.315   1.375
 7549TIP3    H122611   5.667   1.336   1.362
 7549TIP3    H222612   5.572   1.266   1.457
 7550TIP3   OH222613   5.227   0.454   4.903
 7550TIP3    H122614   5.314   0.489   4.885
 7550TIP3    H222615   5.191   0.435   4.816
 7551TIP3   OH222616   6.130   4.837   0.592
 7551TIP3    H122617   6.061   4.902   0.578
 7551TIP3    H222618   6.127   4.819   0.686
 7552TIP3   OH222619   3.888   1.090   3.639
 7552TIP3    H122620   3.896   1.164   3.578
 7552TIP3    H222621   3.796   1.064   3.633
 7553TIP3   OH222622   7.033   0.695   2.117
 7553TIP3    H122623   7.011   0.630   2.184
 7553TIP3    H222624   6.965   0.685   2.050
 7554TIP3   OH222625   3.110   4.118   5.595
 7554TIP3    H122626   3.117   4.214   5.600
 7554TIP3    H222627   3.194   4.086   5.628
 7555TIP3   OH222628   2.755   4.959   0.441
 7555TIP3    H122629   2.762   5.017   0.517
 7555TIP3    H222630   2.663   4.965   0.415
 7556TIP3   OH222631   5.039   6.722   3.185
 7556TIP3    H122632   4.945   6.713   3.170
 7556TIP3    H222633   5.066   6.637   3.221
 7557TIP3   OH222634   3.346   2.680   4.153
 7557TIP3    H122635   3.406   2.688   4.079
 7557TIP3    H222636   3.302   2.596   4.139
 7558TIP3   OH222637   3.479   4.505   5.194
 7558TIP3    H122638   3.464   4.528   5.102
 7558TIP3    H222639   3.406   4.545   5.241
 7559TIP3   OH222640   1.588   0.136   5.667
 7559TIP3    H122641   1.556   0.217   5.708
 7559TIP3    H222642   1.680   0.155   5.646
 7560TIP3   OH222643   1.572   0.337   0.585
 7560TIP3    H122644   1.556   0.375   0.672
 7560TIP3    H222645   1.667   0.327   0.580
 7561TIP3   OH222646   3.382   2.172   4.276
 7561TIP3    H122647   3.475   2.195   4.276
 7561TIP3    H222648   3.340   2.243   4.325
 7562TIP3   OH222649   3.293   4.117   4.338
 7562TIP3    H122650   3.383   4.150   4.335
 7562TIP3    H222651   3.302   4.026   4.367
 7563TIP3   OH222652   1.789   2.430   4.705
 7563TIP3    H122653   1.747   2.397   4.784
 7563TIP3    H222654   1.729   2.498   4.673
 7564TIP3   OH222655   1.475   3.291   4.344
 7564TIP3    H122656   1.436   3.359   4.289
 7564TIP3    H222657   1.411   3.220   4.343
 7565TIP3   OH222658   4.501   3.667   2.970
 7565TIP3    H122659   4.534   3.577   2.965
 7565TIP3    H222660   4.412   3.657   3.004
 7566TIP3   OH222661   3.338   4.707   0.133
 7566TIP3    H122662   3.387   4.745   0.060
 7566TIP3    H222663   3.353   4.613   0.125
 7567TIP3   OH222664   0.592   5.029   2.871
 7567TIP3    H122665   0.669   5.085   2.869
 7567TIP3    H222666   0.604   4.970   2.797
 7568TIP3   OH222667   1.324   0.631   2.841
 7568TIP3    H122668   1.252   0.693   2.825
 7568TIP3    H222669   1.330   0.579   2.761
 7569TIP3   OH222670   5.237   4.967   1.884
 7569TIP3    H122671   5.289   4.887   1.874
 7569TIP3    H222672   5.163   4.941   1.939
 7570TIP3   OH222673   4.638   6.458   5.285
 7570TIP3    H122674   4.670   6.544   5.258
 7570TIP3    H222675   4.641   6.459   5.380
 7571TIP3   OH222676   6.671   6.699   0.077
 7571TIP3    H122677   6.614   6.684   0.153
 7571TIP3    H222678   6.715   6.616   0.062
 7572TIP3   OH222679   1.351   5.634   2.175
 7572TIP3    H122680   1.395   5.577   2.238
 7572TIP3    H222681   1.396   5.617   2.093
 7573TIP3   OH222682   7.050   5.372   3.388
 7573TIP3    H122683   7.045   5.436   3.318
 7573TIP3    H222684   7.140   5.381   3.422
 7574TIP3   OH222685   4.809   1.283   0.684
 7574TIP3    H122686   4.838   1.295   0.774
 7574TIP3    H222687   4.722   1.244   0.691
 7575TIP3   OH222688   2.577   6.657   4.049
 7575TIP3    H122689   2.636   6.596   4.004
 7575TIP3    H222690   2.515   6.601   4.095
 7576TIP3   OH222691   2.670   4.031   5.863
 7576TIP3    H122692   2.596   3.975   5.890
 7576TIP3    H222693   2.691   4.001   5.775
 7577TIP3   OH222694   2.293   0.189   4.220
 7577TIP3    H122695   2.384   0.189   4.190
 7577TIP3    H222696   2.248   0.247   4.160
 7578TIP3   OH222697   2.245   4.509   4.968
 7578TIP3    H122698   2.195   4.590   4.977
 7578TIP3    H222699   2.265   4.484   5.058
 7579TIP3   OH222700   1.917   6.593   0.019
 7579TIP3    H122701   1.935   6.638  -0.063
 7579TIP3    H222702   1.974   6.515   0.016
 7580TIP3   OH222703   0.537   3.383   4.019
 7580TIP3    H122704   0.453   3.406   4.058
 7580TIP3    H222705   0.602   3.418   4.079
 7581TIP3   OH222706   6.090   5.839   1.224
 7581TIP3    H122707   5.997   5.817   1.227
 7581TIP3    H222708   6.128   5.789   1.296
 7582TIP3   OH222709   4.687   0.258   3.752
 7582TIP3    H122710   4.676   0.166   3.726
 7582TIP3    H222711   4.720   0.253   3.841
 7583TIP3   OH222712   7.090   3.314   2.891
 7583TIP3    H122713   7.079   3.261   2.971
 7583TIP3    H222714   7.162   3.273   2.844
 7584TIP3   OH222715   5.462   6.251   2.475
 7584TIP3    H122716   5.449   6.242   2.569
 7584TIP3    H222717   5.554   6.276   2.466
 7585TIP3   OH222718   2.910   0.145   4.046
 7585TIP3    H122719   3.005   0.133   4.040
 7585TIP3    H222720   2.892   0.219   3.987
 7586TIP3   OH222721   5.814   2.282   1.332
 7586TIP3    H122722   5.891   2.226   1.322
 7586TIP3    H222723   5.850   2.370   1.349
 7587TIP3   OH222724   3.475   6.002   2.281
 7587TIP3    H122725   3.525   5.991   2.362
 7587TIP3    H222726   3.419   5.924   2.277
 7588TIP3   OH222727   2.984   6.128   1.878
 7588TIP3    H122728   3.011   6.217   1.855
 7588TIP3    H222729   2.999   6.122   1.972
 7589TIP3   OH222730   2.252   5.763   0.254
 7589TIP3    H122731   2.325   5.813   0.290
 7589TIP3    H222732   2.179   5.825   0.253
 7590TIP3   OH222733   3.276   0.035   4.288
 7590TIP3    H122734   3.225   0.100   4.338
 7590TIP3    H222735   3.216  -0.040   4.280
 7591TIP3   OH222736   1.513   1.463   3.882
 7591TIP3    H122737   1.480   1.542   3.924
 7591TIP3    H222738   1.437   1.425   3.839
 7592TIP3   OH222739   6.333   2.117   0.371
 7592TIP3    H122740   6.296   2.196   0.410
 7592TIP3    H222741   6.288   2.044   0.415
 7593TIP3   OH222742   1.722   0.913   2.859
 7593TIP3    H122743   1.644   0.928   2.806
 7593TIP3    H222744   1.689   0.905   2.948
 7594TIP3   OH222745   6.324   6.442   1.805
 7594TIP3    H122746   6.374   6.512   1.847
 7594TIP3    H222747   6.384   6.406   1.739
 7595TIP3   OH222748   5.388   4.751   2.470
 7595TIP3    H122749   5.387   4.656   2.483
 7595TIP3    H222750   5.481   4.775   2.473
 7596TIP3   OH222751   5.701   3.808   1.207
 7596TIP3    H122752   5.692   3.713   1.199
 7596TIP3    H222753   5.645   3.844   1.138
 7597TIP3   OH222754   4.441   6.333   1.202
 7597TIP3    H122755   4.424   6.306   1.111
 7597TIP3    H222756   4.364   6.386   1.225
 7598TIP3   OH222757   6.729   1.218   4.979
 7598TIP3    H122758   6.769   1.292   5.025
 7598TIP3    H222759   6.780   1.210   4.899
 7599TIP3   OH222760   5.085   0.397   5.793
 7599TIP3    H122761   5.032   0.465   5.834
 7599TIP3    H222762   5.175   0.430   5.800
 7600TIP3   OH222763   3.406   5.746   3.687
 7600TIP3    H122764   3.422   5.826   3.737
 7600TIP3    H222765   3.421   5.771   3.596
 7601TIP3   OH222766   1.434   5.217   2.486
 7601TIP3    H122767   1.510   5.160   2.500
 7601TIP3    H222768   1.471   5.305   2.486
 7602TIP3   OH222769   0.489   3.209   3.808
 7602TIP3    H122770   0.401   3.226   3.841
 7602TIP3    H222771   0.548   3.247   3.873
 7603TIP3   OH222772   0.779   4.291   0.725
 7603TIP3    H122773   0.811   4.278   0.635
 7603TIP3    H222774   0.849   4.256   0.780
 7604TIP3   OH222775   7.113  -0.024   3.014
 7604TIP3    H122776   7.079  -0.113   3.000
 7604TIP3    H222777   7.173  -0.010   2.941
 7605TIP3   OH222778   5.643   4.292   1.251
 7605TIP3    H122779   5.609   4.208   1.221
 7605TIP3    H222780   5.693   4.272   1.330
 7606TIP3   OH222781   7.157   4.342   0.284
 7606TIP3    H122782   7.152   4.247   0.295
 7606TIP3    H222783   7.191   4.355   0.196
 7607TIP3   OH222784   0.080   2.931   3.279
 7607TIP3    H122785   0.138   2.985   3.332
 7607TIP3    H222786   0.102   2.954   3.189
 7608TIP3   OH222787   5.964   4.618   5.243
 7608TIP3    H122788   6.028   4.659   5.183
 7608TIP3    H222789   5.881   4.659   5.220
 7609TIP3   OH222790   2.816   2.133   3.793
 7609TIP3    H122791   2.823   2.042   3.763
 7609TIP3    H222792   2.728   2.139   3.832
 7610TIP3   OH222793   7.001   4.472   1.974
 7610TIP3    H122794   6.908   4.450   1.984
 7610TIP3    H222795   7.045   4.420   2.042
 7611TIP3   OH222796   1.008   0.750   4.050
 7611TIP3    H122797   0.918   0.776   4.068
 7611TIP3    H222798   1.009   0.729   3.956
 7612TIP3   OH222799   3.600   5.672   2.471
 7612TIP3    H122800   3.635   5.760   2.456
 7612TIP3    H222801   3.667   5.628   2.523
 7613TIP3   OH222802   4.229   0.940   0.438
 7613TIP3    H122803   4.164   0.973   0.375
 7613TIP3    H222804   4.308   0.927   0.386
 7614TIP3   OH222805   6.838   0.433   5.845
 7614TIP3    H122806   6.892   0.355   5.835
 7614TIP3    H222807   6.764   0.420   5.786
 7615TIP3   OH222808   1.292   0.340   2.787
 7615TIP3    H122809   1.210   0.355   2.834
 7615TIP3    H222810   1.281   0.386   2.704
 7616TIP3   OH222811   0.190   5.202   0.095
 7616TIP3    H122812   0.192   5.291   0.129
 7616TIP3    H222813   0.254   5.154   0.148
 7617TIP3   OH222814   5.931   2.929   3.747
 7617TIP3    H122815   5.984   2.914   3.826
 7617TIP3    H222816   5.982   2.891   3.676
 7618TIP3   OH222817   0.229   2.238   0.429
 7618TIP3    H122818   0.241   2.210   0.338
 7618TIP3    H222819   0.136   2.257   0.437
 7619TIP3   OH222820   1.182   3.968   3.852
 7619TIP3    H122821   1.254   3.963   3.915
 7619TIP3    H222822   1.192   3.889   3.798
 7620TIP3   OH222823   1.458   0.085   0.528
 7620TIP3    H122824   1.512   0.037   0.466
 7620TIP3    H222825   1.504   0.169   0.539
 7621TIP3   OH222826   5.565   2.288   1.457
 7621TIP3    H122827   5.569   2.380   1.483
 7621TIP3    H222828   5.643   2.275   1.402
 7622TIP3   OH222829   5.305   1.667   2.515
 7622TIP3    H122830   5.371   1.629   2.572
 7622TIP3    H222831   5.336   1.757   2.500
 7623TIP3   OH222832   0.770   2.502   5.048
 7623TIP3    H122833   0.755   2.422   5.099
 7623TIP3    H222834   0.840   2.480   4.987
 7624TIP3   OH222835   3.722   2.951   2.991
 7624TIP3    H122836   3.690   2.907   3.069
 7624TIP3    H222837   3.666   2.919   2.920
 7625TIP3   OH222838   1.474   1.348   0.340
 7625TIP3    H122839   1.476   1.252   0.340
 7625TIP3    H222840   1.565   1.375   0.355
 7626TIP3   OH222841   6.921   4.714   2.515
 7626TIP3    H122842   6.852   4.752   2.461
 7626TIP3    H222843   6.948   4.636   2.467
 7627TIP3   OH222844   4.850   0.317   5.274
 7627TIP3    H122845   4.885   0.297   5.360
 7627TIP3    H222846   4.872   0.240   5.221
 7628TIP3   OH222847   3.293   1.009   3.340
 7628TIP3    H122848   3.329   0.922   3.360
 7628TIP3    H222849   3.250   0.998   3.256
 7629TIP3   OH222850   3.271   6.630   3.876
 7629TIP3    H122851   3.256   6.720   3.904
 7629TIP3    H222852   3.188   6.585   3.894
 7630TIP3   OH222853   3.497   2.529   4.503
 7630TIP3    H122854   3.488   2.618   4.469
 7630TIP3    H222855   3.468   2.535   4.594
 7631TIP3   OH222856   6.761   0.461   5.328
 7631TIP3    H122857   6.853   0.488   5.335
 7631TIP3    H222858   6.716   0.512   5.396
 7632TIP3   OH222859   2.851   1.364   3.676
 7632TIP3    H122860   2.806   1.307   3.613
 7632TIP3    H222861   2.838   1.320   3.761
 7633TIP3   OH222862   5.486   4.445   1.488
 7633TIP3    H122863   5.525   4.455   1.574
 7633TIP3    H222864   5.452   4.356   1.486
 7634TIP3   OH222865   1.967   3.957   1.469
 7634TIP3    H122866   1.965   4.050   1.445
 7634TIP3    H222867   1.888   3.921   1.429
 7635TIP3   OH222868   0.152   2.205   5.309
 7635TIP3    H122869   0.179   2.143   5.377
 7635TIP3    H222870   0.116   2.279   5.357
 7636TIP3   OH222871   1.001   1.947   5.563
 7636TIP3    H122872   0.909   1.966   5.583
 7636TIP3    H222873   1.025   2.013   5.498
 7637TIP3   OH222874   5.955   2.171   0.892
 7637TIP3    H122875   6.017   2.235   0.857
 7637TIP3    H222876   5.981   2.160   0.983
 7638TIP3   OH222877   2.521   5.686   5.887
 7638TIP3    H122878   2.516   5.632   5.809
 7638TIP3    H222879   2.430   5.702   5.911
 7639TIP3   OH222880   3.761   3.363   1.537
 7639TIP3    H122881   3.750   3.386   1.445
 7639TIP3    H222882   3.672   3.348   1.569
 7640TIP3   OH222883   1.795   6.457   4.217
 7640TIP3    H122884   1.774   6.369   4.186
 7640TIP3    H222885   1.777   6.514   4.142
 7641TIP3   OH222886   2.780   1.380   1.104
 7641TIP3    H122887   2.824   1.447   1.053
 7641TIP3    H222888   2.851   1.332   1.148
 7642TIP3   OH222889   0.274   6.644   5.604
 7642TIP3    H122890   0.368   6.641   5.583
 7642TIP3    H222891   0.234   6.687   5.529
 7643TIP3   OH222892   0.150   4.338   1.783
 7643TIP3    H122893   0.063   4.299   1.794
 7643TIP3    H222894   0.132   4.425   1.747
 7644TIP3   OH222895   6.909   6.583   3.209
 7644TIP3    H122896   6.923   6.677   3.220
 7644TIP3    H222897   6.816   6.570   3.230
 7645TIP3   OH222898   1.422   5.850   4.980
 7645TIP3    H122899   1.488   5.801   4.931
 7645TIP3    H222900   1.341   5.800   4.967
 7646TIP3   OH222901   7.011   6.576   1.520
 7646TIP3    H122902   6.930   6.528   1.504
 7646TIP3    H222903   7.035   6.613   1.435
 7647TIP3   OH222904   3.530   4.416   4.197
 7647TIP3    H122905   3.440   4.396   4.221
 7647TIP3    H222906   3.524   4.450   4.107
 7648TIP3   OH222907   0.111   0.887   5.579
 7648TIP3    H122908   0.104   0.981   5.568
 7648TIP3    H222909   0.199   0.873   5.614
 7649TIP3   OH222910   4.661   6.243   3.992
 7649TIP3    H122911   4.627   6.314   3.938
 7649TIP3    H222912   4.747   6.223   3.954
 7650TIP3   OH222913   5.457   4.325   1.980
 7650TIP3    H122914   5.422   4.356   2.063
 7650TIP3    H222915   5.403   4.250   1.957
 7651TIP3   OH222916   3.445   5.749   1.710
 7651TIP3    H122917   3.357   5.763   1.674
 7651TIP3    H222918   3.434   5.678   1.773
 7652TIP3   OH222919   3.232   2.273   4.505
 7652TIP3    H122920   3.249   2.349   4.560
 7652TIP3    H222921   3.141   2.248   4.524
 7653TIP3   OH222922   5.682   3.988   4.793
 7653TIP3    H122923   5.592   4.008   4.819
 7653TIP3    H222924   5.727   3.968   4.875
 7654TIP3   OH222925   0.105   3.009   3.013
 7654TIP3    H122926   0.096   2.918   2.984
 7654TIP3    H222927   0.093   3.061   2.933
 7655TIP3   OH222928   0.512   1.254   1.669
 7655TIP3    H122929   0.529   1.268   1.576
 7655TIP3    H222930   0.588   1.204   1.700
 7656TIP3   OH222931   4.832   6.124   4.256
 7656TIP3    H122932   4.903   6.135   4.320
 7656TIP3    H222933   4.789   6.210   4.254
 7657TIP3   OH222934   5.466   4.018   5.391
 7657TIP3    H122935   5.385   4.032   5.343
 7657TIP3    H222936   5.439   3.966   5.467
 7658TIP3   OH222937   5.589   5.474   0.780
 7658TIP3    H122938   5.618   5.516   0.699
 7658TIP3    H222939   5.540   5.397   0.752
 7659TIP3   OH222940   4.295   1.693   3.631
 7659TIP3    H122941   4.251   1.608   3.631
 7659TIP3    H222942   4.247   1.744   3.697
 7660TIP3   OH222943   6.231   0.337   2.237
 7660TIP3    H122944   6.303   0.336   2.301
 7660TIP3    H222945   6.272   0.367   2.156
 7661TIP3   OH222946   3.927   5.675   1.747
 7661TIP3    H122947   3.838   5.699   1.774
 7661TIP3    H222948   3.950   5.601   1.803
 7662TIP3   OH222949   6.584   5.476   1.209
 7662TIP3    H122950   6.578   5.518   1.123
 7662TIP3    H222951   6.494   5.476   1.242
 7663TIP3   OH222952   1.990   5.928   2.598
 7663TIP3    H122953   1.933   6.005   2.596
 7663TIP3    H222954   1.932   5.856   2.624
 7664TIP3   OH222955   5.654   5.237   5.867
 7664TIP3    H122956   5.642   5.236   5.961
 7664TIP3    H222957   5.569   5.213   5.831
 7665TIP3   OH222958   5.356   0.683   0.772
 7665TIP3    H122959   5.430   0.634   0.737
 7665TIP3    H222960   5.280   0.626   0.756
 7666TIP3   OH222961   0.876   6.696   1.266
 7666TIP3    H122962   0.938   6.747   1.318
 7666TIP3    H222963   0.815   6.658   1.330
 7667TIP3   OH222964   2.467   3.241   2.230
 7667TIP3    H122965   2.482   3.260   2.322
 7667TIP3    H222966   2.514   3.310   2.183
 7668TIP3   OH222967   3.304   3.393   3.752
 7668TIP3    H122968   3.350   3.470   3.784
 7668TIP3    H222969   3.252   3.424   3.678
 7669TIP3   OH222970   4.462   2.005   5.054
 7669TIP3    H122971   4.428   2.056   5.128
 7669TIP3    H222972   4.400   1.932   5.045
 7670TIP3   OH222973   3.329   3.077   5.832
 7670TIP3    H122974   3.238   3.047   5.821
 7670TIP3    H222975   3.381   2.997   5.828
 7671TIP3   OH222976   6.145   2.438   0.705
 7671TIP3    H122977   6.236   2.415   0.687
 7671TIP3    H222978   6.150   2.513   0.764
 7672TIP3   OH222979   5.921   1.132   5.402
 7672TIP3    H122980   5.833   1.096   5.407
 7672TIP3    H222981   5.978   1.055   5.391
 7673TIP3   OH222982   2.693   3.646   1.059
 7673TIP3    H122983   2.690   3.552   1.077
 7673TIP3    H222984   2.602   3.674   1.066
 7674TIP3   OH222985   1.184   6.476   0.968
 7674TIP3    H122986   1.208   6.445   1.055
 7674TIP3    H222987   1.135   6.404   0.929
 7675TIP3   OH222988   5.490   3.141   3.030
 7675TIP3    H122989   5.529   3.053   3.024
 7675TIP3    H222990   5.513   3.171   3.118
 7676TIP3   OH222991   0.205   3.509   2.350
 7676TIP3    H122992   0.261   3.450   2.401
 7676TIP3    H222993   0.169   3.454   2.280
 7677TIP3   OH222994   4.945   1.733   5.123
 7677TIP3    H122995   5.005   1.802   5.096
 7677TIP3    H222996   4.922   1.688   5.042
 7678TIP3   OH222997   3.998   3.911   2.918
 7678TIP3    H122998   4.026   4.000   2.940
 7678TIP3    H222999   3.975   3.915   2.825
 7679TIP3   OH223000   0.577   1.564   1.129
 7679TIP3    H123001   0.587   1.658   1.143
 7679TIP3    H223002   0.662   1.527   1.154
 7680TIP3   OH223003   5.074   5.969   4.691
 7680TIP3    H123004   5.116   5.922   4.619
 7680TIP3    H223005   5.128   5.949   4.768
 7681TIP3   OH223006   1.221   3.685   2.335
 7681TIP3    H123007   1.186   3.733   2.409
 7681TIP3    H223008   1.143   3.659   2.285
 7682TIP3   OH223009   2.724   6.106   4.453
 7682TIP3    H123010   2.665   6.167   4.409
 7682TIP3    H223011   2.760   6.052   4.382
 7683TIP3   OH223012   6.887   1.939   0.709
 7683TIP3    H123013   6.807   1.971   0.752
 7683TIP3    H223014   6.876   1.844   0.706
 7684TIP3   OH223015   3.171   2.151   4.852
 7684TIP3    H123016   3.095   2.136   4.795
 7684TIP3    H223017   3.148   2.228   4.904
 7685TIP3   OH223018   7.132   3.598   2.840
 7685TIP3    H123019   7.100   3.524   2.891
 7685TIP3    H223020   7.192   3.560   2.776
 7686TIP3   OH223021   4.582   5.623   5.832
 7686TIP3    H123022   4.639   5.552   5.862
 7686TIP3    H223023   4.571   5.608   5.738
 7687TIP3   OH223024   5.159   5.264   1.333
 7687TIP3    H123025   5.226   5.244   1.268
 7687TIP3    H223026   5.134   5.179   1.369
 7688TIP3   OH223027   4.760   6.750   4.146
 7688TIP3    H123028   4.831   6.791   4.195
 7688TIP3    H223029   4.805   6.700   4.077
 7689TIP3   OH223030   1.117   3.757   0.591
 7689TIP3    H123031   1.086   3.730   0.677
 7689TIP3    H223032   1.203   3.716   0.582
 7690TIP3   OH223033   6.975   0.316   0.130
 7690TIP3    H123034   6.971   0.370   0.210
 7690TIP3    H223035   7.050   0.259   0.145
 7691TIP3   OH223036   6.024   4.428   0.148
 7691TIP3    H123037   6.075   4.509   0.143
 7691TIP3    H223038   5.942   4.455   0.190
 7692TIP3   OH223039   6.558   0.255   2.537
 7692TIP3    H123040   6.503   0.266   2.614
 7692TIP3    H223041   6.636   0.308   2.556
 7693TIP3   OH223042   1.160   3.315   1.450
 7693TIP3    H123043   1.072   3.286   1.426
 7693TIP3    H223044   1.213   3.296   1.373
 7694TIP3   OH223045   0.398   1.911   4.064
 7694TIP3    H123046   0.320   1.966   4.076
 7694TIP3    H223047   0.429   1.933   3.976
 7695TIP3   OH223048   1.245   1.598   2.996
 7695TIP3    H123049   1.324   1.579   3.046
 7695TIP3    H223050   1.272   1.664   2.932
 7696TIP3   OH223051   1.833   5.298   5.751
 7696TIP3    H123052   1.771   5.330   5.685
 7696TIP3    H223053   1.861   5.376   5.798
 7697TIP3   OH223054   3.544   4.952   3.204
 7697TIP3    H123055   3.562   4.860   3.221
 7697TIP3    H223056   3.623   4.998   3.231
 7698TIP3   OH223057   2.147   0.081   4.437
 7698TIP3    H123058   2.194   0.120   4.363
 7698TIP3    H223059   2.211   0.022   4.477
 7699TIP3   OH223060   3.042   3.217   2.674
 7699TIP3    H123061   2.950   3.242   2.679
 7699TIP3    H223062   3.043   3.143   2.614
 7700TIP3   OH223063   0.108   6.226   5.081
 7700TIP3    H123064   0.054   6.284   5.027
 7700TIP3    H223065   0.149   6.285   5.145
 7701TIP3   OH223066   3.589   4.668   5.944
 7701TIP3    H123067   3.569   4.699   5.856
 7701TIP3    H223068   3.507   4.678   5.992
 7702TIP3   OH223069   0.294   5.358   5.368
 7702TIP3    H123070   0.253   5.275   5.391
 7702TIP3    H223071   0.222   5.413   5.338
 7703TIP3   OH223072   4.033   5.661   0.825
 7703TIP3    H123073   4.047   5.626   0.737
 7703TIP3    H223074   3.967   5.603   0.864
 7704TIP3   OH223075   0.309   4.213   2.797
 7704TIP3    H123076   0.333   4.283   2.736
 7704TIP3    H223077   0.297   4.136   2.742
 7705TIP3   OH223078   5.799   2.668   4.774
 7705TIP3    H123079   5.765   2.633   4.857
 7705TIP3    H223080   5.833   2.591   4.728
 7706TIP3   OH223081   4.266   0.702   4.547
 7706TIP3    H123082   4.313   0.658   4.477
 7706TIP3    H223083   4.178   0.716   4.512
 7707TIP3   OH223084   4.096   1.006   4.462
 7707TIP3    H123085   4.192   1.001   4.458
 7707TIP3    H223086   4.075   1.091   4.423
 7708TIP3   OH223087   3.379   2.955   3.105
 7708TIP3    H123088   3.444   2.886   3.089
 7708TIP3    H223089   3.324   2.921   3.175
 7709TIP3   OH223090   1.855   6.172   4.861
 7709TIP3    H123091   1.895   6.177   4.774
 7709TIP3    H223092   1.831   6.262   4.882
 7710TIP3   OH223093   4.947   5.370   1.499
 7710TIP3    H123094   4.876   5.372   1.435
 7710TIP3    H223095   5.026   5.356   1.447
 7711TIP3   OH223096   0.620   3.525   1.633
 7711TIP3    H123097   0.548   3.574   1.673
 7711TIP3    H223098   0.596   3.433   1.646
 7712TIP3   OH223099   3.526   5.354   2.590
 7712TIP3    H123100   3.575   5.297   2.650
 7712TIP3    H223101   3.592   5.387   2.529
 7713TIP3   OH223102   3.569   1.703   1.238
 7713TIP3    H123103   3.612   1.787   1.223
 7713TIP3    H223104   3.541   1.674   1.151
 7714TIP3   OH223105   5.524   1.004   4.771
 7714TIP3    H123106   5.472   1.077   4.804
 7714TIP3    H223107   5.465   0.957   4.712
 7715TIP3   OH223108   6.798   1.145   3.899
 7715TIP3    H123109   6.805   1.222   3.956
 7715TIP3    H223110   6.705   1.142   3.875
 7716TIP3   OH223111   2.842   2.087   2.014
 7716TIP3    H123112   2.913   2.061   2.074
 7716TIP3    H223113   2.783   2.139   2.069
 7717TIP3   OH223114   6.311   5.821   0.443
 7717TIP3    H123115   6.358   5.793   0.364
 7717TIP3    H223116   6.377   5.818   0.512
 7718TIP3   OH223117   4.539   2.125   1.602
 7718TIP3    H123118   4.597   2.065   1.556
 7718TIP3    H223119   4.452   2.107   1.568
 7719TIP3   OH223120   1.555   2.423   1.653
 7719TIP3    H123121   1.617   2.488   1.620
 7719TIP3    H223122   1.511   2.390   1.574
 7720TIP3   OH223123   4.441   4.213   0.876
 7720TIP3    H123124   4.362   4.177   0.918
 7720TIP3    H223125   4.513   4.186   0.933
 7721TIP3   OH223126   3.554   2.528   3.962
 7721TIP3    H123127   3.590   2.558   4.046
 7721TIP3    H223128   3.555   2.432   3.969
 7722TIP3   OH223129   4.106   3.424   3.808
 7722TIP3    H123130   4.109   3.513   3.773
 7722TIP3    H223131   4.022   3.420   3.855
 7723TIP3   OH223132   5.531   0.173   5.031
 7723TIP3    H123133   5.567   0.207   5.113
 7723TIP3    H223134   5.455   0.229   5.014
 7724TIP3   OH223135   1.030   3.893   4.220
 7724TIP3    H123136   1.056   3.827   4.283
 7724TIP3    H223137   1.021   3.846   4.137
 7725TIP3   OH223138   2.935   1.583   3.999
 7725TIP3    H123139   3.007   1.645   3.987
 7725TIP3    H223140   2.889   1.613   4.078
 7726TIP3   OH223141   4.642   2.722   1.180
 7726TIP3    H123142   4.569   2.775   1.211
 7726TIP3    H223143   4.615   2.631   1.198
 7727TIP3   OH223144   4.517   0.515   4.668
 7727TIP3    H123145   4.502   0.606   4.696
 7727TIP3    H223146   4.487   0.462   4.741
 7728TIP3   OH223147   1.539   6.718   0.662
 7728TIP3    H123148   1.512   6.626   0.671
 7728TIP3    H223149   1.509   6.743   0.575
 7729TIP3   OH223150   2.965   3.654   4.236
 7729TIP3    H123151   3.020   3.701   4.174
 7729TIP3    H223152   3.019   3.581   4.266
 7730TIP3   OH223153   0.707   1.621   1.644
 7730TIP3    H123154   0.685   1.586   1.557
 7730TIP3    H223155   0.698   1.716   1.635
 7731TIP3   OH223156   6.708   4.886   2.677
 7731TIP3    H123157   6.802   4.882   2.694
 7731TIP3    H223158   6.696   4.839   2.595
 7732TIP3   OH223159   1.069   2.425   5.264
 7732TIP3    H123160   1.101   2.465   5.183
 7732TIP3    H223161   1.129   2.457   5.332
 7733TIP3   OH223162   5.288   0.486   0.081
 7733TIP3    H123163   5.333   0.559   0.038
 7733TIP3    H223164   5.255   0.433   0.009
 7734TIP3   OH223165   1.908   6.558   2.709
 7734TIP3    H123166   1.883   6.620   2.777
 7734TIP3    H223167   1.977   6.602   2.661
 7735TIP3   OH223168   5.579   4.059   1.751
 7735TIP3    H123169   5.665   4.100   1.753
 7735TIP3    H223170   5.596   3.969   1.724
 7736TIP3   OH223171   0.694   4.413   4.786
 7736TIP3    H123172   0.690   4.364   4.704
 7736TIP3    H223173   0.603   4.427   4.811
 7737TIP3   OH223174   4.995   1.829   5.464
 7737TIP3    H123175   5.082   1.846   5.427
 7737TIP3    H223176   4.937   1.887   5.415
 7738TIP3   OH223177   6.257   3.220   1.973
 7738TIP3    H123178   6.338   3.260   2.004
 7738TIP3    H223179   6.286   3.156   1.908
 7739TIP3   OH223180   0.400   6.591   3.464
 7739TIP3    H123181   0.476   6.609   3.409
 7739TIP3    H223182   0.326   6.592   3.404
 7740TIP3   OH223183   6.627   4.668   2.144
 7740TIP3    H123184   6.607   4.637   2.055
 7740TIP3    H223185   6.696   4.610   2.174
 7741TIP3   OH223186   3.031   3.696  -0.001
 7741TIP3    H123187   2.954   3.731   0.043
 7741TIP3    H223188   3.083   3.657   0.068
 7742TIP3   OH223189   2.064   2.413   4.852
 7742TIP3    H123190   2.059   2.317   4.844
 7742TIP3    H223191   1.999   2.445   4.790
 7743TIP3   OH223192   3.904   4.651   2.421
 7743TIP3    H123193   3.860   4.584   2.473
 7743TIP3    H223194   3.885   4.627   2.330
 7744TIP3   OH223195   0.130   3.790   1.212
 7744TIP3    H123196   0.207   3.841   1.236
 7744TIP3    H223197   0.061   3.820   1.271
 7745TIP3   OH223198   2.833   5.970   4.249
 7745TIP3    H123199   2.871   5.889   4.284
 7745TIP3    H223200   2.907   6.015   4.209
 7746TIP3   OH223201   1.608   6.283   5.430
 7746TIP3    H123202   1.664   6.361   5.435
 7746TIP3    H223203   1.519   6.318   5.420
 7747TIP3   OH223204   6.038   3.140   5.019
 7747TIP3    H123205   6.115   3.175   4.975
 7747TIP3    H223206   5.972   3.209   5.011
 7748TIP3   OH223207   6.953   3.266   1.693
 7748TIP3    H123208   7.006   3.317   1.631
 7748TIP3    H223209   6.902   3.207   1.637
 7749TIP3   OH223210   5.337   0.349   1.085
 7749TIP3    H123211   5.330   0.409   1.159
 7749TIP3    H223212   5.423   0.367   1.047
 7750TIP3   OH223213   3.006   4.423   1.061
 7750TIP3    H123214   2.959   4.401   0.980
 7750TIP3    H223215   3.076   4.481   1.034
 7751TIP3   OH223216   4.760   5.838   5.374
 7751TIP3    H123217   4.691   5.771   5.375
 7751TIP3    H223218   4.736   5.895   5.301
 7752TIP3   OH223219   1.326   5.565   4.155
 7752TIP3    H123220   1.244   5.614   4.144
 7752TIP3    H223221   1.330   5.546   4.248
 7753TIP3   OH223222   4.335   4.891   1.856
 7753TIP3    H123223   4.386   4.876   1.936
 7753TIP3    H223224   4.362   4.978   1.826
 7754TIP3   OH223225   5.376   3.118   2.563
 7754TIP3    H123226   5.305   3.141   2.623
 7754TIP3    H223227   5.344   3.041   2.516
 7755TIP3   OH223228   3.905   0.839   0.400
 7755TIP3    H123229   3.905   0.772   0.469
 7755TIP3    H223230   3.968   0.806   0.335
 7756TIP3   OH223231   1.674   4.339   1.896
 7756TIP3    H123232   1.633   4.253   1.892
 7756TIP3    H223233   1.741   4.338   1.827
 7757TIP3   OH223234   1.910   0.791   4.717
 7757TIP3    H123235   1.846   0.841   4.667
 7757TIP3    H223236   1.946   0.854   4.780
 7758TIP3   OH223237   4.769   6.228   3.218
 7758TIP3    H123238   4.780   6.133   3.223
 7758TIP3    H223239   4.830   6.263   3.283
 7759TIP3   OH223240   6.850   1.325   2.986
 7759TIP3    H123241   6.903   1.401   2.964
 7759TIP3    H223242   6.771   1.335   2.932
 7760TIP3   OH223243   5.623   1.134   2.660
 7760TIP3    H123244   5.689   1.111   2.726
 7760TIP3    H223245   5.607   1.051   2.613
 7761TIP3   OH223246   1.180   4.900   5.255
 7761TIP3    H123247   1.210   4.990   5.242
 7761TIP3    H223248   1.201   4.856   5.173
 7762TIP3   OH223249   1.610   6.527   3.383
 7762TIP3    H123250   1.603   6.433   3.400
 7762TIP3    H223251   1.674   6.559   3.446
 7763TIP3   OH223252   4.908   6.227   2.616
 7763TIP3    H123253   4.946   6.158   2.561
 7763TIP3    H223254   4.942   6.209   2.704
 7764TIP3   OH223255   5.439   0.807   2.664
 7764TIP3    H123256   5.504   0.798   2.733
 7764TIP3    H223257   5.355   0.789   2.708
 7765TIP3   OH223258   1.842   3.011   0.579
 7765TIP3    H123259   1.816   3.100   0.554
 7765TIP3    H223260   1.760   2.970   0.608
 7766TIP3   OH223261   4.522   1.658   4.714
 7766TIP3    H123262   4.451   1.646   4.652
 7766TIP3    H223263   4.600   1.672   4.660
 7767TIP3   OH223264   0.132   2.719   5.636
 7767TIP3    H123265   0.151   2.675   5.719
 7767TIP3    H223266   0.129   2.649   5.572
 7768TIP3   OH223267   5.287   5.599   1.680
 7768TIP3    H123268   5.196   5.598   1.710
 7768TIP3    H223269   5.307   5.692   1.670
 7769TIP3   OH223270   5.835   6.206   1.995
 7769TIP3    H123271   5.783   6.243   1.923
 7769TIP3    H223272   5.770   6.171   2.056
 7770TIP3   OH223273   1.014   4.753   4.301
 7770TIP3    H123274   1.097   4.707   4.297
 7770TIP3    H223275   0.959   4.709   4.236
 7771TIP3   OH223276   2.440   5.346   2.606
 7771TIP3    H123277   2.503   5.415   2.585
 7771TIP3    H223278   2.379   5.344   2.533
 7772TIP3   OH223279   3.027   5.574   4.761
 7772TIP3    H123280   3.116   5.580   4.724
 7772TIP3    H223281   2.994   5.490   4.730
 7773TIP3   OH223282   6.644   1.187   2.674
 7773TIP3    H123283   6.636   1.125   2.746
 7773TIP3    H223284   6.629   1.273   2.714
 7774TIP3   OH223285   6.346   6.016   5.698
 7774TIP3    H123286   6.418   5.970   5.655
 7774TIP3    H223287   6.351   6.105   5.663
 7775TIP3   OH223288   3.356   0.931   5.103
 7775TIP3    H123289   3.365   0.847   5.149
 7775TIP3    H223290   3.438   0.977   5.121
 7776TIP3   OH223291   6.956   6.138   4.042
 7776TIP3    H123292   6.960   6.181   4.128
 7776TIP3    H223293   6.898   6.194   3.991
 7777TIP3   OH223294   1.209   5.355   3.773
 7777TIP3    H123295   1.256   5.286   3.820
 7777TIP3    H223296   1.257   5.435   3.793
 7778TIP3   OH223297   0.819   3.725   0.029
 7778TIP3    H123298   0.846   3.690  -0.056
 7778TIP3    H223299   0.726   3.743   0.020
 7779TIP3   OH223300   5.303   1.713   4.051
 7779TIP3    H123301   5.260   1.629   4.039
 7779TIP3    H223302   5.375   1.695   4.111
 7780TIP3   OH223303   0.654   2.251   1.656
 7780TIP3    H123304   0.558   2.253   1.656
 7780TIP3    H223305   0.676   2.176   1.712
 7781TIP3   OH223306   1.382   0.513   2.595
 7781TIP3    H123307   1.471   0.487   2.573
 7781TIP3    H223308   1.357   0.576   2.526
 7782TIP3   OH223309   6.994   5.658   4.220
 7782TIP3    H123310   7.089   5.654   4.235
 7782TIP3    H223311   6.978   5.596   4.150
 7783TIP3   OH223312   2.060   3.818   1.126
 7783TIP3    H123313   2.089   3.763   1.054
 7783TIP3    H223314   1.993   3.766   1.171
 7784TIP3   OH223315   6.628   4.733   3.467
 7784TIP3    H123316   6.621   4.652   3.517
 7784TIP3    H223317   6.540   4.771   3.472
 7785TIP3   OH223318   3.073   6.297   5.150
 7785TIP3    H123319   3.038   6.354   5.219
 7785TIP3    H223320   2.995   6.258   5.110
 7786TIP3   OH223321   2.421   3.473   0.204
 7786TIP3    H123322   2.451   3.423   0.280
 7786TIP3    H223323   2.327   3.460   0.202
 7787TIP3   OH223324   2.019   3.507   2.355
 7787TIP3    H123325   2.033   3.413   2.364
 7787TIP3    H223326   2.014   3.522   2.260
 7788TIP3   OH223327   2.297   0.074   3.904
 7788TIP3    H123328   2.287   0.169   3.911
 7788TIP3    H223329   2.391   0.059   3.917
 7789TIP3   OH223330   5.919   5.238   3.237
 7789TIP3    H123331   5.943   5.279   3.153
 7789TIP3    H223332   5.973   5.159   3.241
 7790TIP3   OH223333   5.360   0.837   4.589
 7790TIP3    H123334   5.312   0.811   4.668
 7790TIP3    H223335   5.299   0.818   4.518
 7791TIP3   OH223336   6.108   6.477   5.385
 7791TIP3    H123337   6.083   6.566   5.362
 7791TIP3    H223338   6.025   6.429   5.391
 7792TIP3   OH223339   3.475   0.273   4.841
 7792TIP3    H123340   3.459   0.365   4.863
 7792TIP3    H223341   3.406   0.226   4.887
 7793TIP3   OH223342   1.985   6.037   2.875
 7793TIP3    H123343   1.954   6.070   2.791
 7793TIP3    H223344   2.033   6.110   2.913
 7794TIP3   OH223345   7.118   3.361   2.128
 7794TIP3    H123346   7.154   3.286   2.081
 7794TIP3    H223347   7.146   3.437   2.076
 7795TIP3   OH223348   1.613   1.050   4.894
 7795TIP3    H123349   1.627   0.997   4.972
 7795TIP3    H223350   1.551   0.999   4.841
 7796TIP3   OH223351   1.291   0.484   3.278
 7796TIP3    H123352   1.229   0.509   3.209
 7796TIP3    H223353   1.264   0.396   3.304
 7797TIP3   OH223354   3.755   6.651   3.627
 7797TIP3    H123355   3.816   6.715   3.591
 7797TIP3    H223356   3.809   6.595   3.684
 7798TIP3   OH223357   4.858   0.536   5.519
 7798TIP3    H123358   4.846   0.487   5.600
 7798TIP3    H223359   4.952   0.553   5.514
 7799TIP3   OH223360   1.538   5.041   5.332
 7799TIP3    H123361   1.453   5.068   5.296
 7799TIP3    H223362   1.557   4.958   5.290
 7800TIP3   OH223363   0.569   0.749   0.248
 7800TIP3    H123364   0.618   0.799   0.314
 7800TIP3    H223365   0.594   0.658   0.264
 7801TIP3   OH223366   5.435   1.375   4.387
 7801TIP3    H123367   5.379   1.333   4.452
 7801TIP3    H223368   5.432   1.316   4.311
 7802TIP3   OH223369   2.648   4.129   2.911
 7802TIP3    H123370   2.719   4.174   2.866
 7802TIP3    H223371   2.580   4.195   2.921
 7803TIP3   OH223372   3.980   6.720   0.308
 7803TIP3    H123373   3.921   6.762   0.245
 7803TIP3    H223374   4.044   6.674   0.254
 7804TIP3   OH223375   2.972   1.503   4.901
 7804TIP3    H123376   3.052   1.553   4.883
 7804TIP3    H223377   2.914   1.522   4.827
 7805TIP3   OH223378   4.181   5.166   3.068
 7805TIP3    H123379   4.220   5.078   3.062
 7805TIP3    H223380   4.226   5.207   3.142
 7806TIP3   OH223381   5.274   1.041   3.295
 7806TIP3    H123382   5.184   1.010   3.302
 7806TIP3    H223383   5.266   1.134   3.271
 7807TIP3   OH223384   5.121   6.475   2.912
 7807TIP3    H123385   5.154   6.564   2.910
 7807TIP3    H223386   5.136   6.442   2.823
 7808TIP3   OH223387   3.574   1.860   5.155
 7808TIP3    H123388   3.627   1.812   5.218
 7808TIP3    H223389   3.593   1.952   5.172
 7809TIP3   OH223390   2.773   3.482   4.489
 7809TIP3    H123391   2.784   3.573   4.514
 7809TIP3    H223392   2.704   3.483   4.421
 7810TIP3   OH223393   1.163   3.538   5.331
 7810TIP3    H123394   1.153   3.565   5.240
 7810TIP3    H223395   1.082   3.492   5.352
 7811TIP3   OH223396   5.615   1.601   3.340
 7811TIP3    H123397   5.549   1.581   3.274
 7811TIP3    H223398   5.564   1.631   3.416
 7812TIP3   OH223399   1.702   4.790   0.605
 7812TIP3    H123400   1.607   4.796   0.605
 7812TIP3    H223401   1.732   4.880   0.596
 7813TIP3   OH223402   3.646   2.625   5.466
 7813TIP3    H123403   3.675   2.664   5.383
 7813TIP3    H223404   3.564   2.670   5.485
 7814TIP3   OH223405   0.915   5.950   1.112
 7814TIP3    H123406   0.861   5.952   1.191
 7814TIP3    H223407   0.855   5.977   1.042
 7815TIP3   OH223408   4.290   4.006   5.583
 7815TIP3    H123409   4.231   4.079   5.600
 7815TIP3    H223410   4.232   3.931   5.570
 7816TIP3   OH223411   2.371   6.817   0.267
 7816TIP3    H123412   2.295   6.806   0.324
 7816TIP3    H223413   2.443   6.780   0.317
 7817TIP3   OH223414   3.179   5.902   3.909
 7817TIP3    H123415   3.146   5.854   3.834
 7817TIP3    H223416   3.260   5.943   3.877
 7818TIP3   OH223417   1.335   5.078   2.003
 7818TIP3    H123418   1.359   4.985   2.001
 7818TIP3    H223419   1.239   5.077   2.001
 7819TIP3   OH223420   0.794   3.698   1.768
 7819TIP3    H123421   0.824   3.617   1.809
 7819TIP3    H223422   0.745   3.668   1.691
 7820TIP3   OH223423   5.188   5.414   3.513
 7820TIP3    H123424   5.204   5.508   3.525
 7820TIP3    H223425   5.244   5.391   3.439
 7821TIP3   OH223426   6.768   0.913   4.172
 7821TIP3    H123427   6.809   0.845   4.224
 7821TIP3    H223428   6.833   0.983   4.168
 7822TIP3   OH223429   1.129   2.941   4.487
 7822TIP3    H123430   1.168   2.855   4.502
 7822TIP3    H223431   1.039   2.921   4.461
 7823TIP3   OH223432   4.555   4.640   0.630
 7823TIP3    H123433   4.605   4.700   0.575
 7823TIP3    H223434   4.530   4.693   0.706
 7824TIP3   OH223435   5.992   5.941   5.626
 7824TIP3    H123436   5.897   5.936   5.625
 7824TIP3    H223437   6.012   6.034   5.630
 7825TIP3   OH223438   0.004   2.046   3.986
 7825TIP3    H123439   0.053   2.085   4.058
 7825TIP3    H223440   0.062   2.052   3.911
 7826TIP3   OH223441   5.072   3.428   0.017
 7826TIP3    H123442   5.158   3.419   0.058
 7826TIP3    H223443   5.036   3.339   0.018
 7827TIP3   OH223444   3.299   5.379   5.398
 7827TIP3    H123445   3.226   5.341   5.349
 7827TIP3    H223446   3.346   5.431   5.334
 7828TIP3   OH223447   1.126   4.294   3.475
 7828TIP3    H123448   1.135   4.372   3.420
 7828TIP3    H223449   1.190   4.306   3.545
 7829TIP3   OH223450   0.226   2.020   1.075
 7829TIP3    H123451   0.307   2.030   1.125
 7829TIP3    H223452   0.179   1.949   1.119
 7830TIP3   OH223453   1.576   3.415   0.321
 7830TIP3    H123454   1.576   3.347   0.388
 7830TIP3    H223455   1.486   3.417   0.288
 7831TIP3   OH223456   5.060   5.912   1.825
 7831TIP3    H123457   5.145   5.883   1.859
 7831TIP3    H223458   5.071   5.912   1.730
 7832TIP3   OH223459   5.913   5.857   4.701
 7832TIP3    H123460   5.972   5.845   4.627
 7832TIP3    H223461   5.829   5.823   4.671
 7833TIP3   OH223462   0.676   1.112   3.650
 7833TIP3    H123463   0.604   1.165   3.685
 7833TIP3    H223464   0.713   1.166   3.580
 7834TIP3   OH223465   1.602   1.129   3.352
 7834TIP3    H123466   1.609   1.093   3.441
 7834TIP3    H223467   1.682   1.179   3.340
 7835TIP3   OH223468   6.820   6.273   0.466
 7835TIP3    H123469   6.850   6.224   0.389
 7835TIP3    H223470   6.874   6.352   0.466
 7836TIP3   OH223471   1.546   1.346   4.483
 7836TIP3    H123472   1.585   1.422   4.526
 7836TIP3    H223473   1.455   1.370   4.469
 7837TIP3   OH223474   4.249   3.911   2.105
 7837TIP3    H123475   4.190   3.949   2.169
 7837TIP3    H223476   4.316   3.978   2.090
 7838TIP3   OH223477   0.350   0.733   2.765
 7838TIP3    H123478   0.410   0.792   2.810
 7838TIP3    H223479   0.406   0.667   2.724
 7839TIP3   OH223480   4.609   4.450   4.860
 7839TIP3    H123481   4.631   4.388   4.790
 7839TIP3    H223482   4.513   4.450   4.862
 7840TIP3   OH223483   6.175   2.587   1.080
 7840TIP3    H123484   6.096   2.629   1.114
 7840TIP3    H223485   6.196   2.636   1.000
 7841TIP3   OH223486   3.393   1.380   4.588
 7841TIP3    H123487   3.411   1.420   4.673
 7841TIP3    H223488   3.308   1.415   4.562
 7842TIP3   OH223489   0.250   4.393   4.599
 7842TIP3    H123490   0.183   4.325   4.593
 7842TIP3    H223491   0.213   4.468   4.553
 7843TIP3   OH223492   7.085   5.396   4.182
 7843TIP3    H123493   7.164   5.385   4.128
 7843TIP3    H223494   7.015   5.359   4.130
 7844TIP3   OH223495   3.309   1.837   5.164
 7844TIP3    H123496   3.405   1.837   5.162
 7844TIP3    H223497   3.283   1.846   5.073
 7845TIP3   OH223498   3.385   4.537   1.666
 7845TIP3    H123499   3.428   4.452   1.657
 7845TIP3    H223500   3.303   4.518   1.711
 7846TIP3   OH223501   3.075   3.484   1.955
 7846TIP3    H123502   3.022   3.562   1.969
 7846TIP3    H223503   3.019   3.426   1.903
 7847TIP3   OH223504   3.545   1.049   5.671
 7847TIP3    H123505   3.613   0.982   5.674
 7847TIP3    H223506   3.487   1.021   5.601
 7848TIP3   OH223507   5.332   4.775   0.611
 7848TIP3    H123508   5.258   4.753   0.555
 7848TIP3    H223509   5.339   4.701   0.672
 7849TIP3   OH223510   2.925   0.839   5.651
 7849TIP3    H123511   2.868   0.767   5.678
 7849TIP3    H223512   2.982   0.854   5.726
 7850TIP3   OH223513   6.694   6.329   5.401
 7850TIP3    H123514   6.678   6.399   5.465
 7850TIP3    H223515   6.646   6.356   5.323
 7851TIP3   OH223516   3.552   6.186   0.152
 7851TIP3    H123517   3.567   6.205   0.059
 7851TIP3    H223518   3.611   6.245   0.199
 7852TIP3   OH223519   3.668   0.348   4.662
 7852TIP3    H123520   3.726   0.374   4.733
 7852TIP3    H223521   3.590   0.315   4.706
 7853TIP3   OH223522   5.613   6.258   0.205
 7853TIP3    H123523   5.640   6.168   0.185
 7853TIP3    H223524   5.626   6.305   0.123
 7854TIP3   OH223525   0.299   2.488   3.006
 7854TIP3    H123526   0.339   2.538   3.078
 7854TIP3    H223527   0.331   2.399   3.018
 7855TIP3   OH223528   4.354   5.737   1.700
 7855TIP3    H123529   4.445   5.746   1.728
 7855TIP3    H223530   4.308   5.811   1.739
 7856TIP3   OH223531   5.682   0.994   5.470
 7856TIP3    H123532   5.628   0.938   5.414
 7856TIP3    H223533   5.642   0.988   5.557
 7857TIP3   OH223534   1.437   6.490   5.107
 7857TIP3    H123535   1.473   6.563   5.057
 7857TIP3    H223536   1.361   6.526   5.152
 7858TIP3   OH223537   1.479   5.395   1.695
 7858TIP3    H123538   1.448   5.306   1.713
 7858TIP3    H223539   1.436   5.449   1.761
 7859TIP3   OH223540   4.050   5.363   4.801
 7859TIP3    H123541   4.140   5.395   4.794
 7859TIP3    H223542   4.023   5.388   4.889
 7860TIP3   OH223543   6.046   1.317   4.786
 7860TIP3    H123544   5.956   1.332   4.756
 7860TIP3    H223545   6.078   1.244   4.733
 7861TIP3   OH223546   7.112   1.280   2.523
 7861TIP3    H123547   7.084   1.208   2.579
 7861TIP3    H223548   7.067   1.357   2.559
 7862TIP3   OH223549   6.116   2.563   1.870
 7862TIP3    H123550   6.048   2.560   1.937
 7862TIP3    H223551   6.086   2.630   1.808
 7863TIP3   OH223552   2.039   6.081   1.179
 7863TIP3    H123553   2.123   6.039   1.160
 7863TIP3    H223554   2.020   6.057   1.269
 7864TIP3   OH223555   5.588   2.378   5.412
 7864TIP3    H123556   5.603   2.467   5.381
 7864TIP3    H223557   5.670   2.355   5.457
 7865TIP3   OH223558   5.997   3.447   5.127
 7865TIP3    H123559   5.921   3.410   5.082
 7865TIP3    H223560   5.995   3.407   5.215
 7866TIP3   OH223561   2.210   5.349   1.218
 7866TIP3    H123562   2.158   5.428   1.229
 7866TIP3    H223563   2.250   5.333   1.304
 7867TIP3   OH223564   3.048   1.929   3.367
 7867TIP3    H123565   3.098   1.848   3.374
 7867TIP3    H223566   2.986   1.926   3.440
 7868TIP3   OH223567   3.195   1.680   3.971
 7868TIP3    H123568   3.219   1.772   3.958
 7868TIP3    H223569   3.271   1.631   3.940
 7869TIP3   OH223570   2.290   1.139   3.727
 7869TIP3    H123571   2.264   1.060   3.680
 7869TIP3    H223572   2.286   1.114   3.820
 7870TIP3   OH223573   0.992   6.623   1.612
 7870TIP3    H123574   1.034   6.583   1.535
 7870TIP3    H223575   1.065   6.662   1.661
 7871TIP3   OH223576   0.990   1.293   3.627
 7871TIP3    H123577   0.933   1.239   3.572
 7871TIP3    H223578   0.993   1.247   3.711
 7872TIP3   OH223579   0.534   5.943   0.031
 7872TIP3    H123580   0.488   5.871   0.073
 7872TIP3    H223581   0.596   5.974   0.096
 7873TIP3   OH223582   0.454   6.343   5.874
 7873TIP3    H123583   0.524   6.399   5.839
 7873TIP3    H223584   0.499   6.282   5.932
 7874TIP3   OH223585   1.104   0.568   3.046
 7874TIP3    H123586   1.073   0.486   3.008
 7874TIP3    H223587   1.178   0.594   2.991
 7875TIP3   OH223588   2.016   3.128   4.388
 7875TIP3    H123589   2.028   3.208   4.440
 7875TIP3    H223590   1.987   3.063   4.452
 7876TIP3   OH223591   3.321   5.530   2.518
 7876TIP3    H123592   3.247   5.495   2.468
 7876TIP3    H223593   3.378   5.455   2.533
 7877TIP3   OH223594   6.337   6.238   0.392
 7877TIP3    H123595   6.335   6.179   0.316
 7877TIP3    H223596   6.408   6.206   0.446
 7878TIP3   OH223597   4.825   0.940   5.910
 7878TIP3    H123598   4.755   0.915   5.849
 7878TIP3    H223599   4.903   0.896   5.877
 7879TIP3   OH223600   4.564   1.562   3.097
 7879TIP3    H123601   4.605   1.586   3.014
 7879TIP3    H223602   4.613   1.486   3.127
 7880TIP3   OH223603   2.777   2.564   4.925
 7880TIP3    H123604   2.812   2.643   4.966
 7880TIP3    H223605   2.682   2.577   4.926
 7881TIP3   OH223606   6.236   6.448   3.517
 7881TIP3    H123607   6.166   6.486   3.569
 7881TIP3    H223608   6.292   6.404   3.581
 7882TIP3   OH223609   0.430   1.195   5.670
 7882TIP3    H123610   0.436   1.103   5.642
 7882TIP3    H223611   0.512   1.212   5.715
 7883TIP3   OH223612   1.627   1.879   3.093
 7883TIP3    H123613   1.684   1.879   3.170
 7883TIP3    H223614   1.538   1.869   3.129
 7884TIP3   OH223615   0.987   3.472   0.513
 7884TIP3    H123616   1.060   3.534   0.514
 7884TIP3    H223617   0.994   3.426   0.597
 7885TIP3   OH223618   3.968   6.265   1.363
 7885TIP3    H123619   3.979   6.174   1.335
 7885TIP3    H223620   4.057   6.295   1.381
 7886TIP3   OH223621   1.438   4.272   2.453
 7886TIP3    H123622   1.374   4.337   2.483
 7886TIP3    H223623   1.518   4.322   2.440
 7887TIP3   OH223624   5.592   0.393   2.237
 7887TIP3    H123625   5.597   0.366   2.328
 7887TIP3    H223626   5.501   0.375   2.212
 7888TIP3   OH223627   2.352   3.994   4.656
 7888TIP3    H123628   2.298   3.958   4.726
 7888TIP3    H223629   2.310   3.965   4.575
 7889TIP3   OH223630   1.201   6.594   0.029
 7889TIP3    H123631   1.253   6.516   0.049
 7889TIP3    H223632   1.223   6.656   0.098
 7890TIP3   OH223633   5.448   1.857   4.925
 7890TIP3    H123634   5.402   1.925   4.874
 7890TIP3    H223635   5.529   1.899   4.953
 7891TIP3   OH223636   3.984   5.804   3.511
 7891TIP3    H123637   3.995   5.878   3.570
 7891TIP3    H223638   3.890   5.802   3.492
 7892TIP3   OH223639   0.330   6.595   0.676
 7892TIP3    H123640   0.418   6.631   0.660
 7892TIP3    H223641   0.310   6.622   0.765
 7893TIP3   OH223642   2.742   4.166   1.071
 7893TIP3    H123643   2.662   4.215   1.053
 7893TIP3    H223644   2.788   4.218   1.137
 7894TIP3   OH223645   4.449   4.718   3.208
 7894TIP3    H123646   4.522   4.662   3.236
 7894TIP3    H223647   4.371   4.665   3.226
 7895TIP3   OH223648   4.194   2.976   1.457
 7895TIP3    H123649   4.109   2.934   1.465
 7895TIP3    H223650   4.174   3.068   1.437
 7896TIP3   OH223651   6.418   5.845   3.320
 7896TIP3    H123652   6.383   5.869   3.406
 7896TIP3    H223653   6.510   5.871   3.324
 7897TIP3   OH223654   0.025   3.668   4.068
 7897TIP3    H123655  -0.015   3.583   4.053
 7897TIP3    H223656  -0.021   3.703   4.145
 7898TIP3   OH223657   5.200   4.499   1.086
 7898TIP3    H123658   5.288   4.498   1.125
 7898TIP3    H223659   5.157   4.575   1.125
 7899TIP3   OH223660   3.512   1.515   4.391
 7899TIP3    H123661   3.474   1.450   4.450
 7899TIP3    H223662   3.594   1.541   4.432
 7900TIP3   OH223663   2.483   0.586   5.441
 7900TIP3    H123664   2.443   0.532   5.373
 7900TIP3    H223665   2.465   0.676   5.413
 7901TIP3   OH223666   6.728   2.845   2.580
 7901TIP3    H123667   6.672   2.922   2.569
 7901TIP3    H223668   6.802   2.861   2.522
 7902TIP3   OH223669   4.340   0.505   5.033
 7902TIP3    H123670   4.344   0.465   5.120
 7902TIP3    H223671   4.412   0.465   4.985
 7903TIP3   OH223672   1.028   4.597   1.113
 7903TIP3    H123673   1.039   4.506   1.141
 7903TIP3    H223674   1.073   4.601   1.029
 7904TIP3   OH223675   5.579   2.895   4.312
 7904TIP3    H123676   5.542   2.816   4.350
 7904TIP3    H223677   5.552   2.966   4.371
 7905TIP3   OH223678   5.306   5.844   1.906
 7905TIP3    H123679   5.368   5.914   1.928
 7905TIP3    H223680   5.320   5.778   1.973
 7906TIP3   OH223681   6.072   6.051   1.914
 7906TIP3    H123682   6.123   6.080   1.989
 7906TIP3    H223683   5.984   6.087   1.928
 7907TIP3   OH223684   6.651   4.495   3.838
 7907TIP3    H123685   6.598   4.416   3.824
 7907TIP3    H223686   6.731   4.479   3.788
 7908TIP3   OH223687   3.635   3.817   4.843
 7908TIP3    H123688   3.712   3.871   4.825
 7908TIP3    H223689   3.666   3.727   4.839
 7909TIP3   OH223690   3.331   4.657   2.004
 7909TIP3    H123691   3.386   4.698   1.938
 7909TIP3    H223692   3.281   4.591   1.955
 7910TIP3   OH223693   4.974   1.695   3.229
 7910TIP3    H123694   4.967   1.791   3.224
 7910TIP3    H223695   4.887   1.666   3.253
 7911TIP3   OH223696   3.418   0.339   0.172
 7911TIP3    H123697   3.402   0.268   0.111
 7911TIP3    H223698   3.463   0.406   0.121
 7912TIP3   OH223699   2.139   2.615   0.929
 7912TIP3    H123700   2.091   2.534   0.912
 7912TIP3    H223701   2.119   2.672   0.855
 7913TIP3   OH223702   4.778   1.531   5.385
 7913TIP3    H123703   4.764   1.440   5.360
 7913TIP3    H223704   4.818   1.572   5.308
 7914TIP3   OH223705   2.985   4.223   3.851
 7914TIP3    H123706   2.964   4.139   3.811
 7914TIP3    H223707   3.069   4.209   3.895
 7915TIP3   OH223708   5.107   4.759   4.841
 7915TIP3    H123709   5.143   4.670   4.843
 7915TIP3    H223710   5.095   4.778   4.748
 7916TIP3   OH223711   3.158   0.553   5.512
 7916TIP3    H123712   3.166   0.548   5.607
 7916TIP3    H223713   3.125   0.641   5.494
 7917TIP3   OH223714   6.732   4.562   0.838
 7917TIP3    H123715   6.715   4.554   0.932
 7917TIP3    H223716   6.647   4.548   0.797
 7918TIP3   OH223717   0.074   2.935   0.272
 7918TIP3    H123718   0.009   2.915   0.204
 7918TIP3    H223719   0.109   2.850   0.297
 7919TIP3   OH223720   3.767   2.304   2.110
 7919TIP3    H123721   3.725   2.364   2.171
 7919TIP3    H223722   3.717   2.314   2.029
 7920TIP3   OH223723   1.741   4.104   5.636
 7920TIP3    H123724   1.741   4.015   5.672
 7920TIP3    H223725   1.732   4.092   5.541
 7921TIP3   OH223726   5.439   6.814   1.335
 7921TIP3    H123727   5.526   6.797   1.299
 7921TIP3    H223728   5.447   6.799   1.429
 7922TIP3   OH223729   5.101   3.681   1.269
 7922TIP3    H123730   5.073   3.593   1.245
 7922TIP3    H223731   5.023   3.735   1.259
 7923TIP3   OH223732   1.013   1.162   1.997
 7923TIP3    H123733   1.018   1.149   1.902
 7923TIP3    H223734   0.925   1.196   2.011
 7924TIP3   OH223735   0.387   3.730   2.254
 7924TIP3    H123736   0.314   3.777   2.293
 7924TIP3    H223737   0.361   3.638   2.258
 7925TIP3   OH223738   0.348   6.690   2.969
 7925TIP3    H123739   0.322   6.713   3.059
 7925TIP3    H223740   0.272   6.713   2.916
 7926TIP3   OH223741   2.563   3.146   0.520
 7926TIP3    H123742   2.639   3.098   0.490
 7926TIP3    H223743   2.547   3.114   0.609
 7927TIP3   OH223744   7.213   2.923   5.760
 7927TIP3    H123745   7.262   2.967   5.830
 7927TIP3    H223746   7.266   2.847   5.738
 7928TIP3   OH223747   6.862   0.058   4.621
 7928TIP3    H123748   6.949   0.046   4.583
 7928TIP3    H223749   6.879   0.075   4.714
 7929TIP3   OH223750   0.991   4.416   5.278
 7929TIP3    H123751   0.921   4.462   5.232
 7929TIP3    H223752   1.003   4.466   5.359
 7930TIP3   OH223753   4.676   3.645   5.123
 7930TIP3    H123754   4.668   3.561   5.167
 7930TIP3    H223755   4.699   3.623   5.033
 7931TIP3   OH223756   1.793   2.430   2.206
 7931TIP3    H123757   1.701   2.457   2.205
 7931TIP3    H223758   1.838   2.499   2.157
 7932TIP3   OH223759   4.656   3.016   2.330
 7932TIP3    H123760   4.716   3.090   2.334
 7932TIP3    H223761   4.570   3.056   2.317
 7933TIP3   OH223762   6.740   3.882   1.157
 7933TIP3    H123763   6.790   3.856   1.080
 7933TIP3    H223764   6.655   3.908   1.121
 7934TIP3   OH223765   6.072   1.083   4.926
 7934TIP3    H123766   6.053   1.165   4.882
 7934TIP3    H223767   6.101   1.108   5.014
 7935TIP3   OH223768   0.186   2.424   5.601
 7935TIP3    H123769   0.176   2.419   5.506
 7935TIP3    H223770   0.277   2.450   5.615
 7936TIP3   OH223771   2.299   0.924   5.680
 7936TIP3    H123772   2.351   0.850   5.710
 7936TIP3    H223773   2.209   0.892   5.679
 7937TIP3   OH223774   0.231   2.398   2.748
 7937TIP3    H123775   0.267   2.414   2.836
 7937TIP3    H223776   0.299   2.347   2.704
 7938TIP3   OH223777   6.237   6.278   2.887
 7938TIP3    H123778   6.270   6.208   2.830
 7938TIP3    H223779   6.268   6.359   2.846
 7939TIP3   OH223780   3.157   4.474   1.789
 7939TIP3    H123781   3.088   4.535   1.815
 7939TIP3    H223782   3.114   4.413   1.728
 7940TIP3   OH223783   3.455   4.127   0.386
 7940TIP3    H123784   3.372   4.152   0.427
 7940TIP3    H223785   3.489   4.057   0.442
 7941TIP3   OH223786   4.400   3.394   1.922
 7941TIP3    H123787   4.437   3.467   1.972
 7941TIP3    H223788   4.310   3.420   1.906
 7942TIP3   OH223789   3.610   4.158   0.144
 7942TIP3    H123790   3.578   4.150   0.234
 7942TIP3    H223791   3.591   4.073   0.104
 7943TIP3   OH223792   0.726   5.136   1.331
 7943TIP3    H123793   0.796   5.200   1.318
 7943TIP3    H223794   0.691   5.156   1.417
 7944TIP3   OH223795   2.724   6.741   1.031
 7944TIP3    H123796   2.742   6.709   1.119
 7944TIP3    H223797   2.713   6.661   0.979
 7945TIP3   OH223798   2.910   5.452   5.453
 7945TIP3    H123799   2.845   5.522   5.462
 7945TIP3    H223800   2.965   5.480   5.380
 7946TIP3   OH223801   2.125   1.792   5.642
 7946TIP3    H123802   2.093   1.862   5.586
 7946TIP3    H223803   2.170   1.837   5.713
 7947TIP3   OH223804   3.457   6.125   1.841
 7947TIP3    H123805   3.443   6.193   1.907
 7947TIP3    H223806   3.510   6.059   1.885
 7948TIP3   OH223807   3.475   1.552   0.518
 7948TIP3    H123808   3.382   1.536   0.505
 7948TIP3    H223809   3.498   1.616   0.450
 7949TIP3   OH223810   1.519   1.219   3.006
 7949TIP3    H123811   1.442   1.228   3.062
 7949TIP3    H223812   1.534   1.307   2.972
 7950TIP3   OH223813   5.827   2.001   3.112
 7950TIP3    H123814   5.828   1.983   3.018
 7950TIP3    H223815   5.900   1.949   3.147
 7951TIP3   OH223816   1.311   4.700   1.291
 7951TIP3    H123817   1.370   4.641   1.245
 7951TIP3    H223818   1.294   4.658   1.375
 7952TIP3   OH223819   6.696   5.832   2.188
 7952TIP3    H123820   6.600   5.833   2.196
 7952TIP3    H223821   6.715   5.901   2.124
 7953TIP3   OH223822   6.301   6.022   3.521
 7953TIP3    H123823   6.226   6.056   3.472
 7953TIP3    H223824   6.263   5.976   3.595
 7954TIP3   OH223825   2.652   1.021   3.929
 7954TIP3    H123826   2.669   0.927   3.927
 7954TIP3    H223827   2.558   1.028   3.950
 7955TIP3   OH223828   2.255   6.183   1.864
 7955TIP3    H123829   2.321   6.185   1.934
 7955TIP3    H223830   2.301   6.215   1.787
 7956TIP3   OH223831   4.767   3.661   1.437
 7956TIP3    H123832   4.718   3.729   1.483
 7956TIP3    H223833   4.735   3.578   1.474
 7957TIP3   OH223834   4.802   0.739   0.461
 7957TIP3    H123835   4.842   0.677   0.522
 7957TIP3    H223836   4.845   0.823   0.481
 7958TIP3   OH223837   6.069   4.787   1.622
 7958TIP3    H123838   6.005   4.741   1.676
 7958TIP3    H223839   6.045   4.880   1.630
 7959TIP3   OH223840   1.989   5.747   4.154
 7959TIP3    H123841   2.075   5.707   4.160
 7959TIP3    H223842   1.990   5.794   4.070
 7960TIP3   OH223843   6.025   3.904   2.421
 7960TIP3    H123844   5.944   3.933   2.465
 7960TIP3    H223845   6.074   3.859   2.490
 7961TIP3   OH223846   0.515   6.448   2.921
 7961TIP3    H123847   0.545   6.428   2.833
 7961TIP3    H223848   0.456   6.522   2.911
 7962TIP3   OH223849   0.900   1.155   0.041
 7962TIP3    H123850   0.848   1.091   0.090
 7962TIP3    H223851   0.838   1.224   0.019
 7963TIP3   OH223852   3.071   4.387   0.270
 7963TIP3    H123853   3.152   4.439   0.269
 7963TIP3    H223854   3.098   4.300   0.241
 7964TIP3   OH223855   2.092   2.909   5.335
 7964TIP3    H123856   2.051   2.991   5.362
 7964TIP3    H223857   2.169   2.937   5.285
 7965TIP3   OH223858   0.625   0.138   0.621
 7965TIP3    H123859   0.611   0.068   0.685
 7965TIP3    H223860   0.719   0.157   0.627
 7966TIP3   OH223861   1.410   6.010   4.707
 7966TIP3    H123862   1.416   5.934   4.649
 7966TIP3    H223863   1.500   6.021   4.740
 7967TIP3   OH223864   1.630   5.626   4.767
 7967TIP3    H123865   1.710   5.596   4.724
 7967TIP3    H223866   1.566   5.632   4.696
 7968TIP3   OH223867   0.827   0.774   4.931
 7968TIP3    H123868   0.837   0.864   4.963
 7968TIP3    H223869   0.794   0.784   4.841
 7969TIP3   OH223870   0.782   2.873   5.756
 7969TIP3    H123871   0.812   2.788   5.789
 7969TIP3    H223872   0.854   2.933   5.775
 7970TIP3   OH223873   4.973   3.457   0.273
 7970TIP3    H123874   5.008   3.443   0.185
 7970TIP3    H223875   4.878   3.466   0.261
 7971TIP3   OH223876   2.201   5.073   4.024
 7971TIP3    H123877   2.192   5.137   3.954
 7971TIP3    H223878   2.295   5.062   4.035
 7972TIP3   OH223879   5.127   0.015   5.575
 7972TIP3    H123880   5.159   0.066   5.650
 7972TIP3    H223881   5.083   0.080   5.520
 7973TIP3   OH223882   2.031   6.355   2.855
 7973TIP3    H123883   1.975   6.420   2.812
 7973TIP3    H223884   2.044   6.389   2.943
 7974TIP3   OH223885   0.181   4.564   2.637
 7974TIP3    H123886   0.094   4.601   2.652
 7974TIP3    H223887   0.239   4.641   2.636
 7975TIP3   OH223888   4.850   5.932   5.005
 7975TIP3    H123889   4.867   5.838   5.015
 7975TIP3    H223890   4.864   5.969   5.092
 7976TIP3   OH223891   6.031   3.833   5.114
 7976TIP3    H123892   6.087   3.849   5.038
 7976TIP3    H223893   6.091   3.822   5.187
 7977TIP3   OH223894   6.004   3.629   1.603
 7977TIP3    H123895   5.961   3.712   1.580
 7977TIP3    H223896   5.979   3.615   1.695
 7978TIP3   OH223897   0.644   1.665   2.767
 7978TIP3    H123898   0.600   1.738   2.810
 7978TIP3    H223899   0.737   1.676   2.788
 7979TIP3   OH223900   5.357   5.916   5.478
 7979TIP3    H123901   5.436   5.913   5.424
 7979TIP3    H223902   5.285   5.909   5.416
 7980TIP3   OH223903   4.930   6.192   5.649
 7980TIP3    H123904   4.873   6.178   5.573
 7980TIP3    H223905   5.006   6.238   5.614
 7981TIP3   OH223906   6.598   5.206   4.898
 7981TIP3    H123907   6.682   5.250   4.909
 7981TIP3    H223908   6.602   5.132   4.958
 7982TIP3   OH223909   3.864   6.383   1.630
 7982TIP3    H123910   3.850   6.354   1.539
 7982TIP3    H223911   3.948   6.344   1.655
 7983TIP3   OH223912   4.431   4.298   3.439
 7983TIP3    H123913   4.437   4.208   3.469
 7983TIP3    H223914   4.410   4.349   3.517
 7984TIP3   OH223915   0.772   0.015   0.092
 7984TIP3    H123916   0.768   0.095   0.145
 7984TIP3    H223917   0.742   0.041   0.005
 7985TIP3   OH223918   4.774   2.346   3.715
 7985TIP3    H123919   4.857   2.328   3.672
 7985TIP3    H223920   4.793   2.341   3.808
 7986TIP3   OH223921   5.711   5.721   2.824
 7986TIP3    H123922   5.709   5.637   2.871
 7986TIP3    H223923   5.641   5.713   2.760
 7987TIP3   OH223924   0.861   4.513   2.158
 7987TIP3    H123925   0.814   4.543   2.080
 7987TIP3    H223926   0.808   4.544   2.231
 7988TIP3   OH223927   3.096   5.452   2.853
 7988TIP3    H123928   3.103   5.358   2.836
 7988TIP3    H223929   3.008   5.464   2.889
 7989TIP3   OH223930   3.383   4.650   4.974
 7989TIP3    H123931   3.355   4.621   4.888
 7989TIP3    H223932   3.301   4.665   5.022
 7990TIP3   OH223933   7.165   0.797   3.217
 7990TIP3    H123934   7.188   0.831   3.130
 7990TIP3    H223935   7.229   0.837   3.276
 7991TIP3   OH223936   3.748   4.458   3.525
 7991TIP3    H123937   3.736   4.553   3.523
 7991TIP3    H223938   3.795   4.441   3.607
 7992TIP3   OH223939   5.574   6.273   1.871
 7992TIP3    H123940   5.582   6.252   1.778
 7992TIP3    H223941   5.498   6.331   1.875
 7993TIP3   OH223942   0.465   0.857   4.760
 7993TIP3    H123943   0.485   0.914   4.834
 7993TIP3    H223944   0.537   0.871   4.698
 7994TIP3   OH223945   6.188   1.181   3.673
 7994TIP3    H123946   6.171   1.119   3.744
 7994TIP3    H223947   6.265   1.230   3.703
 7995TIP3   OH223948   5.564   3.349   3.448
 7995TIP3    H123949   5.658   3.355   3.432
 7995TIP3    H223950   5.556   3.331   3.542
 7996TIP3   OH223951   3.467   1.706   3.407
 7996TIP3    H123952   3.488   1.743   3.493
 7996TIP3    H223953   3.371   1.702   3.407
 7997TIP3   OH223954   1.666   3.764   4.076
 7997TIP3    H123955   1.717   3.843   4.096
 7997TIP3    H223956   1.585   3.775   4.125
 7998TIP3   OH223957   2.675   1.004   5.152
 7998TIP3    H123958   2.771   1.011   5.156
 7998TIP3    H223959   2.659   0.912   5.133
 7999TIP3   OH223960   4.569   5.511   2.382
 7999TIP3    H123961   4.613   5.468   2.455
 7999TIP3    H223962   4.621   5.489   2.305
 8000TIP3   OH223963   0.836   4.978   0.916
 8000TIP3    H123964   0.824   4.892   0.875
 8000TIP3    H223965   0.896   4.960   0.989
 8001TIP3   OH223966   3.039   0.080   3.623
 8001TIP3    H123967   3.128   0.068   3.590
 8001TIP3    H223968   2.984   0.082   3.545
 8002TIP3   OH223969   3.655   5.350   3.103
 8002TIP3    H123970   3.707   5.426   3.128
 8002TIP3    H223971   3.714   5.298   3.048
 8003TIP3   OH223972   2.464   0.909   5.446
 8003TIP3    H123973   2.556   0.930   5.465
 8003TIP3    H223974   2.416   0.945   5.521
 8004TIP3   OH223975   6.457   3.910   2.392
 8004TIP3    H123976   6.391   3.960   2.345
 8004TIP3    H223977   6.490   3.846   2.329
 8005TIP3   OH223978   0.878   5.789   5.484
 8005TIP3    H123979   0.966   5.752   5.491
 8005TIP3    H223980   0.888   5.864   5.426
 8006TIP3   OH223981   0.603   4.345   4.236
 8006TIP3    H123982   0.607   4.438   4.213
 8006TIP3    H223983   0.685   4.308   4.204
 8007TIP3   OH223984   2.148   0.012   2.530
 8007TIP3    H123985   2.170   0.100   2.560
 8007TIP3    H223986   2.229  -0.020   2.490
 8008TIP3   OH223987   6.733   0.784   4.782
 8008TIP3    H123988   6.767   0.696   4.799
 8008TIP3    H223989   6.695   0.811   4.866
 8009TIP3   OH223990   3.180   2.019   3.137
 8009TIP3    H123991   3.262   2.062   3.159
 8009TIP3    H223992   3.145   1.988   3.220
 8010TIP3   OH223993   5.853   4.710   1.754
 8010TIP3    H123994   5.850   4.689   1.848
 8010TIP3    H223995   5.773   4.759   1.738
 8011TIP3   OH223996   0.719   3.984   0.782
 8011TIP3    H123997   0.664   4.005   0.857
 8011TIP3    H223998   0.807   3.976   0.818
 8012TIP3   OH223999   1.922   0.985   0.949
 8012TIP3    H124000   1.913   1.018   1.038
 8012TIP3    H224001   1.996   1.034   0.913
 8013TIP3   OH224002   2.209   2.839   5.845
 8013TIP3    H124003   2.223   2.775   5.915
 8013TIP3    H224004   2.122   2.875   5.864
 8014TIP3   OH224005   2.389   2.754   1.984
 8014TIP3    H124006   2.312   2.757   1.928
 8014TIP3    H224007   2.354   2.753   2.073
 8015TIP3   OH224008   0.559   0.796   5.079
 8015TIP3    H124009   0.619   0.760   5.014
 8015TIP3    H224010   0.528   0.878   5.041
 8016TIP3   OH224011   1.220   4.525   3.001
 8016TIP3    H124012   1.171   4.593   2.954
 8016TIP3    H224013   1.310   4.537   2.973
 8017TIP3   OH224014   0.136   2.671   0.328
 8017TIP3    H124015   0.216   2.664   0.275
 8017TIP3    H224016   0.163   2.646   0.416
 8018TIP3   OH224017   1.310   2.899   5.150
 8018TIP3    H124018   1.356   2.838   5.208
 8018TIP3    H224019   1.347   2.985   5.170
 8019TIP3   OH224020   6.267   4.108   0.733
 8019TIP3    H124021   6.253   4.088   0.826
 8019TIP3    H224022   6.194   4.165   0.709
 8020TIP3   OH224023   0.343   5.546   5.669
 8020TIP3    H124024   0.343   5.483   5.741
 8020TIP3    H224025   0.253   5.546   5.637
 8021TIP3   OH224026   3.465   0.711   5.801
 8021TIP3    H124027   3.530   0.780   5.792
 8021TIP3    H224028   3.493   0.661   5.878
 8022TIP3   OH224029   4.767   2.163   5.730
 8022TIP3    H124030   4.724   2.170   5.815
 8022TIP3    H224031   4.710   2.104   5.680
 8023TIP3   OH224032   0.180   1.311   5.439
 8023TIP3    H124033   0.127   1.261   5.501
 8023TIP3    H224034   0.117   1.363   5.389
 8024TIP3   OH224035   0.667   0.767   2.358
 8024TIP3    H124036   0.678   0.834   2.291
 8024TIP3    H224037   0.746   0.772   2.412
 8025TIP3   OH224038   6.372   6.028   1.448
 8025TIP3    H124039   6.446   6.086   1.431
 8025TIP3    H224040   6.307   6.052   1.383
 8026TIP3   OH224041   3.307   1.595   3.060
 8026TIP3    H124042   3.395   1.563   3.041
 8026TIP3    H224043   3.256   1.516   3.076
 8027TIP3   OH224044   6.137   2.332   4.558
 8027TIP3    H124045   6.203   2.393   4.589
 8027TIP3    H224046   6.073   2.327   4.629
 8028TIP3   OH224047   5.303   5.704   1.412
 8028TIP3    H124048   5.379   5.653   1.439
 8028TIP3    H224049   5.242   5.639   1.377
 8029TIP3   OH224050   5.133   0.538   0.710
 8029TIP3    H124051   5.078   0.528   0.633
 8029TIP3    H224052   5.182   0.456   0.715
 8030TIP3   OH224053   2.442   0.589   0.336
 8030TIP3    H124054   2.394   0.514   0.300
 8030TIP3    H224055   2.393   0.614   0.414
 8031TIP3   OH224056   5.634   2.271   3.924
 8031TIP3    H124057   5.611   2.229   4.007
 8031TIP3    H224058   5.594   2.216   3.857
 8032TIP3   OH224059   2.533   2.971   5.098
 8032TIP3    H124060   2.613   2.918   5.091
 8032TIP3    H224061   2.553   3.051   5.050
 8033TIP3   OH224062   0.093   1.425   2.948
 8033TIP3    H124063   0.167   1.484   2.967
 8033TIP3    H224064   0.106   1.399   2.857
 8034TIP3   OH224065   0.331   1.088   3.184
 8034TIP3    H124066   0.382   1.068   3.263
 8034TIP3    H224067   0.246   1.048   3.200
 8035TIP3   OH224068   0.122   3.804   5.047
 8035TIP3    H124069   0.035   3.775   5.020
 8035TIP3    H224070   0.170   3.722   5.065
 8036TIP3   OH224071   0.626   6.658   2.369
 8036TIP3    H124072   0.675   6.721   2.422
 8036TIP3    H224073   0.692   6.597   2.337
 8037TIP3   OH224074   3.381   6.027   5.567
 8037TIP3    H124075   3.306   6.039   5.508
 8037TIP3    H224076   3.455   6.014   5.508
 8038TIP3   OH224077   5.990   3.006   0.448
 8038TIP3    H124078   5.943   2.966   0.521
 8038TIP3    H224079   5.989   2.939   0.379
 8039TIP3   OH224080   0.369   1.471   1.785
 8039TIP3    H124081   0.409   1.392   1.749
 8039TIP3    H224082   0.439   1.514   1.833
 8040TIP3   OH224083   5.671   5.532   5.040
 8040TIP3    H124084   5.605   5.602   5.041
 8040TIP3    H224085   5.752   5.576   5.013
 8041TIP3   OH224086   0.491   4.432   1.274
 8041TIP3    H124087   0.528   4.383   1.200
 8041TIP3    H224088   0.567   4.463   1.323
 8042TIP3   OH224089   3.883   4.271   2.685
 8042TIP3    H124090   3.852   4.289   2.596
 8042TIP3    H224091   3.976   4.250   2.674
 8043TIP3   OH224092   5.796   3.976   3.258
 8043TIP3    H124093   5.701   3.966   3.264
 8043TIP3    H224094   5.809   4.044   3.193
 8044TIP3   OH224095   6.843   6.444   4.743
 8044TIP3    H124096   6.902   6.519   4.735
 8044TIP3    H224097   6.850   6.400   4.658
 8045TIP3   OH224098   1.848   3.638   4.336
 8045TIP3    H124099   1.898   3.687   4.271
 8045TIP3    H224100   1.814   3.563   4.288
 8046TIP3   OH224101   3.492   3.766   5.061
 8046TIP3    H124102   3.562   3.775   5.126
 8046TIP3    H224103   3.534   3.786   4.977
 8047TIP3   OH224104   4.532   4.412   2.822
 8047TIP3    H124105   4.545   4.338   2.880
 8047TIP3    H224106   4.617   4.456   2.819
 8048TIP3   OH224107   0.528   1.502   4.100
 8048TIP3    H124108   0.470   1.563   4.146
 8048TIP3    H224109   0.590   1.558   4.054
 8049TIP3   OH224110   6.713   1.811   1.533
 8049TIP3    H124111   6.763   1.738   1.496
 8049TIP3    H224112   6.759   1.835   1.613
 8050TIP3   OH224113   5.080   0.856   2.197
 8050TIP3    H124114   5.123   0.861   2.283
 8050TIP3    H224115   4.997   0.813   2.213
 8051TIP3   OH224116   0.718   4.950   4.401
 8051TIP3    H124117   0.771   4.997   4.337
 8051TIP3    H224118   0.781   4.895   4.448
 8052TIP3   OH224119   6.670   3.438   3.603
 8052TIP3    H124120   6.665   3.530   3.627
 8052TIP3    H224121   6.698   3.393   3.682
 8053TIP3   OH224122   0.855   0.718   2.939
 8053TIP3    H124123   0.935   0.666   2.943
 8053TIP3    H224124   0.870   0.790   3.000
 8054TIP3   OH224125   7.109   6.228   2.763
 8054TIP3    H124126   7.061   6.263   2.688
 8054TIP3    H224127   7.072   6.141   2.777
 8055TIP3   OH224128   3.843   5.852  -0.062
 8055TIP3    H124129   3.838   5.787   0.008
 8055TIP3    H224130   3.755   5.854  -0.099
 8056TIP3   OH224131   1.275   5.527   2.808
 8056TIP3    H124132   1.200   5.476   2.839
 8056TIP3    H224133   1.248   5.559   2.722
 8057TIP3   OH224134   6.229   1.189   5.598
 8057TIP3    H124135   6.275   1.194   5.515
 8057TIP3    H224136   6.297   1.168   5.662
 8058TIP3   OH224137   1.807   2.019   4.706
 8058TIP3    H124138   1.842   1.934   4.735
 8058TIP3    H224139   1.883   2.077   4.707
 8059TIP3   OH224140   3.474   3.210   3.988
 8059TIP3    H124141   3.466   3.168   4.074
 8059TIP3    H224142   3.488   3.302   4.007
 8060TIP3   OH224143   1.721   2.078   1.128
 8060TIP3    H124144   1.736   2.010   1.194
 8060TIP3    H224145   1.631   2.063   1.098
 8061TIP3   OH224146   2.595   2.818   5.399
 8061TIP3    H124147   2.640   2.887   5.352
 8061TIP3    H224148   2.506   2.820   5.364
 8062TIP3   OH224149   2.674   0.644   4.234
 8062TIP3    H124150   2.621   0.711   4.276
 8062TIP3    H224151   2.681   0.672   4.142
 8063TIP3   OH224152   3.764   4.034   1.111
 8063TIP3    H124153   3.712   4.046   1.191
 8063TIP3    H224154   3.842   4.088   1.125
 8064TIP3   OH224155   3.175   3.129   3.284
 8064TIP3    H124156   3.140   3.043   3.306
 8064TIP3    H224157   3.142   3.146   3.195
 8065TIP3   OH224158   2.787   4.882   1.487
 8065TIP3    H124159   2.695   4.899   1.510
 8065TIP3    H224160   2.783   4.842   1.400
 8066TIP3   OH224161   3.959   5.995   4.843
 8066TIP3    H124162   3.868   5.970   4.827
 8066TIP3    H224163   3.991   5.930   4.906
 8067TIP3   OH224164   1.840   0.699   2.600
 8067TIP3    H124165   1.789   0.631   2.557
 8067TIP3    H224166   1.783   0.776   2.599
 8068TIP3   OH224167   0.621   5.701   5.899
 8068TIP3    H124168   0.639   5.718   5.806
 8068TIP3    H224169   0.534   5.737   5.913
 8069TIP3   OH224170   0.890   0.447   1.773
 8069TIP3    H124171   0.981   0.430   1.798
 8069TIP3    H224172   0.892   0.450   1.677
 8070TIP3   OH224173   1.273   3.729   4.272
 8070TIP3    H124174   1.264   3.671   4.196
 8070TIP3    H224175   1.208   3.697   4.334
 8071TIP3   OH224176   1.924   2.063   0.941
 8071TIP3    H124177   1.881   1.996   0.888
 8071TIP3    H224178   1.857   2.093   1.001
 8072TIP3   OH224179   1.279   5.492   1.066
 8072TIP3    H124180   1.233   5.568   1.101
 8072TIP3    H224181   1.369   5.522   1.055
 8073TIP3   OH224182   6.653   0.173   0.589
 8073TIP3    H124183   6.565   0.160   0.554
 8073TIP3    H224184   6.688   0.247   0.540
 8074TIP3   OH224185   2.964   0.133   0.180
 8074TIP3    H124186   3.038   0.162   0.233
 8074TIP3    H224187   2.972   0.038   0.177
 8075TIP3   OH224188   4.271   2.160   3.429
 8075TIP3    H124189   4.276   2.065   3.442
 8075TIP3    H224190   4.205   2.171   3.361
 8076TIP3   OH224191   2.572   3.753   1.455
 8076TIP3    H124192   2.509   3.732   1.385
 8076TIP3    H224193   2.646   3.696   1.437
 8077TIP3   OH224194   3.721   5.675   5.185
 8077TIP3    H124195   3.638   5.686   5.232
 8077TIP3    H224196   3.709   5.596   5.133
 8078TIP3   OH224197   1.501   0.402   2.947
 8078TIP3    H124198   1.468   0.487   2.977
 8078TIP3    H224199   1.432   0.369   2.889
 8079TIP3   OH224200   3.700   3.381   4.331
 8079TIP3    H124201   3.718   3.369   4.238
 8079TIP3    H224202   3.764   3.327   4.375
 8080TIP3   OH224203   2.566   1.652   3.586
 8080TIP3    H124204   2.613   1.650   3.669
 8080TIP3    H224205   2.533   1.563   3.574
 8081TIP3   OH224206   0.950   1.204   2.462
 8081TIP3    H124207   0.947   1.112   2.437
 8081TIP3    H224208   1.044   1.225   2.466
 8082TIP3   OH224209   0.494   1.990   1.143
 8082TIP3    H124210   0.516   1.952   1.057
 8082TIP3    H224211   0.571   1.972   1.197
 8083TIP3   OH224212   6.029   3.177   1.436
 8083TIP3    H124213   6.005   3.268   1.447
 8083TIP3    H224214   6.123   3.174   1.457
 8084TIP3   OH224215   0.687   1.914   0.104
 8084TIP3    H124216   0.748   1.840   0.098
 8084TIP3    H224217   0.636   1.909   0.023
 8085TIP3   OH224218   6.006   2.593   0.337
 8085TIP3    H124219   6.018   2.533   0.263
 8085TIP3    H224220   6.002   2.680   0.296
 8086TIP3   OH224221   4.923   0.246   1.106
 8086TIP3    H124222   4.999   0.233   1.049
 8086TIP3    H224223   4.945   0.198   1.186
 8087TIP3   OH224224   2.565   6.600   5.599
 8087TIP3    H124225   2.624   6.675   5.591
 8087TIP3    H224226   2.622   6.524   5.598
 8088TIP3   OH224227   4.551   4.016   3.732
 8088TIP3    H124228   4.568   4.023   3.638
 8088TIP3    H224229   4.562   3.923   3.751
 8089TIP3   OH224230   6.989   5.213   3.985
 8089TIP3    H124231   7.062   5.160   4.019
 8089TIP3    H224232   6.958   5.164   3.909
 8090TIP3   OH224233   1.462   0.853   2.167
 8090TIP3    H124234   1.476   0.768   2.126
 8090TIP3    H224235   1.391   0.893   2.117
 8091TIP3   OH224236   0.783   5.772   0.049
 8091TIP3    H124237   0.699   5.741   0.017
 8091TIP3    H224238   0.764   5.805   0.137
 8092TIP3   OH224239   6.672   5.575   4.663
 8092TIP3    H124240   6.721   5.532   4.734
 8092TIP3    H224241   6.647   5.503   4.605
 8093TIP3   OH224242   4.366   5.296   4.531
 8093TIP3    H124243   4.451   5.275   4.494
 8093TIP3    H224244   4.306   5.232   4.493
 8094TIP3   OH224245   3.641   0.162   5.793
 8094TIP3    H124246   3.719   0.209   5.823
 8094TIP3    H224247   3.576   0.174   5.862
 8095TIP3   OH224248   1.567   6.366   1.142
 8095TIP3    H124249   1.617   6.288   1.118
 8095TIP3    H224250   1.577   6.374   1.237
 8096TIP3   OH224251   4.666   4.612   1.508
 8096TIP3    H124252   4.745   4.564   1.485
 8096TIP3    H224253   4.636   4.572   1.590
 8097TIP3   OH224254   7.087   5.243   2.179
 8097TIP3    H124255   7.174   5.232   2.140
 8097TIP3    H224256   7.102   5.293   2.259
 8098TIP3   OH224257   3.843   4.472   3.787
 8098TIP3    H124258   3.839   4.567   3.785
 8098TIP3    H224259   3.846   4.450   3.880
 8099TIP3   OH224260   0.488   0.653   4.150
 8099TIP3    H124261   0.582   0.640   4.137
 8099TIP3    H224262   0.450   0.566   4.138
 8100TIP3   OH224263   6.840   1.755   2.183
 8100TIP3    H124264   6.795   1.767   2.266
 8100TIP3    H224265   6.804   1.674   2.148
 8101TIP3   OH224266   3.555   2.918   2.177
 8101TIP3    H124267   3.617   2.960   2.236
 8101TIP3    H224268   3.478   2.975   2.177
 8102TIP3   OH224269   1.676   2.462   5.644
 8102TIP3    H124270   1.762   2.497   5.669
 8102TIP3    H224271   1.618   2.485   5.717
 8103TIP3   OH224272   2.529   4.391   2.717
 8103TIP3    H124273   2.438   4.381   2.746
 8103TIP3    H224274   2.532   4.476   2.675
 8104TIP3   OH224275   1.832   5.767   1.470
 8104TIP3    H124276   1.829   5.746   1.563
 8104TIP3    H224277   1.763   5.712   1.432
 8105TIP3   OH224278   0.267   6.085   5.885
 8105TIP3    H124279   0.252   6.170   5.843
 8105TIP3    H224280   0.181   6.044   5.889
 8106TIP3   OH224281   5.868   1.727   3.416
 8106TIP3    H124282   5.882   1.692   3.504
 8106TIP3    H224283   5.784   1.689   3.389
 8107TIP3   OH224284   4.253   5.774   2.435
 8107TIP3    H124285   4.307   5.760   2.512
 8107TIP3    H224286   4.249   5.688   2.393
 8108TIP3   OH224287   5.185   1.487   0.847
 8108TIP3    H124288   5.130   1.474   0.770
 8108TIP3    H224289   5.164   1.414   0.904
 8109TIP3   OH224290   4.839   3.947   3.187
 8109TIP3    H124291   4.812   3.906   3.269
 8109TIP3    H224292   4.765   4.002   3.163
 8110TIP3   OH224293   2.236   2.021   2.193
 8110TIP3    H124294   2.314   2.076   2.184
 8110TIP3    H224295   2.165   2.074   2.157
 8111TIP3   OH224296   5.704   5.254   1.456
 8111TIP3    H124297   5.767   5.324   1.438
 8111TIP3    H224298   5.727   5.184   1.394
 8112TIP3   OH224299   5.985   5.059   1.546
 8112TIP3    H124300   5.964   4.998   1.475
 8112TIP3    H224301   6.013   5.139   1.500
 8113TIP3   OH224302   0.035   3.007   5.062
 8113TIP3    H124303   0.123   3.044   5.066
 8113TIP3    H224304  -0.004   3.047   4.984
 8114TIP3   OH224305   2.995   6.179   4.120
 8114TIP3    H124306   3.089   6.165   4.135
 8114TIP3    H224307   2.979   6.267   4.154
 8115TIP3   OH224308   4.788   1.917   0.404
 8115TIP3    H124309   4.875   1.881   0.423
 8115TIP3    H224310   4.805   2.001   0.362
 8116TIP3   OH224311   5.595   5.944   3.838
 8116TIP3    H124312   5.594   5.861   3.789
 8116TIP3    H224313   5.568   5.919   3.927
 8117TIP3   OH224314   1.613   5.954   4.271
 8117TIP3    H124315   1.589   5.920   4.185
 8117TIP3    H224316   1.542   6.012   4.296
 8118TIP3   OH224317   2.510   3.241   1.669
 8118TIP3    H124318   2.501   3.256   1.574
 8118TIP3    H224319   2.432   3.190   1.692
 8119TIP3   OH224320   6.453   2.264   2.047
 8119TIP3    H124321   6.548   2.254   2.048
 8119TIP3    H224322   6.433   2.313   2.127
 8120TIP3   OH224323   1.509   2.369   5.421
 8120TIP3    H124324   1.570   2.320   5.366
 8120TIP3    H224325   1.562   2.401   5.494
 8121TIP3   OH224326   6.514   2.563   1.755
 8121TIP3    H124327   6.478   2.479   1.783
 8121TIP3    H224328   6.504   2.563   1.660
 8122TIP3   OH224329   0.186   4.505   0.935
 8122TIP3    H124330   0.104   4.542   0.902
 8122TIP3    H224331   0.169   4.489   1.028
 8123TIP3   OH224332   4.533   2.217   0.668
 8123TIP3    H124333   4.563   2.142   0.616
 8123TIP3    H224334   4.592   2.288   0.643
 8124TIP3   OH224335   4.586   1.184   1.899
 8124TIP3    H124336   4.664   1.134   1.876
 8124TIP3    H224337   4.515   1.139   1.852
 8125TIP3   OH224338   3.561   4.069   5.110
 8125TIP3    H124339   3.471   4.035   5.111
 8125TIP3    H224340   3.602   4.031   5.187
 8126TIP3   OH224341   2.384   6.456   2.021
 8126TIP3    H124342   2.290   6.473   2.032
 8126TIP3    H224343   2.420   6.460   2.109
 8127TIP3   OH224344   6.769   4.510   5.306
 8127TIP3    H124345   6.697   4.487   5.247
 8127TIP3    H224346   6.772   4.439   5.370
 8128TIP3   OH224347   3.321   3.195   2.979
 8128TIP3    H124348   3.343   3.119   3.032
 8128TIP3    H224349   3.232   3.218   3.007
 8129TIP3   OH224350   3.246   3.428   5.165
 8129TIP3    H124351   3.282   3.442   5.078
 8129TIP3    H224352   3.158   3.466   5.161
 8130TIP3   OH224353   0.801   1.891   5.292
 8130TIP3    H124354   0.817   1.954   5.362
 8130TIP3    H224355   0.866   1.822   5.308
 8131TIP3   OH224356   6.424   1.507   1.646
 8131TIP3    H124357   6.456   1.557   1.722
 8131TIP3    H224358   6.356   1.563   1.608
 8132TIP3   OH224359   0.906   4.141   2.362
 8132TIP3    H124360   0.995   4.108   2.372
 8132TIP3    H224361   0.850   4.063   2.364
 8133TIP3   OH224362   4.082   1.684   0.463
 8133TIP3    H124363   4.142   1.651   0.396
 8133TIP3    H224364   4.072   1.610   0.523
 8134TIP3   OH224365   1.209   4.406   4.437
 8134TIP3    H124366   1.174   4.420   4.525
 8134TIP3    H224367   1.163   4.328   4.406
 8135TIP3   OH224368   2.621   5.688   1.835
 8135TIP3    H124369   2.644   5.649   1.920
 8135TIP3    H224370   2.596   5.778   1.856
 8136TIP3   OH224371   0.134   0.945   1.430
 8136TIP3    H124372   0.068   0.877   1.417
 8136TIP3    H224373   0.106   0.990   1.510
 8137TIP3   OH224374   3.789   0.188   2.896
 8137TIP3    H124375   3.861   0.126   2.908
 8137TIP3    H224376   3.765   0.178   2.804
 8138TIP3   OH224377   6.350   0.351   3.820
 8138TIP3    H124378   6.301   0.270   3.806
 8138TIP3    H224379   6.384   0.344   3.909
 8139TIP3   OH224380   4.035   2.103   0.271
 8139TIP3    H124381   4.098   2.175   0.273
 8139TIP3    H224382   3.996   2.107   0.184
 8140TIP3   OH224383   3.660   6.549   4.359
 8140TIP3    H124384   3.689   6.499   4.435
 8140TIP3    H224385   3.741   6.571   4.313
 8141TIP3   OH224386   1.438   2.966   2.587
 8141TIP3    H124387   1.362   2.994   2.637
 8141TIP3    H224388   1.408   2.963   2.496
 8142TIP3   OH224389   3.125   6.323   4.499
 8142TIP3    H124390   3.069   6.389   4.457
 8142TIP3    H224391   3.079   6.303   4.581
 8143TIP3   OH224392   5.526   5.736   5.286
 8143TIP3    H124393   5.452   5.707   5.234
 8143TIP3    H224394   5.550   5.660   5.339
 8144TIP3   OH224395   0.183   5.749   2.160
 8144TIP3    H124396   0.109   5.699   2.127
 8144TIP3    H224397   0.150   5.839   2.168
 8145TIP3   OH224398   0.327   6.741   3.681
 8145TIP3    H124399   0.263   6.803   3.646
 8145TIP3    H224400   0.369   6.704   3.603
 8146TIP3   OH224401   0.964   5.371   0.750
 8146TIP3    H124402   1.018   5.442   0.784
 8146TIP3    H224403   0.874   5.401   0.761
 8147TIP3   OH224404   1.174   4.029   2.405
 8147TIP3    H124405   1.206   4.008   2.493
 8147TIP3    H224406   1.189   4.123   2.395
 8148TIP3   OH224407   3.658   4.036   2.953
 8148TIP3    H124408   3.673   3.949   2.915
 8148TIP3    H224409   3.593   4.020   3.022
 8149TIP3   OH224410   4.113   2.229   0.557
 8149TIP3    H124411   4.179   2.218   0.625
 8149TIP3    H224412   4.071   2.143   0.551
 8150TIP3   OH224413   0.207   5.271   0.993
 8150TIP3    H124414   0.220   5.358   0.956
 8150TIP3    H224415   0.199   5.286   1.088
 8151TIP3   OH224416   4.522   5.502   4.805
 8151TIP3    H124417   4.553   5.587   4.834
 8151TIP3    H224418   4.570   5.485   4.724
 8152TIP3   OH224419   5.715   2.390   1.041
 8152TIP3    H124420   5.626   2.361   1.059
 8152TIP3    H224421   5.770   2.343   1.104
 8153TIP3   OH224422   2.847   6.653   1.442
 8153TIP3    H124423   2.825   6.635   1.350
 8153TIP3    H224424   2.779   6.607   1.492
 8154TIP3   OH224425   5.270   3.127   4.728
 8154TIP3    H124426   5.191   3.143   4.677
 8154TIP3    H224427   5.310   3.213   4.737
 8155TIP3   OH224428   3.805   5.579   2.623
 8155TIP3    H124429   3.861   5.506   2.598
 8155TIP3    H224430   3.818   5.588   2.717
 8156TIP3   OH224431   4.968   6.555   4.288
 8156TIP3    H124432   4.911   6.578   4.361
 8156TIP3    H224433   4.919   6.490   4.239
 8157TIP3   OH224434   6.240   5.132   4.279
 8157TIP3    H124435   6.252   5.108   4.187
 8157TIP3    H224436   6.329   5.132   4.315
 8158TIP3   OH224437   1.164   1.601   4.217
 8158TIP3    H124438   1.100   1.626   4.283
 8158TIP3    H224439   1.114   1.594   4.136
 8159TIP3   OH224440   5.352   0.300   4.174
 8159TIP3    H124441   5.296   0.223   4.181
 8159TIP3    H224442   5.356   0.335   4.263
 8160TIP3   OH224443   0.214   0.284   3.921
 8160TIP3    H124444   0.149   0.219   3.893
 8160TIP3    H224445   0.178   0.368   3.893
 8161TIP3   OH224446   4.847   3.948   2.899
 8161TIP3    H124447   4.764   3.975   2.860
 8161TIP3    H224448   4.837   3.967   2.993
 8162TIP3   OH224449   2.924   0.342   5.204
 8162TIP3    H124450   2.880   0.333   5.119
 8162TIP3    H224451   2.868   0.401   5.254
 8163TIP3   OH224452   6.612   1.699   5.739
 8163TIP3    H124453   6.570   1.646   5.807
 8163TIP3    H224454   6.546   1.765   5.716
 8164TIP3   OH224455   4.681   3.869   1.944
 8164TIP3    H124456   4.749   3.935   1.931
 8164TIP3    H224457   4.614   3.892   1.880
 8165TIP3   OH224458   1.024   2.114   1.276
 8165TIP3    H124459   1.119   2.111   1.284
 8165TIP3    H224460   1.004   2.048   1.209
 8166TIP3   OH224461   4.743   2.806   0.585
 8166TIP3    H124462   4.738   2.890   0.632
 8166TIP3    H224463   4.693   2.746   0.639
 8167TIP3   OH224464   5.385   6.588   5.197
 8167TIP3    H124465   5.422   6.598   5.109
 8167TIP3    H224466   5.438   6.646   5.252
 8168TIP3   OH224467   1.246   0.682   2.436
 8168TIP3    H124468   1.188   0.693   2.360
 8168TIP3    H224469   1.277   0.771   2.455
 8169TIP3   OH224470   1.904   5.559   3.373
 8169TIP3    H124471   1.990   5.518   3.378
 8169TIP3    H224472   1.915   5.633   3.314
 8170TIP3   OH224473   2.488   4.130   4.287
 8170TIP3    H124474   2.397   4.154   4.305
 8170TIP3    H224475   2.483   4.071   4.212
 8171TIP3   OH224476   0.567   2.953   1.613
 8171TIP3    H124477   0.557   2.919   1.702
 8171TIP3    H224478   0.615   2.884   1.567
 8172TIP3   OH224479   6.353   1.983   5.735
 8172TIP3    H124480   6.322   1.893   5.745
 8172TIP3    H224481   6.275   2.034   5.715
 8173TIP3   OH224482   0.120   4.808   1.775
 8173TIP3    H124483   0.135   4.714   1.766
 8173TIP3    H224484   0.086   4.836   1.690
 8174TIP3   OH224485   5.606   5.506   5.465
 8174TIP3    H124486   5.689   5.491   5.510
 8174TIP3    H224487   5.609   5.446   5.390
 8175TIP3   OH224488   3.322   3.068   0.119
 8175TIP3    H124489   3.287   2.979   0.123
 8175TIP3    H224490   3.415   3.056   0.099
 8176TIP3   OH224491   4.758   4.546   2.725
 8176TIP3    H124492   4.841   4.590   2.746
 8176TIP3    H224493   4.780   4.485   2.655
 8177TIP3   OH224494   6.716   5.012   4.499
 8177TIP3    H124495   6.736   5.106   4.500
 8177TIP3    H224496   6.718   4.986   4.591
 8178TIP3   OH224497   6.947   5.082   3.082
 8178TIP3    H124498   6.967   5.047   3.169
 8178TIP3    H224499   7.029   5.121   3.052
 8179TIP3   OH224500   6.817   2.049   4.452
 8179TIP3    H124501   6.760   2.009   4.518
 8179TIP3    H224502   6.827   1.981   4.385
 8180TIP3   OH224503   4.388   1.650   3.973
 8180TIP3    H124504   4.388   1.563   3.933
 8180TIP3    H224505   4.481   1.670   3.987
 8181TIP3   OH224506   5.861   2.458   5.464
 8181TIP3    H124507   5.869   2.369   5.430
 8181TIP3    H224508   5.929   2.507   5.419
 8182TIP3   OH224509   3.345   0.542   2.139
 8182TIP3    H124510   3.371   0.610   2.076
 8182TIP3    H224511   3.283   0.487   2.090
 8183TIP3   OH224512   1.885   6.266   4.595
 8183TIP3    H124513   1.864   6.180   4.560
 8183TIP3    H224514   1.815   6.323   4.562
 8184TIP3   OH224515   2.713   1.916   4.069
 8184TIP3    H124516   2.649   1.957   4.011
 8184TIP3    H224517   2.781   1.982   4.080
 8185TIP3   OH224518   4.731   0.859   0.198
 8185TIP3    H124519   4.749   0.815   0.281
 8185TIP3    H224520   4.807   0.916   0.184
 8186TIP3   OH224521   2.495   1.344   5.464
 8186TIP3    H124522   2.567   1.284   5.447
 8186TIP3    H224523   2.532   1.411   5.522
 8187TIP3   OH224524   3.370   0.768  -0.010
 8187TIP3    H124525   3.404   0.829   0.056
 8187TIP3    H224526   3.409   0.683   0.013
 8188TIP3   OH224527   2.986   3.308   4.466
 8188TIP3    H124528   2.918   3.375   4.476
 8188TIP3    H224529   2.968   3.245   4.535
 8189TIP3   OH224530   6.541   6.306   5.149
 8189TIP3    H124531   6.458   6.354   5.140
 8189TIP3    H224532   6.560   6.275   5.060
 8190TIP3   OH224533   7.067   3.120   3.110
 8190TIP3    H124534   7.087   3.193   3.170
 8190TIP3    H224535   7.146   3.067   3.111
 8191TIP3   OH224536   6.235   1.015   0.148
 8191TIP3    H124537   6.267   1.019   0.058
 8191TIP3    H224538   6.314   1.002   0.201
 8192TIP3   OH224539   4.542   4.505   4.520
 8192TIP3    H124540   4.505   4.525   4.435
 8192TIP3    H224541   4.586   4.420   4.508
 8193TIP3   OH224542   3.106   6.109   4.740
 8193TIP3    H124543   3.130   6.045   4.807
 8193TIP3    H224544   3.032   6.156   4.777
 8194TIP3   OH224545   6.339   3.121   2.725
 8194TIP3    H124546   6.345   3.041   2.778
 8194TIP3    H224547   6.378   3.097   2.641
 8195TIP3   OH224548   1.010   1.452   0.950
 8195TIP3    H124549   0.933   1.460   0.893
 8195TIP3    H224550   1.005   1.364   0.986
 8196TIP3   OH224551   1.538   0.022   1.020
 8196TIP3    H124552   1.464  -0.038   1.015
 8196TIP3    H224553   1.498   0.109   1.023
 8197TIP3   OH224554   3.201   2.438   4.046
 8197TIP3    H124555   3.154   2.364   4.007
 8197TIP3    H224556   3.132   2.496   4.077
 8198TIP3   OH224557   1.853   1.751   4.220
 8198TIP3    H124558   1.793   1.694   4.268
 8198TIP3    H224559   1.806   1.773   4.140
 8199TIP3   OH224560   6.695   3.575   3.994
 8199TIP3    H124561   6.696   3.665   3.960
 8199TIP3    H224562   6.607   3.564   4.031
 8200TIP3   OH224563   3.501   2.615   3.516
 8200TIP3    H124564   3.488   2.533   3.562
 8200TIP3    H224565   3.522   2.678   3.585
 8201TIP3   OH224566   2.802   2.679   5.511
 8201TIP3    H124567   2.879   2.707   5.461
 8201TIP3    H224568   2.733   2.742   5.486
 8202TIP3   OH224569   3.339   5.064   3.402
 8202TIP3    H124570   3.402   5.042   3.334
 8202TIP3    H224571   3.285   4.986   3.411
 8203TIP3   OH224572   1.988   4.877   1.518
 8203TIP3    H124573   2.005   4.921   1.601
 8203TIP3    H224574   1.942   4.796   1.542
 8204TIP3   OH224575   6.843   5.510   0.259
 8204TIP3    H124576   6.836   5.433   0.315
 8204TIP3    H224577   6.753   5.530   0.235
 8205TIP3   OH224578   5.362   4.447   5.740
 8205TIP3    H124579   5.274   4.473   5.715
 8205TIP3    H224580   5.419   4.517   5.708
 8206TIP3   OH224581   2.947   1.235   3.367
 8206TIP3    H124582   2.867   1.284   3.387
 8206TIP3    H224583   2.916   1.158   3.320
 8207TIP3   OH224584   7.189   1.607   1.864
 8207TIP3    H124585   7.265   1.628   1.918
 8207TIP3    H224586   7.146   1.534   1.909
 8208TIP3   OH224587   5.471   0.082   3.047
 8208TIP3    H124588   5.412   0.007   3.048
 8208TIP3    H224589   5.527   0.069   3.124
 8209TIP3   OH224590   6.726   4.878   3.765
 8209TIP3    H124591   6.664   4.808   3.785
 8209TIP3    H224592   6.721   4.887   3.670
 8210TIP3   OH224593   1.905   6.758   4.455
 8210TIP3    H124594   1.837   6.760   4.523
 8210TIP3    H224595   1.931   6.666   4.451
 8211TIP3   OH224596   2.730   6.716   5.155
 8211TIP3    H124597   2.752   6.739   5.065
 8211TIP3    H224598   2.675   6.638   5.147
 8212TIP3   OH224599   5.635   6.382   2.140
 8212TIP3    H124600   5.622   6.355   2.049
 8212TIP3    H224601   5.549   6.413   2.169
 8213TIP3   OH224602   5.048   1.787   1.287
 8213TIP3    H124603   5.070   1.694   1.277
 8213TIP3    H224604   5.058   1.824   1.199
 8214TIP3   OH224605   4.801   5.650   4.523
 8214TIP3    H124606   4.885   5.639   4.568
 8214TIP3    H224607   4.811   5.732   4.474
 8215TIP3   OH224608   1.871   3.335   1.585
 8215TIP3    H124609   1.785   3.314   1.622
 8215TIP3    H224610   1.913   3.250   1.570
 8216TIP3   OH224611   2.057   6.794   1.191
 8216TIP3    H124612   2.117   6.720   1.183
 8216TIP3    H224613   1.970   6.755   1.187
 8217TIP3   OH224614   5.972   0.759   0.558
 8217TIP3    H124615   6.033   0.832   0.562
 8217TIP3    H224616   5.912   0.781   0.487
 8218TIP3   OH224617   1.628   5.980   3.440
 8218TIP3    H124618   1.687   5.950   3.371
 8218TIP3    H224619   1.650   5.926   3.515
 8219TIP3   OH224620   0.831   2.147   2.093
 8219TIP3    H124621   0.844   2.054   2.075
 8219TIP3    H224622   0.820   2.152   2.188
 8220TIP3   OH224623   3.721   2.003   5.655
 8220TIP3    H124624   3.804   1.973   5.692
 8220TIP3    H224625   3.726   2.098   5.661
 8221TIP3   OH224626   4.143   4.000   1.361
 8221TIP3    H124627   4.079   3.966   1.424
 8221TIP3    H224628   4.226   3.962   1.388
 8222TIP3   OH224629   3.911   4.956   5.067
 8222TIP3    H124630   3.982   4.995   5.119
 8222TIP3    H224631   3.953   4.883   5.022
 8223TIP3   OH224632   6.749   3.778   4.249
 8223TIP3    H124633   6.665   3.788   4.293
 8223TIP3    H224634   6.775   3.867   4.226
 8224TIP3   OH224635   4.174   6.533   3.820
 8224TIP3    H124636   4.169   6.514   3.914
 8224TIP3    H224637   4.191   6.627   3.816
 8225TIP3   OH224638   3.259   5.517   0.025
 8225TIP3    H124639   3.343   5.472   0.033
 8225TIP3    H224640   3.263   5.586   0.092
 8226TIP3   OH224641   3.184   6.418   2.468
 8226TIP3    H124642   3.160   6.440   2.558
 8226TIP3    H224643   3.278   6.433   2.464
 8227TIP3   OH224644   4.507   0.234   3.503
 8227TIP3    H124645   4.497   0.329   3.507
 8227TIP3    H224646   4.418   0.200   3.507
 8228TIP3   OH224647   1.966   0.565   0.898
 8228TIP3    H124648   1.999   0.634   0.955
 8228TIP3    H224649   1.983   0.597   0.809
 8229TIP3   OH224650   3.963   5.115   0.497
 8229TIP3    H124651   3.931   5.066   0.421
 8229TIP3    H224652   3.934   5.063   0.573
 8230TIP3   OH224653   3.153   5.912  -0.008
 8230TIP3    H124654   3.183   5.990   0.039
 8230TIP3    H224655   3.132   5.849   0.060
 8231TIP3   OH224656   1.895   1.950   5.053
 8231TIP3    H124657   1.979   1.916   5.025
 8231TIP3    H224658   1.845   1.873   5.079
 8232TIP3   OH224659   2.378   6.450   4.126
 8232TIP3    H124660   2.284   6.465   4.116
 8232TIP3    H224661   2.387   6.405   4.210
 8233TIP3   OH224662   3.720   4.440   1.443
 8233TIP3    H124663   3.671   4.402   1.516
 8233TIP3    H224664   3.699   4.533   1.446
 8234TIP3   OH224665   0.469   0.042   4.364
 8234TIP3    H124666   0.443   0.101   4.294
 8234TIP3    H224667   0.561   0.025   4.348
 8235TIP3   OH224668   1.041   5.504   2.313
 8235TIP3    H124669   1.052   5.598   2.303
 8235TIP3    H224670   1.006   5.475   2.228
 8236TIP3   OH224671   4.049   6.361   0.363
 8236TIP3    H124672   4.130   6.352   0.312
 8236TIP3    H224673   4.054   6.292   0.429
 8237TIP3   OH224674   6.733   4.764   5.139
 8237TIP3    H124675   6.809   4.744   5.084
 8237TIP3    H224676   6.768   4.768   5.228
 8238TIP3   OH224677   5.375   2.769   0.445
 8238TIP3    H124678   5.356   2.775   0.539
 8238TIP3    H224679   5.349   2.854   0.410
 8239TIP3   OH224680   2.680   1.441   3.150
 8239TIP3    H124681   2.772   1.419   3.133
 8239TIP3    H224682   2.636   1.426   3.066
 8240TIP3   OH224683   0.809   6.027   5.114
 8240TIP3    H124684   0.871   6.000   5.181
 8240TIP3    H224685   0.816   6.122   5.110
 8241TIP3   OH224686   2.980   4.939   2.315
 8241TIP3    H124687   2.975   4.939   2.411
 8241TIP3    H224688   3.059   4.887   2.296
 8242TIP3   OH224689   0.175   5.210   2.442
 8242TIP3    H124690   0.197   5.239   2.354
 8242TIP3    H224691   0.202   5.118   2.445
 8243TIP3   OH224692   0.113   5.287   2.059
 8243TIP3    H124693   0.099   5.194   2.042
 8243TIP3    H224694   0.119   5.327   1.973
 8244TIP3   OH224695   5.688   2.181   0.602
 8244TIP3    H124696   5.693   2.087   0.622
 8244TIP3    H224697   5.770   2.200   0.557
 8245TIP3   OH224698   6.298   1.911   1.149
 8245TIP3    H124699   6.364   1.940   1.213
 8245TIP3    H224700   6.240   1.855   1.200
 8246TIP3   OH224701   3.655   2.405   1.141
 8246TIP3    H124702   3.577   2.440   1.183
 8246TIP3    H224703   3.694   2.346   1.206
 8247TIP3   OH224704   5.423   0.839   1.249
 8247TIP3    H124705   5.495   0.897   1.273
 8247TIP3    H224706   5.450   0.800   1.166
 8248TIP3   OH224707   2.312   5.687   1.063
 8248TIP3    H124708   2.267   5.691   0.979
 8248TIP3    H224709   2.405   5.690   1.041
 8249TIP3   OH224710   1.327   0.376   4.641
 8249TIP3    H124711   1.389   0.356   4.571
 8249TIP3    H224712   1.379   0.367   4.721
 8250TIP3   OH224713   3.297   5.225   1.760
 8250TIP3    H124714   3.238   5.219   1.835
 8250TIP3    H224715   3.369   5.165   1.780
 8251TIP3   OH224716   0.097   0.396   2.308
 8251TIP3    H124717   0.189   0.372   2.312
 8251TIP3    H224718   0.095   0.488   2.333
 8252TIP3   OH224719   6.342   0.863   3.796
 8252TIP3    H124720   6.436   0.860   3.780
 8252TIP3    H224721   6.319   0.772   3.817
 8253TIP3   OH224722   5.133   3.110   0.764
 8253TIP3    H124723   5.048   3.121   0.807
 8253TIP3    H224724   5.114   3.117   0.670
 8254TIP3   OH224725   2.845   2.819   3.155
 8254TIP3    H124726   2.843   2.728   3.125
 8254TIP3    H224727   2.794   2.818   3.236
 8255TIP3   OH224728   0.869   6.662   0.762
 8255TIP3    H124729   0.892   6.734   0.703
 8255TIP3    H224730   0.900   6.690   0.848
 8256TIP3   OH224731   7.037   3.495   3.993
 8256TIP3    H124732   7.004   3.516   3.906
 8256TIP3    H224733   6.981   3.422   4.023
 8257TIP3   OH224734   3.235   1.292   3.883
 8257TIP3    H124735   3.234   1.321   3.792
 8257TIP3    H224736   3.195   1.365   3.931
 8258TIP3   OH224737   0.645   1.106   5.237
 8258TIP3    H124738   0.680   1.070   5.155
 8258TIP3    H224739   0.649   1.201   5.224
 8259TIP3   OH224740   1.150   4.358   4.708
 8259TIP3    H124741   1.143   4.364   4.804
 8259TIP3    H224742   1.228   4.305   4.693
 8260TIP3   OH224743   3.064   0.078   3.130
 8260TIP3    H124744   3.151   0.118   3.127
 8260TIP3    H224745   3.018   0.125   3.198
 8261TIP3   OH224746   4.961   3.882   5.301
 8261TIP3    H124747   4.946   3.799   5.346
 8261TIP3    H224748   4.874   3.917   5.285
 8262TIP3   OH224749   2.910   3.274   3.407
 8262TIP3    H124750   2.982   3.337   3.409
 8262TIP3    H224751   2.852   3.307   3.338
 8263TIP3   OH224752   4.037   0.742   3.822
 8263TIP3    H124753   4.075   0.715   3.738
 8263TIP3    H224754   3.999   0.661   3.857
 8264TIP3   OH224755   0.459   3.793   0.242
 8264TIP3    H124756   0.530   3.730   0.256
 8264TIP3    H224757   0.399   3.778   0.315
 8265TIP3   OH224758   3.527   0.390   2.275
 8265TIP3    H124759   3.615   0.396   2.238
 8265TIP3    H224760   3.473   0.443   2.217
 8266TIP3   OH224761   0.940   1.439   5.156
 8266TIP3    H124762   0.969   1.349   5.139
 8266TIP3    H224763   1.014   1.480   5.202
 8267TIP3   OH224764   1.250   6.722   1.648
 8267TIP3    H124765   1.222   6.774   1.573
 8267TIP3    H224766   1.342   6.744   1.660
 8268TIP3   OH224767   4.305   2.267   1.783
 8268TIP3    H124768   4.383   2.316   1.756
 8268TIP3    H224769   4.340   2.189   1.826
 8269TIP3   OH224770   2.360   1.343   4.053
 8269TIP3    H124771   2.444   1.299   4.064
 8269TIP3    H224772   2.376   1.432   4.083
 8270TIP3   OH224773   6.511   0.747   2.025
 8270TIP3    H124774   6.424   0.786   2.036
 8270TIP3    H224775   6.572   0.820   2.040
 8271TIP3   OH224776   0.059   2.978   1.222
 8271TIP3    H124777   0.070   2.985   1.127
 8271TIP3    H224778   0.089   3.062   1.256
 8272TIP3   OH224779   3.493   0.905   2.020
 8272TIP3    H124780   3.582   0.910   1.985
 8272TIP3    H224781   3.460   0.822   1.986
 8273TIP3   OH224782   4.019   1.997   5.601
 8273TIP3    H124783   4.035   2.029   5.513
 8273TIP3    H224784   4.004   1.903   5.591
 8274TIP3   OH224785   5.292   1.103   2.320
 8274TIP3    H124786   5.354   1.127   2.389
 8274TIP3    H224787   5.239   1.033   2.358
 8275TIP3   OH224788   5.082   4.711   1.275
 8275TIP3    H124789   5.054   4.781   1.334
 8275TIP3    H224790   5.041   4.632   1.309
 8276TIP3   OH224791   6.376   2.705   3.582
 8276TIP3    H124792   6.363   2.654   3.662
 8276TIP3    H224793   6.343   2.792   3.602
 8277TIP3   OH224794   1.335   6.333   3.965
 8277TIP3    H124795   1.281   6.258   3.940
 8277TIP3    H224796   1.271   6.403   3.980
 8278TIP3   OH224797   5.870   3.077   2.220
 8278TIP3    H124798   5.961   3.067   2.192
 8278TIP3    H224799   5.874   3.079   2.315
 8279TIP3   OH224800   4.879   5.625   4.964
 8279TIP3    H124801   4.937   5.559   4.925
 8279TIP3    H224802   4.826   5.657   4.892
 8280TIP3   OH224803   0.898   5.579   3.298
 8280TIP3    H124804   0.979   5.627   3.277
 8280TIP3    H224805   0.841   5.595   3.223
 8281TIP3   OH224806   6.015   0.991   5.718
 8281TIP3    H124807   5.991   0.932   5.646
 8281TIP3    H224808   6.093   1.037   5.687
 8282TIP3   OH224809   5.266   2.882   1.917
 8282TIP3    H124810   5.341   2.827   1.938
 8282TIP3    H224811   5.195   2.820   1.899
 8283TIP3   OH224812   1.054   4.195   1.724
 8283TIP3    H124813   1.099   4.116   1.755
 8283TIP3    H224814   0.974   4.199   1.777
 8284TIP3   OH224815   0.951   0.897   3.117
 8284TIP3    H124816   1.016   0.964   3.093
 8284TIP3    H224817   1.000   0.835   3.171
 8285TIP3   OH224818   4.607   4.922   4.486
 8285TIP3    H124819   4.592   5.010   4.522
 8285TIP3    H224820   4.521   4.880   4.490
 8286TIP3   OH224821   6.343   0.748   0.229
 8286TIP3    H124822   6.296   0.665   0.218
 8286TIP3    H224823   6.335   0.790   0.143
 8287TIP3   OH224824   3.998   1.524   0.159
 8287TIP3    H124825   3.999   1.442   0.208
 8287TIP3    H224826   4.076   1.571   0.189
 8288TIP3   OH224827   2.735   0.603   4.943
 8288TIP3    H124828   2.714   0.604   5.037
 8288TIP3    H224829   2.659   0.560   4.903
 8289TIP3   OH224830   4.913   0.256   2.706
 8289TIP3    H124831   4.873   0.329   2.754
 8289TIP3    H224832   4.935   0.192   2.774
 8290TIP3   OH224833   3.771   0.475   2.183
 8290TIP3    H124834   3.814   0.393   2.158
 8290TIP3    H224835   3.825   0.509   2.254
 8291TIP3   OH224836   4.471   0.340   5.331
 8291TIP3    H124837   4.420   0.370   5.406
 8291TIP3    H224838   4.486   0.247   5.349
 8292TIP3   OH224839   7.118   5.895   4.055
 8292TIP3    H124840   7.189   5.879   3.993
 8292TIP3    H224841   7.147   5.852   4.136
 8293TIP3   OH224842   1.251   4.180   3.195
 8293TIP3    H124843   1.312   4.129   3.248
 8293TIP3    H224844   1.213   4.243   3.257
 8294TIP3   OH224845   2.372   5.290   4.858
 8294TIP3    H124846   2.442   5.326   4.804
 8294TIP3    H224847   2.293   5.336   4.829
 8295TIP3   OH224848   4.881   1.072   3.877
 8295TIP3    H124849   4.872   1.078   3.781
 8295TIP3    H224850   4.943   1.000   3.890
 8296TIP3   OH224851   5.604   1.756   4.619
 8296TIP3    H124852   5.632   1.843   4.647
 8296TIP3    H224853   5.677   1.699   4.644
 8297TIP3   OH224854   3.431   3.972   4.012
 8297TIP3    H124855   3.495   4.043   4.018
 8297TIP3    H224856   3.359   4.009   3.961
 8298TIP3   OH224857   5.597   2.956   0.319
 8298TIP3    H124858   5.632   3.013   0.387
 8298TIP3    H224859   5.590   3.012   0.242
 8299TIP3   OH224860   3.989   5.543   0.585
 8299TIP3    H124861   3.912   5.492   0.562
 8299TIP3    H224862   4.031   5.562   0.500
 8300TIP3   OH224863   5.147   2.732   1.218
 8300TIP3    H124864   5.154   2.819   1.258
 8300TIP3    H224865   5.126   2.750   1.126
 8301TIP3   OH224866   2.392   6.337   0.485
 8301TIP3    H124867   2.466   6.383   0.524
 8301TIP3    H224868   2.315   6.383   0.519
 8302TIP3   OH224869   2.221   3.209   1.702
 8302TIP3    H124870   2.188   3.258   1.627
 8302TIP3    H224871   2.150   3.149   1.725
 8303TIP3   OH224872   2.633   3.093   4.048
 8303TIP3    H124873   2.585   3.101   3.965
 8303TIP3    H224874   2.581   3.031   4.099
 8304TIP3   OH224875   4.917   1.793   2.528
 8304TIP3    H124876   4.841   1.752   2.486
 8304TIP3    H224877   4.990   1.775   2.469
 8305TIP3   OH224878   4.689   4.410   4.037
 8305TIP3    H124879   4.783   4.423   4.043
 8305TIP3    H224880   4.675   4.370   3.952
 8306TIP3   OH224881   2.677   3.740   2.223
 8306TIP3    H124882   2.764   3.780   2.224
 8306TIP3    H224883   2.669   3.696   2.307
 8307TIP3   OH224884   6.717   5.840   4.632
 8307TIP3    H124885   6.811   5.822   4.634
 8307TIP3    H224886   6.676   5.756   4.656
 8308TIP3   OH224887   2.350   2.228   1.019
 8308TIP3    H124888   2.267   2.207   1.061
 8308TIP3    H224889   2.411   2.241   1.091
 8309TIP3   OH224890   0.602   1.829   5.649
 8309TIP3    H124891   0.622   1.847   5.741
 8309TIP3    H224892   0.638   1.904   5.602
 8310TIP3   OH224893   4.743   4.629   4.692
 8310TIP3    H124894   4.697   4.597   4.770
 8310TIP3    H224895   4.685   4.607   4.619
 8311TIP3   OH224896   4.210   1.329   0.430
 8311TIP3    H124897   4.297   1.354   0.399
 8311TIP3    H224898   4.187   1.396   0.494
 8312TIP3   OH224899   4.243   6.425   2.236
 8312TIP3    H124900   4.166   6.465   2.196
 8312TIP3    H224901   4.295   6.499   2.267
 8313TIP3   OH224902   6.113   0.483   1.003
 8313TIP3    H124903   6.033   0.434   0.985
 8313TIP3    H224904   6.087   0.574   0.999
 8314TIP3   OH224905   6.625   4.213   1.824
 8314TIP3    H124906   6.576   4.142   1.867
 8314TIP3    H224907   6.716   4.196   1.847
 8315TIP3   OH224908   5.787   3.346   4.684
 8315TIP3    H124909   5.852   3.321   4.750
 8315TIP3    H224910   5.788   3.273   4.622
 8316TIP3   OH224911   6.283   4.843   4.901
 8316TIP3    H124912   6.295   4.789   4.822
 8316TIP3    H224913   6.262   4.930   4.866
 8317TIP3   OH224914   4.614   0.083   5.373
 8317TIP3    H124915   4.602   0.031   5.453
 8317TIP3    H224916   4.669   0.156   5.400
 8318TIP3   OH224917  -0.022   0.440   1.332
 8318TIP3    H124918  -0.026   0.367   1.270
 8318TIP3    H224919   0.070   0.447   1.355
 8319TIP3   OH224920   6.344   3.966   5.112
 8319TIP3    H124921   6.320   3.901   5.178
 8319TIP3    H224922   6.333   4.050   5.156
 8320TIP3   OH224923   3.758   5.360   5.510
 8320TIP3    H124924   3.680   5.319   5.471
 8320TIP3    H224925   3.725   5.403   5.589
 8321TIP3   OH224926   7.162   3.043   2.522
 8321TIP3    H124927   7.244   3.092   2.519
 8321TIP3    H224928   7.172   2.976   2.455
 8322TIP3   OH224929   2.466   0.034   4.437
 8322TIP3    H124930   2.462   0.125   4.466
 8322TIP3    H224931   2.549   0.028   4.388
 8323TIP3   OH224932   4.755   5.112   1.964
 8323TIP3    H124933   4.813   5.078   2.032
 8323TIP3    H224934   4.813   5.153   1.900
 8324TIP3   OH224935   1.160   0.824   2.723
 8324TIP3    H124936   1.182   0.845   2.633
 8324TIP3    H224937   1.078   0.871   2.739
 8325TIP3   OH224938   4.645   5.303   0.378
 8325TIP3    H124939   4.707   5.251   0.429
 8325TIP3    H224940   4.612   5.243   0.312
 8326TIP3   OH224941   1.628   6.719   5.088
 8326TIP3    H124942   1.622   6.785   5.019
 8326TIP3    H224943   1.702   6.747   5.142
 8327TIP3   OH224944   6.266   3.124   5.574
 8327TIP3    H124945   6.205   3.187   5.611
 8327TIP3    H224946   6.246   3.122   5.481
 8328TIP3   OH224947   4.091   1.548   0.963
 8328TIP3    H124948   4.074   1.578   0.873
 8328TIP3    H224949   4.007   1.561   1.008
 8329TIP3   OH224950   3.772   0.553   2.944
 8329TIP3    H124951   3.847   0.494   2.952
 8329TIP3    H224952   3.810   0.635   2.911
 8330TIP3   OH224953   6.794   4.573   5.732
 8330TIP3    H124954   6.834   4.660   5.730
 8330TIP3    H224955   6.739   4.573   5.810
 8331TIP3   OH224956   1.588   0.475   1.342
 8331TIP3    H124957   1.565   0.468   1.434
 8331TIP3    H224958   1.665   0.418   1.332
 8332TIP3   OH224959   3.749   0.988   2.752
 8332TIP3    H124960   3.668   1.040   2.748
 8332TIP3    H224961   3.804   1.024   2.682
 8333TIP3   OH224962   6.858   3.673   2.786
 8333TIP3    H124963   6.950   3.680   2.812
 8333TIP3    H224964   6.830   3.587   2.819
 8334TIP3   OH224965   3.905   2.444   3.651
 8334TIP3    H124966   3.923   2.390   3.574
 8334TIP3    H224967   3.918   2.386   3.725
 8335TIP3   OH224968   5.478   4.555   4.844
 8335TIP3    H124969   5.520   4.473   4.870
 8335TIP3    H224970   5.458   4.544   4.751
 8336TIP3   OH224971   3.714   6.047   3.372
 8336TIP3    H124972   3.701   6.124   3.315
 8336TIP3    H224973   3.697   5.972   3.315
 8337TIP3   OH224974   1.192   5.403   1.524
 8337TIP3    H124975   1.129   5.475   1.532
 8337TIP3    H224976   1.165   5.340   1.591
 8338TIP3   OH224977   6.053   2.144   1.126
 8338TIP3    H124978   6.110   2.183   1.192
 8338TIP3    H224979   6.023   2.063   1.166
 8339TIP3   OH224980   3.317   2.956   0.828
 8339TIP3    H124981   3.345   3.024   0.889
 8339TIP3    H224982   3.359   2.877   0.859
 8340TIP3   OH224983   0.939   3.757   3.500
 8340TIP3    H124984   0.945   3.706   3.580
 8340TIP3    H224985   1.030   3.773   3.474
 8341TIP3   OH224986   2.773   3.187   4.276
 8341TIP3    H124987   2.843   3.204   4.339
 8341TIP3    H224988   2.702   3.148   4.327
 8342TIP3   OH224989   5.092   3.505   4.677
 8342TIP3    H124990   5.178   3.471   4.651
 8342TIP3    H224991   5.053   3.435   4.729
 8343TIP3   OH224992   6.085   6.302   2.251
 8343TIP3    H124993   6.067   6.353   2.329
 8343TIP3    H224994   6.089   6.367   2.180
 8344TIP3   OH224995   7.132   0.788   0.455
 8344TIP3    H124996   7.186   0.857   0.416
 8344TIP3    H224997   7.042   0.817   0.441
 8345TIP3   OH224998   3.366   5.879   4.425
 8345TIP3    H124999   3.284   5.927   4.418
 8345TIP3    H225000   3.432   5.940   4.393
 8346TIP3   OH225001   1.402   3.253   0.749
 8346TIP3    H125002   1.443   3.185   0.803
 8346TIP3    H225003   1.427   3.336   0.792
 8347TIP3   OH225004   6.248   4.661   1.251
 8347TIP3    H125005   6.318   4.677   1.188
 8347TIP3    H225006   6.266   4.722   1.323
 8348TIP3   OH225007   6.340   0.036   3.511
 8348TIP3    H125008   6.323   0.126   3.483
 8348TIP3    H225009   6.436   0.029   3.510
 8349TIP3   OH225010   3.845   1.378   0.862
 8349TIP3    H125011   3.781   1.433   0.818
 8349TIP3    H225012   3.902   1.346   0.792
 8350TIP3   OH225013   3.762   0.634   3.346
 8350TIP3    H125014   3.697   0.581   3.392
 8350TIP3    H225015   3.716   0.665   3.268
 8351TIP3   OH225016   6.013   1.900   1.521
 8351TIP3    H125017   6.084   1.933   1.577
 8351TIP3    H225018   5.937   1.895   1.580
 8352TIP3   OH225019   1.236   1.318   4.174
 8352TIP3    H125020   1.321   1.305   4.133
 8352TIP3    H225021   1.174   1.319   4.101
 8353TIP3   OH225022   4.678   0.925   4.488
 8353TIP3    H125023   4.749   0.948   4.549
 8353TIP3    H225024   4.606   0.897   4.545
 8354TIP3   OH225025   0.455   4.532   0.332
 8354TIP3    H125026   0.487   4.567   0.249
 8354TIP3    H225027   0.364   4.508   0.315
 8355TIP3   OH225028   7.108   2.880   2.764
 8355TIP3    H125029   7.130   2.935   2.688
 8355TIP3    H225030   7.031   2.921   2.802
 8356TIP3   OH225031   2.837   4.450   1.612
 8356TIP3    H125032   2.844   4.363   1.651
 8356TIP3    H225033   2.778   4.439   1.537
 8357TIP3   OH225034   6.952   2.819   2.015
 8357TIP3    H125035   6.890   2.877   1.971
 8357TIP3    H225036   7.019   2.878   2.050
 8358TIP3   OH225037   4.887   0.890   5.575
 8358TIP3    H125038   4.963   0.877   5.631
 8358TIP3    H225039   4.814   0.851   5.623
 8359TIP3   OH225040   2.916   4.464   0.486
 8359TIP3    H125041   2.979   4.435   0.552
 8359TIP3    H225042   2.932   4.408   0.410
 8360TIP3   OH225043   4.197   4.082   0.265
 8360TIP3    H125044   4.105   4.083   0.242
 8360TIP3    H225045   4.198   4.083   0.361
 8361TIP3   OH225046   3.938   5.163   0.916
 8361TIP3    H125047   3.967   5.132   1.002
 8361TIP3    H225048   3.901   5.250   0.933
 8362TIP3   OH225049   1.298   0.547   3.875
 8362TIP3    H125050   1.296   0.625   3.931
 8362TIP3    H225051   1.391   0.526   3.866
 8363TIP3   OH225052   6.919   6.309   1.416
 8363TIP3    H125053   7.010   6.339   1.418
 8363TIP3    H225054   6.884   6.342   1.334
 8364TIP3   OH225055   2.966   1.487   0.533
 8364TIP3    H125056   2.905   1.492   0.606
 8364TIP3    H225057   2.955   1.398   0.498
 8365TIP3   OH225058   4.016   5.315   5.243
 8365TIP3    H125059   4.063   5.232   5.236
 8365TIP3    H225060   3.947   5.297   5.307
 8366TIP3   OH225061   4.933   5.418   1.988
 8366TIP3    H125062   4.937   5.369   1.906
 8366TIP3    H225063   4.933   5.510   1.962
 8367TIP3   OH225064   0.186   4.721   4.837
 8367TIP3    H125065   0.097   4.720   4.800
 8367TIP3    H225066   0.204   4.814   4.852
 8368TIP3   OH225067   4.090   5.924   2.157
 8368TIP3    H125068   4.106   6.014   2.130
 8368TIP3    H225069   4.000   5.906   2.129
 8369TIP3   OH225070   4.253   5.369   5.399
 8369TIP3    H125071   4.309   5.312   5.345
 8369TIP3    H225072   4.187   5.402   5.339
 8370TIP3   OH225073   0.847   2.594   5.653
 8370TIP3    H125074   0.809   2.558   5.734
 8370TIP3    H225075   0.805   2.543   5.584
 8371TIP3   OH225076   5.133   3.988   4.441
 8371TIP3    H125077   5.077   4.065   4.437
 8371TIP3    H225078   5.168   3.988   4.530
 8372TIP3   OH225079   1.165   1.001   3.551
 8372TIP3    H125080   1.193   0.994   3.642
 8372TIP3    H225081   1.216   1.074   3.516
 8373TIP3   OH225082   6.244   3.596   0.799
 8373TIP3    H125083   6.264   3.625   0.888
 8373TIP3    H225084   6.237   3.501   0.806
 8374TIP3   OH225085   4.565   2.105   3.922
 8374TIP3    H125086   4.473   2.122   3.902
 8374TIP3    H225087   4.591   2.038   3.859
 8375TIP3   OH225088   1.030   6.239   0.827
 8375TIP3    H125089   0.991   6.154   0.806
 8375TIP3    H225090   1.113   6.241   0.779
 8376TIP3   OH225091   6.324   0.727   0.985
 8376TIP3    H125092   6.395   0.742   0.923
 8376TIP3    H225093   6.264   0.800   0.972
 8377TIP3   OH225094   0.839   5.896   1.699
 8377TIP3    H125095   0.882   5.980   1.714
 8377TIP3    H225096   0.755   5.904   1.744
 8378TIP3   OH225097   1.860   2.829   3.119
 8378TIP3    H125098   1.941   2.855   3.163
 8378TIP3    H225099   1.822   2.912   3.089
 8379TIP3   OH225100   3.157   1.695   2.842
 8379TIP3    H125101   3.156   1.790   2.834
 8379TIP3    H225102   3.182   1.679   2.933
 8380TIP3   OH225103   2.893   4.118   0.511
 8380TIP3    H125104   2.987   4.096   0.510
 8380TIP3    H225105   2.874   4.136   0.603
 8381TIP3   OH225106   4.586   6.428   1.791
 8381TIP3    H125107   4.620   6.404   1.878
 8381TIP3    H225108   4.647   6.386   1.730
 8382TIP3   OH225109   4.845   1.460   2.618
 8382TIP3    H125110   4.821   1.388   2.676
 8382TIP3    H225111   4.883   1.526   2.676
 8383TIP3   OH225112   2.916   5.978   5.199
 8383TIP3    H125113   2.863   5.950   5.124
 8383TIP3    H225114   2.863   6.045   5.242
 8384TIP3   OH225115   2.845   5.999   3.485
 8384TIP3    H125116   2.935   5.982   3.511
 8384TIP3    H225117   2.811   6.059   3.551
 8385TIP3   OH225118   1.488   0.320   1.145
 8385TIP3    H125119   1.403   0.293   1.182
 8385TIP3    H225120   1.528   0.374   1.212
 8386TIP3   OH225121   5.761   1.366   3.553
 8386TIP3    H125122   5.829   1.306   3.523
 8386TIP3    H225123   5.808   1.445   3.578
 8387TIP3   OH225124   3.036   1.087   2.629
 8387TIP3    H125125   2.996   1.083   2.542
 8387TIP3    H225126   3.104   1.019   2.627
 8388TIP3   OH225127   2.535   3.756   0.160
 8388TIP3    H125128   2.497   3.808   0.231
 8388TIP3    H225129   2.492   3.671   0.166
 8389TIP3   OH225130   4.972   0.252   5.555
 8389TIP3    H125131   5.015   0.293   5.630
 8389TIP3    H225132   4.908   0.191   5.594
 8390TIP3   OH225133   1.992   3.074   3.677
 8390TIP3    H125134   1.908   3.058   3.720
 8390TIP3    H225135   2.023   3.156   3.714
 8391TIP3   OH225136   0.810   1.049   5.008
 8391TIP3    H125137   0.870   1.096   5.065
 8391TIP3    H225138   0.772   1.117   4.952
 8392TIP3   OH225139   6.924   3.896   5.697
 8392TIP3    H125140   6.902   3.829   5.762
 8392TIP3    H225141   7.015   3.919   5.715
 8393TIP3   OH225142   1.011   6.392   1.816
 8393TIP3    H125143   0.991   6.467   1.761
 8393TIP3    H225144   1.095   6.413   1.856
 8394TIP3   OH225145   3.453   5.769   5.322
 8394TIP3    H125146   3.490   5.854   5.345
 8394TIP3    H225147   3.401   5.785   5.244
 8395TIP3   OH225148   5.290   5.099   4.454
 8395TIP3    H125149   5.321   5.170   4.399
 8395TIP3    H225150   5.310   5.020   4.404
 8396TIP3   OH225151   2.524   2.737   4.829
 8396TIP3    H125152   2.481   2.808   4.876
 8396TIP3    H225153   2.453   2.676   4.807
 8397TIP3   OH225154   0.805   3.051   3.674
 8397TIP3    H125155   0.733   3.016   3.727
 8397TIP3    H225156   0.785   3.145   3.667
 8398TIP3   OH225157   7.039   2.103   4.787
 8398TIP3    H125158   6.996   2.155   4.720
 8398TIP3    H225159   7.042   2.014   4.751
 8399TIP3   OH225160   5.238   5.440   5.073
 8399TIP3    H125161   5.185   5.425   4.995
 8399TIP3    H225162   5.242   5.354   5.116
 8400TIP3   OH225163   4.793   4.731   5.699
 8400TIP3    H125164   4.713   4.678   5.699
 8400TIP3    H225165   4.792   4.775   5.614
 8401TIP3   OH225166   5.388   6.228   5.047
 8401TIP3    H125167   5.301   6.217   5.086
 8401TIP3    H225168   5.448   6.223   5.121
 8402TIP3   OH225169   0.056   4.225   4.447
 8402TIP3    H125170  -0.025   4.189   4.483
 8402TIP3    H225171   0.047   4.216   4.352
 8403TIP3   OH225172   2.609   5.418   1.160
 8403TIP3    H125173   2.536   5.437   1.219
 8403TIP3    H225174   2.685   5.458   1.201
 8404TIP3   OH225175   6.171   2.037   0.620
 8404TIP3    H125176   6.261   2.011   0.639
 8404TIP3    H225177   6.135   2.066   0.704
 8405TIP3   OH225178   2.547   1.093   2.708
 8405TIP3    H125179   2.621   1.111   2.650
 8405TIP3    H225180   2.472   1.132   2.664
 8406TIP3   OH225181   1.910   6.176   2.661
 8406TIP3    H125182   1.843   6.212   2.603
 8406TIP3    H225183   1.925   6.244   2.727
 8407TIP3   OH225184   5.699   2.903   4.830
 8407TIP3    H125185   5.739   2.817   4.816
 8407TIP3    H225186   5.606   2.890   4.809
 8408TIP3   OH225187   0.329   0.558   5.459
 8408TIP3    H125188   0.237   0.535   5.447
 8408TIP3    H225189   0.360   0.582   5.372
 8409TIP3   OH225190   2.552   0.787   4.665
 8409TIP3    H125191   2.559   0.817   4.575
 8409TIP3    H225192   2.642   0.764   4.690
 8410TIP3   OH225193   2.690   2.942   0.920
 8410TIP3    H125194   2.643   3.007   0.867
 8410TIP3    H225195   2.779   2.940   0.883
 8411TIP3   OH225196   1.566   0.794   2.488
 8411TIP3    H125197   1.580   0.699   2.487
 8411TIP3    H225198   1.545   0.814   2.579
 8412TIP3   OH225199   6.342   6.047   2.762
 8412TIP3    H125200   6.437   6.057   2.769
 8412TIP3    H225201   6.330   5.966   2.711
 8413TIP3   OH225202   5.117   5.245   5.659
 8413TIP3    H125203   5.066   5.168   5.632
 8413TIP3    H225204   5.117   5.302   5.583
 8414TIP3   OH225205   3.337   3.388   1.961
 8414TIP3    H125206   3.329   3.331   1.885
 8414TIP3    H225207   3.253   3.434   1.965
 8415TIP3   OH225208   4.201   1.203   1.264
 8415TIP3    H125209   4.111   1.173   1.280
 8415TIP3    H225210   4.197   1.243   1.177
 8416TIP3   OH225211   2.738   1.822   5.101
 8416TIP3    H125212   2.758   1.730   5.119
 8416TIP3    H225213   2.815   1.870   5.131
 8417TIP3   OH225214   0.587   1.092   0.308
 8417TIP3    H125215   0.643   1.168   0.317
 8417TIP3    H225216   0.624   1.042   0.236
 8418TIP3   OH225217   3.637   4.522   4.906
 8418TIP3    H125218   3.561   4.577   4.888
 8418TIP3    H225219   3.661   4.485   4.821
 8419TIP3   OH225220   5.760   1.092   4.038
 8419TIP3    H125221   5.749   1.012   3.987
 8419TIP3    H225222   5.736   1.163   3.978
 8420TIP3   OH225223   0.049   6.372   3.240
 8420TIP3    H125224   0.051   6.445   3.178
 8420TIP3    H225225   0.102   6.402   3.314
 8421TIP3   OH225226   0.223   1.100   3.925
 8421TIP3    H125227   0.285   1.031   3.951
 8421TIP3    H225228   0.217   1.091   3.830
 8422TIP3   OH225229   0.809   3.374   1.014
 8422TIP3    H125230   0.773   3.286   1.003
 8422TIP3    H225231   0.741   3.421   1.062
 8423TIP3   OH225232   4.874   6.725   1.157
 8423TIP3    H125233   4.829   6.801   1.193
 8423TIP3    H225234   4.938   6.701   1.224
 8424TIP3   OH225235   0.084   2.716   1.560
 8424TIP3    H125236   0.060   2.808   1.547
 8424TIP3    H225237   0.108   2.710   1.652
 8425TIP3   OH225238   7.176   1.550   1.327
 8425TIP3    H125239   7.083   1.540   1.306
 8425TIP3    H225240   7.177   1.580   1.418
 8426TIP3   OH225241   3.497   3.708   2.346
 8426TIP3    H125242   3.586   3.675   2.362
 8426TIP3    H225243   3.479   3.684   2.255
 8427TIP3   OH225244   2.060   4.763   3.216
 8427TIP3    H125245   1.996   4.691   3.214
 8427TIP3    H225246   2.129   4.732   3.274
 8428TIP3   OH225247   4.627   1.565   0.671
 8428TIP3    H125248   4.705   1.587   0.721
 8428TIP3    H225249   4.602   1.478   0.700
 8429TIP3   OH225250   0.082   6.559   2.103
 8429TIP3    H125251   0.133   6.513   2.170
 8429TIP3    H225252   0.146   6.583   2.036
 8430TIP3   OH225253   2.780   4.181   1.691
 8430TIP3    H125254   2.694   4.199   1.728
 8430TIP3    H225255   2.765   4.108   1.630
 8431TIP3   OH225256   3.535   0.898   5.386
 8431TIP3    H125257   3.536   0.961   5.313
 8431TIP3    H225258   3.608   0.839   5.366
 8432TIP3   OH225259   5.055   5.130   4.030
 8432TIP3    H125260   5.061   5.049   3.979
 8432TIP3    H225261   4.965   5.160   4.015
 8433TIP3   OH225262   6.220   6.559   2.048
 8433TIP3    H125263   6.160   6.513   1.989
 8433TIP3    H225264   6.259   6.489   2.101
 8434TIP3   OH225265   5.451   1.512   2.299
 8434TIP3    H125266   5.438   1.486   2.390
 8434TIP3    H225267   5.392   1.456   2.249
 8435TIP3   OH225268   6.654   0.078   1.250
 8435TIP3    H125269   6.610   0.138   1.190
 8435TIP3    H225270   6.634   0.111   1.337
 8436TIP3   OH225271   5.831   0.038   3.100
 8436TIP3    H125272   5.838   0.053   3.005
 8436TIP3    H225273   5.918   0.058   3.133
 8437TIP3   OH225274   7.137   3.435   0.712
 8437TIP3    H125275   7.086   3.491   0.653
 8437TIP3    H225276   7.093   3.350   0.708
 8438TIP3   OH225277   2.260   5.509   2.406
 8438TIP3    H125278   2.210   5.579   2.365
 8438TIP3    H225279   2.275   5.446   2.335
 8439TIP3   OH225280   6.292   4.854   4.147
 8439TIP3    H125281   6.345   4.824   4.221
 8439TIP3    H225282   6.352   4.851   4.072
 8440TIP3   OH225283   3.922   1.070   4.697
 8440TIP3    H125284   3.985   1.051   4.628
 8440TIP3    H225285   3.930   0.997   4.758
 8441TIP3   OH225286   1.043   1.112   5.805
 8441TIP3    H125287   1.102   1.100   5.730
 8441TIP3    H225288   0.956   1.120   5.765
 8442TIP3   OH225289   4.240   6.133   0.041
 8442TIP3    H125290   4.255   6.205   0.103
 8442TIP3    H225291   4.151   6.146   0.009
 8443TIP3   OH225292   5.421   4.105   4.820
 8443TIP3    H125293   5.405   4.097   4.914
 8443TIP3    H225294   5.352   4.164   4.788
 8444TIP3   OH225295   1.520   3.206   3.885
 8444TIP3    H125296   1.505   3.178   3.794
 8444TIP3    H225297   1.528   3.302   3.879
 8445TIP3   OH225298   5.639   4.091   2.248
 8445TIP3    H125299   5.606   4.023   2.189
 8445TIP3    H225300   5.560   4.127   2.289
 8446TIP3   OH225301   0.940   5.876   4.621
 8446TIP3    H125302   0.970   5.950   4.568
 8446TIP3    H225303   0.912   5.915   4.703
 8447TIP3   OH225304   3.652   2.003   4.598
 8447TIP3    H125305   3.562   2.016   4.569
 8447TIP3    H225306   3.701   1.983   4.519
 8448TIP3   OH225307   2.538   3.426   3.398
 8448TIP3    H125308   2.597   3.381   3.336
 8448TIP3    H225309   2.597   3.473   3.456
 8449TIP3   OH225310   4.127   2.950   3.654
 8449TIP3    H125311   4.044   2.996   3.663
 8449TIP3    H225312   4.191   3.008   3.694
 8450TIP3   OH225313   2.859   4.520   0.122
 8450TIP3    H125314   2.904   4.593   0.080
 8450TIP3    H225315   2.929   4.470   0.166
 8451TIP3   OH225316   5.199   3.025   4.197
 8451TIP3    H125317   5.267   2.970   4.159
 8451TIP3    H225318   5.224   3.114   4.175
 8452TIP3   OH225319   1.120   6.500   1.377
 8452TIP3    H125320   1.180   6.463   1.314
 8452TIP3    H225321   1.118   6.594   1.357
 8453TIP3   OH225322   3.756   5.780   5.652
 8453TIP3    H125323   3.790   5.733   5.727
 8453TIP3    H225324   3.692   5.721   5.613
 8454TIP3   OH225325   2.038   2.423   1.202
 8454TIP3    H125326   2.089   2.344   1.222
 8454TIP3    H225327   2.049   2.435   1.108
 8455TIP3   OH225328   2.865   4.104   4.965
 8455TIP3    H125329   2.851   4.068   4.877
 8455TIP3    H225330   2.829   4.038   5.024
 8456TIP3   OH225331   4.819   0.483   0.570
 8456TIP3    H125332   4.726   0.460   0.578
 8456TIP3    H225333   4.855   0.466   0.657
 8457TIP3   OH225334   5.367   2.867   5.269
 8457TIP3    H125335   5.384   2.960   5.282
 8457TIP3    H225336   5.387   2.851   5.177
 8458TIP3   OH225337   6.248   2.630   2.462
 8458TIP3    H125338   6.268   2.537   2.464
 8458TIP3    H225339   6.276   2.659   2.375
 8459TIP3   OH225340   2.969   0.984   5.198
 8459TIP3    H125341   3.022   0.937   5.261
 8459TIP3    H225342   3.028   1.049   5.160
 8460TIP3   OH225343   5.834   1.662   2.290
 8460TIP3    H125344   5.816   1.656   2.384
 8460TIP3    H225345   5.802   1.749   2.265
 8461TIP3   OH225346   1.086   5.773   3.246
 8461TIP3    H125347   1.115   5.723   3.170
 8461TIP3    H225348   1.168   5.805   3.286
 8462TIP3   OH225349   4.208   4.774   5.703
 8462TIP3    H125350   4.251   4.756   5.620
 8462TIP3    H225351   4.149   4.700   5.717
 8463TIP3   OH225352   1.345   4.844   5.464
 8463TIP3    H125353   1.278   4.858   5.398
 8463TIP3    H225354   1.423   4.888   5.429
 8464TIP3   OH225355   5.505   3.625   0.610
 8464TIP3    H125356   5.567   3.639   0.681
 8464TIP3    H225357   5.536   3.547   0.566
 8465TIP3   OH225358   3.044   2.903   5.126
 8465TIP3    H125359   3.059   2.973   5.062
 8465TIP3    H225360   3.072   2.942   5.209
 8466TIP3   OH225361   1.942   4.396   4.248
 8466TIP3    H125362   1.906   4.448   4.319
 8466TIP3    H225363   2.037   4.408   4.254
 8467TIP3   OH225364   0.369   2.354   1.775
 8467TIP3    H125365   0.327   2.269   1.778
 8467TIP3    H225366   0.458   2.339   1.807
 8468TIP3   OH225367   5.081   6.416   3.333
 8468TIP3    H125368   5.051   6.462   3.411
 8468TIP3    H225369   5.157   6.366   3.362
 8469TIP3   OH225370   1.169   4.498   3.306
 8469TIP3    H125371   1.171   4.519   3.213
 8469TIP3    H225372   1.236   4.554   3.345
 8470TIP3   OH225373   0.907   5.680   1.918
 8470TIP3    H125374   0.865   5.741   1.858
 8470TIP3    H225375   0.967   5.735   1.969
 8471TIP3   OH225376   1.063   0.274   4.446
 8471TIP3    H125377   1.063   0.296   4.539
 8471TIP3    H225378   1.116   0.342   4.404
 8472TIP3   OH225379   6.236   4.862   3.719
 8472TIP3    H125380   6.250   4.783   3.771
 8472TIP3    H225381   6.247   4.934   3.782
 8473TIP3   OH225382   0.533   4.503   5.074
 8473TIP3    H125383   0.527   4.412   5.044
 8473TIP3    H225384   0.492   4.554   5.004
 8474TIP3   OH225385   2.752   0.479   5.367
 8474TIP3    H125386   2.802   0.485   5.448
 8474TIP3    H225387   2.661   0.465   5.395
 8475TIP3   OH225388   3.320   1.316   1.933
 8475TIP3    H125389   3.393   1.282   1.985
 8475TIP3    H225390   3.360   1.382   1.877
 8476TIP3   OH225391   2.980   6.360   5.414
 8476TIP3    H125392   2.956   6.445   5.451
 8476TIP3    H225393   2.918   6.298   5.454
 8477TIP3   OH225394   5.346   6.765   4.641
 8477TIP3    H125395   5.385   6.795   4.559
 8477TIP3    H225396   5.339   6.845   4.694
 8478TIP3   OH225397   1.623   2.259   4.452
 8478TIP3    H125398   1.640   2.188   4.391
 8478TIP3    H225399   1.651   2.338   4.406
 8479TIP3   OH225400   4.837   4.026   0.314
 8479TIP3    H125401   4.812   4.111   0.278
 8479TIP3    H225402   4.801   3.962   0.252
 8480TIP3   OH225403   2.273   5.634   3.860
 8480TIP3    H125404   2.330   5.601   3.790
 8480TIP3    H225405   2.283   5.730   3.856
 8481TIP3   OH225406   4.372   2.739   2.794
 8481TIP3    H125407   4.372   2.698   2.708
 8481TIP3    H225408   4.464   2.763   2.809
 8482TIP3   OH225409   5.450   1.605   1.581
 8482TIP3    H125410   5.499   1.523   1.591
 8482TIP3    H225411   5.364   1.578   1.550
 8483TIP3   OH225412   7.026   5.970   2.971
 8483TIP3    H125413   6.941   5.986   2.932
 8483TIP3    H225414   7.053   6.056   3.006
 8484TIP3   OH225415   2.185   6.254   2.377
 8484TIP3    H125416   2.174   6.286   2.467
 8484TIP3    H225417   2.174   6.332   2.323
 8485TIP3   OH225418   4.464   4.791   1.493
 8485TIP3    H125419   4.509   4.875   1.482
 8485TIP3    H225420   4.533   4.725   1.489
 8486TIP3   OH225421   6.884   0.166   5.716
 8486TIP3    H125422   6.920   0.229   5.654
 8486TIP3    H225423   6.945   0.092   5.714
 8487TIP3   OH225424   3.639   4.176   3.948
 8487TIP3    H125425   3.648   4.170   3.853
 8487TIP3    H225426   3.718   4.133   3.983
 8488TIP3   OH225427   0.252   3.185   5.941
 8488TIP3    H125428   0.167   3.207   5.902
 8488TIP3    H225429   0.299   3.139   5.872
 8489TIP3   OH225430   3.087   1.820   0.727
 8489TIP3    H125431   3.166   1.766   0.714
 8489TIP3    H225432   3.064   1.808   0.819
 8490TIP3   OH225433   7.121   2.578   4.405
 8490TIP3    H125434   7.076   2.581   4.321
 8490TIP3    H225435   7.050   2.575   4.470
 8491TIP3   OH225436   1.336   0.093   0.776
 8491TIP3    H125437   1.411   0.086   0.716
 8491TIP3    H225438   1.287   0.169   0.744
 8492TIP3   OH225439   0.619   1.226   4.900
 8492TIP3    H125440   0.574   1.221   4.816
 8492TIP3    H225441   0.605   1.316   4.930
 8493TIP3   OH225442   2.097   6.605   3.600
 8493TIP3    H125443   2.083   6.535   3.536
 8493TIP3    H225444   2.112   6.559   3.682
 8494TIP3   OH225445   0.645   4.160   1.086
 8494TIP3    H125446   0.635   4.254   1.074
 8494TIP3    H225447   0.722   4.151   1.142
 8495TIP3   OH225448   1.890   5.805   3.880
 8495TIP3    H125449   1.931   5.757   3.808
 8495TIP3    H225450   1.798   5.811   3.856
 8496TIP3   OH225451   4.018   3.107   2.809
 8496TIP3    H125452   3.938   3.131   2.856
 8496TIP3    H225453   4.089   3.147   2.860
 8497TIP3   OH225454   2.405   2.476   3.480
 8497TIP3    H125455   2.430   2.410   3.415
 8497TIP3    H225456   2.458   2.455   3.556
 8498TIP3   OH225457   5.554   5.970   1.309
 8498TIP3    H125458   5.629   6.024   1.337
 8498TIP3    H225459   5.493   6.032   1.270
 8499TIP3   OH225460   3.256   0.220   1.326
 8499TIP3    H125461   3.230   0.289   1.265
 8499TIP3    H225462   3.184   0.216   1.389
 8500TIP3   OH225463   6.050   1.070   1.896
 8500TIP3    H125464   5.986   1.141   1.885
 8500TIP3    H225465   6.044   1.047   1.988
 8501TIP3   OH225466   4.401   3.231   4.528
 8501TIP3    H125467   4.406   3.161   4.463
 8501TIP3    H225468   4.378   3.309   4.478
 8502TIP3   OH225469   2.693   2.179   0.388
 8502TIP3    H125470   2.636   2.253   0.366
 8502TIP3    H225471   2.735   2.156   0.305
 8503TIP3   OH225472   6.626   5.242   1.353
 8503TIP3    H125473   6.623   5.325   1.307
 8503TIP3    H225474   6.699   5.195   1.314
 8504TIP3   OH225475   5.811   6.495   1.799
 8504TIP3    H125476   5.796   6.400   1.792
 8504TIP3    H225477   5.835   6.522   1.710
 8505TIP3   OH225478   3.897   1.686   0.789
 8505TIP3    H125479   3.869   1.776   0.806
 8505TIP3    H225480   3.819   1.644   0.753
 8506TIP3   OH225481   3.890   2.931   5.064
 8506TIP3    H125482   3.984   2.929   5.043
 8506TIP3    H225483   3.865   3.023   5.056
 8507TIP3   OH225484   3.841   4.253   5.735
 8507TIP3    H125485   3.882   4.264   5.821
 8507TIP3    H225486   3.782   4.328   5.727
 8508TIP3   OH225487   3.915   3.318   2.250
 8508TIP3    H125488   3.888   3.243   2.196
 8508TIP3    H225489   4.001   3.294   2.283
 8509TIP3   OH225490   7.025   4.530   5.178
 8509TIP3    H125491   7.070   4.486   5.250
 8509TIP3    H225492   6.934   4.538   5.207
 8510TIP3   OH225493   3.587   2.792   1.264
 8510TIP3    H125494   3.630   2.771   1.181
 8510TIP3    H225495   3.631   2.736   1.329
 8511TIP3   OH225496   5.893   6.782   2.613
 8511TIP3    H125497   5.882   6.735   2.530
 8511TIP3    H225498   5.974   6.746   2.649
 8512TIP3   OH225499   0.551   2.185   3.615
 8512TIP3    H125500   0.574   2.154   3.528
 8512TIP3    H225501   0.478   2.246   3.600
 8513TIP3   OH225502   6.987   3.605   3.753
 8513TIP3    H125503   6.945   3.686   3.726
 8513TIP3    H225504   7.038   3.577   3.676
 8514TIP3   OH225505   0.303   0.890   1.965
 8514TIP3    H125506   0.279   0.806   2.005
 8514TIP3    H225507   0.295   0.875   1.871
 8515TIP3   OH225508   5.179   1.014   0.900
 8515TIP3    H125509   5.269   0.997   0.872
 8515TIP3    H225510   5.136   0.929   0.892
 8516TIP3   OH225511   3.473   2.485   1.341
 8516TIP3    H125512   3.510   2.411   1.389
 8516TIP3    H225513   3.442   2.544   1.410
 8517TIP3   OH225514   5.065   6.793   5.317
 8517TIP3    H125515   5.155   6.793   5.349
 8517TIP3    H225516   5.057   6.876   5.269
 8518TIP3   OH225517   5.823   2.475   2.269
 8518TIP3    H125518   5.892   2.415   2.300
 8518TIP3    H225519   5.827   2.549   2.329
 8519TIP3   OH225520   4.669   5.703   2.950
 8519TIP3    H125521   4.672   5.643   2.875
 8519TIP3    H225522   4.624   5.653   3.018
 8520TIP3   OH225523   2.350   4.277   4.606
 8520TIP3    H125524   2.324   4.261   4.515
 8520TIP3    H225525   2.405   4.202   4.629
 8521TIP3   OH225526   5.231   6.182   2.308
 8521TIP3    H125527   5.309   6.221   2.345
 8521TIP3    H225528   5.249   6.088   2.307
 8522TIP3   OH225529   1.594   1.933   4.531
 8522TIP3    H125530   1.530   1.883   4.481
 8522TIP3    H225531   1.652   1.971   4.465
 8523TIP3   OH225532   2.192   5.095   5.194
 8523TIP3    H125533   2.114   5.042   5.177
 8523TIP3    H225534   2.247   5.040   5.249
 8524TIP3   OH225535   4.140   0.812   1.720
 8524TIP3    H125536   4.216   0.861   1.690
 8524TIP3    H225537   4.177   0.742   1.774
 8525TIP3   OH225538   3.060   2.393   5.380
 8525TIP3    H125539   3.112   2.367   5.305
 8525TIP3    H225540   3.071   2.322   5.443
 8526TIP3   OH225541   0.056   1.760   2.245
 8526TIP3    H125542   0.037   1.696   2.314
 8526TIP3    H225543   0.143   1.793   2.266
 8527TIP3   OH225544   5.979   3.657   3.851
 8527TIP3    H125545   5.934   3.731   3.891
 8527TIP3    H225546   5.988   3.681   3.759
 8528TIP3   OH225547   0.321   3.517   4.121
 8528TIP3    H125548   0.340   3.611   4.115
 8528TIP3    H225549   0.291   3.504   4.211
 8529TIP3   OH225550   0.483   6.240   3.394
 8529TIP3    H125551   0.540   6.299   3.444
 8529TIP3    H225552   0.532   6.220   3.315
 8530TIP3   OH225553   2.204   6.322   3.634
 8530TIP3    H125554   2.246   6.366   3.708
 8530TIP3    H225555   2.238   6.233   3.637
 8531TIP3   OH225556   1.262   1.020   3.830
 8531TIP3    H125557   1.292   1.106   3.861
 8531TIP3    H225558   1.341   0.976   3.801
 8532TIP3   OH225559   2.694   0.948   0.545
 8532TIP3    H125560   2.697   1.002   0.467
 8532TIP3    H225561   2.633   0.993   0.604
 8533TIP3   OH225562   4.997   6.545   5.422
 8533TIP3    H125563   4.949   6.539   5.505
 8533TIP3    H225564   4.993   6.638   5.399
 8534TIP3   OH225565   5.484   6.519   5.486
 8534TIP3    H125566   5.407   6.463   5.479
 8534TIP3    H225567   5.460   6.585   5.551
 8535TIP3   OH225568   1.962   3.398   4.536
 8535TIP3    H125569   1.886   3.376   4.482
 8535TIP3    H225570   2.003   3.472   4.490
 8536TIP3   OH225571   5.774   4.011   0.484
 8536TIP3    H125572   5.766   4.072   0.411
 8536TIP3    H225573   5.684   3.988   0.507
 8537TIP3   OH225574   6.588   3.113   3.111
 8537TIP3    H125575   6.555   3.107   3.022
 8537TIP3    H225576   6.512   3.140   3.163
 8538TIP3   OH225577   0.629   6.442   5.378
 8538TIP3    H125578   0.683   6.478   5.308
 8538TIP3    H225579   0.592   6.518   5.422
 8539TIP3   OH225580   0.003   5.755   5.198
 8539TIP3    H125581  -0.001   5.838   5.149
 8539TIP3    H225582   0.087   5.717   5.175
 8540TIP3   OH225583   3.269   6.123   0.116
 8540TIP3    H125584   3.364   6.116   0.119
 8540TIP3    H225585   3.249   6.204   0.162
 8541TIP3   OH225586   6.401   3.725   1.930
 8541TIP3    H125587   6.496   3.733   1.924
 8541TIP3    H225588   6.369   3.747   1.842
 8542TIP3   OH225589   2.583   6.299   0.965
 8542TIP3    H125590   2.666   6.286   1.012
 8542TIP3    H225591   2.516   6.275   1.029
 8543TIP3   OH225592   4.871   0.777   1.235
 8543TIP3    H125593   4.894   0.778   1.142
 8543TIP3    H225594   4.936   0.834   1.276
 8544TIP3   OH225595   1.541   3.604   0.583
 8544TIP3    H125596   1.564   3.525   0.534
 8544TIP3    H225597   1.573   3.676   0.529
 8545TIP3   OH225598   3.036   1.541   5.335
 8545TIP3    H125599   3.085   1.569   5.412
 8545TIP3    H225600   3.082   1.462   5.305
 8546TIP3   OH225601   0.511   3.496   4.985
 8546TIP3    H125602   0.456   3.453   4.920
 8546TIP3    H225603   0.563   3.558   4.935
 8547TIP3   OH225604   1.767   6.056   2.298
 8547TIP3    H125605   1.714   6.006   2.360
 8547TIP3    H225606   1.801   5.990   2.238
 8548TIP3   OH225607   6.698   3.849   3.948
 8548TIP3    H125608   6.621   3.827   4.000
 8548TIP3    H225609   6.736   3.925   3.992
 8549TIP3   OH225610   6.956   3.692   2.068
 8549TIP3    H125611   6.937   3.601   2.046
 8549TIP3    H225612   7.051   3.700   2.059
 8550TIP3   OH225613   2.477   0.548   1.949
 8550TIP3    H125614   2.430   0.576   2.028
 8550TIP3    H225615   2.561   0.516   1.980
 8551TIP3   OH225616   5.406   3.951   4.560
 8551TIP3    H125617   5.426   4.039   4.591
 8551TIP3    H225618   5.359   3.909   4.633
 8552TIP3   OH225619   0.405   5.533   0.375
 8552TIP3    H125620   0.348   5.503   0.446
 8552TIP3    H225621   0.491   5.497   0.396
 8553TIP3   OH225622   4.991   5.004   1.806
 8553TIP3    H125623   5.086   5.006   1.794
 8553TIP3    H225624   4.958   5.073   1.748
 8554TIP3   OH225625   0.102   0.477   0.847
 8554TIP3    H125626   0.143   0.520   0.772
 8554TIP3    H225627   0.148   0.394   0.855
 8555TIP3   OH225628   1.020   3.388   3.674
 8555TIP3    H125629   0.976   3.354   3.752
 8555TIP3    H225630   0.971   3.351   3.601
 8556TIP3   OH225631   2.557   4.597   3.801
 8556TIP3    H125632   2.636   4.595   3.747
 8556TIP3    H225633   2.489   4.632   3.744
 8557TIP3   OH225634   4.090   5.932   0.752
 8557TIP3    H125635   4.185   5.946   0.754
 8557TIP3    H225636   4.078   5.842   0.782
 8558TIP3   OH225637   3.505   4.743   5.671
 8558TIP3    H125638   3.589   4.733   5.625
 8558TIP3    H225639   3.458   4.662   5.654
 8559TIP3   OH225640   6.214   0.684   3.132
 8559TIP3    H125641   6.152   0.636   3.077
 8559TIP3    H225642   6.271   0.730   3.070
 8560TIP3   OH225643   2.140   6.721   0.483
 8560TIP3    H125644   2.050   6.722   0.514
 8560TIP3    H225645   2.143   6.651   0.418
 8561TIP3   OH225646   3.650   2.924   3.420
 8561TIP3    H125647   3.676   2.875   3.497
 8561TIP3    H225648   3.562   2.956   3.440
 8562TIP3   OH225649   4.514   6.374   0.567
 8562TIP3    H125650   4.418   6.369   0.572
 8562TIP3    H225651   4.532   6.377   0.473
 8563TIP3   OH225652   3.214   0.234   4.499
 8563TIP3    H125653   3.256   0.248   4.584
 8563TIP3    H225654   3.137   0.291   4.501
 8564TIP3   OH225655   1.951   3.142   4.681
 8564TIP3    H125656   1.971   3.235   4.671
 8564TIP3    H225657   1.953   3.128   4.776
 8565TIP3   OH225658   2.458   0.667   0.061
 8565TIP3    H125659   2.545   0.644   0.029
 8565TIP3    H225660   2.448   0.617   0.142
 8566TIP3   OH225661   3.181   1.320   0.180
 8566TIP3    H125662   3.239   1.332   0.256
 8566TIP3    H225663   3.149   1.407   0.160
 8567TIP3   OH225664   5.312   0.941   2.034
 8567TIP3    H125665   5.385   0.965   2.091
 8567TIP3    H225666   5.259   0.881   2.087
 8568TIP3   OH225667   5.232   1.018   5.416
 8568TIP3    H125668   5.202   0.988   5.330
 8568TIP3    H225669   5.180   1.096   5.433
 8569TIP3   OH225670   2.762   2.433   5.424
 8569TIP3    H125671   2.841   2.411   5.375
 8569TIP3    H225672   2.782   2.518   5.464
 8570TIP3   OH225673   3.679   1.501   2.594
 8570TIP3    H125674   3.761   1.513   2.546
 8570TIP3    H225675   3.614   1.551   2.543
 8571TIP3   OH225676   1.450   3.495   1.344
 8571TIP3    H125677   1.373   3.538   1.383
 8571TIP3    H225678   1.418   3.459   1.262
 8572TIP3   OH225679   5.766   0.767   4.332
 8572TIP3    H125680   5.771   0.750   4.426
 8572TIP3    H225681   5.852   0.743   4.299
 8573TIP3   OH225682   0.816   0.678   0.538
 8573TIP3    H125683   0.893   0.707   0.588
 8573TIP3    H225684   0.763   0.757   0.528
 8574TIP3   OH225685   4.498   0.115   0.792
 8574TIP3    H125686   4.539   0.032   0.768
 8574TIP3    H225687   4.540   0.139   0.874
 8575TIP3   OH225688   1.066   2.809   3.770
 8575TIP3    H125689   1.101   2.876   3.712
 8575TIP3    H225690   0.994   2.852   3.816
 8576TIP3   OH225691   3.690   6.550   0.079
 8576TIP3    H125692   3.700   6.640   0.109
 8576TIP3    H225693   3.690   6.556  -0.017
 8577TIP3   OH225694   5.982   2.348   4.154
 8577TIP3    H125695   6.002   2.272   4.100
 8577TIP3    H225696   5.946   2.413   4.094
 8578TIP3   OH225697   1.782   3.004   2.059
 8578TIP3    H125698   1.762   3.011   2.152
 8578TIP3    H225699   1.806   3.093   2.033
 8579TIP3   OH225700   5.290   0.273   0.512
 8579TIP3    H125701   5.226   0.262   0.582
 8579TIP3    H225702   5.375   0.254   0.553
 8580TIP3   OH225703   6.057   2.915   2.901
 8580TIP3    H125704   5.985   2.962   2.858
 8580TIP3    H225705   6.096   2.862   2.832
 8581TIP3   OH225706   1.288   1.266   3.138
 8581TIP3    H125707   1.259   1.174   3.135
 8581TIP3    H225708   1.208   1.316   3.126
 8582TIP3   OH225709   2.940   1.239   3.011
 8582TIP3    H125710   2.984   1.307   3.062
 8582TIP3    H225711   2.910   1.175   3.076
 8583TIP3   OH225712   6.722   1.432   4.521
 8583TIP3    H125713   6.720   1.349   4.474
 8583TIP3    H225714   6.643   1.478   4.493
 8584TIP3   OH225715   0.280   2.673   1.751
 8584TIP3    H125716   0.304   2.764   1.770
 8584TIP3    H225717   0.362   2.631   1.727
 8585TIP3   OH225718   5.100   2.508   0.205
 8585TIP3    H125719   5.110   2.577   0.140
 8585TIP3    H225720   5.089   2.428   0.153
 8586TIP3   OH225721   2.151   6.120   0.539
 8586TIP3    H125722   2.121   6.206   0.568
 8586TIP3    H225723   2.245   6.119   0.561
 8587TIP3   OH225724   3.264   5.051   4.732
 8587TIP3    H125725   3.207   4.974   4.734
 8587TIP3    H225726   3.327   5.031   4.662
 8588TIP3   OH225727   2.771   3.914   1.603
 8588TIP3    H125728   2.680   3.886   1.616
 8588TIP3    H225729   2.797   3.873   1.520
 8589TIP3   OH225730   1.490   0.375   5.741
 8589TIP3    H125731   1.427   0.428   5.692
 8589TIP3    H225732   1.485   0.409   5.830
 8590TIP3   OH225733   5.737   1.376   2.515
 8590TIP3    H125734   5.832   1.377   2.532
 8590TIP3    H225735   5.705   1.302   2.568
 8591TIP3   OH225736   1.236   3.267   0.522
 8591TIP3    H125737   1.156   3.216   0.536
 8591TIP3    H225738   1.288   3.252   0.601
 8592TIP3   OH225739   2.003   5.907   5.565
 8592TIP3    H125740   2.073   5.896   5.501
 8592TIP3    H225741   1.926   5.868   5.525
 8593TIP3   OH225742   4.751   2.391   3.358
 8593TIP3    H125743   4.771   2.484   3.370
 8593TIP3    H225744   4.675   2.375   3.415
 8594TIP3   OH225745   2.728   1.103   4.391
 8594TIP3    H125746   2.734   1.199   4.385
 8594TIP3    H225747   2.812   1.072   4.356
 8595TIP3   OH225748   5.876   4.361   4.763
 8595TIP3    H125749   5.888   4.440   4.710
 8595TIP3    H225750   5.904   4.290   4.706
 8596TIP3   OH225751   4.095   3.739   0.376
 8596TIP3    H125752   4.058   3.780   0.298
 8596TIP3    H225753   4.170   3.690   0.343
 8597TIP3   OH225754   1.782   3.820   4.707
 8597TIP3    H125755   1.808   3.868   4.786
 8597TIP3    H225756   1.740   3.886   4.652
 8598TIP3   OH225757   0.464   0.193   1.676
 8598TIP3    H125758   0.421   0.233   1.601
 8598TIP3    H225759   0.481   0.266   1.736
 8599TIP3   OH225760   4.612   1.388   4.143
 8599TIP3    H125761   4.568   1.392   4.058
 8599TIP3    H225762   4.676   1.317   4.134
 8600TIP3   OH225763   0.356   5.032   1.760
 8600TIP3    H125764   0.290   4.966   1.740
 8600TIP3    H225765   0.316   5.114   1.733
 8601TIP3   OH225766   4.285   4.884   3.717
 8601TIP3    H125767   4.194   4.913   3.724
 8601TIP3    H225768   4.322   4.901   3.803
 8602TIP3   OH225769   6.523   3.271   2.859
 8602TIP3    H125770   6.493   3.357   2.887
 8602TIP3    H225771   6.449   3.235   2.808
 8603TIP3   OH225772   2.775   5.492   4.893
 8603TIP3    H125773   2.854   5.545   4.903
 8603TIP3    H225774   2.805   5.402   4.905
 8604TIP3   OH225775   3.501   3.487   5.758
 8604TIP3    H125776   3.555   3.412   5.732
 8604TIP3    H225777   3.540   3.562   5.712
 8605TIP3   OH225778   4.130   0.180   1.571
 8605TIP3    H125779   4.207   0.137   1.535
 8605TIP3    H225780   4.142   0.273   1.548
 8606TIP3   OH225781   3.695   5.390   4.144
 8606TIP3    H125782   3.635   5.452   4.184
 8606TIP3    H225783   3.747   5.443   4.083
 8607TIP3   OH225784   6.224   6.344   3.245
 8607TIP3    H125785   6.295   6.302   3.293
 8607TIP3    H225786   6.185   6.404   3.309
 8608TIP3   OH225787   6.593   6.242   4.443
 8608TIP3    H125788   6.609   6.322   4.493
 8608TIP3    H225789   6.498   6.228   4.451
 8609TIP3   OH225790   6.780   1.226   1.857
 8609TIP3    H125791   6.728   1.186   1.927
 8609TIP3    H225792   6.770   1.320   1.871
 8610TIP3   OH225793   0.597   6.060   0.635
 8610TIP3    H125794   0.587   5.965   0.630
 8610TIP3    H225795   0.547   6.085   0.713
 8611TIP3   OH225796   5.114   1.029   4.814
 8611TIP3    H125797   5.158   0.944   4.821
 8611TIP3    H225798   5.151   1.081   4.885
 8612TIP3   OH225799   5.500   2.715   1.235
 8612TIP3    H125800   5.563   2.753   1.296
 8612TIP3    H225801   5.551   2.692   1.158
 8613TIP3   OH225802   5.672   6.457   0.629
 8613TIP3    H125803   5.744   6.510   0.664
 8613TIP3    H225804   5.681   6.464   0.534
 8614TIP3   OH225805   6.318   4.174   1.465
 8614TIP3    H125806   6.279   4.200   1.548
 8614TIP3    H225807   6.305   4.250   1.408
 8615TIP3   OH225808   0.473   2.508   5.630
 8615TIP3    H125809   0.457   2.558   5.710
 8615TIP3    H225810   0.539   2.559   5.583
 8616TIP3   OH225811   5.934   4.378   5.474
 8616TIP3    H125812   5.864   4.314   5.482
 8616TIP3    H225813   6.002   4.334   5.424
 8617TIP3   OH225814   3.963   0.340   0.700
 8617TIP3    H125815   3.967   0.374   0.789
 8617TIP3    H225816   3.943   0.417   0.646
 8618TIP3   OH225817   4.191   5.275   2.438
 8618TIP3    H125818   4.203   5.189   2.478
 8618TIP3    H225819   4.142   5.257   2.358
 8619TIP3   OH225820   3.058   4.517   2.353
 8619TIP3    H125821   2.979   4.518   2.299
 8619TIP3    H225822   3.028   4.545   2.439
 8620TIP3   OH225823   6.468   3.894   4.085
 8620TIP3    H125824   6.459   3.935   4.171
 8620TIP3    H225825   6.379   3.874   4.058
 8621TIP3   OH225826   1.658   5.345   3.932
 8621TIP3    H125827   1.721   5.378   3.997
 8621TIP3    H225828   1.710   5.328   3.854
 8622TIP3   OH225829   6.380   1.537   2.720
 8622TIP3    H125830   6.434   1.568   2.647
 8622TIP3    H225831   6.312   1.484   2.678
 8623TIP3   OH225832   3.010   0.524   1.813
 8623TIP3    H125833   2.969   0.606   1.786
 8623TIP3    H225834   3.084   0.513   1.755
 8624TIP3   OH225835   5.355   5.322   5.795
 8624TIP3    H125836   5.404   5.394   5.758
 8624TIP3    H225837   5.284   5.306   5.732
 8625TIP3   OH225838   7.220   4.843   0.249
 8625TIP3    H125839   7.126   4.838   0.261
 8625TIP3    H225840   7.240   4.780   0.181
 8626TIP3   OH225841   4.541   3.512   0.775
 8626TIP3    H125842   4.490   3.539   0.852
 8626TIP3    H225843   4.594   3.589   0.755
 8627TIP3   OH225844   5.394   3.323   4.921
 8627TIP3    H125845   5.392   3.417   4.902
 8627TIP3    H225846   5.364   3.316   5.011
 8628TIP3   OH225847   6.074   2.128   4.950
 8628TIP3    H125848   6.063   2.223   4.946
 8628TIP3    H225849   6.136   2.114   5.021
 8629TIP3   OH225850   6.724   2.906   3.248
 8629TIP3    H125851   6.652   2.843   3.258
 8629TIP3    H225852   6.680   2.989   3.228
 8630TIP3   OH225853   5.226   4.127   5.380
 8630TIP3    H125854   5.256   4.204   5.429
 8630TIP3    H225855   5.149   4.157   5.333
 8631TIP3   OH225856   2.389   0.302   2.798
 8631TIP3    H125857   2.368   0.282   2.889
 8631TIP3    H225858   2.307   0.287   2.751
 8632TIP3   OH225859   0.206   6.450   5.800
 8632TIP3    H125860   0.222   6.507   5.724
 8632TIP3    H225861   0.292   6.415   5.822
 8633TIP3   OH225862   0.802   4.814   0.301
 8633TIP3    H125863   0.831   4.881   0.239
 8633TIP3    H225864   0.862   4.823   0.375
 8634TIP3   OH225865   1.332   3.458   2.579
 8634TIP3    H125866   1.319   3.418   2.492
 8634TIP3    H225867   1.356   3.549   2.560
 8635TIP3   OH225868   5.604   2.633   5.317
 8635TIP3    H125869   5.693   2.667   5.330
 8635TIP3    H225870   5.547   2.708   5.331
 8636TIP3   OH225871   3.365   5.043   5.218
 8636TIP3    H125872   3.367   4.996   5.302
 8636TIP3    H225873   3.415   4.987   5.158
 8637TIP3   OH225874   6.886   6.736   0.732
 8637TIP3    H125875   6.796   6.723   0.702
 8637TIP3    H225876   6.910   6.823   0.698
 8638TIP3   OH225877   0.351   2.819   3.864
 8638TIP3    H125878   0.280   2.859   3.814
 8638TIP3    H225879   0.307   2.761   3.926
 8639TIP3   OH225880   0.494   4.325   0.765
 8639TIP3    H125881   0.570   4.287   0.722
 8639TIP3    H225882   0.483   4.410   0.722
 8640TIP3   OH225883   0.395   2.266   1.473
 8640TIP3    H125884   0.354   2.349   1.496
 8640TIP3    H225885   0.429   2.279   1.385
 8641TIP3   OH225886   2.950   2.481   2.841
 8641TIP3    H125887   2.950   2.572   2.871
 8641TIP3    H225888   2.996   2.483   2.757
 8642TIP3   OH225889   7.228   4.021   3.577
 8642TIP3    H125890   7.235   4.043   3.484
 8642TIP3    H225891   7.231   3.925   3.580
 8643TIP3   OH225892   0.678   5.222   0.039
 8643TIP3    H125893   0.736   5.147   0.025
 8643TIP3    H225894   0.628   5.229  -0.043
 8644TIP3   OH225895   2.305   3.061   5.205
 8644TIP3    H125896   2.371   3.098   5.264
 8644TIP3    H225897   2.355   3.014   5.139
 8645TIP3   OH225898   4.653   1.347   3.268
 8645TIP3    H125899   4.639   1.274   3.207
 8645TIP3    H225900   4.748   1.348   3.282
 8646TIP3   OH225901   3.995   2.299   3.923
 8646TIP3    H125902   4.041   2.271   3.844
 8646TIP3    H225903   4.062   2.342   3.976
 8647TIP3   OH225904   3.753   0.903   1.347
 8647TIP3    H125905   3.675   0.949   1.317
 8647TIP3    H225906   3.761   0.828   1.287
 8648TIP3   OH225907   5.023   0.694   5.086
 8648TIP3    H125908   5.107   0.655   5.110
 8648TIP3    H225909   4.988   0.729   5.168
 8649TIP3   OH225910   2.284   5.028   4.849
 8649TIP3    H125911   2.295   5.000   4.758
 8649TIP3    H225912   2.298   5.123   4.846
 8650TIP3   OH225913   6.124   6.707   1.349
 8650TIP3    H125914   6.198   6.765   1.366
 8650TIP3    H225915   6.051   6.746   1.395
 8651TIP3   OH225916   2.685   2.612   0.093
 8651TIP3    H125917   2.716   2.571   0.013
 8651TIP3    H225918   2.603   2.654   0.069
 8652TIP3   OH225919   0.260   5.702   5.136
 8652TIP3    H125920   0.241   5.655   5.055
 8652TIP3    H225921   0.335   5.655   5.173
 8653TIP3   OH225922   4.317   1.892   3.398
 8653TIP3    H125923   4.397   1.865   3.353
 8653TIP3    H225924   4.297   1.819   3.457
 8654TIP3   OH225925   4.042   4.817   1.915
 8654TIP3    H125926   4.001   4.876   1.852
 8654TIP3    H225927   4.132   4.850   1.924
 8655TIP3   OH225928   6.712   1.283   4.285
 8655TIP3    H125929   6.681   1.194   4.304
 8655TIP3    H225930   6.634   1.329   4.255
 8656TIP3   OH225931   1.850   0.300   4.176
 8656TIP3    H125932   1.795   0.221   4.174
 8656TIP3    H225933   1.919   0.282   4.112
 8657TIP3   OH225934   5.794   5.283   0.360
 8657TIP3    H125935   5.880   5.260   0.325
 8657TIP3    H225936   5.743   5.202   0.353
 8658TIP3   OH225937   7.027   5.071   5.764
 8658TIP3    H125938   7.004   5.156   5.801
 8658TIP3    H225939   7.057   5.092   5.675
 8659TIP3   OH225940   0.638   6.276   0.182
 8659TIP3    H125941   0.712   6.221   0.160
 8659TIP3    H225942   0.570   6.215   0.211
 8660TIP3   OH225943   7.230   2.193   3.708
 8660TIP3    H125944   7.134   2.191   3.710
 8660TIP3    H225945   7.253   2.281   3.736
 8661TIP3   OH225946   3.816  -0.060   1.204
 8661TIP3    H125947   3.881   0.010   1.195
 8661TIP3    H225948   3.820  -0.106   1.120
 8662TIP3   OH225949   3.316   2.199   3.437
 8662TIP3    H125950   3.222   2.208   3.420
 8662TIP3    H225951   3.357   2.215   3.353
 8663TIP3   OH225952   2.761   2.518   3.179
 8663TIP3    H125953   2.830   2.515   3.245
 8663TIP3    H225954   2.685   2.477   3.221
 8664TIP3   OH225955   5.718   3.865   0.202
 8664TIP3    H125956   5.809   3.896   0.202
 8664TIP3    H225957   5.699   3.848   0.294
 8665TIP3   OH225958   4.469   6.542   5.045
 8665TIP3    H125959   4.530   6.506   5.109
 8665TIP3    H225960   4.526   6.575   4.975
 8666TIP3   OH225961   6.602   6.671   1.018
 8666TIP3    H125962   6.591   6.717   1.101
 8666TIP3    H225963   6.515   6.669   0.979
 8667TIP3   OH225964   2.391   1.559   1.525
 8667TIP3    H125965   2.352   1.529   1.442
 8667TIP3    H225966   2.318   1.557   1.587
 8668TIP3   OH225967   6.917   2.405   2.573
 8668TIP3    H125968   6.856   2.458   2.521
 8668TIP3    H225969   6.864   2.333   2.605
 8669TIP3   OH225970   0.743   1.022   5.508
 8669TIP3    H125971   0.805   0.950   5.518
 8669TIP3    H225972   0.758   1.054   5.419
 8670TIP3   OH225973   1.747   2.309   4.042
 8670TIP3    H125974   1.780   2.295   3.953
 8670TIP3    H225975   1.713   2.224   4.069
 8671TIP3   OH225976   3.773   5.763   0.597
 8671TIP3    H125977   3.729   5.739   0.516
 8671TIP3    H225978   3.866   5.744   0.581
 8672TIP3   OH225979   3.715   5.201   1.150
 8672TIP3    H125980   3.741   5.290   1.125
 8672TIP3    H225981   3.797   5.153   1.155
 8673TIP3   OH225982   0.697   2.550   2.926
 8673TIP3    H125983   0.619   2.597   2.896
 8673TIP3    H225984   0.670   2.458   2.927
 8674TIP3   OH225985   0.549   2.017   3.395
 8674TIP3    H125986   0.602   1.942   3.423
 8674TIP3    H225987   0.547   2.011   3.300
 8675TIP3   OH225988   3.920   2.668   4.233
 8675TIP3    H125989   3.939   2.667   4.139
 8675TIP3    H225990   3.828   2.645   4.239
 8676TIP3   OH225991   3.996   3.868   0.891
 8676TIP3    H125992   4.077   3.866   0.941
 8676TIP3    H225993   4.023   3.851   0.801
 8677TIP3   OH225994   0.598   2.715   4.129
 8677TIP3    H125995   0.680   2.670   4.112
 8677TIP3    H225996   0.619   2.808   4.124
 8678TIP3   OH225997   6.756  -0.004   2.864
 8678TIP3    H125998   6.769  -0.099   2.865
 8678TIP3    H225999   6.665   0.008   2.890
 8679TIP3   OH226000   3.918   3.125   0.947
 8679TIP3    H126001   3.913   3.196   0.884
 8679TIP3    H226002   3.839   3.135   1.000
 8680TIP3   OH226003   0.208   4.119  -0.001
 8680TIP3    H126004   0.285   4.120  -0.058
 8680TIP3    H226005   0.238   4.162   0.080
 8681TIP3   OH226006   1.184   4.978   0.750
 8681TIP3    H126007   1.261   4.975   0.808
 8681TIP3    H226008   1.121   5.031   0.798
 8682TIP3   OH226009   4.065   4.281   3.772
 8682TIP3    H126010   3.984   4.310   3.729
 8682TIP3    H226011   4.075   4.342   3.846
 8683TIP3   OH226012   3.489   6.195   5.098
 8683TIP3    H126013   3.582   6.173   5.106
 8683TIP3    H226014   3.457   6.138   5.028
 8684TIP3   OH226015   3.973   6.106   0.928
 8684TIP3    H126016   3.979   6.034   0.865
 8684TIP3    H226017   3.892   6.089   0.976
 8685TIP3   OH226018  -0.006   2.217   1.185
 8685TIP3    H126019   0.075   2.167   1.180
 8685TIP3    H226020   0.022   2.309   1.182
 8686TIP3   OH226021   1.192   4.773   4.746
 8686TIP3    H126022   1.222   4.795   4.658
 8686TIP3    H226023   1.106   4.733   4.733
 8687TIP3   OH226024   4.894   5.753   5.698
 8687TIP3    H126025   4.868   5.662   5.684
 8687TIP3    H226026   4.824   5.804   5.655
 8688TIP3   OH226027   2.803   3.078   1.764
 8688TIP3    H126028   2.737   3.110   1.703
 8688TIP3    H226029   2.754   3.026   1.828
 8689TIP3   OH226030   5.227   4.571   3.744
 8689TIP3    H126031   5.272   4.638   3.693
 8689TIP3    H226032   5.141   4.562   3.703
 8690TIP3   OH226033   1.934   1.259   5.959
 8690TIP3    H126034   1.898   1.274   5.872
 8690TIP3    H226035   1.953   1.165   5.961
 8691TIP3   OH226036   2.732   2.670   2.195
 8691TIP3    H126037   2.664   2.653   2.260
 8691TIP3    H226038   2.791   2.595   2.201
 8692TIP3   OH226039   3.099   0.075   1.099
 8692TIP3    H126040   3.133   0.144   1.157
 8692TIP3    H226041   3.135  -0.006   1.134
 8693TIP3   OH226042   3.110   4.509   1.484
 8693TIP3    H126043   3.049   4.549   1.546
 8693TIP3    H226044   3.101   4.560   1.404
 8694TIP3   OH226045   6.274   0.019   0.063
 8694TIP3    H126046   6.249  -0.014  -0.024
 8694TIP3    H226047   6.191   0.037   0.107
 8695TIP3   OH226048   2.356   5.447   0.585
 8695TIP3    H126049   2.385   5.444   0.494
 8695TIP3    H226050   2.287   5.512   0.587
 8696TIP3   OH226051   6.646   2.042   0.520
 8696TIP3    H126052   6.662   1.984   0.446
 8696TIP3    H226053   6.591   1.992   0.580
 8697TIP3   OH226054   6.938   3.009   5.790
 8697TIP3    H126055   6.903   3.018   5.701
 8697TIP3    H226056   7.024   2.970   5.778
 8698TIP3   OH226057   3.434   1.819   3.156
 8698TIP3    H126058   3.361   1.764   3.124
 8698TIP3    H226059   3.435   1.803   3.251
 8699TIP3   OH226060   1.129   6.488   0.665
 8699TIP3    H126061   1.157   6.561   0.719
 8699TIP3    H226062   1.210   6.456   0.625
 8700TIP3   OH226063   5.834   3.636   4.623
 8700TIP3    H126064   5.811   3.727   4.637
 8700TIP3    H226065   5.874   3.609   4.706
 8701TIP3   OH226066   5.861   1.325   1.330
 8701TIP3    H126067   5.927   1.258   1.345
 8701TIP3    H226068   5.852   1.329   1.234
 8702TIP3   OH226069   0.148   4.671   3.258
 8702TIP3    H126070   0.232   4.628   3.269
 8702TIP3    H226071   0.160   4.726   3.180
 8703TIP3   OH226072   7.104   0.077   4.467
 8703TIP3    H126073   7.084   0.074   4.374
 8703TIP3    H226074   7.183   0.131   4.473
 8704TIP3   OH226075   1.546   0.688   3.002
 8704TIP3    H126076   1.544   0.778   3.034
 8704TIP3    H226077   1.475   0.683   2.938
 8705TIP3   OH226078   2.796   4.750   3.387
 8705TIP3    H126079   2.876   4.777   3.433
 8705TIP3    H226080   2.771   4.669   3.430
 8706TIP3   OH226081   3.662   3.220   4.936
 8706TIP3    H126082   3.752   3.230   4.904
 8706TIP3    H226083   3.673   3.191   5.027
 8707TIP3   OH226084   4.519   3.556   5.772
 8707TIP3    H126085   4.470   3.637   5.788
 8707TIP3    H226086   4.530   3.552   5.677
 8708TIP3   OH226087   0.584   3.421   0.539
 8708TIP3    H126088   0.596   3.333   0.575
 8708TIP3    H226089   0.513   3.459   0.590
 8709TIP3   OH226090   0.713   5.462   0.877
 8709TIP3    H126091   0.656   5.392   0.907
 8709TIP3    H226092   0.709   5.528   0.946
 8710TIP3   OH226093   2.218   2.531   5.048
 8710TIP3    H126094   2.160   2.582   5.104
 8710TIP3    H226095   2.160   2.491   4.983
 8711TIP3   OH226096   4.207   2.964   2.657
 8711TIP3    H126097   4.162   2.909   2.592
 8711TIP3    H226098   4.136   2.996   2.713
 8712TIP3   OH226099   3.856   1.094   1.644
 8712TIP3    H126100   3.828   1.005   1.621
 8712TIP3    H226101   3.801   1.118   1.718
 8713TIP3   OH226102   5.991   4.279   5.046
 8713TIP3    H126103   5.958   4.267   4.957
 8713TIP3    H226104   5.926   4.236   5.102
 8714TIP3   OH226105   5.450   5.106   2.452
 8714TIP3    H126106   5.522   5.119   2.513
 8714TIP3    H226107   5.492   5.092   2.368
 8715TIP3   OH226108   2.914   2.905   0.775
 8715TIP3    H126109   2.983   2.926   0.712
 8715TIP3    H226110   2.847   2.860   0.723
 8716TIP3   OH226111   4.955   3.648   3.701
 8716TIP3    H126112   5.019   3.614   3.763
 8716TIP3    H226113   4.877   3.596   3.716
 8717TIP3   OH226114   4.593   2.503   5.567
 8717TIP3    H126115   4.569   2.590   5.534
 8717TIP3    H226116   4.628   2.520   5.654
 8718TIP3   OH226117   7.115   5.767   1.525
 8718TIP3    H126118   7.130   5.727   1.610
 8718TIP3    H226119   7.156   5.853   1.531
 8719TIP3   OH226120   4.907   2.782   2.407
 8719TIP3    H126121   4.862   2.823   2.481
 8719TIP3    H226122   4.914   2.690   2.433
 8720TIP3   OH226123   4.136   4.105   2.712
 8720TIP3    H126124   4.177   4.149   2.637
 8720TIP3    H226125   4.102   4.023   2.677
 8721TIP3   OH226126   3.054   0.789   5.406
 8721TIP3    H126127   3.130   0.845   5.425
 8721TIP3    H226128   3.005   0.786   5.487
 8722TIP3   OH226129   4.025   0.875   2.655
 8722TIP3    H126130   4.107   0.833   2.630
 8722TIP3    H226131   3.988   0.818   2.722
 8723TIP3   OH226132   0.150   0.356   1.736
 8723TIP3    H126133   0.071   0.410   1.729
 8723TIP3    H226134   0.117   0.267   1.750
 8724TIP3   OH226135   3.454   2.661   4.742
 8724TIP3    H126136   3.399   2.671   4.820
 8724TIP3    H226137   3.539   2.634   4.776
 8725TIP3   OH226138   2.497   0.822   4.369
 8725TIP3    H126139   2.454   0.738   4.353
 8725TIP3    H226140   2.425   0.883   4.386
 8726TIP3   OH226141   6.273   1.050   3.427
 8726TIP3    H126142   6.348   1.092   3.383
 8726TIP3    H226143   6.253   1.107   3.501
 8727TIP3   OH226144   0.603   5.544   2.075
 8727TIP3    H126145   0.626   5.635   2.097
 8727TIP3    H226146   0.514   5.550   2.040
 8728TIP3   OH226147   6.550   1.694   0.342
 8728TIP3    H126148   6.597   1.763   0.295
 8728TIP3    H226149   6.613   1.662   0.406
 8729TIP3   OH226150   6.353   1.475   0.732
 8729TIP3    H126151   6.305   1.406   0.778
 8729TIP3    H226152   6.314   1.557   0.763
 8730TIP3   OH226153   6.792   6.196   2.509
 8730TIP3    H126154   6.877   6.238   2.497
 8730TIP3    H226155   6.728   6.268   2.505
 8731TIP3   OH226156   5.294   4.834   5.068
 8731TIP3    H126157   5.389   4.835   5.060
 8731TIP3    H226158   5.262   4.832   4.978
 8732TIP3   OH226159   3.107   2.938   5.804
 8732TIP3    H126160   3.053   2.873   5.849
 8732TIP3    H226161   3.103   2.912   5.712
 8733TIP3   OH226162   1.284   5.153   5.298
 8733TIP3    H126163   1.332   5.226   5.259
 8733TIP3    H226164   1.215   5.194   5.349
 8734TIP3   OH226165   3.352   6.724   0.882
 8734TIP3    H126166   3.420   6.730   0.949
 8734TIP3    H226167   3.337   6.630   0.872
 8735TIP3   OH226168   1.251   5.395   0.314
 8735TIP3    H126169   1.157   5.380   0.311
 8735TIP3    H226170   1.278   5.365   0.400
 8736TIP3   OH226171   6.569   4.558   2.881
 8736TIP3    H126172   6.662   4.567   2.861
 8736TIP3    H226173   6.564   4.556   2.976
 8737TIP3   OH226174   2.054   2.798   0.280
 8737TIP3    H126175   2.071   2.722   0.224
 8737TIP3    H226176   1.974   2.776   0.327
 8738TIP3   OH226177   5.326   0.681   1.501
 8738TIP3    H126178   5.265   0.727   1.559
 8738TIP3    H226179   5.409   0.680   1.549
 8739TIP3   OH226180   5.725   3.826   1.706
 8739TIP3    H126181   5.755   3.833   1.797
 8739TIP3    H226182   5.689   3.738   1.700
 8740TIP3   OH226183   0.137   5.852   1.866
 8740TIP3    H126184   0.071   5.915   1.837
 8740TIP3    H226185   0.111   5.828   1.955
 8741TIP3   OH226186   3.584   6.006   5.350
 8741TIP3    H126187   3.625   6.043   5.428
 8741TIP3    H226188   3.647   6.022   5.279
 8742TIP3   OH226189   6.188   0.010   4.455
 8742TIP3    H126190   6.184  -0.051   4.382
 8742TIP3    H226191   6.223  -0.042   4.528
 8743TIP3   OH226192   3.390   2.861   5.402
 8743TIP3    H126193   3.424   2.852   5.491
 8743TIP3    H226194   3.379   2.772   5.371
 8744TIP3   OH226195   6.586   1.304   1.347
 8744TIP3    H126196   6.561   1.334   1.260
 8744TIP3    H226197   6.560   1.376   1.405
 8745TIP3   OH226198   3.089   4.312   3.313
 8745TIP3    H126199   3.182   4.305   3.295
 8745TIP3    H226200   3.084   4.359   3.396
 8746TIP3   OH226201   6.118   1.484   4.097
 8746TIP3    H126202   6.095   1.499   4.189
 8746TIP3    H226203   6.205   1.444   4.100
 8747TIP3   OH226204   0.897   6.314   3.926
 8747TIP3    H126205   0.852   6.261   3.991
 8747TIP3    H226206   0.906   6.400   3.967
 8748TIP3   OH226207   4.324   3.842   3.801
 8748TIP3    H126208   4.307   3.825   3.893
 8748TIP3    H226209   4.414   3.810   3.787
 8749TIP3   OH226210   5.299   1.549   2.022
 8749TIP3    H126211   5.284   1.455   2.030
 8749TIP3    H226212   5.390   1.556   1.992
 8750TIP3   OH226213   4.948   4.772   3.988
 8750TIP3    H126214   4.935   4.812   3.901
 8750TIP3    H226215   5.032   4.726   3.981
 8751TIP3   OH226216   1.985   4.363   3.800
 8751TIP3    H126217   1.991   4.268   3.785
 8751TIP3    H226218   2.016   4.402   3.718
 8752TIP3   OH226219   5.321   5.888   0.374
 8752TIP3    H126220   5.263   5.964   0.363
 8752TIP3    H226221   5.325   5.875   0.469
 8753TIP3   OH226222   4.931   3.936   0.770
 8753TIP3    H126223   4.921   3.959   0.863
 8753TIP3    H226224   4.879   4.002   0.724
 8754TIP3   OH226225   2.005   4.206   5.633
 8754TIP3    H126226   1.920   4.180   5.597
 8754TIP3    H226227   2.068   4.181   5.566
 8755TIP3   OH226228   1.578   4.240   5.166
 8755TIP3    H126229   1.491   4.227   5.129
 8755TIP3    H226230   1.584   4.176   5.237
 8756TIP3   OH226231   2.294   1.995   4.785
 8756TIP3    H126232   2.311   1.920   4.727
 8756TIP3    H226233   2.379   2.037   4.795
 8757TIP3   OH226234   0.440   1.479   0.901
 8757TIP3    H126235   0.385   1.400   0.904
 8757TIP3    H226236   0.463   1.495   0.993
 8758TIP3   OH226237   3.906   4.428   1.039
 8758TIP3    H126238   3.818   4.463   1.045
 8758TIP3    H226239   3.902   4.364   0.968
 8759TIP3   OH226240   3.099   2.568   5.599
 8759TIP3    H126241   3.071   2.658   5.579
 8759TIP3    H226242   3.104   2.525   5.514
 8760TIP3   OH226243   0.186   6.463   1.187
 8760TIP3    H126244   0.257   6.426   1.240
 8760TIP3    H226245   0.204   6.433   1.098
 8761TIP3   OH226246   2.984   3.196   5.690
 8761TIP3    H126247   3.074   3.166   5.676
 8761TIP3    H226248   2.969   3.183   5.784
 8762TIP3   OH226249   4.469   0.244   0.512
 8762TIP3    H126250   4.527   0.204   0.577
 8762TIP3    H226251   4.391   0.268   0.562
 8763TIP3   OH226252   5.599   5.917   2.495
 8763TIP3    H126253   5.599   5.823   2.479
 8763TIP3    H226254   5.512   5.936   2.529
 8764TIP3   OH226255   1.194   4.681   0.522
 8764TIP3    H126256   1.217   4.593   0.554
 8764TIP3    H226257   1.223   4.740   0.592
 8765TIP3   OH226258   5.721   6.152   3.564
 8765TIP3    H126259   5.635   6.113   3.581
 8765TIP3    H226260   5.784   6.088   3.598
 8766TIP3   OH226261   2.051   5.911   0.396
 8766TIP3    H126262   2.073   5.962   0.474
 8766TIP3    H226263   2.034   5.977   0.328
 8767TIP3   OH226264   1.375   1.183   4.763
 8767TIP3    H126265   1.282   1.162   4.764
 8767TIP3    H226266   1.408   1.141   4.683
 8768TIP3   OH226267   0.497   3.427   4.681
 8768TIP3    H126268   0.430   3.359   4.684
 8768TIP3    H226269   0.573   3.387   4.723
 8769TIP3   OH226270   4.065   6.234   5.118
 8769TIP3    H126271   4.128   6.163   5.105
 8769TIP3    H226272   4.056   6.275   5.032
 8770TIP3   OH226273   3.964   0.589   1.504
 8770TIP3    H126274   3.985   0.677   1.471
 8770TIP3    H226275   3.878   0.569   1.467
 8771TIP3   OH226276   5.470   4.504   1.155
 8771TIP3    H126277   5.517   4.444   1.211
 8771TIP3    H226278   5.538   4.555   1.111
 8772TIP3   OH226279   0.691   5.826   3.352
 8772TIP3    H126280   0.634   5.830   3.274
 8772TIP3    H226281   0.759   5.763   3.328
 8773TIP3   OH226282   1.834   0.234   5.648
 8773TIP3    H126283   1.827   0.321   5.687
 8773TIP3    H226284   1.922   0.205   5.670
 8774TIP3   OH226285   7.151   0.812   5.246
 8774TIP3    H126286   7.245   0.799   5.245
 8774TIP3    H226287   7.136   0.878   5.314
 8775TIP3   OH226288   0.227   2.734   1.323
 8775TIP3    H126289   0.185   2.724   1.409
 8775TIP3    H226290   0.172   2.797   1.277
 8776TIP3   OH226291   2.143   6.731   5.576
 8776TIP3    H126292   2.203   6.715   5.649
 8776TIP3    H226293   2.081   6.658   5.580
 8777TIP3   OH226294   6.582   4.553   1.881
 8777TIP3    H126295   6.616   4.524   1.796
 8777TIP3    H226296   6.506   4.497   1.897
 8778TIP3   OH226297   4.813   3.957   5.715
 8778TIP3    H126298   4.820   4.000   5.800
 8778TIP3    H226299   4.720   3.962   5.693
 8779TIP3   OH226300   4.530   6.666   0.061
 8779TIP3    H126301   4.486   6.639  -0.019
 8779TIP3    H226302   4.621   6.683   0.035
 8780TIP3   OH226303   0.703   6.733   3.855
 8780TIP3    H126304   0.713   6.800   3.922
 8780TIP3    H226305   0.642   6.771   3.791
 8781TIP3   OH226306   1.725   6.313   3.527
 8781TIP3    H126307   1.778   6.383   3.568
 8781TIP3    H226308   1.783   6.237   3.525
 8782TIP3   OH226309   4.110   4.437   4.001
 8782TIP3    H126310   4.175   4.447   4.071
 8782TIP3    H226311   4.031   4.480   4.036
 8783TIP3   OH226312   3.541   6.707   1.083
 8783TIP3    H126313   3.506   6.621   1.107
 8783TIP3    H226314   3.616   6.687   1.026
 8784TIP3   OH226315   4.436   2.056   1.894
 8784TIP3    H126316   4.456   1.968   1.864
 8784TIP3    H226317   4.478   2.063   1.980
 8785TIP3   OH226318   1.251   3.082   2.745
 8785TIP3    H126319   1.195   3.149   2.783
 8785TIP3    H226320   1.207   2.999   2.766
 8786TIP3   OH226321   3.024   3.876   4.416
 8786TIP3    H126322   2.980   3.957   4.388
 8786TIP3    H226323   3.046   3.831   4.335
 8787TIP3   OH226324   1.992   2.917   2.456
 8787TIP3    H126325   2.002   2.905   2.362
 8787TIP3    H226326   1.982   3.012   2.467
 8788TIP3   OH226327   0.863   5.195   2.209
 8788TIP3    H126328   0.906   5.275   2.179
 8788TIP3    H226329   0.934   5.131   2.215
 8789TIP3   OH226330   1.300   5.017   2.587
 8789TIP3    H126331   1.363   5.013   2.659
 8789TIP3    H226332   1.320   5.099   2.542
 8790TIP3   OH226333   0.973   3.388   4.504
 8790TIP3    H126334   1.009   3.331   4.436
 8790TIP3    H226335   0.879   3.388   4.489
 8791TIP3   OH226336   1.275   6.587   5.328
 8791TIP3    H126337   1.244   6.558   5.413
 8791TIP3    H226338   1.216   6.659   5.304
 8792TIP3   OH226339   6.925   6.449   2.953
 8792TIP3    H126340   6.907   6.525   2.898
 8792TIP3    H226341   6.896   6.475   3.040
 8793TIP3   OH226342   5.307   0.302   5.402
 8793TIP3    H126343   5.301   0.333   5.311
 8793TIP3    H226344   5.216   0.298   5.431
 8794TIP3   OH226345   2.513   2.178   1.249
 8794TIP3    H126346   2.603   2.145   1.251
 8794TIP3    H226347   2.474   2.150   1.332
 8795TIP3   OH226348   4.245   5.358   0.479
 8795TIP3    H126349   4.168   5.370   0.535
 8795TIP3    H226350   4.212   5.311   0.403
 8796TIP3   OH226351   0.965   4.741   3.223
 8796TIP3    H126352   0.965   4.768   3.315
 8796TIP3    H226353   0.897   4.795   3.183
 8797TIP3   OH226354   1.889   6.515   1.783
 8797TIP3    H126355   1.926   6.444   1.835
 8797TIP3    H226356   1.794   6.503   1.789
 8798TIP3   OH226357   6.640   1.765   2.451
 8798TIP3    H126358   6.667   1.853   2.425
 8798TIP3    H226359   6.548   1.775   2.476
 8799TIP3   OH226360   2.138   4.716   1.310
 8799TIP3    H126361   2.094   4.782   1.364
 8799TIP3    H226362   2.084   4.709   1.231
 8800TIP3   OH226363   1.014   3.285   2.321
 8800TIP3    H126364   1.018   3.214   2.385
 8800TIP3    H226365   0.937   3.336   2.348
 8801TIP3   OH226366   5.414   3.641   4.909
 8801TIP3    H126367   5.446   3.711   4.966
 8801TIP3    H226368   5.319   3.650   4.911
 8802TIP3   OH226369   3.158   6.306   3.341
 8802TIP3    H126370   3.202   6.236   3.388
 8802TIP3    H226371   3.148   6.376   3.405
 8803TIP3   OH226372   0.765   4.126   5.412
 8803TIP3    H126373   0.724   4.044   5.384
 8803TIP3    H226374   0.831   4.144   5.344
 8804TIP3   OH226375   6.541   6.235   4.884
 8804TIP3    H126376   6.560   6.284   4.804
 8804TIP3    H226377   6.569   6.145   4.865
 8805TIP3   OH226378   1.605   3.669   1.718
 8805TIP3    H126379   1.694   3.645   1.690
 8805TIP3    H226380   1.571   3.590   1.760
 8806TIP3   OH226381   4.670   0.597   3.483
 8806TIP3    H126382   4.670   0.599   3.579
 8806TIP3    H226383   4.733   0.529   3.460
 8807TIP3   OH226384   7.037   2.739   0.347
 8807TIP3    H126385   6.963   2.680   0.357
 8807TIP3    H226386   7.028   2.774   0.258
 8808TIP3   OH226387   6.443   0.223   4.736
 8808TIP3    H126388   6.406   0.294   4.685
 8808TIP3    H226389   6.446   0.148   4.676
 8809TIP3   OH226390   7.219   1.315   3.185
 8809TIP3    H126391   7.259   1.340   3.102
 8809TIP3    H226392   7.173   1.394   3.214
 8810TIP3   OH226393   5.072   1.219   1.850
 8810TIP3    H126394   5.158   1.242   1.886
 8810TIP3    H226395   5.091   1.189   1.761
 8811TIP3   OH226396   5.463   1.210   0.655
 8811TIP3    H126397   5.503   1.189   0.739
 8811TIP3    H226398   5.393   1.273   0.676
 8812TIP3   OH226399   2.660   5.710   4.274
 8812TIP3    H126400   2.738   5.763   4.291
 8812TIP3    H226401   2.609   5.761   4.211
 8813TIP3   OH226402   4.303   1.201   4.473
 8813TIP3    H126403   4.225   1.248   4.502
 8813TIP3    H226404   4.347   1.261   4.413
 8814TIP3   OH226405   6.146   6.562   1.644
 8814TIP3    H126406   6.167   6.495   1.578
 8814TIP3    H226407   6.195   6.536   1.722
 8815TIP3   OH226408   5.329   5.850   3.276
 8815TIP3    H126409   5.234   5.848   3.290
 8815TIP3    H226410   5.342   5.800   3.195
 8816TIP3   OH226411   5.608   2.955   1.587
 8816TIP3    H126412   5.625   2.957   1.682
 8816TIP3    H226413   5.517   2.926   1.580
 8817TIP3   OH226414   5.001   1.484   0.608
 8817TIP3    H126415   4.921   1.434   0.620
 8817TIP3    H226416   4.972   1.575   0.608
 8818TIP3   OH226417   3.572   2.357   5.498
 8818TIP3    H126418   3.561   2.330   5.589
 8818TIP3    H226419   3.608   2.445   5.503
 8819TIP3   OH226420   6.339   3.663   4.654
 8819TIP3    H126421   6.334   3.615   4.736
 8819TIP3    H226422   6.267   3.627   4.601
 8820TIP3   OH226423   0.710   4.715   5.815
 8820TIP3    H126424   0.757   4.735   5.735
 8820TIP3    H226425   0.734   4.624   5.835
 8821TIP3   OH226426   6.327   4.634   0.462
 8821TIP3    H126427   6.247   4.679   0.490
 8821TIP3    H226428   6.298   4.576   0.392
 8822TIP3   OH226429   5.915   3.843   3.449
 8822TIP3    H126430   6.003   3.862   3.416
 8822TIP3    H226431   5.858   3.905   3.404
 8823TIP3   OH226432   5.686   3.106   4.531
 8823TIP3    H126433   5.744   3.047   4.483
 8823TIP3    H226434   5.678   3.066   4.618
 8824TIP3   OH226435   2.609   4.315   3.681
 8824TIP3    H126436   2.641   4.396   3.719
 8824TIP3    H226437   2.598   4.335   3.588
 8825TIP3   OH226438   0.707   0.887   0.861
 8825TIP3    H126439   0.770   0.830   0.818
 8825TIP3    H226440   0.737   0.976   0.840
 8826TIP3   OH226441   1.438   6.611   2.074
 8826TIP3    H126442   1.380   6.608   2.149
 8826TIP3    H226443   1.501   6.541   2.090
 8827TIP3   OH226444   4.944   4.008   1.063
 8827TIP3    H126445   4.941   3.946   1.136
 8827TIP3    H226446   5.038   4.019   1.046
 8828TIP3   OH226447   4.037   2.442   2.672
 8828TIP3    H126448   4.021   2.474   2.583
 8828TIP3    H226449   4.050   2.522   2.724
 8829TIP3   OH226450   0.885   1.762   2.380
 8829TIP3    H126451   0.859   1.724   2.297
 8829TIP3    H226452   0.932   1.692   2.426
 8830TIP3   OH226453   1.737   2.783   3.990
 8830TIP3    H126454   1.786   2.701   4.004
 8830TIP3    H226455   1.722   2.817   4.079
 8831TIP3   OH226456   5.190   4.179   5.826
 8831TIP3    H126457   5.104   4.212   5.802
 8831TIP3    H226458   5.206   4.107   5.765
 8832TIP3   OH226459   6.536   0.826   0.399
 8832TIP3    H126460   6.476   0.788   0.336
 8832TIP3    H226461   6.612   0.768   0.399
 8833TIP3   OH226462   1.841   5.160   2.968
 8833TIP3    H126463   1.842   5.112   3.050
 8833TIP3    H226464   1.768   5.221   2.976
 8834TIP3   OH226465   1.368   3.619   4.548
 8834TIP3    H126466   1.450   3.659   4.577
 8834TIP3    H226467   1.357   3.647   4.458
 8835TIP3   OH226468   6.178   2.343   0.329
 8835TIP3    H126469   6.137   2.408   0.386
 8835TIP3    H226470   6.131   2.350   0.247
 8836TIP3   OH226471   1.742   1.866   1.650
 8836TIP3    H126472   1.677   1.805   1.614
 8836TIP3    H226473   1.822   1.815   1.655
 8837TIP3   OH226474   6.388   1.240   3.935
 8837TIP3    H126475   6.471   1.204   3.902
 8837TIP3    H226476   6.410   1.272   4.022
 8838TIP3   OH226477   5.569   3.475   4.601
 8838TIP3    H126478   5.651   3.427   4.614
 8838TIP3    H226479   5.593   3.567   4.610
 8839TIP3   OH226480   1.027   2.991   1.554
 8839TIP3    H126481   1.033   3.081   1.585
 8839TIP3    H226482   1.008   2.999   1.461
 8840TIP3   OH226483   4.643   2.451   1.986
 8840TIP3    H126484   4.725   2.499   1.974
 8840TIP3    H226485   4.621   2.419   1.899
 8841TIP3   OH226486   7.071   5.495   0.965
 8841TIP3    H126487   7.154   5.524   1.002
 8841TIP3    H226488   7.059   5.406   0.999
 8842TIP3   OH226489   6.421   0.297   3.436
 8842TIP3    H126490   6.355   0.343   3.384
 8842TIP3    H226491   6.489   0.273   3.372
 8843TIP3   OH226492   5.538   3.315   1.936
 8843TIP3    H126493   5.596   3.321   2.012
 8843TIP3    H226494   5.464   3.263   1.967
 8844TIP3   OH226495   1.189   0.886   1.425
 8844TIP3    H126496   1.193   0.824   1.497
 8844TIP3    H226497   1.280   0.896   1.396
 8845TIP3   OH226498   2.155   2.279   3.662
 8845TIP3    H126499   2.212   2.290   3.738
 8845TIP3    H226500   2.154   2.365   3.620
 8846TIP3   OH226501   5.206   0.284   5.127
 8846TIP3    H126502   5.242   0.210   5.078
 8846TIP3    H226503   5.212   0.359   5.067
 8847TIP3   OH226504   3.733   5.111   1.718
 8847TIP3    H126505   3.764   5.181   1.774
 8847TIP3    H226506   3.640   5.101   1.740
 8848TIP3   OH226507   2.177   1.913   3.537
 8848TIP3    H126508   2.202   1.825   3.565
 8848TIP3    H226509   2.248   1.969   3.568
 8849TIP3   OH226510   2.873   1.368   0.007
 8849TIP3    H126511   2.900   1.356   0.099
 8849TIP3    H226512   2.904   1.289  -0.037
 8850TIP3   OH226513   0.006   2.753   4.892
 8850TIP3    H126514  -0.054   2.825   4.912
 8850TIP3    H226515  -0.017   2.685   4.956
 8851TIP3   OH226516   4.249   2.929   0.453
 8851TIP3    H126517   4.251   2.898   0.543
 8851TIP3    H226518   4.158   2.916   0.426
 8852TIP3   OH226519   3.351   0.454   2.977
 8852TIP3    H126520   3.283   0.406   3.025
 8852TIP3    H226521   3.433   0.412   3.003
 8853TIP3   OH226522   4.777   3.490   4.595
 8853TIP3    H126523   4.722   3.522   4.524
 8853TIP3    H226524   4.791   3.398   4.575
 8854TIP3   OH226525   5.106   5.569   5.805
 8854TIP3    H126526   5.178   5.632   5.796
 8854TIP3    H226527   5.044   5.594   5.737
 8855TIP3   OH226528   6.141   3.722   4.316
 8855TIP3    H126529   6.153   3.639   4.363
 8855TIP3    H226530   6.123   3.786   4.385
 8856TIP3   OH226531   5.369   6.305   5.872
 8856TIP3    H126532   5.447   6.344   5.833
 8856TIP3    H226533   5.357   6.223   5.825
 8857TIP3   OH226534   1.885   3.661   1.266
 8857TIP3    H126535   1.809   3.679   1.322
 8857TIP3    H226536   1.849   3.617   1.189
 8858TIP3   OH226537   2.893   4.114   0.808
 8858TIP3    H126538   2.878   4.147   0.896
 8858TIP3    H226539   2.987   4.097   0.804
 8859TIP3   OH226540   5.590   4.176   5.659
 8859TIP3    H126541   5.638   4.173   5.741
 8859TIP3    H226542   5.518   4.113   5.670
 8860TIP3   OH226543   0.337   1.380   3.918
 8860TIP3    H126544   0.387   1.408   3.995
 8860TIP3    H226545   0.314   1.289   3.935
 8861TIP3   OH226546   2.303   3.802   5.156
 8861TIP3    H126547   2.227   3.748   5.133
 8861TIP3    H226548   2.378   3.755   5.118
 8862TIP3   OH226549   2.445   5.553   1.352
 8862TIP3    H126550   2.494   5.531   1.431
 8862TIP3    H226551   2.399   5.634   1.374
 8863TIP3   OH226552   3.202   4.741   2.256
 8863TIP3    H126553   3.217   4.716   2.165
 8863TIP3    H226554   3.153   4.667   2.293
 8864TIP3   OH226555   6.993   2.797   1.742
 8864TIP3    H126556   7.020   2.844   1.663
 8864TIP3    H226557   7.064   2.812   1.804
 8865TIP3   OH226558   3.883   5.854   1.084
 8865TIP3    H126559   3.948   5.786   1.070
 8865TIP3    H226560   3.833   5.825   1.161
 8866TIP3   OH226561   3.533   1.390   0.244
 8866TIP3    H126562   3.557   1.395   0.336
 8866TIP3    H226563   3.511   1.298   0.230
 8867TIP3   OH226564   2.720   6.295   1.711
 8867TIP3    H126565   2.769   6.366   1.752
 8867TIP3    H226566   2.651   6.275   1.775
 8868TIP3   OH226567   0.166   5.960   0.847
 8868TIP3    H126568   0.099   5.980   0.781
 8868TIP3    H226569   0.119   5.920   0.919
 8869TIP3   OH226570   3.214   6.682   2.202
 8869TIP3    H126571   3.306   6.670   2.181
 8869TIP3    H226572   3.174   6.597   2.185
 8870TIP3   OH226573   6.364   4.207   0.122
 8870TIP3    H126574   6.451   4.209   0.082
 8870TIP3    H226575   6.345   4.114   0.133
 8871TIP3   OH226576   1.690   1.389   1.230
 8871TIP3    H126577   1.620   1.428   1.178
 8871TIP3    H226578   1.747   1.347   1.165
 8872TIP3   OH226579   3.680   3.150   5.211
 8872TIP3    H126580   3.768   3.183   5.227
 8872TIP3    H226581   3.642   3.139   5.299
 8873TIP3   OH226582   0.753   6.048   1.328
 8873TIP3    H126583   0.703   6.129   1.333
 8873TIP3    H226584   0.687   5.979   1.325
 8874TIP3   OH226585   0.489   2.747   1.255
 8874TIP3    H126586   0.405   2.752   1.300
 8874TIP3    H226587   0.530   2.667   1.289
 8875TIP3   OH226588   1.445   3.095   4.736
 8875TIP3    H126589   1.482   3.182   4.722
 8875TIP3    H226590   1.350   3.109   4.738
 8876TIP3   OH226591   6.776   2.067   1.086
 8876TIP3    H126592   6.772   2.160   1.065
 8876TIP3    H226593   6.868   2.051   1.108
 8877TIP3   OH226594   5.694   6.655   5.392
 8877TIP3    H126595   5.701   6.611   5.307
 8877TIP3    H226596   5.627   6.605   5.439
 8878TIP3   OH226597   3.256   1.367   3.629
 8878TIP3    H126598   3.199   1.308   3.580
 8878TIP3    H226599   3.273   1.440   3.569
 8879TIP3   OH226600   6.855   4.285   0.841
 8879TIP3    H126601   6.831   4.355   0.780
 8879TIP3    H226602   6.947   4.301   0.861
 8880TIP3   OH226603   0.024   1.682   0.216
 8880TIP3    H126604   0.086   1.637   0.273
 8880TIP3    H226605   0.043   1.775   0.228
 8881TIP3   OH226606   3.911   5.187   4.044
 8881TIP3    H126607   3.903   5.235   3.962
 8881TIP3    H226608   3.980   5.233   4.092
 8882TIP3   OH226609   4.329   1.734   5.215
 8882TIP3    H126610   4.313   1.762   5.125
 8882TIP3    H226611   4.401   1.789   5.245
 8883TIP3   OH226612   4.275   5.235   0.766
 8883TIP3    H126613   4.316   5.151   0.746
 8883TIP3    H226614   4.271   5.281   0.682
 8884TIP3   OH226615   2.018   4.867   3.999
 8884TIP3    H126616   2.060   4.781   3.997
 8884TIP3    H226617   2.088   4.929   3.981
 8885TIP3   OH226618   5.393   4.199   2.354
 8885TIP3    H126619   5.374   4.275   2.298
 8885TIP3    H226620   5.307   4.174   2.389
 8886TIP3   OH226621   1.574   0.546   3.398
 8886TIP3    H126622   1.653   0.494   3.409
 8886TIP3    H226623   1.520   0.495   3.338
 8887TIP3   OH226624   0.336   1.428   5.221
 8887TIP3    H126625   0.377   1.515   5.219
 8887TIP3    H226626   0.247   1.444   5.252
 8888TIP3   OH226627   3.762   0.757   5.405
 8888TIP3    H126628   3.836   0.697   5.414
 8888TIP3    H226629   3.702   0.732   5.475
 8889TIP3   OH226630   3.144   5.090   1.977
 8889TIP3    H126631   3.189   5.050   2.050
 8889TIP3    H226632   3.088   5.021   1.942
 8890TIP3   OH226633   4.859   1.872   3.527
 8890TIP3    H126634   4.911   1.908   3.598
 8890TIP3    H226635   4.868   1.777   3.537
 8891TIP3   OH226636   5.975   2.102   0.037
 8891TIP3    H126637   5.918   2.033   0.001
 8891TIP3    H226638   5.937   2.121   0.122
 8892TIP3   OH226639   0.801   6.227   4.662
 8892TIP3    H126640   0.825   6.259   4.749
 8892TIP3    H226641   0.708   6.206   4.669
 8893TIP3   OH226642   6.148   2.472   4.321
 8893TIP3    H126643   6.109   2.424   4.249
 8893TIP3    H226644   6.156   2.407   4.391
 8894TIP3   OH226645   1.169   0.400   1.803
 8894TIP3    H126646   1.259   0.404   1.835
 8894TIP3    H226647   1.177   0.387   1.708
 8895TIP3   OH226648   3.680   5.943   4.865
 8895TIP3    H126649   3.590   5.976   4.859
 8895TIP3    H226650   3.672   5.858   4.909
 8896TIP3   OH226651   4.408   0.935   5.082
 8896TIP3    H126652   4.395   0.994   5.008
 8896TIP3    H226653   4.503   0.919   5.083
 8897TIP3   OH226654   3.465   1.241   3.298
 8897TIP3    H126655   3.420   1.229   3.381
 8897TIP3    H226656   3.537   1.301   3.318
 8898TIP3   OH226657   2.960   2.709   1.823
 8898TIP3    H126658   2.936   2.619   1.845
 8898TIP3    H226659   3.028   2.700   1.756
 8899TIP3   OH226660   1.713   3.462   5.449
 8899TIP3    H126661   1.644   3.467   5.514
 8899TIP3    H226662   1.794   3.477   5.498
 8900TIP3   OH226663   0.272   3.960   4.331
 8900TIP3    H126664   0.305   4.049   4.315
 8900TIP3    H226665   0.191   3.955   4.280
 8901TIP3   OH226666   5.196   3.243   2.340
 8901TIP3    H126667   5.273   3.278   2.295
 8901TIP3    H226668   5.230   3.175   2.398
 8902TIP3   OH226669   3.565   6.374   0.414
 8902TIP3    H126670   3.525   6.433   0.349
 8902TIP3    H226671   3.655   6.362   0.384
 8903TIP3   OH226672   4.142   6.621   0.121
 8903TIP3    H126673   4.099   6.537   0.104
 8903TIP3    H226674   4.165   6.654   0.034
 8904TIP3   OH226675   5.438   1.902   4.296
 8904TIP3    H126676   5.494   1.952   4.356
 8904TIP3    H226677   5.389   1.842   4.352
 8905TIP3   OH226678   7.152   0.919   2.404
 8905TIP3    H126679   7.095   0.988   2.370
 8905TIP3    H226680   7.238   0.939   2.368
 8906TIP3   OH226681   3.691   0.858   5.819
 8906TIP3    H126682   3.779   0.830   5.845
 8906TIP3    H226683   3.657   0.904   5.896
 8907TIP3   OH226684   6.101   6.632   0.171
 8907TIP3    H126685   6.055   6.677   0.100
 8907TIP3    H226686   6.031   6.600   0.228
 8908TIP3   OH226687   0.087   2.504   1.212
 8908TIP3    H126688   0.111   2.542   1.128
 8908TIP3    H226689   0.159   2.526   1.271
 8909TIP3   OH226690   6.777   2.974   5.582
 8909TIP3    H126691   6.808   2.928   5.504
 8909TIP3    H226692   6.759   3.063   5.552
 8910TIP3   OH226693   7.078   1.380   1.948
 8910TIP3    H126694   7.028   1.369   2.029
 8910TIP3    H226695   7.149   1.316   1.954
 8911TIP3   OH226696   2.895   6.317   1.321
 8911TIP3    H126697   2.987   6.289   1.316
 8911TIP3    H226698   2.853   6.252   1.377
 8912TIP3   OH226699   4.267   1.505   0.660
 8912TIP3    H126700   4.284   1.599   0.657
 8912TIP3    H226701   4.352   1.465   0.679
 8913TIP3   OH226702   2.215   2.906   2.660
 8913TIP3    H126703   2.168   2.917   2.577
 8913TIP3    H226704   2.305   2.934   2.641
 8914TIP3   OH226705   6.530   0.818   5.157
 8914TIP3    H126706   6.521   0.840   5.064
 8914TIP3    H226707   6.594   0.748   5.158
 8915TIP3   OH226708   0.430   5.999   5.642
 8915TIP3    H126709   0.462   5.989   5.552
 8915TIP3    H226710   0.502   6.040   5.690
 8916TIP3   OH226711   0.669   0.981   0.087
 8916TIP3    H126712   0.711   0.895   0.086
 8916TIP3    H226713   0.595   0.973   0.026
 8917TIP3   OH226714   3.509   0.848   4.867
 8917TIP3    H126715   3.450   0.824   4.939
 8917TIP3    H226716   3.588   0.881   4.911
 8918TIP3   OH226717   0.345   1.071   5.270
 8918TIP3    H126718   0.436   1.101   5.264
 8918TIP3    H226719   0.297   1.149   5.299
 8919TIP3   OH226720   0.792   1.085   5.769
 8919TIP3    H126721   0.782   0.996   5.802
 8919TIP3    H226722   0.753   1.082   5.681
 8920TIP3   OH226723   3.382   3.467   2.514
 8920TIP3    H126724   3.325   3.470   2.590
 8920TIP3    H226725   3.431   3.549   2.517
 8921TIP3   OH226726   5.558   2.853   2.533
 8921TIP3    H126727   5.524   2.769   2.504
 8921TIP3    H226728   5.524   2.917   2.470
 8922TIP3   OH226729   2.018   3.166   5.708
 8922TIP3    H126730   2.065   3.197   5.630
 8922TIP3    H226731   2.004   3.072   5.691
 8923TIP3   OH226732   5.222   5.657   3.919
 8923TIP3    H126733   5.214   5.573   3.964
 8923TIP3    H226734   5.296   5.646   3.860
 8924TIP3   OH226735   3.248   4.301   5.399
 8924TIP3    H126736   3.300   4.220   5.392
 8924TIP3    H226737   3.259   4.343   5.314
 8925TIP3   OH226738   5.466   2.172   2.885
 8925TIP3    H126739   5.373   2.190   2.899
 8925TIP3    H226740   5.502   2.255   2.855
 8926TIP3   OH226741   5.061   0.234   1.477
 8926TIP3    H126742   5.023   0.225   1.564
 8926TIP3    H226743   5.118   0.310   1.483
 8927TIP3   OH226744   4.908   2.703   3.880
 8927TIP3    H126745   4.827   2.718   3.930
 8927TIP3    H226746   4.955   2.637   3.930
 8928TIP3   OH226747   2.014   1.951   3.210
 8928TIP3    H126748   1.938   2.004   3.186
 8928TIP3    H226749   1.986   1.901   3.287
 8929TIP3   OH226750   5.666   1.246   0.454
 8929TIP3    H126751   5.591   1.248   0.513
 8929TIP3    H226752   5.662   1.160   0.412
 8930TIP3   OH226753   4.498   4.223   4.050
 8930TIP3    H126754   4.512   4.317   4.058
 8930TIP3    H226755   4.447   4.213   3.970
 8931TIP3   OH226756   4.313   0.069   5.497
 8931TIP3    H126757   4.394   0.020   5.511
 8931TIP3    H226758   4.279   0.036   5.413
 8932TIP3   OH226759   2.858   5.920   1.758
 8932TIP3    H126760   2.890   5.987   1.818
 8932TIP3    H226761   2.885   5.837   1.798
 8933TIP3   OH226762   3.544   3.770   5.718
 8933TIP3    H126763   3.452   3.761   5.744
 8933TIP3    H226764   3.591   3.779   5.801
 8934TIP3   OH226765   7.111   1.182   5.154
 8934TIP3    H126766   7.115   1.264   5.105
 8934TIP3    H226767   7.025   1.184   5.196
 8935TIP3   OH226768   5.131   2.974   2.446
 8935TIP3    H126769   5.088   2.893   2.419
 8935TIP3    H226770   5.060   3.027   2.484
 8936TIP3   OH226771   5.058   0.066   0.071
 8936TIP3    H126772   5.088   0.090   0.158
 8936TIP3    H226773   5.064  -0.030   0.069
 8937TIP3   OH226774   6.581   6.206   1.381
 8937TIP3    H126775   6.623   6.204   1.295
 8937TIP3    H226776   6.613   6.128   1.426
 8938TIP3   OH226777   5.023   2.930   4.869
 8938TIP3    H126778   5.063   2.908   4.785
 8938TIP3    H226779   5.092   2.973   4.919
 8939TIP3   OH226780   1.583   0.645   1.749
 8939TIP3    H126781   1.569   0.557   1.714
 8939TIP3    H226782   1.616   0.696   1.675
 8940TIP3   OH226783   5.339   4.094   1.892
 8940TIP3    H126784   5.425   4.100   1.851
 8940TIP3    H226785   5.328   4.001   1.911
 8941TIP3   OH226786   3.036   1.957   1.789
 8941TIP3    H126787   3.105   2.012   1.753
 8941TIP3    H226788   2.958   2.013   1.786
 8942TIP3   OH226789   5.013   0.054   3.590
 8942TIP3    H126790   5.085   0.109   3.623
 8942TIP3    H226791   4.945   0.061   3.657
 8943TIP3   OH226792   0.995   5.925   2.724
 8943TIP3    H126793   0.913   5.929   2.675
 8943TIP3    H226794   0.981   5.857   2.790
 8944TIP3   OH226795   6.863   1.412   5.144
 8944TIP3    H126796   6.875   1.461   5.062
 8944TIP3    H226797   6.783   1.448   5.182
 8945TIP3   OH226798   1.148   6.546   4.260
 8945TIP3    H126799   1.242   6.565   4.267
 8945TIP3    H226800   1.108   6.600   4.329
 8946TIP3   OH226801   7.128   6.331   4.289
 8946TIP3    H126802   7.161   6.391   4.356
 8946TIP3    H226803   7.036   6.355   4.278
 8947TIP3   OH226804   3.755   2.906   4.010
 8947TIP3    H126805   3.666   2.921   3.976
 8947TIP3    H226806   3.808   2.973   3.967
 8948TIP3   OH226807   5.864   4.782   3.873
 8948TIP3    H126808   5.768   4.782   3.874
 8948TIP3    H226809   5.889   4.819   3.958
 8949TIP3   OH226810   3.354   2.743   1.096
 8949TIP3    H126811   3.317   2.831   1.093
 8949TIP3    H226812   3.439   2.754   1.139
 8950TIP3   OH226813   0.307   3.109   0.862
 8950TIP3    H126814   0.369   3.182   0.859
 8950TIP3    H226815   0.284   3.093   0.770
 8951TIP3   OH226816   6.691   1.129   1.021
 8951TIP3    H126817   6.698   1.054   1.080
 8951TIP3    H226818   6.725   1.096   0.937
 8952TIP3   OH226819   4.883   2.609   5.267
 8952TIP3    H126820   4.851   2.545   5.330
 8952TIP3    H226821   4.805   2.643   5.224
 8953TIP3   OH226822   6.658   4.036   0.349
 8953TIP3    H126823   6.748   4.068   0.346
 8953TIP3    H226824   6.655   3.967   0.283
 8954TIP3   OH226825   6.348   3.779   1.654
 8954TIP3    H126826   6.359   3.841   1.581
 8954TIP3    H226827   6.309   3.702   1.613
 8955TIP3   OH226828   4.004   2.397   0.403
 8955TIP3    H126829   3.916   2.364   0.423
 8955TIP3    H226830   4.063   2.345   0.458
 8956TIP3   OH226831   4.226   3.559   2.630
 8956TIP3    H126832   4.314   3.525   2.615
 8956TIP3    H226833   4.182   3.550   2.546
 8957TIP3   OH226834   6.290   3.392   5.161
 8957TIP3    H126835   6.198   3.417   5.150
 8957TIP3    H226836   6.326   3.393   5.073
 8958TIP3   OH226837   5.794   0.745   4.625
 8958TIP3    H126838   5.732   0.716   4.692
 8958TIP3    H226839   5.866   0.682   4.631
 8959TIP3   OH226840   2.706   2.219   3.055
 8959TIP3    H126841   2.744   2.272   2.985
 8959TIP3    H226842   2.781   2.185   3.103
 8960TIP3   OH226843   1.598   4.699   5.477
 8960TIP3    H126844   1.584   4.710   5.383
 8960TIP3    H226845   1.670   4.758   5.497
 8961TIP3   OH226846   0.738   3.605   1.387
 8961TIP3    H126847   0.656   3.650   1.366
 8961TIP3    H226848   0.715   3.545   1.458
 8962TIP3   OH226849   1.345   4.352   0.164
 8962TIP3    H126850   1.355   4.347   0.069
 8962TIP3    H226851   1.400   4.282   0.199
 8963TIP3   OH226852   0.949   0.617   5.411
 8963TIP3    H126853   0.974   0.645   5.323
 8963TIP3    H226854   1.022   0.561   5.440
 8964TIP3   OH226855   4.944   1.957   2.234
 8964TIP3    H126856   4.931   1.923   2.146
 8964TIP3    H226857   4.897   2.041   2.235
 8965TIP3   OH226858   2.370   0.603   4.309
 8965TIP3    H126859   2.403   0.527   4.357
 8965TIP3    H226860   2.279   0.579   4.287
 8966TIP3   OH226861   2.485   4.519   1.540
 8966TIP3    H126862   2.476   4.428   1.512
 8966TIP3    H226863   2.509   4.566   1.461
 8967TIP3   OH226864   0.948   5.553   1.474
 8967TIP3    H126865   0.924   5.598   1.393
 8967TIP3    H226866   0.903   5.602   1.543
 8968TIP3   OH226867   5.947   2.210   5.353
 8968TIP3    H126868   6.041   2.226   5.358
 8968TIP3    H226869   5.938   2.129   5.304
 8969TIP3   OH226870   6.200   3.758   1.058
 8969TIP3    H126871   6.108   3.732   1.046
 8969TIP3    H226872   6.227   3.712   1.138
 8970TIP3   OH226873   2.029   4.067   2.280
 8970TIP3    H126874   2.011   4.142   2.224
 8970TIP3    H226875   2.038   4.105   2.368
 8971TIP3   OH226876   6.503   2.532   1.465
 8971TIP3    H126877   6.560   2.521   1.388
 8971TIP3    H226878   6.420   2.563   1.429
 8972TIP3   OH226879  -0.037   5.025   3.583
 8972TIP3    H126880   0.043   4.974   3.593
 8972TIP3    H226881  -0.007   5.116   3.581
 8973TIP3   OH226882   0.457   3.974   2.664
 8973TIP3    H126883   0.429   3.986   2.573
 8973TIP3    H226884   0.544   4.014   2.668
 8974TIP3   OH226885   0.514   2.558   1.595
 8974TIP3    H126886   0.467   2.474   1.599
 8974TIP3    H226887   0.552   2.560   1.507
 8975TIP3   OH226888   0.058   1.037   3.314
 8975TIP3    H126889  -0.037   1.023   3.307
 8975TIP3    H226890   0.067   1.113   3.371
 8976TIP3   OH226891   1.222   2.541   4.748
 8976TIP3    H126892   1.315   2.522   4.761
 8976TIP3    H226893   1.189   2.465   4.700
 8977TIP3   OH226894   2.374   1.429   0.967
 8977TIP3    H126895   2.322   1.414   1.046
 8977TIP3    H226896   2.410   1.517   0.978
 8978TIP3   OH226897   5.642   5.084   2.977
 8978TIP3    H126898   5.725   5.048   2.945
 8978TIP3    H226899   5.581   5.010   2.976
 8979TIP3   OH226900   5.991   5.483   3.647
 8979TIP3    H126901   6.021   5.433   3.571
 8979TIP3    H226902   6.066   5.482   3.707
 8980TIP3   OH226903   1.992   0.241   2.281
 8980TIP3    H126904   1.958   0.323   2.243
 8980TIP3    H226905   2.086   0.245   2.265
 8981TIP3   OH226906   2.136   1.837   1.245
 8981TIP3    H126907   2.213   1.792   1.211
 8981TIP3    H226908   2.099   1.881   1.169
 8982TIP3   OH226909   1.620   2.159   2.823
 8982TIP3    H126910   1.660   2.245   2.817
 8982TIP3    H226911   1.687   2.099   2.790
 8983TIP3   OH226912   6.925   0.574   3.936
 8983TIP3    H126913   6.844   0.623   3.923
 8983TIP3    H226914   6.940   0.531   3.852
 8984TIP3   OH226915   3.870   6.185   2.401
 8984TIP3    H126916   3.956   6.226   2.394
 8984TIP3    H226917   3.839   6.208   2.488
 8985TIP3   OH226918   1.989   5.482   3.104
 8985TIP3    H126919   2.038   5.482   3.187
 8985TIP3    H226920   2.055   5.466   3.037
 8986TIP3   OH226921   6.355   1.338   5.852
 8986TIP3    H126922   6.348   1.267   5.915
 8986TIP3    H226923   6.267   1.349   5.817
 8987TIP3   OH226924   3.976   5.851   2.752
 8987TIP3    H126925   3.969   5.846   2.657
 8987TIP3    H226926   4.040   5.783   2.775
 8988TIP3   OH226927   6.104   4.815   0.914
 8988TIP3    H126928   6.074   4.825   1.005
 8988TIP3    H226929   6.140   4.901   0.892
 8989TIP3   OH226930   5.155   5.830   4.489
 8989TIP3    H126931   5.246   5.807   4.469
 8989TIP3    H226932   5.109   5.820   4.406
 8990TIP3   OH226933   3.280   0.591   4.539
 8990TIP3    H126934   3.265   0.660   4.603
 8990TIP3    H226935   3.372   0.600   4.514
 8991TIP3   OH226936   1.268   1.550   0.285
 8991TIP3    H126937   1.177   1.521   0.275
 8991TIP3    H226938   1.318   1.469   0.298
 8992TIP3   OH226939   3.891   2.700   4.704
 8992TIP3    H126940   3.934   2.784   4.686
 8992TIP3    H226941   3.961   2.643   4.735
 8993TIP3   OH226942   2.029   3.588   2.914
 8993TIP3    H126943   1.982   3.670   2.927
 8993TIP3    H226944   1.962   3.520   2.917
 8994TIP3   OH226945   4.402   3.533   5.288
 8994TIP3    H126946   4.462   3.478   5.238
 8994TIP3    H226947   4.459   3.586   5.344
 8995TIP3   OH226948   1.365   4.068   0.400
 8995TIP3    H126949   1.338   4.142   0.456
 8995TIP3    H226950   1.457   4.086   0.380
 8996TIP3   OH226951   6.945   1.308   4.104
 8996TIP3    H126952   6.919   1.396   4.074
 8996TIP3    H226953   6.910   1.302   4.193
 8997TIP3   OH226954   6.729   0.113   1.565
 8997TIP3    H126955   6.761   0.193   1.607
 8997TIP3    H226956   6.783   0.044   1.603
 8998TIP3   OH226957   1.997   4.457   1.219
 8998TIP3    H126958   2.083   4.486   1.249
 8998TIP3    H226959   1.980   4.511   1.141
 8999TIP3   OH226960   5.218   0.428   1.512
 8999TIP3    H126961   5.210   0.521   1.491
 8999TIP3    H226962   5.306   0.405   1.483
 9000TIP3   OH226963   5.852   6.573   1.514
 9000TIP3    H126964   5.883   6.663   1.520
 9000TIP3    H226965   5.899   6.537   1.438
 9001TIP3   OH226966   1.430   2.792   2.235
 9001TIP3    H126967   1.357   2.732   2.223
 9001TIP3    H226968   1.391   2.879   2.225
 9002TIP3   OH226969   0.576   5.630   1.654
 9002TIP3    H126970   0.592   5.594   1.741
 9002TIP3    H226971   0.526   5.710   1.669
 9003TIP3   OH226972   2.354   5.198   0.686
 9003TIP3    H126973   2.313   5.208   0.771
 9003TIP3    H226974   2.373   5.287   0.657
 9004TIP3   OH226975   3.580   3.909   5.395
 9004TIP3    H126976   3.530   3.864   5.463
 9004TIP3    H226977   3.646   3.845   5.368
 9005TIP3   OH226978   4.092   4.044   3.632
 9005TIP3    H126979   4.084   4.137   3.653
 9005TIP3    H226980   4.004   4.009   3.646
 9006TIP3   OH226981   2.019   4.243   1.415
 9006TIP3    H126982   1.999   4.275   1.327
 9006TIP3    H226983   1.945   4.271   1.468
 9007TIP3   OH226984   5.450   1.280   0.960
 9007TIP3    H126985   5.358   1.253   0.959
 9007TIP3    H226986   5.457   1.337   1.036
 9008TIP3   OH226987   0.980   3.305   0.258
 9008TIP3    H126988   0.975   3.341   0.347
 9008TIP3    H226989   1.061   3.341   0.222
 9009TIP3   OH226990   0.263   4.949   2.398
 9009TIP3    H126991   0.187   4.961   2.341
 9009TIP3    H226992   0.323   4.894   2.348
 9010TIP3   OH226993   4.039   3.457   0.038
 9010TIP3    H126994   3.947   3.484   0.043
 9010TIP3    H226995   4.065   3.476  -0.052
 9011TIP3   OH226996   5.553   5.418   0.389
 9011TIP3    H126997   5.579   5.472   0.314
 9011TIP3    H226998   5.627   5.359   0.403
 9012TIP3   OH226999   1.722   5.917   4.745
 9012TIP3    H127000   1.743   5.829   4.777
 9012TIP3    H227001   1.752   5.975   4.815
 9013TIP3   OH227002   5.089   6.681   4.519
 9013TIP3    H127003   5.089   6.595   4.477
 9013TIP3    H227004   5.167   6.724   4.486
 9014TIP3   OH227005   5.951   0.041  -0.065
 9014TIP3    H127006   5.890   0.100  -0.020
 9014TIP3    H227007   5.908   0.020  -0.148
 9015TIP3   OH227008   6.923   5.518   3.588
 9015TIP3    H127009   6.989   5.546   3.652
 9015TIP3    H227010   6.969   5.458   3.531
 9016TIP3   OH227011   1.031   3.016   5.474
 9016TIP3    H127012   1.010   2.936   5.521
 9016TIP3    H227013   0.972   3.082   5.511
 9017TIP3   OH227014   6.814   5.426   1.727
 9017TIP3    H127015   6.789   5.447   1.817
 9017TIP3    H227016   6.832   5.510   1.686
 9018TIP3   OH227017   0.902   6.355   4.886
 9018TIP3    H127018   0.926   6.381   4.975
 9018TIP3    H227019   0.957   6.409   4.829
 9019TIP3   OH227020   5.393   2.754   4.982
 9019TIP3    H127021   5.367   2.802   4.904
 9019TIP3    H227022   5.310   2.726   5.022
 9020TIP3   OH227023   1.901   0.787   3.923
 9020TIP3    H127024   1.906   0.758   3.832
 9020TIP3    H227025   1.882   0.707   3.972
 9021TIP3   OH227026   6.281   5.644   3.192
 9021TIP3    H127027   6.335   5.722   3.202
 9021TIP3    H227028   6.205   5.673   3.142
 9022TIP3   OH227029   0.063   0.488   0.074
 9022TIP3    H127030  -0.018   0.537   0.087
 9022TIP3    H227031   0.043   0.400   0.106
 9023TIP3   OH227032   3.971   1.931   1.201
 9023TIP3    H127033   4.003   1.951   1.113
 9023TIP3    H227034   3.950   1.837   1.198
 9024TIP3   OH227035   5.596   3.580   1.109
 9024TIP3    H127036   5.555   3.518   1.169
 9024TIP3    H227037   5.523   3.632   1.075
 9025TIP3   OH227038   0.198   4.069   2.138
 9025TIP3    H127039   0.126   4.045   2.080
 9025TIP3    H227040   0.182   4.161   2.160
 9026TIP3   OH227041   5.696   5.125   3.810
 9026TIP3    H127042   5.661   5.203   3.768
 9026TIP3    H227043   5.726   5.070   3.738
 9027TIP3   OH227044   6.822   0.875   3.860
 9027TIP3    H127045   6.769   0.805   3.898
 9027TIP3    H227046   6.802   0.952   3.914
 9028TIP3   OH227047   4.183   6.690   4.380
 9028TIP3    H127048   4.272   6.714   4.403
 9028TIP3    H227049   4.193   6.619   4.316
 9029TIP3   OH227050   0.631   3.330   5.317
 9029TIP3    H127051   0.575   3.406   5.333
 9029TIP3    H227052   0.589   3.285   5.243
 9030TIP3   OH227053   1.241   0.296   1.235
 9030TIP3    H127054   1.152   0.329   1.227
 9030TIP3    H227055   1.254   0.284   1.329
 9031TIP3   OH227056   3.127   6.577   4.674
 9031TIP3    H127057   3.107   6.595   4.766
 9031TIP3    H227058   3.188   6.503   4.677
 9032TIP3   OH227059   1.588   2.170   0.225
 9032TIP3    H127060   1.566   2.219   0.146
 9032TIP3    H227061   1.681   2.153   0.218
 9033TIP3   OH227062   2.800   1.626   4.679
 9033TIP3    H127063   2.750   1.708   4.681
 9033TIP3    H227064   2.739   1.563   4.641
 9034TIP3   OH227065   0.493   4.869   4.056
 9034TIP3    H127066   0.510   4.924   4.132
 9034TIP3    H227067   0.469   4.784   4.093
 9035TIP3   OH227068   3.172   4.134   0.825
 9035TIP3    H127069   3.218   4.053   0.800
 9035TIP3    H227070   3.223   4.169   0.898
 9036TIP3   OH227071   0.063   5.183   3.854
 9036TIP3    H127072   0.128   5.116   3.874
 9036TIP3    H227073   0.000   5.178   3.927
 9037TIP3   OH227074   3.235   2.427   5.808
 9037TIP3    H127075   3.176   2.476   5.751
 9037TIP3    H227076   3.259   2.350   5.758
 9038TIP3   OH227077   6.482   4.466   0.969
 9038TIP3    H127078   6.417   4.463   0.898
 9038TIP3    H227079   6.480   4.379   1.008
 9039TIP3   OH227080   3.343   3.101   2.156
 9039TIP3    H127081   3.352   3.190   2.189
 9039TIP3    H227082   3.328   3.112   2.062
 9040TIP3   OH227083   7.009   6.631   0.284
 9040TIP3    H127084   6.977   6.694   0.220
 9040TIP3    H227085   6.970   6.548   0.259
 9041TIP3   OH227086   5.709   2.859   3.969
 9041TIP3    H127087   5.777   2.838   3.906
 9041TIP3    H227088   5.629   2.819   3.934
 9042TIP3   OH227089   4.750   5.078   2.490
 9042TIP3    H127090   4.681   5.128   2.532
 9042TIP3    H227091   4.777   5.014   2.556
 9043TIP3   OH227092   1.842   3.447   4.816
 9043TIP3    H127093   1.931   3.431   4.848
 9043TIP3    H227094   1.849   3.443   4.721
 9044TIP3   OH227095   2.015   1.507   1.502
 9044TIP3    H127096   2.017   1.573   1.572
 9044TIP3    H227097   2.041   1.426   1.545
 9045TIP3   OH227098   6.970   5.790   4.933
 9045TIP3    H127099   7.029   5.798   4.858
 9045TIP3    H227100   6.971   5.876   4.974
 9046TIP3   OH227101   2.115   5.204   0.135
 9046TIP3    H127102   2.097   5.242   0.221
 9046TIP3    H227103   2.038   5.151   0.115
 9047TIP3   OH227104   3.807   2.418   4.489
 9047TIP3    H127105   3.748   2.466   4.547
 9047TIP3    H227106   3.812   2.331   4.528
 9048TIP3   OH227107   6.118   5.339   3.422
 9048TIP3    H127108   6.204   5.365   3.388
 9048TIP3    H227109   6.065   5.322   3.344
 9049TIP3   OH227110   4.118   0.363   5.398
 9049TIP3    H127111   4.176   0.377   5.473
 9049TIP3    H227112   4.082   0.275   5.412
 9050TIP3   OH227113   1.857   6.306   2.143
 9050TIP3    H127114   1.911   6.273   2.071
 9050TIP3    H227115   1.834   6.228   2.193
 9051TIP3   OH227116   6.210   5.829   3.705
 9051TIP3    H127117   6.253   5.751   3.739
 9051TIP3    H227118   6.181   5.877   3.783
 9052TIP3   OH227119   5.540   2.306   2.422
 9052TIP3    H127120   5.603   2.234   2.434
 9052TIP3    H227121   5.464   2.265   2.381
 9053TIP3   OH227122   2.888   3.993   0.236
 9053TIP3    H127123   2.868   3.993   0.329
 9053TIP3    H227124   2.851   3.911   0.203
 9054TIP3   OH227125   3.621   1.035   5.143
 9054TIP3    H127126   3.675   0.993   5.075
 9054TIP3    H227127   3.659   1.123   5.152
 9055TIP3   OH227128   4.852   1.368   0.976
 9055TIP3    H127129   4.861   1.462   0.992
 9055TIP3    H227130   4.942   1.336   0.973
 9056TIP3   OH227131   6.333   5.365   1.800
 9056TIP3    H127132   6.399   5.308   1.840
 9056TIP3    H227133   6.251   5.319   1.813
 9057TIP3   OH227134   2.542   0.967   1.964
 9057TIP3    H127135   2.543   1.032   2.034
 9057TIP3    H227136   2.558   1.017   1.884
 9058TIP3   OH227137   4.068   0.863   4.819
 9058TIP3    H127138   4.148   0.814   4.799
 9058TIP3    H227139   4.002   0.796   4.834
 9059TIP3   OH227140   2.154   3.379   0.409
 9059TIP3    H127141   2.123   3.297   0.449
 9059TIP3    H227142   2.159   3.360   0.316
 9060TIP3   OH227143   1.282   1.088   5.623
 9060TIP3    H127144   1.313   1.030   5.692
 9060TIP3    H227145   1.350   1.084   5.556
 9061TIP3   OH227146   0.110   5.453   5.175
 9061TIP3    H127147   0.133   5.437   5.083
 9061TIP3    H227148   0.039   5.392   5.194
 9062TIP3   OH227149   0.184   1.352   0.958
 9062TIP3    H127150   0.101   1.309   0.975
 9062TIP3    H227151   0.174   1.439   0.997
 9063TIP3   OH227152   4.368   0.941   1.515
 9063TIP3    H127153   4.410   1.021   1.484
 9063TIP3    H227154   4.383   0.877   1.445
 9064TIP3   OH227155   5.249   1.355   3.371
 9064TIP3    H127156   5.239   1.450   3.370
 9064TIP3    H227157   5.329   1.340   3.422
 9065TIP3   OH227158   5.060   1.167   3.496
 9065TIP3    H127159   5.132   1.230   3.487
 9065TIP3    H227160   5.073   1.129   3.583
 9066TIP3   OH227161   6.526   4.385   5.177
 9066TIP3    H127162   6.472   4.444   5.126
 9066TIP3    H227163   6.583   4.342   5.113
 9067TIP3   OH227164   5.022   4.104   0.515
 9067TIP3    H127165   4.967   4.078   0.442
 9067TIP3    H227166   5.110   4.078   0.489
 9068TIP3   OH227167   2.604   5.036   3.548
 9068TIP3    H127168   2.685   4.987   3.558
 9068TIP3    H227169   2.552   4.984   3.487
 9069TIP3   OH227170   6.966   2.768   5.032
 9069TIP3    H127171   6.873   2.751   5.051
 9069TIP3    H227172   6.983   2.853   5.073
 9070TIP3   OH227173   5.724   2.252   5.629
 9070TIP3    H127174   5.738   2.193   5.555
 9070TIP3    H227175   5.632   2.240   5.652
 9071TIP3   OH227176   6.866   3.969   5.284
 9071TIP3    H127177   6.771   3.977   5.297
 9071TIP3    H227178   6.891   3.895   5.339
 9072TIP3   OH227179   4.782   2.702   0.041
 9072TIP3    H127180   4.777   2.763   0.115
 9072TIP3    H227181   4.756   2.617   0.078
 9073TIP3   OH227182   3.297   4.211   3.649
 9073TIP3    H127183   3.259   4.294   3.620
 9073TIP3    H227184   3.260   4.146   3.589
 9074TIP3   OH227185   3.447   4.756   0.956
 9074TIP3    H127186   3.446   4.748   0.861
 9074TIP3    H227187   3.496   4.837   0.973
 9075TIP3   OH227188   5.304   5.212   5.186
 9075TIP3    H127189   5.365   5.204   5.260
 9075TIP3    H227190   5.349   5.168   5.114
 9076TIP3   OH227191   5.341   5.082   3.966
 9076TIP3    H127192   5.362   5.092   3.874
 9076TIP3    H227193   5.262   5.134   3.980
 9077TIP3   OH227194   5.739   3.608   4.323
 9077TIP3    H127195   5.753   3.585   4.415
 9077TIP3    H227196   5.731   3.703   4.323
 9078TIP3   OH227197   2.376   3.191   0.305
 9078TIP3    H127198   2.305   3.128   0.321
 9078TIP3    H227199   2.443   3.169   0.370
 9079TIP3   OH227200   5.968   4.007   0.156
 9079TIP3    H127201   5.999   4.072   0.219
 9079TIP3    H227202   6.033   3.937   0.159
 9080TIP3   OH227203   1.947   1.707   2.479
 9080TIP3    H127204   1.879   1.645   2.452
 9080TIP3    H227205   2.001   1.658   2.541
 9081TIP3   OH227206   6.666   2.924   4.596
 9081TIP3    H127207   6.661   3.018   4.614
 9081TIP3    H227208   6.646   2.883   4.680
 9082TIP3   OH227209   0.597   2.503   3.487
 9082TIP3    H127210   0.678   2.454   3.474
 9082TIP3    H227211   0.608   2.581   3.432
 9083TIP3   OH227212   6.598   0.955   4.947
 9083TIP3    H127213   6.531   1.019   4.925
 9083TIP3    H227214   6.678   1.007   4.956
 9084TIP3   OH227215   3.966   4.217   4.712
 9084TIP3    H127216   3.993   4.228   4.803
 9084TIP3    H227217   3.870   4.213   4.716
 9085TIP3   OH227218   1.055   4.095   1.447
 9085TIP3    H127219   1.057   4.129   1.537
 9085TIP3    H227220   1.080   4.003   1.456
 9086TIP3   OH227221   1.479   3.514   3.806
 9086TIP3    H127222   1.492   3.540   3.715
 9086TIP3    H227223   1.564   3.530   3.848
 9087TIP3   OH227224   4.714   4.101   4.184
 9087TIP3    H127225   4.778   4.164   4.215
 9087TIP3    H227226   4.655   4.152   4.128
 9088TIP3   OH227227   3.685   1.871   0.830
 9088TIP3    H127228   3.605   1.819   0.841
 9088TIP3    H227229   3.696   1.877   0.735
 9089TIP3   OH227230   0.380   4.877   1.071
 9089TIP3    H127231   0.419   4.792   1.093
 9089TIP3    H227232   0.455   4.933   1.051
 9090TIP3   OH227233   2.836   3.468   0.280
 9090TIP3    H127234   2.753   3.446   0.323
 9090TIP3    H227235   2.884   3.519   0.346
 9091TIP3   OH227236   2.868   5.442   0.735
 9091TIP3    H127237   2.817   5.407   0.808
 9091TIP3    H227238   2.835   5.396   0.658
 9092TIP3   OH227239   1.080   1.350   3.330
 9092TIP3    H127240   1.038   1.303   3.402
 9092TIP3    H227241   1.028   1.326   3.253
 9093TIP3   OH227242   6.941   2.896   0.917
 9093TIP3    H127243   6.976   2.888   1.005
 9093TIP3    H227244   6.926   2.806   0.888
 9094TIP3   OH227245   2.625   0.250   1.777
 9094TIP3    H127246   2.657   0.270   1.689
 9094TIP3    H227247   2.701   0.259   1.833
 9095TIP3   OH227248   5.288   6.530   3.215
 9095TIP3    H127249   5.210   6.490   3.255
 9095TIP3    H227250   5.316   6.597   3.277
 9096TIP3   OH227251   6.068   4.893   2.572
 9096TIP3    H127252   6.160   4.909   2.592
 9096TIP3    H227253   6.034   4.847   2.649
 9097TIP3   OH227254   7.036   1.096   2.736
 9097TIP3    H127255   7.055   1.105   2.829
 9097TIP3    H227256   6.940   1.100   2.731
 9098TIP3   OH227257   7.114   1.550   4.422
 9098TIP3    H127258   7.209   1.545   4.411
 9098TIP3    H227259   7.102   1.573   4.514
 9099TIP3   OH227260   4.043   6.647   5.014
 9099TIP3    H127261   4.022   6.563   4.973
 9099TIP3    H227262   4.108   6.626   5.081
 9100TIP3   OH227263   4.305   5.825   0.893
 9100TIP3    H127264   4.238   5.844   0.959
 9100TIP3    H227265   4.279   5.742   0.854
 9101TIP3   OH227266   5.848   3.648   0.065
 9101TIP3    H127267   5.806   3.723   0.107
 9101TIP3    H227268   5.787   3.575   0.078
 9102TIP3   OH227269   3.708   0.164   5.381
 9102TIP3    H127270   3.689   0.184   5.290
 9102TIP3    H227271   3.640   0.102   5.407
 9103TIP3   OH227272   0.996   1.576   2.588
 9103TIP3    H127273   0.926   1.511   2.578
 9103TIP3    H227274   1.006   1.585   2.682
 9104TIP3   OH227275   1.019   0.114   3.065
 9104TIP3    H127276   0.981   0.040   3.018
 9104TIP3    H227277   0.980   0.110   3.152
 9105TIP3   OH227278   3.568   1.655   2.281
 9105TIP3    H127279   3.661   1.671   2.262
 9105TIP3    H227280   3.531   1.631   2.196
 9106TIP3   OH227281   6.290   5.571   2.003
 9106TIP3    H127282   6.353   5.535   1.941
 9106TIP3    H227283   6.265   5.656   1.967
 9107TIP3   OH227284   1.209   6.756   0.738
 9107TIP3    H127285   1.161   6.831   0.772
 9107TIP3    H227286   1.179   6.746   0.648
 9108TIP3   OH227287   3.222   1.180   2.926
 9108TIP3    H127288   3.147   1.232   2.897
 9108TIP3    H227289   3.259   1.145   2.845
 9109TIP3   OH227290   3.197   3.494   4.292
 9109TIP3    H127291   3.192   3.412   4.340
 9109TIP3    H227292   3.173   3.561   4.356
 9110TIP3   OH227293   5.153   6.667   0.114
 9110TIP3    H127294   5.130   6.584   0.072
 9110TIP3    H227295   5.246   6.659   0.134
 9111TIP3   OH227296   4.943   6.803   0.259
 9111TIP3    H127297   5.024   6.752   0.258
 9111TIP3    H227298   4.964   6.880   0.312
 9112TIP3   OH227299   3.348   4.107   1.048
 9112TIP3    H127300   3.327   4.014   1.057
 9112TIP3    H227301   3.442   4.109   1.034
 9113TIP3   OH227302   3.596   3.205   2.026
 9113TIP3    H127303   3.540   3.156   1.966
 9113TIP3    H227304   3.537   3.260   2.076
 9114TIP3   OH227305   4.143   5.144   4.458
 9114TIP3    H127306   4.084   5.091   4.511
 9114TIP3    H227307   4.101   5.230   4.455
 9115TIP3   OH227308   3.466   6.280   4.706
 9115TIP3    H127309   3.523   6.357   4.701
 9115TIP3    H227310   3.431   6.270   4.618
 9116TIP3   OH227311   3.200   5.155   5.654
 9116TIP3    H127312   3.247   5.079   5.689
 9116TIP3    H227313   3.224   5.227   5.712
 9117TIP3   OH227314   5.821   5.782   4.971
 9117TIP3    H127315   5.888   5.812   5.034
 9117TIP3    H227316   5.773   5.862   4.949
 9118TIP3   OH227317   7.136   0.490   5.836
 9118TIP3    H127318   7.221   0.527   5.861
 9118TIP3    H227319   7.082   0.497   5.914
 9119TIP3   OH227320   0.433   3.058   1.110
 9119TIP3    H127321   0.408   2.965   1.106
 9119TIP3    H227322   0.395   3.097   1.032
 9120TIP3   OH227323   1.243   0.608   3.565
 9120TIP3    H127324   1.166   0.626   3.619
 9120TIP3    H227325   1.212   0.550   3.496
 9121TIP3   OH227326   3.449   6.279   5.784
 9121TIP3    H127327   3.424   6.371   5.770
 9121TIP3    H227328   3.517   6.283   5.851
 9122TIP3   OH227329   4.616   4.844   2.664
 9122TIP3    H127330   4.563   4.772   2.697
 9122TIP3    H227331   4.694   4.844   2.719
 9123TIP3   OH227332   6.428   5.888   1.788
 9123TIP3    H127333   6.403   5.890   1.880
 9123TIP3    H227334   6.392   5.969   1.752
 9124TIP3   OH227335   3.256   5.434   3.657
 9124TIP3    H127336   3.217   5.521   3.644
 9124TIP3    H227337   3.302   5.441   3.740
 9125TIP3   OH227338   3.434   3.559   5.387
 9125TIP3    H127339   3.379   3.526   5.316
 9125TIP3    H227340   3.520   3.522   5.371
 9126TIP3   OH227341   3.898   2.868   1.161
 9126TIP3    H127342   3.819   2.817   1.140
 9126TIP3    H227343   3.883   2.900   1.250
 9127TIP3   OH227344   5.262   3.283   0.916
 9127TIP3    H127345   5.202   3.222   0.874
 9127TIP3    H227346   5.256   3.362   0.862
 9128TIP3   OH227347   3.203   0.202   0.872
 9128TIP3    H127348   3.166   0.147   0.941
 9128TIP3    H227349   3.139   0.273   0.861
 9129TIP3   OH227350   0.828   5.651   1.224
 9129TIP3    H127351   0.751   5.607   1.258
 9129TIP3    H227352   0.796   5.705   1.152
 9130TIP3   OH227353   0.045   3.449   0.963
 9130TIP3    H127354   0.098   3.528   0.972
 9130TIP3    H227355   0.015   3.451   0.872
 9131TIP3   OH227356   0.856   5.076   5.844
 9131TIP3    H127357   0.946   5.049   5.862
 9131TIP3    H227358   0.818   5.092   5.931
 9132TIP3   OH227359   6.496   3.634   0.603
 9132TIP3    H127360   6.411   3.639   0.559
 9132TIP3    H227361   6.504   3.718   0.648
 9133TIP3   OH227362   2.399   4.725   5.710
 9133TIP3    H127363   2.427   4.786   5.779
 9133TIP3    H227364   2.306   4.710   5.727
 9134TIP3   OH227365   7.217   4.253   4.185
 9134TIP3    H127366   7.247   4.290   4.102
 9134TIP3    H227367   7.148   4.313   4.215
 9135TIP3   OH227368   3.862   1.532   5.456
 9135TIP3    H127369   3.943   1.579   5.434
 9135TIP3    H227370   3.883   1.440   5.438
 9136TIP3   OH227371   6.494   6.119   2.211
 9136TIP3    H127372   6.506   6.109   2.305
 9136TIP3    H227373   6.433   6.049   2.187
 9137TIP3   OH227374   2.131   5.962   2.342
 9137TIP3    H127375   2.073   5.959   2.417
 9137TIP3    H227376   2.118   6.050   2.305
 9138TIP3   OH227377   1.944   4.318   0.855
 9138TIP3    H127378   2.031   4.302   0.891
 9138TIP3    H227379   1.955   4.309   0.760
 9139TIP3   OH227380   2.804   3.936   5.185
 9139TIP3    H127381   2.897   3.912   5.189
 9139TIP3    H227382   2.765   3.893   5.261
 9140TIP3   OH227383   5.739   3.586   5.016
 9140TIP3    H127384   5.803   3.616   4.952
 9140TIP3    H227385   5.655   3.619   4.983
 9141TIP3   OH227386   5.229   3.848   2.106
 9141TIP3    H127387   5.161   3.825   2.043
 9141TIP3    H227388   5.310   3.815   2.067
 9142TIP3   OH227389   1.962   3.067   0.163
 9142TIP3    H127390   1.900   3.060   0.091
 9142TIP3    H227391   1.947   2.989   0.216
 9143TIP3   OH227392   1.013   1.280   2.784
 9143TIP3    H127393   1.078   1.319   2.726
 9143TIP3    H227394   0.961   1.222   2.728
 9144TIP3   OH227395   0.692   0.992   2.196
 9144TIP3    H127396   0.746   1.067   2.221
 9144TIP3    H227397   0.605   1.012   2.230
 9145TIP3   OH227398   2.794   6.542   3.859
 9145TIP3    H127399   2.802   6.633   3.829
 9145TIP3    H227400   2.867   6.530   3.919
 9146TIP3   OH227401   5.233   4.365   3.210
 9146TIP3    H127402   5.210   4.280   3.171
 9146TIP3    H227403   5.173   4.427   3.169
 9147TIP3   OH227404   1.519   1.913   1.449
 9147TIP3    H127405   1.597   1.968   1.452
 9147TIP3    H227406   1.471   1.936   1.528
 9148TIP3   OH227407   7.028   5.459   3.120
 9148TIP3    H127408   7.027   5.549   3.087
 9148TIP3    H227409   7.059   5.407   3.046
 9149TIP3   OH227410   1.385   0.166   5.895
 9149TIP3    H127411   1.303   0.155   5.848
 9149TIP3    H227412   1.377   0.252   5.937
 9150TIP3   OH227413   4.403   3.071   5.909
 9150TIP3    H127414   4.449   3.029   5.981
 9150TIP3    H227415   4.335   3.007   5.884
 9151TIP3   OH227416   5.165   6.095   0.279
 9151TIP3    H127417   5.108   6.059   0.211
 9151TIP3    H227418   5.198   6.177   0.242
 9152TIP3   OH227419   1.653   6.188   1.420
 9152TIP3    H127420   1.682   6.279   1.412
 9152TIP3    H227421   1.732   6.136   1.408
 9153TIP3   OH227422   0.210   1.588   1.179
 9153TIP3    H127423   0.141   1.653   1.192
 9153TIP3    H227424   0.212   1.538   1.261
 9154TIP3   OH227425   2.522   6.071   5.296
 9154TIP3    H127426   2.442   6.072   5.244
 9154TIP3    H227427   2.519   5.988   5.343
 9155TIP3   OH227428   0.911   3.227   3.884
 9155TIP3    H127429   0.874   3.161   3.825
 9155TIP3    H227430   1.000   3.197   3.901
 9156TIP3   OH227431   3.057   3.487   5.728
 9156TIP3    H127432   2.989   3.425   5.755
 9156TIP3    H227433   3.102   3.443   5.656
 9157TIP3   OH227434   2.284   0.177   2.262
 9157TIP3    H127435   2.276   0.237   2.188
 9157TIP3    H227436   2.375   0.187   2.292
 9158TIP3   OH227437   5.732   3.148   0.552
 9158TIP3    H127438   5.712   3.239   0.530
 9158TIP3    H227439   5.811   3.128   0.501
 9159TIP3   OH227440   6.610   6.089   2.748
 9159TIP3    H127441   6.636   6.022   2.812
 9159TIP3    H227442   6.657   6.167   2.776
 9160TIP3   OH227443   2.194   0.929   1.334
 9160TIP3    H127444   2.275   0.878   1.340
 9160TIP3    H227445   2.125   0.863   1.336
 9161TIP3   OH227446   1.380   3.816   0.763
 9161TIP3    H127447   1.357   3.906   0.737
 9161TIP3    H227448   1.432   3.783   0.690
 9162TIP3   OH227449   1.679   1.547   3.472
 9162TIP3    H127450   1.620   1.500   3.413
 9162TIP3    H227451   1.621   1.591   3.534
 9163TIP3   OH227452   3.419   4.584   4.682
 9163TIP3    H127453   3.392   4.623   4.599
 9163TIP3    H227454   3.511   4.561   4.670
 9164TIP3   OH227455   4.075   3.678   5.768
 9164TIP3    H127456   4.001   3.664   5.710
 9164TIP3    H227457   4.052   3.631   5.848
 9165TIP3   OH227458   0.975   3.040   2.156
 9165TIP3    H127459   0.966   3.128   2.193
 9165TIP3    H227460   0.935   2.982   2.221
 9166TIP3   OH227461   2.802   0.068   2.445
 9166TIP3    H127462   2.801   0.012   2.367
 9166TIP3    H227463   2.758   0.017   2.512
 9167TIP3   OH227464   5.428   3.955   3.933
 9167TIP3    H127465   5.399   3.925   3.847
 9167TIP3    H227466   5.454   3.875   3.979
 9168TIP3   OH227467   0.778   4.843   1.411
 9168TIP3    H127468   0.759   4.935   1.392
 9168TIP3    H227469   0.873   4.836   1.404
 9169TIP3   OH227470   2.691   1.987   0.577
 9169TIP3    H127471   2.718   1.944   0.496
 9169TIP3    H227472   2.670   2.077   0.550
 9170TIP3   OH227473   1.878   2.126   3.033
 9170TIP3    H127474   1.864   2.044   2.986
 9170TIP3    H227475   1.848   2.194   2.973
 9171TIP3   OH227476   4.262   2.979   0.958
 9171TIP3    H127477   4.240   3.072   0.958
 9171TIP3    H227478   4.178   2.934   0.969
 9172TIP3   OH227479   5.681   2.010   5.508
 9172TIP3    H127480   5.761   1.980   5.551
 9172TIP3    H227481   5.614   2.006   5.577
 9173TIP3   OH227482   3.236   5.060   2.992
 9173TIP3    H127483   3.227   5.123   2.921
 9173TIP3    H227484   3.308   5.093   3.045
 9174TIP3   OH227485   2.261   2.824   3.536
 9174TIP3    H127486   2.254   2.916   3.512
 9174TIP3    H227487   2.346   2.797   3.501
 9175TIP3   OH227488   0.596   2.752   3.357
 9175TIP3    H127489   0.542   2.773   3.281
 9175TIP3    H227490   0.555   2.801   3.429
 9176TIP3   OH227491   5.775   6.079   5.028
 9176TIP3    H127492   5.810   6.167   5.016
 9176TIP3    H227493   5.776   6.065   5.123
 9177TIP3   OH227494   0.431   4.366   2.603
 9177TIP3    H127495   0.497   4.322   2.549
 9177TIP3    H227496   0.468   4.453   2.620
 9178TIP3   OH227497   0.800   4.500   3.065
 9178TIP3    H127498   0.839   4.554   3.133
 9178TIP3    H227499   0.838   4.413   3.077
 9179TIP3   OH227500   1.800   2.497   0.211
 9179TIP3    H127501   1.876   2.481   0.154
 9179TIP3    H227502   1.796   2.420   0.267
 9180TIP3   OH227503   5.986   2.741   1.157
 9180TIP3    H127504   5.893   2.754   1.175
 9180TIP3    H227505   6.031   2.808   1.208
 9181TIP3   OH227506   6.034   2.313   2.325
 9181TIP3    H127507   6.013   2.231   2.279
 9181TIP3    H227508   6.098   2.356   2.269
 9182TIP3   OH227509   0.127   4.615   4.066
 9182TIP3    H127510   0.105   4.536   4.016
 9182TIP3    H227511   0.193   4.585   4.129
 9183TIP3   OH227512   3.860   5.897   2.988
 9183TIP3    H127513   3.898   5.831   3.044
 9183TIP3    H227514   3.901   5.883   2.902
 9184TIP3   OH227515   4.857   1.486   5.655
 9184TIP3    H127516   4.852   1.507   5.561
 9184TIP3    H227517   4.877   1.569   5.697
 9185TIP3   OH227518   3.760   1.454   0.453
 9185TIP3    H127519   3.712   1.400   0.516
 9185TIP3    H227520   3.850   1.421   0.457
 9186TIP3   OH227521   4.519   3.202   2.946
 9186TIP3    H127522   4.541   3.275   2.888
 9186TIP3    H227523   4.603   3.175   2.984
 9187TIP3   OH227524   3.882   3.241   4.452
 9187TIP3    H127525   3.889   3.199   4.537
 9187TIP3    H227526   3.937   3.187   4.394
 9188TIP3   OH227527   5.742   0.177   5.705
 9188TIP3    H127528   5.803   0.104   5.718
 9188TIP3    H227529   5.673   0.141   5.649
 9189TIP3   OH227530   6.154   4.675   2.293
 9189TIP3    H127531   6.238   4.700   2.330
 9189TIP3    H227532   6.114   4.757   2.266
 9190TIP3   OH227533   1.985   6.475   3.122
 9190TIP3    H127534   1.894   6.505   3.124
 9190TIP3    H227535   1.996   6.427   3.204
 9191TIP3   OH227536   6.325   0.284   1.636
 9191TIP3    H127537   6.286   0.343   1.572
 9191TIP3    H227538   6.251   0.234   1.671
 9192TIP3   OH227539   6.246   5.296   2.324
 9192TIP3    H127540   6.327   5.333   2.288
 9192TIP3    H227541   6.275   5.222   2.377
 9193TIP3   OH227542   3.432   3.644   2.970
 9193TIP3    H127543   3.359   3.635   3.031
 9193TIP3    H227544   3.476   3.725   2.997
 9194TIP3   OH227545   2.547   6.683   0.430
 9194TIP3    H127546   2.593   6.601   0.445
 9194TIP3    H227547   2.504   6.702   0.513
 9195TIP3   OH227548   2.904   6.377   3.136
 9195TIP3    H127549   2.954   6.302   3.167
 9195TIP3    H227550   2.825   6.378   3.191
 9196TIP3   OH227551   5.526   5.577   2.642
 9196TIP3    H127552   5.535   5.598   2.549
 9196TIP3    H227553   5.613   5.545   2.668
 9197TIP3   OH227554   3.242   2.734   4.963
 9197TIP3    H127555   3.183   2.768   5.030
 9197TIP3    H227556   3.254   2.806   4.902
 9198TIP3   OH227557   3.283   3.866   2.141
 9198TIP3    H127558   3.315   3.826   2.222
 9198TIP3    H227559   3.240   3.794   2.095
 9199TIP3   OH227560   6.691   4.537   2.606
 9199TIP3    H127561   6.766   4.540   2.665
 9199TIP3    H227562   6.719   4.588   2.530
 9200TIP3   OH227563   6.102   3.519   4.511
 9200TIP3    H127564   6.027   3.549   4.562
 9200TIP3    H227565   6.091   3.424   4.506
 9201TIP3   OH227566   6.245   3.511   0.488
 9201TIP3    H127567   6.289   3.442   0.537
 9201TIP3    H227568   6.181   3.548   0.549
 9202TIP3   OH227569   4.236   4.987   4.027
 9202TIP3    H127570   4.276   4.999   4.113
 9202TIP3    H227571   4.224   4.892   4.018
 9203TIP3   OH227572   5.430   3.521   2.619
 9203TIP3    H127573   5.416   3.450   2.681
 9203TIP3    H227574   5.345   3.567   2.615
 9204TIP3   OH227575   6.352   2.313   5.696
 9204TIP3    H127576   6.416   2.259   5.650
 9204TIP3    H227577   6.397   2.341   5.775
 9205TIP3   OH227578   5.977   0.029   2.846
 9205TIP3    H127579   5.886   0.055   2.829
 9205TIP3    H227580   6.018   0.032   2.760
 9206TIP3   OH227581   5.820   4.141   5.515
 9206TIP3    H127582   5.790   4.070   5.458
 9206TIP3    H227583   5.740   4.181   5.548
 9207TIP3   OH227584   3.318   4.664   3.892
 9207TIP3    H127585   3.250   4.609   3.932
 9207TIP3    H227586   3.395   4.607   3.887
 9208TIP3   OH227587   0.716   1.695   4.044
 9208TIP3    H127588   0.675   1.781   4.055
 9208TIP3    H227589   0.732   1.664   4.133
 9209TIP3   OH227590   0.233   1.620   4.481
 9209TIP3    H127591   0.281   1.637   4.400
 9209TIP3    H227592   0.297   1.634   4.551
 9210TIP3   OH227593   6.834   1.789   4.025
 9210TIP3    H127594   6.848   1.762   3.934
 9210TIP3    H227595   6.751   1.747   4.050
 9211TIP3   OH227596   2.807   0.247   2.846
 9211TIP3    H127597   2.825   0.153   2.840
 9211TIP3    H227598   2.776   0.259   2.936
 9212TIP3   OH227599   3.087   2.658   0.226
 9212TIP3    H127600   3.076   2.753   0.220
 9212TIP3    H227601   3.032   2.632   0.300
 9213TIP3   OH227602   1.051   0.636   3.783
 9213TIP3    H127603   1.118   0.577   3.817
 9213TIP3    H227604   0.970   0.585   3.788
 9214TIP3   OH227605   2.727   2.456   0.729
 9214TIP3    H127606   2.796   2.425   0.788
 9214TIP3    H227607   2.727   2.551   0.739
 9215TIP3   OH227608   4.456   1.471   2.494
 9215TIP3    H127609   4.449   1.495   2.587
 9215TIP3    H227610   4.401   1.394   2.485
 9216TIP3   OH227611   4.301   6.118   0.749
 9216TIP3    H127612   4.225   6.167   0.716
 9216TIP3    H227613   4.343   6.083   0.670
 9217TIP3   OH227614   6.911   0.699   3.553
 9217TIP3    H127615   6.929   0.606   3.570
 9217TIP3    H227616   6.928   0.742   3.637
 9218TIP3   OH227617   4.131   5.121   3.587
 9218TIP3    H127618   4.075   5.072   3.646
 9218TIP3    H227619   4.212   5.134   3.635
 9219TIP3   OH227620   4.179   4.093   4.064
 9219TIP3    H127621   4.214   4.130   3.982
 9219TIP3    H227622   4.084   4.094   4.052
 9220TIP3   OH227623   5.793   0.591   3.195
 9220TIP3    H127624   5.753   0.674   3.222
 9220TIP3    H227625   5.758   0.575   3.108
 9221TIP3   OH227626   4.029   1.249   1.922
 9221TIP3    H127627   3.981   1.184   1.974
 9221TIP3    H227628   4.008   1.332   1.964
 9222TIP3   OH227629   4.758   1.948   5.097
 9222TIP3    H127630   4.834   1.899   5.066
 9222TIP3    H227631   4.789   1.991   5.177
 9223TIP3   OH227632   3.930   5.059   2.326
 9223TIP3    H127633   3.937   5.134   2.267
 9223TIP3    H227634   3.914   4.985   2.268
 9224TIP3   OH227635   4.807   0.127   2.183
 9224TIP3    H127636   4.784   0.142   2.275
 9224TIP3    H227637   4.792   0.034   2.170
 9225TIP3   OH227638   6.886   0.565   4.552
 9225TIP3    H127639   6.879   0.472   4.529
 9225TIP3    H227640   6.798   0.600   4.535
 9226TIP3   OH227641   4.972   2.028   0.609
 9226TIP3    H127642   4.967   2.020   0.704
 9226TIP3    H227643   5.042   1.969   0.583
 9227TIP3   OH227644   0.330   0.212   3.069
 9227TIP3    H127645   0.329   0.182   3.160
 9227TIP3    H227646   0.372   0.298   3.072
 9228TIP3   OH227647   6.214   1.853   4.473
 9228TIP3    H127648   6.153   1.783   4.495
 9228TIP3    H227649   6.210   1.914   4.546
 9229TIP3   OH227650   1.702   3.838   1.338
 9229TIP3    H127651   1.737   3.856   1.251
 9229TIP3    H227652   1.607   3.845   1.328
 9230TIP3   OH227653   5.243   1.601   5.790
 9230TIP3    H127654   5.259   1.516   5.749
 9230TIP3    H227655   5.209   1.580   5.877
 9231TIP3   OH227656   1.480   6.652   0.403
 9231TIP3    H127657   1.430   6.708   0.343
 9231TIP3    H227658   1.565   6.641   0.360
 9232TIP3   OH227659   0.151   4.082   4.897
 9232TIP3    H127660   0.168   4.070   4.804
 9232TIP3    H227661   0.145   3.993   4.932
 9233TIP3   OH227662   0.303   3.980   3.277
 9233TIP3    H127663   0.355   3.973   3.198
 9233TIP3    H227664   0.354   3.935   3.344
 9234TIP3   OH227665   1.352   0.019   3.548
 9234TIP3    H127666   1.440  -0.012   3.567
 9234TIP3    H227667   1.344   0.101   3.596
 9235TIP3   OH227668   7.156   2.566   5.081
 9235TIP3    H127669   7.137   2.478   5.049
 9235TIP3    H227670   7.076   2.615   5.065
 9236TIP3   OH227671   3.177   0.726   0.629
 9236TIP3    H127672   3.084   0.741   0.646
 9236TIP3    H227673   3.186   0.631   0.630
 9237TIP3   OH227674   0.689   1.720   0.467
 9237TIP3    H127675   0.667   1.744   0.557
 9237TIP3    H227676   0.627   1.770   0.413
 9238TIP3   OH227677   1.022   1.873   0.305
 9238TIP3    H127678   1.003   1.965   0.322
 9238TIP3    H227679   0.971   1.851   0.227
 9239TIP3   OH227680   3.276   0.017   0.190
 9239TIP3    H127681   3.327   0.066   0.126
 9239TIP3    H227682   3.217  -0.037   0.138
 9240TIP3   OH227683   4.502   2.837   2.018
 9240TIP3    H127684   4.472   2.926   1.998
 9240TIP3    H227685   4.591   2.850   2.054
 9241TIP3   OH227686   4.325   1.801   2.474
 9241TIP3    H127687   4.238   1.807   2.433
 9241TIP3    H227688   4.371   1.880   2.443
 9242TIP3   OH227689   0.217   4.921   5.241
 9242TIP3    H127690   0.285   4.854   5.252
 9242TIP3    H227691   0.218   4.941   5.147
 9243TIP3   OH227692   4.387   2.642   2.498
 9243TIP3    H127693   4.345   2.719   2.459
 9243TIP3    H227694   4.476   2.643   2.462
 9244TIP3   OH227695   5.486   6.699   5.683
 9244TIP3    H127696   5.449   6.783   5.656
 9244TIP3    H227697   5.527   6.717   5.768
 9245TIP3   OH227698   1.018   1.499   0.186
 9245TIP3    H127699   1.021   1.508   0.091
 9245TIP3    H227700   0.931   1.531   0.211
 9246TIP3   OH227701   5.293   3.964   0.427
 9246TIP3    H127702   5.243   3.936   0.351
 9246TIP3    H227703   5.245   3.930   0.502
 9247TIP3   OH227704   0.751   1.262   3.930
 9247TIP3    H127705   0.761   1.176   3.888
 9247TIP3    H227706   0.699   1.313   3.868
 9248TIP3   OH227707   6.652   4.077   2.262
 9248TIP3    H127708   6.743   4.074   2.293
 9248TIP3    H227709   6.601   4.042   2.335
 9249TIP3   OH227710   1.821   4.917   5.151
 9249TIP3    H127711   1.843   4.880   5.065
 9249TIP3    H227712   1.900   4.904   5.203
 9250TIP3   OH227713   6.335   5.096   3.284
 9250TIP3    H127714   6.331   5.186   3.254
 9250TIP3    H227715   6.428   5.080   3.300
 9251TIP3   OH227716   3.080   1.093   4.027
 9251TIP3    H127717   3.082   1.038   3.949
 9251TIP3    H227718   3.138   1.167   4.005
 9252TIP3   OH227719   2.238   4.645   4.430
 9252TIP3    H127720   2.226   4.605   4.516
 9252TIP3    H227721   2.185   4.725   4.433
 9253TIP3   OH227722   1.431   3.579   3.534
 9253TIP3    H127723   1.367   3.510   3.550
 9253TIP3    H227724   1.508   3.533   3.499
 9254TIP3   OH227725   6.285   5.150   3.586
 9254TIP3    H127726   6.212   5.210   3.568
 9254TIP3    H227727   6.285   5.089   3.512
 9255TIP3   OH227728   1.957   6.747   3.279
 9255TIP3    H127729   1.916   6.784   3.202
 9255TIP3    H227730   1.957   6.652   3.263
 9256TIP3   OH227731   0.473   6.517   4.147
 9256TIP3    H127732   0.437   6.430   4.130
 9256TIP3    H227733   0.435   6.572   4.078
 9257TIP3   OH227734   0.082   2.094   2.148
 9257TIP3    H127735   0.108   2.122   2.236
 9257TIP3    H227736   0.135   2.147   2.089
 9258TIP3   OH227737   4.626   4.682   0.989
 9258TIP3    H127738   4.564   4.636   1.045
 9258TIP3    H227739   4.697   4.620   0.973
 9259TIP3   OH227740   0.495   4.333  -0.028
 9259TIP3    H127741   0.481   4.415   0.019
 9259TIP3    H227742   0.559   4.285   0.025
 9260TIP3   OH227743   4.171   3.475   1.806
 9260TIP3    H127744   4.174   3.559   1.852
 9260TIP3    H227745   4.081   3.443   1.819
 9261TIP3   OH227746   4.268   5.930   4.230
 9261TIP3    H127747   4.247   6.014   4.271
 9261TIP3    H227748   4.344   5.949   4.175
 9262TIP3   OH227749   3.830   0.838   1.638
 9262TIP3    H127750   3.784   0.809   1.560
 9262TIP3    H227751   3.922   0.818   1.621
 9263TIP3   OH227752   2.101   5.354   0.379
 9263TIP3    H127753   2.023   5.410   0.379
 9263TIP3    H227754   2.162   5.400   0.437
 9264TIP3   OH227755   1.127   3.267   1.144
 9264TIP3    H127756   1.049   3.257   1.199
 9264TIP3    H227757   1.110   3.346   1.093
 9265TIP3   OH227758   3.330   6.604   3.618
 9265TIP3    H127759   3.333   6.604   3.714
 9265TIP3    H227760   3.352   6.693   3.593
 9266TIP3   OH227761   3.534   4.361   5.696
 9266TIP3    H127762   3.456   4.416   5.692
 9266TIP3    H227763   3.539   4.321   5.609
 9267TIP3   OH227764   7.005   2.432   0.641
 9267TIP3    H127765   7.093   2.411   0.672
 9267TIP3    H227766   6.956   2.350   0.651
 9268TIP3   OH227767   6.883   6.697   3.539
 9268TIP3    H127768   6.817   6.756   3.576
 9268TIP3    H227769   6.835   6.617   3.517
 9269TIP3   OH227770   6.199   3.384   3.509
 9269TIP3    H127771   6.167   3.449   3.446
 9269TIP3    H227772   6.295   3.388   3.500
 9270TIP3   OH227773   3.152   1.120   5.074
 9270TIP3    H127774   3.196   1.191   5.027
 9270TIP3    H227775   3.219   1.053   5.084
 9271TIP3   OH227776   0.407   3.497   2.835
 9271TIP3    H127777   0.428   3.423   2.893
 9271TIP3    H227778   0.404   3.459   2.747
 9272TIP3   OH227779   6.461   1.058   1.511
 9272TIP3    H127780   6.457   1.144   1.553
 9272TIP3    H227781   6.508   1.003   1.574
 9273TIP3   OH227782   2.192   4.159   3.136
 9273TIP3    H127783   2.205   4.064   3.137
 9273TIP3    H227784   2.151   4.179   3.220
 9274TIP3   OH227785   2.389   6.230   5.605
 9274TIP3    H127786   2.360   6.246   5.515
 9274TIP3    H227787   2.317   6.264   5.659
 9275TIP3   OH227788   3.301   2.139   5.756
 9275TIP3    H127789   3.294   2.111   5.847
 9275TIP3    H227790   3.371   2.085   5.719
 9276TIP3   OH227791   2.787   6.516   1.859
 9276TIP3    H127792   2.715   6.579   1.850
 9276TIP3    H227793   2.854   6.564   1.906
 9277TIP3   OH227794   5.412   0.859   5.010
 9277TIP3    H127795   5.440   0.948   5.031
 9277TIP3    H227796   5.489   0.819   4.968
 9278TIP3   OH227797   6.030   3.081   3.309
 9278TIP3    H127798   6.073   3.092   3.225
 9278TIP3    H227799   5.971   3.157   3.316
 9279TIP3   OH227800   0.314   5.124   2.818
 9279TIP3    H127801   0.255   5.064   2.771
 9279TIP3    H227802   0.381   5.066   2.854
 9280TIP3   OH227803   0.574   3.967   4.978
 9280TIP3    H127804   0.543   4.053   4.950
 9280TIP3    H227805   0.511   3.906   4.940
 9281TIP3   OH227806   3.420   3.915   3.069
 9281TIP3    H127807   3.351   3.953   3.015
 9281TIP3    H227808   3.383   3.911   3.157
 9282TIP3   OH227809   3.851   3.611   1.703
 9282TIP3    H127810   3.756   3.625   1.702
 9282TIP3    H227811   3.863   3.518   1.684
 9283TIP3   OH227812   1.650   5.602   1.330
 9283TIP3    H127813   1.722   5.539   1.322
 9283TIP3    H227814   1.571   5.549   1.324
 9284TIP3   OH227815   5.890   5.120   2.598
 9284TIP3    H127816   5.953   5.050   2.584
 9284TIP3    H227817   5.894   5.172   2.518
 9285TIP3   OH227818   0.902   6.400   2.830
 9285TIP3    H127819   0.905   6.307   2.852
 9285TIP3    H227820   0.961   6.409   2.755
 9286TIP3   OH227821   5.407   0.089   2.203
 9286TIP3    H127822   5.451   0.150   2.263
 9286TIP3    H227823   5.476   0.030   2.173
 9287TIP3   OH227824   5.743   4.288   3.506
 9287TIP3    H127825   5.760   4.337   3.586
 9287TIP3    H227826   5.818   4.228   3.497
 9288TIP3   OH227827   6.964   3.989   2.159
 9288TIP3    H127828   6.966   3.912   2.215
 9288TIP3    H227829   7.020   3.966   2.084
 9289TIP3   OH227830   3.606   1.860   2.962
 9289TIP3    H127831   3.555   1.852   3.043
 9289TIP3    H227832   3.540   1.857   2.893
 9290TIP3   OH227833   1.819   5.544   2.892
 9290TIP3    H127834   1.748   5.497   2.935
 9290TIP3    H227835   1.899   5.511   2.934
 9291TIP3   OH227836   2.823   1.569   5.139
 9291TIP3    H127837   2.889   1.566   5.208
 9291TIP3    H227838   2.859   1.513   5.069
 9292TIP3   OH227839   5.454   1.804   1.971
 9292TIP3    H127840   5.497   1.726   1.935
 9292TIP3    H227841   5.443   1.784   2.064
 9293TIP3   OH227842   5.606   2.921   0.653
 9293TIP3    H127843   5.628   2.995   0.597
 9293TIP3    H227844   5.560   2.959   0.728
 9294TIP3   OH227845   2.096   4.238   0.609
 9294TIP3    H127846   2.175   4.184   0.599
 9294TIP3    H227847   2.072   4.260   0.519
 9295TIP3   OH227848   6.497   5.949   4.531
 9295TIP3    H127849   6.501   5.960   4.436
 9295TIP3    H227850   6.580   5.908   4.554
 9296TIP3   OH227851   0.255   6.794   5.170
 9296TIP3    H127852   0.268   6.846   5.090
 9296TIP3    H227853   0.338   6.747   5.181
 9297TIP3   OH227854   1.655   3.437   3.464
 9297TIP3    H127855   1.677   3.358   3.415
 9297TIP3    H227856   1.725   3.445   3.530
 9298TIP3   OH227857   1.096   2.870   4.981
 9298TIP3    H127858   1.040   2.940   5.013
 9298TIP3    H227859   1.166   2.863   5.045
 9299TIP3   OH227860   4.123   4.835   2.872
 9299TIP3    H127861   4.072   4.807   2.797
 9299TIP3    H227862   4.058   4.856   2.939
 9300TIP3   OH227863   2.150   3.293   0.144
 9300TIP3    H127864   2.107   3.213   0.173
 9300TIP3    H227865   2.078   3.354   0.126
 9301TIP3   OH227866   1.288   0.955   2.484
 9301TIP3    H127867   1.365   1.004   2.455
 9301TIP3    H227868   1.215   0.998   2.439
 9302TIP3   OH227869   4.320   6.029   2.481
 9302TIP3    H127870   4.311   5.946   2.434
 9302TIP3    H227871   4.230   6.058   2.495
 9303TIP3   OH227872   1.333   4.774   4.501
 9303TIP3    H127873   1.278   4.749   4.426
 9303TIP3    H227874   1.421   4.778   4.465
 9304TIP3   OH227875   0.185   3.551   0.646
 9304TIP3    H127876   0.143   3.624   0.691
 9304TIP3    H227877   0.137   3.473   0.676
 9305TIP3   OH227878   2.676   0.087   4.273
 9305TIP3    H127879   2.715   0.155   4.328
 9305TIP3    H227880   2.750   0.046   4.229
 9306TIP3   OH227881   4.004   4.205   4.458
 9306TIP3    H127882   3.955   4.269   4.405
 9306TIP3    H227883   3.994   4.236   4.548
 9307TIP3   OH227884   3.540   4.882   5.032
 9307TIP3    H127885   3.553   4.789   5.012
 9307TIP3    H227886   3.541   4.926   4.947
 9308TIP3   OH227887   4.769   2.189   3.139
 9308TIP3    H127888   4.783   2.251   3.211
 9308TIP3    H227889   4.722   2.116   3.180
 9309TIP3   OH227890   6.715   0.586   3.111
 9309TIP3    H127891   6.709   0.623   3.199
 9309TIP3    H227892   6.809   0.590   3.090
 9310TIP3   OH227893   0.896   4.077   1.216
 9310TIP3    H127894   0.839   4.019   1.267
 9310TIP3    H227895   0.955   4.115   1.282
 9311TIP3   OH227896   3.843   6.065   1.681
 9311TIP3    H127897   3.784   5.993   1.704
 9311TIP3    H227898   3.931   6.027   1.689
 9312TIP3   OH227899   0.177   5.009   0.916
 9312TIP3    H127900   0.190   5.101   0.936
 9312TIP3    H227901   0.241   4.963   0.970
 9313TIP3   OH227902   6.341   0.444   4.641
 9313TIP3    H127903   6.274   0.380   4.664
 9313TIP3    H227904   6.297   0.528   4.646
 9314TIP3   OH227905   2.473   6.022   3.931
 9314TIP3    H127906   2.536   6.071   3.983
 9314TIP3    H227907   2.402   6.085   3.913
 9315TIP3   OH227908   6.107   4.255   5.302
 9315TIP3    H127909   6.089   4.279   5.211
 9315TIP3    H227910   6.202   4.269   5.312
 9316TIP3   OH227911   5.147   0.085   2.115
 9316TIP3    H127912   5.142   0.176   2.085
 9316TIP3    H227913   5.240   0.072   2.136
 9317TIP3   OH227914   6.729   5.194   1.625
 9317TIP3    H127915   6.758   5.279   1.657
 9317TIP3    H227916   6.678   5.214   1.546
 9318TIP3   OH227917   2.985   5.300   1.428
 9318TIP3    H127918   2.950   5.267   1.345
 9318TIP3    H227919   3.007   5.221   1.478
 9319TIP3   OH227920   0.905   2.638   4.505
 9319TIP3    H127921   0.960   2.669   4.577
 9319TIP3    H227922   0.900   2.713   4.445
 9320TIP3   OH227923   2.526   0.955   3.617
 9320TIP3    H127924   2.621   0.954   3.620
 9320TIP3    H227925   2.500   1.010   3.691
 9321TIP3   OH227926   1.158   5.851   1.004
 9321TIP3    H127927   1.082   5.893   1.044
 9321TIP3    H227928   1.186   5.785   1.068
 9322TIP3   OH227929   3.279   5.004   2.578
 9322TIP3    H127930   3.207   4.942   2.592
 9322TIP3    H227931   3.357   4.957   2.608
 9323TIP3   OH227932   3.355   5.651   0.620
 9323TIP3    H127933   3.272   5.603   0.629
 9323TIP3    H227934   3.417   5.585   0.589
 9324TIP3   OH227935   5.154   4.484   4.833
 9324TIP3    H127936   5.078   4.426   4.835
 9324TIP3    H227937   5.221   4.436   4.784
 9325TIP3   OH227938   4.856   1.003   0.477
 9325TIP3    H127939   4.827   1.038   0.562
 9325TIP3    H227940   4.799   1.046   0.413
 9326TIP3   OH227941   4.537   4.008   5.712
 9326TIP3    H127942   4.461   4.010   5.654
 9326TIP3    H227943   4.504   3.970   5.794
 9327TIP3   OH227944   0.811   0.552   2.540
 9327TIP3    H127945   0.881   0.539   2.605
 9327TIP3    H227946   0.801   0.466   2.499
 9328TIP3   OH227947   2.451   5.067   3.209
 9328TIP3    H127948   2.378   5.128   3.204
 9328TIP3    H227949   2.503   5.086   3.131
 9329TIP3   OH227950   3.295   0.298   3.784
 9329TIP3    H127951   3.378   0.313   3.830
 9329TIP3    H227952   3.234   0.273   3.853
 9330TIP3   OH227953   3.134   6.201   1.297
 9330TIP3    H127954   3.196   6.158   1.355
 9330TIP3    H227955   3.189   6.245   1.232
 9331TIP3   OH227956   4.953   6.125   2.005
 9331TIP3    H127957   4.992   6.071   1.936
 9331TIP3    H227958   4.898   6.065   2.055
 9332TIP3   OH227959   0.385   3.778   4.170
 9332TIP3    H127960   0.343   3.845   4.224
 9332TIP3    H227961   0.479   3.797   4.177
 9333TIP3   OH227962   0.078   6.575   3.465
 9333TIP3    H127963   0.102   6.641   3.399
 9333TIP3    H227964   0.041   6.626   3.537
 9334TIP3   OH227965   0.477   3.989   0.032
 9334TIP3    H127966   0.531   4.064   0.057
 9334TIP3    H227967   0.456   3.946   0.115
 9335TIP3   OH227968   0.927   4.175   4.438
 9335TIP3    H127969   0.914   4.102   4.498
 9335TIP3    H227970   0.970   4.136   4.362
 9336TIP3   OH227971   6.165   0.691   5.806
 9336TIP3    H127972   6.213   0.608   5.808
 9336TIP3    H227973   6.225   0.753   5.766
 9337TIP3   OH227974   1.441   3.552   5.354
 9337TIP3    H127975   1.451   3.478   5.294
 9337TIP3    H227976   1.347   3.554   5.374
 9338TIP3   OH227977   0.266   0.100   2.060
 9338TIP3    H127978   0.220   0.054   2.130
 9338TIP3    H227979   0.359   0.087   2.080
 9339TIP3   OH227980   4.959   5.024   5.518
 9339TIP3    H127981   5.021   5.032   5.445
 9339TIP3    H227982   4.901   4.953   5.492
 9340TIP3   OH227983   2.371   3.213  -0.007
 9340TIP3    H127984   2.280   3.233   0.013
 9340TIP3    H227985   2.412   3.201   0.078
 9341TIP3   OH227986   0.693   6.098   2.797
 9341TIP3    H127987   0.718   6.135   2.712
 9341TIP3    H227988   0.760   6.130   2.858
 9342TIP3   OH227989   3.844   6.845   3.023
 9342TIP3    H127990   3.818   6.888   3.104
 9342TIP3    H227991   3.762   6.812   2.986
 9343TIP3   OH227992   5.836   2.203   3.275
 9343TIP3    H127993   5.822   2.141   3.204
 9343TIP3    H227994   5.922   2.182   3.309
 9344TIP3   OH227995   1.354   1.034   3.292
 9344TIP3    H127996   1.448   1.027   3.308
 9344TIP3    H227997   1.327   0.946   3.267
 9345TIP3   OH227998   6.362   4.290   3.312
 9345TIP3    H127999   6.412   4.368   3.287
 9345TIP3    H228000   6.408   4.218   3.269
 9346TIP3   OH228001   3.500   2.340   0.859
 9346TIP3    H128002   3.542   2.339   0.944
 9346TIP3    H228003   3.415   2.382   0.874
 9347TIP3   OH228004   4.177   1.499   1.296
 9347TIP3    H128005   4.205   1.506   1.387
 9347TIP3    H228006   4.203   1.411   1.269
 9348TIP3   OH228007   1.898   5.614   5.537
 9348TIP3    H128008   1.844   5.615   5.616
 9348TIP3    H228009   1.854   5.674   5.477
 9349TIP3   OH228010   0.860   4.386   2.490
 9349TIP3    H128011   0.806   4.444   2.437
 9349TIP3    H228012   0.871   4.307   2.437
 9350TIP3   OH228013   1.157   1.030   2.968
 9350TIP3    H128014   1.213   1.044   2.891
 9350TIP3    H228015   1.112   1.114   2.980
 9351TIP3   OH228016   1.589   2.083   5.002
 9351TIP3    H128017   1.565   2.088   5.095
 9351TIP3    H228018   1.597   1.990   4.985
 9352TIP3   OH228019   6.293   6.085   3.081
 9352TIP3    H128020   6.338   6.033   3.147
 9352TIP3    H228021   6.282   6.026   3.007
 9353TIP3   OH228022   4.304   2.571   5.821
 9353TIP3    H128023   4.342   2.493   5.780
 9353TIP3    H228024   4.361   2.643   5.792
 9354TIP3   OH228025   6.560   6.126   0.524
 9354TIP3    H128026   6.591   6.042   0.560
 9354TIP3    H228027   6.640   6.170   0.496
 9355TIP3   OH228028   1.909   5.653   2.654
 9355TIP3    H128029   1.875   5.592   2.720
 9355TIP3    H228030   1.990   5.612   2.624
 9356TIP3   OH228031   4.455   6.058   4.456
 9356TIP3    H128032   4.461   6.095   4.544
 9356TIP3    H228033   4.530   5.999   4.450
 9357TIP3   OH228034   6.682   5.482   5.138
 9357TIP3    H128035   6.655   5.559   5.189
 9357TIP3    H228036   6.742   5.435   5.197
 9358TIP3   OH228037   1.654   1.220   5.699
 9358TIP3    H128038   1.621   1.186   5.782
 9358TIP3    H228039   1.612   1.166   5.633
 9359TIP3   OH228040   6.368   4.191   5.304
 9359TIP3    H128041   6.415   4.252   5.246
 9359TIP3    H228042   6.437   4.151   5.356
 9360TIP3   OH228043   1.009   1.863   4.162
 9360TIP3    H128044   1.044   1.794   4.106
 9360TIP3    H228045   0.981   1.931   4.101
 9361TIP3   OH228046   3.000   0.541   1.382
 9361TIP3    H128047   2.972   0.630   1.361
 9361TIP3    H228048   2.968   0.488   1.308
 9362TIP3   OH228049   5.285   4.558   0.817
 9362TIP3    H128050   5.208   4.532   0.766
 9362TIP3    H228051   5.265   4.531   0.906
 9363TIP3   OH228052   6.716   0.604   2.493
 9363TIP3    H128053   6.677   0.628   2.577
 9363TIP3    H228054   6.809   0.597   2.511
 9364TIP3   OH228055   6.996   6.365   0.211
 9364TIP3    H128056   6.956   6.278   0.219
 9364TIP3    H228057   7.089   6.350   0.223
 9365TIP3   OH228058   0.245   5.001   3.979
 9365TIP3    H128059   0.341   4.999   3.987
 9365TIP3    H228060   0.225   4.938   3.910
 9366TIP3   OH228061   1.293   5.825   1.474
 9366TIP3    H128062   1.199   5.826   1.494
 9366TIP3    H228063   1.298   5.864   1.386
 9367TIP3   OH228064   5.326   2.659   4.324
 9367TIP3    H128065   5.277   2.584   4.356
 9367TIP3    H228066   5.417   2.639   4.344
 9368TIP3   OH228067   2.776   6.465   2.904
 9368TIP3    H128068   2.721   6.390   2.882
 9368TIP3    H228069   2.827   6.436   2.980
 9369TIP3   OH228070   0.396   0.242   1.271
 9369TIP3    H128071   0.485   0.277   1.268
 9369TIP3    H228072   0.364   0.268   1.358
 9370TIP3   OH228073   0.352   0.351   2.347
 9370TIP3    H128074   0.389   0.273   2.389
 9370TIP3    H228075   0.407   0.423   2.379
 9371TIP3   OH228076   0.815   1.608   3.277
 9371TIP3    H128077   0.909   1.609   3.257
 9371TIP3    H228078   0.772   1.614   3.191
 9372TIP3   OH228079   5.407   5.940   0.634
 9372TIP3    H128080   5.441   5.895   0.712
 9372TIP3    H228081   5.483   5.985   0.598
 9373TIP3   OH228082   7.133   5.721   0.824
 9373TIP3    H128083   7.067   5.775   0.869
 9373TIP3    H228084   7.108   5.631   0.843
 9374TIP3   OH228085   5.515   5.991   2.898
 9374TIP3    H128086   5.568   6.047   2.840
 9374TIP3    H228087   5.510   6.041   2.980
 9375TIP3   OH228088   4.823   1.596   1.147
 9375TIP3    H128089   4.865   1.604   1.233
 9375TIP3    H228090   4.732   1.619   1.163
 9376TIP3   OH228091   0.247   4.107   5.786
 9376TIP3    H128092   0.339   4.112   5.759
 9376TIP3    H228093   0.246   4.141   5.875
 9377TIP3   OH228094   6.703   5.714   5.274
 9377TIP3    H128095   6.789   5.740   5.306
 9377TIP3    H228096   6.642   5.770   5.322
 9378TIP3   OH228097   1.744   0.089   1.264
 9378TIP3    H128098   1.716   0.000   1.288
 9378TIP3    H228099   1.682   0.116   1.196
 9379TIP3   OH228100   3.120   0.988   3.777
 9379TIP3    H128101   3.137   1.037   3.697
 9379TIP3    H228102   3.036   0.944   3.760
 9380TIP3   OH228103   2.158   6.721   5.143
 9380TIP3    H128104   2.160   6.795   5.205
 9380TIP3    H228105   2.150   6.761   5.057
 9381TIP3   OH228106   1.174   3.455   5.019
 9381TIP3    H128107   1.243   3.517   4.994
 9381TIP3    H228108   1.143   3.420   4.935
 9382TIP3   OH228109   3.429   2.077   2.833
 9382TIP3    H128110   3.456   2.166   2.814
 9382TIP3    H228111   3.509   2.025   2.825
 9383TIP3   OH228112   4.264   2.275   3.122
 9383TIP3    H128113   4.333   2.336   3.096
 9383TIP3    H228114   4.310   2.192   3.137
 9384TIP3   OH228115   3.257   6.432   4.161
 9384TIP3    H128116   3.266   6.471   4.075
 9384TIP3    H228117   3.299   6.494   4.221
 9385TIP3   OH228118   4.262   4.409   4.244
 9385TIP3    H128119   4.292   4.319   4.255
 9385TIP3    H228120   4.342   4.459   4.227
 9386TIP3   OH228121   0.396   1.906   4.483
 9386TIP3    H128122   0.446   1.985   4.461
 9386TIP3    H228123   0.306   1.936   4.495
 9387TIP3   OH228124   0.196   0.953   2.288
 9387TIP3    H128125   0.287   0.967   2.264
 9387TIP3    H228126   0.166   1.039   2.319
 9388TIP3   OH228127   3.811   2.224   5.375
 9388TIP3    H128128   3.733   2.245   5.426
 9388TIP3    H228129   3.803   2.277   5.296
 9389TIP3   OH228130   3.155   3.152   3.857
 9389TIP3    H128131   3.218   3.220   3.832
 9389TIP3    H228132   3.190   3.072   3.819
 9390TIP3   OH228133   5.434   1.296   2.798
 9390TIP3    H128134   5.500   1.234   2.769
 9390TIP3    H228135   5.412   1.268   2.887
 9391TIP3   OH228136   4.744   3.487   2.342
 9391TIP3    H128137   4.659   3.458   2.306
 9391TIP3    H228138   4.796   3.407   2.346
 9392TIP3   OH228139   0.181   4.137   3.791
 9392TIP3    H128140   0.119   4.098   3.729
 9392TIP3    H228141   0.209   4.063   3.845
 9393TIP3   OH228142   6.676   4.063   0.833
 9393TIP3    H128143   6.725   4.011   0.769
 9393TIP3    H228144   6.719   4.148   0.833
 9394TIP3   OH228145   1.926   2.550   3.178
 9394TIP3    H128146   1.973   2.608   3.119
 9394TIP3    H228147   1.991   2.520   3.241
 9395TIP3   OH228148   4.321   0.628   4.182
 9395TIP3    H128149   4.368   0.571   4.244
 9395TIP3    H228150   4.236   0.587   4.172
 9396TIP3   OH228151   6.752   3.896   2.926
 9396TIP3    H128152   6.830   3.951   2.933
 9396TIP3    H228153   6.781   3.818   2.880
 9397TIP3   OH228154   4.634   6.011   3.695
 9397TIP3    H128155   4.718   6.056   3.697
 9397TIP3    H228156   4.650   5.927   3.737
 9398TIP3   OH228157   4.960   0.791   5.313
 9398TIP3    H128158   4.924   0.843   5.384
 9398TIP3    H228159   5.024   0.733   5.355
 9399TIP3   OH228160   6.856   5.807   3.546
 9399TIP3    H128161   6.916   5.818   3.473
 9399TIP3    H228162   6.831   5.714   3.543
 9400TIP3   OH228163   4.884   3.561   3.457
 9400TIP3    H128164   4.911   3.577   3.548
 9400TIP3    H228165   4.804   3.510   3.464
 9401TIP3   OH228166   5.843   1.720   0.772
 9401TIP3    H128167   5.822   1.813   0.776
 9401TIP3    H228168   5.909   1.713   0.703
 9402TIP3   OH228169   3.684   1.889   4.343
 9402TIP3    H128170   3.777   1.907   4.330
 9402TIP3    H228171   3.674   1.797   4.317
 9403TIP3   OH228172   4.954   1.063   2.077
 9403TIP3    H128173   5.024   1.019   2.029
 9403TIP3    H228174   4.988   1.073   2.166
 9404TIP3   OH228175   0.264   5.385   2.885
 9404TIP3    H128176   0.306   5.299   2.879
 9404TIP3    H228177   0.304   5.426   2.962
 9405TIP3   OH228178   5.127   2.376   2.099
 9405TIP3    H128179   5.038   2.391   2.067
 9405TIP3    H228180   5.183   2.394   2.024
 9406TIP3   OH228181   3.645   1.347   3.038
 9406TIP3    H128182   3.630   1.386   3.124
 9406TIP3    H228183   3.668   1.256   3.056
 9407TIP3   OH228184   1.305   6.350   5.680
 9407TIP3    H128185   1.242   6.286   5.714
 9407TIP3    H228186   1.337   6.311   5.599
 9408TIP3   OH228187   5.969   2.408   0.113
 9408TIP3    H128188   5.909   2.334   0.120
 9408TIP3    H228189   5.989   2.414   0.019
 9409TIP3   OH228190   2.038   0.691   2.089
 9409TIP3    H128191   1.980   0.705   2.014
 9409TIP3    H228192   1.982   0.651   2.155
 9410TIP3   OH228193   2.014   5.892   3.548
 9410TIP3    H128194   2.032   5.845   3.466
 9410TIP3    H228195   2.028   5.827   3.616
 9411TIP3   OH228196   5.112   1.262   0.991
 9411TIP3    H128197   5.156   1.248   1.075
 9411TIP3    H228198   5.122   1.180   0.945
 9412TIP3   OH228199   0.727   3.132   4.975
 9412TIP3    H128200   0.744   3.088   4.892
 9412TIP3    H228201   0.798   3.102   5.032
 9413TIP3   OH228202   0.828   2.813   3.569
 9413TIP3    H128203   0.842   2.906   3.586
 9413TIP3    H228204   0.752   2.790   3.623
 9414TIP3   OH228205   5.363   3.748   1.194
 9414TIP3    H128206   5.416   3.756   1.273
 9414TIP3    H228207   5.277   3.721   1.224
 9415TIP3   OH228208   5.627   0.753   1.886
 9415TIP3    H128209   5.715   0.727   1.858
 9415TIP3    H228210   5.641   0.794   1.972
 9416TIP3   OH228211   2.470   0.766   1.774
 9416TIP3    H128212   2.485   0.680   1.813
 9416TIP3    H228213   2.508   0.828   1.836
 9417TIP3   OH228214   0.948   6.144   2.893
 9417TIP3    H128215   0.993   6.129   2.977
 9417TIP3    H228216   0.991   6.083   2.832
 9418TIP3   OH228217   1.656   3.624   4.884
 9418TIP3    H128218   1.703   3.541   4.878
 9418TIP3    H228219   1.688   3.675   4.809
 9419TIP3   OH228220   3.261   4.722   2.794
 9419TIP3    H128221   3.241   4.732   2.887
 9419TIP3    H228222   3.210   4.646   2.766
 9420TIP3   OH228223   2.135   3.179   3.193
 9420TIP3    H128224   2.158   3.176   3.286
 9420TIP3    H228225   2.168   3.096   3.158
 9421TIP3   OH228226   0.708   0.567   3.198
 9421TIP3    H128227   0.688   0.590   3.107
 9421TIP3    H228228   0.623   0.568   3.242
 9422TIP3   OH228229   3.250   1.896   4.906
 9422TIP3    H128230   3.242   1.990   4.895
 9422TIP3    H228231   3.184   1.859   4.848
 9423TIP3   OH228232   2.627   4.280   0.777
 9423TIP3    H128233   2.596   4.365   0.745
 9423TIP3    H228234   2.716   4.298   0.810
 9424TIP3   OH228235   4.188   4.865   1.137
 9424TIP3    H128236   4.219   4.789   1.187
 9424TIP3    H228237   4.100   4.840   1.108
 9425TIP3   OH228238   7.168   2.146   5.636
 9425TIP3    H128239   7.173   2.051   5.650
 9425TIP3    H228240   7.138   2.181   5.720
 9426TIP3   OH228241   1.315   2.887   0.257
 9426TIP3    H128242   1.372   2.956   0.291
 9426TIP3    H228243   1.372   2.811   0.251
 9427TIP3   OH228244   6.568   6.470   2.988
 9427TIP3    H128245   6.584   6.544   3.047
 9427TIP3    H228246   6.481   6.487   2.952
 9428TIP3   OH228247   4.051   6.342   0.055
 9428TIP3    H128248   3.991   6.380  -0.009
 9428TIP3    H228249   4.002   6.271   0.095
 9429TIP3   OH228250   0.049   3.939   2.844
 9429TIP3    H128251   0.043   4.003   2.916
 9429TIP3    H228252   0.120   3.880   2.871
 9430TIP3   OH228253   6.297   0.731   3.390
 9430TIP3    H128254   6.260   0.733   3.302
 9430TIP3    H228255   6.300   0.822   3.417
 9431TIP3   OH228256   6.254   5.533   4.139
 9431TIP3    H128257   6.314   5.462   4.118
 9431TIP3    H228258   6.307   5.597   4.187
 9432TIP3   OH228259   4.602   3.359   2.688
 9432TIP3    H128260   4.623   3.452   2.679
 9432TIP3    H228261   4.543   3.341   2.615
 9433TIP3   OH228262   1.119   6.550   5.771
 9433TIP3    H128263   1.089   6.626   5.721
 9433TIP3    H228264   1.184   6.508   5.714
 9434TIP3   OH228265   6.441   4.078   3.153
 9434TIP3    H128266   6.431   3.983   3.154
 9434TIP3    H228267   6.391   4.107   3.077
 9435TIP3   OH228268   1.063   1.497   4.728
 9435TIP3    H128269   1.051   1.407   4.698
 9435TIP3    H228270   1.151   1.498   4.765
 9436TIP3   OH228271   4.775   3.050   0.245
 9436TIP3    H128272   4.751   3.095   0.326
 9436TIP3    H228273   4.772   2.957   0.267
 9437TIP3   OH228274   3.445   4.603   3.502
 9437TIP3    H128275   3.491   4.522   3.483
 9437TIP3    H228276   3.354   4.576   3.519
 9438TIP3   OH228277   3.629   3.385   1.287
 9438TIP3    H128278   3.642   3.460   1.229
 9438TIP3    H228279   3.539   3.356   1.269
 9439TIP3   OH228280   6.751   2.021   2.344
 9439TIP3    H128281   6.720   2.054   2.428
 9439TIP3    H228282   6.725   2.088   2.281
 9440TIP3   OH228283   4.183   1.993   4.366
 9440TIP3    H128284   4.130   1.930   4.416
 9440TIP3    H228285   4.243   1.939   4.315
 9441TIP3   OH228286   5.051   3.549   2.103
 9441TIP3    H128287   5.077   3.463   2.069
 9441TIP3    H228288   5.043   3.536   2.198
 9442TIP3   OH228289   3.356   4.882   5.441
 9442TIP3    H128290   3.359   4.911   5.532
 9442TIP3    H228291   3.429   4.820   5.433
 9443TIP3   OH228292   3.211   5.993   1.774
 9443TIP3    H128293   3.151   6.059   1.809
 9443TIP3    H228294   3.298   6.029   1.791
 9444TIP3   OH228295   4.119   4.229   4.967
 9444TIP3    H128296   4.115   4.200   5.058
 9444TIP3    H228297   4.175   4.165   4.924
 9445TIP3   OH228298   0.708   3.668   4.837
 9445TIP3    H128299   0.669   3.649   4.752
 9445TIP3    H228300   0.793   3.624   4.836
 9446TIP3   OH228301   6.667   1.445   2.801
 9446TIP3    H128302   6.621   1.503   2.861
 9446TIP3    H228303   6.719   1.504   2.746
 9447TIP3   OH228304   6.748   5.366   3.230
 9447TIP3    H128305   6.703   5.399   3.153
 9447TIP3    H228306   6.840   5.387   3.215
 9448TIP3   OH228307   6.136   1.797   4.153
 9448TIP3    H128308   6.110   1.786   4.244
 9448TIP3    H228309   6.110   1.714   4.111
 9449TIP3   OH228310   5.393   1.553   4.883
 9449TIP3    H128311   5.442   1.519   4.809
 9449TIP3    H228312   5.411   1.648   4.882
 9450TIP3   OH228313   3.542   3.744   0.802
 9450TIP3    H128314   3.630   3.728   0.767
 9450TIP3    H228315   3.484   3.732   0.727
 9451TIP3   OH228316   6.878   6.623   2.727
 9451TIP3    H128317   6.889   6.653   2.636
 9451TIP3    H228318   6.795   6.660   2.755
 9452TIP3   OH228319   5.326   4.008   4.228
 9452TIP3    H128320   5.337   4.071   4.156
 9452TIP3    H228321   5.262   4.049   4.286
 9453TIP3   OH228322   5.380   3.378   2.215
 9453TIP3    H128323   5.387   3.471   2.234
 9453TIP3    H228324   5.471   3.348   2.211
 9454TIP3   OH228325   1.448   4.027   3.322
 9454TIP3    H128326   1.454   3.976   3.241
 9454TIP3    H228327   1.474   3.966   3.391
 9455TIP3   OH228328   5.841   1.521   4.939
 9455TIP3    H128329   5.852   1.552   4.849
 9455TIP3    H228330   5.768   1.459   4.934
 9456TIP3   OH228331   0.857   0.307   4.273
 9456TIP3    H128332   0.775   0.298   4.321
 9456TIP3    H228333   0.925   0.297   4.339
 9457TIP3   OH228334   1.250   3.133   4.324
 9457TIP3    H128335   1.193   3.069   4.366
 9457TIP3    H228336   1.270   3.095   4.238
 9458TIP3   OH228337   1.443   4.267   4.736
 9458TIP3    H128338   1.496   4.346   4.749
 9458TIP3    H228339   1.461   4.214   4.814
 9459TIP3   OH228340   5.322   4.651   3.068
 9459TIP3    H128341   5.348   4.607   2.987
 9459TIP3    H228342   5.234   4.620   3.085
 9460TIP3   OH228343   3.948   3.948   4.327
 9460TIP3    H128344   3.958   4.013   4.396
 9460TIP3    H228345   3.870   3.898   4.352
 9461TIP3   OH228346   1.079   1.642   1.162
 9461TIP3    H128347   1.144   1.647   1.092
 9461TIP3    H228348   1.022   1.569   1.137
 9462TIP3   OH228349   2.366   3.447   0.571
 9462TIP3    H128350   2.305   3.404   0.511
 9462TIP3    H228351   2.356   3.400   0.654
 9463TIP3   OH228352   0.005   3.123   4.599
 9463TIP3    H128353   0.051   3.122   4.516
 9463TIP3    H228354   0.005   3.032   4.628
 9464TIP3   OH228355   2.688   1.163   5.406
 9464TIP3    H128356   2.780   1.175   5.428
 9464TIP3    H228357   2.689   1.112   5.325
 9465TIP3   OH228358   0.119   2.071   1.569
 9465TIP3    H128359   0.113   2.118   1.486
 9465TIP3    H228360   0.173   2.128   1.624
 9466TIP3   OH228361   0.944   4.501   3.558
 9466TIP3    H128362   0.996   4.549   3.622
 9466TIP3    H228363   1.008   4.449   3.509
 9467TIP3   OH228364   5.269   3.706   4.227
 9467TIP3    H128365   5.266   3.801   4.239
 9467TIP3    H228366   5.253   3.670   4.315
 9468TIP3   OH228367   2.526   0.506   5.690
 9468TIP3    H128368   2.489   0.534   5.605
 9468TIP3    H228369   2.522   0.411   5.688
 9469TIP3   OH228370   1.642   3.185   3.304
 9469TIP3    H128371   1.624   3.094   3.280
 9469TIP3    H228372   1.723   3.206   3.257
 9470TIP3   OH228373   5.357   3.311   0.528
 9470TIP3    H128374   5.363   3.258   0.448
 9470TIP3    H228375   5.438   3.293   0.575
 9471TIP3   OH228376   1.433   5.818   1.197
 9471TIP3    H128377   1.456   5.834   1.105
 9471TIP3    H228378   1.485   5.740   1.221
 9472TIP3   OH228379   4.772   6.139   0.921
 9472TIP3    H128380   4.863   6.130   0.895
 9472TIP3    H228381   4.743   6.049   0.937
 9473TIP3   OH228382   1.194   2.608   2.232
 9473TIP3    H128383   1.220   2.516   2.230
 9473TIP3    H228384   1.170   2.628   2.142
 9474TIP3   OH228385   0.015   4.703   0.781
 9474TIP3    H128386   0.001   4.770   0.848
 9474TIP3    H228387  -0.066   4.653   0.780
 9475TIP3   OH228388   0.123   1.384   4.307
 9475TIP3    H128389   0.102   1.368   4.215
 9475TIP3    H228390   0.056   1.336   4.356
 9476TIP3   OH228391   3.738   6.616   0.876
 9476TIP3    H128392   3.727   6.551   0.807
 9476TIP3    H228393   3.820   6.661   0.853
 9477TIP3   OH228394   4.372   3.981   2.878
 9477TIP3    H128395   4.345   4.018   2.962
 9477TIP3    H228396   4.323   3.898   2.872
 9478TIP3   OH228397   4.162   6.409   4.309
 9478TIP3    H128398   4.245   6.371   4.338
 9478TIP3    H228399   4.105   6.405   4.386
 9479TIP3   OH228400   2.113   5.019   0.904
 9479TIP3    H128401   2.091   5.041   0.994
 9479TIP3    H228402   2.037   5.046   0.853
 9480TIP3   OH228403   7.177   4.933   0.541
 9480TIP3    H128404   7.170   4.856   0.597
 9480TIP3    H228405   7.178   4.898   0.452
 9481TIP3   OH228406   6.241   2.969   0.202
 9481TIP3    H128407   6.177   3.040   0.198
 9481TIP3    H228408   6.308   2.999   0.263
 9482TIP3   OH228409   5.310   2.438   4.852
 9482TIP3    H128410   5.228   2.437   4.901
 9482TIP3    H228411   5.360   2.364   4.888
 9483TIP3   OH228412   4.747   0.352   3.370
 9483TIP3    H128413   4.791   0.270   3.345
 9483TIP3    H228414   4.654   0.335   3.354
 9484TIP3   OH228415   5.488   2.062   1.301
 9484TIP3    H128416   5.495   2.149   1.341
 9484TIP3    H228417   5.394   2.047   1.293
 9485TIP3   OH228418   0.318   2.958   1.742
 9485TIP3    H128419   0.296   3.044   1.776
 9485TIP3    H228420   0.308   2.966   1.647
 9486TIP3   OH228421   3.695   0.858   0.199
 9486TIP3    H128422   3.743   0.831   0.277
 9486TIP3    H228423   3.742   0.816   0.127
 9487TIP3   OH228424   1.386   5.802   4.527
 9487TIP3    H128425   1.325   5.787   4.455
 9487TIP3    H228426   1.470   5.774   4.493
 9488TIP3   OH228427   3.345   0.697   1.893
 9488TIP3    H128428   3.376   0.714   1.804
 9488TIP3    H228429   3.255   0.728   1.894
 9489TIP3   OH228430   1.920   4.116   0.011
 9489TIP3    H128431   1.948   4.051  -0.054
 9489TIP3    H228432   1.997   4.131   0.064
 9490TIP3   OH228433   4.301   4.136   2.507
 9490TIP3    H128434   4.276   4.089   2.428
 9490TIP3    H228435   4.393   4.113   2.521
 9491TIP3   OH228436   3.430   0.846   4.492
 9491TIP3    H128437   3.374   0.815   4.564
 9491TIP3    H228438   3.400   0.936   4.475
 9492TIP3   OH228439   6.668   0.233   4.220
 9492TIP3    H128440   6.628   0.231   4.306
 9492TIP3    H228441   6.736   0.300   4.226
 9493TIP3   OH228442   1.218   0.960   2.093
 9493TIP3    H128443   1.176   1.038   2.057
 9493TIP3    H228444   1.150   0.917   2.145
 9494TIP3   OH228445   2.101   1.377   3.420
 9494TIP3    H128446   2.155   1.331   3.355
 9494TIP3    H228447   2.145   1.360   3.503
 9495TIP3   OH228448   3.731   1.453   1.973
 9495TIP3    H128449   3.682   1.388   2.023
 9495TIP3    H228450   3.671   1.527   1.964
 9496TIP3   OH228451   6.282   3.775   0.404
 9496TIP3    H128452   6.234   3.825   0.470
 9496TIP3    H228453   6.253   3.684   0.417
 9497TIP3   OH228454   4.245   5.684   4.777
 9497TIP3    H128455   4.275   5.767   4.813
 9497TIP3    H228456   4.150   5.693   4.772
 9498TIP3   OH228457   1.743   1.514   4.677
 9498TIP3    H128458   1.792   1.452   4.730
 9498TIP3    H228459   1.783   1.599   4.695
 9499TIP3   OH228460   3.568   0.955   3.277
 9499TIP3    H128461   3.504   1.024   3.262
 9499TIP3    H228462   3.518   0.874   3.267
 9500TIP3   OH228463   5.756   0.826   0.102
 9500TIP3    H128464   5.762   0.760   0.032
 9500TIP3    H228465   5.792   0.905   0.063
 9501TIP3   OH228466   4.618   4.866   0.376
 9501TIP3    H128467   4.525   4.850   0.392
 9501TIP3    H228468   4.641   4.806   0.305
 9502TIP3   OH228469   6.557   2.745   1.175
 9502TIP3    H128470   6.536   2.766   1.266
 9502TIP3    H228471   6.596   2.825   1.140
 9503TIP3   OH228472   1.745   3.361   4.352
 9503TIP3    H128473   1.651   3.373   4.365
 9503TIP3    H228474   1.752   3.281   4.301
 9504TIP3   OH228475   6.110   0.357   5.393
 9504TIP3    H128476   6.176   0.366   5.324
 9504TIP3    H228477   6.031   0.397   5.357
 9505TIP3   OH228478   2.248   4.426   0.720
 9505TIP3    H128479   2.173   4.386   0.676
 9505TIP3    H228480   2.284   4.487   0.655
 9506TIP3   OH228481   3.586   5.838   1.053
 9506TIP3    H128482   3.626   5.906   0.999
 9506TIP3    H228483   3.645   5.828   1.127
 9507TIP3   OH228484   2.322   3.404   4.592
 9507TIP3    H128485   2.394   3.445   4.544
 9507TIP3    H228486   2.244   3.452   4.565
 9508TIP3   OH228487   5.879   4.199   1.478
 9508TIP3    H128488   5.890   4.104   1.476
 9508TIP3    H228489   5.861   4.219   1.570
 9509TIP3   OH228490   2.373   1.229   0.163
 9509TIP3    H128491   2.324   1.269   0.091
 9509TIP3    H228492   2.426   1.301   0.198
 9510TIP3   OH228493   6.925   5.094   5.226
 9510TIP3    H128494   6.835   5.101   5.195
 9510TIP3    H228495   6.956   5.009   5.194
 9511TIP3   OH228496   2.125   5.700   2.283
 9511TIP3    H128497   2.120   5.794   2.304
 9511TIP3    H228498   2.183   5.695   2.207
 9512TIP3   OH228499   2.445   4.241   0.332
 9512TIP3    H128500   2.507   4.282   0.392
 9512TIP3    H228501   2.499   4.182   0.279
 9513TIP3   OH228502   4.812   2.238   0.553
 9513TIP3    H128503   4.859   2.156   0.572
 9513TIP3    H228504   4.768   2.221   0.470
 9514TIP3   OH228505   0.877   2.781   2.895
 9514TIP3    H128506   0.827   2.706   2.927
 9514TIP3    H228507   0.937   2.802   2.967
 9515TIP3   OH228508   4.077   3.087   1.186
 9515TIP3    H128509   4.093   3.022   1.255
 9515TIP3    H228510   3.994   3.060   1.147
 9516TIP3   OH228511   3.045   1.735   2.512
 9516TIP3    H128512   3.088   1.690   2.439
 9516TIP3    H228513   3.111   1.796   2.545
 9517TIP3   OH228514   2.448   3.056   3.511
 9517TIP3    H128515   2.360   3.091   3.514
 9517TIP3    H228516   2.504   3.127   3.541
 9518TIP3   OH228517   2.082   1.079   3.280
 9518TIP3    H128518   2.164   1.126   3.296
 9518TIP3    H228519   2.102   1.019   3.208
 9519TIP3   OH228520   2.927   0.322   0.597
 9519TIP3    H128521   2.884   0.251   0.645
 9519TIP3    H228522   2.857   0.367   0.551
 9520TIP3   OH228523   4.624   6.335   2.720
 9520TIP3    H128524   4.598   6.406   2.662
 9520TIP3    H228525   4.713   6.313   2.693
 9521TIP3   OH228526   7.021   5.004   4.565
 9521TIP3    H128527   7.048   4.917   4.534
 9521TIP3    H228528   7.004   5.054   4.485
 9522TIP3   OH228529   1.007   2.039   4.702
 9522TIP3    H128530   1.055   2.119   4.681
 9522TIP3    H228531   0.918   2.054   4.669
 9523TIP3   OH228532   6.871   6.651   1.273
 9523TIP3    H128533   6.791   6.642   1.222
 9523TIP3    H228534   6.940   6.662   1.207
 9524TIP3   OH228535   0.518   4.822   0.749
 9524TIP3    H128536   0.513   4.915   0.730
 9524TIP3    H228537   0.611   4.804   0.758
 9525TIP3   OH228538   0.578   0.868   1.104
 9525TIP3    H128539   0.591   0.878   1.009
 9525TIP3    H228540   0.660   0.830   1.135
 9526TIP3   OH228541   3.518   4.531   3.102
 9526TIP3    H128542   3.508   4.582   3.182
 9526TIP3    H228543   3.544   4.594   3.036
 9527TIP3   OH228544   7.049   5.213   1.037
 9527TIP3    H128545   7.104   5.204   0.960
 9527TIP3    H228546   7.066   5.134   1.088
 9528TIP3   OH228547   3.961   3.898   5.180
 9528TIP3    H128548   3.984   3.990   5.164
 9528TIP3    H228549   3.985   3.884   5.272
 9529TIP3   OH228550   0.587   0.873   1.970
 9529TIP3    H128551   0.646   0.895   2.042
 9529TIP3    H228552   0.500   0.877   2.009
 9530TIP3   OH228553   4.300   4.011   3.441
 9530TIP3    H128554   4.244   4.040   3.369
 9530TIP3    H228555   4.245   4.019   3.519
 9531TIP3   OH228556   3.630   4.685   3.298
 9531TIP3    H128557   3.648   4.715   3.387
 9531TIP3    H228558   3.711   4.645   3.269
 9532TIP3   OH228559   2.789   5.522   1.328
 9532TIP3    H128560   2.776   5.591   1.392
 9532TIP3    H228561   2.866   5.474   1.359
 9533TIP3   OH228562   4.504   1.799   0.232
 9533TIP3    H128563   4.585   1.797   0.282
 9533TIP3    H228564   4.450   1.865   0.275
 9534TIP3   OH228565   4.534   1.413   4.854
 9534TIP3    H128566   4.568   1.478   4.793
 9534TIP3    H228567   4.529   1.332   4.802
 9535TIP3   OH228568   2.423   4.113   3.368
 9535TIP3    H128569   2.415   4.101   3.274
 9535TIP3    H228570   2.470   4.196   3.378
 9536TIP3   OH228571   2.327   0.659   4.736
 9536TIP3    H128572   2.375   0.740   4.724
 9536TIP3    H228573   2.367   0.618   4.812
 9537TIP3   OH228574   2.375   6.683   1.470
 9537TIP3    H128575   2.416   6.657   1.552
 9537TIP3    H228576   2.318   6.609   1.447
 9538TIP3   OH228577   3.736   5.391   2.268
 9538TIP3    H128578   3.739   5.343   2.350
 9538TIP3    H228579   3.647   5.379   2.236
 9539TIP3   OH228580   0.328   3.315   5.664
 9539TIP3    H128581   0.319   3.392   5.720
 9539TIP3    H228582   0.238   3.285   5.650
 9540TIP3   OH228583   2.490   2.147   2.092
 9540TIP3    H128584   2.498   2.240   2.074
 9540TIP3    H228585   2.518   2.138   2.183
 9541TIP3   OH228586   6.079   5.456   5.193
 9541TIP3    H128587   6.158   5.417   5.231
 9541TIP3    H228588   6.112   5.511   5.122
 9542TIP3   OH228589   4.605   4.828   2.332
 9542TIP3    H128590   4.629   4.867   2.416
 9542TIP3    H228591   4.612   4.734   2.347
 9543TIP3   OH228592   1.550   4.169   3.960
 9543TIP3    H128593   1.581   4.233   3.896
 9543TIP3    H228594   1.604   4.185   4.038
 9544TIP3   OH228595   0.833  -0.081   0.963
 9544TIP3    H128596   0.741  -0.104   0.972
 9544TIP3    H228597   0.834  -0.009   0.900
 9545TIP3   OH228598   2.656   3.033   5.668
 9545TIP3    H128599   2.646   3.128   5.662
 9545TIP3    H228600   2.679   3.007   5.579
 9546TIP3   OH228601   3.464   6.420   2.396
 9546TIP3    H128602   3.471   6.474   2.475
 9546TIP3    H228603   3.543   6.440   2.346
 9547TIP3   OH228604   6.675   2.024   0.840
 9547TIP3    H128605   6.585   2.050   0.858
 9547TIP3    H228606   6.718   2.023   0.925
 9548TIP3   OH228607   6.564   4.212   5.847
 9548TIP3    H128608   6.490   4.227   5.789
 9548TIP3    H228609   6.640   4.213   5.790
 9549TIP3   OH228610   0.545   5.470   0.676
 9549TIP3    H128611   0.583   5.501   0.758
 9549TIP3    H228612   0.621   5.452   0.620
 9550TIP3   OH228613   0.479   5.685   2.977
 9550TIP3    H128614   0.570   5.666   2.999
 9550TIP3    H228615   0.428   5.623   3.028
 9551TIP3   OH228616   2.930   5.210   0.389
 9551TIP3    H128617   2.907   5.118   0.373
 9551TIP3    H228618   3.022   5.216   0.365
 9552TIP3   OH228619   2.814   0.863   4.750
 9552TIP3    H128620   2.888   0.872   4.690
 9552TIP3    H228621   2.784   0.953   4.765
 9553TIP3   OH228622   6.470  -0.003   2.210
 9553TIP3    H128623   6.542   0.040   2.256
 9553TIP3    H228624   6.451   0.055   2.136
 9554TIP3   OH228625   5.654   1.029   0.315
 9554TIP3    H128626   5.711   0.957   0.342
 9554TIP3    H228627   5.639   1.013   0.222
 9555TIP3   OH228628   5.046   2.994   5.656
 9555TIP3    H128629   5.077   2.918   5.707
 9555TIP3    H228630   5.095   3.068   5.693
 9556TIP3   OH228631   4.017   2.893   4.581
 9556TIP3    H128632   4.091   2.842   4.548
 9556TIP3    H228633   3.962   2.907   4.504
 9557TIP3   OH228634   7.075   6.389   2.520
 9557TIP3    H128635   7.126   6.457   2.563
 9557TIP3    H228636   7.015   6.436   2.462
 9558TIP3   OH228637   0.178   3.190   1.370
 9558TIP3    H128638   0.181   3.224   1.281
 9558TIP3    H228639   0.263   3.149   1.384
 9559TIP3   OH228640   4.376   6.452   3.672
 9559TIP3    H128641   4.302   6.487   3.722
 9559TIP3    H228642   4.339   6.378   3.624
 9560TIP3   OH228643   2.991   6.628   1.972
 9560TIP3    H128644   3.004   6.594   2.061
 9560TIP3    H228645   3.055   6.581   1.919
 9561TIP3   OH228646   2.102   5.457   2.635
 9561TIP3    H128647   2.042   5.382   2.632
 9561TIP3    H228648   2.144   5.457   2.549
 9562TIP3   OH228649   4.551   2.704   3.342
 9562TIP3    H128650   4.503   2.649   3.404
 9562TIP3    H228651   4.504   2.787   3.342
 9563TIP3   OH228652   0.244   5.424   2.265
 9563TIP3    H128653   0.338   5.408   2.273
 9563TIP3    H228654   0.219   5.383   2.182
 9564TIP3   OH228655   5.010   5.388   5.421
 9564TIP3    H128656   4.969   5.462   5.376
 9564TIP3    H228657   5.009   5.317   5.356
 9565TIP3   OH228658   5.037   2.959   5.374
 9565TIP3    H128659   5.127   2.941   5.348
 9565TIP3    H228660   5.040   2.963   5.470
 9566TIP3   OH228661   2.077   2.150   4.730
 9566TIP3    H128662   2.128   2.208   4.674
 9566TIP3    H228663   2.139   2.083   4.758
 9567TIP3   OH228664   3.908   6.440   4.887
 9567TIP3    H128665   3.859   6.378   4.832
 9567TIP3    H228666   3.855   6.447   4.967
 9568TIP3   OH228667   2.768   5.702   1.539
 9568TIP3    H128668   2.759   5.796   1.555
 9568TIP3    H228669   2.841   5.675   1.595
 9569TIP3   OH228670   2.818   6.077   3.212
 9569TIP3    H128671   2.825   6.016   3.285
 9569TIP3    H228672   2.725   6.101   3.210
 9570TIP3   OH228673   6.038   2.276   2.589
 9570TIP3    H128674   6.049   2.310   2.500
 9570TIP3    H228675   6.120   2.230   2.608
 9571TIP3   OH228676   5.523   4.390   3.100
 9571TIP3    H128677   5.479   4.460   3.148
 9571TIP3    H228678   5.489   4.309   3.137
 9572TIP3   OH228679   2.212   4.306   1.620
 9572TIP3    H128680   2.194   4.380   1.678
 9572TIP3    H228681   2.176   4.331   1.536
 9573TIP3   OH228682   1.221   1.348   1.857
 9573TIP3    H128683   1.282   1.282   1.823
 9573TIP3    H228684   1.228   1.421   1.796
 9574TIP3   OH228685   5.511   4.924   3.302
 9574TIP3    H128686   5.524   4.954   3.212
 9574TIP3    H228687   5.501   4.829   3.295
 9575TIP3   OH228688   7.071   1.909   3.666
 9575TIP3    H128689   7.154   1.866   3.648
 9575TIP3    H228690   7.096   1.995   3.700
 9576TIP3   OH228691   6.869   1.528   4.257
 9576TIP3    H128692   6.945   1.549   4.311
 9576TIP3    H228693   6.826   1.456   4.303
 9577TIP3   OH228694   3.529   5.527   2.834
 9577TIP3    H128695   3.501   5.474   2.760
 9577TIP3    H228696   3.620   5.500   2.850
 9578TIP3   OH228697   0.879   6.166   1.682
 9578TIP3    H128698   0.945   6.205   1.740
 9578TIP3    H228699   0.879   6.222   1.605
 9579TIP3   OH228700   0.663   4.685   4.253
 9579TIP3    H128701   0.679   4.775   4.282
 9579TIP3    H228702   0.634   4.638   4.331
 9580TIP3   OH228703   1.991   3.791   2.397
 9580TIP3    H128704   2.000   3.723   2.331
 9580TIP3    H228705   1.948   3.863   2.352
 9581TIP3   OH228706   1.979   2.851   4.532
 9581TIP3    H128707   2.002   2.849   4.625
 9581TIP3    H228708   1.949   2.762   4.513
 9582TIP3   OH228709   1.646   6.299   5.076
 9582TIP3    H128710   1.728   6.342   5.054
 9582TIP3    H228711   1.582   6.370   5.079
 9583TIP3   OH228712   3.847   5.738   0.177
 9583TIP3    H128713   3.896   5.812   0.212
 9583TIP3    H228714   3.779   5.721   0.242
 9584TIP3   OH228715   5.876   6.322   5.394
 9584TIP3    H128716   5.874   6.227   5.400
 9584TIP3    H228717   5.831   6.352   5.473
 9585TIP3   OH228718   2.596   1.643   1.929
 9585TIP3    H128719   2.632   1.697   1.999
 9585TIP3    H228720   2.600   1.699   1.851
 9586TIP3   OH228721   5.842   3.114   2.496
 9586TIP3    H128722   5.775   3.174   2.528
 9586TIP3    H228723   5.920   3.168   2.483
 9587TIP3   OH228724   4.782   2.448   0.747
 9587TIP3    H128725   4.802   2.384   0.678
 9587TIP3    H228726   4.842   2.521   0.729
 9588TIP3   OH228727   6.350   5.384   2.596
 9588TIP3    H128728   6.417   5.405   2.531
 9588TIP3    H228729   6.350   5.288   2.600
 9589TIP3   OH228730   3.012   2.330   3.368
 9589TIP3    H128731   3.022   2.337   3.273
 9589TIP3    H228732   2.970   2.412   3.394
 9590TIP3   OH228733   6.773   0.317   4.504
 9590TIP3    H128734   6.841   0.263   4.463
 9590TIP3    H228735   6.757   0.275   4.588
 9591TIP3   OH228736   0.517   4.805   1.484
 9591TIP3    H128737   0.610   4.828   1.489
 9591TIP3    H228738   0.508   4.763   1.398
 9592TIP3   OH228739   3.311   2.466   3.047
 9592TIP3    H128740   3.265   2.550   3.046
 9592TIP3    H228741   3.372   2.473   3.121
 9593TIP3   OH228742   6.060   0.575   2.907
 9593TIP3    H128743   5.970   0.601   2.889
 9593TIP3    H228744   6.071   0.491   2.863
 9594TIP3   OH228745   2.239   1.954   5.817
 9594TIP3    H128746   2.306   2.008   5.776
 9594TIP3    H228747   2.187   2.015   5.869
 9595TIP3   OH228748   4.009   4.130   1.896
 9595TIP3    H128749   3.937   4.185   1.929
 9595TIP3    H228750   3.967   4.046   1.875
 9596TIP3   OH228751   4.867   4.476   2.062
 9596TIP3    H128752   4.937   4.477   2.127
 9596TIP3    H228753   4.883   4.553   2.007
 9597TIP3   OH228754   4.180   5.687   5.123
 9597TIP3    H128755   4.188   5.731   5.208
 9597TIP3    H228756   4.270   5.681   5.091
 9598TIP3   OH228757   0.547   0.308   4.281
 9598TIP3    H128758   0.491   0.386   4.276
 9598TIP3    H228759   0.564   0.296   4.374
 9599TIP3   OH228760   0.396   4.247   5.005
 9599TIP3    H128761   0.309   4.208   4.990
 9599TIP3    H228762   0.439   4.243   4.920
 9600TIP3   OH228763   1.759   5.805   0.865
 9600TIP3    H128764   1.789   5.759   0.944
 9600TIP3    H228765   1.733   5.735   0.805
 9601TIP3   OH228766   4.858   3.701   3.027
 9601TIP3    H128767   4.852   3.761   2.952
 9601TIP3    H228768   4.895   3.754   3.097
 9602TIP3   OH228769   3.385   5.185   2.405
 9602TIP3    H128770   3.437   5.242   2.461
 9602TIP3    H228771   3.327   5.139   2.465
 9603TIP3   OH228772   7.042   4.760   4.453
 9603TIP3    H128773   6.959   4.775   4.409
 9603TIP3    H228774   7.026   4.686   4.511
 9604TIP3   OH228775   5.912   1.686   3.876
 9604TIP3    H128776   5.856   1.756   3.843
 9604TIP3    H228777   5.938   1.716   3.963
 9605TIP3   OH228778   1.284   6.480   3.309
 9605TIP3    H128779   1.338   6.558   3.326
 9605TIP3    H228780   1.288   6.431   3.391
 9606TIP3   OH228781   6.794   3.803   4.989
 9606TIP3    H128782   6.701   3.800   5.014
 9606TIP3    H228783   6.808   3.723   4.939
 9607TIP3   OH228784   4.194   6.533   1.094
 9607TIP3    H128785   4.223   6.444   1.075
 9607TIP3    H228786   4.098   6.528   1.091
 9608TIP3   OH228787   1.867   4.956   4.484
 9608TIP3    H128788   1.865   4.891   4.414
 9608TIP3    H228789   1.775   4.979   4.497
 9609TIP3   OH228790   1.180   3.898   5.583
 9609TIP3    H128791   1.150   3.908   5.493
 9609TIP3    H228792   1.183   3.803   5.597
 9610TIP3   OH228793   0.669   5.733   0.987
 9610TIP3    H128794   0.581   5.705   1.009
 9610TIP3    H228795   0.657   5.809   0.930
 9611TIP3   OH228796   4.229   3.091   0.151
 9611TIP3    H128797   4.324   3.089   0.139
 9611TIP3    H228798   4.204   2.999   0.157
 9612TIP3   OH228799   2.577   2.400   4.394
 9612TIP3    H128800   2.508   2.340   4.363
 9612TIP3    H228801   2.644   2.395   4.326
 9613TIP3   OH228802   4.122   0.961   1.114
 9613TIP3    H128803   4.076   0.985   1.194
 9613TIP3    H228804   4.209   1.001   1.123
 9614TIP3   OH228805   5.879   5.615   0.189
 9614TIP3    H128806   5.876   5.691   0.246
 9614TIP3    H228807   5.971   5.604   0.168
 9615TIP3   OH228808   6.855   4.518   3.125
 9615TIP3    H128809   6.904   4.516   3.207
 9615TIP3    H228810   6.764   4.536   3.152
 9616TIP3   OH228811   2.063   0.389   0.285
 9616TIP3    H128812   1.979   0.352   0.258
 9616TIP3    H228813   2.042   0.476   0.318
 9617TIP3   OH228814   1.148   5.235   2.435
 9617TIP3    H128815   1.111   5.320   2.414
 9617TIP3    H228816   1.240   5.252   2.455
 9618TIP3   OH228817   5.728   1.281   0.994
 9618TIP3    H128818   5.761   1.363   0.957
 9618TIP3    H228819   5.636   1.277   0.967
 9619TIP3   OH228820   1.193   4.865   3.482
 9619TIP3    H128821   1.112   4.898   3.520
 9619TIP3    H228822   1.209   4.923   3.407
 9620TIP3   OH228823   7.165   6.176   5.379
 9620TIP3    H128824   7.078   6.148   5.353
 9620TIP3    H228825   7.172   6.150   5.471
 9621TIP3   OH228826   5.692   4.612   3.001
 9621TIP3    H128827   5.614   4.561   3.026
 9621TIP3    H228828   5.748   4.548   2.957
 9622TIP3   OH228829   0.143   0.344   4.323
 9622TIP3    H128830   0.084   0.418   4.335
 9622TIP3    H228831   0.155   0.308   4.411
 9623TIP3   OH228832   6.468   4.003   2.657
 9623TIP3    H128833   6.475   3.970   2.567
 9623TIP3    H228834   6.522   4.082   2.657
 9624TIP3   OH228835   6.145   5.955   1.596
 9624TIP3    H128836   6.223   5.981   1.547
 9624TIP3    H228837   6.175   5.886   1.655
 9625TIP3   OH228838   5.821   5.446   0.577
 9625TIP3    H128839   5.854   5.376   0.634
 9625TIP3    H228840   5.819   5.408   0.490
 9626TIP3   OH228841   6.151   3.302   4.234
 9626TIP3    H128842   6.173   3.274   4.145
 9626TIP3    H228843   6.121   3.392   4.223
 9627TIP3   OH228844   0.087   5.398   3.490
 9627TIP3    H128845   0.085   5.494   3.487
 9627TIP3    H228846   0.179   5.376   3.499
 9628TIP3   OH228847   1.106   4.318   5.007
 9628TIP3    H128848   1.124   4.376   5.081
 9628TIP3    H228849   1.170   4.247   5.016
 9629TIP3   OH228850   7.102   0.989   1.136
 9629TIP3    H128851   7.162   0.934   1.186
 9629TIP3    H228852   7.054   0.928   1.080
 9630TIP3   OH228853   4.624   6.403   3.790
 9630TIP3    H128854   4.685   6.367   3.725
 9630TIP3    H228855   4.539   6.403   3.746
 9631TIP3   OH228856   0.714   5.431   0.197
 9631TIP3    H128857   0.697   5.345   0.160
 9631TIP3    H228858   0.768   5.475   0.131
 9632TIP3   OH228859   5.508   0.196   1.271
 9632TIP3    H128860   5.442   0.247   1.224
 9632TIP3    H228861   5.484   0.206   1.364
 9633TIP3   OH228862   3.302   2.498   0.939
 9633TIP3    H128863   3.263   2.465   1.020
 9633TIP3    H228864   3.340   2.583   0.964
 9634TIP3   OH228865   3.836   1.292   2.230
 9634TIP3    H128866   3.902   1.259   2.291
 9634TIP3    H228867   3.842   1.387   2.239
 9635TIP3   OH228868   3.197   1.928   3.651
 9635TIP3    H128869   3.273   1.970   3.691
 9635TIP3    H228870   3.185   1.975   3.568
 9636TIP3   OH228871   3.916   5.216   1.995
 9636TIP3    H128872   3.895   5.309   1.981
 9636TIP3    H228873   3.833   5.177   2.021
 9637TIP3   OH228874   2.156   3.856   4.413
 9637TIP3    H128875   2.190   3.888   4.329
 9637TIP3    H228876   2.171   3.762   4.410
 9638TIP3   OH228877   2.162   2.180   1.211
 9638TIP3    H128878   2.074   2.148   1.231
 9638TIP3    H228879   2.213   2.156   1.288
 9639TIP3   OH228880   2.740   0.340   2.320
 9639TIP3    H128881   2.660   0.308   2.362
 9639TIP3    H228882   2.811   0.307   2.375
 9640TIP3   OH228883   0.249   2.012   4.848
 9640TIP3    H128884   0.340   2.039   4.839
 9640TIP3    H228885   0.234   1.951   4.776
 9641TIP3   OH228886   6.457   0.308   4.062
 9641TIP3    H128887   6.535   0.276   4.108
 9641TIP3    H228888   6.439   0.393   4.102
 9642TIP3   OH228889   2.786   3.006   0.413
 9642TIP3    H128890   2.788   2.951   0.335
 9642TIP3    H228891   2.849   3.076   0.395
 9643TIP3   OH228892   6.272   2.508   1.323
 9643TIP3    H128893   6.256   2.544   1.236
 9643TIP3    H228894   6.228   2.423   1.322
 9644TIP3   OH228895   2.850   6.551   1.198
 9644TIP3    H128896   2.883   6.483   1.257
 9644TIP3    H228897   2.927   6.576   1.146
 9645TIP3   OH228898   2.480   2.771   0.900
 9645TIP3    H128899   2.502   2.756   0.808
 9645TIP3    H228900   2.551   2.825   0.934
 9646TIP3   OH228901   3.698   5.019   3.966
 9646TIP3    H128902   3.756   5.087   4.001
 9646TIP3    H228903   3.619   5.066   3.940
 9647TIP3   OH228904   3.815   2.896   5.355
 9647TIP3    H128905   3.761   2.832   5.309
 9647TIP3    H228906   3.786   2.981   5.322
 9648TIP3   OH228907   6.835   3.321   4.775
 9648TIP3    H128908   6.771   3.282   4.716
 9648TIP3    H228909   6.908   3.347   4.719
 9649TIP3   OH228910   5.744   3.109   5.243
 9649TIP3    H128911   5.731   3.017   5.264
 9649TIP3    H228912   5.708   3.120   5.155
 9650TIP3   OH228913   1.272   4.841   2.211
 9650TIP3    H128914   1.248   4.753   2.241
 9650TIP3    H228915   1.367   4.841   2.212
 9651TIP3   OH228916   3.236   4.886   0.712
 9651TIP3    H128917   3.155   4.938   0.709
 9651TIP3    H228918   3.216   4.808   0.661
 9652TIP3   OH228919   3.905   3.215   0.343
 9652TIP3    H128920   3.835   3.259   0.294
 9652TIP3    H228921   3.982   3.271   0.330
 9653TIP3   OH228922   2.374   3.459   2.406
 9653TIP3    H128923   2.469   3.470   2.415
 9653TIP3    H228924   2.343   3.541   2.368
 9654TIP3   OH228925   6.241   6.167   2.088
 9654TIP3    H128926   6.187   6.217   2.148
 9654TIP3    H228927   6.331   6.185   2.115
 9655TIP3   OH228928   3.326   2.597   3.848
 9655TIP3    H128929   3.265   2.530   3.880
 9655TIP3    H228930   3.412   2.565   3.875
 9656TIP3   OH228931   1.484   1.616   3.125
 9656TIP3    H128932   1.491   1.675   3.200
 9656TIP3    H228933   1.573   1.613   3.089
 9657TIP3   OH228934   3.020   6.192   2.820
 9657TIP3    H128935   3.013   6.192   2.916
 9657TIP3    H228936   3.023   6.100   2.796
 9658TIP3   OH228937   6.815   5.225   4.628
 9658TIP3    H128938   6.841   5.299   4.573
 9658TIP3    H228939   6.819   5.259   4.717
 9659TIP3   OH228940   1.171   6.576   3.998
 9659TIP3    H128941   1.176   6.577   4.094
 9659TIP3    H228942   1.107   6.643   3.977
 9660TIP3   OH228943   4.112   4.165   0.573
 9660TIP3    H128944   4.123   4.260   0.569
 9660TIP3    H228945   4.190   4.134   0.618
 9661TIP3   OH228946   5.718   2.345   4.768
 9661TIP3    H128947   5.743   2.364   4.678
 9661TIP3    H228948   5.635   2.393   4.781
 9662TIP3   OH228949   5.414   3.940   5.654
 9662TIP3    H128950   5.423   3.853   5.692
 9662TIP3    H228951   5.321   3.947   5.632
 9663TIP3   OH228952   0.137   1.167   0.512
 9663TIP3    H128953   0.201   1.171   0.441
 9663TIP3    H228954   0.088   1.249   0.506
 9664TIP3   OH228955   5.357   1.790   0.539
 9664TIP3    H128956   5.343   1.880   0.569
 9664TIP3    H228957   5.397   1.746   0.615
 9665TIP3   OH228958   3.658   3.147   1.069
 9665TIP3    H128959   3.566   3.162   1.044
 9665TIP3    H228960   3.656   3.063   1.114
 9666TIP3   OH228961   4.383   4.401   3.685
 9666TIP3    H128962   4.400   4.327   3.744
 9666TIP3    H228963   4.461   4.456   3.693
 9667TIP3   OH228964   5.614   5.757   3.650
 9667TIP3    H128965   5.644   5.775   3.561
 9667TIP3    H228966   5.650   5.671   3.670
 9668TIP3   OH228967   2.186   6.409   2.649
 9668TIP3    H128968   2.178   6.504   2.643
 9668TIP3    H228969   2.139   6.386   2.729
 9669TIP3   OH228970   2.372   6.185   4.594
 9669TIP3    H128971   2.389   6.115   4.531
 9669TIP3    H228972   2.286   6.219   4.570
 9670TIP3   OH228973   3.495   0.015   4.133
 9670TIP3    H128974   3.414   0.003   4.183
 9670TIP3    H228975   3.496   0.109   4.111
 9671TIP3   OH228976   4.754   6.588   4.454
 9671TIP3    H128977   4.730   6.679   4.473
 9671TIP3    H228978   4.767   6.549   4.540
 9672TIP3   OH228979   4.685   3.620   4.845
 9672TIP3    H128980   4.740   3.558   4.798
 9672TIP3    H228981   4.690   3.701   4.795
 9673TIP3   OH228982   2.319   3.082   2.081
 9673TIP3    H128983   2.347   3.113   2.168
 9673TIP3    H228984   2.302   3.163   2.032
 9674TIP3   OH228985   5.022   5.786   0.515
 9674TIP3    H128986   5.071   5.732   0.577
 9674TIP3    H228987   4.977   5.722   0.459
 9675TIP3   OH228988   3.966   1.076   1.331
 9675TIP3    H128989   3.935   1.152   1.281
 9675TIP3    H228990   3.886   1.031   1.358
 9676TIP3   OH228991   1.900   5.066   0.753
 9676TIP3    H128992   1.810   5.048   0.726
 9676TIP3    H228993   1.919   5.152   0.716
 9677TIP3   OH228994   5.305   0.148  -0.017
 9677TIP3    H128995   5.348   0.193   0.055
 9677TIP3    H228996   5.212   0.147   0.008
 9678TIP3   OH228997   5.928   1.928   1.255
 9678TIP3    H128998   5.845   1.882   1.265
 9678TIP3    H228999   5.947   1.963   1.342
 9679TIP3   OH229000   3.154   0.626   0.055
 9679TIP3    H129001   3.231   0.684   0.056
 9679TIP3    H229002   3.079   0.685   0.049
 9680TIP3   OH229003   0.062   2.231   3.389
 9680TIP3    H129004   0.052   2.309   3.335
 9680TIP3    H229005  -0.014   2.232   3.448
 9681TIP3   OH229006   3.658   2.434   2.575
 9681TIP3    H129007   3.743   2.394   2.556
 9681TIP3    H229008   3.666   2.524   2.544
 9682TIP3   OH229009   4.411   3.518   4.450
 9682TIP3    H129010   4.504   3.501   4.468
 9682TIP3    H229011   4.394   3.602   4.492
 9683TIP3   OH229012   4.327   2.166   5.224
 9683TIP3    H129013   4.294   2.185   5.312
 9683TIP3    H229014   4.269   2.214   5.166
 9684TIP3   OH229015   0.382   4.104   1.510
 9684TIP3    H129016   0.385   4.120   1.604
 9684TIP3    H229017   0.471   4.124   1.479
 9685TIP3   OH229018   4.285   6.245   0.329
 9685TIP3    H129019   4.303   6.171   0.386
 9685TIP3    H229020   4.372   6.274   0.300
 9686TIP3   OH229021   4.486   1.355   1.642
 9686TIP3    H129022   4.465   1.306   1.563
 9686TIP3    H229023   4.546   1.299   1.691
 9687TIP3   OH229024   6.543   1.106   3.760
 9687TIP3    H129025   6.563   1.178   3.700
 9687TIP3    H229026   6.509   1.036   3.704
 9688TIP3   OH229027   5.974   0.844   1.311
 9688TIP3    H129028   5.962   0.890   1.228
 9688TIP3    H229029   6.063   0.866   1.338
 9689TIP3   OH229030   2.523   4.996   1.248
 9689TIP3    H129031   2.449   5.045   1.284
 9689TIP3    H229032   2.504   4.905   1.269
 9690TIP3   OH229033   1.538   1.403   1.487
 9690TIP3    H129034   1.482   1.481   1.487
 9690TIP3    H229035   1.525   1.364   1.401
 9691TIP3   OH229036   2.492   5.027   0.375
 9691TIP3    H129037   2.446   4.959   0.325
 9691TIP3    H229038   2.444   5.107   0.357
 9692TIP3   OH229039   3.508   1.286   3.824
 9692TIP3    H129040   3.415   1.266   3.836
 9692TIP3    H229041   3.548   1.264   3.909
 9693TIP3   OH229042   4.794   1.841   3.925
 9693TIP3    H129043   4.888   1.837   3.941
 9693TIP3    H229044   4.782   1.916   3.866
 9694TIP3   OH229045   4.239   4.139   4.338
 9694TIP3    H129046   4.233   4.121   4.244
 9694TIP3    H229047   4.150   4.163   4.364
 9695TIP3   OH229048   4.180   1.200   5.115
 9695TIP3    H129049   4.196   1.219   5.208
 9695TIP3    H229050   4.124   1.122   5.116
 9696TIP3   OH229051   5.231   6.428   5.529
 9696TIP3    H129052   5.221   6.333   5.523
 9696TIP3    H229053   5.148   6.463   5.496
 9697TIP3   OH229054   1.360   5.142   0.985
 9697TIP3    H129055   1.272   5.174   0.967
 9697TIP3    H229056   1.347   5.073   1.051
 9698TIP3   OH229057   1.800   6.058   3.672
 9698TIP3    H129058   1.733   5.990   3.670
 9698TIP3    H229059   1.869   6.026   3.614
 9699TIP3   OH229060   1.802   1.870   1.290
 9699TIP3    H129061   1.823   1.780   1.314
 9699TIP3    H229062   1.852   1.924   1.351
 9700TIP3   OH229063   2.877   4.136   4.471
 9700TIP3    H129064   2.784   4.135   4.493
 9700TIP3    H229065   2.906   4.224   4.494
 9701TIP3   OH229066   7.101   0.640   4.996
 9701TIP3    H129067   7.165   0.691   5.046
 9701TIP3    H229068   7.024   0.698   4.989
 9702TIP3   OH229069   3.045   0.774   4.262
 9702TIP3    H129070   2.995   0.718   4.203
 9702TIP3    H229071   3.123   0.722   4.283
 9703TIP3   OH229072   0.784   0.456   5.019
 9703TIP3    H129073   0.754   0.505   5.096
 9703TIP3    H229074   0.868   0.495   4.997
 9704TIP3   OH229075   5.633   2.805   5.835
 9704TIP3    H129076   5.715   2.851   5.855
 9704TIP3    H229077   5.659   2.713   5.828
 9705TIP3   OH229078   3.235   1.189   1.700
 9705TIP3    H129079   3.255   1.223   1.787
 9705TIP3    H229080   3.143   1.212   1.686
 9706TIP3   OH229081   5.177   1.465   4.024
 9706TIP3    H129082   5.139   1.459   3.937
 9706TIP3    H229083   5.135   1.394   4.073
 9707TIP3   OH229084   5.182   3.232   1.581
 9707TIP3    H129085   5.087   3.216   1.587
 9707TIP3    H229086   5.221   3.145   1.584
 9708TIP3   OH229087   1.266   6.196   2.322
 9708TIP3    H129088   1.213   6.128   2.364
 9708TIP3    H229089   1.347   6.151   2.298
 9709TIP3   OH229090   6.937   5.418   4.425
 9709TIP3    H129091   7.002   5.426   4.355
 9709TIP3    H229092   6.978   5.457   4.502
 9710TIP3   OH229093   7.139   5.644   2.770
 9710TIP3    H129094   7.062   5.605   2.811
 9710TIP3    H229095   7.194   5.569   2.746
 9711TIP3   OH229096   2.793   5.621   4.533
 9711TIP3    H129097   2.857   5.563   4.574
 9711TIP3    H229098   2.844   5.672   4.470
 9712TIP3   OH229099   6.712   2.127   5.302
 9712TIP3    H129100   6.757   2.106   5.220
 9712TIP3    H229101   6.781   2.127   5.368
 9713TIP3   OH229102   5.147   6.447   1.165
 9713TIP3    H129103   5.210   6.510   1.132
 9713TIP3    H229104   5.132   6.473   1.256
 9714TIP3   OH229105   6.710   5.048   4.041
 9714TIP3    H129106   6.694   4.979   3.978
 9714TIP3    H229107   6.781   5.015   4.096
 9715TIP3   OH229108   2.834   4.989   5.373
 9715TIP3    H129109   2.817   5.071   5.418
 9715TIP3    H229110   2.925   4.968   5.394
 9716TIP3   OH229111   0.061   0.962   0.172
 9716TIP3    H129112   0.126   0.904   0.134
 9716TIP3    H229113   0.104   1.048   0.175
 9717TIP3   OH229114   5.440   6.757   2.333
 9717TIP3    H129115   5.430   6.668   2.367
 9717TIP3    H229116   5.518   6.753   2.278
 9718TIP3   OH229117   3.028   4.394   5.529
 9718TIP3    H129118   3.018   4.486   5.504
 9718TIP3    H229119   3.112   4.367   5.491
 9719TIP3   OH229120   2.263   4.440   0.348
 9719TIP3    H129121   2.316   4.520   0.345
 9719TIP3    H229122   2.325   4.370   0.370
 9720TIP3   OH229123   6.472   5.429   4.963
 9720TIP3    H129124   6.529   5.470   5.028
 9720TIP3    H229125   6.503   5.339   4.958
 9721TIP3   OH229126   2.515   0.507   4.840
 9721TIP3    H129127   2.552   0.453   4.770
 9721TIP3    H229128   2.455   0.449   4.886
 9722TIP3   OH229129   6.292   4.813   5.606
 9722TIP3    H129130   6.264   4.900   5.634
 9722TIP3    H229131   6.340   4.778   5.681
 9723TIP3   OH229132   1.061   4.062   5.776
 9723TIP3    H129133   1.106   4.007   5.713
 9723TIP3    H229134   1.130   4.118   5.813
 9724TIP3   OH229135   6.871   1.883   2.715
 9724TIP3    H129136   6.915   1.944   2.774
 9724TIP3    H229137   6.924   1.884   2.635
 9725TIP3   OH229138   7.054   5.903  -0.055
 9725TIP3    H129139   7.033   5.851   0.022
 9725TIP3    H229140   7.020   5.991  -0.034
 9726TIP3   OH229141   4.526   0.842   1.932
 9726TIP3    H129142   4.496   0.901   1.862
 9726TIP3    H229143   4.597   0.792   1.891
 9727TIP3   OH229144   2.542   4.110   5.180
 9727TIP3    H129145   2.600   4.035   5.189
 9727TIP3    H229146   2.496   4.095   5.097
 9728TIP3   OH229147   4.391   1.483   5.149
 9728TIP3    H129148   4.352   1.563   5.184
 9728TIP3    H229149   4.368   1.415   5.211
 9729TIP3   OH229150   4.546   4.575   5.407
 9729TIP3    H129151   4.604   4.546   5.337
 9729TIP3    H229152   4.459   4.574   5.368
 9730TIP3   OH229153   2.664   2.958   1.211
 9730TIP3    H129154   2.671   2.923   1.122
 9730TIP3    H229155   2.664   2.881   1.267
 9731TIP3   OH229156   1.445   2.378   4.071
 9731TIP3    H129157   1.424   2.285   4.066
 9731TIP3    H229158   1.530   2.386   4.028
 9732TIP3   OH229159   0.322   6.419   3.210
 9732TIP3    H129160   0.384   6.349   3.229
 9732TIP3    H229161   0.354   6.459   3.130
 9733TIP3   OH229162   0.041   0.215   2.512
 9733TIP3    H129163   0.083   0.284   2.460
 9733TIP3    H229164   0.103   0.142   2.509
 9734TIP3   OH229165   0.157   2.823   4.157
 9734TIP3    H129166   0.143   2.757   4.089
 9734TIP3    H229167   0.144   2.775   4.239
 9735TIP3   OH229168   3.632   1.206   4.069
 9735TIP3    H129169   3.723   1.231   4.057
 9735TIP3    H229170   3.636   1.129   4.127
 9736TIP3   OH229171  -0.001   6.196   0.227
 9736TIP3    H129172   0.074   6.239   0.268
 9736TIP3    H229173   0.027   6.181   0.136
 9737TIP3   OH229174   0.947   5.316   0.328
 9737TIP3    H129175   0.899   5.296   0.408
 9737TIP3    H229176   0.889   5.375   0.279
 9738TIP3   OH229177   2.676   6.009   1.129
 9738TIP3    H129178   2.733   5.984   1.202
 9738TIP3    H229179   2.707   5.957   1.055
 9739TIP3   OH229180   2.642   5.239   4.555
 9739TIP3    H129181   2.582   5.253   4.481
 9739TIP3    H229182   2.621   5.311   4.615
 9740TIP3   OH229183   2.941   1.230   0.232
 9740TIP3    H129184   2.956   1.141   0.265
 9740TIP3    H229185   3.029   1.265   0.215
 9741TIP3   OH229186   1.462   3.139   3.636
 9741TIP3    H129187   1.467   3.077   3.563
 9741TIP3    H229188   1.422   3.217   3.597
 9742TIP3   OH229189   2.603   2.323   2.613
 9742TIP3    H129190   2.512   2.315   2.640
 9742TIP3    H229191   2.652   2.274   2.679
 9743TIP3   OH229192   1.976   1.002   3.771
 9743TIP3    H129193   2.066   0.976   3.753
 9743TIP3    H229194   1.939   0.928   3.819
 9744TIP3   OH229195   3.012   1.571   3.736
 9744TIP3    H129196   2.960   1.498   3.704
 9744TIP3    H229197   3.029   1.551   3.828
 9745TIP3   OH229198   3.033   6.538   4.918
 9745TIP3    H129199   3.071   6.464   4.965
 9745TIP3    H229200   3.039   6.611   4.980
 9746TIP3   OH229201   5.128   5.537   1.301
 9746TIP3    H129202   5.112   5.535   1.206
 9746TIP3    H229203   5.118   5.446   1.328
 9747TIP3   OH229204   6.864   3.851   3.705
 9747TIP3    H129205   6.914   3.932   3.696
 9747TIP3    H229206   6.820   3.859   3.789
 9748TIP3   OH229207   2.298   1.372   1.223
 9748TIP3    H129208   2.366   1.431   1.255
 9748TIP3    H229209   2.301   1.297   1.282
 9749TIP3   OH229210   5.163   1.548   1.242
 9749TIP3    H129211   5.256   1.539   1.222
 9749TIP3    H229212   5.139   1.463   1.280
   7.21746   6.80469   5.89302   0.00000   0.00000  -2.40582   0.00000  -2.40582  -3.40234
