Title t= 418.00000 step= 209000
29212
    1ASP      N    1   1.809   3.495   5.132
    1ASP    HT1    2   1.831   3.399   5.101
    1ASP    HT2    3   1.793   3.551   5.046
    1ASP    HT3    4   1.736   3.499   5.207
    1ASP     CA    5   1.923   3.544   5.211
    1ASP     HA    6   1.895   3.644   5.240
    1ASP     CB    7   1.948   3.448   5.326
    1ASP    HB1    8   2.044   3.458   5.382
    1ASP    HB2    9   1.944   3.341   5.296
    1ASP     CG   10   1.830   3.465   5.425
    1ASP    OD1   11   1.719   3.505   5.384
    1ASP    OD2   12   1.839   3.423   5.542
    1ASP      C   13   2.043   3.568   5.121
    1ASP      O   14   2.094   3.679   5.110
    2GLY      N   15   2.105   3.457   5.063
    2GLY     HN   16   2.070   3.367   5.088
    2GLY     CA   17   2.220   3.459   4.981
    2GLY    HA1   18   2.274   3.365   4.979
    2GLY    HA2   19   2.269   3.551   5.009
    2GLY      C   20   2.194   3.461   4.838
    2GLY      O   21   2.105   3.525   4.792
    3ASP      N   22   2.267   3.379   4.761
    3ASP     HN   23   2.349   3.340   4.804
    3ASP     CA   24   2.262   3.360   4.612
    3ASP     HA   25   2.188   3.431   4.578
    3ASP     CB   26   2.398   3.374   4.541
    3ASP    HB1   27   2.388   3.355   4.432
    3ASP    HB2   28   2.469   3.297   4.580
    3ASP     CG   29   2.443   3.522   4.539
    3ASP    OD1   30   2.361   3.615   4.564
    3ASP    OD2   31   2.564   3.543   4.509
    3ASP      C   32   2.201   3.230   4.578
    3ASP      O   33   2.187   3.137   4.658
    4GLY      N   34   2.140   3.216   4.453
    4GLY     HN   35   2.140   3.291   4.387
    4GLY     CA   36   2.073   3.095   4.403
    4GLY    HA1   37   1.997   3.131   4.335
    4GLY    HA2   38   2.034   3.024   4.474
    4GLY      C   39   2.160   3.019   4.304
    4GLY      O   40   2.279   3.037   4.306
    5PRO      N   41   2.112   2.935   4.216
    5PRO     CD   42   1.978   2.886   4.215
    5PRO    HD1   43   1.904   2.941   4.276
    5PRO    HD2   44   1.976   2.779   4.246
    5PRO     CA   45   2.169   2.923   4.077
    5PRO     HA   46   2.258   2.862   4.079
    5PRO     CB   47   2.056   2.861   3.989
    5PRO    HB1   48   2.060   2.750   3.995
    5PRO    HB2   49   2.061   2.891   3.882
    5PRO     CG   50   1.930   2.901   4.067
    5PRO    HG1   51   1.901   3.007   4.053
    5PRO    HG2   52   1.841   2.837   4.047
    5PRO      C   53   2.204   3.056   4.016
    5PRO      O   54   2.131   3.151   4.028
    6GLY      N   55   2.322   3.052   3.950
    6GLY     HN   56   2.368   2.964   3.939
    6GLY     CA   57   2.396   3.168   3.913
    6GLY    HA1   58   2.485   3.136   3.861
    6GLY    HA2   59   2.417   3.225   4.002
    6GLY      C   60   2.350   3.271   3.817
    6GLY      O   61   2.230   3.285   3.791
    7ASP      N   62   2.437   3.349   3.761
    7ASP     HN   63   2.533   3.336   3.787
    7ASP     CA   64   2.414   3.461   3.673
    7ASP     HA   65   2.342   3.523   3.723
    7ASP     CB   66   2.545   3.545   3.661
    7ASP    HB1   67   2.525   3.631   3.593
    7ASP    HB2   68   2.627   3.489   3.613
    7ASP     CG   69   2.584   3.599   3.794
    7ASP    OD1   70   2.706   3.609   3.818
    7ASP    OD2   71   2.497   3.630   3.882
    7ASP      C   72   2.364   3.421   3.532
    7ASP      O   73   2.415   3.324   3.477
    8PRO      N   74   2.284   3.504   3.470
    8PRO     CD   75   2.250   3.641   3.519
    8PRO    HD1   76   2.320   3.698   3.584
    8PRO    HD2   77   2.149   3.635   3.565
    8PRO     CA   78   2.276   3.507   3.324
    8PRO     HA   79   2.230   3.415   3.292
    8PRO     CB   80   2.183   3.628   3.298
    8PRO    HB1   81   2.080   3.600   3.330
    8PRO    HB2   82   2.172   3.673   3.196
    8PRO     CG   83   2.232   3.733   3.398
    8PRO    HG1   84   2.328   3.787   3.384
    8PRO    HG2   85   2.153   3.808   3.420
    8PRO      C   86   2.405   3.514   3.242
    8PRO      O   87   2.502   3.565   3.293
    9GLY      N   88   2.414   3.469   3.111
    9GLY     HN   89   2.333   3.423   3.074
    9GLY     CA   90   2.519   3.505   3.022
    9GLY    HA1   91   2.507   3.448   2.931
    9GLY    HA2   92   2.610   3.479   3.073
    9GLY      C   93   2.528   3.654   2.997
    9GLY      O   94   2.445   3.736   3.035
   10ASP      N   95   2.629   3.686   2.909
   10ASP     HN   96   2.694   3.616   2.881
   10ASP     CA   97   2.647   3.823   2.856
   10ASP     HA   98   2.670   3.879   2.945
   10ASP     CB   99   2.764   3.813   2.753
   10ASP    HB1  100   2.776   3.912   2.704
   10ASP    HB2  101   2.742   3.734   2.677
   10ASP     CG  102   2.896   3.777   2.814
   10ASP    OD1  103   2.912   3.758   2.938
   10ASP    OD2  104   2.994   3.784   2.735
   10ASP      C  105   2.530   3.894   2.785
   10ASP      O  106   2.434   3.828   2.740
   11GLY      N  107   2.550   4.029   2.759
   11GLY     HN  108   2.632   4.080   2.786
   11GLY     CA  109   2.449   4.101   2.690
   11GLY    HA1  110   2.395   4.158   2.763
   11GLY    HA2  111   2.390   4.030   2.635
   11GLY      C  112   2.511   4.200   2.601
   11GLY    OT1  113   2.493   4.323   2.625
   11GLY    OT2  114   2.573   4.164   2.497
   12SOD    SOD  115   5.006   2.109   1.247
   13SOD    SOD  116   5.587   6.458   0.807
   14SOD    SOD  117   2.498   0.649   2.336
   15SOD    SOD  118   0.257   0.268   3.162
   16SOD    SOD  119   1.298   6.357   4.633
   17SOD    SOD  120   1.464   3.699   4.393
   18SOD    SOD  121   5.450   0.154   0.341
   19SOD    SOD  122   6.414   0.210   5.083
   20SOD    SOD  123   5.866   1.149   5.625
   21SOD    SOD  124   6.149   1.200   0.213
   22SOD    SOD  125   5.681   0.508   4.629
   23SOD    SOD  126   3.176   0.768   2.351
   24SOD    SOD  127   2.529   2.577   5.533
   25SOD    SOD  128   2.392   2.680   1.548
   26SOD    SOD  129   4.565   5.963   3.885
   27SOD    SOD  130   3.718   3.304   2.878
   28SOD    SOD  131   5.403   2.948   3.626
   29SOD    SOD  132   1.191   1.276   1.582
   30SOD    SOD  133   1.862   6.062   5.749
   31SOD    SOD  134   6.889   6.549   3.265
   32SOD    SOD  135   3.357   4.454   0.141
   33SOD    SOD  136   0.791   2.514   1.779
   34SOD    SOD  137   5.119   5.988   2.935
   35SOD    SOD  138   3.278   4.828   1.611
   36SOD    SOD  139   4.893   2.443   4.907
   37SOD    SOD  140   3.476   3.574   0.474
   38SOD    SOD  141   1.885   4.557   3.572
   39SOD    SOD  142   0.871   4.629   2.598
   40SOD    SOD  143   5.374   2.973   1.392
   41SOD    SOD  144   5.915   2.081   1.958
   42SOD    SOD  145   5.607   5.679   4.578
   43CLA    CLA  146   1.829   5.464   2.684
   44CLA    CLA  147   6.217   4.895   0.819
   45CLA    CLA  148   2.354   5.539   0.333
   46CLA    CLA  149   6.243   5.016   3.851
   47CLA    CLA  150   3.485   0.345   2.026
   48CLA    CLA  151   2.871   1.185   2.503
   49CLA    CLA  152   0.635   1.476   3.011
   50CLA    CLA  153   5.171   0.576   4.319
   51CLA    CLA  154   6.200   3.973   4.623
   52CLA    CLA  155   1.766   3.097   3.012
   53CLA    CLA  156   0.283   3.845   0.287
   54CLA    CLA  157   3.402   3.324   2.413
   55CLA    CLA  158   1.013   0.577   2.115
   56CLA    CLA  159   6.503   5.138   5.260
   57CLA    CLA  160   2.241   4.209   0.226
   58CLA    CLA  161   3.282   2.642   3.200
   59CLA    CLA  162   0.397   4.585   2.347
   60CLA    CLA  163   2.568   0.233   4.338
   61CLA    CLA  164   5.809   3.482   0.446
   62CLA    CLA  165   6.210   2.261   2.372
   63CLA    CLA  166   6.717   2.407   2.976
   64CLA    CLA  167   3.316   6.487   0.523
   65CLA    CLA  168   5.510   0.125   4.585
   66CLA    CLA  169   1.802   0.244   2.982
   67CLA    CLA  170   6.886   1.239   0.260
   68CLA    CLA  171   6.395   0.773   2.540
   69CLA    CLA  172   5.392   1.481   1.764
   70TIP3   OH2  173   0.058   2.914   1.448
   70TIP3    H1  174   0.054   2.836   1.393
   70TIP3    H2  175   0.035   2.986   1.390
   71TIP3   OH2  176   1.467   4.067   0.295
   71TIP3    H1  177   1.519   4.097   0.370
   71TIP3    H2  178   1.532   4.034   0.233
   72TIP3   OH2  179   2.212   2.098   0.806
   72TIP3    H1  180   2.213   2.191   0.783
   72TIP3    H2  181   2.268   2.056   0.740
   73TIP3   OH2  182   6.154   2.770   4.184
   73TIP3    H1  183   6.074   2.780   4.236
   73TIP3    H2  184   6.147   2.836   4.116
   74TIP3   OH2  185   2.241   4.226   4.018
   74TIP3    H1  186   2.321   4.221   4.071
   74TIP3    H2  187   2.196   4.303   4.050
   75TIP3   OH2  188   6.064   6.159   5.600
   75TIP3    H1  189   6.128   6.175   5.532
   75TIP3    H2  190   6.102   6.199   5.679
   76TIP3   OH2  191   0.324   4.615   0.957
   76TIP3    H1  192   0.393   4.629   1.022
   76TIP3    H2  193   0.243   4.637   1.003
   77TIP3   OH2  194   4.260   2.309   4.493
   77TIP3    H1  195   4.327   2.281   4.431
   77TIP3    H2  196   4.258   2.405   4.484
   78TIP3   OH2  197   3.424   1.511   0.156
   78TIP3    H1  198   3.355   1.544   0.098
   78TIP3    H2  199   3.492   1.479   0.097
   79TIP3   OH2  200   0.070   3.222   0.163
   79TIP3    H1  201   0.151   3.272   0.149
   79TIP3    H2  202   0.045   3.242   0.253
   80TIP3   OH2  203   2.758   2.131   2.519
   80TIP3    H1  204   2.793   2.130   2.609
   80TIP3    H2  205   2.680   2.187   2.525
   81TIP3   OH2  206   5.477   2.674   2.730
   81TIP3    H1  207   5.424   2.684   2.651
   81TIP3    H2  208   5.448   2.744   2.788
   82TIP3   OH2  209   2.714   1.733   5.361
   82TIP3    H1  210   2.715   1.751   5.267
   82TIP3    H2  211   2.805   1.716   5.383
   83TIP3   OH2  212   1.394   4.288   1.123
   83TIP3    H1  213   1.343   4.352   1.072
   83TIP3    H2  214   1.353   4.204   1.102
   84TIP3   OH2  215   0.150   4.023   2.944
   84TIP3    H1  216   0.166   4.117   2.955
   84TIP3    H2  217   0.197   4.000   2.864
   85TIP3   OH2  218   2.143   0.154   4.431
   85TIP3    H1  219   2.099   0.195   4.506
   85TIP3    H2  220   2.235   0.149   4.457
   86TIP3   OH2  221   1.162   2.680   4.903
   86TIP3    H1  222   1.139   2.718   4.817
   86TIP3    H2  223   1.081   2.684   4.953
   87TIP3   OH2  224   2.306   0.762   5.465
   87TIP3    H1  225   2.230   0.749   5.522
   87TIP3    H2  226   2.331   0.853   5.479
   88TIP3   OH2  227   2.091   3.740   4.607
   88TIP3    H1  228   2.108   3.669   4.669
   88TIP3    H2  229   2.168   3.741   4.550
   89TIP3   OH2  230   7.134   3.888   3.716
   89TIP3    H1  231   7.046   3.903   3.681
   89TIP3    H2  232   7.192   3.934   3.656
   90TIP3   OH2  233   2.312   1.385   0.584
   90TIP3    H1  234   2.337   1.296   0.611
   90TIP3    H2  235   2.351   1.395   0.497
   91TIP3   OH2  236   2.000   1.111   2.654
   91TIP3    H1  237   1.942   1.187   2.645
   91TIP3    H2  238   2.087   1.145   2.634
   92TIP3   OH2  239   2.740   0.811   0.326
   92TIP3    H1  240   2.663   0.836   0.378
   92TIP3    H2  241   2.711   0.734   0.277
   93TIP3   OH2  242   0.124   6.151   4.919
   93TIP3    H1  243   0.176   6.166   4.840
   93TIP3    H2  244   0.147   6.224   4.976
   94TIP3   OH2  245   3.985   1.093   2.656
   94TIP3    H1  246   4.038   1.171   2.641
   94TIP3    H2  247   3.974   1.090   2.751
   95TIP3   OH2  248   4.000   1.613   2.856
   95TIP3    H1  249   4.028   1.704   2.848
   95TIP3    H2  250   3.943   1.598   2.781
   96TIP3   OH2  251   2.281   3.063   2.313
   96TIP3    H1  252   2.334   3.058   2.392
   96TIP3    H2  253   2.277   2.973   2.281
   97TIP3   OH2  254   1.200   1.962   0.854
   97TIP3    H1  255   1.242   1.905   0.918
   97TIP3    H2  256   1.237   1.934   0.770
   98TIP3   OH2  257   3.554   4.101   2.682
   98TIP3    H1  258   3.507   4.098   2.599
   98TIP3    H2  259   3.521   4.180   2.725
   99TIP3   OH2  260   1.927   5.540   1.922
   99TIP3    H1  261   1.945   5.499   1.837
   99TIP3    H2  262   1.924   5.634   1.902
  100TIP3   OH2  263   4.796   1.640   4.793
  100TIP3    H1  264   4.748   1.561   4.818
  100TIP3    H2  265   4.825   1.622   4.704
  101TIP3   OH2  266   1.890   0.664   0.021
  101TIP3    H1  267   1.860   0.612   0.096
  101TIP3    H2  268   1.881   0.604  -0.054
  102TIP3   OH2  269   0.280   6.431   1.775
  102TIP3    H1  270   0.254   6.436   1.683
  102TIP3    H2  271   0.344   6.502   1.786
  103TIP3   OH2  272   3.057   5.191   0.689
  103TIP3    H1  273   3.126   5.226   0.632
  103TIP3    H2  274   2.982   5.249   0.674
  104TIP3   OH2  275   6.638   2.287   1.475
  104TIP3    H1  276   6.645   2.219   1.542
  104TIP3    H2  277   6.719   2.279   1.425
  105TIP3   OH2  278   1.703   6.512   1.161
  105TIP3    H1  279   1.696   6.430   1.210
  105TIP3    H2  280   1.620   6.519   1.114
  106TIP3   OH2  281   3.471   4.595   2.590
  106TIP3    H1  282   3.400   4.596   2.525
  106TIP3    H2  283   3.467   4.681   2.631
  107TIP3   OH2  284   2.889   5.480   3.267
  107TIP3    H1  285   2.847   5.410   3.317
  107TIP3    H2  286   2.830   5.555   3.277
  108TIP3   OH2  287   1.850   4.836   4.503
  108TIP3    H1  288   1.870   4.929   4.516
  108TIP3    H2  289   1.779   4.835   4.438
  109TIP3   OH2  290   5.432   1.481   1.465
  109TIP3    H1  291   5.440   1.481   1.560
  109TIP3    H2  292   5.338   1.488   1.449
  110TIP3   OH2  293   0.474   5.444   5.810
  110TIP3    H1  294   0.402   5.418   5.753
  110TIP3    H2  295   0.466   5.539   5.819
  111TIP3   OH2  296   0.446   6.713   3.412
  111TIP3    H1  297   0.529   6.760   3.421
  111TIP3    H2  298   0.396   6.765   3.348
  112TIP3   OH2  299   6.020   1.312   1.654
  112TIP3    H1  300   5.995   1.340   1.566
  112TIP3    H2  301   5.941   1.324   1.707
  113TIP3   OH2  302   2.358   0.722   3.442
  113TIP3    H1  303   2.422   0.719   3.513
  113TIP3    H2  304   2.337   0.815   3.433
  114TIP3   OH2  305   4.095   4.884   4.532
  114TIP3    H1  306   4.097   4.838   4.448
  114TIP3    H2  307   4.172   4.941   4.530
  115TIP3   OH2  308   2.508   1.730   3.239
  115TIP3    H1  309   2.497   1.647   3.193
  115TIP3    H2  310   2.599   1.730   3.268
  116TIP3   OH2  311   0.089   1.914   4.722
  116TIP3    H1  312  -0.005   1.912   4.738
  116TIP3    H2  313   0.115   1.822   4.718
  117TIP3   OH2  314   1.160   4.304   1.744
  117TIP3    H1  315   1.177   4.288   1.651
  117TIP3    H2  316   1.075   4.263   1.760
  118TIP3   OH2  317   2.826   5.854   5.698
  118TIP3    H1  318   2.863   5.942   5.701
  118TIP3    H2  319   2.732   5.867   5.710
  119TIP3   OH2  320   4.142   1.509   4.227
  119TIP3    H1  321   4.112   1.550   4.146
  119TIP3    H2  322   4.136   1.415   4.209
  120TIP3   OH2  323   6.763   3.188   0.879
  120TIP3    H1  324   6.797   3.268   0.920
  120TIP3    H2  325   6.836   3.126   0.884
  121TIP3   OH2  326   3.425   4.223   1.661
  121TIP3    H1  327   3.484   4.148   1.655
  121TIP3    H2  328   3.419   4.257   1.572
  122TIP3   OH2  329   7.245   3.975   0.155
  122TIP3    H1  330   7.195   3.981   0.236
  122TIP3    H2  331   7.321   3.921   0.177
  123TIP3   OH2  332   7.010   6.004   0.096
  123TIP3    H1  333   6.991   6.040   0.010
  123TIP3    H2  334   6.985   6.073   0.157
  124TIP3   OH2  335   4.741   3.056   2.573
  124TIP3    H1  336   4.761   3.089   2.486
  124TIP3    H2  337   4.826   3.029   2.609
  125TIP3   OH2  338   3.967   5.587   5.206
  125TIP3    H1  339   3.914   5.637   5.144
  125TIP3    H2  340   3.966   5.639   5.286
  126TIP3   OH2  341   6.336   3.040   4.255
  126TIP3    H1  342   6.402   2.977   4.282
  126TIP3    H2  343   6.371   3.079   4.175
  127TIP3   OH2  344   3.099   1.927   1.635
  127TIP3    H1  345   3.193   1.919   1.615
  127TIP3    H2  346   3.091   2.009   1.683
  128TIP3   OH2  347   2.587   0.705   2.549
  128TIP3    H1  348   2.518   0.748   2.599
  128TIP3    H2  349   2.657   0.770   2.543
  129TIP3   OH2  350   6.758   0.818   5.262
  129TIP3    H1  351   6.738   0.724   5.266
  129TIP3    H2  352   6.783   0.833   5.171
  130TIP3   OH2  353   3.439   4.391   5.596
  130TIP3    H1  354   3.397   4.477   5.595
  130TIP3    H2  355   3.395   4.343   5.666
  131TIP3   OH2  356   3.657   0.435   1.053
  131TIP3    H1  357   3.566   0.422   1.027
  131TIP3    H2  358   3.652   0.462   1.145
  132TIP3   OH2  359   0.195   1.047   5.883
  132TIP3    H1  360   0.157   0.966   5.916
  132TIP3    H2  361   0.123   1.092   5.840
  133TIP3   OH2  362   0.103   4.331   1.060
  133TIP3    H1  363   0.183   4.312   1.108
  133TIP3    H2  364   0.133   4.355   0.972
  134TIP3   OH2  365   3.894   3.599   3.445
  134TIP3    H1  366   3.844   3.680   3.439
  134TIP3    H2  367   3.897   3.581   3.539
  135TIP3   OH2  368   2.026   4.457   4.771
  135TIP3    H1  369   2.121   4.442   4.765
  135TIP3    H2  370   1.987   4.374   4.743
  136TIP3   OH2  371   1.339   1.812   2.320
  136TIP3    H1  372   1.329   1.900   2.282
  136TIP3    H2  373   1.416   1.819   2.377
  137TIP3   OH2  374   4.503   5.924   3.445
  137TIP3    H1  375   4.413   5.930   3.476
  137TIP3    H2  376   4.503   5.975   3.364
  138TIP3   OH2  377   6.925   3.046   2.521
  138TIP3    H1  378   7.005   3.001   2.495
  138TIP3    H2  379   6.856   3.003   2.470
  139TIP3   OH2  380   6.453   4.472   0.006
  139TIP3    H1  381   6.450   4.567   0.012
  139TIP3    H2  382   6.546   4.450   0.011
  140TIP3   OH2  383   4.250   3.820   2.510
  140TIP3    H1  384   4.243   3.730   2.541
  140TIP3    H2  385   4.223   3.874   2.585
  141TIP3   OH2  386   3.873   3.404   4.447
  141TIP3    H1  387   3.909   3.316   4.459
  141TIP3    H2  388   3.808   3.413   4.517
  142TIP3   OH2  389   0.014   1.790   3.555
  142TIP3    H1  390   0.081   1.814   3.492
  142TIP3    H2  391  -0.044   1.866   3.559
  143TIP3   OH2  392   3.276   6.402   2.852
  143TIP3    H1  393   3.280   6.340   2.779
  143TIP3    H2  394   3.366   6.431   2.864
  144TIP3   OH2  395   4.627   2.898   5.335
  144TIP3    H1  396   4.675   2.845   5.398
  144TIP3    H2  397   4.623   2.985   5.374
  145TIP3   OH2  398   5.337   4.043   1.031
  145TIP3    H1  399   5.257   3.992   1.045
  145TIP3    H2  400   5.405   3.993   1.078
  146TIP3   OH2  401   1.423   1.525   1.488
  146TIP3    H1  402   1.422   1.513   1.583
  146TIP3    H2  403   1.495   1.587   1.473
  147TIP3   OH2  404   5.872   6.475   2.202
  147TIP3    H1  405   5.876   6.495   2.108
  147TIP3    H2  406   5.803   6.532   2.236
  148TIP3   OH2  407   3.854   3.199   5.386
  148TIP3    H1  408   3.904   3.280   5.376
  148TIP3    H2  409   3.804   3.192   5.304
  149TIP3   OH2  410   6.534   4.569   3.049
  149TIP3    H1  411   6.447   4.548   3.083
  149TIP3    H2  412   6.533   4.664   3.036
  150TIP3   OH2  413   0.876   3.155   5.233
  150TIP3    H1  414   0.893   3.118   5.146
  150TIP3    H2  415   0.823   3.089   5.278
  151TIP3   OH2  416   3.897   5.346   5.840
  151TIP3    H1  417   3.901   5.269   5.783
  151TIP3    H2  418   3.906   5.311   5.928
  152TIP3   OH2  419   4.592   0.163   0.340
  152TIP3    H1  420   4.685   0.157   0.318
  152TIP3    H2  421   4.583   0.109   0.419
  153TIP3   OH2  422   6.859   4.804   5.122
  153TIP3    H1  423   6.777   4.761   5.147
  153TIP3    H2  424   6.926   4.759   5.173
  154TIP3   OH2  425   4.156   2.765   5.504
  154TIP3    H1  426   4.095   2.839   5.493
  154TIP3    H2  427   4.226   2.800   5.559
  155TIP3   OH2  428   0.867   0.490   1.486
  155TIP3    H1  429   0.907   0.544   1.418
  155TIP3    H2  430   0.782   0.532   1.502
  156TIP3   OH2  431   2.876   4.705   2.217
  156TIP3    H1  432   2.941   4.772   2.198
  156TIP3    H2  433   2.831   4.689   2.134
  157TIP3   OH2  434   2.987   3.599   5.457
  157TIP3    H1  435   2.962   3.644   5.538
  157TIP3    H2  436   2.984   3.666   5.390
  158TIP3   OH2  437   7.144   2.519   1.090
  158TIP3    H1  438   7.140   2.426   1.112
  158TIP3    H2  439   7.097   2.563   1.162
  159TIP3   OH2  440   7.169   4.190   1.407
  159TIP3    H1  441   7.242   4.131   1.426
  159TIP3    H2  442   7.160   4.243   1.486
  160TIP3   OH2  443   6.871   0.013   4.284
  160TIP3    H1  444   6.873   0.037   4.191
  160TIP3    H2  445   6.838   0.091   4.328
  161TIP3   OH2  446   1.329   0.408   5.627
  161TIP3    H1  447   1.303   0.494   5.659
  161TIP3    H2  448   1.390   0.426   5.555
  162TIP3   OH2  449   0.836   5.627   0.854
  162TIP3    H1  450   0.750   5.621   0.896
  162TIP3    H2  451   0.895   5.655   0.924
  163TIP3   OH2  452   5.470   4.841   2.570
  163TIP3    H1  453   5.410   4.898   2.618
  163TIP3    H2  454   5.495   4.774   2.634
  164TIP3   OH2  455   2.182   5.011   2.528
  164TIP3    H1  456   2.128   5.089   2.517
  164TIP3    H2  457   2.122   4.945   2.562
  165TIP3   OH2  458   6.795   0.861   1.169
  165TIP3    H1  459   6.866   0.842   1.107
  165TIP3    H2  460   6.837   0.859   1.255
  166TIP3   OH2  461   4.998   2.325   4.547
  166TIP3    H1  462   4.903   2.325   4.536
  166TIP3    H2  463   5.030   2.261   4.483
  167TIP3   OH2  464   5.394   6.576   2.210
  167TIP3    H1  465   5.325   6.590   2.146
  167TIP3    H2  466   5.356   6.606   2.293
  168TIP3   OH2  467   4.433   6.397   1.278
  168TIP3    H1  468   4.458   6.321   1.226
  168TIP3    H2  469   4.347   6.374   1.313
  169TIP3   OH2  470   0.882   4.263   3.783
  169TIP3    H1  471   0.888   4.325   3.856
  169TIP3    H2  472   0.899   4.178   3.822
  170TIP3   OH2  473   1.842   6.279   5.699
  170TIP3    H1  474   1.835   6.304   5.606
  170TIP3    H2  475   1.778   6.335   5.743
  171TIP3   OH2  476   6.599   3.031   5.543
  171TIP3    H1  477   6.616   2.946   5.583
  171TIP3    H2  478   6.680   3.079   5.554
  172TIP3   OH2  479   5.640   1.545   3.182
  172TIP3    H1  480   5.731   1.534   3.208
  172TIP3    H2  481   5.640   1.627   3.131
  173TIP3   OH2  482   5.178   4.149   4.567
  173TIP3    H1  483   5.149   4.096   4.641
  173TIP3    H2  484   5.268   4.173   4.588
  174TIP3   OH2  485   5.359   3.221   2.663
  174TIP3    H1  486   5.356   3.130   2.631
  174TIP3    H2  487   5.401   3.270   2.592
  175TIP3   OH2  488   5.646   4.037   4.805
  175TIP3    H1  489   5.731   4.020   4.765
  175TIP3    H2  490   5.666   4.086   4.884
  176TIP3   OH2  491   0.708   0.562   2.007
  176TIP3    H1  492   0.790   0.565   2.056
  176TIP3    H2  493   0.731   0.520   1.924
  177TIP3   OH2  494   0.131   4.604   4.404
  177TIP3    H1  495   0.190   4.672   4.371
  177TIP3    H2  496   0.115   4.629   4.495
  178TIP3   OH2  497   5.998   4.634   4.261
  178TIP3    H1  498   5.986   4.680   4.177
  178TIP3    H2  499   5.932   4.564   4.260
  179TIP3   OH2  500   3.362   5.382   4.706
  179TIP3    H1  501   3.348   5.471   4.675
  179TIP3    H2  502   3.447   5.356   4.671
  180TIP3   OH2  503   5.302   4.924   5.533
  180TIP3    H1  504   5.384   4.918   5.485
  180TIP3    H2  505   5.312   5.001   5.589
  181TIP3   OH2  506   3.245   2.807   4.469
  181TIP3    H1  507   3.156   2.837   4.483
  181TIP3    H2  508   3.265   2.752   4.544
  182TIP3   OH2  509   6.078   4.800   4.500
  182TIP3    H1  510   6.115   4.799   4.412
  182TIP3    H2  511   5.988   4.769   4.487
  183TIP3   OH2  512   6.275   0.693   5.008
  183TIP3    H1  513   6.333   0.686   5.084
  183TIP3    H2  514   6.330   0.732   4.940
  184TIP3   OH2  515   3.585   4.238   5.173
  184TIP3    H1  516   3.558   4.151   5.203
  184TIP3    H2  517   3.583   4.233   5.078
  185TIP3   OH2  518   0.639   3.472   4.357
  185TIP3    H1  519   0.553   3.449   4.391
  185TIP3    H2  520   0.697   3.468   4.434
  186TIP3   OH2  521   2.829   5.588   4.170
  186TIP3    H1  522   2.789   5.615   4.252
  186TIP3    H2  523   2.907   5.643   4.161
  187TIP3   OH2  524   5.274   1.579   2.584
  187TIP3    H1  525   5.297   1.517   2.653
  187TIP3    H2  526   5.277   1.528   2.504
  188TIP3   OH2  527   5.026   6.544   3.138
  188TIP3    H1  528   5.000   6.534   3.047
  188TIP3    H2  529   5.121   6.549   3.136
  189TIP3   OH2  530   1.126   2.177   3.120
  189TIP3    H1  531   1.166   2.193   3.205
  189TIP3    H2  532   1.142   2.257   3.070
  190TIP3   OH2  533   6.952   2.505   1.634
  190TIP3    H1  534   6.858   2.521   1.626
  190TIP3    H2  535   6.976   2.545   1.718
  191TIP3   OH2  536   4.180   2.132   4.680
  191TIP3    H1  537   4.221   2.201   4.628
  191TIP3    H2  538   4.194   2.158   4.770
  192TIP3   OH2  539   0.868   1.987   5.342
  192TIP3    H1  540   0.890   1.972   5.250
  192TIP3    H2  541   0.899   2.076   5.359
  193TIP3   OH2  542   2.449   2.486   4.674
  193TIP3    H1  543   2.517   2.552   4.669
  193TIP3    H2  544   2.489   2.413   4.720
  194TIP3   OH2  545   2.875   5.405   4.671
  194TIP3    H1  546   2.915   5.472   4.727
  194TIP3    H2  547   2.945   5.342   4.655
  195TIP3   OH2  548   3.973   4.399   4.600
  195TIP3    H1  549   3.879   4.399   4.585
  195TIP3    H2  550   3.984   4.448   4.682
  196TIP3   OH2  551   6.526   5.271   0.935
  196TIP3    H1  552   6.515   5.179   0.913
  196TIP3    H2  553   6.519   5.317   0.852
  197TIP3   OH2  554   2.469   0.261   1.624
  197TIP3    H1  555   2.394   0.316   1.648
  197TIP3    H2  556   2.543   0.299   1.671
  198TIP3   OH2  557   1.626   5.577   0.324
  198TIP3    H1  558   1.703   5.550   0.274
  198TIP3    H2  559   1.598   5.498   0.370
  199TIP3   OH2  560   2.721   0.339   1.679
  199TIP3    H1  561   2.750   0.306   1.594
  199TIP3    H2  562   2.801   0.367   1.722
  200TIP3   OH2  563   6.690   5.075   3.171
  200TIP3    H1  564   6.731   5.085   3.258
  200TIP3    H2  565   6.756   5.029   3.119
  201TIP3   OH2  566   6.221   2.947   3.381
  201TIP3    H1  567   6.306   2.990   3.366
  201TIP3    H2  568   6.187   2.988   3.460
  202TIP3   OH2  569   1.633   4.409   1.135
  202TIP3    H1  570   1.668   4.447   1.054
  202TIP3    H2  571   1.550   4.370   1.109
  203TIP3   OH2  572   3.330   0.938   5.094
  203TIP3    H1  573   3.410   0.936   5.041
  203TIP3    H2  574   3.289   1.022   5.073
  204TIP3   OH2  575   1.328   4.491   2.329
  204TIP3    H1  576   1.418   4.525   2.333
  204TIP3    H2  577   1.307   4.491   2.235
  205TIP3   OH2  578   3.628   0.782   0.138
  205TIP3    H1  579   3.556   0.741   0.090
  205TIP3    H2  580   3.586   0.851   0.190
  206TIP3   OH2  581   2.668   4.300   3.939
  206TIP3    H1  582   2.633   4.383   3.906
  206TIP3    H2  583   2.612   4.278   4.013
  207TIP3   OH2  584   6.417   3.480   4.372
  207TIP3    H1  585   6.413   3.445   4.461
  207TIP3    H2  586   6.508   3.466   4.345
  208TIP3   OH2  587   2.469   1.363   1.003
  208TIP3    H1  588   2.470   1.428   0.933
  208TIP3    H2  589   2.391   1.384   1.054
  209TIP3   OH2  590   5.439   2.143   1.275
  209TIP3    H1  591   5.527   2.107   1.265
  209TIP3    H2  592   5.416   2.174   1.187
  210TIP3   OH2  593   0.482   6.111   0.152
  210TIP3    H1  594   0.560   6.129   0.100
  210TIP3    H2  595   0.471   6.016   0.148
  211TIP3   OH2  596   6.066   4.247   1.299
  211TIP3    H1  597   5.983   4.294   1.289
  211TIP3    H2  598   6.043   4.155   1.283
  212TIP3   OH2  599   5.806   4.373   5.255
  212TIP3    H1  600   5.756   4.311   5.309
  212TIP3    H2  601   5.757   4.455   5.260
  213TIP3   OH2  602   5.286   0.793   2.041
  213TIP3    H1  603   5.289   0.761   1.951
  213TIP3    H2  604   5.230   0.731   2.087
  214TIP3   OH2  605   5.456   5.761   5.689
  214TIP3    H1  606   5.482   5.682   5.737
  214TIP3    H2  607   5.536   5.813   5.682
  215TIP3   OH2  608   7.044   2.673   0.873
  215TIP3    H1  609   7.099   2.652   0.798
  215TIP3    H2  610   7.065   2.605   0.937
  216TIP3   OH2  611   5.722   0.056   3.513
  216TIP3    H1  612   5.679   0.130   3.558
  216TIP3    H2  613   5.685   0.057   3.425
  217TIP3   OH2  614   6.118   5.582   0.618
  217TIP3    H1  615   6.168   5.559   0.540
  217TIP3    H2  616   6.058   5.508   0.631
  218TIP3   OH2  617   5.459   1.309   0.303
  218TIP3    H1  618   5.379   1.259   0.318
  218TIP3    H2  619   5.439   1.363   0.227
  219TIP3   OH2  620   1.303   5.811   0.546
  219TIP3    H1  621   1.234   5.786   0.484
  219TIP3    H2  622   1.262   5.802   0.632
  220TIP3   OH2  623   6.400   3.609   1.630
  220TIP3    H1  624   6.432   3.681   1.576
  220TIP3    H2  625   6.479   3.563   1.659
  221TIP3   OH2  626   0.715   6.038   1.367
  221TIP3    H1  627   0.745   6.011   1.280
  221TIP3    H2  628   0.706   6.133   1.360
  222TIP3   OH2  629   1.558   6.579   2.876
  222TIP3    H1  630   1.629   6.639   2.900
  222TIP3    H2  631   1.536   6.603   2.786
  223TIP3   OH2  632   4.789   5.738   5.754
  223TIP3    H1  633   4.709   5.714   5.801
  223TIP3    H2  634   4.830   5.805   5.809
  224TIP3   OH2  635   7.195   3.996   3.196
  224TIP3    H1  636   7.124   4.057   3.175
  224TIP3    H2  637   7.240   3.982   3.113
  225TIP3   OH2  638   1.944   0.141   2.300
  225TIP3    H1  639   2.026   0.093   2.290
  225TIP3    H2  640   1.946   0.174   2.390
  226TIP3   OH2  641   2.564   5.217   1.399
  226TIP3    H1  642   2.578   5.308   1.373
  226TIP3    H2  643   2.474   5.215   1.431
  227TIP3   OH2  644   2.040   0.835   4.829
  227TIP3    H1  645   1.974   0.770   4.854
  227TIP3    H2  646   2.011   0.916   4.872
  228TIP3   OH2  647   3.326   0.640   0.032
  228TIP3    H1  648   3.295   0.707  -0.030
  228TIP3    H2  649   3.285   0.559   0.002
  229TIP3   OH2  650   1.292   1.540   5.647
  229TIP3    H1  651   1.198   1.544   5.633
  229TIP3    H2  652   1.317   1.629   5.672
  230TIP3   OH2  653   5.001   2.682   3.890
  230TIP3    H1  654   5.035   2.639   3.969
  230TIP3    H2  655   4.953   2.613   3.844
  231TIP3   OH2  656   5.837   3.166   5.314
  231TIP3    H1  657   5.858   3.248   5.358
  231TIP3    H2  658   5.914   3.111   5.329
  232TIP3   OH2  659   4.929   5.716   0.351
  232TIP3    H1  660   4.932   5.697   0.257
  232TIP3    H2  661   4.835   5.727   0.369
  233TIP3   OH2  662   1.553   0.048   4.416
  233TIP3    H1  663   1.632   0.084   4.376
  233TIP3    H2  664   1.583   0.007   4.497
  234TIP3   OH2  665   3.155   0.071   4.817
  234TIP3    H1  666   3.142   0.121   4.897
  234TIP3    H2  667   3.195   0.132   4.755
  235TIP3   OH2  668   3.530   6.182   0.727
  235TIP3    H1  669   3.621   6.199   0.753
  235TIP3    H2  670   3.477   6.231   0.789
  236TIP3   OH2  671   4.240   4.643   3.138
  236TIP3    H1  672   4.175   4.650   3.068
  236TIP3    H2  673   4.231   4.553   3.169
  237TIP3   OH2  674   6.085   3.653   1.108
  237TIP3    H1  675   6.181   3.658   1.109
  237TIP3    H2  676   6.060   3.691   1.023
  238TIP3   OH2  677   2.361   1.714   4.964
  238TIP3    H1  678   2.349   1.796   5.012
  238TIP3    H2  679   2.282   1.704   4.911
  239TIP3   OH2  680   2.505   3.714   1.016
  239TIP3    H1  681   2.600   3.707   1.013
  239TIP3    H2  682   2.487   3.767   1.094
  240TIP3   OH2  683   2.634   2.954   4.929
  240TIP3    H1  684   2.568   2.893   4.962
  240TIP3    H2  685   2.596   2.988   4.847
  241TIP3   OH2  686   1.223   6.710   1.746
  241TIP3    H1  687   1.193   6.753   1.826
  241TIP3    H2  688   1.281   6.774   1.704
  242TIP3   OH2  689   5.702   1.861   2.536
  242TIP3    H1  690   5.689   1.778   2.489
  242TIP3    H2  691   5.633   1.918   2.503
  243TIP3   OH2  692   0.739   2.987   5.367
  243TIP3    H1  693   0.673   3.050   5.394
  243TIP3    H2  694   0.705   2.902   5.395
  244TIP3   OH2  695   7.147   3.250   1.744
  244TIP3    H1  696   7.148   3.159   1.716
  244TIP3    H2  697   7.185   3.298   1.670
  245TIP3   OH2  698   3.540   6.065   3.719
  245TIP3    H1  699   3.473   6.063   3.650
  245TIP3    H2  700   3.542   6.156   3.748
  246TIP3   OH2  701   0.985   5.779   2.624
  246TIP3    H1  702   0.947   5.856   2.582
  246TIP3    H2  703   0.985   5.712   2.555
  247TIP3   OH2  704   2.143   5.999   4.616
  247TIP3    H1  705   2.169   6.083   4.654
  247TIP3    H2  706   2.157   5.936   4.687
  248TIP3   OH2  707   1.768   0.959   3.425
  248TIP3    H1  708   1.821   1.038   3.435
  248TIP3    H2  709   1.785   0.908   3.504
  249TIP3   OH2  710   0.451   3.764   5.342
  249TIP3    H1  711   0.469   3.811   5.261
  249TIP3    H2  712   0.381   3.702   5.318
  250TIP3   OH2  713   1.534   6.348   2.364
  250TIP3    H1  714   1.519   6.402   2.442
  250TIP3    H2  715   1.459   6.288   2.363
  251TIP3   OH2  716   5.435   2.305   5.762
  251TIP3    H1  717   5.446   2.325   5.855
  251TIP3    H2  718   5.382   2.378   5.728
  252TIP3   OH2  719   6.905   2.203   1.843
  252TIP3    H1  720   6.889   2.155   1.762
  252TIP3    H2  721   6.847   2.162   1.907
  253TIP3   OH2  722   3.009   5.577   5.611
  253TIP3    H1  723   2.959   5.650   5.647
  253TIP3    H2  724   3.071   5.554   5.680
  254TIP3   OH2  725   5.408   1.399   2.176
  254TIP3    H1  726   5.340   1.354   2.126
  254TIP3    H2  727   5.408   1.355   2.261
  255TIP3   OH2  728   1.009   0.125   0.922
  255TIP3    H1  729   0.994   0.163   1.009
  255TIP3    H2  730   0.962   0.183   0.862
  256TIP3   OH2  731   4.014   0.328   5.077
  256TIP3    H1  732   3.920   0.343   5.084
  256TIP3    H2  733   4.053   0.405   5.118
  257TIP3   OH2  734   3.601   6.579   1.812
  257TIP3    H1  735   3.610   6.592   1.718
  257TIP3    H2  736   3.635   6.659   1.851
  258TIP3   OH2  737   2.987   6.052   3.969
  258TIP3    H1  738   2.941   5.968   3.964
  258TIP3    H2  739   3.079   6.028   3.979
  259TIP3   OH2  740   3.032   1.572   3.858
  259TIP3    H1  741   3.048   1.532   3.772
  259TIP3    H2  742   3.115   1.562   3.904
  260TIP3   OH2  743   5.610   4.760   4.332
  260TIP3    H1  744   5.634   4.784   4.421
  260TIP3    H2  745   5.628   4.666   4.327
  261TIP3   OH2  746   4.119   5.696   5.496
  261TIP3    H1  747   4.153   5.607   5.491
  261TIP3    H2  748   4.024   5.685   5.494
  262TIP3   OH2  749   6.412   2.537   1.178
  262TIP3    H1  750   6.502   2.550   1.207
  262TIP3    H2  751   6.393   2.445   1.198
  263TIP3   OH2  752   5.016   4.709   5.199
  263TIP3    H1  753   4.985   4.799   5.196
  263TIP3    H2  754   5.079   4.708   5.271
  264TIP3   OH2  755   4.742   2.270   0.846
  264TIP3    H1  756   4.829   2.241   0.872
  264TIP3    H2  757   4.727   2.350   0.897
  265TIP3   OH2  758   0.360   2.144   5.223
  265TIP3    H1  759   0.315   2.183   5.148
  265TIP3    H2  760   0.373   2.053   5.199
  266TIP3   OH2  761   5.230   2.611   4.773
  266TIP3    H1  762   5.296   2.584   4.709
  266TIP3    H2  763   5.146   2.598   4.728
  267TIP3   OH2  764   2.459   5.995   3.307
  267TIP3    H1  765   2.451   6.046   3.226
  267TIP3    H2  766   2.550   5.966   3.309
  268TIP3   OH2  767   2.429   6.675   2.405
  268TIP3    H1  768   2.440   6.641   2.494
  268TIP3    H2  769   2.335   6.693   2.397
  269TIP3   OH2  770   2.075   3.109   2.488
  269TIP3    H1  771   2.152   3.101   2.432
  269TIP3    H2  772   2.029   3.026   2.478
  270TIP3   OH2  773   5.475   3.418   2.055
  270TIP3    H1  774   5.513   3.337   2.088
  270TIP3    H2  775   5.545   3.458   2.003
  271TIP3   OH2  776   3.098   1.981   3.090
  271TIP3    H1  777   3.083   2.075   3.100
  271TIP3    H2  778   3.121   1.952   3.178
  272TIP3   OH2  779   3.234   4.320   0.885
  272TIP3    H1  780   3.223   4.303   0.792
  272TIP3    H2  781   3.158   4.280   0.926
  273TIP3   OH2  782   4.337   0.166   0.201
  273TIP3    H1  783   4.269   0.211   0.251
  273TIP3    H2  784   4.396   0.130   0.268
  274TIP3   OH2  785   3.032   5.484   2.657
  274TIP3    H1  786   3.092   5.452   2.724
  274TIP3    H2  787   3.063   5.572   2.637
  275TIP3   OH2  788   7.178   6.061   4.044
  275TIP3    H1  789   7.258   6.048   3.992
  275TIP3    H2  790   7.151   5.973   4.070
  276TIP3   OH2  791   1.221   2.580   1.497
  276TIP3    H1  792   1.140   2.528   1.501
  276TIP3    H2  793   1.207   2.650   1.561
  277TIP3   OH2  794   0.588   6.746   4.571
  277TIP3    H1  795   0.665   6.767   4.625
  277TIP3    H2  796   0.625   6.713   4.489
  278TIP3   OH2  797   2.449   2.047   1.376
  278TIP3    H1  798   2.478   2.050   1.467
  278TIP3    H2  799   2.450   1.954   1.354
  279TIP3   OH2  800   0.713   2.639   2.272
  279TIP3    H1  801   0.787   2.681   2.315
  279TIP3    H2  802   0.709   2.552   2.311
  280TIP3   OH2  803   2.583   3.007   2.016
  280TIP3    H1  804   2.633   3.070   2.067
  280TIP3    H2  805   2.570   3.049   1.931
  281TIP3   OH2  806   2.639   5.636   2.886
  281TIP3    H1  807   2.669   5.545   2.893
  281TIP3    H2  808   2.621   5.647   2.792
  282TIP3   OH2  809   5.879   3.037   2.774
  282TIP3    H1  810   5.935   2.997   2.840
  282TIP3    H2  811   5.790   3.015   2.801
  283TIP3   OH2  812   4.671   4.354   0.072
  283TIP3    H1  813   4.704   4.271   0.039
  283TIP3    H2  814   4.748   4.412   0.072
  284TIP3   OH2  815   4.338   3.993   3.096
  284TIP3    H1  816   4.251   3.954   3.086
  284TIP3    H2  817   4.387   3.963   3.019
  285TIP3   OH2  818   7.183   2.174   4.355
  285TIP3    H1  819   7.162   2.241   4.290
  285TIP3    H2  820   7.239   2.112   4.308
  286TIP3   OH2  821   6.711   1.825   3.714
  286TIP3    H1  822   6.661   1.865   3.785
  286TIP3    H2  823   6.696   1.731   3.725
  287TIP3   OH2  824   4.457   2.821   2.031
  287TIP3    H1  825   4.520   2.861   1.970
  287TIP3    H2  826   4.444   2.887   2.099
  288TIP3   OH2  827   6.480   2.828   2.108
  288TIP3    H1  828   6.494   2.811   2.015
  288TIP3    H2  829   6.494   2.922   2.118
  289TIP3   OH2  830   2.934   6.655   3.487
  289TIP3    H1  831   2.865   6.592   3.468
  289TIP3    H2  832   2.975   6.622   3.567
  290TIP3   OH2  833   6.417   5.235   3.246
  290TIP3    H1  834   6.458   5.264   3.164
  290TIP3    H2  835   6.463   5.284   3.314
  291TIP3   OH2  836   0.683   2.722   5.136
  291TIP3    H1  837   0.633   2.723   5.217
  291TIP3    H2  838   0.644   2.791   5.082
  292TIP3   OH2  839   5.753   5.889   3.506
  292TIP3    H1  840   5.758   5.977   3.468
  292TIP3    H2  841   5.780   5.830   3.435
  293TIP3   OH2  842   0.336   3.791   3.190
  293TIP3    H1  843   0.366   3.873   3.150
  293TIP3    H2  844   0.363   3.723   3.128
  294TIP3   OH2  845   4.718   2.062   2.674
  294TIP3    H1  846   4.722   2.074   2.769
  294TIP3    H2  847   4.742   1.971   2.660
  295TIP3   OH2  848   4.456   4.824   3.315
  295TIP3    H1  849   4.376   4.774   3.301
  295TIP3    H2  850   4.495   4.833   3.228
  296TIP3   OH2  851   4.535   1.369   3.227
  296TIP3    H1  852   4.560   1.304   3.293
  296TIP3    H2  853   4.586   1.344   3.149
  297TIP3   OH2  854   4.934   5.167   1.757
  297TIP3    H1  855   4.978   5.229   1.816
  297TIP3    H2  856   4.962   5.081   1.787
  298TIP3   OH2  857   0.399   3.333   2.563
  298TIP3    H1  858   0.343   3.361   2.636
  298TIP3    H2  859   0.439   3.251   2.594
  299TIP3   OH2  860   4.356   5.865   3.837
  299TIP3    H1  861   4.325   5.779   3.866
  299TIP3    H2  862   4.278   5.907   3.800
  300TIP3   OH2  863   0.213   5.034   0.721
  300TIP3    H1  864   0.200   5.127   0.740
  300TIP3    H2  865   0.236   4.996   0.806
  301TIP3   OH2  866   4.009   5.701   3.360
  301TIP3    H1  867   3.914   5.706   3.355
  301TIP3    H2  868   4.038   5.792   3.351
  302TIP3   OH2  869   5.217   3.901   5.808
  302TIP3    H1  870   5.197   3.922   5.716
  302TIP3    H2  871   5.190   3.978   5.857
  303TIP3   OH2  872   6.904   3.679   2.997
  303TIP3    H1  873   6.869   3.642   3.078
  303TIP3    H2  874   6.893   3.773   3.007
  304TIP3   OH2  875   1.859   6.366   2.401
  304TIP3    H1  876   1.792   6.300   2.416
  304TIP3    H2  877   1.919   6.358   2.476
  305TIP3   OH2  878   4.537   1.491   4.290
  305TIP3    H1  879   4.462   1.505   4.349
  305TIP3    H2  880   4.549   1.396   4.289
  306TIP3   OH2  881   4.437   1.669   3.275
  306TIP3    H1  882   4.444   1.726   3.198
  306TIP3    H2  883   4.479   1.588   3.248
  307TIP3   OH2  884   6.855   4.606   1.267
  307TIP3    H1  885   6.810   4.544   1.324
  307TIP3    H2  886   6.945   4.574   1.262
  308TIP3   OH2  887   0.442   2.049   1.131
  308TIP3    H1  888   0.408   2.074   1.046
  308TIP3    H2  889   0.536   2.034   1.117
  309TIP3   OH2  890   4.646   0.668   4.044
  309TIP3    H1  891   4.721   0.695   3.991
  309TIP3    H2  892   4.672   0.690   4.134
  310TIP3   OH2  893   0.867   5.022   2.203
  310TIP3    H1  894   0.906   4.986   2.123
  310TIP3    H2  895   0.889   5.115   2.201
  311TIP3   OH2  896   6.131   1.920   0.343
  311TIP3    H1  897   6.086   1.987   0.292
  311TIP3    H2  898   6.071   1.898   0.413
  312TIP3   OH2  899   1.771   0.872   1.723
  312TIP3    H1  900   1.826   0.949   1.732
  312TIP3    H2  901   1.700   0.886   1.787
  313TIP3   OH2  902   6.405   2.462   2.237
  313TIP3    H1  903   6.348   2.393   2.272
  313TIP3    H2  904   6.346   2.533   2.213
  314TIP3   OH2  905   4.449   4.588   4.961
  314TIP3    H1  906   4.541   4.570   4.981
  314TIP3    H2  907   4.421   4.650   5.030
  315TIP3   OH2  908   4.962   2.001   3.258
  315TIP3    H1  909   5.055   1.984   3.272
  315TIP3    H2  910   4.933   2.046   3.337
  316TIP3   OH2  911   4.709   1.605   2.478
  316TIP3    H1  912   4.770   1.654   2.423
  316TIP3    H2  913   4.720   1.514   2.452
  317TIP3   OH2  914   1.159   0.813   1.566
  317TIP3    H1  915   1.094   0.806   1.636
  317TIP3    H2  916   1.179   0.722   1.542
  318TIP3   OH2  917   7.187   4.246   4.284
  318TIP3    H1  918   7.275   4.274   4.259
  318TIP3    H2  919   7.143   4.326   4.311
  319TIP3   OH2  920   4.749   0.142   1.706
  319TIP3    H1  921   4.761   0.202   1.633
  319TIP3    H2  922   4.734   0.057   1.665
  320TIP3   OH2  923   1.879   0.538   2.896
  320TIP3    H1  924   1.850   0.451   2.922
  320TIP3    H2  925   1.805   0.595   2.919
  321TIP3   OH2  926   4.380   0.473   3.292
  321TIP3    H1  927   4.293   0.495   3.327
  321TIP3    H2  928   4.419   0.557   3.270
  322TIP3   OH2  929   3.955   1.810   5.576
  322TIP3    H1  930   3.915   1.870   5.640
  322TIP3    H2  931   3.884   1.752   5.550
  323TIP3   OH2  932   7.023   1.104   0.498
  323TIP3    H1  933   6.944   1.056   0.523
  323TIP3    H2  934   6.994   1.163   0.428
  324TIP3   OH2  935   5.798   2.233   4.851
  324TIP3    H1  936   5.875   2.288   4.835
  324TIP3    H2  937   5.737   2.256   4.781
  325TIP3   OH2  938   1.871   1.663   0.642
  325TIP3    H1  939   1.907   1.586   0.686
  325TIP3    H2  940   1.944   1.725   0.640
  326TIP3   OH2  941   2.539   0.979   4.739
  326TIP3    H1  942   2.525   0.896   4.693
  326TIP3    H2  943   2.476   0.977   4.812
  327TIP3   OH2  944   5.826   4.813   5.551
  327TIP3    H1  945   5.857   4.903   5.543
  327TIP3    H2  946   5.887   4.761   5.499
  328TIP3   OH2  947   3.112   5.200   3.230
  328TIP3    H1  948   3.204   5.196   3.204
  328TIP3    H2  949   3.079   5.280   3.189
  329TIP3   OH2  950   0.503   1.143   0.624
  329TIP3    H1  951   0.493   1.191   0.542
  329TIP3    H2  952   0.415   1.116   0.647
  330TIP3   OH2  953   3.941   4.567   1.149
  330TIP3    H1  954   3.997   4.641   1.128
  330TIP3    H2  955   3.892   4.550   1.068
  331TIP3   OH2  956   0.558   4.315   1.568
  331TIP3    H1  957   0.583   4.370   1.494
  331TIP3    H2  958   0.585   4.227   1.543
  332TIP3   OH2  959   3.926   0.888   4.733
  332TIP3    H1  960   4.020   0.899   4.719
  332TIP3    H2  961   3.918   0.799   4.769
  333TIP3   OH2  962   6.625   3.793   2.017
  333TIP3    H1  963   6.606   3.781   1.924
  333TIP3    H2  964   6.638   3.704   2.051
  334TIP3   OH2  965   2.292   4.260   1.088
  334TIP3    H1  966   2.285   4.306   1.004
  334TIP3    H2  967   2.207   4.216   1.098
  335TIP3   OH2  968   2.927   4.071   4.530
  335TIP3    H1  969   2.926   4.059   4.625
  335TIP3    H2  970   2.960   3.987   4.496
  336TIP3   OH2  971   6.814   0.759   3.650
  336TIP3    H1  972   6.788   0.771   3.558
  336TIP3    H2  973   6.733   0.735   3.694
  337TIP3   OH2  974   0.330   0.836   3.471
  337TIP3    H1  975   0.309   0.818   3.562
  337TIP3    H2  976   0.251   0.878   3.437
  338TIP3   OH2  977   4.775   3.036   0.529
  338TIP3    H1  978   4.716   2.964   0.505
  338TIP3    H2  979   4.860   3.009   0.494
  339TIP3   OH2  980   3.294   2.032   4.949
  339TIP3    H1  981   3.323   2.112   4.906
  339TIP3    H2  982   3.348   2.027   5.028
  340TIP3   OH2  983   2.320   4.449   3.562
  340TIP3    H1  984   2.324   4.435   3.467
  340TIP3    H2  985   2.353   4.367   3.599
  341TIP3   OH2  986   5.547   5.841   1.923
  341TIP3    H1  987   5.467   5.814   1.969
  341TIP3    H2  988   5.536   5.806   1.835
  342TIP3   OH2  989   2.121   5.130   0.518
  342TIP3    H1  990   2.127   5.187   0.441
  342TIP3    H2  991   2.115   5.191   0.592
  343TIP3   OH2  992   5.097   5.207   3.222
  343TIP3    H1  993   5.152   5.158   3.282
  343TIP3    H2  994   5.008   5.195   3.255
  344TIP3   OH2  995   2.904   5.974   2.435
  344TIP3    H1  996   2.814   5.990   2.462
  344TIP3    H2  997   2.956   6.030   2.492
  345TIP3   OH2  998   6.139   4.691   2.287
  345TIP3    H1  999   6.147   4.715   2.380
  345TIP3    H2 1000   6.222   4.650   2.266
  346TIP3   OH2 1001   3.648   3.100   2.775
  346TIP3    H1 1002   3.659   3.029   2.839
  346TIP3    H2 1003   3.560   3.089   2.741
  347TIP3   OH2 1004   1.840   1.230   1.440
  347TIP3    H1 1005   1.825   1.246   1.533
  347TIP3    H2 1006   1.856   1.136   1.434
  348TIP3   OH2 1007   0.468   3.443   0.656
  348TIP3    H1 1008   0.417   3.381   0.604
  348TIP3    H2 1009   0.473   3.522   0.603
  349TIP3   OH2 1010   3.625   1.450   3.487
  349TIP3    H1 1011   3.643   1.380   3.550
  349TIP3    H2 1012   3.674   1.526   3.521
  350TIP3   OH2 1013   5.244   2.710   0.075
  350TIP3    H1 1014   5.166   2.758   0.047
  350TIP3    H2 1015   5.309   2.727   0.006
  351TIP3   OH2 1016   6.213   6.232   3.310
  351TIP3    H1 1017   6.150   6.216   3.240
  351TIP3    H2 1018   6.294   6.257   3.265
  352TIP3   OH2 1019   3.827   3.188   1.561
  352TIP3    H1 1020   3.906   3.234   1.589
  352TIP3    H2 1021   3.776   3.255   1.514
  353TIP3   OH2 1022   0.110   3.584   1.143
  353TIP3    H1 1023   0.122   3.655   1.079
  353TIP3    H2 1024   0.054   3.622   1.211
  354TIP3   OH2 1025   1.596   3.948   2.629
  354TIP3    H1 1026   1.597   3.923   2.536
  354TIP3    H2 1027   1.684   3.984   2.644
  355TIP3   OH2 1028   4.270   1.418   3.289
  355TIP3    H1 1029   4.217   1.455   3.218
  355TIP3    H2 1030   4.360   1.425   3.258
  356TIP3   OH2 1031   4.935   0.993   4.779
  356TIP3    H1 1032   5.030   1.006   4.783
  356TIP3    H2 1033   4.924   0.901   4.755
  357TIP3   OH2 1034   1.574   5.413   5.831
  357TIP3    H1 1035   1.482   5.438   5.824
  357TIP3    H2 1036   1.573   5.317   5.822
  358TIP3   OH2 1037   2.399   1.725   2.940
  358TIP3    H1 1038   2.360   1.645   2.974
  358TIP3    H2 1039   2.353   1.796   2.985
  359TIP3   OH2 1040   3.724   0.541   3.507
  359TIP3    H1 1041   3.723   0.544   3.602
  359TIP3    H2 1042   3.735   0.632   3.480
  360TIP3   OH2 1043   6.617   0.080   3.327
  360TIP3    H1 1044   6.626   0.147   3.395
  360TIP3    H2 1045   6.619  -0.003   3.374
  361TIP3   OH2 1046   6.901   6.628   3.503
  361TIP3    H1 1047   6.980   6.607   3.553
  361TIP3    H2 1048   6.899   6.723   3.500
  362TIP3   OH2 1049   3.870   1.036   5.292
  362TIP3    H1 1050   3.825   0.969   5.344
  362TIP3    H2 1051   3.802   1.071   5.235
  363TIP3   OH2 1052   5.708   1.456   4.850
  363TIP3    H1 1053   5.732   1.365   4.829
  363TIP3    H2 1054   5.786   1.493   4.889
  364TIP3   OH2 1055   0.893   4.590   0.248
  364TIP3    H1 1056   0.865   4.675   0.281
  364TIP3    H2 1057   0.812   4.546   0.223
  365TIP3   OH2 1058   7.126   4.509   2.869
  365TIP3    H1 1059   7.128   4.542   2.959
  365TIP3    H2 1060   7.126   4.588   2.814
  366TIP3   OH2 1061   6.635   2.853   3.168
  366TIP3    H1 1062   6.685   2.915   3.113
  366TIP3    H2 1063   6.688   2.774   3.168
  367TIP3   OH2 1064   6.380   0.220   1.994
  367TIP3    H1 1065   6.386   0.129   2.022
  367TIP3    H2 1066   6.289   0.245   2.009
  368TIP3   OH2 1067   6.506   3.071   3.289
  368TIP3    H1 1068   6.447   3.114   3.228
  368TIP3    H2 1069   6.546   3.001   3.239
  369TIP3   OH2 1070   4.162   6.616   1.651
  369TIP3    H1 1071   4.152   6.609   1.746
  369TIP3    H2 1072   4.073   6.625   1.618
  370TIP3   OH2 1073   6.107   0.496   4.923
  370TIP3    H1 1074   6.165   0.561   4.963
  370TIP3    H2 1075   6.063   0.454   4.997
  371TIP3   OH2 1076   7.197   6.112   0.656
  371TIP3    H1 1077   7.224   6.174   0.588
  371TIP3    H2 1078   7.183   6.029   0.610
  372TIP3   OH2 1079   4.821   4.952   0.537
  372TIP3    H1 1080   4.750   4.913   0.587
  372TIP3    H2 1081   4.888   4.883   0.533
  373TIP3   OH2 1082   4.060   6.198   4.171
  373TIP3    H1 1083   4.079   6.214   4.264
  373TIP3    H2 1084   4.115   6.123   4.148
  374TIP3   OH2 1085   1.670   0.951   1.398
  374TIP3    H1 1086   1.715   0.868   1.416
  374TIP3    H2 1087   1.591   0.948   1.451
  375TIP3   OH2 1088   1.653   4.870   2.901
  375TIP3    H1 1089   1.695   4.880   2.816
  375TIP3    H2 1090   1.609   4.954   2.916
  376TIP3   OH2 1091   4.325   6.619   4.957
  376TIP3    H1 1092   4.285   6.532   4.961
  376TIP3    H2 1093   4.411   6.609   4.997
  377TIP3   OH2 1094   3.498   0.430   4.489
  377TIP3    H1 1095   3.468   0.498   4.550
  377TIP3    H2 1096   3.454   0.452   4.407
  378TIP3   OH2 1097   6.934   0.523   4.879
  378TIP3    H1 1098   6.928   0.500   4.972
  378TIP3    H2 1099   6.940   0.439   4.833
  379TIP3   OH2 1100   2.936   1.149   3.620
  379TIP3    H1 1101   3.002   1.190   3.564
  379TIP3    H2 1102   2.879   1.222   3.646
  380TIP3   OH2 1103   5.461   2.575   1.059
  380TIP3    H1 1104   5.479   2.614   0.974
  380TIP3    H2 1105   5.533   2.513   1.073
  381TIP3   OH2 1106   5.942   3.274   0.278
  381TIP3    H1 1107   5.891   3.332   0.333
  381TIP3    H2 1108   6.032   3.306   0.286
  382TIP3   OH2 1109   2.330   2.219   2.843
  382TIP3    H1 1110   2.264   2.245   2.778
  382TIP3    H2 1111   2.295   2.252   2.926
  383TIP3   OH2 1112   2.132   6.316   1.930
  383TIP3    H1 1113   2.192   6.241   1.928
  383TIP3    H2 1114   2.107   6.324   2.023
  384TIP3   OH2 1115   3.831   6.254   4.046
  384TIP3    H1 1116   3.832   6.349   4.057
  384TIP3    H2 1117   3.923   6.228   4.057
  385TIP3   OH2 1118   6.134   5.704   0.305
  385TIP3    H1 1119   6.227   5.719   0.292
  385TIP3    H2 1120   6.125   5.609   0.310
  386TIP3   OH2 1121   0.904   3.779   4.233
  386TIP3    H1 1122   0.934   3.692   4.257
  386TIP3    H2 1123   0.834   3.798   4.295
  387TIP3   OH2 1124   2.592   6.741   3.163
  387TIP3    H1 1125   2.665   6.762   3.221
  387TIP3    H2 1126   2.522   6.710   3.221
  388TIP3   OH2 1127   3.626   0.991   3.228
  388TIP3    H1 1128   3.634   1.039   3.311
  388TIP3    H2 1129   3.609   1.058   3.163
  389TIP3   OH2 1130   2.113   2.705   5.093
  389TIP3    H1 1131   2.153   2.677   5.011
  389TIP3    H2 1132   2.112   2.626   5.148
  390TIP3   OH2 1133   5.050   2.269   0.508
  390TIP3    H1 1134   5.098   2.210   0.566
  390TIP3    H2 1135   5.011   2.212   0.442
  391TIP3   OH2 1136   2.560   5.860   5.720
  391TIP3    H1 1137   2.477   5.833   5.759
  391TIP3    H2 1138   2.535   5.895   5.634
  392TIP3   OH2 1139   4.195   5.391   1.622
  392TIP3    H1 1140   4.203   5.304   1.661
  392TIP3    H2 1141   4.105   5.417   1.639
  393TIP3   OH2 1142   0.134   5.190   2.835
  393TIP3    H1 1143   0.080   5.132   2.781
  393TIP3    H2 1144   0.162   5.135   2.908
  394TIP3   OH2 1145   2.317   2.604   3.976
  394TIP3    H1 1146   2.338   2.674   3.914
  394TIP3    H2 1147   2.235   2.566   3.943
  395TIP3   OH2 1148   7.120   2.283   1.633
  395TIP3    H1 1149   7.091   2.241   1.714
  395TIP3    H2 1150   7.069   2.365   1.629
  396TIP3   OH2 1151   2.523   3.003   5.596
  396TIP3    H1 1152   2.523   2.959   5.511
  396TIP3    H2 1153   2.499   3.093   5.576
  397TIP3   OH2 1154   1.137   1.037   2.884
  397TIP3    H1 1155   1.114   1.090   2.960
  397TIP3    H2 1156   1.056   0.992   2.860
  398TIP3   OH2 1157   5.496   4.115   0.073
  398TIP3    H1 1158   5.560   4.081   0.136
  398TIP3    H2 1159   5.520   4.073  -0.010
  399TIP3   OH2 1160   6.013   0.756   4.888
  399TIP3    H1 1161   6.071   0.736   4.961
  399TIP3    H2 1162   6.030   0.687   4.823
  400TIP3   OH2 1163   3.296   6.240   0.023
  400TIP3    H1 1164   3.320   6.150   0.000
  400TIP3    H2 1165   3.355   6.262   0.095
  401TIP3   OH2 1166   5.991   0.840   1.099
  401TIP3    H1 1167   5.927   0.770   1.085
  401TIP3    H2 1168   6.070   0.809   1.055
  402TIP3   OH2 1169   3.829   0.369   4.523
  402TIP3    H1 1170   3.872   0.434   4.468
  402TIP3    H2 1171   3.769   0.419   4.577
  403TIP3   OH2 1172   3.916   0.873   0.552
  403TIP3    H1 1173   4.012   0.873   0.562
  403TIP3    H2 1174   3.903   0.876   0.457
  404TIP3   OH2 1175   6.528   2.792   1.830
  404TIP3    H1 1176   6.538   2.697   1.829
  404TIP3    H2 1177   6.454   2.809   1.771
  405TIP3   OH2 1178   0.940   2.593   1.136
  405TIP3    H1 1179   0.881   2.518   1.127
  405TIP3    H2 1180   1.022   2.565   1.095
  406TIP3   OH2 1181   3.818   1.347   4.136
  406TIP3    H1 1182   3.797   1.434   4.172
  406TIP3    H2 1183   3.849   1.298   4.212
  407TIP3   OH2 1184   6.793   5.639   2.878
  407TIP3    H1 1185   6.767   5.601   2.794
  407TIP3    H2 1186   6.882   5.672   2.862
  408TIP3   OH2 1187   0.870   3.936   2.816
  408TIP3    H1 1188   0.961   3.926   2.844
  408TIP3    H2 1189   0.841   4.016   2.860
  409TIP3   OH2 1190   3.865   3.200   1.073
  409TIP3    H1 1191   3.830   3.251   1.000
  409TIP3    H2 1192   3.820   3.234   1.150
  410TIP3   OH2 1193   2.016   4.176   1.583
  410TIP3    H1 1194   2.005   4.269   1.603
  410TIP3    H2 1195   2.064   4.141   1.659
  411TIP3   OH2 1196   2.288   1.296   5.678
  411TIP3    H1 1197   2.287   1.324   5.770
  411TIP3    H2 1198   2.340   1.362   5.633
  412TIP3   OH2 1199   2.278   6.119   5.034
  412TIP3    H1 1200   2.334   6.044   5.018
  412TIP3    H2 1201   2.333   6.179   5.084
  413TIP3   OH2 1202   4.428   5.966   1.037
  413TIP3    H1 1203   4.497   5.914   1.080
  413TIP3    H2 1204   4.447   6.057   1.063
  414TIP3   OH2 1205   5.190   4.864   1.251
  414TIP3    H1 1206   5.214   4.938   1.306
  414TIP3    H2 1207   5.184   4.790   1.312
  415TIP3   OH2 1208   1.634   5.560   2.124
  415TIP3    H1 1209   1.710   5.571   2.067
  415TIP3    H2 1210   1.621   5.646   2.164
  416TIP3   OH2 1211   2.336   4.157   1.596
  416TIP3    H1 1212   2.275   4.095   1.554
  416TIP3    H2 1213   2.293   4.242   1.589
  417TIP3   OH2 1214   6.359   2.906   2.475
  417TIP3    H1 1215   6.333   2.936   2.562
  417TIP3    H2 1216   6.290   2.937   2.416
  418TIP3   OH2 1217   2.756   4.907   1.300
  418TIP3    H1 1218   2.720   4.820   1.284
  418TIP3    H2 1219   2.851   4.895   1.299
  419TIP3   OH2 1220   6.503   3.614   3.126
  419TIP3    H1 1221   6.502   3.563   3.045
  419TIP3    H2 1222   6.590   3.599   3.163
  420TIP3   OH2 1223   4.683   5.198   3.636
  420TIP3    H1 1224   4.699   5.105   3.656
  420TIP3    H2 1225   4.770   5.238   3.641
  421TIP3   OH2 1226   2.162   5.793   0.388
  421TIP3    H1 1227   2.217   5.716   0.399
  421TIP3    H2 1228   2.208   5.846   0.323
  422TIP3   OH2 1229   1.219   0.630   1.155
  422TIP3    H1 1230   1.221   0.546   1.109
  422TIP3    H2 1231   1.308   0.664   1.146
  423TIP3   OH2 1232   6.159   4.741   0.120
  423TIP3    H1 1233   6.232   4.801   0.106
  423TIP3    H2 1234   6.132   4.757   0.210
  424TIP3   OH2 1235   7.059   4.365   3.998
  424TIP3    H1 1236   6.985   4.336   3.945
  424TIP3    H2 1237   7.103   4.285   4.026
  425TIP3   OH2 1238   7.076   3.696   4.483
  425TIP3    H1 1239   7.156   3.716   4.532
  425TIP3    H2 1240   7.031   3.631   4.536
  426TIP3   OH2 1241   4.907   4.042   5.413
  426TIP3    H1 1242   4.912   4.017   5.505
  426TIP3    H2 1243   4.850   4.119   5.412
  427TIP3   OH2 1244   3.574   1.200   0.144
  427TIP3    H1 1245   3.550   1.261   0.074
  427TIP3    H2 1246   3.505   1.134   0.142
  428TIP3   OH2 1247   6.474   1.044   4.718
  428TIP3    H1 1248   6.501   1.133   4.695
  428TIP3    H2 1249   6.499   0.992   4.641
  429TIP3   OH2 1250   1.547   1.899   4.478
  429TIP3    H1 1251   1.631   1.869   4.516
  429TIP3    H2 1252   1.491   1.914   4.554
  430TIP3   OH2 1253   0.234   2.389   5.040
  430TIP3    H1 1254   0.217   2.352   4.954
  430TIP3    H2 1255   0.296   2.461   5.024
  431TIP3   OH2 1256   5.144   5.490   3.908
  431TIP3    H1 1257   5.093   5.498   3.827
  431TIP3    H2 1258   5.190   5.406   3.898
  432TIP3   OH2 1259   1.300   3.698   0.998
  432TIP3    H1 1260   1.350   3.775   1.026
  432TIP3    H2 1261   1.229   3.690   1.062
  433TIP3   OH2 1262   6.204   2.489   4.226
  433TIP3    H1 1263   6.176   2.572   4.266
  433TIP3    H2 1264   6.185   2.500   4.133
  434TIP3   OH2 1265   1.780   1.604   1.753
  434TIP3    H1 1266   1.850   1.650   1.707
  434TIP3    H2 1267   1.772   1.649   1.837
  435TIP3   OH2 1268   6.196   3.344   5.820
  435TIP3    H1 1269   6.156   3.423   5.857
  435TIP3    H2 1270   6.124   3.282   5.812
  436TIP3   OH2 1271   6.939   6.100   4.140
  436TIP3    H1 1272   6.886   6.032   4.098
  436TIP3    H2 1273   7.024   6.095   4.095
  437TIP3   OH2 1274   2.698   6.400   5.428
  437TIP3    H1 1275   2.690   6.353   5.511
  437TIP3    H2 1276   2.738   6.337   5.368
  438TIP3   OH2 1277   1.435   4.027   2.253
  438TIP3    H1 1278   1.392   3.971   2.318
  438TIP3    H2 1279   1.498   3.969   2.210
  439TIP3   OH2 1280   1.451   3.447   5.343
  439TIP3    H1 1281   1.445   3.405   5.257
  439TIP3    H2 1282   1.544   3.465   5.354
  440TIP3   OH2 1283   3.785   3.914   5.432
  440TIP3    H1 1284   3.873   3.887   5.460
  440TIP3    H2 1285   3.783   3.897   5.338
  441TIP3   OH2 1286   6.774   6.743   3.233
  441TIP3    H1 1287   6.686   6.777   3.220
  441TIP3    H2 1288   6.820   6.811   3.282
  442TIP3   OH2 1289   5.618   2.455   2.782
  442TIP3    H1 1290   5.616   2.393   2.709
  442TIP3    H2 1291   5.568   2.531   2.750
  443TIP3   OH2 1292   5.425   1.175   4.018
  443TIP3    H1 1293   5.440   1.194   3.925
  443TIP3    H2 1294   5.445   1.257   4.062
  444TIP3   OH2 1295   3.195   5.078   2.898
  444TIP3    H1 1296   3.267   5.119   2.850
  444TIP3    H2 1297   3.132   5.054   2.829
  445TIP3   OH2 1298   3.248   1.190   1.676
  445TIP3    H1 1299   3.163   1.147   1.688
  445TIP3    H2 1300   3.302   1.126   1.631
  446TIP3   OH2 1301   0.433   2.301   2.339
  446TIP3    H1 1302   0.413   2.320   2.247
  446TIP3    H2 1303   0.504   2.362   2.360
  447TIP3   OH2 1304   4.861   6.460   3.349
  447TIP3    H1 1305   4.933   6.479   3.289
  447TIP3    H2 1306   4.857   6.537   3.406
  448TIP3   OH2 1307   0.560   0.972   3.865
  448TIP3    H1 1308   0.613   1.008   3.794
  448TIP3    H2 1309   0.609   0.895   3.895
  449TIP3   OH2 1310   3.860   6.554   4.103
  449TIP3    H1 1311   3.911   6.561   4.183
  449TIP3    H2 1312   3.908   6.607   4.039
  450TIP3   OH2 1313   4.748   6.344   4.880
  450TIP3    H1 1314   4.657   6.316   4.867
  450TIP3    H2 1315   4.769   6.313   4.968
  451TIP3   OH2 1316   1.480   5.077   1.904
  451TIP3    H1 1317   1.466   5.048   1.814
  451TIP3    H2 1318   1.415   5.029   1.956
  452TIP3   OH2 1319   3.913   6.653   5.642
  452TIP3    H1 1320   3.982   6.590   5.662
  452TIP3    H2 1321   3.952   6.712   5.578
  453TIP3   OH2 1322   1.816   1.672   3.151
  453TIP3    H1 1323   1.726   1.671   3.182
  453TIP3    H2 1324   1.869   1.661   3.230
  454TIP3   OH2 1325   0.899   0.412   4.976
  454TIP3    H1 1326   0.880   0.478   4.909
  454TIP3    H2 1327   0.870   0.330   4.937
  455TIP3   OH2 1328   0.444   5.417   3.413
  455TIP3    H1 1329   0.513   5.476   3.384
  455TIP3    H2 1330   0.366   5.445   3.365
  456TIP3   OH2 1331   3.607   4.658   5.164
  456TIP3    H1 1332   3.545   4.632   5.232
  456TIP3    H2 1333   3.688   4.613   5.188
  457TIP3   OH2 1334   3.975   3.773   2.603
  457TIP3    H1 1335   4.046   3.808   2.656
  457TIP3    H2 1336   3.901   3.832   2.620
  458TIP3   OH2 1337   6.883   0.344   5.545
  458TIP3    H1 1338   6.824   0.275   5.572
  458TIP3    H2 1339   6.940   0.359   5.620
  459TIP3   OH2 1340   0.694   1.806   1.392
  459TIP3    H1 1341   0.786   1.825   1.375
  459TIP3    H2 1342   0.696   1.730   1.450
  460TIP3   OH2 1343   5.913   1.701   4.167
  460TIP3    H1 1344   5.877   1.624   4.125
  460TIP3    H2 1345   5.888   1.774   4.110
  461TIP3   OH2 1346   1.915   0.916   2.413
  461TIP3    H1 1347   1.976   0.915   2.486
  461TIP3    H2 1348   1.965   0.952   2.340
  462TIP3   OH2 1349   1.367   1.948   1.441
  462TIP3    H1 1350   1.461   1.939   1.462
  462TIP3    H2 1351   1.348   2.041   1.458
  463TIP3   OH2 1352   1.712   3.022   3.303
  463TIP3    H1 1353   1.649   3.093   3.312
  463TIP3    H2 1354   1.743   3.028   3.213
  464TIP3   OH2 1355   2.451   3.676   1.439
  464TIP3    H1 1356   2.534   3.642   1.405
  464TIP3    H2 1357   2.424   3.611   1.504
  465TIP3   OH2 1358   4.696   0.988   5.757
  465TIP3    H1 1359   4.752   1.064   5.771
  465TIP3    H2 1360   4.669   0.961   5.845
  466TIP3   OH2 1361   0.912   1.493   1.943
  466TIP3    H1 1362   0.965   1.507   1.864
  466TIP3    H2 1363   0.838   1.440   1.913
  467TIP3   OH2 1364   1.197   1.273   5.286
  467TIP3    H1 1365   1.263   1.213   5.253
  467TIP3    H2 1366   1.226   1.296   5.374
  468TIP3   OH2 1367   3.093   2.505   5.176
  468TIP3    H1 1368   3.168   2.513   5.116
  468TIP3    H2 1369   3.058   2.418   5.159
  469TIP3   OH2 1370   1.350   1.806   4.235
  469TIP3    H1 1371   1.387   1.774   4.318
  469TIP3    H2 1372   1.375   1.899   4.233
  470TIP3   OH2 1373   0.193   4.731   5.014
  470TIP3    H1 1374   0.100   4.754   5.017
  470TIP3    H2 1375   0.234   4.788   5.080
  471TIP3   OH2 1376   4.046   4.309   4.947
  471TIP3    H1 1377   4.122   4.346   4.992
  471TIP3    H2 1378   3.994   4.386   4.922
  472TIP3   OH2 1379   5.889   5.729   3.296
  472TIP3    H1 1380   5.960   5.793   3.290
  472TIP3    H2 1381   5.921   5.664   3.359
  473TIP3   OH2 1382   1.585   4.298   4.195
  473TIP3    H1 1383   1.498   4.263   4.216
  473TIP3    H2 1384   1.643   4.223   4.205
  474TIP3   OH2 1385   6.771   6.440   5.866
  474TIP3    H1 1386   6.861   6.410   5.875
  474TIP3    H2 1387   6.722   6.362   5.839
  475TIP3   OH2 1388   7.135   1.061   4.135
  475TIP3    H1 1389   7.064   1.049   4.072
  475TIP3    H2 1390   7.092   1.056   4.220
  476TIP3   OH2 1391   3.670   6.261   4.982
  476TIP3    H1 1392   3.710   6.183   4.944
  476TIP3    H2 1393   3.712   6.335   4.938
  477TIP3   OH2 1394   2.597   3.607   5.354
  477TIP3    H1 1395   2.634   3.696   5.357
  477TIP3    H2 1396   2.508   3.617   5.388
  478TIP3   OH2 1397   6.930   1.579   0.578
  478TIP3    H1 1398   6.900   1.612   0.493
  478TIP3    H2 1399   6.898   1.643   0.641
  479TIP3   OH2 1400   2.900   0.860   4.989
  479TIP3    H1 1401   2.936   0.793   5.047
  479TIP3    H2 1402   2.890   0.937   5.045
  480TIP3   OH2 1403   1.674   6.764   1.594
  480TIP3    H1 1404   1.744   6.709   1.627
  480TIP3    H2 1405   1.600   6.704   1.581
  481TIP3   OH2 1406   4.929   1.599   5.318
  481TIP3    H1 1407   5.021   1.595   5.289
  481TIP3    H2 1408   4.933   1.584   5.412
  482TIP3   OH2 1409   6.125   6.794   4.750
  482TIP3    H1 1410   6.143   6.701   4.741
  482TIP3    H2 1411   6.207   6.832   4.782
  483TIP3   OH2 1412   6.835   4.157   0.377
  483TIP3    H1 1413   6.765   4.123   0.433
  483TIP3    H2 1414   6.797   4.236   0.338
  484TIP3   OH2 1415   2.504   6.034   1.458
  484TIP3    H1 1416   2.462   5.980   1.392
  484TIP3    H2 1417   2.434   6.059   1.518
  485TIP3   OH2 1418   2.202   4.266   2.404
  485TIP3    H1 1419   2.125   4.303   2.359
  485TIP3    H2 1420   2.224   4.331   2.471
  486TIP3   OH2 1421   6.828   2.930   2.195
  486TIP3    H1 1422   6.764   2.953   2.262
  486TIP3    H2 1423   6.796   2.971   2.115
  487TIP3   OH2 1424   4.947   2.536   0.503
  487TIP3    H1 1425   4.977   2.445   0.508
  487TIP3    H2 1426   5.023   2.587   0.532
  488TIP3   OH2 1427   5.066   5.049   5.720
  488TIP3    H1 1428   5.150   5.095   5.728
  488TIP3    H2 1429   5.049   5.045   5.626
  489TIP3   OH2 1430   6.638   2.201   0.081
  489TIP3    H1 1431   6.729   2.174   0.080
  489TIP3    H2 1432   6.590   2.126   0.045
  490TIP3   OH2 1433   3.855   6.419   3.171
  490TIP3    H1 1434   3.765   6.391   3.158
  490TIP3    H2 1435   3.907   6.361   3.115
  491TIP3   OH2 1436   6.572   1.153   0.708
  491TIP3    H1 1437   6.600   1.241   0.681
  491TIP3    H2 1438   6.646   1.096   0.686
  492TIP3   OH2 1439   1.277   6.061   5.222
  492TIP3    H1 1440   1.293   5.967   5.216
  492TIP3    H2 1441   1.339   6.092   5.288
  493TIP3   OH2 1442   1.434   3.018   3.633
  493TIP3    H1 1443   1.433   3.089   3.697
  493TIP3    H2 1444   1.525   2.988   3.632
  494TIP3   OH2 1445   2.750   3.137   4.606
  494TIP3    H1 1446   2.772   3.157   4.697
  494TIP3    H2 1447   2.677   3.075   4.612
  495TIP3   OH2 1448   6.503   6.041   2.560
  495TIP3    H1 1449   6.533   6.017   2.472
  495TIP3    H2 1450   6.564   6.110   2.588
  496TIP3   OH2 1451   6.205   2.155   4.688
  496TIP3    H1 1452   6.297   2.151   4.714
  496TIP3    H2 1453   6.189   2.072   4.643
  497TIP3   OH2 1454   6.317   6.521   1.816
  497TIP3    H1 1455   6.397   6.468   1.816
  497TIP3    H2 1456   6.340   6.599   1.867
  498TIP3   OH2 1457   2.803   4.281   2.595
  498TIP3    H1 1458   2.778   4.371   2.576
  498TIP3    H2 1459   2.723   4.230   2.577
  499TIP3   OH2 1460   6.233   5.694   1.932
  499TIP3    H1 1461   6.192   5.689   1.846
  499TIP3    H2 1462   6.245   5.603   1.958
  500TIP3   OH2 1463   3.100   4.428   3.972
  500TIP3    H1 1464   3.047   4.350   3.955
  500TIP3    H2 1465   3.118   4.424   4.066
  501TIP3   OH2 1466   6.112   3.203   5.073
  501TIP3    H1 1467   6.093   3.247   5.157
  501TIP3    H2 1468   6.177   3.137   5.095
  502TIP3   OH2 1469   2.883   2.238   1.288
  502TIP3    H1 1470   2.832   2.318   1.282
  502TIP3    H2 1471   2.876   2.211   1.380
  503TIP3   OH2 1472   6.275   6.072   1.589
  503TIP3    H1 1473   6.352   6.016   1.580
  503TIP3    H2 1474   6.218   6.025   1.650
  504TIP3   OH2 1475   5.205   4.714   3.476
  504TIP3    H1 1476   5.118   4.744   3.503
  504TIP3    H2 1477   5.187   4.644   3.413
  505TIP3   OH2 1478   3.068   3.172   0.465
  505TIP3    H1 1479   3.149   3.123   0.479
  505TIP3    H2 1480   3.026   3.126   0.392
  506TIP3   OH2 1481   3.873   6.006   1.276
  506TIP3    H1 1482   3.814   6.072   1.238
  506TIP3    H2 1483   3.858   5.928   1.222
  507TIP3   OH2 1484   1.386   0.525   0.768
  507TIP3    H1 1485   1.381   0.532   0.863
  507TIP3    H2 1486   1.478   0.540   0.747
  508TIP3   OH2 1487   4.847   5.247   4.151
  508TIP3    H1 1488   4.867   5.182   4.084
  508TIP3    H2 1489   4.929   5.296   4.162
  509TIP3   OH2 1490   4.458   1.941   2.214
  509TIP3    H1 1491   4.525   1.992   2.168
  509TIP3    H2 1492   4.455   1.858   2.167
  510TIP3   OH2 1493   6.077   2.944   2.977
  510TIP3    H1 1494   6.064   3.016   3.038
  510TIP3    H2 1495   6.151   2.895   3.014
  511TIP3   OH2 1496   4.315   1.541   4.424
  511TIP3    H1 1497   4.254   1.543   4.351
  511TIP3    H2 1498   4.262   1.558   4.502
  512TIP3   OH2 1499   2.697   1.834   5.108
  512TIP3    H1 1500   2.759   1.785   5.053
  512TIP3    H2 1501   2.628   1.860   5.048
  513TIP3   OH2 1502   1.725   3.013   5.586
  513TIP3    H1 1503   1.634   2.984   5.595
  513TIP3    H2 1504   1.742   3.007   5.492
  514TIP3   OH2 1505   4.115   3.357   3.199
  514TIP3    H1 1506   4.138   3.286   3.259
  514TIP3    H2 1507   4.181   3.352   3.130
  515TIP3   OH2 1508   4.595   6.761   0.497
  515TIP3    H1 1509   4.511   6.778   0.539
  515TIP3    H2 1510   4.655   6.744   0.570
  516TIP3   OH2 1511   0.315   4.317   3.889
  516TIP3    H1 1512   0.298   4.347   3.979
  516TIP3    H2 1513   0.411   4.315   3.883
  517TIP3   OH2 1514   6.799   5.887   1.692
  517TIP3    H1 1515   6.719   5.910   1.646
  517TIP3    H2 1516   6.821   5.966   1.743
  518TIP3   OH2 1517   6.819   0.592   5.727
  518TIP3    H1 1518   6.881   0.575   5.798
  518TIP3    H2 1519   6.853   0.542   5.653
  519TIP3   OH2 1520   0.713   0.458   4.241
  519TIP3    H1 1521   0.633   0.435   4.194
  519TIP3    H2 1522   0.782   0.451   4.175
  520TIP3   OH2 1523   2.135   2.951   1.054
  520TIP3    H1 1524   2.111   3.012   0.984
  520TIP3    H2 1525   2.227   2.930   1.037
  521TIP3   OH2 1526   0.598   2.532   0.805
  521TIP3    H1 1527   0.644   2.600   0.855
  521TIP3    H2 1528   0.643   2.451   0.829
  522TIP3   OH2 1529   4.004   5.625   1.769
  522TIP3    H1 1530   3.957   5.557   1.720
  522TIP3    H2 1531   3.974   5.614   1.859
  523TIP3   OH2 1532   2.577   0.430   2.673
  523TIP3    H1 1533   2.521   0.438   2.750
  523TIP3    H2 1534   2.569   0.515   2.630
  524TIP3   OH2 1535   5.715   5.447   5.189
  524TIP3    H1 1536   5.783   5.502   5.149
  524TIP3    H2 1537   5.679   5.502   5.259
  525TIP3   OH2 1538   5.827   5.029   2.349
  525TIP3    H1 1539   5.831   5.094   2.279
  525TIP3    H2 1540   5.852   4.946   2.307
  526TIP3   OH2 1541   1.791   0.249   5.260
  526TIP3    H1 1542   1.795   0.246   5.356
  526TIP3    H2 1543   1.811   0.340   5.238
  527TIP3   OH2 1544   3.650   3.534   3.627
  527TIP3    H1 1545   3.693   3.619   3.620
  527TIP3    H2 1546   3.719   3.471   3.605
  528TIP3   OH2 1547   0.588   2.778   1.348
  528TIP3    H1 1548   0.512   2.836   1.352
  528TIP3    H2 1549   0.645   2.819   1.282
  529TIP3   OH2 1550   4.007   1.650   1.996
  529TIP3    H1 1551   3.963   1.644   2.080
  529TIP3    H2 1552   4.030   1.560   1.974
  530TIP3   OH2 1553   5.270   2.262   0.227
  530TIP3    H1 1554   5.311   2.269   0.141
  530TIP3    H2 1555   5.178   2.246   0.209
  531TIP3   OH2 1556   0.470   5.721   5.827
  531TIP3    H1 1557   0.388   5.771   5.823
  531TIP3    H2 1558   0.529   5.766   5.766
  532TIP3   OH2 1559   4.251   0.116   0.964
  532TIP3    H1 1560   4.302   0.167   0.902
  532TIP3    H2 1561   4.280   0.026   0.951
  533TIP3   OH2 1562   5.387   1.139   4.801
  533TIP3    H1 1563   5.376   1.196   4.877
  533TIP3    H2 1564   5.341   1.185   4.731
  534TIP3   OH2 1565   1.298   3.160   1.671
  534TIP3    H1 1566   1.279   3.168   1.765
  534TIP3    H2 1567   1.390   3.183   1.663
  535TIP3   OH2 1568   1.738   1.563   5.327
  535TIP3    H1 1569   1.761   1.478   5.365
  535TIP3    H2 1570   1.759   1.554   5.234
  536TIP3   OH2 1571   4.112   3.878   3.090
  536TIP3    H1 1572   4.105   3.796   3.139
  536TIP3    H2 1573   4.033   3.881   3.037
  537TIP3   OH2 1574   1.765   5.842   2.622
  537TIP3    H1 1575   1.686   5.858   2.570
  537TIP3    H2 1576   1.744   5.764   2.674
  538TIP3   OH2 1577   7.054   2.623   3.562
  538TIP3    H1 1578   6.974   2.663   3.596
  538TIP3    H2 1579   7.078   2.677   3.486
  539TIP3   OH2 1580   5.637   4.526   5.865
  539TIP3    H1 1581   5.711   4.473   5.894
  539TIP3    H2 1582   5.560   4.482   5.900
  540TIP3   OH2 1583   2.964   4.487   1.054
  540TIP3    H1 1584   2.938   4.556   0.993
  540TIP3    H2 1585   2.893   4.485   1.119
  541TIP3   OH2 1586   2.336   0.142   0.228
  541TIP3    H1 1587   2.391   0.202   0.279
  541TIP3    H2 1588   2.362   0.157   0.137
  542TIP3   OH2 1589   5.599   6.045   5.025
  542TIP3    H1 1590   5.686   6.036   4.986
  542TIP3    H2 1591   5.615   6.088   5.109
  543TIP3   OH2 1592   4.719   3.384   1.995
  543TIP3    H1 1593   4.683   3.471   2.012
  543TIP3    H2 1594   4.813   3.398   1.988
  544TIP3   OH2 1595   5.072   6.314   4.607
  544TIP3    H1 1596   5.166   6.332   4.619
  544TIP3    H2 1597   5.045   6.274   4.689
  545TIP3   OH2 1598   1.804   2.935   4.578
  545TIP3    H1 1599   1.844   3.022   4.578
  545TIP3    H2 1600   1.876   2.876   4.600
  546TIP3   OH2 1601   3.230   1.114   0.467
  546TIP3    H1 1602   3.267   1.191   0.424
  546TIP3    H2 1603   3.258   1.040   0.413
  547TIP3   OH2 1604   5.274   0.395   1.591
  547TIP3    H1 1605   5.270   0.444   1.509
  547TIP3    H2 1606   5.210   0.325   1.581
  548TIP3   OH2 1607   3.210   0.717   5.004
  548TIP3    H1 1608   3.133   0.721   5.060
  548TIP3    H2 1609   3.260   0.796   5.025
  549TIP3   OH2 1610   0.796   5.798   5.727
  549TIP3    H1 1611   0.800   5.720   5.672
  549TIP3    H2 1612   0.720   5.846   5.696
  550TIP3   OH2 1613   4.786   5.040   2.071
  550TIP3    H1 1614   4.797   5.018   1.979
  550TIP3    H2 1615   4.860   5.098   2.091
  551TIP3   OH2 1616   0.288   3.816   1.271
  551TIP3    H1 1617   0.355   3.750   1.253
  551TIP3    H2 1618   0.228   3.809   1.196
  552TIP3   OH2 1619   1.768   4.721   2.082
  552TIP3    H1 1620   1.731   4.797   2.037
  552TIP3    H2 1621   1.786   4.658   2.012
  553TIP3   OH2 1622   6.434   2.636   2.596
  553TIP3    H1 1623   6.499   2.659   2.663
  553TIP3    H2 1624   6.440   2.708   2.533
  554TIP3   OH2 1625   1.618   3.469   4.847
  554TIP3    H1 1626   1.582   3.442   4.763
  554TIP3    H2 1627   1.705   3.430   4.850
  555TIP3   OH2 1628   5.463   2.340   0.419
  555TIP3    H1 1629   5.399   2.316   0.353
  555TIP3    H2 1630   5.532   2.385   0.370
  556TIP3   OH2 1631   6.145   1.547   2.412
  556TIP3    H1 1632   6.211   1.482   2.435
  556TIP3    H2 1633   6.162   1.621   2.470
  557TIP3   OH2 1634   3.846   1.376   2.523
  557TIP3    H1 1635   3.925   1.371   2.469
  557TIP3    H2 1636   3.846   1.296   2.575
  558TIP3   OH2 1637   0.283   3.033   0.030
  558TIP3    H1 1638   0.368   3.077   0.037
  558TIP3    H2 1639   0.257   3.016   0.121
  559TIP3   OH2 1640   3.396   0.517   4.254
  559TIP3    H1 1641   3.469   0.483   4.202
  559TIP3    H2 1642   3.391   0.610   4.230
  560TIP3   OH2 1643   6.682   5.080   4.153
  560TIP3    H1 1644   6.746   5.016   4.123
  560TIP3    H2 1645   6.724   5.124   4.227
  561TIP3   OH2 1646   5.896   5.529   2.836
  561TIP3    H1 1647   5.803   5.510   2.849
  561TIP3    H2 1648   5.941   5.464   2.890
  562TIP3   OH2 1649   1.974   3.808   2.665
  562TIP3    H1 1650   2.047   3.854   2.706
  562TIP3    H2 1651   1.969   3.844   2.576
  563TIP3   OH2 1652   2.616   3.223   0.900
  563TIP3    H1 1653   2.631   3.291   0.834
  563TIP3    H2 1654   2.526   3.239   0.930
  564TIP3   OH2 1655   0.159   3.069   3.302
  564TIP3    H1 1656   0.133   2.984   3.338
  564TIP3    H2 1657   0.169   3.053   3.208
  565TIP3   OH2 1658   5.167   3.445   1.183
  565TIP3    H1 1659   5.087   3.423   1.229
  565TIP3    H2 1660   5.161   3.399   1.099
  566TIP3   OH2 1661   6.880   0.292   3.390
  566TIP3    H1 1662   6.902   0.383   3.406
  566TIP3    H2 1663   6.804   0.275   3.445
  567TIP3   OH2 1664   3.784   1.200   5.543
  567TIP3    H1 1665   3.838   1.274   5.516
  567TIP3    H2 1666   3.847   1.129   5.561
  568TIP3   OH2 1667   2.715   3.399   3.994
  568TIP3    H1 1668   2.706   3.477   3.939
  568TIP3    H2 1669   2.809   3.386   4.001
  569TIP3   OH2 1670   1.610   2.949   1.160
  569TIP3    H1 1671   1.516   2.944   1.143
  569TIP3    H2 1672   1.649   2.885   1.100
  570TIP3   OH2 1673   2.425   4.810   0.773
  570TIP3    H1 1674   2.517   4.788   0.757
  570TIP3    H2 1675   2.384   4.805   0.686
  571TIP3   OH2 1676   1.364   2.091   2.255
  571TIP3    H1 1677   1.379   2.180   2.221
  571TIP3    H2 1678   1.301   2.103   2.325
  572TIP3   OH2 1679   6.926   5.547   2.236
  572TIP3    H1 1680   6.846   5.495   2.246
  572TIP3    H2 1681   6.973   5.505   2.164
  573TIP3   OH2 1682   6.108   5.361   2.892
  573TIP3    H1 1683   6.053   5.284   2.907
  573TIP3    H2 1684   6.188   5.325   2.852
  574TIP3   OH2 1685   3.926   2.168   0.781
  574TIP3    H1 1686   3.916   2.179   0.876
  574TIP3    H2 1687   3.853   2.216   0.744
  575TIP3   OH2 1688   2.099   0.790   5.660
  575TIP3    H1 1689   2.082   0.756   5.747
  575TIP3    H2 1690   2.177   0.844   5.670
  576TIP3   OH2 1691   2.568   6.262   0.708
  576TIP3    H1 1692   2.574   6.175   0.669
  576TIP3    H2 1693   2.611   6.254   0.793
  577TIP3   OH2 1694   0.907   2.017   5.747
  577TIP3    H1 1695   0.908   1.939   5.692
  577TIP3    H2 1696   0.835   2.070   5.713
  578TIP3   OH2 1697   2.969   2.788   3.079
  578TIP3    H1 1698   2.982   2.832   2.995
  578TIP3    H2 1699   3.056   2.762   3.106
  579TIP3   OH2 1700   4.396   6.127   5.247
  579TIP3    H1 1701   4.366   6.055   5.304
  579TIP3    H2 1702   4.436   6.082   5.172
  580TIP3   OH2 1703   3.897   2.998   5.691
  580TIP3    H1 1704   3.830   3.067   5.688
  580TIP3    H2 1705   3.848   2.917   5.703
  581TIP3   OH2 1706   5.823   5.873   1.680
  581TIP3    H1 1707   5.826   5.840   1.770
  581TIP3    H2 1708   5.833   5.795   1.626
  582TIP3   OH2 1709   3.992   4.743   4.097
  582TIP3    H1 1710   3.920   4.753   4.034
  582TIP3    H2 1711   3.951   4.758   4.183
  583TIP3   OH2 1712   0.647   5.083   1.522
  583TIP3    H1 1713   0.652   4.990   1.545
  583TIP3    H2 1714   0.573   5.116   1.572
  584TIP3   OH2 1715   2.455   4.050   0.784
  584TIP3    H1 1716   2.368   4.089   0.779
  584TIP3    H2 1717   2.483   4.067   0.874
  585TIP3   OH2 1718   3.238   5.020   2.071
  585TIP3    H1 1719   3.154   4.974   2.065
  585TIP3    H2 1720   3.234   5.065   2.155
  586TIP3   OH2 1721   3.800   3.863   5.123
  586TIP3    H1 1722   3.744   3.791   5.095
  586TIP3    H2 1723   3.747   3.942   5.108
  587TIP3   OH2 1724   6.377   1.133   3.316
  587TIP3    H1 1725   6.355   1.188   3.241
  587TIP3    H2 1726   6.461   1.092   3.293
  588TIP3   OH2 1727   5.879   2.042   1.096
  588TIP3    H1 1728   5.882   2.131   1.062
  588TIP3    H2 1729   5.809   2.044   1.162
  589TIP3   OH2 1730   0.392   1.667   3.048
  589TIP3    H1 1731   0.463   1.610   3.018
  589TIP3    H2 1732   0.430   1.755   3.045
  590TIP3   OH2 1733   6.718   6.390   4.387
  590TIP3    H1 1734   6.742   6.375   4.295
  590TIP3    H2 1735   6.802   6.394   4.433
  591TIP3   OH2 1736   6.014   0.363   1.246
  591TIP3    H1 1737   5.980   0.353   1.157
  591TIP3    H2 1738   5.976   0.446   1.276
  592TIP3   OH2 1739   4.091   5.545   4.217
  592TIP3    H1 1740   4.043   5.620   4.180
  592TIP3    H2 1741   4.111   5.490   4.141
  593TIP3   OH2 1742   3.965   2.670   2.691
  593TIP3    H1 1743   3.895   2.733   2.676
  593TIP3    H2 1744   4.026   2.684   2.619
  594TIP3   OH2 1745   0.966   4.051   5.540
  594TIP3    H1 1746   1.047   4.051   5.592
  594TIP3    H2 1747   0.897   4.066   5.605
  595TIP3   OH2 1748   2.469   6.247   3.712
  595TIP3    H1 1749   2.431   6.255   3.625
  595TIP3    H2 1750   2.468   6.153   3.730
  596TIP3   OH2 1751   5.861   4.617   5.084
  596TIP3    H1 1752   5.909   4.683   5.034
  596TIP3    H2 1753   5.845   4.658   5.169
  597TIP3   OH2 1754   2.714   0.557   2.306
  597TIP3    H1 1755   2.750   0.557   2.217
  597TIP3    H2 1756   2.689   0.466   2.321
  598TIP3   OH2 1757   1.596   1.143   2.903
  598TIP3    H1 1758   1.606   1.106   2.990
  598TIP3    H2 1759   1.581   1.237   2.918
  599TIP3   OH2 1760   0.685   2.020   1.019
  599TIP3    H1 1761   0.774   2.018   0.985
  599TIP3    H2 1762   0.659   2.112   1.013
  600TIP3   OH2 1763   3.294   2.624   2.333
  600TIP3    H1 1764   3.330   2.654   2.250
  600TIP3    H2 1765   3.371   2.602   2.386
  601TIP3   OH2 1766   1.171   1.453   0.032
  601TIP3    H1 1767   1.086   1.471   0.073
  601TIP3    H2 1768   1.157   1.373  -0.018
  602TIP3   OH2 1769   4.915   6.498   1.715
  602TIP3    H1 1770   4.865   6.456   1.645
  602TIP3    H2 1771   4.877   6.585   1.723
  603TIP3   OH2 1772   2.157   0.885   2.639
  603TIP3    H1 1773   2.160   0.794   2.669
  603TIP3    H2 1774   2.085   0.923   2.690
  604TIP3   OH2 1775   1.235   6.742   5.085
  604TIP3    H1 1776   1.181   6.779   5.014
  604TIP3    H2 1777   1.243   6.649   5.063
  605TIP3   OH2 1778   0.519   3.714   3.789
  605TIP3    H1 1779   0.597   3.734   3.736
  605TIP3    H2 1780   0.464   3.792   3.780
  606TIP3   OH2 1781   2.908   1.857   2.747
  606TIP3    H1 1782   2.882   1.886   2.660
  606TIP3    H2 1783   2.829   1.864   2.799
  607TIP3   OH2 1784   1.909   3.294   2.290
  607TIP3    H1 1785   1.858   3.280   2.370
  607TIP3    H2 1786   1.885   3.220   2.234
  608TIP3   OH2 1787   0.133   1.316   0.129
  608TIP3    H1 1788   0.206   1.377   0.117
  608TIP3    H2 1789   0.060   1.371   0.157
  609TIP3   OH2 1790   6.838   2.098   2.104
  609TIP3    H1 1791   6.767   2.154   2.136
  609TIP3    H2 1792   6.805   2.009   2.112
  610TIP3   OH2 1793   0.473   1.029   3.302
  610TIP3    H1 1794   0.428   0.993   3.378
  610TIP3    H2 1795   0.422   0.997   3.227
  611TIP3   OH2 1796   2.107   6.318   0.583
  611TIP3    H1 1797   2.122   6.223   0.584
  611TIP3    H2 1798   2.030   6.329   0.528
  612TIP3   OH2 1799   2.609   2.189   0.881
  612TIP3    H1 1800   2.562   2.270   0.863
  612TIP3    H2 1801   2.594   2.173   0.974
  613TIP3   OH2 1802   3.601   0.568   1.280
  613TIP3    H1 1803   3.514   0.609   1.290
  613TIP3    H2 1804   3.662   0.642   1.282
  614TIP3   OH2 1805   6.917   3.562   4.713
  614TIP3    H1 1806   6.911   3.657   4.705
  614TIP3    H2 1807   6.888   3.544   4.803
  615TIP3   OH2 1808   2.926   2.455   4.125
  615TIP3    H1 1809   2.973   2.532   4.157
  615TIP3    H2 1810   2.857   2.491   4.069
  616TIP3   OH2 1811   2.839   4.746   0.397
  616TIP3    H1 1812   2.832   4.655   0.369
  616TIP3    H2 1813   2.841   4.742   0.493
  617TIP3   OH2 1814   4.765   1.951   2.396
  617TIP3    H1 1815   4.734   1.980   2.481
  617TIP3    H2 1816   4.828   1.882   2.416
  618TIP3   OH2 1817   3.688   2.486   2.224
  618TIP3    H1 1818   3.659   2.499   2.315
  618TIP3    H2 1819   3.624   2.424   2.188
  619TIP3   OH2 1820   3.836   3.543   2.522
  619TIP3    H1 1821   3.864   3.550   2.431
  619TIP3    H2 1822   3.884   3.612   2.567
  620TIP3   OH2 1823   5.630   1.995   5.862
  620TIP3    H1 1824   5.534   1.992   5.868
  620TIP3    H2 1825   5.649   2.082   5.829
  621TIP3   OH2 1826   5.006   2.005   2.093
  621TIP3    H1 1827   5.075   1.977   2.034
  621TIP3    H2 1828   4.929   1.957   2.065
  622TIP3   OH2 1829   1.647   6.446   5.086
  622TIP3    H1 1830   1.594   6.433   5.165
  622TIP3    H2 1831   1.733   6.412   5.110
  623TIP3   OH2 1832   4.142   6.428   2.566
  623TIP3    H1 1833   4.150   6.479   2.486
  623TIP3    H2 1834   4.073   6.364   2.548
  624TIP3   OH2 1835   2.389   6.361   5.815
  624TIP3    H1 1836   2.450   6.431   5.839
  624TIP3    H2 1837   2.440   6.281   5.829
  625TIP3   OH2 1838   7.167   2.615   4.140
  625TIP3    H1 1839   7.203   2.676   4.075
  625TIP3    H2 1840   7.074   2.608   4.119
  626TIP3   OH2 1841   2.520   1.287   4.636
  626TIP3    H1 1842   2.552   1.214   4.688
  626TIP3    H2 1843   2.560   1.275   4.550
  627TIP3   OH2 1844   2.487   5.404   5.875
  627TIP3    H1 1845   2.510   5.319   5.912
  627TIP3    H2 1846   2.541   5.411   5.796
  628TIP3   OH2 1847   6.915   0.173   1.808
  628TIP3    H1 1848   6.927   0.179   1.903
  628TIP3    H2 1849   6.974   0.239   1.772
  629TIP3   OH2 1850   5.429   0.167   3.092
  629TIP3    H1 1851   5.505   0.167   3.034
  629TIP3    H2 1852   5.374   0.238   3.059
  630TIP3   OH2 1853   3.154   2.358   4.731
  630TIP3    H1 1854   3.134   2.352   4.638
  630TIP3    H2 1855   3.237   2.310   4.740
  631TIP3   OH2 1856   1.773   2.236   3.937
  631TIP3    H1 1857   1.744   2.156   3.893
  631TIP3    H2 1858   1.833   2.206   4.006
  632TIP3   OH2 1859   3.096   2.560   0.696
  632TIP3    H1 1860   3.071   2.579   0.606
  632TIP3    H2 1861   3.190   2.572   0.698
  633TIP3   OH2 1862   4.988   4.582   4.913
  633TIP3    H1 1863   5.032   4.572   4.997
  633TIP3    H2 1864   4.987   4.493   4.875
  634TIP3   OH2 1865   6.231   3.725   2.767
  634TIP3    H1 1866   6.293   3.793   2.792
  634TIP3    H2 1867   6.157   3.772   2.729
  635TIP3   OH2 1868   2.652   3.863   5.886
  635TIP3    H1 1869   2.571   3.887   5.841
  635TIP3    H2 1870   2.719   3.917   5.844
  636TIP3   OH2 1871   5.491   1.341   4.358
  636TIP3    H1 1872   5.563   1.280   4.340
  636TIP3    H2 1873   5.511   1.377   4.444
  637TIP3   OH2 1874   6.543   3.874   0.284
  637TIP3    H1 1875   6.586   3.789   0.281
  637TIP3    H2 1876   6.471   3.867   0.220
  638TIP3   OH2 1877   1.709   6.033   3.618
  638TIP3    H1 1878   1.747   5.994   3.539
  638TIP3    H2 1879   1.749   5.985   3.690
  639TIP3   OH2 1880   6.100   1.002   2.957
  639TIP3    H1 1881   6.101   1.032   3.048
  639TIP3    H2 1882   6.193   0.990   2.936
  640TIP3   OH2 1883   5.539   0.086   5.867
  640TIP3    H1 1884   5.483   0.162   5.846
  640TIP3    H2 1885   5.486   0.010   5.842
  641TIP3   OH2 1886   7.084   2.072   2.207
  641TIP3    H1 1887   7.003   2.059   2.157
  641TIP3    H2 1888   7.106   2.164   2.193
  642TIP3   OH2 1889   0.377   6.351   2.241
  642TIP3    H1 1890   0.312   6.354   2.170
  642TIP3    H2 1891   0.403   6.442   2.254
  643TIP3   OH2 1892   1.921   4.187   5.448
  643TIP3    H1 1893   1.914   4.263   5.505
  643TIP3    H2 1894   1.963   4.120   5.502
  644TIP3   OH2 1895   5.440   0.761   2.373
  644TIP3    H1 1896   5.513   0.747   2.313
  644TIP3    H2 1897   5.478   0.756   2.460
  645TIP3   OH2 1898   5.769   2.684   4.096
  645TIP3    H1 1899   5.771   2.603   4.147
  645TIP3    H2 1900   5.765   2.753   4.162
  646TIP3   OH2 1901   0.989   2.374   0.737
  646TIP3    H1 1902   1.009   2.348   0.827
  646TIP3    H2 1903   0.980   2.292   0.689
  647TIP3   OH2 1904   0.278   4.724   2.088
  647TIP3    H1 1905   0.315   4.675   2.162
  647TIP3    H2 1906   0.290   4.667   2.013
  648TIP3   OH2 1907   6.292   6.198   2.184
  648TIP3    H1 1908   6.201   6.226   2.175
  648TIP3    H2 1909   6.296   6.116   2.135
  649TIP3   OH2 1910   6.715   5.941   1.220
  649TIP3    H1 1911   6.740   5.925   1.310
  649TIP3    H2 1912   6.709   6.036   1.212
  650TIP3   OH2 1913   0.899   4.575   1.556
  650TIP3    H1 1914   0.819   4.537   1.520
  650TIP3    H2 1915   0.960   4.577   1.482
  651TIP3   OH2 1916   1.837   0.510   2.598
  651TIP3    H1 1917   1.924   0.480   2.622
  651TIP3    H2 1918   1.777   0.455   2.648
  652TIP3   OH2 1919   4.316   1.870   3.540
  652TIP3    H1 1920   4.228   1.840   3.521
  652TIP3    H2 1921   4.313   1.899   3.632
  653TIP3   OH2 1922   4.173   3.592   2.633
  653TIP3    H1 1923   4.214   3.550   2.557
  653TIP3    H2 1924   4.084   3.612   2.605
  654TIP3   OH2 1925   3.785   2.771   3.149
  654TIP3    H1 1926   3.865   2.726   3.174
  654TIP3    H2 1927   3.716   2.704   3.159
  655TIP3   OH2 1928   5.380   1.685   1.057
  655TIP3    H1 1929   5.327   1.708   1.133
  655TIP3    H2 1930   5.442   1.620   1.090
  656TIP3   OH2 1931   7.117   6.339   3.590
  656TIP3    H1 1932   7.193   6.320   3.645
  656TIP3    H2 1933   7.041   6.318   3.644
  657TIP3   OH2 1934   1.498   5.825   0.327
  657TIP3    H1 1935   1.560   5.753   0.342
  657TIP3    H2 1936   1.446   5.829   0.407
  658TIP3   OH2 1937   5.544   6.394   2.332
  658TIP3    H1 1938   5.594   6.336   2.275
  658TIP3    H2 1939   5.493   6.448   2.272
  659TIP3   OH2 1940   3.118   0.709   5.482
  659TIP3    H1 1941   3.137   0.674   5.569
  659TIP3    H2 1942   3.023   0.716   5.479
  660TIP3   OH2 1943   2.280   2.052   0.199
  660TIP3    H1 1944   2.317   2.041   0.286
  660TIP3    H2 1945   2.194   2.009   0.204
  661TIP3   OH2 1946   1.097   2.718   3.935
  661TIP3    H1 1947   1.178   2.691   3.980
  661TIP3    H2 1948   1.122   2.798   3.889
  662TIP3   OH2 1949   3.009   6.563   1.859
  662TIP3    H1 1950   2.918   6.549   1.834
  662TIP3    H2 1951   3.044   6.622   1.793
  663TIP3   OH2 1952   0.979   3.083   4.050
  663TIP3    H1 1953   1.017   3.088   3.962
  663TIP3    H2 1954   0.897   3.036   4.038
  664TIP3   OH2 1955   2.043   3.183   5.072
  664TIP3    H1 1956   2.043   3.104   5.018
  664TIP3    H2 1957   2.042   3.151   5.162
  665TIP3   OH2 1958   2.669   3.909   0.268
  665TIP3    H1 1959   2.695   3.841   0.331
  665TIP3    H2 1960   2.691   3.991   0.311
  666TIP3   OH2 1961   4.054   1.002   3.341
  666TIP3    H1 1962   4.109   1.017   3.418
  666TIP3    H2 1963   4.018   1.088   3.320
  667TIP3   OH2 1964   4.650   2.976   5.725
  667TIP3    H1 1965   4.736   3.017   5.736
  667TIP3    H2 1966   4.588   3.050   5.728
  668TIP3   OH2 1967   3.656   5.789   5.227
  668TIP3    H1 1968   3.651   5.705   5.180
  668TIP3    H2 1969   3.565   5.814   5.243
  669TIP3   OH2 1970   6.930   3.026   2.815
  669TIP3    H1 1971   6.892   3.044   2.729
  669TIP3    H2 1972   6.925   2.931   2.824
  670TIP3   OH2 1973   2.498   0.581   5.389
  670TIP3    H1 1974   2.548   0.595   5.470
  670TIP3    H2 1975   2.425   0.642   5.396
  671TIP3   OH2 1976   4.863   2.244   5.016
  671TIP3    H1 1977   4.789   2.185   5.030
  671TIP3    H2 1978   4.940   2.191   5.035
  672TIP3   OH2 1979   7.176   3.441   3.954
  672TIP3    H1 1980   7.105   3.402   3.903
  672TIP3    H2 1981   7.191   3.526   3.912
  673TIP3   OH2 1982   2.153   0.781   0.032
  673TIP3    H1 1983   2.130   0.688   0.034
  673TIP3    H2 1984   2.112   0.817   0.111
  674TIP3   OH2 1985   1.778   6.488   0.203
  674TIP3    H1 1986   1.729   6.528   0.131
  674TIP3    H2 1987   1.744   6.531   0.281
  675TIP3   OH2 1988   6.690   1.385   0.578
  675TIP3    H1 1989   6.769   1.406   0.628
  675TIP3    H2 1990   6.707   1.420   0.491
  676TIP3   OH2 1991   7.157   6.021   5.466
  676TIP3    H1 1992   7.128   5.929   5.466
  676TIP3    H2 1993   7.173   6.041   5.374
  677TIP3   OH2 1994   6.756   1.065   0.510
  677TIP3    H1 1995   6.710   1.003   0.452
  677TIP3    H2 1996   6.761   1.146   0.459
  678TIP3   OH2 1997   2.116   3.080   0.338
  678TIP3    H1 1998   2.101   3.171   0.313
  678TIP3    H2 1999   2.114   3.081   0.433
  679TIP3   OH2 2000   4.911   1.177   1.390
  679TIP3    H1 2001   4.892   1.229   1.312
  679TIP3    H2 2002   4.892   1.087   1.364
  680TIP3   OH2 2003   0.265   4.304   5.623
  680TIP3    H1 2004   0.358   4.312   5.605
  680TIP3    H2 2005   0.223   4.365   5.562
  681TIP3   OH2 2006   7.051   5.474   1.321
  681TIP3    H1 2007   7.016   5.445   1.406
  681TIP3    H2 2008   6.988   5.541   1.292
  682TIP3   OH2 2009   2.106   0.689   2.812
  682TIP3    H1 2010   2.079   0.774   2.848
  682TIP3    H2 2011   2.028   0.634   2.821
  683TIP3   OH2 2012   5.988   3.764   3.001
  683TIP3    H1 2013   5.986   3.795   2.910
  683TIP3    H2 2014   6.077   3.731   3.012
  684TIP3   OH2 2015   5.353   2.792   4.990
  684TIP3    H1 2016   5.363   2.727   4.920
  684TIP3    H2 2017   5.437   2.838   4.991
  685TIP3   OH2 2018   1.241   5.976   2.562
  685TIP3    H1 2019   1.166   5.961   2.503
  685TIP3    H2 2020   1.255   5.891   2.605
  686TIP3   OH2 2021   1.868   2.908   0.704
  686TIP3    H1 2022   1.774   2.895   0.716
  686TIP3    H2 2023   1.904   2.911   0.793
  687TIP3   OH2 2024   2.113   0.205   3.067
  687TIP3    H1 2025   2.120   0.301   3.065
  687TIP3    H2 2026   2.021   0.187   3.050
  688TIP3   OH2 2027   6.434   5.934   1.137
  688TIP3    H1 2028   6.374   5.983   1.193
  688TIP3    H2 2029   6.521   5.963   1.162
  689TIP3   OH2 2030   0.445   0.115   3.099
  689TIP3    H1 2031   0.470   0.167   3.023
  689TIP3    H2 2032   0.447   0.024   3.068
  690TIP3   OH2 2033   2.788   5.170   5.491
  690TIP3    H1 2034   2.715   5.136   5.439
  690TIP3    H2 2035   2.811   5.099   5.550
  691TIP3   OH2 2036   4.074   1.404   2.378
  691TIP3    H1 2037   4.069   1.310   2.362
  691TIP3    H2 2038   4.144   1.435   2.321
  692TIP3   OH2 2039   2.892   2.890   3.740
  692TIP3    H1 2040   2.887   2.882   3.645
  692TIP3    H2 2041   2.836   2.965   3.761
  693TIP3   OH2 2042   0.572   6.107   2.949
  693TIP3    H1 2043   0.641   6.063   2.999
  693TIP3    H2 2044   0.575   6.067   2.863
  694TIP3   OH2 2045   4.407   3.463   3.942
  694TIP3    H1 2046   4.383   3.461   4.035
  694TIP3    H2 2047   4.462   3.385   3.931
  695TIP3   OH2 2048   6.622   0.591   1.245
  695TIP3    H1 2049   6.529   0.614   1.246
  695TIP3    H2 2050   6.667   0.671   1.269
  696TIP3   OH2 2051   3.467   4.594   4.934
  696TIP3    H1 2052   3.529   4.532   4.895
  696TIP3    H2 2053   3.513   4.628   5.010
  697TIP3   OH2 2054   5.790   4.710   0.407
  697TIP3    H1 2055   5.748   4.661   0.479
  697TIP3    H2 2056   5.882   4.716   0.433
  698TIP3   OH2 2057   3.835   2.499   4.980
  698TIP3    H1 2058   3.922   2.459   4.986
  698TIP3    H2 2059   3.811   2.517   5.071
  699TIP3   OH2 2060   4.825   1.113   1.743
  699TIP3    H1 2061   4.761   1.087   1.677
  699TIP3    H2 2062   4.836   1.208   1.729
  700TIP3   OH2 2063   4.241   6.834   1.395
  700TIP3    H1 2064   4.189   6.781   1.456
  700TIP3    H2 2065   4.328   6.795   1.398
  701TIP3   OH2 2066   3.364   1.062   4.037
  701TIP3    H1 2067   3.315   1.120   4.095
  701TIP3    H2 2068   3.448   1.049   4.082
  702TIP3   OH2 2069   4.978   3.769   5.250
  702TIP3    H1 2070   4.923   3.836   5.210
  702TIP3    H2 2071   5.044   3.749   5.184
  703TIP3   OH2 2072   2.587   5.411   4.086
  703TIP3    H1 2073   2.676   5.437   4.111
  703TIP3    H2 2074   2.551   5.488   4.043
  704TIP3   OH2 2075   4.940   4.138   0.399
  704TIP3    H1 2076   4.994   4.069   0.437
  704TIP3    H2 2077   4.994   4.177   0.331
  705TIP3   OH2 2078   6.147   6.284   5.369
  705TIP3    H1 2079   6.153   6.190   5.349
  705TIP3    H2 2080   6.216   6.324   5.316
  706TIP3   OH2 2081   3.366   3.299   5.609
  706TIP3    H1 2082   3.301   3.242   5.650
  706TIP3    H2 2083   3.407   3.345   5.683
  707TIP3   OH2 2084   3.710   6.381   1.524
  707TIP3    H1 2085   3.655   6.458   1.506
  707TIP3    H2 2086   3.648   6.315   1.558
  708TIP3   OH2 2087   6.585   0.591   3.786
  708TIP3    H1 2088   6.548   0.651   3.721
  708TIP3    H2 2089   6.523   0.518   3.790
  709TIP3   OH2 2090   6.042   5.110   4.956
  709TIP3    H1 2091   6.012   5.199   4.973
  709TIP3    H2 2092   6.132   5.108   4.989
  710TIP3   OH2 2093   5.213   4.763   4.129
  710TIP3    H1 2094   5.137   4.711   4.156
  710TIP3    H2 2095   5.176   4.842   4.090
  711TIP3   OH2 2096   6.870   2.067   1.158
  711TIP3    H1 2097   6.796   2.032   1.110
  711TIP3    H2 2098   6.921   1.991   1.185
  712TIP3   OH2 2099   3.192   5.153   3.889
  712TIP3    H1 2100   3.207   5.186   3.801
  712TIP3    H2 2101   3.246   5.075   3.896
  713TIP3   OH2 2102   1.371   4.958   1.296
  713TIP3    H1 2103   1.421   4.878   1.280
  713TIP3    H2 2104   1.281   4.929   1.308
  714TIP3   OH2 2105   2.812   4.529   5.000
  714TIP3    H1 2106   2.807   4.594   4.930
  714TIP3    H2 2107   2.884   4.471   4.974
  715TIP3   OH2 2108   6.775   4.259   4.543
  715TIP3    H1 2109   6.792   4.190   4.607
  715TIP3    H2 2110   6.685   4.244   4.514
  716TIP3   OH2 2111   6.848   5.158   4.357
  716TIP3    H1 2112   6.918   5.093   4.349
  716TIP3    H2 2113   6.820   5.151   4.449
  717TIP3   OH2 2114   2.181   6.215   5.520
  717TIP3    H1 2115   2.148   6.158   5.590
  717TIP3    H2 2116   2.144   6.178   5.440
  718TIP3   OH2 2117   0.685   5.500   4.190
  718TIP3    H1 2118   0.697   5.422   4.244
  718TIP3    H2 2119   0.773   5.523   4.160
  719TIP3   OH2 2120   6.044   1.725   3.584
  719TIP3    H1 2121   6.131   1.765   3.580
  719TIP3    H2 2122   6.010   1.747   3.670
  720TIP3   OH2 2123   4.139   3.851   0.897
  720TIP3    H1 2124   4.215   3.906   0.876
  720TIP3    H2 2125   4.146   3.836   0.991
  721TIP3   OH2 2126   0.002   3.231   5.164
  721TIP3    H1 2127   0.056   3.230   5.085
  721TIP3    H2 2128   0.017   3.146   5.206
  722TIP3   OH2 2129   6.409   2.050   1.293
  722TIP3    H1 2130   6.471   2.034   1.365
  722TIP3    H2 2131   6.374   1.964   1.272
  723TIP3   OH2 2132   6.410   6.364   4.901
  723TIP3    H1 2133   6.477   6.430   4.916
  723TIP3    H2 2134   6.457   6.292   4.858
  724TIP3   OH2 2135   4.910   2.629   1.721
  724TIP3    H1 2136   4.919   2.534   1.732
  724TIP3    H2 2137   4.826   2.650   1.760
  725TIP3   OH2 2138   7.003   5.006   3.692
  725TIP3    H1 2139   6.998   5.089   3.739
  725TIP3    H2 2140   7.019   4.941   3.760
  726TIP3   OH2 2141   7.157   0.710   1.865
  726TIP3    H1 2142   7.193   0.792   1.832
  726TIP3    H2 2143   7.095   0.682   1.798
  727TIP3   OH2 2144   3.751   5.278   0.344
  727TIP3    H1 2145   3.699   5.344   0.390
  727TIP3    H2 2146   3.701   5.260   0.264
  728TIP3   OH2 2147   1.074   0.699   3.034
  728TIP3    H1 2148   0.990   0.722   2.992
  728TIP3    H2 2149   1.132   0.678   2.961
  729TIP3   OH2 2150   1.486   2.653   2.444
  729TIP3    H1 2151   1.428   2.672   2.371
  729TIP3    H2 2152   1.439   2.685   2.521
  730TIP3   OH2 2153   4.624   2.925   1.771
  730TIP3    H1 2154   4.631   2.888   1.683
  730TIP3    H2 2155   4.557   2.992   1.764
  731TIP3   OH2 2156   6.716   6.731   0.018
  731TIP3    H1 2157   6.654   6.659   0.027
  731TIP3    H2 2158   6.744   6.750   0.108
  732TIP3   OH2 2159   0.518   4.027   0.388
  732TIP3    H1 2160   0.599   3.975   0.392
  732TIP3    H2 2161   0.450   3.963   0.368
  733TIP3   OH2 2162   4.401   2.863   2.982
  733TIP3    H1 2163   4.409   2.884   2.889
  733TIP3    H2 2164   4.399   2.948   3.026
  734TIP3   OH2 2165   0.226   2.566   0.385
  734TIP3    H1 2166   0.273   2.491   0.348
  734TIP3    H2 2167   0.282   2.598   0.455
  735TIP3   OH2 2168   1.837   0.765   4.554
  735TIP3    H1 2169   1.746   0.756   4.582
  735TIP3    H2 2170   1.840   0.851   4.511
  736TIP3   OH2 2171   2.206   0.305   0.950
  736TIP3    H1 2172   2.213   0.316   1.045
  736TIP3    H2 2173   2.168   0.218   0.939
  737TIP3   OH2 2174   3.590   6.042   2.329
  737TIP3    H1 2175   3.657   6.053   2.262
  737TIP3    H2 2176   3.512   6.084   2.292
  738TIP3   OH2 2177   6.805   6.170   3.114
  738TIP3    H1 2178   6.763   6.243   3.158
  738TIP3    H2 2179   6.826   6.203   3.026
  739TIP3   OH2 2180   1.761   5.794   3.809
  739TIP3    H1 2181   1.816   5.761   3.879
  739TIP3    H2 2182   1.717   5.717   3.774
  740TIP3   OH2 2183   4.466   3.971   2.459
  740TIP3    H1 2184   4.421   4.013   2.532
  740TIP3    H2 2185   4.440   3.879   2.463
  741TIP3   OH2 2186   4.905   0.736   3.938
  741TIP3    H1 2187   4.993   0.702   3.954
  741TIP3    H2 2188   4.902   0.819   3.986
  742TIP3   OH2 2189   5.341   5.491   1.817
  742TIP3    H1 2190   5.340   5.441   1.735
  742TIP3    H2 2191   5.336   5.425   1.886
  743TIP3   OH2 2192   4.711   3.075   3.029
  743TIP3    H1 2193   4.644   3.102   3.091
  743TIP3    H2 2194   4.664   3.066   2.946
  744TIP3   OH2 2195   0.574   0.280   1.034
  744TIP3    H1 2196   0.569   0.191   0.998
  744TIP3    H2 2197   0.651   0.279   1.091
  745TIP3   OH2 2198   1.942   5.288   4.166
  745TIP3    H1 2199   2.002   5.353   4.131
  745TIP3    H2 2200   1.983   5.256   4.246
  746TIP3   OH2 2201   3.076   2.187   3.769
  746TIP3    H1 2202   3.102   2.267   3.723
  746TIP3    H2 2203   3.106   2.200   3.859
  747TIP3   OH2 2204   2.989   5.179   2.489
  747TIP3    H1 2205   2.944   5.148   2.410
  747TIP3    H2 2206   3.055   5.240   2.456
  748TIP3   OH2 2207   2.116   0.409   4.879
  748TIP3    H1 2208   2.148   0.328   4.918
  748TIP3    H2 2209   2.132   0.476   4.945
  749TIP3   OH2 2210   3.409   0.983   0.118
  749TIP3    H1 2211   3.431   0.917   0.052
  749TIP3    H2 2212   3.347   0.940   0.176
  750TIP3   OH2 2213   6.200   6.477   2.481
  750TIP3    H1 2214   6.185   6.558   2.530
  750TIP3    H2 2215   6.159   6.409   2.535
  751TIP3   OH2 2216   5.527   0.869   1.503
  751TIP3    H1 2217   5.438   0.833   1.510
  751TIP3    H2 2218   5.516   0.963   1.512
  752TIP3   OH2 2219   1.749   2.417   3.173
  752TIP3    H1 2220   1.779   2.347   3.231
  752TIP3    H2 2221   1.827   2.472   3.159
  753TIP3   OH2 2222   1.917   5.987   5.518
  753TIP3    H1 2223   1.973   6.021   5.449
  753TIP3    H2 2224   1.839   5.954   5.473
  754TIP3   OH2 2225   2.869   1.589   5.659
  754TIP3    H1 2226   2.906   1.505   5.685
  754TIP3    H2 2227   2.902   1.603   5.570
  755TIP3   OH2 2228   0.443   1.463   2.020
  755TIP3    H1 2229   0.429   1.376   1.984
  755TIP3    H2 2230   0.372   1.475   2.083
  756TIP3   OH2 2231   2.045   6.652   5.154
  756TIP3    H1 2232   2.011   6.715   5.218
  756TIP3    H2 2233   2.067   6.706   5.078
  757TIP3   OH2 2234   5.171   4.417   2.018
  757TIP3    H1 2235   5.262   4.424   2.046
  757TIP3    H2 2236   5.150   4.502   1.981
  758TIP3   OH2 2237   2.665   2.096   5.199
  758TIP3    H1 2238   2.713   2.018   5.168
  758TIP3    H2 2239   2.698   2.167   5.145
  759TIP3   OH2 2240   5.864   2.738   2.442
  759TIP3    H1 2241   5.939   2.681   2.420
  759TIP3    H2 2242   5.901   2.805   2.500
  760TIP3   OH2 2243   4.464   5.357   5.698
  760TIP3    H1 2244   4.518   5.350   5.620
  760TIP3    H2 2245   4.525   5.345   5.771
  761TIP3   OH2 2246   2.532   1.422   4.066
  761TIP3    H1 2247   2.521   1.327   4.069
  761TIP3    H2 2248   2.520   1.450   4.157
  762TIP3   OH2 2249   4.713   3.690   0.347
  762TIP3    H1 2250   4.652   3.643   0.403
  762TIP3    H2 2251   4.756   3.753   0.405
  763TIP3   OH2 2252   2.110   3.091   5.328
  763TIP3    H1 2253   2.171   3.163   5.314
  763TIP3    H2 2254   2.166   3.017   5.353
  764TIP3   OH2 2255   4.384   3.960   1.508
  764TIP3    H1 2256   4.334   4.040   1.522
  764TIP3    H2 2257   4.473   3.981   1.537
  765TIP3   OH2 2258   4.461   5.983   4.106
  765TIP3    H1 2259   4.463   6.077   4.122
  765TIP3    H2 2260   4.477   5.943   4.192
  766TIP3   OH2 2261   2.632   3.794   5.000
  766TIP3    H1 2262   2.565   3.770   4.936
  766TIP3    H2 2263   2.584   3.812   5.080
  767TIP3   OH2 2264   1.241   4.245   4.876
  767TIP3    H1 2265   1.188   4.288   4.809
  767TIP3    H2 2266   1.309   4.309   4.898
  768TIP3   OH2 2267   2.146   0.211   1.436
  768TIP3    H1 2268   2.115   0.134   1.388
  768TIP3    H2 2269   2.230   0.183   1.473
  769TIP3   OH2 2270   0.897   4.738   0.648
  769TIP3    H1 2271   0.944   4.790   0.584
  769TIP3    H2 2272   0.805   4.745   0.622
  770TIP3   OH2 2273   6.803   1.418   0.023
  770TIP3    H1 2274   6.855   1.499   0.024
  770TIP3    H2 2275   6.845   1.363   0.089
  771TIP3   OH2 2276   6.746   6.486   5.215
  771TIP3    H1 2277   6.683   6.461   5.147
  771TIP3    H2 2278   6.797   6.407   5.231
  772TIP3   OH2 2279   0.467   3.634   0.456
  772TIP3    H1 2280   0.549   3.613   0.411
  772TIP3    H2 2281   0.430   3.706   0.405
  773TIP3   OH2 2282   0.599   4.967   3.030
  773TIP3    H1 2283   0.570   4.978   2.939
  773TIP3    H2 2284   0.520   4.948   3.079
  774TIP3   OH2 2285   6.296   4.554   0.944
  774TIP3    H1 2286   6.287   4.525   1.035
  774TIP3    H2 2287   6.226   4.618   0.932
  775TIP3   OH2 2288   3.870   5.102   5.699
  775TIP3    H1 2289   3.837   5.015   5.679
  775TIP3    H2 2290   3.964   5.090   5.712
  776TIP3   OH2 2291   2.223   2.660   0.647
  776TIP3    H1 2292   2.202   2.668   0.740
  776TIP3    H2 2293   2.316   2.681   0.641
  777TIP3   OH2 2294   3.553   3.713   4.010
  777TIP3    H1 2295   3.540   3.686   4.100
  777TIP3    H2 2296   3.497   3.654   3.959
  778TIP3   OH2 2297   3.632   3.043   1.709
  778TIP3    H1 2298   3.634   2.988   1.631
  778TIP3    H2 2299   3.712   3.095   1.704
  779TIP3   OH2 2300   1.453   2.074   4.251
  779TIP3    H1 2301   1.370   2.102   4.290
  779TIP3    H2 2302   1.519   2.090   4.319
  780TIP3   OH2 2303   2.456   1.508   4.313
  780TIP3    H1 2304   2.361   1.521   4.317
  780TIP3    H2 2305   2.492   1.577   4.368
  781TIP3   OH2 2306   1.801   3.808   2.894
  781TIP3    H1 2307   1.724   3.826   2.839
  781TIP3    H2 2308   1.875   3.820   2.835
  782TIP3   OH2 2309   3.772   3.503   5.062
  782TIP3    H1 2310   3.768   3.547   4.977
  782TIP3    H2 2311   3.709   3.550   5.117
  783TIP3   OH2 2312   3.795   2.504   0.982
  783TIP3    H1 2313   3.764   2.470   1.067
  783TIP3    H2 2314   3.868   2.562   1.004
  784TIP3   OH2 2315   0.733   0.197   2.420
  784TIP3    H1 2316   0.823   0.174   2.396
  784TIP3    H2 2317   0.716   0.278   2.372
  785TIP3   OH2 2318   2.692   5.488   4.900
  785TIP3    H1 2319   2.784   5.467   4.913
  785TIP3    H2 2320   2.668   5.445   4.819
  786TIP3   OH2 2321   4.976   0.091   3.537
  786TIP3    H1 2322   5.021   0.055   3.461
  786TIP3    H2 2323   5.002   0.034   3.610
  787TIP3   OH2 2324   0.124   5.095   3.097
  787TIP3    H1 2325   0.209   5.072   3.134
  787TIP3    H2 2326   0.067   5.022   3.120
  788TIP3   OH2 2327   6.300   1.218   5.267
  788TIP3    H1 2328   6.221   1.191   5.313
  788TIP3    H2 2329   6.371   1.175   5.315
  789TIP3   OH2 2330   5.145   4.197   4.882
  789TIP3    H1 2331   5.233   4.235   4.891
  789TIP3    H2 2332   5.161   4.103   4.872
  790TIP3   OH2 2333   0.456   6.371   3.842
  790TIP3    H1 2334   0.538   6.400   3.801
  790TIP3    H2 2335   0.481   6.346   3.931
  791TIP3   OH2 2336   2.757   5.393   0.341
  791TIP3    H1 2337   2.664   5.370   0.338
  791TIP3    H2 2338   2.803   5.309   0.334
  792TIP3   OH2 2339   1.062   5.829   5.351
  792TIP3    H1 2340   0.972   5.796   5.351
  792TIP3    H2 2341   1.055   5.917   5.388
  793TIP3   OH2 2342   7.003   2.466   4.986
  793TIP3    H1 2343   6.998   2.550   4.940
  793TIP3    H2 2344   6.949   2.479   5.064
  794TIP3   OH2 2345   1.383   4.876   3.817
  794TIP3    H1 2346   1.421   4.955   3.856
  794TIP3    H2 2347   1.386   4.892   3.723
  795TIP3   OH2 2348   7.072   5.746   5.048
  795TIP3    H1 2349   6.994   5.791   5.081
  795TIP3    H2 2350   7.039   5.682   4.985
  796TIP3   OH2 2351   6.477   6.429   5.541
  796TIP3    H1 2352   6.568   6.405   5.558
  796TIP3    H2 2353   6.457   6.390   5.456
  797TIP3   OH2 2354   1.915   5.128   2.942
  797TIP3    H1 2355   1.913   5.223   2.954
  797TIP3    H2 2356   1.872   5.114   2.857
  798TIP3   OH2 2357   0.046   4.523   1.542
  798TIP3    H1 2358   0.020   4.458   1.608
  798TIP3    H2 2359   0.142   4.523   1.545
  799TIP3   OH2 2360   6.603   5.365   4.554
  799TIP3    H1 2361   6.563   5.424   4.491
  799TIP3    H2 2362   6.534   5.303   4.577
  800TIP3   OH2 2363   0.811   0.223   2.002
  800TIP3    H1 2364   0.824   0.288   1.933
  800TIP3    H2 2365   0.879   0.243   2.066
  801TIP3   OH2 2366   7.082   6.664   0.362
  801TIP3    H1 2367   7.126   6.628   0.439
  801TIP3    H2 2368   7.086   6.594   0.297
  802TIP3   OH2 2369   3.316   2.986   1.157
  802TIP3    H1 2370   3.352   3.066   1.194
  802TIP3    H2 2371   3.393   2.933   1.134
  803TIP3   OH2 2372   2.756   5.525   5.424
  803TIP3    H1 2373   2.773   5.451   5.366
  803TIP3    H2 2374   2.840   5.570   5.432
  804TIP3   OH2 2375   6.085   5.533   4.344
  804TIP3    H1 2376   6.031   5.548   4.267
  804TIP3    H2 2377   6.158   5.479   4.312
  805TIP3   OH2 2378   5.782   5.097   3.144
  805TIP3    H1 2379   5.816   5.040   3.213
  805TIP3    H2 2380   5.814   5.184   3.167
  806TIP3   OH2 2381   1.965   4.219   4.224
  806TIP3    H1 2382   1.898   4.203   4.158
  806TIP3    H2 2383   2.034   4.155   4.204
  807TIP3   OH2 2384   6.786   6.731   0.850
  807TIP3    H1 2385   6.747   6.703   0.768
  807TIP3    H2 2386   6.867   6.776   0.824
  808TIP3   OH2 2387   5.421   6.243   1.315
  808TIP3    H1 2388   5.490   6.305   1.340
  808TIP3    H2 2389   5.412   6.186   1.391
  809TIP3   OH2 2390   5.188   5.409   5.119
  809TIP3    H1 2391   5.273   5.365   5.122
  809TIP3    H2 2392   5.205   5.496   5.155
  810TIP3   OH2 2393   6.072   4.977   2.916
  810TIP3    H1 2394   6.099   4.989   3.007
  810TIP3    H2 2395   6.013   5.050   2.899
  811TIP3   OH2 2396   5.938   0.809   0.134
  811TIP3    H1 2397   5.877   0.868   0.176
  811TIP3    H2 2398   6.007   0.866   0.100
  812TIP3   OH2 2399   1.029   3.325   2.191
  812TIP3    H1 2400   1.036   3.367   2.277
  812TIP3    H2 2401   1.117   3.334   2.153
  813TIP3   OH2 2402   4.320   1.915   4.525
  813TIP3    H1 2403   4.286   1.864   4.598
  813TIP3    H2 2404   4.285   2.003   4.539
  814TIP3   OH2 2405   3.906   5.924   3.043
  814TIP3    H1 2406   3.876   5.926   2.952
  814TIP3    H2 2407   4.001   5.922   3.037
  815TIP3   OH2 2408   7.185   2.271   4.812
  815TIP3    H1 2409   7.116   2.215   4.846
  815TIP3    H2 2410   7.148   2.311   4.734
  816TIP3   OH2 2411   5.159   1.719   5.671
  816TIP3    H1 2412   5.252   1.742   5.681
  816TIP3    H2 2413   5.157   1.624   5.679
  817TIP3   OH2 2414   5.059   3.414   2.407
  817TIP3    H1 2415   5.104   3.385   2.486
  817TIP3    H2 2416   5.123   3.469   2.362
  818TIP3   OH2 2417   5.283   1.133   5.529
  818TIP3    H1 2418   5.282   1.162   5.620
  818TIP3    H2 2419   5.190   1.123   5.506
  819TIP3   OH2 2420   4.472   6.215   4.244
  819TIP3    H1 2421   4.446   6.201   4.335
  819TIP3    H2 2422   4.527   6.294   4.247
  820TIP3   OH2 2423   6.790   1.221   2.388
  820TIP3    H1 2424   6.883   1.201   2.375
  820TIP3    H2 2425   6.779   1.309   2.351
  821TIP3   OH2 2426   0.729   1.870   2.856
  821TIP3    H1 2427   0.812   1.918   2.856
  821TIP3    H2 2428   0.748   1.789   2.810
  822TIP3   OH2 2429   0.162   6.532   3.632
  822TIP3    H1 2430   0.183   6.461   3.692
  822TIP3    H2 2431   0.066   6.534   3.629
  823TIP3   OH2 2432   1.783   6.420   2.871
  823TIP3    H1 2433   1.752   6.388   2.786
  823TIP3    H2 2434   1.768   6.514   2.868
  824TIP3   OH2 2435   0.936   3.871   0.919
  824TIP3    H1 2436   0.969   3.817   0.847
  824TIP3    H2 2437   0.987   3.844   0.995
  825TIP3   OH2 2438   6.493   2.949   4.539
  825TIP3    H1 2439   6.425   3.014   4.556
  825TIP3    H2 2440   6.454   2.891   4.474
  826TIP3   OH2 2441   3.968   3.588   2.988
  826TIP3    H1 2442   3.908   3.532   3.036
  826TIP3    H2 2443   3.919   3.669   2.974
  827TIP3   OH2 2444   7.121   6.030   2.153
  827TIP3    H1 2445   7.136   6.046   2.247
  827TIP3    H2 2446   7.188   5.967   2.128
  828TIP3   OH2 2447   6.426   6.775   3.953
  828TIP3    H1 2448   6.389   6.774   3.865
  828TIP3    H2 2449   6.520   6.773   3.939
  829TIP3   OH2 2450   5.288   3.968   3.794
  829TIP3    H1 2451   5.228   3.948   3.722
  829TIP3    H2 2452   5.374   3.974   3.752
  830TIP3   OH2 2453   5.241   2.535   1.977
  830TIP3    H1 2454   5.334   2.519   1.993
  830TIP3    H2 2455   5.209   2.453   1.939
  831TIP3   OH2 2456   1.337   1.149   1.718
  831TIP3    H1 2457   1.297   1.110   1.796
  831TIP3    H2 2458   1.388   1.078   1.680
  832TIP3   OH2 2459   6.205   4.790   3.598
  832TIP3    H1 2460   6.216   4.851   3.671
  832TIP3    H2 2461   6.189   4.705   3.639
  833TIP3   OH2 2462   0.890   6.452   4.987
  833TIP3    H1 2463   0.849   6.465   5.072
  833TIP3    H2 2464   0.980   6.483   4.998
  834TIP3   OH2 2465   1.406   5.489   2.342
  834TIP3    H1 2466   1.363   5.574   2.328
  834TIP3    H2 2467   1.463   5.478   2.266
  835TIP3   OH2 2468   0.442   6.589   0.878
  835TIP3    H1 2469   0.499   6.584   0.802
  835TIP3    H2 2470   0.488   6.540   0.946
  836TIP3   OH2 2471   3.709   2.307   3.654
  836TIP3    H1 2472   3.675   2.351   3.576
  836TIP3    H2 2473   3.631   2.270   3.696
  837TIP3   OH2 2474   3.451   1.797   1.010
  837TIP3    H1 2475   3.397   1.795   1.089
  837TIP3    H2 2476   3.435   1.883   0.972
  838TIP3   OH2 2477   0.848   2.391   0.392
  838TIP3    H1 2478   0.925   2.350   0.353
  838TIP3    H2 2479   0.882   2.471   0.433
  839TIP3   OH2 2480   0.064   0.450   3.632
  839TIP3    H1 2481   0.037   0.374   3.581
  839TIP3    H2 2482  -0.014   0.505   3.636
  840TIP3   OH2 2483   0.329   6.307  -0.006
  840TIP3    H1 2484   0.334   6.229   0.049
  840TIP3    H2 2485   0.344   6.380   0.054
  841TIP3   OH2 2486   5.274   2.921   3.421
  841TIP3    H1 2487   5.244   3.005   3.387
  841TIP3    H2 2488   5.244   2.857   3.357
  842TIP3   OH2 2489   3.200   3.983   0.892
  842TIP3    H1 2490   3.132   4.046   0.871
  842TIP3    H2 2491   3.205   3.983   0.988
  843TIP3   OH2 2492   2.702   1.762   4.174
  843TIP3    H1 2493   2.767   1.756   4.105
  843TIP3    H2 2494   2.753   1.756   4.255
  844TIP3   OH2 2495   2.862   1.366   5.078
  844TIP3    H1 2496   2.901   1.279   5.080
  844TIP3    H2 2497   2.769   1.350   5.063
  845TIP3   OH2 2498   5.362   3.458   0.203
  845TIP3    H1 2499   5.424   3.406   0.254
  845TIP3    H2 2500   5.410   3.481   0.124
  846TIP3   OH2 2501   3.018   0.655   2.676
  846TIP3    H1 2502   2.998   0.744   2.706
  846TIP3    H2 2503   2.945   0.602   2.708
  847TIP3   OH2 2504   1.513   4.762   5.187
  847TIP3    H1 2505   1.554   4.772   5.273
  847TIP3    H2 2506   1.585   4.768   5.125
  848TIP3   OH2 2507   2.776   5.387   2.849
  848TIP3    H1 2508   2.791   5.394   2.755
  848TIP3    H2 2509   2.717   5.311   2.858
  849TIP3   OH2 2510   6.283   4.343   4.770
  849TIP3    H1 2511   6.294   4.252   4.797
  849TIP3    H2 2512   6.221   4.339   4.697
  850TIP3   OH2 2513   6.925   3.664   2.386
  850TIP3    H1 2514   6.968   3.602   2.444
  850TIP3    H2 2515   6.987   3.674   2.313
  851TIP3   OH2 2516   0.058   4.088   1.906
  851TIP3    H1 2517   0.022   4.109   1.992
  851TIP3    H2 2518   0.151   4.073   1.922
  852TIP3   OH2 2519   6.634   6.003   5.136
  852TIP3    H1 2520   6.579   5.930   5.108
  852TIP3    H2 2521   6.588   6.040   5.212
  853TIP3   OH2 2522   5.952   5.821   0.589
  853TIP3    H1 2523   6.000   5.738   0.591
  853TIP3    H2 2524   5.935   5.840   0.682
  854TIP3   OH2 2525   2.756   4.441   2.025
  854TIP3    H1 2526   2.711   4.421   2.107
  854TIP3    H2 2527   2.799   4.359   2.000
  855TIP3   OH2 2528   4.453   2.362   4.298
  855TIP3    H1 2529   4.447   2.273   4.265
  855TIP3    H2 2530   4.430   2.417   4.223
  856TIP3   OH2 2531   6.463   0.271   2.275
  856TIP3    H1 2532   6.522   0.323   2.220
  856TIP3    H2 2533   6.396   0.334   2.303
  857TIP3   OH2 2534   1.091   5.630   5.570
  857TIP3    H1 2535   1.094   5.668   5.657
  857TIP3    H2 2536   1.070   5.703   5.512
  858TIP3   OH2 2537   0.089   4.245   0.125
  858TIP3    H1 2538  -0.003   4.269   0.136
  858TIP3    H2 2539   0.089   4.150   0.114
  859TIP3   OH2 2540   2.291   5.964   2.708
  859TIP3    H1 2541   2.196   5.956   2.699
  859TIP3    H2 2542   2.314   5.905   2.779
  860TIP3   OH2 2543   1.655   6.143   4.550
  860TIP3    H1 2544   1.727   6.083   4.528
  860TIP3    H2 2545   1.579   6.105   4.506
  861TIP3   OH2 2546   2.788   2.795   2.088
  861TIP3    H1 2547   2.731   2.871   2.103
  861TIP3    H2 2548   2.814   2.802   1.996
  862TIP3   OH2 2549   0.460   6.015   3.521
  862TIP3    H1 2550   0.419   6.101   3.521
  862TIP3    H2 2551   0.467   5.992   3.428
  863TIP3   OH2 2552   2.139   5.817   4.828
  863TIP3    H1 2553   2.058   5.766   4.828
  863TIP3    H2 2554   2.209   5.751   4.822
  864TIP3   OH2 2555   2.011   1.537   2.482
  864TIP3    H1 2556   1.954   1.467   2.514
  864TIP3    H2 2557   1.986   1.613   2.534
  865TIP3   OH2 2558   1.426   6.103   0.268
  865TIP3    H1 2559   1.480   6.117   0.191
  865TIP3    H2 2560   1.347   6.060   0.235
  866TIP3   OH2 2561   6.557   4.899   1.763
  866TIP3    H1 2562   6.479   4.955   1.765
  866TIP3    H2 2563   6.570   4.879   1.671
  867TIP3   OH2 2564   1.449   2.928   3.919
  867TIP3    H1 2565   1.544   2.936   3.913
  867TIP3    H2 2566   1.433   2.833   3.924
  868TIP3   OH2 2567   2.151   4.142   3.347
  868TIP3    H1 2568   2.225   4.134   3.287
  868TIP3    H2 2569   2.187   4.117   3.432
  869TIP3   OH2 2570   0.331   0.548   2.218
  869TIP3    H1 2571   0.256   0.584   2.266
  869TIP3    H2 2572   0.333   0.598   2.136
  870TIP3   OH2 2573   5.258   0.280   2.099
  870TIP3    H1 2574   5.169   0.308   2.118
  870TIP3    H2 2575   5.287   0.337   2.028
  871TIP3   OH2 2576   3.746   2.200   0.341
  871TIP3    H1 2577   3.835   2.177   0.316
  871TIP3    H2 2578   3.706   2.117   0.367
  872TIP3   OH2 2579   3.455   5.409   2.237
  872TIP3    H1 2580   3.399   5.337   2.266
  872TIP3    H2 2581   3.507   5.431   2.314
  873TIP3   OH2 2582   3.559   5.327   5.192
  873TIP3    H1 2583   3.479   5.328   5.246
  873TIP3    H2 2584   3.601   5.244   5.215
  874TIP3   OH2 2585   6.151   6.208   4.419
  874TIP3    H1 2586   6.179   6.258   4.342
  874TIP3    H2 2587   6.232   6.191   4.467
  875TIP3   OH2 2588   3.016   5.374   3.051
  875TIP3    H1 2589   2.981   5.442   3.109
  875TIP3    H2 2590   2.981   5.396   2.965
  876TIP3   OH2 2591   3.678   0.765   4.114
  876TIP3    H1 2592   3.683   0.749   4.208
  876TIP3    H2 2593   3.585   0.759   4.093
  877TIP3   OH2 2594   6.180   1.985   1.579
  877TIP3    H1 2595   6.179   2.040   1.501
  877TIP3    H2 2596   6.213   1.901   1.548
  878TIP3   OH2 2597   6.844   6.347   1.618
  878TIP3    H1 2598   6.914   6.283   1.629
  878TIP3    H2 2599   6.871   6.421   1.673
  879TIP3   OH2 2600   4.498   6.261   4.796
  879TIP3    H1 2601   4.419   6.261   4.850
  879TIP3    H2 2602   4.467   6.279   4.707
  880TIP3   OH2 2603   4.169   0.209   2.942
  880TIP3    H1 2604   4.146   0.244   2.856
  880TIP3    H2 2605   4.086   0.194   2.986
  881TIP3   OH2 2606   0.652   0.178   2.688
  881TIP3    H1 2607   0.620   0.268   2.681
  881TIP3    H2 2608   0.683   0.158   2.599
  882TIP3   OH2 2609   1.870   6.657   2.449
  882TIP3    H1 2610   1.905   6.644   2.537
  882TIP3    H2 2611   1.846   6.570   2.419
  883TIP3   OH2 2612   6.454   4.552   4.823
  883TIP3    H1 2613   6.435   4.602   4.744
  883TIP3    H2 2614   6.420   4.465   4.805
  884TIP3   OH2 2615   4.808   3.796   2.746
  884TIP3    H1 2616   4.900   3.817   2.733
  884TIP3    H2 2617   4.808   3.706   2.779
  885TIP3   OH2 2618   5.978   0.514   2.045
  885TIP3    H1 2619   5.890   0.542   2.070
  885TIP3    H2 2620   5.984   0.532   1.952
  886TIP3   OH2 2621   0.697   0.963   0.629
  886TIP3    H1 2622   0.633   1.034   0.624
  886TIP3    H2 2623   0.701   0.928   0.540
  887TIP3   OH2 2624   0.479   1.339   4.121
  887TIP3    H1 2625   0.574   1.352   4.127
  887TIP3    H2 2626   0.454   1.382   4.040
  888TIP3   OH2 2627   6.647   2.333   4.364
  888TIP3    H1 2628   6.725   2.291   4.328
  888TIP3    H2 2629   6.678   2.418   4.395
  889TIP3   OH2 2630   4.472   3.807   5.540
  889TIP3    H1 2631   4.385   3.788   5.503
  889TIP3    H2 2632   4.533   3.777   5.473
  890TIP3   OH2 2633   0.823   3.507   5.020
  890TIP3    H1 2634   0.754   3.487   5.084
  890TIP3    H2 2635   0.843   3.423   4.980
  891TIP3   OH2 2636   1.728   1.521   2.939
  891TIP3    H1 2637   1.658   1.481   2.991
  891TIP3    H2 2638   1.765   1.588   2.997
  892TIP3   OH2 2639   2.074   0.365   2.739
  892TIP3    H1 2640   2.157   0.327   2.768
  892TIP3    H2 2641   2.031   0.394   2.819
  893TIP3   OH2 2642   0.832   2.829   4.061
  893TIP3    H1 2643   0.912   2.794   4.022
  893TIP3    H2 2644   0.791   2.754   4.104
  894TIP3   OH2 2645   0.326   1.099   3.744
  894TIP3    H1 2646   0.402   1.072   3.795
  894TIP3    H2 2647   0.256   1.040   3.772
  895TIP3   OH2 2648   5.752   4.981   4.860
  895TIP3    H1 2649   5.709   5.032   4.792
  895TIP3    H2 2650   5.690   4.910   4.880
  896TIP3   OH2 2651   7.052   2.578   4.390
  896TIP3    H1 2652   7.129   2.572   4.445
  896TIP3    H2 2653   7.085   2.565   4.301
  897TIP3   OH2 2654   2.210   4.990   2.951
  897TIP3    H1 2655   2.276   4.927   2.923
  897TIP3    H2 2656   2.133   4.936   2.971
  898TIP3   OH2 2657   3.968   2.282   1.764
  898TIP3    H1 2658   4.042   2.315   1.712
  898TIP3    H2 2659   3.933   2.359   1.807
  899TIP3   OH2 2660   5.158   1.217   1.603
  899TIP3    H1 2661   5.185   1.297   1.648
  899TIP3    H2 2662   5.115   1.248   1.524
  900TIP3   OH2 2663   1.036   4.943   3.726
  900TIP3    H1 2664   1.016   4.987   3.644
  900TIP3    H2 2665   1.064   5.012   3.785
  901TIP3   OH2 2666   6.063   0.561   0.622
  901TIP3    H1 2667   6.089   0.609   0.544
  901TIP3    H2 2668   6.107   0.477   0.614
  902TIP3   OH2 2669   5.987   2.333   0.665
  902TIP3    H1 2670   6.016   2.418   0.633
  902TIP3    H2 2671   5.963   2.349   0.756
  903TIP3   OH2 2672   6.814   5.833   4.644
  903TIP3    H1 2673   6.802   5.908   4.587
  903TIP3    H2 2674   6.901   5.799   4.620
  904TIP3   OH2 2675   5.053   0.552   4.799
  904TIP3    H1 2676   5.110   0.490   4.753
  904TIP3    H2 2677   5.111   0.594   4.863
  905TIP3   OH2 2678   3.441   4.428   0.729
  905TIP3    H1 2679   3.370   4.399   0.786
  905TIP3    H2 2680   3.478   4.348   0.693
  906TIP3   OH2 2681   6.927   0.255   2.933
  906TIP3    H1 2682   6.857   0.258   2.999
  906TIP3    H2 2683   6.902   0.322   2.869
  907TIP3   OH2 2684   3.659   2.673   1.573
  907TIP3    H1 2685   3.654   2.579   1.560
  907TIP3    H2 2686   3.634   2.686   1.665
  908TIP3   OH2 2687   5.773   2.905   5.482
  908TIP3    H1 2688   5.807   2.867   5.564
  908TIP3    H2 2689   5.843   2.890   5.418
  909TIP3   OH2 2690   5.131   4.260   4.311
  909TIP3    H1 2691   5.037   4.269   4.324
  909TIP3    H2 2692   5.167   4.248   4.399
  910TIP3   OH2 2693   2.399   6.730   3.381
  910TIP3    H1 2694   2.450   6.768   3.452
  910TIP3    H2 2695   2.359   6.806   3.338
  911TIP3   OH2 2696   2.009   1.999   0.194
  911TIP3    H1 2697   1.941   2.019   0.131
  911TIP3    H2 2698   1.965   2.003   0.279
  912TIP3   OH2 2699   1.973   0.493   1.518
  912TIP3    H1 2700   1.987   0.469   1.426
  912TIP3    H2 2701   1.950   0.411   1.561
  913TIP3   OH2 2702   0.403   0.034   2.752
  913TIP3    H1 2703   0.477   0.095   2.754
  913TIP3    H2 2704   0.329   0.087   2.722
  914TIP3   OH2 2705   0.454   2.640   2.188
  914TIP3    H1 2706   0.420   2.706   2.248
  914TIP3    H2 2707   0.547   2.637   2.206
  915TIP3   OH2 2708  -0.002   1.167   4.667
  915TIP3    H1 2709   0.071   1.182   4.607
  915TIP3    H2 2710   0.040   1.162   4.753
  916TIP3   OH2 2711   1.178   3.291   4.391
  916TIP3    H1 2712   1.250   3.252   4.440
  916TIP3    H2 2713   1.210   3.293   4.301
  917TIP3   OH2 2714   5.181   4.556   3.213
  917TIP3    H1 2715   5.194   4.475   3.163
  917TIP3    H2 2716   5.086   4.568   3.213
  918TIP3   OH2 2717   1.746   6.165   0.749
  918TIP3    H1 2718   1.820   6.109   0.725
  918TIP3    H2 2719   1.676   6.140   0.688
  919TIP3   OH2 2720   0.715   1.096   5.192
  919TIP3    H1 2721   0.705   1.064   5.282
  919TIP3    H2 2722   0.764   1.178   5.200
  920TIP3   OH2 2723   5.355   6.568   3.926
  920TIP3    H1 2724   5.407   6.617   3.861
  920TIP3    H2 2725   5.383   6.604   4.010
  921TIP3   OH2 2726   5.880   3.501   3.043
  921TIP3    H1 2727   5.813   3.520   2.978
  921TIP3    H2 2728   5.909   3.587   3.073
  922TIP3   OH2 2729   4.363   3.211   4.622
  922TIP3    H1 2730   4.404   3.222   4.708
  922TIP3    H2 2731   4.433   3.179   4.566
  923TIP3   OH2 2732   4.531   4.486   1.332
  923TIP3    H1 2733   4.608   4.541   1.320
  923TIP3    H2 2734   4.560   4.398   1.307
  924TIP3   OH2 2735   5.509   3.873   1.147
  924TIP3    H1 2736   5.450   3.842   1.216
  924TIP3    H2 2737   5.577   3.922   1.194
  925TIP3   OH2 2738   0.933   2.273   4.689
  925TIP3    H1 2739   0.898   2.345   4.743
  925TIP3    H2 2740   0.911   2.194   4.738
  926TIP3   OH2 2741   0.646   0.436   3.464
  926TIP3    H1 2742   0.672   0.435   3.372
  926TIP3    H2 2743   0.700   0.504   3.504
  927TIP3   OH2 2744   2.265   4.994   4.277
  927TIP3    H1 2745   2.332   5.062   4.268
  927TIP3    H2 2746   2.237   4.976   4.187
  928TIP3   OH2 2747   0.133   3.893   3.389
  928TIP3    H1 2748   0.075   3.918   3.317
  928TIP3    H2 2749   0.219   3.883   3.348
  929TIP3   OH2 2750   6.948   6.580   5.414
  929TIP3    H1 2751   6.882   6.550   5.352
  929TIP3    H2 2752   6.903   6.582   5.499
  930TIP3   OH2 2753   5.292   6.100   1.700
  930TIP3    H1 2754   5.373   6.094   1.751
  930TIP3    H2 2755   5.277   6.194   1.689
  931TIP3   OH2 2756   6.561   0.562   0.931
  931TIP3    H1 2757   6.594   0.640   0.885
  931TIP3    H2 2758   6.466   0.574   0.931
  932TIP3   OH2 2759   5.375   3.039   0.896
  932TIP3    H1 2760   5.375   2.950   0.859
  932TIP3    H2 2761   5.431   3.089   0.837
  933TIP3   OH2 2762   3.324   5.121   1.229
  933TIP3    H1 2763   3.294   5.190   1.170
  933TIP3    H2 2764   3.295   5.040   1.188
  934TIP3   OH2 2765   2.601   3.487   0.222
  934TIP3    H1 2766   2.696   3.478   0.209
  934TIP3    H2 2767   2.563   3.466   0.137
  935TIP3   OH2 2768   3.556   3.180   5.397
  935TIP3    H1 2769   3.637   3.164   5.446
  935TIP3    H2 2770   3.488   3.186   5.465
  936TIP3   OH2 2771   7.014   2.584   1.350
  936TIP3    H1 2772   7.007   2.561   1.443
  936TIP3    H2 2773   6.969   2.668   1.342
  937TIP3   OH2 2774   1.946   3.285   3.867
  937TIP3    H1 2775   1.999   3.347   3.817
  937TIP3    H2 2776   2.009   3.222   3.902
  938TIP3   OH2 2777   3.275   4.381   4.911
  938TIP3    H1 2778   3.193   4.414   4.875
  938TIP3    H2 2779   3.325   4.460   4.934
  939TIP3   OH2 2780   3.809   0.404  -0.041
  939TIP3    H1 2781   3.903   0.385  -0.038
  939TIP3    H2 2782   3.799   0.481   0.016
  940TIP3   OH2 2783   4.324   3.779   4.692
  940TIP3    H1 2784   4.406   3.736   4.667
  940TIP3    H2 2785   4.289   3.815   4.610
  941TIP3   OH2 2786   3.936   0.907   0.288
  941TIP3    H1 2787   3.893   0.949   0.213
  941TIP3    H2 2788   4.002   0.970   0.316
  942TIP3   OH2 2789   7.003   5.198   5.797
  942TIP3    H1 2790   7.024   5.291   5.804
  942TIP3    H2 2791   6.911   5.196   5.770
  943TIP3   OH2 2792   0.911   3.106   4.685
  943TIP3    H1 2793   0.890   3.013   4.697
  943TIP3    H2 2794   1.000   3.106   4.652
  944TIP3   OH2 2795   1.285   3.705   4.814
  944TIP3    H1 2796   1.222   3.633   4.809
  944TIP3    H2 2797   1.291   3.725   4.908
  945TIP3   OH2 2798   4.914   4.537   3.202
  945TIP3    H1 2799   4.885   4.448   3.220
  945TIP3    H2 2800   4.834   4.583   3.174
  946TIP3   OH2 2801   2.768   4.483   3.650
  946TIP3    H1 2802   2.758   4.539   3.573
  946TIP3    H2 2803   2.844   4.429   3.631
  947TIP3   OH2 2804   1.331   0.929   0.936
  947TIP3    H1 2805   1.371   0.885   0.861
  947TIP3    H2 2806   1.373   1.015   0.939
  948TIP3   OH2 2807   7.007   2.088   4.934
  948TIP3    H1 2808   7.033   2.154   4.998
  948TIP3    H2 2809   7.059   2.011   4.957
  949TIP3   OH2 2810   0.143   6.416   3.156
  949TIP3    H1 2811   0.187   6.453   3.079
  949TIP3    H2 2812   0.205   6.429   3.228
  950TIP3   OH2 2813   2.011   2.112   1.604
  950TIP3    H1 2814   2.065   2.105   1.525
  950TIP3    H2 2815   1.937   2.053   1.588
  951TIP3   OH2 2816   1.279   2.746   3.461
  951TIP3    H1 2817   1.273   2.827   3.411
  951TIP3    H2 2818   1.279   2.677   3.395
  952TIP3   OH2 2819   0.253   5.365   1.621
  952TIP3    H1 2820   0.285   5.290   1.570
  952TIP3    H2 2821   0.206   5.327   1.695
  953TIP3   OH2 2822   2.166   2.239   1.152
  953TIP3    H1 2823   2.154   2.148   1.124
  953TIP3    H2 2824   2.119   2.290   1.087
  954TIP3   OH2 2825   3.463   2.687   0.149
  954TIP3    H1 2826   3.518   2.626   0.198
  954TIP3    H2 2827   3.442   2.640   0.068
  955TIP3   OH2 2828   3.675   2.466   5.878
  955TIP3    H1 2829   3.612   2.405   5.917
  955TIP3    H2 2830   3.681   2.538   5.941
  956TIP3   OH2 2831   6.332   1.367   2.508
  956TIP3    H1 2832   6.343   1.275   2.534
  956TIP3    H2 2833   6.398   1.414   2.558
  957TIP3   OH2 2834   5.196   0.930   4.776
  957TIP3    H1 2835   5.225   0.862   4.715
  957TIP3    H2 2836   5.276   0.979   4.797
  958TIP3   OH2 2837   1.745   6.112   5.100
  958TIP3    H1 2838   1.806   6.070   5.039
  958TIP3    H2 2839   1.706   6.183   5.050
  959TIP3   OH2 2840   7.164   3.789   5.351
  959TIP3    H1 2841   7.241   3.822   5.398
  959TIP3    H2 2842   7.090   3.836   5.390
  960TIP3   OH2 2843   3.473   3.718   1.444
  960TIP3    H1 2844   3.473   3.808   1.474
  960TIP3    H2 2845   3.533   3.673   1.504
  961TIP3   OH2 2846   3.026   5.061   1.781
  961TIP3    H1 2847   2.965   4.997   1.744
  961TIP3    H2 2848   3.068   5.101   1.705
  962TIP3   OH2 2849   0.615   0.613   1.493
  962TIP3    H1 2850   0.532   0.567   1.502
  962TIP3    H2 2851   0.610   0.656   1.407
  963TIP3   OH2 2852   2.113   6.319   1.594
  963TIP3    H1 2853   2.067   6.348   1.515
  963TIP3    H2 2854   2.182   6.384   1.607
  964TIP3   OH2 2855   0.261   5.601   1.465
  964TIP3    H1 2856   0.263   5.526   1.525
  964TIP3    H2 2857   0.267   5.678   1.522
  965TIP3   OH2 2858   4.582   4.695   4.491
  965TIP3    H1 2859   4.502   4.656   4.454
  965TIP3    H2 2860   4.560   4.712   4.582
  966TIP3   OH2 2861   3.007   0.773   1.825
  966TIP3    H1 2862   2.979   0.766   1.917
  966TIP3    H2 2863   2.928   0.800   1.778
  967TIP3   OH2 2864   4.396   0.273   5.069
  967TIP3    H1 2865   4.482   0.250   5.034
  967TIP3    H2 2866   4.360   0.336   5.007
  968TIP3   OH2 2867   6.542   0.625   0.219
  968TIP3    H1 2868   6.508   0.638   0.131
  968TIP3    H2 2869   6.476   0.571   0.263
  969TIP3   OH2 2870   0.173   6.095   2.415
  969TIP3    H1 2871   0.198   6.145   2.493
  969TIP3    H2 2872   0.079   6.080   2.424
  970TIP3   OH2 2873   6.294   2.418   4.990
  970TIP3    H1 2874   6.284   2.323   5.002
  970TIP3    H2 2875   6.248   2.456   5.065
  971TIP3   OH2 2876   0.220   1.954   3.889
  971TIP3    H1 2877   0.220   1.863   3.918
  971TIP3    H2 2878   0.245   1.950   3.797
  972TIP3   OH2 2879   1.612   1.473   2.709
  972TIP3    H1 2880   1.524   1.445   2.736
  972TIP3    H2 2881   1.657   1.495   2.790
  973TIP3   OH2 2882   5.951   6.091   3.368
  973TIP3    H1 2883   5.950   6.037   3.288
  973TIP3    H2 2884   6.025   6.150   3.355
  974TIP3   OH2 2885   3.453   6.538   1.545
  974TIP3    H1 2886   3.372   6.550   1.595
  974TIP3    H2 2887   3.440   6.591   1.466
  975TIP3   OH2 2888   1.695   3.548   1.094
  975TIP3    H1 2889   1.715   3.622   1.036
  975TIP3    H2 2890   1.778   3.529   1.139
  976TIP3   OH2 2891   6.831   3.356   4.561
  976TIP3    H1 2892   6.843   3.431   4.619
  976TIP3    H2 2893   6.913   3.308   4.567
  977TIP3   OH2 2894   4.509   5.110   1.932
  977TIP3    H1 2895   4.544   5.188   1.889
  977TIP3    H2 2896   4.572   5.092   2.002
  978TIP3   OH2 2897   4.408   5.053   0.832
  978TIP3    H1 2898   4.360   5.094   0.760
  978TIP3    H2 2899   4.410   5.119   0.901
  979TIP3   OH2 2900   3.772   6.677   2.453
  979TIP3    H1 2901   3.860   6.716   2.447
  979TIP3    H2 2902   3.724   6.716   2.380
  980TIP3   OH2 2903   5.307   0.874   5.408
  980TIP3    H1 2904   5.301   0.958   5.454
  980TIP3    H2 2905   5.401   0.862   5.392
  981TIP3   OH2 2906   2.946   6.010   3.575
  981TIP3    H1 2907   2.921   6.101   3.567
  981TIP3    H2 2908   2.864   5.962   3.577
  982TIP3   OH2 2909   6.706   0.558   4.597
  982TIP3    H1 2910   6.795   0.525   4.583
  982TIP3    H2 2911   6.674   0.508   4.672
  983TIP3   OH2 2912   1.552   5.589   1.179
  983TIP3    H1 2913   1.609   5.586   1.102
  983TIP3    H2 2914   1.612   5.591   1.254
  984TIP3   OH2 2915   3.555   1.921   2.652
  984TIP3    H1 2916   3.479   1.979   2.642
  984TIP3    H2 2917   3.525   1.854   2.713
  985TIP3   OH2 2918   0.345   0.319   4.939
  985TIP3    H1 2919   0.363   0.235   4.982
  985TIP3    H2 2920   0.428   0.344   4.899
  986TIP3   OH2 2921   2.956   6.421   2.182
  986TIP3    H1 2922   2.954   6.326   2.182
  986TIP3    H2 2923   2.947   6.446   2.274
  987TIP3   OH2 2924   2.829   1.861   3.694
  987TIP3    H1 2925   2.759   1.926   3.693
  987TIP3    H2 2926   2.897   1.899   3.637
  988TIP3   OH2 2927   0.385   3.540   4.414
  988TIP3    H1 2928   0.300   3.501   4.434
  988TIP3    H2 2929   0.377   3.568   4.323
  989TIP3   OH2 2930   6.025   2.536   0.891
  989TIP3    H1 2931   6.086   2.610   0.895
  989TIP3    H2 2932   5.943   2.573   0.859
  990TIP3   OH2 2933   0.866   2.790   0.191
  990TIP3    H1 2934   0.783   2.788   0.238
  990TIP3    H2 2935   0.866   2.709   0.140
  991TIP3   OH2 2936   2.565   5.687   2.625
  991TIP3    H1 2937   2.617   5.766   2.636
  991TIP3    H2 2938   2.520   5.699   2.541
  992TIP3   OH2 2939   1.861   3.301   1.079
  992TIP3    H1 2940   1.771   3.285   1.107
  992TIP3    H2 2941   1.898   3.357   1.148
  993TIP3   OH2 2942   4.277   5.763   4.388
  993TIP3    H1 2943   4.309   5.828   4.451
  993TIP3    H2 2944   4.228   5.813   4.323
  994TIP3   OH2 2945   0.781   5.530   2.581
  994TIP3    H1 2946   0.866   5.516   2.538
  994TIP3    H2 2947   0.798   5.509   2.673
  995TIP3   OH2 2948   4.683   0.488   1.742
  995TIP3    H1 2949   4.632   0.479   1.662
  995TIP3    H2 2950   4.766   0.443   1.722
  996TIP3   OH2 2951   1.650   3.858   2.131
  996TIP3    H1 2952   1.602   3.776   2.121
  996TIP3    H2 2953   1.677   3.882   2.042
  997TIP3   OH2 2954   5.039   2.106   5.507
  997TIP3    H1 2955   5.103   2.160   5.460
  997TIP3    H2 2956   5.051   2.129   5.599
  998TIP3   OH2 2957   4.645   0.941   0.489
  998TIP3    H1 2958   4.730   0.947   0.446
  998TIP3    H2 2959   4.639   0.850   0.519
  999TIP3   OH2 2960   6.503   1.178   1.258
  999TIP3    H1 2961   6.457   1.258   1.234
  999TIP3    H2 2962   6.594   1.193   1.233
 1000TIP3   OH2 2963   6.999   6.793   2.305
 1000TIP3    H1 2964   7.067   6.740   2.345
 1000TIP3    H2 2965   7.032   6.813   2.217
 1001TIP3   OH2 2966   5.632   4.780   5.757
 1001TIP3    H1 2967   5.692   4.791   5.684
 1001TIP3    H2 2968   5.657   4.697   5.797
 1002TIP3   OH2 2969   1.709   3.891   3.712
 1002TIP3    H1 2970   1.623   3.928   3.692
 1002TIP3    H2 2971   1.690   3.816   3.769
 1003TIP3   OH2 2972   4.777   4.267   5.484
 1003TIP3    H1 2973   4.713   4.232   5.546
 1003TIP3    H2 2974   4.859   4.271   5.534
 1004TIP3   OH2 2975   2.775   3.758   1.052
 1004TIP3    H1 2976   2.728   3.744   1.135
 1004TIP3    H2 2977   2.774   3.853   1.040
 1005TIP3   OH2 2978   5.250   0.715   3.731
 1005TIP3    H1 2979   5.200   0.785   3.772
 1005TIP3    H2 2980   5.336   0.721   3.772
 1006TIP3   OH2 2981   4.491   1.442   1.135
 1006TIP3    H1 2982   4.520   1.521   1.089
 1006TIP3    H2 2983   4.401   1.428   1.107
 1007TIP3   OH2 2984   3.059   2.855   4.244
 1007TIP3    H1 2985   2.969   2.846   4.212
 1007TIP3    H2 2986   3.089   2.939   4.207
 1008TIP3   OH2 2987   1.372   0.810   5.325
 1008TIP3    H1 2988   1.452   0.769   5.290
 1008TIP3    H2 2989   1.308   0.801   5.255
 1009TIP3   OH2 2990   2.451   4.861   1.841
 1009TIP3    H1 2991   2.536   4.824   1.866
 1009TIP3    H2 2992   2.408   4.792   1.790
 1010TIP3   OH2 2993   5.705   6.085   1.916
 1010TIP3    H1 2994   5.724   6.130   1.833
 1010TIP3    H2 2995   5.667   6.002   1.889
 1011TIP3   OH2 2996   0.345   3.124   3.041
 1011TIP3    H1 2997   0.425   3.165   3.007
 1011TIP3    H2 2998   0.296   3.196   3.082
 1012TIP3   OH2 2999   0.174   1.891   3.351
 1012TIP3    H1 3000   0.225   1.958   3.306
 1012TIP3    H2 3001   0.161   1.823   3.285
 1013TIP3   OH2 3002   0.330   2.601   0.708
 1013TIP3    H1 3003   0.421   2.588   0.736
 1013TIP3    H2 3004   0.297   2.512   0.692
 1014TIP3   OH2 3005   4.381   0.016   1.864
 1014TIP3    H1 3006   4.455   0.051   1.913
 1014TIP3    H2 3007   4.337  -0.042   1.926
 1015TIP3   OH2 3008   0.289   1.823   0.413
 1015TIP3    H1 3009   0.379   1.856   0.403
 1015TIP3    H2 3010   0.282   1.802   0.506
 1016TIP3   OH2 3011   0.996   3.225   2.833
 1016TIP3    H1 3012   1.045   3.147   2.859
 1016TIP3    H2 3013   1.056   3.298   2.847
 1017TIP3   OH2 3014   4.761   0.188   3.317
 1017TIP3    H1 3015   4.725   0.272   3.346
 1017TIP3    H2 3016   4.856   0.201   3.318
 1018TIP3   OH2 3017   5.039   4.113   2.454
 1018TIP3    H1 3018   5.051   4.124   2.549
 1018TIP3    H2 3019   4.957   4.159   2.435
 1019TIP3   OH2 3020   1.685   0.003   2.441
 1019TIP3    H1 3021   1.630   0.071   2.401
 1019TIP3    H2 3022   1.774   0.028   2.416
 1020TIP3   OH2 3023   2.897   6.164   3.210
 1020TIP3    H1 3024   2.902   6.077   3.170
 1020TIP3    H2 3025   2.809   6.169   3.246
 1021TIP3   OH2 3026   1.985   4.487   2.116
 1021TIP3    H1 3027   2.007   4.577   2.094
 1021TIP3    H2 3028   1.927   4.493   2.192
 1022TIP3   OH2 3029   3.850   3.208   1.862
 1022TIP3    H1 3030   3.794   3.282   1.885
 1022TIP3    H2 3031   3.801   3.130   1.889
 1023TIP3   OH2 3032   1.339   3.589   0.495
 1023TIP3    H1 3033   1.330   3.591   0.590
 1023TIP3    H2 3034   1.369   3.677   0.472
 1024TIP3   OH2 3035   6.322   3.819   5.416
 1024TIP3    H1 3036   6.368   3.877   5.354
 1024TIP3    H2 3037   6.231   3.824   5.389
 1025TIP3   OH2 3038   5.081   0.326   4.137
 1025TIP3    H1 3039   4.995   0.301   4.171
 1025TIP3    H2 3040   5.099   0.411   4.178
 1026TIP3   OH2 3041   3.488   2.080   5.600
 1026TIP3    H1 3042   3.442   2.164   5.605
 1026TIP3    H2 3043   3.575   2.103   5.568
 1027TIP3   OH2 3044   5.089   2.982   0.964
 1027TIP3    H1 3045   5.021   3.009   0.902
 1027TIP3    H2 3046   5.146   2.924   0.914
 1028TIP3   OH2 3047   3.754   1.742   2.402
 1028TIP3    H1 3048   3.715   1.799   2.336
 1028TIP3    H2 3049   3.809   1.800   2.455
 1029TIP3   OH2 3050   1.800   6.366   5.437
 1029TIP3    H1 3051   1.709   6.393   5.428
 1029TIP3    H2 3052   1.829   6.351   5.347
 1030TIP3   OH2 3053   5.352   4.427   2.366
 1030TIP3    H1 3054   5.352   4.519   2.393
 1030TIP3    H2 3055   5.392   4.428   2.279
 1031TIP3   OH2 3056   0.424   6.240   3.131
 1031TIP3    H1 3057   0.347   6.198   3.170
 1031TIP3    H2 3058   0.454   6.179   3.064
 1032TIP3   OH2 3059   2.396   5.695   4.590
 1032TIP3    H1 3060   2.408   5.600   4.586
 1032TIP3    H2 3061   2.385   5.721   4.499
 1033TIP3   OH2 3062   0.468   0.021   2.375
 1033TIP3    H1 3063   0.413   0.100   2.376
 1033TIP3    H2 3064   0.546   0.047   2.326
 1034TIP3   OH2 3065   1.838   5.852   1.234
 1034TIP3    H1 3066   1.870   5.809   1.155
 1034TIP3    H2 3067   1.845   5.785   1.302
 1035TIP3   OH2 3068   6.025   4.497   1.972
 1035TIP3    H1 3069   5.963   4.446   1.920
 1035TIP3    H2 3070   6.098   4.437   1.989
 1036TIP3   OH2 3071   2.757   3.610   1.337
 1036TIP3    H1 3072   2.850   3.620   1.358
 1036TIP3    H2 3073   2.754   3.530   1.284
 1037TIP3   OH2 3074   4.738   3.879   0.529
 1037TIP3    H1 3075   4.715   3.909   0.617
 1037TIP3    H2 3076   4.750   3.959   0.478
 1038TIP3   OH2 3077   3.518   0.967   4.227
 1038TIP3    H1 3078   3.586   0.996   4.288
 1038TIP3    H2 3079   3.443   0.947   4.283
 1039TIP3   OH2 3080   0.297   4.241   0.324
 1039TIP3    H1 3081   0.294   4.147   0.308
 1039TIP3    H2 3082   0.221   4.276   0.277
 1040TIP3   OH2 3083   2.384   3.864   3.870
 1040TIP3    H1 3084   2.454   3.928   3.881
 1040TIP3    H2 3085   2.428   3.779   3.879
 1041TIP3   OH2 3086   6.568   4.304   1.086
 1041TIP3    H1 3087   6.558   4.398   1.071
 1041TIP3    H2 3088   6.482   4.276   1.118
 1042TIP3   OH2 3089   5.400   5.409   0.358
 1042TIP3    H1 3090   5.333   5.353   0.317
 1042TIP3    H2 3091   5.473   5.349   0.376
 1043TIP3   OH2 3092   3.043   0.672   0.788
 1043TIP3    H1 3093   3.034   0.587   0.830
 1043TIP3    H2 3094   2.962   0.684   0.739
 1044TIP3   OH2 3095   1.711   0.263   2.704
 1044TIP3    H1 3096   1.780   0.212   2.661
 1044TIP3    H2 3097   1.745   0.278   2.792
 1045TIP3   OH2 3098   7.011   3.873   5.748
 1045TIP3    H1 3099   6.956   3.844   5.676
 1045TIP3    H2 3100   7.004   3.803   5.813
 1046TIP3   OH2 3101   2.742   4.164   2.919
 1046TIP3    H1 3102   2.792   4.246   2.915
 1046TIP3    H2 3103   2.664   4.187   2.970
 1047TIP3   OH2 3104   7.096   6.765   3.005
 1047TIP3    H1 3105   7.017   6.819   3.014
 1047TIP3    H2 3106   7.063   6.675   3.011
 1048TIP3   OH2 3107   6.411   2.026   0.432
 1048TIP3    H1 3108   6.317   2.018   0.414
 1048TIP3    H2 3109   6.433   2.115   0.405
 1049TIP3   OH2 3110   3.486   4.114   4.152
 1049TIP3    H1 3111   3.562   4.058   4.133
 1049TIP3    H2 3112   3.485   4.120   4.248
 1050TIP3   OH2 3113   0.381   3.399   3.095
 1050TIP3    H1 3114   0.317   3.381   3.164
 1050TIP3    H2 3115   0.462   3.419   3.142
 1051TIP3   OH2 3116   7.028   0.658   3.246
 1051TIP3    H1 3117   7.119   0.626   3.245
 1051TIP3    H2 3118   7.030   0.739   3.196
 1052TIP3   OH2 3119   5.960   2.571   4.538
 1052TIP3    H1 3120   5.873   2.555   4.574
 1052TIP3    H2 3121   5.993   2.483   4.517
 1053TIP3   OH2 3122   2.860   1.567   1.780
 1053TIP3    H1 3123   2.921   1.538   1.848
 1053TIP3    H2 3124   2.878   1.660   1.768
 1054TIP3   OH2 3125   4.179   0.886   4.177
 1054TIP3    H1 3126   4.221   0.811   4.219
 1054TIP3    H2 3127   4.241   0.958   4.187
 1055TIP3   OH2 3128   3.891   0.133   5.741
 1055TIP3    H1 3129   3.916   0.118   5.832
 1055TIP3    H2 3130   3.815   0.190   5.746
 1056TIP3   OH2 3131   4.084   6.218   1.297
 1056TIP3    H1 3132   4.029   6.140   1.302
 1056TIP3    H2 3133   4.024   6.290   1.278
 1057TIP3   OH2 3134   5.002   2.932   1.222
 1057TIP3    H1 3135   4.940   3.004   1.230
 1057TIP3    H2 3136   5.049   2.950   1.141
 1058TIP3   OH2 3137   2.980   4.315   3.586
 1058TIP3    H1 3138   2.930   4.234   3.575
 1058TIP3    H2 3139   3.058   4.289   3.635
 1059TIP3   OH2 3140   6.576   5.741   4.661
 1059TIP3    H1 3141   6.549   5.740   4.569
 1059TIP3    H2 3142   6.665   5.776   4.660
 1060TIP3   OH2 3143   5.947   2.948   4.547
 1060TIP3    H1 3144   5.905   3.031   4.568
 1060TIP3    H2 3145   6.040   2.969   4.539
 1061TIP3   OH2 3146   4.142   5.159   3.883
 1061TIP3    H1 3147   4.182   5.128   3.802
 1061TIP3    H2 3148   4.054   5.189   3.856
 1062TIP3   OH2 3149   3.179   5.952   1.303
 1062TIP3    H1 3150   3.250   5.890   1.290
 1062TIP3    H2 3151   3.195   5.989   1.390
 1063TIP3   OH2 3152   3.565   5.139   4.462
 1063TIP3    H1 3153   3.627   5.209   4.481
 1063TIP3    H2 3154   3.481   5.184   4.451
 1064TIP3   OH2 3155   1.108   1.915   2.031
 1064TIP3    H1 3156   1.047   1.966   1.978
 1064TIP3    H2 3157   1.061   1.900   2.113
 1065TIP3   OH2 3158   1.927   5.554   2.182
 1065TIP3    H1 3159   1.917   5.547   2.087
 1065TIP3    H2 3160   1.886   5.475   2.217
 1066TIP3   OH2 3161  -0.014   3.113   0.665
 1066TIP3    H1 3162   0.012   3.187   0.720
 1066TIP3    H2 3163   0.015   3.036   0.713
 1067TIP3   OH2 3164   0.200   1.106   4.512
 1067TIP3    H1 3165   0.240   1.157   4.442
 1067TIP3    H2 3166   0.251   1.025   4.514
 1068TIP3   OH2 3167   3.292   6.672   4.862
 1068TIP3    H1 3168   3.205   6.635   4.879
 1068TIP3    H2 3169   3.323   6.623   4.786
 1069TIP3   OH2 3170   2.212   6.581   3.005
 1069TIP3    H1 3171   2.142   6.520   2.984
 1069TIP3    H2 3172   2.190   6.615   3.092
 1070TIP3   OH2 3173   1.920   1.947   4.204
 1070TIP3    H1 3174   1.923   1.925   4.297
 1070TIP3    H2 3175   1.930   1.863   4.159
 1071TIP3   OH2 3176   3.775   4.896   0.231
 1071TIP3    H1 3177   3.800   4.851   0.150
 1071TIP3    H2 3178   3.713   4.963   0.202
 1072TIP3   OH2 3179   4.146   5.920   2.827
 1072TIP3    H1 3180   4.124   5.977   2.754
 1072TIP3    H2 3181   4.149   5.979   2.903
 1073TIP3   OH2 3182   6.422   1.442   4.798
 1073TIP3    H1 3183   6.329   1.449   4.778
 1073TIP3    H2 3184   6.426   1.430   4.893
 1074TIP3   OH2 3185   6.802   0.055   3.650
 1074TIP3    H1 3186   6.806   0.007   3.733
 1074TIP3    H2 3187   6.824  -0.011   3.584
 1075TIP3   OH2 3188   1.578   1.882   5.783
 1075TIP3    H1 3189   1.544   1.969   5.759
 1075TIP3    H2 3190   1.669   1.883   5.752
 1076TIP3   OH2 3191   4.963   2.169   3.561
 1076TIP3    H1 3192   5.010   2.215   3.630
 1076TIP3    H2 3193   4.891   2.228   3.538
 1077TIP3   OH2 3194   3.795   4.304   2.765
 1077TIP3    H1 3195   3.719   4.361   2.757
 1077TIP3    H2 3196   3.780   4.256   2.846
 1078TIP3   OH2 3197   0.607   4.597   0.387
 1078TIP3    H1 3198   0.626   4.504   0.377
 1078TIP3    H2 3199   0.517   4.600   0.420
 1079TIP3   OH2 3200   0.709   3.852   1.999
 1079TIP3    H1 3201   0.642   3.822   1.938
 1079TIP3    H2 3202   0.698   3.795   2.076
 1080TIP3   OH2 3203   4.966   2.879   1.649
 1080TIP3    H1 3204   4.957   2.790   1.683
 1080TIP3    H2 3205   4.892   2.890   1.589
 1081TIP3   OH2 3206   4.516   5.005   1.270
 1081TIP3    H1 3207   4.456   4.934   1.247
 1081TIP3    H2 3208   4.503   5.071   1.202
 1082TIP3   OH2 3209   6.448   1.551   0.250
 1082TIP3    H1 3210   6.460   1.635   0.294
 1082TIP3    H2 3211   6.477   1.567   0.161
 1083TIP3   OH2 3212   5.963   4.561   0.066
 1083TIP3    H1 3213   5.890   4.622   0.074
 1083TIP3    H2 3214   6.040   4.611   0.092
 1084TIP3   OH2 3215   2.206   5.344   1.851
 1084TIP3    H1 3216   2.127   5.344   1.796
 1084TIP3    H2 3217   2.177   5.310   1.935
 1085TIP3   OH2 3218   5.820   4.917   2.601
 1085TIP3    H1 3219   5.814   4.868   2.520
 1085TIP3    H2 3220   5.887   4.984   2.584
 1086TIP3   OH2 3221   2.674   1.375   1.702
 1086TIP3    H1 3222   2.748   1.435   1.692
 1086TIP3    H2 3223   2.668   1.330   1.618
 1087TIP3   OH2 3224   6.577   6.175   1.775
 1087TIP3    H1 3225   6.563   6.165   1.680
 1087TIP3    H2 3226   6.595   6.268   1.787
 1088TIP3   OH2 3227   0.430   4.039   4.539
 1088TIP3    H1 3228   0.362   4.034   4.473
 1088TIP3    H2 3229   0.457   3.948   4.554
 1089TIP3   OH2 3230   2.732   5.743   0.709
 1089TIP3    H1 3231   2.705   5.722   0.799
 1089TIP3    H2 3232   2.695   5.672   0.656
 1090TIP3   OH2 3233   5.053   1.376   3.048
 1090TIP3    H1 3234   5.143   1.376   3.080
 1090TIP3    H2 3235   5.046   1.297   2.995
 1091TIP3   OH2 3236   4.820   4.742   5.748
 1091TIP3    H1 3237   4.913   4.758   5.766
 1091TIP3    H2 3238   4.778   4.742   5.834
 1092TIP3   OH2 3239   4.758   3.624   1.415
 1092TIP3    H1 3240   4.695   3.616   1.486
 1092TIP3    H2 3241   4.831   3.568   1.441
 1093TIP3   OH2 3242   1.666   0.284   0.591
 1093TIP3    H1 3243   1.733   0.353   0.590
 1093TIP3    H2 3244   1.693   0.225   0.661
 1094TIP3   OH2 3245   4.436   4.074   3.385
 1094TIP3    H1 3246   4.362   4.014   3.384
 1094TIP3    H2 3247   4.490   4.047   3.310
 1095TIP3   OH2 3248   4.531   3.061   2.797
 1095TIP3    H1 3249   4.557   3.036   2.708
 1095TIP3    H2 3250   4.487   3.145   2.786
 1096TIP3   OH2 3251   3.292   5.477   1.621
 1096TIP3    H1 3252   3.311   5.571   1.614
 1096TIP3    H2 3253   3.236   5.458   1.546
 1097TIP3   OH2 3254   1.996   1.383   0.423
 1097TIP3    H1 3255   1.997   1.408   0.515
 1097TIP3    H2 3256   1.904   1.387   0.397
 1098TIP3   OH2 3257   4.510   5.743   5.270
 1098TIP3    H1 3258   4.573   5.814   5.257
 1098TIP3    H2 3259   4.549   5.689   5.339
 1099TIP3   OH2 3260   4.866   0.229   4.275
 1099TIP3    H1 3261   4.784   0.255   4.318
 1099TIP3    H2 3262   4.874   0.135   4.292
 1100TIP3   OH2 3263   4.756   3.802   3.852
 1100TIP3    H1 3264   4.673   3.768   3.883
 1100TIP3    H2 3265   4.733   3.858   3.777
 1101TIP3   OH2 3266   1.167   6.434   2.438
 1101TIP3    H1 3267   1.211   6.475   2.513
 1101TIP3    H2 3268   1.219   6.356   2.420
 1102TIP3   OH2 3269   2.173   1.576   3.067
 1102TIP3    H1 3270   2.093   1.527   3.045
 1102TIP3    H2 3271   2.155   1.613   3.154
 1103TIP3   OH2 3272   0.474   3.199   5.226
 1103TIP3    H1 3273   0.486   3.104   5.223
 1103TIP3    H2 3274   0.474   3.220   5.319
 1104TIP3   OH2 3275   6.799   4.990   3.931
 1104TIP3    H1 3276   6.732   4.959   3.870
 1104TIP3    H2 3277   6.872   4.929   3.921
 1105TIP3   OH2 3278   1.255   3.898   2.405
 1105TIP3    H1 3279   1.210   3.915   2.488
 1105TIP3    H2 3280   1.266   3.803   2.401
 1106TIP3   OH2 3281   5.418   4.203   4.958
 1106TIP3    H1 3282   5.441   4.284   4.913
 1106TIP3    H2 3283   5.490   4.187   5.018
 1107TIP3   OH2 3284   2.210   1.698   4.344
 1107TIP3    H1 3285   2.203   1.783   4.386
 1107TIP3    H2 3286   2.275   1.710   4.275
 1108TIP3   OH2 3287   1.370   3.503   4.998
 1108TIP3    H1 3288   1.464   3.493   4.984
 1108TIP3    H2 3289   1.361   3.587   5.044
 1109TIP3   OH2 3290   0.838   6.127   5.123
 1109TIP3    H1 3291   0.806   6.116   5.212
 1109TIP3    H2 3292   0.818   6.218   5.101
 1110TIP3   OH2 3293   4.108   4.894   4.988
 1110TIP3    H1 3294   4.193   4.917   4.952
 1110TIP3    H2 3295   4.045   4.936   4.930
 1111TIP3   OH2 3296   4.329   5.735   0.259
 1111TIP3    H1 3297   4.423   5.728   0.276
 1111TIP3    H2 3298   4.318   5.698   0.172
 1112TIP3   OH2 3299   1.596   5.351   2.500
 1112TIP3    H1 3300   1.520   5.404   2.477
 1112TIP3    H2 3301   1.665   5.414   2.518
 1113TIP3   OH2 3302   4.904   0.696   1.147
 1113TIP3    H1 3303   4.941   0.638   1.080
 1113TIP3    H2 3304   4.819   0.722   1.113
 1114TIP3   OH2 3305   3.141   0.955   2.477
 1114TIP3    H1 3306   3.190   0.978   2.556
 1114TIP3    H2 3307   3.060   1.005   2.483
 1115TIP3   OH2 3308   1.157   3.372   4.871
 1115TIP3    H1 3309   1.211   3.293   4.870
 1115TIP3    H2 3310   1.213   3.438   4.913
 1116TIP3   OH2 3311   1.301   3.586   3.302
 1116TIP3    H1 3312   1.214   3.625   3.295
 1116TIP3    H2 3313   1.300   3.513   3.240
 1117TIP3   OH2 3314   1.048   2.031   2.699
 1117TIP3    H1 3315   1.131   2.026   2.747
 1117TIP3    H2 3316   1.062   1.974   2.624
 1118TIP3   OH2 3317   0.966   2.186   1.542
 1118TIP3    H1 3318   0.877   2.153   1.549
 1118TIP3    H2 3319   1.012   2.149   1.617
 1119TIP3   OH2 3320   5.998   6.619   1.028
 1119TIP3    H1 3321   5.996   6.581   0.941
 1119TIP3    H2 3322   6.066   6.686   1.024
 1120TIP3   OH2 3323   4.887   1.236   4.008
 1120TIP3    H1 3324   4.929   1.300   4.065
 1120TIP3    H2 3325   4.955   1.214   3.944
 1121TIP3   OH2 3326   2.540   0.027   0.546
 1121TIP3    H1 3327   2.482   0.086   0.595
 1121TIP3    H2 3328   2.556  -0.046   0.606
 1122TIP3   OH2 3329   5.739   6.177   4.709
 1122TIP3    H1 3330   5.656   6.209   4.745
 1122TIP3    H2 3331   5.804   6.200   4.775
 1123TIP3   OH2 3332   2.432   1.726   2.161
 1123TIP3    H1 3333   2.523   1.698   2.165
 1123TIP3    H2 3334   2.405   1.732   2.253
 1124TIP3   OH2 3335   5.609   3.060   4.272
 1124TIP3    H1 3336   5.627   3.052   4.179
 1124TIP3    H2 3337   5.688   3.026   4.315
 1125TIP3   OH2 3338   6.870   3.748   0.409
 1125TIP3    H1 3339   6.836   3.665   0.376
 1125TIP3    H2 3340   6.794   3.789   0.451
 1126TIP3   OH2 3341   5.205   6.373   4.157
 1126TIP3    H1 3342   5.191   6.451   4.211
 1126TIP3    H2 3343   5.278   6.396   4.100
 1127TIP3   OH2 3344   5.277   3.737   0.865
 1127TIP3    H1 3345   5.338   3.763   0.934
 1127TIP3    H2 3346   5.191   3.738   0.907
 1128TIP3   OH2 3347   5.812   1.822   5.752
 1128TIP3    H1 3348   5.807   1.736   5.793
 1128TIP3    H2 3349   5.745   1.874   5.797
 1129TIP3   OH2 3350   1.578   0.108   4.787
 1129TIP3    H1 3351   1.606   0.030   4.740
 1129TIP3    H2 3352   1.645   0.174   4.766
 1130TIP3   OH2 3353   4.464   6.538   4.214
 1130TIP3    H1 3354   4.450   6.625   4.253
 1130TIP3    H2 3355   4.558   6.532   4.202
 1131TIP3   OH2 3356   4.133   1.310   0.719
 1131TIP3    H1 3357   4.195   1.319   0.647
 1131TIP3    H2 3358   4.051   1.284   0.678
 1132TIP3   OH2 3359   6.249   2.302   3.285
 1132TIP3    H1 3360   6.318   2.368   3.277
 1132TIP3    H2 3361   6.168   2.351   3.289
 1133TIP3   OH2 3362  -0.004   3.143   1.282
 1133TIP3    H1 3363  -0.090   3.106   1.264
 1133TIP3    H2 3364   0.027   3.175   1.197
 1134TIP3   OH2 3365   2.782   1.490   4.780
 1134TIP3    H1 3366   2.709   1.548   4.754
 1134TIP3    H2 3367   2.798   1.511   4.871
 1135TIP3   OH2 3368   0.282   0.254   2.358
 1135TIP3    H1 3369   0.195   0.294   2.361
 1135TIP3    H2 3370   0.340   0.321   2.395
 1136TIP3   OH2 3371   4.528   0.956   3.375
 1136TIP3    H1 3372   4.457   0.987   3.318
 1136TIP3    H2 3373   4.585   1.031   3.385
 1137TIP3   OH2 3374   2.302   5.356   3.539
 1137TIP3    H1 3375   2.257   5.419   3.596
 1137TIP3    H2 3376   2.357   5.305   3.599
 1138TIP3   OH2 3377   5.688   2.011   1.282
 1138TIP3    H1 3378   5.647   1.925   1.296
 1138TIP3    H2 3379   5.757   2.014   1.349
 1139TIP3   OH2 3380   3.222   6.192   0.381
 1139TIP3    H1 3381   3.272   6.242   0.446
 1139TIP3    H2 3382   3.148   6.249   0.360
 1140TIP3   OH2 3383   5.125   0.356   2.489
 1140TIP3    H1 3384   5.168   0.415   2.428
 1140TIP3    H2 3385   5.041   0.336   2.449
 1141TIP3   OH2 3386   5.501   3.797   0.084
 1141TIP3    H1 3387   5.528   3.727   0.144
 1141TIP3    H2 3388   5.581   3.846   0.066
 1142TIP3   OH2 3389   2.599   1.934   4.872
 1142TIP3    H1 3390   2.601   2.029   4.859
 1142TIP3    H2 3391   2.679   1.903   4.831
 1143TIP3   OH2 3392   1.307   1.041   4.483
 1143TIP3    H1 3393   1.400   1.024   4.465
 1143TIP3    H2 3394   1.276   0.961   4.525
 1144TIP3   OH2 3395   5.843   6.718   2.371
 1144TIP3    H1 3396   5.907   6.739   2.303
 1144TIP3    H2 3397   5.882   6.752   2.451
 1145TIP3   OH2 3398   6.998   1.593   0.103
 1145TIP3    H1 3399   6.982   1.687   0.115
 1145TIP3    H2 3400   7.070   1.589   0.040
 1146TIP3   OH2 3401   6.925   4.812   5.557
 1146TIP3    H1 3402   6.969   4.860   5.627
 1146TIP3    H2 3403   6.850   4.867   5.534
 1147TIP3   OH2 3404   2.018   3.249   1.509
 1147TIP3    H1 3405   1.959   3.190   1.556
 1147TIP3    H2 3406   1.969   3.331   1.503
 1148TIP3   OH2 3407   2.379   1.846   2.652
 1148TIP3    H1 3408   2.298   1.896   2.658
 1148TIP3    H2 3409   2.387   1.802   2.737
 1149TIP3   OH2 3410   2.365   5.697   4.207
 1149TIP3    H1 3411   2.329   5.615   4.242
 1149TIP3    H2 3412   2.317   5.766   4.253
 1150TIP3   OH2 3413   2.745   3.666   4.649
 1150TIP3    H1 3414   2.710   3.754   4.658
 1150TIP3    H2 3415   2.671   3.613   4.619
 1151TIP3   OH2 3416   4.119   3.410   2.840
 1151TIP3    H1 3417   4.082   3.477   2.896
 1151TIP3    H2 3418   4.142   3.456   2.759
 1152TIP3   OH2 3419   7.124   0.498   3.968
 1152TIP3    H1 3420   7.074   0.489   4.049
 1152TIP3    H2 3421   7.214   0.475   3.992
 1153TIP3   OH2 3422   4.955   1.029   3.311
 1153TIP3    H1 3423   4.914   0.966   3.370
 1153TIP3    H2 3424   5.048   1.007   3.313
 1154TIP3   OH2 3425   4.764   6.068   3.955
 1154TIP3    H1 3426   4.836   6.025   4.001
 1154TIP3    H2 3427   4.806   6.112   3.881
 1155TIP3   OH2 3428   3.523   3.515   2.193
 1155TIP3    H1 3429   3.507   3.459   2.270
 1155TIP3    H2 3430   3.436   3.533   2.158
 1156TIP3   OH2 3431   3.970   6.679   0.502
 1156TIP3    H1 3432   3.946   6.587   0.491
 1156TIP3    H2 3433   3.922   6.725   0.433
 1157TIP3   OH2 3434   0.677   0.312   3.722
 1157TIP3    H1 3435   0.659   0.332   3.630
 1157TIP3    H2 3436   0.758   0.262   3.720
 1158TIP3   OH2 3437   5.368   5.059   4.071
 1158TIP3    H1 3438   5.448   5.010   4.087
 1158TIP3    H2 3439   5.339   5.088   4.157
 1159TIP3   OH2 3440   1.494   4.554   0.624
 1159TIP3    H1 3441   1.449   4.575   0.542
 1159TIP3    H2 3442   1.458   4.470   0.651
 1160TIP3   OH2 3443   1.460   2.389   3.503
 1160TIP3    H1 3444   1.441   2.434   3.421
 1160TIP3    H2 3445   1.415   2.440   3.570
 1161TIP3   OH2 3446   4.999   2.952   2.683
 1161TIP3    H1 3447   5.077   2.976   2.633
 1161TIP3    H2 3448   5.032   2.923   2.768
 1162TIP3   OH2 3449   0.093   5.678   1.262
 1162TIP3    H1 3450   0.168   5.713   1.214
 1162TIP3    H2 3451   0.131   5.641   1.342
 1163TIP3   OH2 3452   0.113   2.731  -0.019
 1163TIP3    H1 3453   0.132   2.741   0.074
 1163TIP3    H2 3454   0.175   2.665  -0.050
 1164TIP3   OH2 3455   2.403   4.726   4.887
 1164TIP3    H1 3456   2.414   4.797   4.950
 1164TIP3    H2 3457   2.318   4.688   4.910
 1165TIP3   OH2 3458   1.003   4.108   1.299
 1165TIP3    H1 3459   1.004   4.157   1.216
 1165TIP3    H2 3460   0.941   4.037   1.284
 1166TIP3   OH2 3461   1.028   6.470   0.257
 1166TIP3    H1 3462   1.111   6.510   0.283
 1166TIP3    H2 3463   0.969   6.486   0.331
 1167TIP3   OH2 3464   0.501   2.448   1.241
 1167TIP3    H1 3465   0.589   2.484   1.230
 1167TIP3    H2 3466   0.513   2.375   1.301
 1168TIP3   OH2 3467   0.474   4.151   0.928
 1168TIP3    H1 3468   0.497   4.127   0.839
 1168TIP3    H2 3469   0.557   4.145   0.977
 1169TIP3   OH2 3470   3.981   3.823   0.145
 1169TIP3    H1 3471   3.898   3.776   0.139
 1169TIP3    H2 3472   4.006   3.816   0.237
 1170TIP3   OH2 3473   7.055   4.940   1.823
 1170TIP3    H1 3474   7.099   4.952   1.739
 1170TIP3    H2 3475   7.112   4.879   1.871
 1171TIP3   OH2 3476   5.806   0.630   2.606
 1171TIP3    H1 3477   5.871   0.630   2.535
 1171TIP3    H2 3478   5.774   0.540   2.609
 1172TIP3   OH2 3479   4.903   4.357   1.436
 1172TIP3    H1 3480   4.884   4.442   1.475
 1172TIP3    H2 3481   4.944   4.307   1.507
 1173TIP3   OH2 3482   3.896   0.370   1.804
 1173TIP3    H1 3483   3.817   0.347   1.755
 1173TIP3    H2 3484   3.946   0.288   1.809
 1174TIP3   OH2 3485   1.016   0.226   1.447
 1174TIP3    H1 3486   0.942   0.195   1.499
 1174TIP3    H2 3487   1.086   0.241   1.511
 1175TIP3   OH2 3488   6.428   6.285   2.899
 1175TIP3    H1 3489   6.368   6.244   2.837
 1175TIP3    H2 3490   6.453   6.214   2.959
 1176TIP3   OH2 3491   2.932   3.789   4.173
 1176TIP3    H1 3492   3.006   3.827   4.124
 1176TIP3    H2 3493   2.859   3.789   4.111
 1177TIP3   OH2 3494   2.280   2.275   5.618
 1177TIP3    H1 3495   2.226   2.239   5.548
 1177TIP3    H2 3496   2.217   2.306   5.683
 1178TIP3   OH2 3497   0.689   4.690   2.392
 1178TIP3    H1 3498   0.686   4.770   2.445
 1178TIP3    H2 3499   0.599   4.656   2.395
 1179TIP3   OH2 3500   6.786   5.418   3.755
 1179TIP3    H1 3501   6.805   5.348   3.816
 1179TIP3    H2 3502   6.870   5.461   3.739
 1180TIP3   OH2 3503   7.088   5.504   3.648
 1180TIP3    H1 3504   7.039   5.543   3.576
 1180TIP3    H2 3505   7.146   5.441   3.606
 1181TIP3   OH2 3506   2.762   5.588   4.444
 1181TIP3    H1 3507   2.720   5.667   4.481
 1181TIP3    H2 3508   2.800   5.544   4.520
 1182TIP3   OH2 3509   0.378   1.670   4.952
 1182TIP3    H1 3510   0.319   1.731   4.995
 1182TIP3    H2 3511   0.459   1.673   5.004
 1183TIP3   OH2 3512   3.001   6.485   2.454
 1183TIP3    H1 3513   2.923   6.504   2.505
 1183TIP3    H2 3514   3.025   6.568   2.413
 1184TIP3   OH2 3515   6.460   3.117   2.090
 1184TIP3    H1 3516   6.426   3.105   2.001
 1184TIP3    H2 3517   6.551   3.143   2.077
 1185TIP3   OH2 3518   6.917   4.214   2.067
 1185TIP3    H1 3519   6.919   4.265   1.986
 1185TIP3    H2 3520   7.009   4.199   2.088
 1186TIP3   OH2 3521   0.633   2.766   0.342
 1186TIP3    H1 3522   0.615   2.707   0.416
 1186TIP3    H2 3523   0.630   2.854   0.380
 1187TIP3   OH2 3524   3.774   3.734   5.825
 1187TIP3    H1 3525   3.869   3.721   5.820
 1187TIP3    H2 3526   3.758   3.760   5.916
 1188TIP3   OH2 3527   4.559   3.203   1.828
 1188TIP3    H1 3528   4.557   3.243   1.741
 1188TIP3    H2 3529   4.617   3.259   1.879
 1189TIP3   OH2 3530   5.174   2.741   0.523
 1189TIP3    H1 3531   5.251   2.797   0.516
 1189TIP3    H2 3532   5.184   2.677   0.453
 1190TIP3   OH2 3533   1.765   2.563   1.244
 1190TIP3    H1 3534   1.691   2.502   1.239
 1190TIP3    H2 3535   1.725   2.647   1.264
 1191TIP3   OH2 3536   2.475   1.891   1.625
 1191TIP3    H1 3537   2.524   1.845   1.694
 1191TIP3    H2 3538   2.542   1.916   1.561
 1192TIP3   OH2 3539   6.113   4.147   0.211
 1192TIP3    H1 3540   6.183   4.122   0.151
 1192TIP3    H2 3541   6.036   4.100   0.179
 1193TIP3   OH2 3542   0.446   5.954   4.930
 1193TIP3    H1 3543   0.470   5.994   4.846
 1193TIP3    H2 3544   0.390   5.881   4.906
 1194TIP3   OH2 3545   5.198   4.717   5.405
 1194TIP3    H1 3546   5.203   4.806   5.441
 1194TIP3    H2 3547   5.269   4.713   5.341
 1195TIP3   OH2 3548   3.246   2.280   2.000
 1195TIP3    H1 3549   3.218   2.360   1.956
 1195TIP3    H2 3550   3.207   2.287   2.088
 1196TIP3   OH2 3551   3.512   1.553   3.813
 1196TIP3    H1 3552   3.548   1.640   3.798
 1196TIP3    H2 3553   3.557   1.497   3.749
 1197TIP3   OH2 3554   2.171   2.775   1.564
 1197TIP3    H1 3555   2.139   2.805   1.479
 1197TIP3    H2 3556   2.105   2.713   1.594
 1198TIP3   OH2 3557   6.148   0.372   2.681
 1198TIP3    H1 3558   6.198   0.340   2.606
 1198TIP3    H2 3559   6.149   0.467   2.671
 1199TIP3   OH2 3560   5.625   4.452   1.229
 1199TIP3    H1 3561   5.556   4.484   1.286
 1199TIP3    H2 3562   5.672   4.387   1.282
 1200TIP3   OH2 3563   2.772   0.869   4.324
 1200TIP3    H1 3564   2.687   0.859   4.367
 1200TIP3    H2 3565   2.755   0.852   4.232
 1201TIP3   OH2 3566   2.994   3.455   4.354
 1201TIP3    H1 3567   2.910   3.409   4.360
 1201TIP3    H2 3568   3.001   3.502   4.437
 1202TIP3   OH2 3569   5.628   1.497   0.687
 1202TIP3    H1 3570   5.648   1.540   0.770
 1202TIP3    H2 3571   5.539   1.527   0.665
 1203TIP3   OH2 3572   3.675   4.994   1.671
 1203TIP3    H1 3573   3.673   5.077   1.624
 1203TIP3    H2 3574   3.667   5.018   1.763
 1204TIP3   OH2 3575   3.877   1.987   1.124
 1204TIP3    H1 3576   3.796   2.034   1.106
 1204TIP3    H2 3577   3.945   2.054   1.125
 1205TIP3   OH2 3578   5.652   2.947   4.548
 1205TIP3    H1 3579   5.743   2.916   4.545
 1205TIP3    H2 3580   5.602   2.872   4.579
 1206TIP3   OH2 3581   5.106   3.525   5.405
 1206TIP3    H1 3582   5.060   3.598   5.446
 1206TIP3    H2 3583   5.053   3.503   5.328
 1207TIP3   OH2 3584   0.577   6.313   1.494
 1207TIP3    H1 3585   0.567   6.321   1.588
 1207TIP3    H2 3586   0.488   6.307   1.460
 1208TIP3   OH2 3587   2.160   3.611   2.150
 1208TIP3    H1 3588   2.208   3.664   2.214
 1208TIP3    H2 3589   2.228   3.565   2.101
 1209TIP3   OH2 3590   0.151   2.799   0.253
 1209TIP3    H1 3591   0.218   2.860   0.284
 1209TIP3    H2 3592   0.174   2.715   0.292
 1210TIP3   OH2 3593   3.964   4.880   2.898
 1210TIP3    H1 3594   3.988   4.934   2.973
 1210TIP3    H2 3595   3.880   4.915   2.869
 1211TIP3   OH2 3596   0.260   3.607   2.708
 1211TIP3    H1 3597   0.207   3.640   2.781
 1211TIP3    H2 3598   0.336   3.567   2.750
 1212TIP3   OH2 3599   0.667   2.854   0.725
 1212TIP3    H1 3600   0.590   2.821   0.771
 1212TIP3    H2 3601   0.741   2.834   0.783
 1213TIP3   OH2 3602   0.249   6.149   5.716
 1213TIP3    H1 3603   0.266   6.126   5.625
 1213TIP3    H2 3604   0.207   6.235   5.712
 1214TIP3   OH2 3605   0.811   3.498   1.862
 1214TIP3    H1 3606   0.894   3.468   1.824
 1214TIP3    H2 3607   0.836   3.533   1.948
 1215TIP3   OH2 3608   5.733   4.147   0.565
 1215TIP3    H1 3609   5.815   4.192   0.545
 1215TIP3    H2 3610   5.758   4.057   0.584
 1216TIP3   OH2 3611   5.251   3.697   0.547
 1216TIP3    H1 3612   5.176   3.669   0.600
 1216TIP3    H2 3613   5.320   3.634   0.569
 1217TIP3   OH2 3614   7.156   4.724   5.413
 1217TIP3    H1 3615   7.070   4.711   5.453
 1217TIP3    H2 3616   7.182   4.812   5.441
 1218TIP3   OH2 3617   2.848   4.926   4.890
 1218TIP3    H1 3618   2.764   4.885   4.868
 1218TIP3    H2 3619   2.880   4.962   4.808
 1219TIP3   OH2 3620   5.316   1.477   3.944
 1219TIP3    H1 3621   5.315   1.471   4.040
 1219TIP3    H2 3622   5.409   1.478   3.921
 1220TIP3   OH2 3623   5.964   5.953   1.355
 1220TIP3    H1 3624   6.052   5.976   1.326
 1220TIP3    H2 3625   5.931   6.031   1.399
 1221TIP3   OH2 3626   5.085   3.256   1.420
 1221TIP3    H1 3627   5.046   3.327   1.471
 1221TIP3    H2 3628   5.019   3.235   1.354
 1222TIP3   OH2 3629   3.183   6.023   4.579
 1222TIP3    H1 3630   3.161   6.108   4.616
 1222TIP3    H2 3631   3.169   5.961   4.650
 1223TIP3   OH2 3632   4.149   6.751   5.838
 1223TIP3    H1 3633   4.164   6.664   5.875
 1223TIP3    H2 3634   4.059   6.746   5.805
 1224TIP3   OH2 3635   4.953   1.171   5.782
 1224TIP3    H1 3636   5.018   1.101   5.794
 1224TIP3    H2 3637   4.949   1.215   5.867
 1225TIP3   OH2 3638   5.607   6.020   2.746
 1225TIP3    H1 3639   5.560   5.988   2.823
 1225TIP3    H2 3640   5.541   6.026   2.677
 1226TIP3   OH2 3641   4.971   3.258   5.734
 1226TIP3    H1 3642   4.950   3.326   5.669
 1226TIP3    H2 3643   4.914   3.278   5.808
 1227TIP3   OH2 3644   1.263   5.609   1.608
 1227TIP3    H1 3645   1.175   5.647   1.612
 1227TIP3    H2 3646   1.249   5.519   1.580
 1228TIP3   OH2 3647   2.681   4.001   5.490
 1228TIP3    H1 3648   2.670   4.057   5.413
 1228TIP3    H2 3649   2.596   3.958   5.500
 1229TIP3   OH2 3650   0.856   0.979   4.971
 1229TIP3    H1 3651   0.838   1.022   5.055
 1229TIP3    H2 3652   0.807   1.029   4.907
 1230TIP3   OH2 3653   6.237   1.917   3.642
 1230TIP3    H1 3654   6.218   1.997   3.593
 1230TIP3    H2 3655   6.240   1.946   3.734
 1231TIP3   OH2 3656   7.046   4.359   0.151
 1231TIP3    H1 3657   6.951   4.354   0.158
 1231TIP3    H2 3658   7.078   4.343   0.240
 1232TIP3   OH2 3659   0.550   2.688   3.921
 1232TIP3    H1 3660   0.625   2.652   3.968
 1232TIP3    H2 3661   0.485   2.706   3.990
 1233TIP3   OH2 3662   6.264   0.703   5.694
 1233TIP3    H1 3663   6.310   0.766   5.639
 1233TIP3    H2 3664   6.219   0.756   5.759
 1234TIP3   OH2 3665   3.760   3.357   0.861
 1234TIP3    H1 3666   3.770   3.318   0.774
 1234TIP3    H2 3667   3.666   3.375   0.869
 1235TIP3   OH2 3668   1.649   0.514   3.991
 1235TIP3    H1 3669   1.559   0.541   4.010
 1235TIP3    H2 3670   1.673   0.457   4.064
 1236TIP3   OH2 3671   3.702   1.254   0.402
 1236TIP3    H1 3672   3.681   1.263   0.309
 1236TIP3    H2 3673   3.661   1.172   0.428
 1237TIP3   OH2 3674   1.208   3.280   3.702
 1237TIP3    H1 3675   1.202   3.254   3.610
 1237TIP3    H2 3676   1.295   3.319   3.710
 1238TIP3   OH2 3677   7.104   2.859   1.179
 1238TIP3    H1 3678   7.041   2.838   1.248
 1238TIP3    H2 3679   7.188   2.828   1.214
 1239TIP3   OH2 3680   5.275   3.422   1.745
 1239TIP3    H1 3681   5.300   3.338   1.707
 1239TIP3    H2 3682   5.281   3.409   1.839
 1240TIP3   OH2 3683   2.803   2.785   4.129
 1240TIP3    H1 3684   2.765   2.714   4.078
 1240TIP3    H2 3685   2.779   2.865   4.080
 1241TIP3   OH2 3686   0.503   2.590   3.459
 1241TIP3    H1 3687   0.585   2.556   3.494
 1241TIP3    H2 3688   0.464   2.638   3.533
 1242TIP3   OH2 3689   4.881   0.978   4.099
 1242TIP3    H1 3690   4.943   0.962   4.171
 1242TIP3    H2 3691   4.844   1.064   4.118
 1243TIP3   OH2 3692   4.265   3.762   3.773
 1243TIP3    H1 3693   4.215   3.812   3.838
 1243TIP3    H2 3694   4.217   3.680   3.763
 1244TIP3   OH2 3695   1.959   4.203   5.178
 1244TIP3    H1 3696   1.960   4.241   5.266
 1244TIP3    H2 3697   1.926   4.273   5.122
 1245TIP3   OH2 3698   3.921   1.470   5.159
 1245TIP3    H1 3699   3.975   1.403   5.117
 1245TIP3    H2 3700   3.860   1.498   5.090
 1246TIP3   OH2 3701   4.132   3.559   0.382
 1246TIP3    H1 3702   4.140   3.650   0.411
 1246TIP3    H2 3703   4.222   3.531   0.366
 1247TIP3   OH2 3704   0.681   2.243   4.539
 1247TIP3    H1 3705   0.599   2.233   4.589
 1247TIP3    H2 3706   0.747   2.201   4.594
 1248TIP3   OH2 3707   0.070   0.940   1.782
 1248TIP3    H1 3708   0.119   1.016   1.814
 1248TIP3    H2 3709   0.113   0.918   1.699
 1249TIP3   OH2 3710   6.465   4.693   4.589
 1249TIP3    H1 3711   6.454   4.788   4.589
 1249TIP3    H2 3712   6.559   4.679   4.587
 1250TIP3   OH2 3713   5.242   2.970   2.519
 1250TIP3    H1 3714   5.291   3.018   2.452
 1250TIP3    H2 3715   5.268   2.879   2.508
 1251TIP3   OH2 3716   4.252   4.188   0.655
 1251TIP3    H1 3717   4.305   4.136   0.716
 1251TIP3    H2 3718   4.198   4.243   0.712
 1252TIP3   OH2 3719   3.780   3.487   3.908
 1252TIP3    H1 3720   3.763   3.474   3.815
 1252TIP3    H2 3721   3.702   3.452   3.952
 1253TIP3   OH2 3722   3.276   2.029   2.679
 1253TIP3    H1 3723   3.237   1.982   2.753
 1253TIP3    H2 3724   3.261   1.972   2.604
 1254TIP3   OH2 3725   1.515   5.381   1.932
 1254TIP3    H1 3726   1.517   5.295   1.974
 1254TIP3    H2 3727   1.532   5.442   2.004
 1255TIP3   OH2 3728   5.733   5.446   2.148
 1255TIP3    H1 3729   5.688   5.530   2.148
 1255TIP3    H2 3730   5.731   5.418   2.240
 1256TIP3   OH2 3731   1.884   6.269   3.648
 1256TIP3    H1 3732   1.818   6.199   3.650
 1256TIP3    H2 3733   1.837   6.345   3.615
 1257TIP3   OH2 3734   4.833   5.280   3.280
 1257TIP3    H1 3735   4.758   5.287   3.221
 1257TIP3    H2 3736   4.872   5.367   3.280
 1258TIP3   OH2 3737   1.876   0.263   1.621
 1258TIP3    H1 3738   1.793   0.215   1.615
 1258TIP3    H2 3739   1.930   0.224   1.552
 1259TIP3   OH2 3740   1.266   3.958   5.401
 1259TIP3    H1 3741   1.237   3.914   5.481
 1259TIP3    H2 3742   1.252   3.893   5.332
 1260TIP3   OH2 3743   2.118   5.303   0.725
 1260TIP3    H1 3744   2.118   5.398   0.730
 1260TIP3    H2 3745   2.173   5.275   0.797
 1261TIP3   OH2 3746   4.357   5.791   1.765
 1261TIP3    H1 3747   4.299   5.767   1.693
 1261TIP3    H2 3748   4.411   5.714   1.779
 1262TIP3   OH2 3749   4.424   2.978   3.396
 1262TIP3    H1 3750   4.333   2.967   3.422
 1262TIP3    H2 3751   4.472   2.989   3.478
 1263TIP3   OH2 3752   5.869   5.819   0.315
 1263TIP3    H1 3753   5.899   5.826   0.406
 1263TIP3    H2 3754   5.938   5.770   0.271
 1264TIP3   OH2 3755   6.752   3.953   2.654
 1264TIP3    H1 3756   6.668   3.953   2.608
 1264TIP3    H2 3757   6.742   4.019   2.722
 1265TIP3   OH2 3758   1.769   2.296   1.527
 1265TIP3    H1 3759   1.828   2.299   1.451
 1265TIP3    H2 3760   1.828   2.291   1.602
 1266TIP3   OH2 3761   5.793   2.567   0.792
 1266TIP3    H1 3762   5.732   2.553   0.720
 1266TIP3    H2 3763   5.785   2.660   0.812
 1267TIP3   OH2 3764   3.386   2.589   4.679
 1267TIP3    H1 3765   3.470   2.617   4.716
 1267TIP3    H2 3766   3.345   2.538   4.749
 1268TIP3   OH2 3767   4.932   3.315   0.966
 1268TIP3    H1 3768   5.012   3.300   0.915
 1268TIP3    H2 3769   4.863   3.272   0.915
 1269TIP3   OH2 3770   1.731   6.698   3.387
 1269TIP3    H1 3771   1.715   6.738   3.472
 1269TIP3    H2 3772   1.679   6.751   3.326
 1270TIP3   OH2 3773   3.041   4.848   3.015
 1270TIP3    H1 3774   3.026   4.785   2.945
 1270TIP3    H2 3775   3.035   4.933   2.972
 1271TIP3   OH2 3776   0.216   0.507   1.190
 1271TIP3    H1 3777   0.147   0.442   1.204
 1271TIP3    H2 3778   0.239   0.498   1.098
 1272TIP3   OH2 3779   5.831   0.877   0.703
 1272TIP3    H1 3780   5.746   0.900   0.742
 1272TIP3    H2 3781   5.884   0.955   0.716
 1273TIP3   OH2 3782   3.856   0.030   4.711
 1273TIP3    H1 3783   3.897   0.012   4.795
 1273TIP3    H2 3784   3.851   0.125   4.706
 1274TIP3   OH2 3785   4.292   6.288   2.334
 1274TIP3    H1 3786   4.250   6.374   2.340
 1274TIP3    H2 3787   4.256   6.250   2.253
 1275TIP3   OH2 3788   1.672   1.483   0.724
 1275TIP3    H1 3789   1.725   1.544   0.673
 1275TIP3    H2 3790   1.605   1.538   0.766
 1276TIP3   OH2 3791   7.072   1.910   1.721
 1276TIP3    H1 3792   6.987   1.952   1.735
 1276TIP3    H2 3793   7.105   1.894   1.809
 1277TIP3   OH2 3794   4.659   5.009   2.846
 1277TIP3    H1 3795   4.625   5.005   2.757
 1277TIP3    H2 3796   4.681   5.101   2.859
 1278TIP3   OH2 3797   1.218   0.803   4.308
 1278TIP3    H1 3798   1.281   0.875   4.305
 1278TIP3    H2 3799   1.174   0.814   4.392
 1279TIP3   OH2 3800   2.304   0.363   1.207
 1279TIP3    H1 3801   2.328   0.434   1.266
 1279TIP3    H2 3802   2.346   0.285   1.244
 1280TIP3   OH2 3803   2.189   5.206   3.920
 1280TIP3    H1 3804   2.167   5.287   3.965
 1280TIP3    H2 3805   2.201   5.142   3.989
 1281TIP3   OH2 3806   3.295   5.108   2.389
 1281TIP3    H1 3807   3.303   5.153   2.472
 1281TIP3    H2 3808   3.386   5.090   2.362
 1282TIP3   OH2 3809   6.830   4.781   3.643
 1282TIP3    H1 3810   6.842   4.743   3.731
 1282TIP3    H2 3811   6.865   4.869   3.651
 1283TIP3   OH2 3812   4.167   0.329   4.562
 1283TIP3    H1 3813   4.153   0.424   4.559
 1283TIP3    H2 3814   4.143   0.304   4.651
 1284TIP3   OH2 3815   4.205   4.201   3.972
 1284TIP3    H1 3816   4.282   4.222   3.919
 1284TIP3    H2 3817   4.239   4.194   4.061
 1285TIP3   OH2 3818   7.158   0.226   3.519
 1285TIP3    H1 3819   7.093   0.245   3.452
 1285TIP3    H2 3820   7.108   0.211   3.599
 1286TIP3   OH2 3821   6.429   1.868   4.855
 1286TIP3    H1 3822   6.524   1.857   4.852
 1286TIP3    H2 3823   6.402   1.868   4.763
 1287TIP3   OH2 3824   6.222   4.447   0.248
 1287TIP3    H1 3825   6.184   4.360   0.235
 1287TIP3    H2 3826   6.260   4.470   0.163
 1288TIP3   OH2 3827   0.806   2.532   3.298
 1288TIP3    H1 3828   0.760   2.468   3.353
 1288TIP3    H2 3829   0.895   2.498   3.290
 1289TIP3   OH2 3830   4.224   6.518   2.061
 1289TIP3    H1 3831   4.148   6.486   2.012
 1289TIP3    H2 3832   4.294   6.523   1.996
 1290TIP3   OH2 3833   2.897   6.251   1.138
 1290TIP3    H1 3834   2.833   6.304   1.185
 1290TIP3    H2 3835   2.975   6.252   1.194
 1291TIP3   OH2 3836   0.449   2.450   3.216
 1291TIP3    H1 3837   0.377   2.409   3.264
 1291TIP3    H2 3838   0.493   2.505   3.281
 1292TIP3   OH2 3839   6.312   4.803   1.102
 1292TIP3    H1 3840   6.393   4.849   1.123
 1292TIP3    H2 3841   6.278   4.848   1.024
 1293TIP3   OH2 3842   3.220   2.900   2.655
 1293TIP3    H1 3843   3.266   2.985   2.660
 1293TIP3    H2 3844   3.214   2.882   2.561
 1294TIP3   OH2 3845   4.756   1.840   4.973
 1294TIP3    H1 3846   4.768   1.764   4.916
 1294TIP3    H2 3847   4.774   1.808   5.061
 1295TIP3   OH2 3848   2.213   1.311   0.066
 1295TIP3    H1 3849   2.240   1.224   0.038
 1295TIP3    H2 3850   2.139   1.295   0.125
 1296TIP3   OH2 3851   7.230   5.303   4.915
 1296TIP3    H1 3852   7.146   5.318   4.958
 1296TIP3    H2 3853   7.260   5.219   4.951
 1297TIP3   OH2 3854   3.735   0.359   4.803
 1297TIP3    H1 3855   3.738   0.358   4.899
 1297TIP3    H2 3856   3.651   0.319   4.781
 1298TIP3   OH2 3857   3.250   3.931   2.676
 1298TIP3    H1 3858   3.286   3.873   2.609
 1298TIP3    H2 3859   3.168   3.890   2.702
 1299TIP3   OH2 3860   5.590   1.226   2.814
 1299TIP3    H1 3861   5.639   1.145   2.796
 1299TIP3    H2 3862   5.652   1.296   2.793
 1300TIP3   OH2 3863   4.532   3.666   2.391
 1300TIP3    H1 3864   4.615   3.629   2.363
 1300TIP3    H2 3865   4.498   3.711   2.313
 1301TIP3   OH2 3866   3.464   5.803   3.179
 1301TIP3    H1 3867   3.492   5.885   3.218
 1301TIP3    H2 3868   3.544   5.754   3.164
 1302TIP3   OH2 3869   4.680   5.175   5.615
 1302TIP3    H1 3870   4.658   5.096   5.664
 1302TIP3    H2 3871   4.707   5.238   5.682
 1303TIP3   OH2 3872   4.078   5.378   5.052
 1303TIP3    H1 3873   4.170   5.406   5.055
 1303TIP3    H2 3874   4.029   5.456   5.076
 1304TIP3   OH2 3875   3.482   6.241   4.232
 1304TIP3    H1 3876   3.391   6.248   4.258
 1304TIP3    H2 3877   3.483   6.171   4.167
 1305TIP3   OH2 3878   4.596   6.336   3.408
 1305TIP3    H1 3879   4.654   6.315   3.481
 1305TIP3    H2 3880   4.648   6.391   3.351
 1306TIP3   OH2 3881   6.396   6.326   4.067
 1306TIP3    H1 3882   6.460   6.396   4.054
 1306TIP3    H2 3883   6.368   6.302   3.979
 1307TIP3   OH2 3884   6.729   5.626   0.135
 1307TIP3    H1 3885   6.811   5.588   0.103
 1307TIP3    H2 3886   6.661   5.570   0.097
 1308TIP3   OH2 3887   2.572   1.204   2.185
 1308TIP3    H1 3888   2.651   1.196   2.239
 1308TIP3    H2 3889   2.604   1.204   2.095
 1309TIP3   OH2 3890   1.238   5.166   5.523
 1309TIP3    H1 3891   1.197   5.238   5.475
 1309TIP3    H2 3892   1.235   5.193   5.614
 1310TIP3   OH2 3893   6.110   3.952   4.322
 1310TIP3    H1 3894   6.139   3.862   4.308
 1310TIP3    H2 3895   6.122   3.968   4.415
 1311TIP3   OH2 3896   6.340   1.546   0.718
 1311TIP3    H1 3897   6.257   1.497   0.719
 1311TIP3    H2 3898   6.375   1.531   0.630
 1312TIP3   OH2 3899   0.052   2.708   5.414
 1312TIP3    H1 3900   0.000   2.634   5.384
 1312TIP3    H2 3901  -0.005   2.755   5.475
 1313TIP3   OH2 3902   0.857   1.934   4.053
 1313TIP3    H1 3903   0.951   1.939   4.034
 1313TIP3    H2 3904   0.815   1.977   3.979
 1314TIP3   OH2 3905   7.026   0.686   1.533
 1314TIP3    H1 3906   7.003   0.670   1.441
 1314TIP3    H2 3907   7.118   0.658   1.539
 1315TIP3   OH2 3908   5.425   6.470   5.135
 1315TIP3    H1 3909   5.513   6.495   5.107
 1315TIP3    H2 3910   5.371   6.546   5.115
 1316TIP3   OH2 3911   2.473   5.315   1.764
 1316TIP3    H1 3912   2.494   5.228   1.800
 1316TIP3    H2 3913   2.383   5.331   1.790
 1317TIP3   OH2 3914   3.611   5.730   1.441
 1317TIP3    H1 3915   3.588   5.730   1.348
 1317TIP3    H2 3916   3.562   5.803   1.478
 1318TIP3   OH2 3917   1.648   0.073   1.647
 1318TIP3    H1 3918   1.654   0.080   1.742
 1318TIP3    H2 3919   1.568   0.121   1.624
 1319TIP3   OH2 3920   6.652   3.612   0.218
 1319TIP3    H1 3921   6.653   3.517   0.226
 1319TIP3    H2 3922   6.696   3.630   0.135
 1320TIP3   OH2 3923   3.585   5.117   3.749
 1320TIP3    H1 3924   3.543   5.161   3.675
 1320TIP3    H2 3925   3.604   5.187   3.811
 1321TIP3   OH2 3926   0.455   6.152   2.411
 1321TIP3    H1 3927   0.456   6.231   2.357
 1321TIP3    H2 3928   0.378   6.104   2.382
 1322TIP3   OH2 3929   6.343   3.630   1.895
 1322TIP3    H1 3930   6.343   3.695   1.825
 1322TIP3    H2 3931   6.401   3.560   1.864
 1323TIP3   OH2 3932   1.879   0.657   0.920
 1323TIP3    H1 3933   1.961   0.704   0.909
 1323TIP3    H2 3934   1.811   0.724   0.912
 1324TIP3   OH2 3935   1.756   4.908   2.638
 1324TIP3    H1 3936   1.736   5.002   2.634
 1324TIP3    H2 3937   1.706   4.871   2.565
 1325TIP3   OH2 3938   3.923   4.593   1.828
 1325TIP3    H1 3939   3.859   4.660   1.807
 1325TIP3    H2 3940   3.876   4.510   1.817
 1326TIP3   OH2 3941   3.224   6.152   5.536
 1326TIP3    H1 3942   3.231   6.062   5.502
 1326TIP3    H2 3943   3.312   6.187   5.529
 1327TIP3   OH2 3944   3.207   6.126   2.136
 1327TIP3    H1 3945   3.144   6.163   2.073
 1327TIP3    H2 3946   3.200   6.031   2.124
 1328TIP3   OH2 3947   1.362   1.989   1.990
 1328TIP3    H1 3948   1.395   2.005   2.078
 1328TIP3    H2 3949   1.271   1.961   2.004
 1329TIP3   OH2 3950   3.044   6.172   4.395
 1329TIP3    H1 3951   3.115   6.110   4.411
 1329TIP3    H2 3952   2.985   6.159   4.469
 1330TIP3   OH2 3953   0.093   4.632   4.679
 1330TIP3    H1 3954   0.041   4.644   4.758
 1330TIP3    H2 3955   0.179   4.605   4.711
 1331TIP3   OH2 3956   0.712   4.794   0.059
 1331TIP3    H1 3957   0.724   4.889   0.058
 1331TIP3    H2 3958   0.732   4.768   0.149
 1332TIP3   OH2 3959   3.341   2.966   0.790
 1332TIP3    H1 3960   3.311   3.019   0.716
 1332TIP3    H2 3961   3.292   2.884   0.782
 1333TIP3   OH2 3962   0.829   5.604   3.641
 1333TIP3    H1 3963   0.876   5.522   3.650
 1333TIP3    H2 3964   0.896   5.669   3.618
 1334TIP3   OH2 3965   5.279   4.662   2.147
 1334TIP3    H1 3966   5.322   4.697   2.225
 1334TIP3    H2 3967   5.187   4.653   2.172
 1335TIP3   OH2 3968   1.648   0.482   4.757
 1335TIP3    H1 3969   1.687   0.410   4.707
 1335TIP3    H2 3970   1.708   0.555   4.743
 1336TIP3   OH2 3971   1.482   0.964   0.693
 1336TIP3    H1 3972   1.479   1.057   0.670
 1336TIP3    H2 3973   1.488   0.918   0.609
 1337TIP3   OH2 3974   2.488   4.242   1.980
 1337TIP3    H1 3975   2.452   4.167   2.026
 1337TIP3    H2 3976   2.583   4.228   1.981
 1338TIP3   OH2 3977   1.264   3.330   2.880
 1338TIP3    H1 3978   1.330   3.261   2.885
 1338TIP3    H2 3979   1.307   3.408   2.914
 1339TIP3   OH2 3980   5.361   1.567   0.590
 1339TIP3    H1 3981   5.305   1.530   0.522
 1339TIP3    H2 3982   5.321   1.539   0.672
 1340TIP3   OH2 3983   1.466   0.675   4.192
 1340TIP3    H1 3984   1.402   0.634   4.135
 1340TIP3    H2 3985   1.417   0.743   4.238
 1341TIP3   OH2 3986   0.676   1.694   0.526
 1341TIP3    H1 3987   0.768   1.671   0.511
 1341TIP3    H2 3988   0.659   1.671   0.617
 1342TIP3   OH2 3989   4.995   2.452  -0.013
 1342TIP3    H1 3990   4.999   2.383   0.054
 1342TIP3    H2 3991   4.996   2.534   0.037
 1343TIP3   OH2 3992   0.970   0.241   3.678
 1343TIP3    H1 3993   0.995   0.151   3.657
 1343TIP3    H2 3994   0.994   0.291   3.601
 1344TIP3   OH2 3995   5.034   6.308   0.542
 1344TIP3    H1 3996   5.067   6.316   0.453
 1344TIP3    H2 3997   5.105   6.344   0.597
 1345TIP3   OH2 3998   0.136   4.451   5.015
 1345TIP3    H1 3999   0.160   4.543   5.008
 1345TIP3    H2 4000   0.041   4.450   5.005
 1346TIP3   OH2 4001   0.006   0.442   5.616
 1346TIP3    H1 4002   0.007   0.521   5.563
 1346TIP3    H2 4003  -0.065   0.454   5.678
 1347TIP3   OH2 4004   7.089   0.618   3.704
 1347TIP3    H1 4005   7.120   0.705   3.727
 1347TIP3    H2 4006   7.066   0.577   3.787
 1348TIP3   OH2 4007   5.071   3.942   4.787
 1348TIP3    H1 4008   4.980   3.940   4.756
 1348TIP3    H2 4009   5.066   3.910   4.877
 1349TIP3   OH2 4010   4.790   3.753   2.244
 1349TIP3    H1 4011   4.698   3.775   2.231
 1349TIP3    H2 4012   4.837   3.818   2.191
 1350TIP3   OH2 4013   5.034   1.212   2.351
 1350TIP3    H1 4014   5.048   1.273   2.424
 1350TIP3    H2 4015   4.991   1.137   2.392
 1351TIP3   OH2 4016   3.199   5.681   0.916
 1351TIP3    H1 4017   3.279   5.654   0.962
 1351TIP3    H2 4018   3.131   5.678   0.983
 1352TIP3   OH2 4019   3.892   4.854   2.190
 1352TIP3    H1 4020   3.917   4.938   2.228
 1352TIP3    H2 4021   3.910   4.864   2.096
 1353TIP3   OH2 4022   2.034   2.063   3.941
 1353TIP3    H1 4023   2.000   2.014   4.016
 1353TIP3    H2 4024   2.126   2.078   3.963
 1354TIP3   OH2 4025   2.552   5.249   4.410
 1354TIP3    H1 4026   2.531   5.185   4.342
 1354TIP3    H2 4027   2.646   5.263   4.402
 1355TIP3   OH2 4028   1.063   1.855   0.513
 1355TIP3    H1 4029   1.032   1.781   0.566
 1355TIP3    H2 4030   1.084   1.817   0.428
 1356TIP3   OH2 4031   6.603   6.045   3.984
 1356TIP3    H1 4032   6.570   6.053   3.895
 1356TIP3    H2 4033   6.525   6.055   4.039
 1357TIP3   OH2 4034   3.647   2.756   1.842
 1357TIP3    H1 4035   3.734   2.724   1.867
 1357TIP3    H2 4036   3.658   2.850   1.831
 1358TIP3   OH2 4037   4.683   6.723   5.530
 1358TIP3    H1 4038   4.696   6.628   5.529
 1358TIP3    H2 4039   4.707   6.749   5.618
 1359TIP3   OH2 4040   1.367   5.148   0.022
 1359TIP3    H1 4041   1.303   5.208   0.061
 1359TIP3    H2 4042   1.452   5.186   0.043
 1360TIP3   OH2 4043   1.524   4.133   0.861
 1360TIP3    H1 4044   1.557   4.059   0.810
 1360TIP3    H2 4045   1.590   4.145   0.930
 1361TIP3   OH2 4046   1.035   4.391   1.181
 1361TIP3    H1 4047   1.046   4.339   1.102
 1361TIP3    H2 4048   0.945   4.425   1.176
 1362TIP3   OH2 4049   4.955   3.097   1.811
 1362TIP3    H1 4050   4.976   3.024   1.753
 1362TIP3    H2 4051   4.912   3.162   1.755
 1363TIP3   OH2 4052   1.451   5.858   2.203
 1363TIP3    H1 4053   1.418   5.927   2.145
 1363TIP3    H2 4054   1.545   5.857   2.188
 1364TIP3   OH2 4055   0.203   1.536   1.736
 1364TIP3    H1 4056   0.116   1.574   1.721
 1364TIP3    H2 4057   0.263   1.596   1.692
 1365TIP3   OH2 4058   1.891   1.857   1.508
 1365TIP3    H1 4059   1.939   1.804   1.571
 1365TIP3    H2 4060   1.926   1.831   1.423
 1366TIP3   OH2 4061   3.875   0.137   1.960
 1366TIP3    H1 4062   3.825   0.171   1.887
 1366TIP3    H2 4063   3.962   0.121   1.925
 1367TIP3   OH2 4064   4.303   1.616   1.835
 1367TIP3    H1 4065   4.242   1.554   1.874
 1367TIP3    H2 4066   4.258   1.650   1.758
 1368TIP3   OH2 4067   1.253   0.621   0.537
 1368TIP3    H1 4068   1.282   0.579   0.618
 1368TIP3    H2 4069   1.200   0.554   0.493
 1369TIP3   OH2 4070   0.930   2.418   2.980
 1369TIP3    H1 4071   0.871   2.379   3.044
 1369TIP3    H2 4072   0.994   2.465   3.033
 1370TIP3   OH2 4073   0.528   5.964   4.147
 1370TIP3    H1 4074   0.433   5.956   4.138
 1370TIP3    H2 4075   0.562   5.880   4.117
 1371TIP3   OH2 4076   0.342   1.806   0.114
 1371TIP3    H1 4077   0.427   1.765   0.128
 1371TIP3    H2 4078   0.281   1.752   0.165
 1372TIP3   OH2 4079   1.469   2.137   4.805
 1372TIP3    H1 4080   1.404   2.197   4.841
 1372TIP3    H2 4081   1.550   2.189   4.799
 1373TIP3   OH2 4082   2.923   4.205   3.921
 1373TIP3    H1 4083   2.904   4.111   3.923
 1373TIP3    H2 4084   2.837   4.247   3.929
 1374TIP3   OH2 4085   3.233   6.177   1.739
 1374TIP3    H1 4086   3.320   6.214   1.754
 1374TIP3    H2 4087   3.182   6.203   1.816
 1375TIP3   OH2 4088   4.066   5.446   2.862
 1375TIP3    H1 4089   4.120   5.508   2.911
 1375TIP3    H2 4090   4.088   5.361   2.898
 1376TIP3   OH2 4091   0.197   2.984   4.224
 1376TIP3    H1 4092   0.289   2.992   4.250
 1376TIP3    H2 4093   0.181   3.059   4.167
 1377TIP3   OH2 4094   4.633   1.277   5.458
 1377TIP3    H1 4095   4.625   1.298   5.365
 1377TIP3    H2 4096   4.589   1.192   5.468
 1378TIP3   OH2 4097   1.217   6.501   0.894
 1378TIP3    H1 4098   1.198   6.407   0.888
 1378TIP3    H2 4099   1.197   6.524   0.984
 1379TIP3   OH2 4100   1.028   2.987   5.734
 1379TIP3    H1 4101   0.956   3.043   5.706
 1379TIP3    H2 4102   0.986   2.914   5.779
 1380TIP3   OH2 4103   0.707   3.781   0.768
 1380TIP3    H1 4104   0.685   3.738   0.851
 1380TIP3    H2 4105   0.784   3.735   0.737
 1381TIP3   OH2 4106   0.547   0.161   5.103
 1381TIP3    H1 4107   0.453   0.149   5.116
 1381TIP3    H2 4108   0.576   0.209   5.180
 1382TIP3   OH2 4109   5.094   5.676   4.381
 1382TIP3    H1 4110   5.150   5.651   4.308
 1382TIP3    H2 4111   5.119   5.617   4.452
 1383TIP3   OH2 4112   1.466   2.520   1.096
 1383TIP3    H1 4113   1.498   2.437   1.132
 1383TIP3    H2 4114   1.535   2.549   1.036
 1384TIP3   OH2 4115   4.218   2.590   4.458
 1384TIP3    H1 4116   4.137   2.639   4.475
 1384TIP3    H2 4117   4.287   2.649   4.488
 1385TIP3   OH2 4118   4.091   1.181   5.373
 1385TIP3    H1 4119   4.039   1.234   5.433
 1385TIP3    H2 4120   4.026   1.126   5.329
 1386TIP3   OH2 4121   5.411   3.937   2.410
 1386TIP3    H1 4122   5.499   3.973   2.416
 1386TIP3    H2 4123   5.358   4.007   2.372
 1387TIP3   OH2 4124   0.548   4.678   1.093
 1387TIP3    H1 4125   0.610   4.745   1.123
 1387TIP3    H2 4126   0.602   4.615   1.045
 1388TIP3   OH2 4127   0.771   0.662   4.436
 1388TIP3    H1 4128   0.713   0.622   4.500
 1388TIP3    H2 4129   0.774   0.600   4.363
 1389TIP3   OH2 4130   2.288   2.581   5.572
 1389TIP3    H1 4131   2.232   2.656   5.554
 1389TIP3    H2 4132   2.227   2.507   5.580
 1390TIP3   OH2 4133   6.067   3.078   5.668
 1390TIP3    H1 4134   6.083   3.055   5.759
 1390TIP3    H2 4135   6.150   3.060   5.624
 1391TIP3   OH2 4136   0.558   5.234   1.267
 1391TIP3    H1 4137   0.482   5.222   1.324
 1391TIP3    H2 4138   0.634   5.229   1.326
 1392TIP3   OH2 4139   2.462   1.550   5.199
 1392TIP3    H1 4140   2.440   1.610   5.128
 1392TIP3    H2 4141   2.385   1.551   5.256
 1393TIP3   OH2 4142   5.091   3.722   2.720
 1393TIP3    H1 4143   5.148   3.646   2.705
 1393TIP3    H2 4144   5.133   3.793   2.671
 1394TIP3   OH2 4145   2.521   5.208   2.779
 1394TIP3    H1 4146   2.557   5.186   2.864
 1394TIP3    H2 4147   2.429   5.228   2.796
 1395TIP3   OH2 4148   3.958   6.154   2.206
 1395TIP3    H1 4149   3.877   6.156   2.156
 1395TIP3    H2 4150   4.027   6.166   2.140
 1396TIP3   OH2 4151   5.689   6.727   2.162
 1396TIP3    H1 4152   5.765   6.733   2.103
 1396TIP3    H2 4153   5.727   6.726   2.250
 1397TIP3   OH2 4154   1.533   6.754   1.199
 1397TIP3    H1 4155   1.500   6.833   1.156
 1397TIP3    H2 4156   1.623   6.775   1.223
 1398TIP3   OH2 4157   4.865   1.108   0.798
 1398TIP3    H1 4158   4.806   1.108   0.873
 1398TIP3    H2 4159   4.816   1.149   0.728
 1399TIP3   OH2 4160   5.607   6.289   2.993
 1399TIP3    H1 4161   5.641   6.375   3.017
 1399TIP3    H2 4162   5.651   6.268   2.911
 1400TIP3   OH2 4163   0.962   0.305   2.224
 1400TIP3    H1 4164   0.973   0.397   2.200
 1400TIP3    H2 4165   1.020   0.294   2.300
 1401TIP3   OH2 4166   4.220   6.032   3.422
 1401TIP3    H1 4167   4.128   6.017   3.403
 1401TIP3    H2 4168   4.239   6.118   3.385
 1402TIP3   OH2 4169   3.639   1.677   0.876
 1402TIP3    H1 4170   3.563   1.731   0.898
 1402TIP3    H2 4171   3.602   1.593   0.849
 1403TIP3   OH2 4172   6.037   0.638   3.940
 1403TIP3    H1 4173   6.013   0.672   3.854
 1403TIP3    H2 4174   6.020   0.544   3.935
 1404TIP3   OH2 4175   0.892   1.010   0.149
 1404TIP3    H1 4176   0.982   1.014   0.181
 1404TIP3    H2 4177   0.840   1.049   0.220
 1405TIP3   OH2 4178   6.342   2.566   4.719
 1405TIP3    H1 4179   6.396   2.643   4.733
 1405TIP3    H2 4180   6.318   2.537   4.807
 1406TIP3   OH2 4181   6.696   0.722   4.358
 1406TIP3    H1 4182   6.649   0.708   4.275
 1406TIP3    H2 4183   6.674   0.645   4.411
 1407TIP3   OH2 4184   6.099   5.800   5.857
 1407TIP3    H1 4185   6.170   5.837   5.909
 1407TIP3    H2 4186   6.070   5.723   5.907
 1408TIP3   OH2 4187   0.801   2.027   0.299
 1408TIP3    H1 4188   0.833   1.940   0.273
 1408TIP3    H2 4189   0.881   2.077   0.318
 1409TIP3   OH2 4190   5.012   3.985   0.050
 1409TIP3    H1 4191   5.057   3.967   0.132
 1409TIP3    H2 4192   5.070   3.947  -0.017
 1410TIP3   OH2 4193   6.587   3.663   4.762
 1410TIP3    H1 4194   6.522   3.728   4.789
 1410TIP3    H2 4195   6.542   3.609   4.698
 1411TIP3   OH2 4196   4.849   3.455   3.082
 1411TIP3    H1 4197   4.774   3.427   3.133
 1411TIP3    H2 4198   4.896   3.517   3.138
 1412TIP3   OH2 4199   1.933   3.809   5.667
 1412TIP3    H1 4200   1.895   3.897   5.666
 1412TIP3    H2 4201   2.003   3.813   5.732
 1413TIP3   OH2 4202   3.496   5.758   4.929
 1413TIP3    H1 4203   3.469   5.728   4.842
 1413TIP3    H2 4204   3.563   5.696   4.957
 1414TIP3   OH2 4205   1.727   1.596   0.193
 1414TIP3    H1 4206   1.811   1.639   0.178
 1414TIP3    H2 4207   1.718   1.534   0.120
 1415TIP3   OH2 4208   0.859   1.660   4.777
 1415TIP3    H1 4209   0.796   1.732   4.784
 1415TIP3    H2 4210   0.814   1.594   4.724
 1416TIP3   OH2 4211   5.856   3.477   3.747
 1416TIP3    H1 4212   5.837   3.473   3.653
 1416TIP3    H2 4213   5.849   3.570   3.769
 1417TIP3   OH2 4214   4.410   3.801   3.552
 1417TIP3    H1 4215   4.352   3.790   3.628
 1417TIP3    H2 4216   4.355   3.839   3.484
 1418TIP3   OH2 4217   3.568   1.305   2.364
 1418TIP3    H1 4218   3.588   1.340   2.451
 1418TIP3    H2 4219   3.627   1.351   2.305
 1419TIP3   OH2 4220   6.697   2.121   0.602
 1419TIP3    H1 4221   6.780   2.098   0.645
 1419TIP3    H2 4222   6.643   2.042   0.611
 1420TIP3   OH2 4223   7.111   5.866   1.373
 1420TIP3    H1 4224   7.184   5.818   1.334
 1420TIP3    H2 4225   7.095   5.939   1.314
 1421TIP3   OH2 4226   1.864   6.053   2.146
 1421TIP3    H1 4227   1.953   6.065   2.178
 1421TIP3    H2 4228   1.822   6.138   2.157
 1422TIP3   OH2 4229   1.216   1.307   0.685
 1422TIP3    H1 4230   1.189   1.353   0.606
 1422TIP3    H2 4231   1.136   1.264   0.716
 1423TIP3   OH2 4232   4.527   4.754   2.230
 1423TIP3    H1 4233   4.480   4.781   2.151
 1423TIP3    H2 4234   4.512   4.660   2.236
 1424TIP3   OH2 4235   0.855   0.710   0.497
 1424TIP3    H1 4236   0.785   0.761   0.456
 1424TIP3    H2 4237   0.829   0.619   0.483
 1425TIP3   OH2 4238   0.012   6.453   4.963
 1425TIP3    H1 4239   0.014   6.506   4.883
 1425TIP3    H2 4240   0.099   6.463   5.002
 1426TIP3   OH2 4241   6.514   3.066   0.738
 1426TIP3    H1 4242   6.564   2.984   0.733
 1426TIP3    H2 4243   6.578   3.131   0.768
 1427TIP3   OH2 4244   2.843   4.160   4.793
 1427TIP3    H1 4245   2.749   4.171   4.812
 1427TIP3    H2 4246   2.887   4.194   4.871
 1428TIP3   OH2 4247   6.719   6.051   5.429
 1428TIP3    H1 4248   6.758   5.977   5.381
 1428TIP3    H2 4249   6.775   6.125   5.408
 1429TIP3   OH2 4250   1.120   4.097   5.214
 1429TIP3    H1 4251   1.189   4.149   5.173
 1429TIP3    H2 4252   1.161   4.059   5.291
 1430TIP3   OH2 4253   1.757   0.281   4.614
 1430TIP3    H1 4254   1.740   0.331   4.534
 1430TIP3    H2 4255   1.852   0.281   4.623
 1431TIP3   OH2 4256   4.072   0.765   3.834
 1431TIP3    H1 4257   4.144   0.765   3.897
 1431TIP3    H2 4258   4.003   0.714   3.876
 1432TIP3   OH2 4259   6.306   5.767   3.465
 1432TIP3    H1 4260   6.400   5.749   3.464
 1432TIP3    H2 4261   6.269   5.697   3.518
 1433TIP3   OH2 4262   1.450   4.319   2.501
 1433TIP3    H1 4263   1.404   4.383   2.445
 1433TIP3    H2 4264   1.525   4.367   2.536
 1434TIP3   OH2 4265   0.998   5.572   0.639
 1434TIP3    H1 4266   1.086   5.595   0.670
 1434TIP3    H2 4267   0.951   5.547   0.718
 1435TIP3   OH2 4268   0.083   6.567   4.707
 1435TIP3    H1 4269   0.153   6.632   4.707
 1435TIP3    H2 4270   0.077   6.539   4.615
 1436TIP3   OH2 4271   5.055   1.564   0.851
 1436TIP3    H1 4272   5.018   1.481   0.821
 1436TIP3    H2 4273   5.149   1.556   0.834
 1437TIP3   OH2 4274   5.537   2.803   5.432
 1437TIP3    H1 4275   5.490   2.855   5.498
 1437TIP3    H2 4276   5.628   2.807   5.459
 1438TIP3   OH2 4277   1.366   4.028   1.320
 1438TIP3    H1 4278   1.359   4.117   1.352
 1438TIP3    H2 4279   1.293   3.982   1.363
 1439TIP3   OH2 4280   3.585   2.351   3.039
 1439TIP3    H1 4281   3.642   2.345   2.963
 1439TIP3    H2 4282   3.499   2.324   3.007
 1440TIP3   OH2 4283   3.392   6.189   2.687
 1440TIP3    H1 4284   3.483   6.179   2.659
 1440TIP3    H2 4285   3.347   6.224   2.610
 1441TIP3   OH2 4286   3.406   1.184   3.771
 1441TIP3    H1 4287   3.407   1.119   3.701
 1441TIP3    H2 4288   3.391   1.133   3.850
 1442TIP3   OH2 4289   2.979   2.283   2.507
 1442TIP3    H1 4290   2.903   2.236   2.473
 1442TIP3    H2 4291   2.985   2.257   2.599
 1443TIP3   OH2 4292   5.108   3.952   1.859
 1443TIP3    H1 4293   5.056   3.875   1.881
 1443TIP3    H2 4294   5.159   3.970   1.938
 1444TIP3   OH2 4295   0.681   5.084   0.054
 1444TIP3    H1 4296   0.751   5.109   0.115
 1444TIP3    H2 4297   0.635   5.166   0.036
 1445TIP3   OH2 4298   2.786   5.235   1.600
 1445TIP3    H1 4299   2.700   5.199   1.581
 1445TIP3    H2 4300   2.770   5.302   1.667
 1446TIP3   OH2 4301   0.073   4.738   0.089
 1446TIP3    H1 4302   0.095   4.822   0.048
 1446TIP3    H2 4303  -0.019   4.725   0.068
 1447TIP3   OH2 4304   1.194   1.006   0.131
 1447TIP3    H1 4305   1.170   0.956   0.209
 1447TIP3    H2 4306   1.249   0.947   0.080
 1448TIP3   OH2 4307   2.134   0.284   4.188
 1448TIP3    H1 4308   2.105   0.374   4.202
 1448TIP3    H2 4309   2.128   0.242   4.273
 1449TIP3   OH2 4310   4.008   3.514   5.614
 1449TIP3    H1 4311   4.048   3.429   5.627
 1449TIP3    H2 4312   3.914   3.496   5.606
 1450TIP3   OH2 4313   4.728   4.369   2.578
 1450TIP3    H1 4314   4.783   4.441   2.607
 1450TIP3    H2 4315   4.699   4.325   2.658
 1451TIP3   OH2 4316   3.016   3.577   4.618
 1451TIP3    H1 4317   2.921   3.590   4.618
 1451TIP3    H2 4318   3.028   3.486   4.642
 1452TIP3   OH2 4319   5.232   4.087   3.427
 1452TIP3    H1 4320   5.204   4.173   3.458
 1452TIP3    H2 4321   5.283   4.106   3.348
 1453TIP3   OH2 4322   2.438   4.805   2.937
 1453TIP3    H1 4323   2.518   4.786   2.985
 1453TIP3    H2 4324   2.467   4.821   2.847
 1454TIP3   OH2 4325   0.670   5.934   2.042
 1454TIP3    H1 4326   0.645   5.877   2.115
 1454TIP3    H2 4327   0.647   6.022   2.071
 1455TIP3   OH2 4328   3.750   6.037   5.348
 1455TIP3    H1 4329   3.728   6.053   5.440
 1455TIP3    H2 4330   3.710   5.953   5.327
 1456TIP3   OH2 4331   7.071   2.819   5.565
 1456TIP3    H1 4332   7.044   2.797   5.655
 1456TIP3    H2 4333   6.997   2.791   5.511
 1457TIP3   OH2 4334   4.509   0.900   1.814
 1457TIP3    H1 4335   4.457   0.981   1.812
 1457TIP3    H2 4336   4.471   0.846   1.745
 1458TIP3   OH2 4337   5.601   3.855   5.804
 1458TIP3    H1 4338   5.573   3.874   5.715
 1458TIP3    H2 4339   5.538   3.791   5.837
 1459TIP3   OH2 4340   6.434   0.524   4.200
 1459TIP3    H1 4341   6.343   0.545   4.220
 1459TIP3    H2 4342   6.455   0.451   4.258
 1460TIP3   OH2 4343   1.160   5.619   0.874
 1460TIP3    H1 4344   1.096   5.581   0.934
 1460TIP3    H2 4345   1.242   5.575   0.895
 1461TIP3   OH2 4346   1.806   3.579   1.914
 1461TIP3    H1 4347   1.822   3.562   2.006
 1461TIP3    H2 4348   1.824   3.496   1.870
 1462TIP3   OH2 4349   2.848   6.204   4.198
 1462TIP3    H1 4350   2.918   6.219   4.261
 1462TIP3    H2 4351   2.890   6.160   4.125
 1463TIP3   OH2 4352   2.903   2.963   5.247
 1463TIP3    H1 4353   2.857   3.021   5.309
 1463TIP3    H2 4354   2.934   3.022   5.179
 1464TIP3   OH2 4355   3.608   4.979   3.302
 1464TIP3    H1 4356   3.591   5.032   3.224
 1464TIP3    H2 4357   3.699   4.952   3.294
 1465TIP3   OH2 4358   0.122   5.781   3.309
 1465TIP3    H1 4359   0.143   5.801   3.400
 1465TIP3    H2 4360   0.047   5.838   3.289
 1466TIP3   OH2 4361   5.239   1.727   4.574
 1466TIP3    H1 4362   5.166   1.748   4.632
 1466TIP3    H2 4363   5.280   1.650   4.614
 1467TIP3   OH2 4364   3.010   0.575   3.225
 1467TIP3    H1 4365   3.008   0.558   3.320
 1467TIP3    H2 4366   2.927   0.540   3.193
 1468TIP3   OH2 4367   4.126   1.014   3.624
 1468TIP3    H1 4368   4.158   1.103   3.609
 1468TIP3    H2 4369   4.177   0.982   3.698
 1469TIP3   OH2 4370   0.120   0.079   4.856
 1469TIP3    H1 4371   0.134   0.168   4.822
 1469TIP3    H2 4372   0.128   0.023   4.778
 1470TIP3   OH2 4373   4.624   3.460   4.840
 1470TIP3    H1 4374   4.626   3.488   4.748
 1470TIP3    H2 4375   4.698   3.504   4.880
 1471TIP3   OH2 4376   1.701   5.842   2.085
 1471TIP3    H1 4377   1.756   5.810   2.013
 1471TIP3    H2 4378   1.752   5.913   2.124
 1472TIP3   OH2 4379   6.786   2.589   4.442
 1472TIP3    H1 4380   6.795   2.618   4.533
 1472TIP3    H2 4381   6.875   2.569   4.414
 1473TIP3   OH2 4382   3.731   4.083   2.349
 1473TIP3    H1 4383   3.645   4.125   2.344
 1473TIP3    H2 4384   3.773   4.125   2.425
 1474TIP3   OH2 4385   3.945   2.027   2.292
 1474TIP3    H1 4386   4.005   2.093   2.259
 1474TIP3    H2 4387   3.937   2.046   2.386
 1475TIP3   OH2 4388   5.309   0.482   1.333
 1475TIP3    H1 4389   5.403   0.501   1.333
 1475TIP3    H2 4390   5.268   0.568   1.343
 1476TIP3   OH2 4391   2.422   6.340   0.130
 1476TIP3    H1 4392   2.350   6.318   0.072
 1476TIP3    H2 4393   2.393   6.312   0.217
 1477TIP3   OH2 4394   3.835   0.113   1.646
 1477TIP3    H1 4395   3.927   0.089   1.642
 1477TIP3    H2 4396   3.813   0.139   1.557
 1478TIP3   OH2 4397   0.599   6.314   5.330
 1478TIP3    H1 4398   0.545   6.343   5.403
 1478TIP3    H2 4399   0.617   6.222   5.349
 1479TIP3   OH2 4400   4.736   6.825   4.372
 1479TIP3    H1 4401   4.646   6.804   4.345
 1479TIP3    H2 4402   4.787   6.816   4.291
 1480TIP3   OH2 4403   3.957   1.938   4.125
 1480TIP3    H1 4404   4.030   1.881   4.153
 1480TIP3    H2 4405   3.925   1.977   4.207
 1481TIP3   OH2 4406   6.311   4.268   5.188
 1481TIP3    H1 4407   6.241   4.333   5.195
 1481TIP3    H2 4408   6.265   4.186   5.173
 1482TIP3   OH2 4409   4.687   6.511   1.435
 1482TIP3    H1 4410   4.700   6.504   1.340
 1482TIP3    H2 4411   4.743   6.444   1.472
 1483TIP3   OH2 4412   1.409   3.291   5.711
 1483TIP3    H1 4413   1.421   3.281   5.617
 1483TIP3    H2 4414   1.498   3.307   5.745
 1484TIP3   OH2 4415   5.071   4.378   0.245
 1484TIP3    H1 4416   5.104   4.380   0.335
 1484TIP3    H2 4417   5.143   4.339   0.195
 1485TIP3   OH2 4418   6.904   5.305   0.231
 1485TIP3    H1 4419   6.826   5.307   0.175
 1485TIP3    H2 4420   6.977   5.312   0.169
 1486TIP3   OH2 4421   6.936   0.831   0.192
 1486TIP3    H1 4422   7.027   0.838   0.164
 1486TIP3    H2 4423   6.887   0.884   0.129
 1487TIP3   OH2 4424   1.295   4.228   2.095
 1487TIP3    H1 4425   1.362   4.175   2.139
 1487TIP3    H2 4426   1.324   4.318   2.106
 1488TIP3   OH2 4427   5.748   4.010   3.387
 1488TIP3    H1 4428   5.675   4.051   3.339
 1488TIP3    H2 4429   5.784   4.081   3.440
 1489TIP3   OH2 4430   6.948   2.620   2.192
 1489TIP3    H1 4431   6.915   2.559   2.126
 1489TIP3    H2 4432   6.870   2.656   2.233
 1490TIP3   OH2 4433   3.767   0.839   1.711
 1490TIP3    H1 4434   3.710   0.766   1.733
 1490TIP3    H2 4435   3.757   0.900   1.784
 1491TIP3   OH2 4436   2.642   3.269   3.328
 1491TIP3    H1 4437   2.586   3.307   3.396
 1491TIP3    H2 4438   2.632   3.328   3.253
 1492TIP3   OH2 4439   1.849   3.993   5.014
 1492TIP3    H1 4440   1.910   3.996   4.941
 1492TIP3    H2 4441   1.860   4.077   5.059
 1493TIP3   OH2 4442   0.196   2.743   5.706
 1493TIP3    H1 4443   0.235   2.814   5.756
 1493TIP3    H2 4444   0.226   2.663   5.749
 1494TIP3   OH2 4445   2.913   1.421   2.291
 1494TIP3    H1 4446   2.841   1.482   2.311
 1494TIP3    H2 4447   2.917   1.364   2.368
 1495TIP3   OH2 4448   1.795   5.022   2.263
 1495TIP3    H1 4449   1.773   4.997   2.173
 1495TIP3    H2 4450   1.727   4.981   2.316
 1496TIP3   OH2 4451   2.062   5.240   2.102
 1496TIP3    H1 4452   1.968   5.227   2.110
 1496TIP3    H2 4453   2.098   5.151   2.095
 1497TIP3   OH2 4454   5.161   1.391   1.346
 1497TIP3    H1 4455   5.117   1.460   1.395
 1497TIP3    H2 4456   5.111   1.383   1.265
 1498TIP3   OH2 4457   0.158   4.647   3.360
 1498TIP3    H1 4458   0.067   4.656   3.388
 1498TIP3    H2 4459   0.187   4.566   3.402
 1499TIP3   OH2 4460   1.584   4.007   5.878
 1499TIP3    H1 4461   1.541   3.937   5.927
 1499TIP3    H2 4462   1.513   4.049   5.829
 1500TIP3   OH2 4463   5.731   2.604   1.773
 1500TIP3    H1 4464   5.714   2.572   1.685
 1500TIP3    H2 4465   5.745   2.525   1.825
 1501TIP3   OH2 4466   1.407   6.181   5.694
 1501TIP3    H1 4467   1.392   6.272   5.668
 1501TIP3    H2 4468   1.407   6.183   5.790
 1502TIP3   OH2 4469   6.642   3.784   1.231
 1502TIP3    H1 4470   6.638   3.815   1.322
 1502TIP3    H2 4471   6.716   3.724   1.229
 1503TIP3   OH2 4472   4.629   4.855   0.770
 1503TIP3    H1 4473   4.653   4.831   0.860
 1503TIP3    H2 4474   4.545   4.899   0.779
 1504TIP3   OH2 4475   4.290   5.121   1.758
 1504TIP3    H1 4476   4.321   5.080   1.677
 1504TIP3    H2 4477   4.367   5.125   1.814
 1505TIP3   OH2 4478   4.039   5.156   0.782
 1505TIP3    H1 4479   4.108   5.116   0.730
 1505TIP3    H2 4480   3.999   5.220   0.723
 1506TIP3   OH2 4481   4.976   3.529   3.347
 1506TIP3    H1 4482   5.054   3.510   3.294
 1506TIP3    H2 4483   4.920   3.452   3.336
 1507TIP3   OH2 4484   1.080   0.846   0.624
 1507TIP3    H1 4485   0.994   0.805   0.626
 1507TIP3    H2 4486   1.139   0.777   0.595
 1508TIP3   OH2 4487   3.578   4.665   0.775
 1508TIP3    H1 4488   3.502   4.723   0.782
 1508TIP3    H2 4489   3.543   4.582   0.744
 1509TIP3   OH2 4490   2.390   3.442   0.385
 1509TIP3    H1 4491   2.416   3.407   0.470
 1509TIP3    H2 4492   2.471   3.469   0.343
 1510TIP3   OH2 4493   1.153   5.973   5.624
 1510TIP3    H1 4494   1.121   5.899   5.677
 1510TIP3    H2 4495   1.220   6.013   5.679
 1511TIP3   OH2 4496   2.763   3.866   0.763
 1511TIP3    H1 4497   2.738   3.925   0.692
 1511TIP3    H2 4498   2.745   3.915   0.843
 1512TIP3   OH2 4499   6.480   5.973   5.565
 1512TIP3    H1 4500   6.557   6.006   5.518
 1512TIP3    H2 4501   6.440   5.911   5.503
 1513TIP3   OH2 4502   1.050   4.527   5.188
 1513TIP3    H1 4503   0.995   4.462   5.145
 1513TIP3    H2 4504   1.080   4.584   5.118
 1514TIP3   OH2 4505   0.490   2.149   0.435
 1514TIP3    H1 4506   0.520   2.058   0.435
 1514TIP3    H2 4507   0.528   2.187   0.356
 1515TIP3   OH2 4508   3.557   3.720   5.064
 1515TIP3    H1 4509   3.479   3.775   5.064
 1515TIP3    H2 4510   3.555   3.675   4.979
 1516TIP3   OH2 4511   0.343   2.308   0.624
 1516TIP3    H1 4512   0.394   2.264   0.555
 1516TIP3    H2 4513   0.297   2.236   0.668
 1517TIP3   OH2 4514   0.688   5.448   4.616
 1517TIP3    H1 4515   0.650   5.525   4.574
 1517TIP3    H2 4516   0.781   5.452   4.594
 1518TIP3   OH2 4517   1.926   5.497   3.842
 1518TIP3    H1 4518   1.857   5.464   3.900
 1518TIP3    H2 4519   1.911   5.451   3.759
 1519TIP3   OH2 4520   4.763   0.013   2.146
 1519TIP3    H1 4521   4.826  -0.056   2.165
 1519TIP3    H2 4522   4.816   0.092   2.136
 1520TIP3   OH2 4523   1.907   2.949   5.900
 1520TIP3    H1 4524   1.829   2.957   5.955
 1520TIP3    H2 4525   1.917   3.036   5.861
 1521TIP3   OH2 4526   3.697   2.185   1.060
 1521TIP3    H1 4527   3.690   2.261   1.118
 1521TIP3    H2 4528   3.628   2.198   0.996
 1522TIP3   OH2 4529   1.316   1.700   2.785
 1522TIP3    H1 4530   1.338   1.771   2.725
 1522TIP3    H2 4531   1.359   1.723   2.867
 1523TIP3   OH2 4532   2.493   5.856   4.796
 1523TIP3    H1 4533   2.477   5.949   4.784
 1523TIP3    H2 4534   2.463   5.815   4.715
 1524TIP3   OH2 4535   6.650   3.295   2.225
 1524TIP3    H1 4536   6.699   3.304   2.306
 1524TIP3    H2 4537   6.566   3.258   2.252
 1525TIP3   OH2 4538   0.119   0.679   2.354
 1525TIP3    H1 4539   0.095   0.732   2.278
 1525TIP3    H2 4540   0.107   0.738   2.429
 1526TIP3   OH2 4541   2.474   2.615   3.159
 1526TIP3    H1 4542   2.568   2.630   3.155
 1526TIP3    H2 4543   2.458   2.544   3.097
 1527TIP3   OH2 4544   5.690   4.497   3.546
 1527TIP3    H1 4545   5.619   4.523   3.488
 1527TIP3    H2 4546   5.659   4.520   3.634
 1528TIP3   OH2 4547   0.924   2.767   2.388
 1528TIP3    H1 4548   1.011   2.730   2.401
 1528TIP3    H2 4549   0.922   2.791   2.296
 1529TIP3   OH2 4550   6.637   4.235   3.985
 1529TIP3    H1 4551   6.584   4.156   3.995
 1529TIP3    H2 4552   6.683   4.244   4.069
 1530TIP3   OH2 4553   5.829   0.694   0.506
 1530TIP3    H1 4554   5.855   0.764   0.566
 1530TIP3    H2 4555   5.857   0.613   0.549
 1531TIP3   OH2 4556   0.611   2.266   4.004
 1531TIP3    H1 4557   0.649   2.196   3.952
 1531TIP3    H2 4558   0.649   2.346   3.968
 1532TIP3   OH2 4559   2.910   6.086   1.690
 1532TIP3    H1 4560   2.842   6.027   1.656
 1532TIP3    H2 4561   2.967   6.030   1.743
 1533TIP3   OH2 4562   0.521   2.840   3.624
 1533TIP3    H1 4563   0.583   2.870   3.690
 1533TIP3    H2 4564   0.450   2.799   3.674
 1534TIP3   OH2 4565   6.107   1.123   4.974
 1534TIP3    H1 4566   6.202   1.125   4.985
 1534TIP3    H2 4567   6.080   1.215   4.976
 1535TIP3   OH2 4568   0.368   0.671   1.734
 1535TIP3    H1 4569   0.283   0.704   1.704
 1535TIP3    H2 4570   0.346   0.600   1.794
 1536TIP3   OH2 4571   6.411   1.847   0.893
 1536TIP3    H1 4572   6.398   1.933   0.931
 1536TIP3    H2 4573   6.433   1.791   0.967
 1537TIP3   OH2 4574   1.005   0.590   3.290
 1537TIP3    H1 4575   1.036   0.648   3.221
 1537TIP3    H2 4576   1.083   0.569   3.341
 1538TIP3   OH2 4577   0.420   0.254   2.073
 1538TIP3    H1 4578   0.334   0.242   2.112
 1538TIP3    H2 4579   0.480   0.210   2.133
 1539TIP3   OH2 4580   1.283   5.539   0.412
 1539TIP3    H1 4581   1.374   5.561   0.433
 1539TIP3    H2 4582   1.248   5.618   0.369
 1540TIP3   OH2 4583   0.160   2.449   4.211
 1540TIP3    H1 4584   0.143   2.402   4.129
 1540TIP3    H2 4585   0.096   2.520   4.212
 1541TIP3   OH2 4586   5.461   0.188   3.897
 1541TIP3    H1 4587   5.401   0.158   3.829
 1541TIP3    H2 4588   5.415   0.173   3.979
 1542TIP3   OH2 4589   2.537   3.756   1.972
 1542TIP3    H1 4590   2.588   3.754   2.052
 1542TIP3    H2 4591   2.597   3.789   1.905
 1543TIP3   OH2 4592   5.137   2.570   2.728
 1543TIP3    H1 4593   5.130   2.475   2.730
 1543TIP3    H2 4594   5.078   2.600   2.797
 1544TIP3   OH2 4595   5.497   0.882   3.170
 1544TIP3    H1 4596   5.543   0.933   3.104
 1544TIP3    H2 4597   5.563   0.822   3.205
 1545TIP3   OH2 4598   0.049   4.581   4.038
 1545TIP3    H1 4599   0.087   4.601   3.953
 1545TIP3    H2 4600  -0.013   4.510   4.021
 1546TIP3   OH2 4601   3.375   1.281   4.674
 1546TIP3    H1 4602   3.420   1.365   4.674
 1546TIP3    H2 4603   3.395   1.243   4.588
 1547TIP3   OH2 4604   6.572   3.144   2.800
 1547TIP3    H1 4605   6.494   3.184   2.840
 1547TIP3    H2 4606   6.566   3.052   2.824
 1548TIP3   OH2 4607   5.741   1.560   5.800
 1548TIP3    H1 4608   5.652   1.562   5.764
 1548TIP3    H2 4609   5.745   1.479   5.851
 1549TIP3   OH2 4610   2.301   5.448   3.009
 1549TIP3    H1 4611   2.230   5.461   2.947
 1549TIP3    H2 4612   2.296   5.356   3.033
 1550TIP3   OH2 4613   4.424   5.401   4.477
 1550TIP3    H1 4614   4.479   5.454   4.534
 1550TIP3    H2 4615   4.486   5.360   4.416
 1551TIP3   OH2 4616   4.653   1.394   1.980
 1551TIP3    H1 4617   4.568   1.392   2.024
 1551TIP3    H2 4618   4.692   1.308   2.001
 1552TIP3   OH2 4619   5.463   0.414   4.159
 1552TIP3    H1 4620   5.432   0.353   4.226
 1552TIP3    H2 4621   5.419   0.496   4.179
 1553TIP3   OH2 4622   0.386   0.469   0.921
 1553TIP3    H1 4623   0.415   0.378   0.918
 1553TIP3    H2 4624   0.464   0.520   0.900
 1554TIP3   OH2 4625   4.701   1.063   4.644
 1554TIP3    H1 4626   4.669   0.975   4.662
 1554TIP3    H2 4627   4.792   1.061   4.673
 1555TIP3   OH2 4628   4.097   0.084   2.708
 1555TIP3    H1 4629   4.114   0.078   2.614
 1555TIP3    H2 4630   4.178   0.120   2.745
 1556TIP3   OH2 4631   3.761   6.044   3.887
 1556TIP3    H1 4632   3.678   6.058   3.842
 1556TIP3    H2 4633   3.767   6.115   3.951
 1557TIP3   OH2 4634   5.156   2.296   1.154
 1557TIP3    H1 4635   5.225   2.269   1.093
 1557TIP3    H2 4636   5.129   2.383   1.124
 1558TIP3   OH2 4637   4.682   2.091   2.129
 1558TIP3    H1 4638   4.742   2.165   2.130
 1558TIP3    H2 4639   4.717   2.030   2.194
 1559TIP3   OH2 4640   6.915   4.439   3.661
 1559TIP3    H1 4641   6.924   4.506   3.728
 1559TIP3    H2 4642   6.837   4.465   3.612
 1560TIP3   OH2 4643   4.965   5.773   5.128
 1560TIP3    H1 4644   4.998   5.722   5.202
 1560TIP3    H2 4645   4.884   5.812   5.161
 1561TIP3   OH2 4646   2.252   6.540   1.357
 1561TIP3    H1 4647   2.290   6.453   1.351
 1561TIP3    H2 4648   2.274   6.582   1.274
 1562TIP3   OH2 4649   3.621   6.553   0.454
 1562TIP3    H1 4650   3.630   6.613   0.380
 1562TIP3    H2 4651   3.527   6.534   0.458
 1563TIP3   OH2 4652   3.593   5.118   2.363
 1563TIP3    H1 4653   3.616   5.044   2.308
 1563TIP3    H2 4654   3.652   5.189   2.336
 1564TIP3   OH2 4655   6.696   0.553   3.140
 1564TIP3    H1 4656   6.784   0.586   3.158
 1564TIP3    H2 4657   6.668   0.600   3.062
 1565TIP3   OH2 4658   7.023   3.271   2.197
 1565TIP3    H1 4659   7.037   3.178   2.214
 1565TIP3    H2 4660   7.112   3.308   2.195
 1566TIP3   OH2 4661   5.789   3.734   5.201
 1566TIP3    H1 4662   5.881   3.720   5.179
 1566TIP3    H2 4663   5.749   3.768   5.121
 1567TIP3   OH2 4664   2.631   2.570   5.158
 1567TIP3    H1 4665   2.720   2.605   5.160
 1567TIP3    H2 4666   2.596   2.597   5.074
 1568TIP3   OH2 4667   5.338   5.062   2.976
 1568TIP3    H1 4668   5.398   5.120   3.022
 1568TIP3    H2 4669   5.273   5.037   3.042
 1569TIP3   OH2 4670   4.439   3.212   2.085
 1569TIP3    H1 4671   4.463   3.175   2.000
 1569TIP3    H2 4672   4.522   3.247   2.119
 1570TIP3   OH2 4673   2.458   0.836   2.778
 1570TIP3    H1 4674   2.419   0.908   2.729
 1570TIP3    H2 4675   2.412   0.837   2.862
 1571TIP3   OH2 4676   4.337   6.420   0.640
 1571TIP3    H1 4677   4.351   6.331   0.606
 1571TIP3    H2 4678   4.425   6.451   0.664
 1572TIP3   OH2 4679   3.230   2.525   4.390
 1572TIP3    H1 4680   3.232   2.618   4.413
 1572TIP3    H2 4681   3.198   2.524   4.299
 1573TIP3   OH2 4682   1.637   6.460   5.786
 1573TIP3    H1 4683   1.656   6.412   5.866
 1573TIP3    H2 4684   1.545   6.443   5.769
 1574TIP3   OH2 4685   3.677   3.505   3.018
 1574TIP3    H1 4686   3.596   3.546   3.051
 1574TIP3    H2 4687   3.730   3.492   3.097
 1575TIP3   OH2 4688   1.308   1.807   5.739
 1575TIP3    H1 4689   1.397   1.842   5.736
 1575TIP3    H2 4690   1.268   1.837   5.657
 1576TIP3   OH2 4691   0.027   0.257   3.854
 1576TIP3    H1 4692  -0.066   0.243   3.839
 1576TIP3    H2 4693   0.048   0.333   3.799
 1577TIP3   OH2 4694   5.482   5.466   5.036
 1577TIP3    H1 4695   5.456   5.558   5.029
 1577TIP3    H2 4696   5.558   5.466   5.095
 1578TIP3   OH2 4697   5.522   0.558   1.140
 1578TIP3    H1 4698   5.583   0.549   1.067
 1578TIP3    H2 4699   5.460   0.625   1.111
 1579TIP3   OH2 4700   4.561   2.897   3.849
 1579TIP3    H1 4701   4.539   2.804   3.843
 1579TIP3    H2 4702   4.503   2.931   3.917
 1580TIP3   OH2 4703   1.013   0.755   4.923
 1580TIP3    H1 4704   1.019   0.719   4.835
 1580TIP3    H2 4705   0.948   0.824   4.917
 1581TIP3   OH2 4706   2.118   6.562   1.814
 1581TIP3    H1 4707   2.127   6.469   1.836
 1581TIP3    H2 4708   2.089   6.603   1.896
 1582TIP3   OH2 4709   3.362   1.568   0.843
 1582TIP3    H1 4710   3.281   1.518   0.855
 1582TIP3    H2 4711   3.356   1.639   0.907
 1583TIP3   OH2 4712   6.780   1.691   4.079
 1583TIP3    H1 4713   6.832   1.655   4.007
 1583TIP3    H2 4714   6.760   1.781   4.051
 1584TIP3   OH2 4715   3.326   6.655   0.218
 1584TIP3    H1 4716   3.284   6.620   0.297
 1584TIP3    H2 4717   3.395   6.591   0.198
 1585TIP3   OH2 4718   2.990   1.657   0.426
 1585TIP3    H1 4719   2.904   1.700   0.428
 1585TIP3    H2 4720   3.029   1.679   0.511
 1586TIP3   OH2 4721   6.969   2.059   4.503
 1586TIP3    H1 4722   7.049   2.100   4.472
 1586TIP3    H2 4723   6.908   2.066   4.429
 1587TIP3   OH2 4724   0.876   3.695   4.606
 1587TIP3    H1 4725   0.796   3.643   4.611
 1587TIP3    H2 4726   0.946   3.633   4.622
 1588TIP3   OH2 4727   6.499   0.794   2.251
 1588TIP3    H1 4728   6.466   0.798   2.341
 1588TIP3    H2 4729   6.529   0.883   2.232
 1589TIP3   OH2 4730   2.017   4.645   4.460
 1589TIP3    H1 4731   1.949   4.579   4.443
 1589TIP3    H2 4732   1.969   4.724   4.483
 1590TIP3   OH2 4733   5.276   0.382   3.001
 1590TIP3    H1 4734   5.332   0.435   2.944
 1590TIP3    H2 4735   5.239   0.446   3.062
 1591TIP3   OH2 4736   6.663   5.078   3.596
 1591TIP3    H1 4737   6.589   5.140   3.591
 1591TIP3    H2 4738   6.626   5.001   3.639
 1592TIP3   OH2 4739   6.454   1.003   1.650
 1592TIP3    H1 4740   6.441   0.996   1.555
 1592TIP3    H2 4741   6.414   1.086   1.674
 1593TIP3   OH2 4742   2.930   1.082   5.167
 1593TIP3    H1 4743   2.869   1.142   5.209
 1593TIP3    H2 4744   2.987   1.052   5.238
 1594TIP3   OH2 4745   4.478   2.085   3.657
 1594TIP3    H1 4746   4.400   2.035   3.681
 1594TIP3    H2 4747   4.514   2.039   3.581
 1595TIP3   OH2 4748   2.800   4.422   0.613
 1595TIP3    H1 4749   2.756   4.504   0.638
 1595TIP3    H2 4750   2.731   4.368   0.575
 1596TIP3   OH2 4751   4.102   1.712   5.864
 1596TIP3    H1 4752   4.044   1.656   5.916
 1596TIP3    H2 4753   4.091   1.680   5.774
 1597TIP3   OH2 4754   0.633   0.301   0.681
 1597TIP3    H1 4755   0.583   0.326   0.603
 1597TIP3    H2 4756   0.633   0.379   0.736
 1598TIP3   OH2 4757   5.639   0.812   1.765
 1598TIP3    H1 4758   5.733   0.826   1.778
 1598TIP3    H2 4759   5.626   0.825   1.671
 1599TIP3   OH2 4760   0.700   2.585   4.131
 1599TIP3    H1 4761   0.785   2.544   4.111
 1599TIP3    H2 4762   0.655   2.521   4.185
 1600TIP3   OH2 4763   4.744   0.758   4.310
 1600TIP3    H1 4764   4.679   0.795   4.370
 1600TIP3    H2 4765   4.823   0.808   4.326
 1601TIP3   OH2 4766   2.529   3.392   5.185
 1601TIP3    H1 4767   2.536   3.456   5.255
 1601TIP3    H2 4768   2.591   3.323   5.210
 1602TIP3   OH2 4769   4.277   2.384   1.358
 1602TIP3    H1 4770   4.195   2.379   1.408
 1602TIP3    H2 4771   4.337   2.432   1.415
 1603TIP3   OH2 4772   3.268   0.241   3.116
 1603TIP3    H1 4773   3.310   0.310   3.168
 1603TIP3    H2 4774   3.183   0.229   3.157
 1604TIP3   OH2 4775   6.710   2.500   0.995
 1604TIP3    H1 4776   6.720   2.588   0.959
 1604TIP3    H2 4777   6.732   2.510   1.088
 1605TIP3   OH2 4778   5.817   5.811   5.240
 1605TIP3    H1 4779   5.811   5.889   5.294
 1605TIP3    H2 4780   5.910   5.803   5.219
 1606TIP3   OH2 4781   2.845   3.952   5.116
 1606TIP3    H1 4782   2.920   3.969   5.060
 1606TIP3    H2 4783   2.772   3.939   5.055
 1607TIP3   OH2 4784   7.088   6.084   3.153
 1607TIP3    H1 4785   7.082   6.002   3.105
 1607TIP3    H2 4786   6.998   6.114   3.164
 1608TIP3   OH2 4787   5.344   2.960   0.494
 1608TIP3    H1 4788   5.377   2.984   0.407
 1608TIP3    H2 4789   5.409   2.996   0.554
 1609TIP3   OH2 4790   5.340   1.732   3.069
 1609TIP3    H1 4791   5.318   1.822   3.093
 1609TIP3    H2 4792   5.375   1.694   3.149
 1610TIP3   OH2 4793   6.370   3.944   2.267
 1610TIP3    H1 4794   6.372   3.950   2.362
 1610TIP3    H2 4795   6.456   3.974   2.239
 1611TIP3   OH2 4796   3.378   2.598   5.589
 1611TIP3    H1 4797   3.283   2.599   5.582
 1611TIP3    H2 4798   3.395   2.608   5.683
 1612TIP3   OH2 4799   4.372   1.932   2.763
 1612TIP3    H1 4800   4.384   1.837   2.769
 1612TIP3    H2 4801   4.326   1.945   2.679
 1613TIP3   OH2 4802   6.561   4.894   5.055
 1613TIP3    H1 4803   6.543   4.944   5.136
 1613TIP3    H2 4804   6.520   4.809   5.070
 1614TIP3   OH2 4805   6.957   2.279   3.150
 1614TIP3    H1 4806   6.892   2.308   3.087
 1614TIP3    H2 4807   7.020   2.351   3.155
 1615TIP3   OH2 4808   0.261   2.491   5.774
 1615TIP3    H1 4809   0.353   2.471   5.758
 1615TIP3    H2 4810   0.245   2.461   5.864
 1616TIP3   OH2 4811   5.768   0.194   5.545
 1616TIP3    H1 4812   5.756   0.102   5.566
 1616TIP3    H2 4813   5.862   0.205   5.533
 1617TIP3   OH2 4814   0.662   4.509   1.402
 1617TIP3    H1 4815   0.700   4.476   1.320
 1617TIP3    H2 4816   0.591   4.566   1.374
 1618TIP3   OH2 4817   4.107   4.337   0.836
 1618TIP3    H1 4818   4.068   4.410   0.788
 1618TIP3    H2 4819   4.033   4.281   0.860
 1619TIP3   OH2 4820   3.046   4.716   5.694
 1619TIP3    H1 4821   2.981   4.648   5.681
 1619TIP3    H2 4822   2.995   4.796   5.710
 1620TIP3   OH2 4823   0.452   4.049   5.821
 1620TIP3    H1 4824   0.366   4.044   5.779
 1620TIP3    H2 4825   0.455   4.138   5.858
 1621TIP3   OH2 4826   3.738   6.211   1.149
 1621TIP3    H1 4827   3.753   6.207   1.054
 1621TIP3    H2 4828   3.724   6.304   1.167
 1622TIP3   OH2 4829   3.415   0.061   1.016
 1622TIP3    H1 4830   3.468   0.066   0.937
 1622TIP3    H2 4831   3.373  -0.025   1.011
 1623TIP3   OH2 4832   4.487   5.317   4.962
 1623TIP3    H1 4833   4.476   5.410   4.983
 1623TIP3    H2 4834   4.427   5.302   4.889
 1624TIP3   OH2 4835   5.419   5.695   0.406
 1624TIP3    H1 4836   5.398   5.602   0.403
 1624TIP3    H2 4837   5.354   5.737   0.350
 1625TIP3   OH2 4838   3.307   6.435   3.582
 1625TIP3    H1 4839   3.336   6.521   3.552
 1625TIP3    H2 4840   3.214   6.432   3.558
 1626TIP3   OH2 4841   2.063   3.237   3.553
 1626TIP3    H1 4842   2.101   3.259   3.638
 1626TIP3    H2 4843   2.008   3.312   3.532
 1627TIP3   OH2 4844   2.240   1.803   1.531
 1627TIP3    H1 4845   2.282   1.786   1.446
 1627TIP3    H2 4846   2.301   1.861   1.576
 1628TIP3   OH2 4847   6.147   0.635   2.694
 1628TIP3    H1 4848   6.226   0.657   2.644
 1628TIP3    H2 4849   6.112   0.720   2.722
 1629TIP3   OH2 4850   5.299   0.103   4.842
 1629TIP3    H1 4851   5.347   0.041   4.896
 1629TIP3    H2 4852   5.336   0.093   4.755
 1630TIP3   OH2 4853   6.175   6.004   5.375
 1630TIP3    H1 4854   6.192   5.959   5.458
 1630TIP3    H2 4855   6.125   5.941   5.323
 1631TIP3   OH2 4856   1.542   3.325   1.605
 1631TIP3    H1 4857   1.551   3.414   1.572
 1631TIP3    H2 4858   1.521   3.336   1.698
 1632TIP3   OH2 4859   5.455   2.090   3.985
 1632TIP3    H1 4860   5.448   2.095   4.081
 1632TIP3    H2 4861   5.435   1.999   3.964
 1633TIP3   OH2 4862   5.015   5.014   1.095
 1633TIP3    H1 4863   4.953   5.017   1.168
 1633TIP3    H2 4864   5.096   4.980   1.133
 1634TIP3   OH2 4865   0.948   4.374   4.982
 1634TIP3    H1 4866   1.018   4.313   5.009
 1634TIP3    H2 4867   0.892   4.321   4.925
 1635TIP3   OH2 4868   0.689   2.054   1.611
 1635TIP3    H1 4869   0.674   1.974   1.661
 1635TIP3    H2 4870   0.622   2.052   1.543
 1636TIP3   OH2 4871   3.691   0.551   0.411
 1636TIP3    H1 4872   3.629   0.583   0.476
 1636TIP3    H2 4873   3.704   0.626   0.353
 1637TIP3   OH2 4874   4.251   4.009   5.153
 1637TIP3    H1 4875   4.286   3.928   5.190
 1637TIP3    H2 4876   4.235   3.988   5.061
 1638TIP3   OH2 4877   0.552   1.899   0.378
 1638TIP3    H1 4878   0.604   1.943   0.311
 1638TIP3    H2 4879   0.616   1.856   0.434
 1639TIP3   OH2 4880   5.781   1.014   2.454
 1639TIP3    H1 4881   5.875   1.030   2.449
 1639TIP3    H2 4882   5.745   1.090   2.500
 1640TIP3   OH2 4883   0.459   4.647   5.271
 1640TIP3    H1 4884   0.425   4.718   5.326
 1640TIP3    H2 4885   0.530   4.609   5.323
 1641TIP3   OH2 4886   4.254   4.983   3.190
 1641TIP3    H1 4887   4.277   4.900   3.149
 1641TIP3    H2 4888   4.197   4.959   3.263
 1642TIP3   OH2 4889   3.699   5.997   5.857
 1642TIP3    H1 4890   3.763   5.926   5.865
 1642TIP3    H2 4891   3.664   6.007   5.946
 1643TIP3   OH2 4892   4.412   6.168   0.548
 1643TIP3    H1 4893   4.436   6.198   0.461
 1643TIP3    H2 4894   4.492   6.127   0.582
 1644TIP3   OH2 4895   1.208   2.948   1.876
 1644TIP3    H1 4896   1.265   2.984   1.944
 1644TIP3    H2 4897   1.130   3.003   1.878
 1645TIP3   OH2 4898   6.468   6.463   4.438
 1645TIP3    H1 4899   6.422   6.418   4.367
 1645TIP3    H2 4900   6.558   6.430   4.432
 1646TIP3   OH2 4901   7.180   2.824   3.351
 1646TIP3    H1 4902   7.133   2.864   3.278
 1646TIP3    H2 4903   7.142   2.863   3.429
 1647TIP3   OH2 4904   6.245   6.683   3.437
 1647TIP3    H1 4905   6.168   6.635   3.406
 1647TIP3    H2 4906   6.275   6.732   3.361
 1648TIP3   OH2 4907   4.558   4.236   3.588
 1648TIP3    H1 4908   4.565   4.326   3.554
 1648TIP3    H2 4909   4.513   4.188   3.519
 1649TIP3   OH2 4910   6.239   5.257   4.516
 1649TIP3    H1 4911   6.228   5.166   4.489
 1649TIP3    H2 4912   6.233   5.306   4.434
 1650TIP3   OH2 4913   3.030   3.492   2.893
 1650TIP3    H1 4914   2.998   3.580   2.914
 1650TIP3    H2 4915   2.961   3.454   2.839
 1651TIP3   OH2 4916   1.287   1.070   2.216
 1651TIP3    H1 4917   1.316   0.982   2.241
 1651TIP3    H2 4918   1.347   1.129   2.264
 1652TIP3   OH2 4919   4.834   0.250   1.945
 1652TIP3    H1 4920   4.870   0.330   1.907
 1652TIP3    H2 4921   4.776   0.216   1.878
 1653TIP3   OH2 4922   1.362   0.091   5.454
 1653TIP3    H1 4923   1.402   0.004   5.460
 1653TIP3    H2 4924   1.356   0.109   5.360
 1654TIP3   OH2 4925   6.258   3.430   4.894
 1654TIP3    H1 4926   6.275   3.349   4.941
 1654TIP3    H2 4927   6.183   3.410   4.838
 1655TIP3   OH2 4928   3.424   0.072   1.273
 1655TIP3    H1 4929   3.355   0.010   1.299
 1655TIP3    H2 4930   3.405   0.092   1.182
 1656TIP3   OH2 4931   5.480   5.670   2.726
 1656TIP3    H1 4932   5.567   5.697   2.697
 1656TIP3    H2 4933   5.424   5.685   2.650
 1657TIP3   OH2 4934   6.578   3.437   1.755
 1657TIP3    H1 4935   6.614   3.458   1.841
 1657TIP3    H2 4936   6.653   3.412   1.702
 1658TIP3   OH2 4937   6.649   5.795   0.576
 1658TIP3    H1 4938   6.662   5.711   0.619
 1658TIP3    H2 4939   6.561   5.789   0.537
 1659TIP3   OH2 4940   4.033   0.798   2.706
 1659TIP3    H1 4941   4.057   0.880   2.663
 1659TIP3    H2 4942   3.954   0.819   2.755
 1660TIP3   OH2 4943   2.752   2.643   3.137
 1660TIP3    H1 4944   2.809   2.712   3.101
 1660TIP3    H2 4945   2.796   2.615   3.218
 1661TIP3   OH2 4946   1.999   5.655   2.456
 1661TIP3    H1 4947   1.978   5.597   2.529
 1661TIP3    H2 4948   1.961   5.613   2.380
 1662TIP3   OH2 4949   3.863   0.248   0.635
 1662TIP3    H1 4950   3.808   0.307   0.686
 1662TIP3    H2 4951   3.946   0.243   0.683
 1663TIP3   OH2 4952   1.778   1.347   4.531
 1663TIP3    H1 4953   1.863   1.379   4.502
 1663TIP3    H2 4954   1.717   1.376   4.464
 1664TIP3   OH2 4955   3.136   1.035   3.227
 1664TIP3    H1 4956   3.178   1.112   3.266
 1664TIP3    H2 4957   3.208   0.974   3.212
 1665TIP3   OH2 4958   5.162   2.883   1.470
 1665TIP3    H1 4959   5.112   2.896   1.551
 1665TIP3    H2 4960   5.100   2.905   1.401
 1666TIP3   OH2 4961   2.033   5.044   3.556
 1666TIP3    H1 4962   2.040   5.122   3.501
 1666TIP3    H2 4963   1.940   5.024   3.557
 1667TIP3   OH2 4964   6.860   1.147   1.331
 1667TIP3    H1 4965   6.857   1.158   1.236
 1667TIP3    H2 4966   6.932   1.086   1.347
 1668TIP3   OH2 4967   3.741   1.572   1.399
 1668TIP3    H1 4968   3.794   1.502   1.360
 1668TIP3    H2 4969   3.766   1.651   1.351
 1669TIP3   OH2 4970   3.388   5.477   1.248
 1669TIP3    H1 4971   3.305   5.432   1.261
 1669TIP3    H2 4972   3.454   5.408   1.251
 1670TIP3   OH2 4973   4.474   1.083   1.011
 1670TIP3    H1 4974   4.569   1.093   1.010
 1670TIP3    H2 4975   4.458   1.015   1.076
 1671TIP3   OH2 4976   3.462   6.154   2.006
 1671TIP3    H1 4977   3.470   6.077   1.949
 1671TIP3    H2 4978   3.384   6.136   2.059
 1672TIP3   OH2 4979   2.282   2.792   4.531
 1672TIP3    H1 4980   2.347   2.776   4.599
 1672TIP3    H2 4981   2.329   2.784   4.449
 1673TIP3   OH2 4982   3.626   5.082   1.961
 1673TIP3    H1 4983   3.595   5.169   1.984
 1673TIP3    H2 4984   3.630   5.035   2.044
 1674TIP3   OH2 4985   3.558   6.746   3.924
 1674TIP3    H1 4986   3.598   6.701   3.850
 1674TIP3    H2 4987   3.464   6.744   3.906
 1675TIP3   OH2 4988   1.168   5.649   0.124
 1675TIP3    H1 4989   1.139   5.737   0.149
 1675TIP3    H2 4990   1.117   5.590   0.180
 1676TIP3   OH2 4991   6.306   4.097   5.544
 1676TIP3    H1 4992   6.245   4.097   5.619
 1676TIP3    H2 4993   6.300   4.009   5.509
 1677TIP3   OH2 4994   1.867   3.203   4.596
 1677TIP3    H1 4995   1.917   3.282   4.574
 1677TIP3    H2 4996   1.777   3.234   4.607
 1678TIP3   OH2 4997   5.011   1.637   2.097
 1678TIP3    H1 4998   4.953   1.698   2.051
 1678TIP3    H2 4999   4.952   1.583   2.150
 1679TIP3   OH2 5000   2.551   0.729   0.524
 1679TIP3    H1 5001   2.466   0.743   0.482
 1679TIP3    H2 5002   2.541   0.647   0.573
 1680TIP3   OH2 5003   5.655   2.350   1.919
 1680TIP3    H1 5004   5.709   2.328   1.843
 1680TIP3    H2 5005   5.697   2.304   1.992
 1681TIP3   OH2 5006   4.375   1.311   1.504
 1681TIP3    H1 5007   4.341   1.338   1.589
 1681TIP3    H2 5008   4.434   1.382   1.477
 1682TIP3   OH2 5009   1.756   2.716   2.685
 1682TIP3    H1 5010   1.787   2.804   2.709
 1682TIP3    H2 5011   1.832   2.674   2.644
 1683TIP3   OH2 5012   3.101   4.366   2.442
 1683TIP3    H1 5013   3.019   4.396   2.403
 1683TIP3    H2 5014   3.079   4.285   2.487
 1684TIP3   OH2 5015   3.213   3.960   1.186
 1684TIP3    H1 5016   3.211   3.865   1.192
 1684TIP3    H2 5017   3.285   3.987   1.244
 1685TIP3   OH2 5018   1.029   3.536   4.262
 1685TIP3    H1 5019   0.980   3.474   4.208
 1685TIP3    H2 5020   1.094   3.482   4.307
 1686TIP3   OH2 5021   2.655   5.667   3.177
 1686TIP3    H1 5022   2.681   5.629   3.093
 1686TIP3    H2 5023   2.560   5.661   3.178
 1687TIP3   OH2 5024   3.228   5.631   0.636
 1687TIP3    H1 5025   3.217   5.622   0.731
 1687TIP3    H2 5026   3.230   5.725   0.621
 1688TIP3   OH2 5027   0.384   1.057   2.509
 1688TIP3    H1 5028   0.417   1.138   2.471
 1688TIP3    H2 5029   0.441   1.040   2.584
 1689TIP3   OH2 5030   0.001   6.284   4.224
 1689TIP3    H1 5031   0.092   6.305   4.203
 1689TIP3    H2 5032  -0.020   6.208   4.169
 1690TIP3   OH2 5033   4.195   4.597   0.367
 1690TIP3    H1 5034   4.139   4.583   0.290
 1690TIP3    H2 5035   4.237   4.512   0.382
 1691TIP3   OH2 5036   4.616   5.302   3.104
 1691TIP3    H1 5037   4.553   5.231   3.088
 1691TIP3    H2 5038   4.682   5.291   3.037
 1692TIP3   OH2 5039   6.721   6.405   3.857
 1692TIP3    H1 5040   6.715   6.443   3.769
 1692TIP3    H2 5041   6.729   6.481   3.915
 1693TIP3   OH2 5042   0.654   3.774   4.401
 1693TIP3    H1 5043   0.669   3.687   4.365
 1693TIP3    H2 5044   0.567   3.769   4.441
 1694TIP3   OH2 5045   1.710   6.446   4.356
 1694TIP3    H1 5046   1.656   6.498   4.296
 1694TIP3    H2 5047   1.739   6.509   4.422
 1695TIP3   OH2 5048   7.145   4.342   4.680
 1695TIP3    H1 5049   7.239   4.340   4.696
 1695TIP3    H2 5050   7.122   4.250   4.664
 1696TIP3   OH2 5051   1.159   5.008   4.053
 1696TIP3    H1 5052   1.073   5.049   4.043
 1696TIP3    H2 5053   1.163   4.944   3.982
 1697TIP3   OH2 5054   5.550   1.746   1.729
 1697TIP3    H1 5055   5.638   1.726   1.762
 1697TIP3    H2 5056   5.500   1.666   1.745
 1698TIP3   OH2 5057   5.907   6.428   2.476
 1698TIP3    H1 5058   5.883   6.514   2.511
 1698TIP3    H2 5059   5.930   6.445   2.385
 1699TIP3   OH2 5060   4.121   3.593   4.080
 1699TIP3    H1 5061   4.091   3.515   4.128
 1699TIP3    H2 5062   4.148   3.560   3.995
 1700TIP3   OH2 5063   0.521   4.073   4.004
 1700TIP3    H1 5064   0.555   4.156   3.970
 1700TIP3    H2 5065   0.595   4.013   3.998
 1701TIP3   OH2 5066   6.787   5.597   0.727
 1701TIP3    H1 5067   6.785   5.573   0.820
 1701TIP3    H2 5068   6.844   5.533   0.686
 1702TIP3   OH2 5069   4.033   0.220   4.326
 1702TIP3    H1 5070   4.068   0.273   4.398
 1702TIP3    H2 5071   4.057   0.130   4.349
 1703TIP3   OH2 5072   2.165   4.603   1.004
 1703TIP3    H1 5073   2.197   4.614   1.094
 1703TIP3    H2 5074   2.236   4.555   0.960
 1704TIP3   OH2 5075   5.672   4.197   5.077
 1704TIP3    H1 5076   5.658   4.216   5.170
 1704TIP3    H2 5077   5.757   4.235   5.057
 1705TIP3   OH2 5078   7.092   6.121   2.420
 1705TIP3    H1 5079   7.008   6.097   2.459
 1705TIP3    H2 5080   7.101   6.215   2.439
 1706TIP3   OH2 5081   2.739   1.919   1.468
 1706TIP3    H1 5082   2.774   2.008   1.471
 1706TIP3    H2 5083   2.816   1.863   1.468
 1707TIP3   OH2 5084   4.157   2.709   4.788
 1707TIP3    H1 5085   4.181   2.781   4.729
 1707TIP3    H2 5086   4.224   2.642   4.772
 1708TIP3   OH2 5087   1.624   6.292   2.651
 1708TIP3    H1 5088   1.621   6.265   2.559
 1708TIP3    H2 5089   1.569   6.370   2.655
 1709TIP3   OH2 5090   6.896   4.690   1.809
 1709TIP3    H1 5091   6.969   4.748   1.832
 1709TIP3    H2 5092   6.864   4.725   1.725
 1710TIP3   OH2 5093   3.380   2.328   4.515
 1710TIP3    H1 5094   3.323   2.345   4.440
 1710TIP3    H2 5095   3.418   2.414   4.535
 1711TIP3   OH2 5096   6.278   1.114   5.675
 1711TIP3    H1 5097   6.368   1.093   5.650
 1711TIP3    H2 5098   6.273   1.209   5.672
 1712TIP3   OH2 5099   1.478   3.894   1.116
 1712TIP3    H1 5100   1.541   3.949   1.071
 1712TIP3    H2 5101   1.446   3.949   1.188
 1713TIP3   OH2 5102   5.241   0.768   4.563
 1713TIP3    H1 5103   5.228   0.687   4.514
 1713TIP3    H2 5104   5.274   0.830   4.498
 1714TIP3   OH2 5105   7.010   0.187   0.348
 1714TIP3    H1 5106   6.930   0.195   0.297
 1714TIP3    H2 5107   7.003   0.102   0.391
 1715TIP3   OH2 5108   6.847   1.078   3.453
 1715TIP3    H1 5109   6.877   1.125   3.531
 1715TIP3    H2 5110   6.761   1.044   3.477
 1716TIP3   OH2 5111   2.935   5.972   1.154
 1716TIP3    H1 5112   2.905   6.063   1.148
 1716TIP3    H2 5113   3.027   5.979   1.178
 1717TIP3   OH2 5114   2.235   4.024   1.273
 1717TIP3    H1 5115   2.163   4.075   1.311
 1717TIP3    H2 5116   2.277   4.085   1.212
 1718TIP3   OH2 5117   2.323   5.198   3.100
 1718TIP3    H1 5118   2.269   5.142   3.045
 1718TIP3    H2 5119   2.312   5.162   3.188
 1719TIP3   OH2 5120   0.376   5.489   0.110
 1719TIP3    H1 5121   0.361   5.532   0.026
 1719TIP3    H2 5122   0.349   5.553   0.176
 1720TIP3   OH2 5123   3.954   6.773   0.935
 1720TIP3    H1 5124   4.000   6.772   1.019
 1720TIP3    H2 5125   4.021   6.750   0.871
 1721TIP3   OH2 5126   1.914   0.778   3.980
 1721TIP3    H1 5127   1.923   0.861   3.934
 1721TIP3    H2 5128   1.855   0.797   4.053
 1722TIP3   OH2 5129   2.783   4.417   1.247
 1722TIP3    H1 5130   2.826   4.476   1.309
 1722TIP3    H2 5131   2.706   4.385   1.294
 1723TIP3   OH2 5132   1.870   6.549   3.180
 1723TIP3    H1 5133   1.817   6.588   3.249
 1723TIP3    H2 5134   1.958   6.583   3.196
 1724TIP3   OH2 5135   3.005   2.379   2.905
 1724TIP3    H1 5136   3.098   2.395   2.922
 1724TIP3    H2 5137   2.977   2.455   2.854
 1725TIP3   OH2 5138   2.286   4.391   1.380
 1725TIP3    H1 5139   2.278   4.346   1.296
 1725TIP3    H2 5140   2.291   4.484   1.357
 1726TIP3   OH2 5141   0.319   4.889   5.369
 1726TIP3    H1 5142   0.247   4.949   5.388
 1726TIP3    H2 5143   0.388   4.944   5.331
 1727TIP3   OH2 5144   4.072   5.435   4.464
 1727TIP3    H1 5145   4.159   5.439   4.503
 1727TIP3    H2 5146   4.084   5.467   4.375
 1728TIP3   OH2 5147   4.455   0.798   0.751
 1728TIP3    H1 5148   4.391   0.866   0.773
 1728TIP3    H2 5149   4.538   0.845   0.743
 1729TIP3   OH2 5150   3.188   4.206   3.751
 1729TIP3    H1 5151   3.187   4.112   3.730
 1729TIP3    H2 5152   3.118   4.216   3.816
 1730TIP3   OH2 5153   1.985   0.967   1.511
 1730TIP3    H1 5154   1.901   0.925   1.493
 1730TIP3    H2 5155   1.984   0.984   1.606
 1731TIP3   OH2 5156   6.082   6.017   0.464
 1731TIP3    H1 5157   6.041   5.937   0.496
 1731TIP3    H2 5158   6.140   6.044   0.535
 1732TIP3   OH2 5159   1.038   4.965   4.675
 1732TIP3    H1 5160   1.090   4.892   4.709
 1732TIP3    H2 5161   0.950   4.950   4.709
 1733TIP3   OH2 5162   0.952   1.067   3.956
 1733TIP3    H1 5163   0.875   1.075   4.012
 1733TIP3    H2 5164   0.999   1.149   3.966
 1734TIP3   OH2 5165   2.324   1.661   0.837
 1734TIP3    H1 5166   2.400   1.606   0.856
 1734TIP3    H2 5167   2.327   1.674   0.742
 1735TIP3   OH2 5168   7.110   0.266   4.668
 1735TIP3    H1 5169   7.202   0.271   4.691
 1735TIP3    H2 5170   7.095   0.173   4.652
 1736TIP3   OH2 5171   5.666   4.589   5.327
 1736TIP3    H1 5172   5.690   4.677   5.355
 1736TIP3    H2 5173   5.636   4.545   5.406
 1737TIP3   OH2 5174   3.807   4.153   0.272
 1737TIP3    H1 5175   3.743   4.086   0.297
 1737TIP3    H2 5176   3.862   4.164   0.350
 1738TIP3   OH2 5177   6.449   4.496   3.580
 1738TIP3    H1 5178   6.466   4.410   3.620
 1738TIP3    H2 5179   6.443   4.556   3.655
 1739TIP3   OH2 5180   0.391   3.684   4.174
 1739TIP3    H1 5181   0.412   3.767   4.217
 1739TIP3    H2 5182   0.473   3.657   4.132
 1740TIP3   OH2 5183   6.781   0.249   0.192
 1740TIP3    H1 5184   6.767   0.299   0.273
 1740TIP3    H2 5185   6.756   0.310   0.122
 1741TIP3   OH2 5186   1.435   1.069   5.277
 1741TIP3    H1 5187   1.404   0.980   5.290
 1741TIP3    H2 5188   1.469   1.096   5.362
 1742TIP3   OH2 5189   2.473   1.132   2.785
 1742TIP3    H1 5190   2.551   1.140   2.730
 1742TIP3    H2 5191   2.506   1.118   2.873
 1743TIP3   OH2 5192   5.949   4.194   3.904
 1743TIP3    H1 5193   5.937   4.142   3.984
 1743TIP3    H2 5194   5.976   4.280   3.936
 1744TIP3   OH2 5195   1.101   4.609   1.338
 1744TIP3    H1 5196   1.091   4.529   1.286
 1744TIP3    H2 5197   1.086   4.680   1.276
 1745TIP3   OH2 5198   1.882   4.993   3.280
 1745TIP3    H1 5199   1.972   4.983   3.248
 1745TIP3    H2 5200   1.880   4.939   3.360
 1746TIP3   OH2 5201   4.484   6.363   5.359
 1746TIP3    H1 5202   4.476   6.269   5.343
 1746TIP3    H2 5203   4.394   6.395   5.355
 1747TIP3   OH2 5204   5.516   0.862   0.612
 1747TIP3    H1 5205   5.536   0.950   0.644
 1747TIP3    H2 5206   5.564   0.804   0.671
 1748TIP3   OH2 5207   4.495   3.091   0.331
 1748TIP3    H1 5208   4.436   3.016   0.320
 1748TIP3    H2 5209   4.568   3.073   0.272
 1749TIP3   OH2 5210   5.544   4.490   1.634
 1749TIP3    H1 5211   5.517   4.498   1.725
 1749TIP3    H2 5212   5.629   4.533   1.630
 1750TIP3   OH2 5213   2.033   2.785   4.653
 1750TIP3    H1 5214   2.121   2.793   4.617
 1750TIP3    H2 5215   1.998   2.704   4.616
 1751TIP3   OH2 5216   2.875   5.825   1.379
 1751TIP3    H1 5217   2.959   5.795   1.412
 1751TIP3    H2 5218   2.897   5.882   1.305
 1752TIP3   OH2 5219   1.690   4.525   0.097
 1752TIP3    H1 5220   1.682   4.435   0.067
 1752TIP3    H2 5221   1.770   4.557   0.055
 1753TIP3   OH2 5222   4.861   0.870   3.503
 1753TIP3    H1 5223   4.829   0.912   3.583
 1753TIP3    H2 5224   4.870   0.777   3.526
 1754TIP3   OH2 5225   3.085   5.253   4.605
 1754TIP3    H1 5226   3.109   5.310   4.532
 1754TIP3    H2 5227   3.163   5.200   4.621
 1755TIP3   OH2 5228   0.142   5.820   1.997
 1755TIP3    H1 5229   0.237   5.813   2.010
 1755TIP3    H2 5230   0.104   5.762   2.063
 1756TIP3   OH2 5231   2.277   3.849   4.906
 1756TIP3    H1 5232   2.347   3.784   4.895
 1756TIP3    H2 5233   2.223   3.813   4.977
 1757TIP3   OH2 5234   3.342   5.051   3.130
 1757TIP3    H1 5235   3.359   4.957   3.129
 1757TIP3    H2 5236   3.275   5.064   3.064
 1758TIP3   OH2 5237   5.117   0.573   2.144
 1758TIP3    H1 5238   5.057   0.503   2.168
 1758TIP3    H2 5239   5.190   0.565   2.205
 1759TIP3   OH2 5240   4.400   4.797   1.980
 1759TIP3    H1 5241   4.441   4.799   1.893
 1759TIP3    H2 5242   4.306   4.797   1.963
 1760TIP3   OH2 5243   5.849   5.618   5.013
 1760TIP3    H1 5244   5.775   5.673   4.988
 1760TIP3    H2 5245   5.920   5.679   5.030
 1761TIP3   OH2 5246   6.162   2.059   3.870
 1761TIP3    H1 5247   6.215   2.075   3.948
 1761TIP3    H2 5248   6.148   2.146   3.833
 1762TIP3   OH2 5249   3.223   1.160   4.434
 1762TIP3    H1 5250   3.136   1.123   4.449
 1762TIP3    H2 5251   3.282   1.085   4.438
 1763TIP3   OH2 5252   5.950   4.902   3.834
 1763TIP3    H1 5253   6.039   4.916   3.866
 1763TIP3    H2 5254   5.908   4.988   3.842
 1764TIP3   OH2 5255   6.022   2.476   3.280
 1764TIP3    H1 5256   5.998   2.548   3.222
 1764TIP3    H2 5257   5.966   2.403   3.252
 1765TIP3   OH2 5258   4.282   1.027   0.814
 1765TIP3    H1 5259   4.208   1.077   0.850
 1765TIP3    H2 5260   4.346   1.024   0.885
 1766TIP3   OH2 5261   1.998   4.810   2.275
 1766TIP3    H1 5262   1.962   4.878   2.333
 1766TIP3    H2 5263   1.927   4.793   2.213
 1767TIP3   OH2 5264   4.993   4.214   2.100
 1767TIP3    H1 5265   5.078   4.251   2.074
 1767TIP3    H2 5266   4.952   4.282   2.152
 1768TIP3   OH2 5267   5.148   0.178   1.499
 1768TIP3    H1 5268   5.189   0.091   1.496
 1768TIP3    H2 5269   5.132   0.201   1.408
 1769TIP3   OH2 5270   5.262   3.191   2.341
 1769TIP3    H1 5271   5.302   3.192   2.254
 1769TIP3    H2 5272   5.288   3.274   2.380
 1770TIP3   OH2 5273   5.431   4.198   4.662
 1770TIP3    H1 5274   5.473   4.120   4.700
 1770TIP3    H2 5275   5.488   4.222   4.589
 1771TIP3   OH2 5276   7.182   4.275   1.682
 1771TIP3    H1 5277   7.266   4.247   1.717
 1771TIP3    H2 5278   7.128   4.291   1.759
 1772TIP3   OH2 5279   6.793   3.777   4.860
 1772TIP3    H1 5280   6.757   3.809   4.943
 1772TIP3    H2 5281   6.718   3.736   4.816
 1773TIP3   OH2 5282   4.633   5.989   5.743
 1773TIP3    H1 5283   4.714   5.950   5.775
 1773TIP3    H2 5284   4.646   6.083   5.756
 1774TIP3   OH2 5285   5.868   0.778   2.368
 1774TIP3    H1 5286   5.839   0.863   2.402
 1774TIP3    H2 5287   5.787   0.734   2.342
 1775TIP3   OH2 5288   6.890   3.623   4.249
 1775TIP3    H1 5289   6.892   3.680   4.172
 1775TIP3    H2 5290   6.952   3.662   4.310
 1776TIP3   OH2 5291   1.704   1.805   3.840
 1776TIP3    H1 5292   1.798   1.816   3.823
 1776TIP3    H2 5293   1.685   1.866   3.911
 1777TIP3   OH2 5294   6.414   4.853   2.446
 1777TIP3    H1 5295   6.467   4.876   2.523
 1777TIP3    H2 5296   6.325   4.844   2.480
 1778TIP3   OH2 5297   5.186   1.999   1.890
 1778TIP3    H1 5298   5.171   1.905   1.877
 1778TIP3    H2 5299   5.280   2.007   1.899
 1779TIP3   OH2 5300   3.520   5.772   2.314
 1779TIP3    H1 5301   3.436   5.780   2.270
 1779TIP3    H2 5302   3.542   5.862   2.341
 1780TIP3   OH2 5303   7.030   5.000   0.209
 1780TIP3    H1 5304   7.005   5.026   0.120
 1780TIP3    H2 5305   7.051   4.907   0.201
 1781TIP3   OH2 5306   1.088   6.163   5.048
 1781TIP3    H1 5307   1.148   6.127   5.113
 1781TIP3    H2 5308   1.001   6.151   5.086
 1782TIP3   OH2 5309   7.095   3.611   5.810
 1782TIP3    H1 5310   7.050   3.532   5.840
 1782TIP3    H2 5311   7.101   3.601   5.715
 1783TIP3   OH2 5312   3.035   4.847   1.310
 1783TIP3    H1 5313   3.070   4.866   1.223
 1783TIP3    H2 5314   3.104   4.872   1.370
 1784TIP3   OH2 5315   7.026   1.439   4.993
 1784TIP3    H1 5316   6.943   1.415   5.034
 1784TIP3    H2 5317   7.010   1.431   4.899
 1785TIP3   OH2 5318   1.839   5.385   0.562
 1785TIP3    H1 5319   1.837   5.344   0.475
 1785TIP3    H2 5320   1.931   5.403   0.578
 1786TIP3   OH2 5321   4.337   6.386   4.610
 1786TIP3    H1 5322   4.297   6.343   4.686
 1786TIP3    H2 5323   4.267   6.391   4.545
 1787TIP3   OH2 5324   4.286   6.350   0.942
 1787TIP3    H1 5325   4.308   6.402   1.019
 1787TIP3    H2 5326   4.296   6.411   0.869
 1788TIP3   OH2 5327   6.539   2.047   4.199
 1788TIP3    H1 5328   6.472   2.114   4.206
 1788TIP3    H2 5329   6.503   1.972   4.248
 1789TIP3   OH2 5330   0.718   6.531   3.805
 1789TIP3    H1 5331   0.724   6.623   3.831
 1789TIP3    H2 5332   0.702   6.533   3.711
 1790TIP3   OH2 5333   5.133   1.226   2.096
 1790TIP3    H1 5334   5.122   1.139   2.059
 1790TIP3    H2 5335   5.091   1.222   2.182
 1791TIP3   OH2 5336   1.526   5.669   1.496
 1791TIP3    H1 5337   1.442   5.691   1.538
 1791TIP3    H2 5338   1.565   5.753   1.474
 1792TIP3   OH2 5339   2.768   3.145   5.442
 1792TIP3    H1 5340   2.690   3.169   5.493
 1792TIP3    H2 5341   2.784   3.221   5.386
 1793TIP3   OH2 5342   4.941   1.257   4.323
 1793TIP3    H1 5343   4.956   1.282   4.415
 1793TIP3    H2 5344   4.938   1.340   4.276
 1794TIP3   OH2 5345   0.217   0.231   2.661
 1794TIP3    H1 5346   0.260   0.299   2.608
 1794TIP3    H2 5347   0.181   0.278   2.736
 1795TIP3   OH2 5348   5.333   4.831   4.377
 1795TIP3    H1 5349   5.419   4.791   4.368
 1795TIP3    H2 5350   5.282   4.796   4.304
 1796TIP3   OH2 5351   5.568   5.072   1.865
 1796TIP3    H1 5352   5.529   5.147   1.910
 1796TIP3    H2 5353   5.554   4.998   1.924
 1797TIP3   OH2 5354   1.002   3.921   0.457
 1797TIP3    H1 5355   1.019   3.827   0.466
 1797TIP3    H2 5356   1.068   3.952   0.396
 1798TIP3   OH2 5357   4.048   3.357   1.646
 1798TIP3    H1 5358   4.130   3.317   1.676
 1798TIP3    H2 5359   4.033   3.429   1.707
 1799TIP3   OH2 5360   3.305   3.425   5.196
 1799TIP3    H1 5361   3.291   3.481   5.273
 1799TIP3    H2 5362   3.397   3.399   5.202
 1800TIP3   OH2 5363   3.756   4.551   0.944
 1800TIP3    H1 5364   3.758   4.476   0.885
 1800TIP3    H2 5365   3.682   4.604   0.913
 1801TIP3   OH2 5366   2.816   1.000   4.714
 1801TIP3    H1 5367   2.721   0.990   4.711
 1801TIP3    H2 5368   2.843   0.952   4.792
 1802TIP3   OH2 5369   3.002  -0.014   5.790
 1802TIP3    H1 5370   3.080   0.030   5.756
 1802TIP3    H2 5371   2.941   0.058   5.808
 1803TIP3   OH2 5372   0.339   0.438   1.428
 1803TIP3    H1 5373   0.295   0.426   1.512
 1803TIP3    H2 5374   0.269   0.441   1.364
 1804TIP3   OH2 5375   0.368   1.005   4.801
 1804TIP3    H1 5376   0.303   1.056   4.850
 1804TIP3    H2 5377   0.444   1.001   4.860
 1805TIP3   OH2 5378   4.141   2.513   5.385
 1805TIP3    H1 5379   4.137   2.520   5.289
 1805TIP3    H2 5380   4.182   2.595   5.413
 1806TIP3   OH2 5381   6.541   5.603   1.589
 1806TIP3    H1 5382   6.618   5.555   1.560
 1806TIP3    H2 5383   6.517   5.562   1.672
 1807TIP3   OH2 5384   4.777   4.098   0.052
 1807TIP3    H1 5385   4.754   4.075   0.142
 1807TIP3    H2 5386   4.872   4.087   0.048
 1808TIP3   OH2 5387   6.368   0.746   1.182
 1808TIP3    H1 5388   6.295   0.726   1.240
 1808TIP3    H2 5389   6.327   0.774   1.100
 1809TIP3   OH2 5390   1.830   4.303   1.904
 1809TIP3    H1 5391   1.803   4.395   1.893
 1809TIP3    H2 5392   1.925   4.307   1.914
 1810TIP3   OH2 5393   6.339   3.022   1.865
 1810TIP3    H1 5394   6.361   2.952   1.803
 1810TIP3    H2 5395   6.246   3.011   1.881
 1811TIP3   OH2 5396   6.963   0.815   5.589
 1811TIP3    H1 5397   6.884   0.773   5.625
 1811TIP3    H2 5398   7.007   0.851   5.666
 1812TIP3   OH2 5399   3.017   5.213   5.658
 1812TIP3    H1 5400   3.082   5.275   5.692
 1812TIP3    H2 5401   2.934   5.260   5.663
 1813TIP3   OH2 5402   3.483   3.650   4.274
 1813TIP3    H1 5403   3.564   3.691   4.304
 1813TIP3    H2 5404   3.424   3.654   4.350
 1814TIP3   OH2 5405   0.593   2.988   0.503
 1814TIP3    H1 5406   0.603   2.968   0.596
 1814TIP3    H2 5407   0.655   3.060   0.487
 1815TIP3   OH2 5408   4.858   5.500   3.855
 1815TIP3    H1 5409   4.762   5.493   3.852
 1815TIP3    H2 5410   4.877   5.536   3.941
 1816TIP3   OH2 5411   0.634   0.836   0.383
 1816TIP3    H1 5412   0.672   0.789   0.309
 1816TIP3    H2 5413   0.541   0.814   0.380
 1817TIP3   OH2 5414   3.021   3.582   1.428
 1817TIP3    H1 5415   3.074   3.558   1.504
 1817TIP3    H2 5416   3.064   3.660   1.392
 1818TIP3   OH2 5417   0.374   4.853   1.584
 1818TIP3    H1 5418   0.469   4.854   1.598
 1818TIP3    H2 5419   0.362   4.803   1.504
 1819TIP3   OH2 5420   6.448   2.274   5.526
 1819TIP3    H1 5421   6.354   2.276   5.507
 1819TIP3    H2 5422   6.489   2.293   5.442
 1820TIP3   OH2 5423   6.142   2.313   5.557
 1820TIP3    H1 5424   6.147   2.247   5.488
 1820TIP3    H2 5425   6.073   2.282   5.615
 1821TIP3   OH2 5426   0.376   4.231   2.760
 1821TIP3    H1 5427   0.338   4.300   2.706
 1821TIP3    H2 5428   0.382   4.155   2.702
 1822TIP3   OH2 5429   3.266   5.331   0.602
 1822TIP3    H1 5430   3.304   5.331   0.514
 1822TIP3    H2 5431   3.254   5.424   0.622
 1823TIP3   OH2 5432   4.330   5.153   2.591
 1823TIP3    H1 5433   4.318   5.066   2.629
 1823TIP3    H2 5434   4.372   5.137   2.506
 1824TIP3   OH2 5435   2.737   3.371   4.426
 1824TIP3    H1 5436   2.744   3.309   4.499
 1824TIP3    H2 5437   2.676   3.437   4.457
 1825TIP3   OH2 5438   2.132   0.625   1.939
 1825TIP3    H1 5439   2.161   0.543   1.978
 1825TIP3    H2 5440   2.105   0.601   1.850
 1826TIP3   OH2 5441   3.698   2.189   4.866
 1826TIP3    H1 5442   3.750   2.218   4.791
 1826TIP3    H2 5443   3.735   2.237   4.940
 1827TIP3   OH2 5444   2.118   6.277   4.135
 1827TIP3    H1 5445   2.073   6.292   4.052
 1827TIP3    H2 5446   2.050   6.244   4.194
 1828TIP3   OH2 5447   4.615   4.214   1.288
 1828TIP3    H1 5448   4.565   4.136   1.262
 1828TIP3    H2 5449   4.707   4.189   1.275
 1829TIP3   OH2 5450   7.089   0.494   0.948
 1829TIP3    H1 5451   7.066   0.422   0.889
 1829TIP3    H2 5452   7.175   0.523   0.919
 1830TIP3   OH2 5453   7.080   0.100   2.567
 1830TIP3    H1 5454   7.106   0.158   2.639
 1830TIP3    H2 5455   7.026   0.154   2.510
 1831TIP3   OH2 5456   6.906   5.910   5.245
 1831TIP3    H1 5457   6.851   5.833   5.232
 1831TIP3    H2 5458   6.881   5.969   5.174
 1832TIP3   OH2 5459   0.419   6.061   1.067
 1832TIP3    H1 5460   0.331   6.056   1.030
 1832TIP3    H2 5461   0.464   5.985   1.032
 1833TIP3   OH2 5462   3.701   1.845   2.981
 1833TIP3    H1 5463   3.733   1.927   2.943
 1833TIP3    H2 5464   3.645   1.807   2.914
 1834TIP3   OH2 5465   4.069   4.967   1.811
 1834TIP3    H1 5466   4.113   4.900   1.864
 1834TIP3    H2 5467   4.138   5.031   1.793
 1835TIP3   OH2 5468   3.142   3.061   4.063
 1835TIP3    H1 5469   3.172   3.118   4.134
 1835TIP3    H2 5470   3.076   3.114   4.017
 1836TIP3   OH2 5471   5.679   1.596   0.942
 1836TIP3    H1 5472   5.659   1.689   0.950
 1836TIP3    H2 5473   5.649   1.558   1.024
 1837TIP3   OH2 5474   2.371   5.400   5.385
 1837TIP3    H1 5475   2.361   5.465   5.454
 1837TIP3    H2 5476   2.426   5.443   5.319
 1838TIP3   OH2 5477   7.201   1.313   1.181
 1838TIP3    H1 5478   7.130   1.352   1.231
 1838TIP3    H2 5479   7.264   1.384   1.169
 1839TIP3   OH2 5480   4.681   5.947   5.319
 1839TIP3    H1 5481   4.757   5.980   5.366
 1839TIP3    H2 5482   4.664   6.013   5.252
 1840TIP3   OH2 5483   5.078   2.112   4.349
 1840TIP3    H1 5484   5.117   2.030   4.318
 1840TIP3    H2 5485   5.090   2.173   4.277
 1841TIP3   OH2 5486   6.669   0.572   0.667
 1841TIP3    H1 5487   6.680   0.652   0.717
 1841TIP3    H2 5488   6.583   0.539   0.694
 1842TIP3   OH2 5489   1.050   4.059   3.424
 1842TIP3    H1 5490   1.126   4.005   3.403
 1842TIP3    H2 5491   0.979   4.024   3.369
 1843TIP3   OH2 5492   0.387   2.418   4.026
 1843TIP3    H1 5493   0.468   2.368   4.016
 1843TIP3    H2 5494   0.331   2.364   4.082
 1844TIP3   OH2 5495   1.665   5.169   2.690
 1844TIP3    H1 5496   1.710   5.254   2.692
 1844TIP3    H2 5497   1.572   5.191   2.691
 1845TIP3   OH2 5498   1.605   4.565   4.201
 1845TIP3    H1 5499   1.581   4.595   4.114
 1845TIP3    H2 5500   1.573   4.475   4.206
 1846TIP3   OH2 5501   5.281   4.540   0.696
 1846TIP3    H1 5502   5.356   4.481   0.700
 1846TIP3    H2 5503   5.319   4.627   0.679
 1847TIP3   OH2 5504   0.187   2.708   2.456
 1847TIP3    H1 5505   0.197   2.803   2.465
 1847TIP3    H2 5506   0.144   2.696   2.372
 1848TIP3   OH2 5507   2.974   4.275   0.369
 1848TIP3    H1 5508   2.911   4.218   0.414
 1848TIP3    H2 5509   2.980   4.240   0.281
 1849TIP3   OH2 5510   5.120   0.936   3.853
 1849TIP3    H1 5511   5.074   0.966   3.931
 1849TIP3    H2 5512   5.060   0.954   3.781
 1850TIP3   OH2 5513   2.644   1.877   2.584
 1850TIP3    H1 5514   2.656   1.965   2.547
 1850TIP3    H2 5515   2.556   1.878   2.621
 1851TIP3   OH2 5516   6.099   4.273   3.689
 1851TIP3    H1 5517   6.040   4.260   3.763
 1851TIP3    H2 5518   6.183   4.238   3.719
 1852TIP3   OH2 5519   2.532   1.661   3.650
 1852TIP3    H1 5520   2.470   1.594   3.621
 1852TIP3    H2 5521   2.552   1.638   3.740
 1853TIP3   OH2 5522   5.472   4.996   3.746
 1853TIP3    H1 5523   5.437   5.027   3.830
 1853TIP3    H2 5524   5.433   4.909   3.735
 1854TIP3   OH2 5525   0.642   5.620   4.430
 1854TIP3    H1 5526   0.554   5.652   4.453
 1854TIP3    H2 5527   0.642   5.615   4.335
 1855TIP3   OH2 5528   0.385   6.477   4.829
 1855TIP3    H1 5529   0.448   6.542   4.860
 1855TIP3    H2 5530   0.337   6.451   4.908
 1856TIP3   OH2 5531   5.859   4.267   5.763
 1856TIP3    H1 5532   5.880   4.311   5.681
 1856TIP3    H2 5533   5.777   4.221   5.745
 1857TIP3   OH2 5534   1.869   5.565   0.175
 1857TIP3    H1 5535   1.962   5.586   0.184
 1857TIP3    H2 5536   1.852   5.571   0.081
 1858TIP3   OH2 5537   2.951   5.588   0.602
 1858TIP3    H1 5538   3.033   5.606   0.647
 1858TIP3    H2 5539   2.894   5.661   0.626
 1859TIP3   OH2 5540   0.061   2.385   3.955
 1859TIP3    H1 5541   0.040   2.468   3.911
 1859TIP3    H2 5542  -0.011   2.370   4.015
 1860TIP3   OH2 5543   4.468   5.815   0.517
 1860TIP3    H1 5544   4.400   5.753   0.491
 1860TIP3    H2 5545   4.420   5.892   0.546
 1861TIP3   OH2 5546   0.539   5.488   2.449
 1861TIP3    H1 5547   0.606   5.508   2.514
 1861TIP3    H2 5548   0.578   5.421   2.394
 1862TIP3   OH2 5549   3.342   0.282   3.434
 1862TIP3    H1 5550   3.411   0.251   3.493
 1862TIP3    H2 5551   3.386   0.348   3.380
 1863TIP3   OH2 5552   3.483   1.207   4.917
 1863TIP3    H1 5553   3.460   1.277   4.979
 1863TIP3    H2 5554   3.442   1.234   4.835
 1864TIP3   OH2 5555   6.432   1.394   0.474
 1864TIP3    H1 5556   6.518   1.379   0.514
 1864TIP3    H2 5557   6.452   1.429   0.387
 1865TIP3   OH2 5558   3.623   4.446   3.921
 1865TIP3    H1 5559   3.532   4.426   3.940
 1865TIP3    H2 5560   3.638   4.532   3.960
 1866TIP3   OH2 5561   5.493   1.629   4.930
 1866TIP3    H1 5562   5.568   1.571   4.946
 1866TIP3    H2 5563   5.513   1.671   4.846
 1867TIP3   OH2 5564   3.518   6.531   2.915
 1867TIP3    H1 5565   3.600   6.553   2.871
 1867TIP3    H2 5566   3.546   6.487   2.996
 1868TIP3   OH2 5567   1.828   3.521   3.016
 1868TIP3    H1 5568   1.805   3.460   2.946
 1868TIP3    H2 5569   1.806   3.607   2.980
 1869TIP3   OH2 5570   2.330   0.599   2.695
 1869TIP3    H1 5571   2.361   0.689   2.706
 1869TIP3    H2 5572   2.253   0.594   2.752
 1870TIP3   OH2 5573   1.824   5.659   1.427
 1870TIP3    H1 5574   1.888   5.636   1.494
 1870TIP3    H2 5575   1.741   5.665   1.475
 1871TIP3   OH2 5576   3.968   2.350   3.734
 1871TIP3    H1 5577   3.944   2.441   3.716
 1871TIP3    H2 5578   3.887   2.301   3.726
 1872TIP3   OH2 5579   6.564   1.165   1.913
 1872TIP3    H1 5580   6.567   1.070   1.922
 1872TIP3    H2 5581   6.481   1.190   1.955
 1873TIP3   OH2 5582   3.919   1.963   5.064
 1873TIP3    H1 5583   3.969   1.885   5.043
 1873TIP3    H2 5584   3.982   2.023   5.104
 1874TIP3   OH2 5585   2.008   4.352   0.919
 1874TIP3    H1 5586   1.955   4.361   0.840
 1874TIP3    H2 5587   2.000   4.437   0.962
 1875TIP3   OH2 5588   3.010   5.076   3.493
 1875TIP3    H1 5589   3.058   5.094   3.413
 1875TIP3    H2 5590   3.043   5.140   3.556
 1876TIP3   OH2 5591   5.315   3.163   1.498
 1876TIP3    H1 5592   5.328   3.159   1.593
 1876TIP3    H2 5593   5.237   3.217   1.486
 1877TIP3   OH2 5594   7.080   2.289   2.485
 1877TIP3    H1 5595   7.172   2.297   2.510
 1877TIP3    H2 5596   7.043   2.376   2.500
 1878TIP3   OH2 5597   6.748   4.273   2.259
 1878TIP3    H1 5598   6.809   4.285   2.331
 1878TIP3    H2 5599   6.802   4.273   2.180
 1879TIP3   OH2 5600   1.836   5.041   5.612
 1879TIP3    H1 5601   1.840   4.947   5.595
 1879TIP3    H2 5602   1.742   5.060   5.616
 1880TIP3   OH2 5603   1.763   0.827   3.110
 1880TIP3    H1 5604   1.834   0.777   3.150
 1880TIP3    H2 5605   1.734   0.887   3.178
 1881TIP3   OH2 5606   6.121   6.338   1.946
 1881TIP3    H1 5607   6.071   6.393   2.007
 1881TIP3    H2 5608   6.204   6.384   1.934
 1882TIP3   OH2 5609   3.185   0.694   4.545
 1882TIP3    H1 5610   3.119   0.675   4.611
 1882TIP3    H2 5611   3.267   0.664   4.584
 1883TIP3   OH2 5612   4.765   2.804   2.757
 1883TIP3    H1 5613   4.833   2.867   2.736
 1883TIP3    H2 5614   4.766   2.799   2.853
 1884TIP3   OH2 5615   6.063   4.698   1.176
 1884TIP3    H1 5616   6.009   4.747   1.113
 1884TIP3    H2 5617   6.152   4.729   1.161
 1885TIP3   OH2 5618   3.156   1.940   0.722
 1885TIP3    H1 5619   3.228   1.878   0.713
 1885TIP3    H2 5620   3.117   1.945   0.635
 1886TIP3   OH2 5621   4.657   0.670   0.537
 1886TIP3    H1 5622   4.583   0.620   0.501
 1886TIP3    H2 5623   4.687   0.619   0.612
 1887TIP3   OH2 5624   1.683   3.698   4.435
 1887TIP3    H1 5625   1.754   3.688   4.372
 1887TIP3    H2 5626   1.726   3.731   4.514
 1888TIP3   OH2 5627   4.001   0.680   4.913
 1888TIP3    H1 5628   3.984   0.659   5.005
 1888TIP3    H2 5629   4.096   0.689   4.907
 1889TIP3   OH2 5630   7.136   2.202   0.541
 1889TIP3    H1 5631   7.173   2.241   0.462
 1889TIP3    H2 5632   7.144   2.269   0.608
 1890TIP3   OH2 5633   3.430   4.241   4.684
 1890TIP3    H1 5634   3.495   4.311   4.687
 1890TIP3    H2 5635   3.363   4.268   4.747
 1891TIP3   OH2 5636   4.246   1.009   2.903
 1891TIP3    H1 5637   4.242   0.984   2.811
 1891TIP3    H2 5638   4.161   1.047   2.921
 1892TIP3   OH2 5639   4.234   2.115   2.211
 1892TIP3    H1 5640   4.325   2.139   2.192
 1892TIP3    H2 5641   4.236   2.083   2.301
 1893TIP3   OH2 5642   0.146   4.564   3.089
 1893TIP3    H1 5643   0.193   4.583   3.170
 1893TIP3    H2 5644   0.054   4.579   3.110
 1894TIP3   OH2 5645   0.683   1.461   4.674
 1894TIP3    H1 5646   0.706   1.426   4.588
 1894TIP3    H2 5647   0.587   1.466   4.673
 1895TIP3   OH2 5648   1.938   5.450   5.575
 1895TIP3    H1 5649   1.957   5.393   5.650
 1895TIP3    H2 5650   1.844   5.468   5.583
 1896TIP3   OH2 5651   6.771   1.964   2.836
 1896TIP3    H1 5652   6.709   1.979   2.907
 1896TIP3    H2 5653   6.736   2.016   2.763
 1897TIP3   OH2 5654   4.381   4.957   3.926
 1897TIP3    H1 5655   4.306   5.017   3.922
 1897TIP3    H2 5656   4.457   5.014   3.939
 1898TIP3   OH2 5657   6.652   0.315   1.338
 1898TIP3    H1 5658   6.634   0.395   1.289
 1898TIP3    H2 5659   6.597   0.249   1.296
 1899TIP3   OH2 5660   4.692   1.799   1.091
 1899TIP3    H1 5661   4.657   1.862   1.027
 1899TIP3    H2 5662   4.622   1.792   1.157
 1900TIP3   OH2 5663   2.256   2.612   4.860
 1900TIP3    H1 5664   2.324   2.570   4.807
 1900TIP3    H2 5665   2.174   2.591   4.815
 1901TIP3   OH2 5666   4.537   2.350   2.784
 1901TIP3    H1 5667   4.577   2.381   2.865
 1901TIP3    H2 5668   4.466   2.412   2.767
 1902TIP3   OH2 5669   1.920   3.914   5.288
 1902TIP3    H1 5670   1.865   3.989   5.312
 1902TIP3    H2 5671   1.899   3.898   5.196
 1903TIP3   OH2 5672   0.419   5.236   3.071
 1903TIP3    H1 5673   0.391   5.323   3.100
 1903TIP3    H2 5674   0.457   5.250   2.985
 1904TIP3   OH2 5675   3.690   0.819   0.870
 1904TIP3    H1 5676   3.721   0.768   0.795
 1904TIP3    H2 5677   3.595   0.804   0.871
 1905TIP3   OH2 5678   1.370   3.385   2.443
 1905TIP3    H1 5679   1.403   3.418   2.359
 1905TIP3    H2 5680   1.327   3.302   2.420
 1906TIP3   OH2 5681   6.034   3.944   1.824
 1906TIP3    H1 5682   6.111   3.921   1.877
 1906TIP3    H2 5683   5.997   4.020   1.868
 1907TIP3   OH2 5684   4.275   4.217   1.466
 1907TIP3    H1 5685   4.303   4.304   1.495
 1907TIP3    H2 5686   4.293   4.216   1.372
 1908TIP3   OH2 5687   5.957   4.787   5.830
 1908TIP3    H1 5688   6.046   4.783   5.794
 1908TIP3    H2 5689   5.901   4.800   5.753
 1909TIP3   OH2 5690   3.936   3.502   1.896
 1909TIP3    H1 5691   3.884   3.570   1.854
 1909TIP3    H2 5692   3.879   3.469   1.966
 1910TIP3   OH2 5693   5.324   4.814   4.686
 1910TIP3    H1 5694   5.272   4.851   4.614
 1910TIP3    H2 5695   5.318   4.719   4.674
 1911TIP3   OH2 5696   6.581   1.468   5.518
 1911TIP3    H1 5697   6.549   1.506   5.437
 1911TIP3    H2 5698   6.642   1.533   5.553
 1912TIP3   OH2 5699   2.304   5.201   5.070
 1912TIP3    H1 5700   2.228   5.163   5.115
 1912TIP3    H2 5701   2.286   5.295   5.068
 1913TIP3   OH2 5702   2.604   1.770   5.632
 1913TIP3    H1 5703   2.681   1.807   5.587
 1913TIP3    H2 5704   2.610   1.805   5.721
 1914TIP3   OH2 5705   2.822   5.078   4.632
 1914TIP3    H1 5706   2.797   5.170   4.620
 1914TIP3    H2 5707   2.764   5.029   4.574
 1915TIP3   OH2 5708   5.462   3.178   0.625
 1915TIP3    H1 5709   5.544   3.210   0.663
 1915TIP3    H2 5710   5.443   3.238   0.553
 1916TIP3   OH2 5711   3.523   5.600   5.807
 1916TIP3    H1 5712   3.589   5.610   5.739
 1916TIP3    H2 5713   3.574   5.587   5.887
 1917TIP3   OH2 5714   5.873   5.008   1.884
 1917TIP3    H1 5715   5.787   5.004   1.843
 1917TIP3    H2 5716   5.890   4.919   1.913
 1918TIP3   OH2 5717   0.351   0.817   0.076
 1918TIP3    H1 5718   0.370   0.756   0.005
 1918TIP3    H2 5719   0.335   0.901   0.033
 1919TIP3   OH2 5720   3.710   5.911   3.545
 1919TIP3    H1 5721   3.669   5.953   3.621
 1919TIP3    H2 5722   3.789   5.963   3.530
 1920TIP3   OH2 5723   3.245   5.351   4.110
 1920TIP3    H1 5724   3.181   5.320   4.046
 1920TIP3    H2 5725   3.242   5.446   4.103
 1921TIP3   OH2 5726   1.210   5.031   3.397
 1921TIP3    H1 5727   1.237   5.062   3.311
 1921TIP3    H2 5728   1.123   5.070   3.410
 1922TIP3   OH2 5729   5.103   0.782   5.577
 1922TIP3    H1 5730   5.173   0.734   5.533
 1922TIP3    H2 5731   5.088   0.734   5.658
 1923TIP3   OH2 5732   1.801   5.293   2.273
 1923TIP3    H1 5733   1.714   5.321   2.302
 1923TIP3    H2 5734   1.800   5.198   2.282
 1924TIP3   OH2 5735   2.302   2.087   4.077
 1924TIP3    H1 5736   2.315   2.161   4.018
 1924TIP3    H2 5737   2.389   2.072   4.115
 1925TIP3   OH2 5738   0.097   1.891   0.849
 1925TIP3    H1 5739   0.077   1.798   0.836
 1925TIP3    H2 5740   0.057   1.913   0.933
 1926TIP3   OH2 5741   5.263   3.624   2.340
 1926TIP3    H1 5742   5.278   3.627   2.245
 1926TIP3    H2 5743   5.188   3.682   2.354
 1927TIP3   OH2 5744   6.736   5.164   0.716
 1927TIP3    H1 5745   6.655   5.207   0.690
 1927TIP3    H2 5746   6.717   5.071   0.715
 1928TIP3   OH2 5747   0.421   3.125   5.697
 1928TIP3    H1 5748   0.425   3.071   5.776
 1928TIP3    H2 5749   0.341   3.098   5.653
 1929TIP3   OH2 5750   5.475   5.253   2.792
 1929TIP3    H1 5751   5.476   5.275   2.885
 1929TIP3    H2 5752   5.564   5.227   2.772
 1930TIP3   OH2 5753   3.867   5.216   5.002
 1930TIP3    H1 5754   3.846   5.224   4.909
 1930TIP3    H2 5755   3.946   5.269   5.014
 1931TIP3   OH2 5756   1.042   3.054   4.333
 1931TIP3    H1 5757   1.076   3.133   4.375
 1931TIP3    H2 5758   1.046   3.074   4.239
 1932TIP3   OH2 5759   4.126   0.098   0.016
 1932TIP3    H1 5760   4.046   0.069   0.060
 1932TIP3    H2 5761   4.193   0.097   0.084
 1933TIP3   OH2 5762   6.735   0.274   3.110
 1933TIP3    H1 5763   6.739   0.224   3.191
 1933TIP3    H2 5764   6.701   0.360   3.137
 1934TIP3   OH2 5765   1.211   6.518   3.057
 1934TIP3    H1 5766   1.286   6.516   3.118
 1934TIP3    H2 5767   1.215   6.434   3.012
 1935TIP3   OH2 5768   4.449   1.681   4.842
 1935TIP3    H1 5769   4.408   1.763   4.872
 1935TIP3    H2 5770   4.462   1.631   4.922
 1936TIP3   OH2 5771   0.441   4.790   4.423
 1936TIP3    H1 5772   0.414   4.881   4.437
 1936TIP3    H2 5773   0.537   4.794   4.421
 1937TIP3   OH2 5774   3.180   5.958   2.579
 1937TIP3    H1 5775   3.176   5.991   2.668
 1937TIP3    H2 5776   3.250   6.008   2.538
 1938TIP3   OH2 5777   5.595   6.467   5.774
 1938TIP3    H1 5778   5.685   6.484   5.802
 1938TIP3    H2 5779   5.579   6.529   5.703
 1939TIP3   OH2 5780   4.299   5.553   5.174
 1939TIP3    H1 5781   4.215   5.599   5.182
 1939TIP3    H2 5782   4.364   5.617   5.205
 1940TIP3   OH2 5783   1.025   3.113   3.785
 1940TIP3    H1 5784   1.090   3.175   3.752
 1940TIP3    H2 5785   0.944   3.137   3.740
 1941TIP3   OH2 5786   2.422   4.393   5.612
 1941TIP3    H1 5787   2.394   4.353   5.530
 1941TIP3    H2 5788   2.459   4.477   5.586
 1942TIP3   OH2 5789   3.759   3.126   0.208
 1942TIP3    H1 5790   3.834   3.096   0.259
 1942TIP3    H2 5791   3.788   3.210   0.171
 1943TIP3   OH2 5792   2.880   5.031   0.790
 1943TIP3    H1 5793   2.963   5.058   0.752
 1943TIP3    H2 5794   2.885   5.059   0.882
 1944TIP3   OH2 5795   0.481   0.511   3.721
 1944TIP3    H1 5796   0.468   0.517   3.626
 1944TIP3    H2 5797   0.540   0.436   3.732
 1945TIP3   OH2 5798   4.599   1.289   5.139
 1945TIP3    H1 5799   4.660   1.292   5.065
 1945TIP3    H2 5800   4.577   1.196   5.147
 1946TIP3   OH2 5801   2.870   3.553   2.397
 1946TIP3    H1 5802   2.879   3.458   2.405
 1946TIP3    H2 5803   2.801   3.576   2.459
 1947TIP3   OH2 5804   5.338   4.694   5.746
 1947TIP3    H1 5805   5.341   4.753   5.670
 1947TIP3    H2 5806   5.429   4.690   5.776
 1948TIP3   OH2 5807   0.894   4.445   5.542
 1948TIP3    H1 5808   0.977   4.486   5.520
 1948TIP3    H2 5809   0.892   4.442   5.637
 1949TIP3   OH2 5810   2.996   3.091   4.499
 1949TIP3    H1 5811   2.916   3.099   4.552
 1949TIP3    H2 5812   3.003   2.997   4.482
 1950TIP3   OH2 5813   0.648   1.880   4.887
 1950TIP3    H1 5814   0.586   1.861   4.816
 1950TIP3    H2 5815   0.616   1.828   4.961
 1951TIP3   OH2 5816   0.964   1.845   2.251
 1951TIP3    H1 5817   0.888   1.895   2.280
 1951TIP3    H2 5818   0.931   1.757   2.238
 1952TIP3   OH2 5819   6.316   3.133   3.111
 1952TIP3    H1 5820   6.225   3.149   3.139
 1952TIP3    H2 5821   6.318   3.162   3.019
 1953TIP3   OH2 5822   4.637   3.311   4.241
 1953TIP3    H1 5823   4.696   3.257   4.188
 1953TIP3    H2 5824   4.553   3.266   4.238
 1954TIP3   OH2 5825   2.540   1.119   1.247
 1954TIP3    H1 5826   2.455   1.119   1.202
 1954TIP3    H2 5827   2.526   1.172   1.325
 1955TIP3   OH2 5828   2.639   3.427   1.807
 1955TIP3    H1 5829   2.681   3.470   1.732
 1955TIP3    H2 5830   2.678   3.469   1.883
 1956TIP3   OH2 5831   5.987   5.066   4.396
 1956TIP3    H1 5832   5.968   5.112   4.477
 1956TIP3    H2 5833   6.057   5.005   4.419
 1957TIP3   OH2 5834   6.582   0.646   5.025
 1957TIP3    H1 5835   6.567   0.703   5.100
 1957TIP3    H2 5836   6.554   0.698   4.949
 1958TIP3   OH2 5837   1.223   6.185   4.426
 1958TIP3    H1 5838   1.295   6.127   4.402
 1958TIP3    H2 5839   1.162   6.130   4.475
 1959TIP3   OH2 5840   2.328   0.821   2.423
 1959TIP3    H1 5841   2.271   0.815   2.500
 1959TIP3    H2 5842   2.300   0.902   2.380
 1960TIP3   OH2 5843   6.832   1.152   1.872
 1960TIP3    H1 5844   6.813   1.127   1.781
 1960TIP3    H2 5845   6.746   1.171   1.910
 1961TIP3   OH2 5846   2.705   4.808   3.011
 1961TIP3    H1 5847   2.783   4.799   2.955
 1961TIP3    H2 5848   2.683   4.901   3.007
 1962TIP3   OH2 5849   1.751   1.092   3.690
 1962TIP3    H1 5850   1.716   1.173   3.726
 1962TIP3    H2 5851   1.674   1.044   3.658
 1963TIP3   OH2 5852   2.565   4.070   3.828
 1963TIP3    H1 5853   2.501   4.131   3.791
 1963TIP3    H2 5854   2.632   4.127   3.867
 1964TIP3   OH2 5855   1.300   3.320   1.390
 1964TIP3    H1 5856   1.380   3.302   1.340
 1964TIP3    H2 5857   1.332   3.350   1.476
 1965TIP3   OH2 5858   6.091   1.220   4.622
 1965TIP3    H1 5859   6.093   1.146   4.682
 1965TIP3    H2 5860   6.034   1.284   4.664
 1966TIP3   OH2 5861   1.324   3.140   5.208
 1966TIP3    H1 5862   1.262   3.091   5.262
 1966TIP3    H2 5863   1.408   3.097   5.223
 1967TIP3   OH2 5864   3.228   1.210   1.369
 1967TIP3    H1 5865   3.213   1.137   1.309
 1967TIP3    H2 5866   3.318   1.199   1.399
 1968TIP3   OH2 5867   6.235   3.015   4.699
 1968TIP3    H1 5868   6.296   3.021   4.773
 1968TIP3    H2 5869   6.201   2.926   4.703
 1969TIP3   OH2 5870   1.146   4.686   4.702
 1969TIP3    H1 5871   1.241   4.680   4.710
 1969TIP3    H2 5872   1.120   4.603   4.663
 1970TIP3   OH2 5873   1.247  -0.023   2.227
 1970TIP3    H1 5874   1.319  -0.076   2.261
 1970TIP3    H2 5875   1.283   0.065   2.221
 1971TIP3   OH2 5876   2.899   0.737   3.844
 1971TIP3    H1 5877   2.982   0.692   3.862
 1971TIP3    H2 5878   2.920   0.830   3.854
 1972TIP3   OH2 5879   1.232   3.555   1.642
 1972TIP3    H1 5880   1.303   3.615   1.666
 1972TIP3    H2 5881   1.232   3.555   1.547
 1973TIP3   OH2 5882   0.569   3.854   2.288
 1973TIP3    H1 5883   0.578   3.949   2.284
 1973TIP3    H2 5884   0.659   3.821   2.293
 1974TIP3   OH2 5885   6.977   1.460   0.915
 1974TIP3    H1 5886   6.920   1.452   0.838
 1974TIP3    H2 5887   7.057   1.414   0.890
 1975TIP3   OH2 5888   3.327   4.676   0.178
 1975TIP3    H1 5889   3.384   4.708   0.248
 1975TIP3    H2 5890   3.255   4.740   0.175
 1976TIP3   OH2 5891   4.370   2.187   2.914
 1976TIP3    H1 5892   4.443   2.245   2.890
 1976TIP3    H2 5893   4.376   2.114   2.852
 1977TIP3   OH2 5894   4.274   1.515   3.768
 1977TIP3    H1 5895   4.237   1.528   3.855
 1977TIP3    H2 5896   4.357   1.469   3.784
 1978TIP3   OH2 5897   2.782   4.663   1.563
 1978TIP3    H1 5898   2.845   4.670   1.491
 1978TIP3    H2 5899   2.815   4.591   1.617
 1979TIP3   OH2 5900   2.484   4.786   4.528
 1979TIP3    H1 5901   2.391   4.805   4.535
 1979TIP3    H2 5902   2.505   4.800   4.436
 1980TIP3   OH2 5903   6.063   1.920   3.279
 1980TIP3    H1 5904   6.150   1.949   3.251
 1980TIP3    H2 5905   6.003   1.959   3.215
 1981TIP3   OH2 5906   2.960   3.044   2.424
 1981TIP3    H1 5907   2.986   2.957   2.393
 1981TIP3    H2 5908   3.007   3.105   2.368
 1982TIP3   OH2 5909   4.064   2.251   2.871
 1982TIP3    H1 5910   4.138   2.195   2.895
 1982TIP3    H2 5911   4.063   2.320   2.937
 1983TIP3   OH2 5912   0.088   6.361   4.490
 1983TIP3    H1 5913   0.067   6.344   4.398
 1983TIP3    H2 5914   0.166   6.416   4.487
 1984TIP3   OH2 5915   5.345   3.606   2.691
 1984TIP3    H1 5916   5.397   3.632   2.615
 1984TIP3    H2 5917   5.306   3.522   2.666
 1985TIP3   OH2 5918   7.002   3.727   3.360
 1985TIP3    H1 5919   6.973   3.802   3.411
 1985TIP3    H2 5920   7.000   3.758   3.269
 1986TIP3   OH2 5921   0.606   2.333   5.055
 1986TIP3    H1 5922   0.578   2.265   4.994
 1986TIP3    H2 5923   0.533   2.395   5.058
 1987TIP3   OH2 5924   3.905   5.567   2.471
 1987TIP3    H1 5925   3.913   5.486   2.521
 1987TIP3    H2 5926   3.987   5.614   2.487
 1988TIP3   OH2 5927   6.402   5.260   1.932
 1988TIP3    H1 5928   6.365   5.187   1.882
 1988TIP3    H2 5929   6.493   5.265   1.902
 1989TIP3   OH2 5930   3.226   5.737   3.058
 1989TIP3    H1 5931   3.227   5.832   3.051
 1989TIP3    H2 5932   3.315   5.713   3.084
 1990TIP3   OH2 5933   4.343   4.025   1.825
 1990TIP3    H1 5934   4.272   4.080   1.793
 1990TIP3    H2 5935   4.368   3.971   1.750
 1991TIP3   OH2 5936   1.669   5.161   5.081
 1991TIP3    H1 5937   1.612   5.153   5.004
 1991TIP3    H2 5938   1.682   5.070   5.110
 1992TIP3   OH2 5939   2.035   2.849   1.338
 1992TIP3    H1 5940   1.949   2.890   1.323
 1992TIP3    H2 5941   2.088   2.875   1.263
 1993TIP3   OH2 5942   0.179   4.563   3.798
 1993TIP3    H1 5943   0.143   4.547   3.711
 1993TIP3    H2 5944   0.211   4.478   3.827
 1994TIP3   OH2 5945   6.962   1.109   4.351
 1994TIP3    H1 5946   6.973   1.101   4.445
 1994TIP3    H2 5947   6.869   1.130   4.339
 1995TIP3   OH2 5948   4.957   4.659   4.161
 1995TIP3    H1 5949   4.969   4.596   4.091
 1995TIP3    H2 5950   4.872   4.638   4.199
 1996TIP3   OH2 5951   2.561   5.988   5.486
 1996TIP3    H1 5952   2.646   6.021   5.455
 1996TIP3    H2 5953   2.512   6.067   5.510
 1997TIP3   OH2 5954   0.693   1.156   1.247
 1997TIP3    H1 5955   0.730   1.069   1.262
 1997TIP3    H2 5956   0.733   1.185   1.165
 1998TIP3   OH2 5957   2.808   0.445   4.233
 1998TIP3    H1 5958   2.742   0.381   4.260
 1998TIP3    H2 5959   2.812   0.507   4.306
 1999TIP3   OH2 5960   4.060   1.821   1.365
 1999TIP3    H1 5961   4.142   1.808   1.413
 1999TIP3    H2 5962   4.048   1.916   1.364
 2000TIP3   OH2 5963   2.516   5.810   1.759
 2000TIP3    H1 5964   2.573   5.832   1.685
 2000TIP3    H2 5965   2.574   5.813   1.835
 2001TIP3   OH2 5966   1.401   2.358   2.232
 2001TIP3    H1 5967   1.490   2.395   2.233
 2001TIP3    H2 5968   1.355   2.407   2.300
 2002TIP3   OH2 5969   2.425   1.033   0.257
 2002TIP3    H1 5970   2.336   1.061   0.277
 2002TIP3    H2 5971   2.469   1.112   0.227
 2003TIP3   OH2 5972   2.483   6.021   4.068
 2003TIP3    H1 5973   2.411   5.960   4.087
 2003TIP3    H2 5974   2.559   5.964   4.052
 2004TIP3   OH2 5975   6.092   1.297   1.367
 2004TIP3    H1 5976   6.026   1.228   1.367
 2004TIP3    H2 5977   6.072   1.349   1.289
 2005TIP3   OH2 5978   7.090   0.872   3.069
 2005TIP3    H1 5979   7.068   0.956   3.109
 2005TIP3    H2 5980   7.076   0.885   2.975
 2006TIP3   OH2 5981   6.622   4.079   1.481
 2006TIP3    H1 5982   6.675   4.111   1.553
 2006TIP3    H2 5983   6.646   4.135   1.407
 2007TIP3   OH2 5984   6.833   2.150   2.534
 2007TIP3    H1 5985   6.903   2.209   2.502
 2007TIP3    H2 5986   6.795   2.197   2.608
 2008TIP3   OH2 5987   5.765   5.849   4.618
 2008TIP3    H1 5988   5.800   5.938   4.614
 2008TIP3    H2 5989   5.843   5.793   4.614
 2009TIP3   OH2 5990   4.908   6.308   2.208
 2009TIP3    H1 5991   4.862   6.226   2.228
 2009TIP3    H2 5992   4.917   6.352   2.293
 2010TIP3   OH2 5993   4.165   0.081   5.449
 2010TIP3    H1 5994   4.198   0.107   5.363
 2010TIP3    H2 5995   4.224   0.012   5.479
 2011TIP3   OH2 5996   3.338   6.512   4.240
 2011TIP3    H1 5997   3.425   6.533   4.273
 2011TIP3    H2 5998   3.351   6.492   4.148
 2012TIP3   OH2 5999   4.925   6.538   4.557
 2012TIP3    H1 6000   4.916   6.589   4.638
 2012TIP3    H2 6001   4.989   6.471   4.579
 2013TIP3   OH2 6002   2.014   3.955   2.431
 2013TIP3    H1 6003   2.074   4.006   2.486
 2013TIP3    H2 6004   2.029   3.988   2.342
 2014TIP3   OH2 6005   2.141   0.132   1.766
 2014TIP3    H1 6006   2.048   0.138   1.745
 2014TIP3    H2 6007   2.169   0.223   1.777
 2015TIP3   OH2 6008   1.878   0.697   1.231
 2015TIP3    H1 6009   1.813   0.674   1.297
 2015TIP3    H2 6010   1.862   0.636   1.159
 2016TIP3   OH2 6011   3.979   0.382   2.562
 2016TIP3    H1 6012   4.055   0.420   2.518
 2016TIP3    H2 6013   3.955   0.446   2.629
 2017TIP3   OH2 6014   7.043   1.313   2.636
 2017TIP3    H1 6015   7.051   1.408   2.624
 2017TIP3    H2 6016   6.971   1.288   2.578
 2018TIP3   OH2 6017   0.997   3.101   1.869
 2018TIP3    H1 6018   0.959   3.102   1.781
 2018TIP3    H2 6019   0.931   3.141   1.925
 2019TIP3   OH2 6020   3.836   5.987   0.396
 2019TIP3    H1 6021   3.864   6.001   0.487
 2019TIP3    H2 6022   3.887   5.911   0.367
 2020TIP3   OH2 6023   2.237   4.386   2.653
 2020TIP3    H1 6024   2.322   4.345   2.638
 2020TIP3    H2 6025   2.249   4.439   2.732
 2021TIP3   OH2 6026   6.416   5.435   0.702
 2021TIP3    H1 6027   6.403   5.497   0.631
 2021TIP3    H2 6028   6.328   5.412   0.731
 2022TIP3   OH2 6029   3.371   2.517   1.910
 2022TIP3    H1 6030   3.312   2.533   1.837
 2022TIP3    H2 6031   3.445   2.471   1.871
 2023TIP3   OH2 6032   5.548   0.320   1.519
 2023TIP3    H1 6033   5.463   0.338   1.559
 2023TIP3    H2 6034   5.543   0.228   1.493
 2024TIP3   OH2 6035   6.404   1.928   5.377
 2024TIP3    H1 6036   6.419   1.975   5.295
 2024TIP3    H2 6037   6.487   1.933   5.424
 2025TIP3   OH2 6038   0.754   3.381   4.632
 2025TIP3    H1 6039   0.825   3.339   4.681
 2025TIP3    H2 6040   0.715   3.442   4.695
 2026TIP3   OH2 6041   3.157   6.252   2.572
 2026TIP3    H1 6042   3.114   6.324   2.527
 2026TIP3    H2 6043   3.096   6.226   2.641
 2027TIP3   OH2 6044   3.004   4.163   0.903
 2027TIP3    H1 6045   2.953   4.243   0.910
 2027TIP3    H2 6046   2.939   4.092   0.909
 2028TIP3   OH2 6047   6.442   6.007   3.041
 2028TIP3    H1 6048   6.400   5.946   2.980
 2028TIP3    H2 6049   6.512   5.956   3.082
 2029TIP3   OH2 6050   6.118   5.926   2.030
 2029TIP3    H1 6051   6.170   5.861   1.983
 2029TIP3    H2 6052   6.109   5.889   2.118
 2030TIP3   OH2 6053   2.394   1.671   0.032
 2030TIP3    H1 6054   2.452   1.678  -0.044
 2030TIP3    H2 6055   2.378   1.761   0.059
 2031TIP3   OH2 6056   7.054   2.004   2.836
 2031TIP3    H1 6057   7.079   1.988   2.927
 2031TIP3    H2 6058   6.965   1.970   2.829
 2032TIP3   OH2 6059   5.903   3.445  -0.031
 2032TIP3    H1 6060   5.831   3.504  -0.008
 2032TIP3    H2 6061   5.930   3.406   0.052
 2033TIP3   OH2 6062   6.557   2.466   1.845
 2033TIP3    H1 6063   6.581   2.457   1.937
 2033TIP3    H2 6064   6.538   2.377   1.816
 2034TIP3   OH2 6065   1.459   3.927   4.483
 2034TIP3    H1 6066   1.378   3.943   4.532
 2034TIP3    H2 6067   1.455   3.989   4.410
 2035TIP3   OH2 6068   6.149   2.305   2.943
 2035TIP3    H1 6069   6.101   2.349   2.872
 2035TIP3    H2 6070   6.230   2.356   2.952
 2036TIP3   OH2 6071   6.986   0.809   2.559
 2036TIP3    H1 6072   7.014   0.862   2.485
 2036TIP3    H2 6073   6.897   0.782   2.538
 2037TIP3   OH2 6074   2.481   1.522   5.629
 2037TIP3    H1 6075   2.555   1.574   5.599
 2037TIP3    H2 6076   2.432   1.580   5.686
 2038TIP3   OH2 6077   1.594   4.880   1.064
 2038TIP3    H1 6078   1.626   4.881   0.974
 2038TIP3    H2 6079   1.514   4.828   1.061
 2039TIP3   OH2 6080   2.488   4.881   0.311
 2039TIP3    H1 6081   2.572   4.886   0.266
 2039TIP3    H2 6082   2.489   4.953   0.373
 2040TIP3   OH2 6083   0.687   1.503   1.251
 2040TIP3    H1 6084   0.673   1.565   1.323
 2040TIP3    H2 6085   0.611   1.445   1.254
 2041TIP3   OH2 6086   7.038   3.592   5.194
 2041TIP3    H1 6087   7.089   3.530   5.141
 2041TIP3    H2 6088   7.091   3.671   5.196
 2042TIP3   OH2 6089   1.301   6.200   2.393
 2042TIP3    H1 6090   1.300   6.176   2.300
 2042TIP3    H2 6091   1.279   6.118   2.439
 2043TIP3   OH2 6092   7.025   1.715   4.757
 2043TIP3    H1 6093   7.050   1.627   4.731
 2043TIP3    H2 6094   6.944   1.732   4.708
 2044TIP3   OH2 6095   5.837   1.375   1.174
 2044TIP3    H1 6096   5.881   1.290   1.168
 2044TIP3    H2 6097   5.766   1.361   1.236
 2045TIP3   OH2 6098   0.419   3.910   0.013
 2045TIP3    H1 6099   0.484   3.971   0.049
 2045TIP3    H2 6100   0.362   3.889   0.087
 2046TIP3   OH2 6101   5.278   5.007   0.566
 2046TIP3    H1 6102   5.251   5.095   0.593
 2046TIP3    H2 6103   5.363   4.995   0.608
 2047TIP3   OH2 6104   3.628   0.248   3.871
 2047TIP3    H1 6105   3.593   0.278   3.788
 2047TIP3    H2 6106   3.656   0.327   3.917
 2048TIP3   OH2 6107   2.118   0.513   3.813
 2048TIP3    H1 6108   2.141   0.570   3.886
 2048TIP3    H2 6109   2.025   0.528   3.799
 2049TIP3   OH2 6110   6.580   4.784   5.871
 2049TIP3    H1 6111   6.509   4.722   5.856
 2049TIP3    H2 6112   6.603   4.773   5.963
 2050TIP3   OH2 6113   0.002   2.525   5.707
 2050TIP3    H1 6114   0.018   2.616   5.685
 2050TIP3    H2 6115   0.067   2.505   5.775
 2051TIP3   OH2 6116   1.815   0.708   3.596
 2051TIP3    H1 6117   1.721   0.693   3.586
 2051TIP3    H2 6118   1.838   0.660   3.676
 2052TIP3   OH2 6119   6.438   5.837   4.894
 2052TIP3    H1 6120   6.482   5.920   4.877
 2052TIP3    H2 6121   6.445   5.788   4.812
 2053TIP3   OH2 6122   5.769   5.987   3.797
 2053TIP3    H1 6123   5.736   5.926   3.731
 2053TIP3    H2 6124   5.855   6.013   3.764
 2054TIP3   OH2 6125   4.476   0.431   4.070
 2054TIP3    H1 6126   4.518   0.517   4.064
 2054TIP3    H2 6127   4.532   0.372   4.020
 2055TIP3   OH2 6128   1.319   3.115  -0.002
 2055TIP3    H1 6129   1.357   3.143   0.081
 2055TIP3    H2 6130   1.392   3.076  -0.050
 2056TIP3   OH2 6131   2.520   5.437   3.365
 2056TIP3    H1 6132   2.488   5.505   3.305
 2056TIP3    H2 6133   2.440   5.399   3.402
 2057TIP3   OH2 6134   3.344   2.542   5.856
 2057TIP3    H1 6135   3.360   2.570   5.947
 2057TIP3    H2 6136   3.249   2.538   5.849
 2058TIP3   OH2 6137   0.436   0.205   5.594
 2058TIP3    H1 6138   0.361   0.165   5.639
 2058TIP3    H2 6139   0.400   0.284   5.552
 2059TIP3   OH2 6140   2.403   0.190   2.645
 2059TIP3    H1 6141   2.426   0.102   2.676
 2059TIP3    H2 6142   2.463   0.248   2.691
 2060TIP3   OH2 6143   2.908   4.007   3.076
 2060TIP3    H1 6144   2.925   3.923   3.032
 2060TIP3    H2 6145   2.864   4.060   3.010
 2061TIP3   OH2 6146   4.789   2.776   5.565
 2061TIP3    H1 6147   4.821   2.850   5.616
 2061TIP3    H2 6148   4.726   2.733   5.622
 2062TIP3   OH2 6149   1.992   6.370   3.901
 2062TIP3    H1 6150   1.957   6.338   3.818
 2062TIP3    H2 6151   1.921   6.422   3.939
 2063TIP3   OH2 6152   0.754   2.468   4.830
 2063TIP3    H1 6153   0.722   2.407   4.896
 2063TIP3    H2 6154   0.708   2.550   4.849
 2064TIP3   OH2 6155   3.357   2.990   5.487
 2064TIP3    H1 6156   3.440   2.954   5.457
 2064TIP3    H2 6157   3.367   2.999   5.582
 2065TIP3   OH2 6158   1.124   4.464   0.172
 2065TIP3    H1 6159   1.054   4.529   0.185
 2065TIP3    H2 6160   1.204   4.509   0.199
 2066TIP3   OH2 6161   2.792   3.368   5.035
 2066TIP3    H1 6162   2.812   3.454   4.997
 2066TIP3    H2 6163   2.793   3.383   5.129
 2067TIP3   OH2 6164   6.237   1.407   2.058
 2067TIP3    H1 6165   6.325   1.386   2.087
 2067TIP3    H2 6166   6.228   1.501   2.076
 2068TIP3   OH2 6167   3.472   3.319   1.690
 2068TIP3    H1 6168   3.445   3.353   1.606
 2068TIP3    H2 6169   3.505   3.231   1.671
 2069TIP3   OH2 6170   0.430   1.258   3.544
 2069TIP3    H1 6171   0.414   1.183   3.600
 2069TIP3    H2 6172   0.478   1.223   3.469
 2070TIP3   OH2 6173   0.685   1.349   1.818
 2070TIP3    H1 6174   0.596   1.359   1.853
 2070TIP3    H2 6175   0.677   1.282   1.751
 2071TIP3   OH2 6176   5.227   4.021   0.755
 2071TIP3    H1 6177   5.242   3.940   0.805
 2071TIP3    H2 6178   5.310   4.037   0.710
 2072TIP3   OH2 6179   0.801   5.812   0.615
 2072TIP3    H1 6180   0.821   5.734   0.667
 2072TIP3    H2 6181   0.712   5.836   0.641
 2073TIP3   OH2 6182   6.127   3.296   4.652
 2073TIP3    H1 6183   6.140   3.371   4.593
 2073TIP3    H2 6184   6.188   3.230   4.621
 2074TIP3   OH2 6185   1.771   2.221   2.876
 2074TIP3    H1 6186   1.802   2.311   2.869
 2074TIP3    H2 6187   1.848   2.171   2.902
 2075TIP3   OH2 6188   1.218   1.108   2.624
 2075TIP3    H1 6189   1.190   1.082   2.712
 2075TIP3    H2 6190   1.161   1.181   2.602
 2076TIP3   OH2 6191   0.939   2.494   4.256
 2076TIP3    H1 6192   0.940   2.430   4.327
 2076TIP3    H2 6193   1.024   2.483   4.213
 2077TIP3   OH2 6194   0.744   4.213   4.844
 2077TIP3    H1 6195   0.663   4.254   4.814
 2077TIP3    H2 6196   0.714   4.134   4.890
 2078TIP3   OH2 6197   6.368   2.342   3.568
 2078TIP3    H1 6198   6.289   2.389   3.540
 2078TIP3    H2 6199   6.366   2.348   3.664
 2079TIP3   OH2 6200   4.384   1.517   0.606
 2079TIP3    H1 6201   4.410   1.439   0.656
 2079TIP3    H2 6202   4.391   1.491   0.515
 2080TIP3   OH2 6203   6.698   6.475   4.908
 2080TIP3    H1 6204   6.760   6.518   4.849
 2080TIP3    H2 6205   6.737   6.390   4.926
 2081TIP3   OH2 6206   6.329   5.132   4.998
 2081TIP3    H1 6207   6.386   5.117   5.073
 2081TIP3    H2 6208   6.341   5.054   4.943
 2082TIP3   OH2 6209   6.240   5.382   5.304
 2082TIP3    H1 6210   6.208   5.430   5.229
 2082TIP3    H2 6211   6.335   5.393   5.301
 2083TIP3   OH2 6212   0.907   6.559   4.411
 2083TIP3    H1 6213   0.834   6.593   4.360
 2083TIP3    H2 6214   0.934   6.633   4.466
 2084TIP3   OH2 6215   3.883   4.467   4.213
 2084TIP3    H1 6216   3.934   4.464   4.132
 2084TIP3    H2 6217   3.870   4.375   4.236
 2085TIP3   OH2 6218   3.904   1.290   1.359
 2085TIP3    H1 6219   3.876   1.259   1.273
 2085TIP3    H2 6220   3.960   1.366   1.341
 2086TIP3   OH2 6221   0.173   6.666   5.375
 2086TIP3    H1 6222   0.225   6.665   5.295
 2086TIP3    H2 6223   0.116   6.590   5.367
 2087TIP3   OH2 6224   6.129   5.610   3.818
 2087TIP3    H1 6225   6.055   5.550   3.811
 2087TIP3    H2 6226   6.181   5.593   3.740
 2088TIP3   OH2 6227   0.700   2.707   5.435
 2088TIP3    H1 6228   0.731   2.617   5.438
 2088TIP3    H2 6229   0.629   2.710   5.500
 2089TIP3   OH2 6230   4.793   5.830   1.417
 2089TIP3    H1 6231   4.807   5.850   1.509
 2089TIP3    H2 6232   4.855   5.886   1.370
 2090TIP3   OH2 6233   0.519   1.224   5.516
 2090TIP3    H1 6234   0.582   1.293   5.494
 2090TIP3    H2 6235   0.434   1.266   5.505
 2091TIP3   OH2 6236   6.127   4.158   1.556
 2091TIP3    H1 6237   6.100   4.066   1.560
 2091TIP3    H2 6238   6.124   4.180   1.463
 2092TIP3   OH2 6239   4.267   0.771   1.421
 2092TIP3    H1 6240   4.261   0.746   1.513
 2092TIP3    H2 6241   4.243   0.864   1.420
 2093TIP3   OH2 6242   1.591   4.273   2.925
 2093TIP3    H1 6243   1.614   4.317   3.007
 2093TIP3    H2 6244   1.654   4.202   2.917
 2094TIP3   OH2 6245   5.771   4.687   1.683
 2094TIP3    H1 6246   5.711   4.733   1.624
 2094TIP3    H2 6247   5.858   4.707   1.650
 2095TIP3   OH2 6248   5.687   5.936   5.653
 2095TIP3    H1 6249   5.756   5.921   5.717
 2095TIP3    H2 6250   5.656   6.025   5.671
 2096TIP3   OH2 6251   3.663   5.864   4.296
 2096TIP3    H1 6252   3.634   5.837   4.209
 2096TIP3    H2 6253   3.586   5.905   4.335
 2097TIP3   OH2 6254   4.594   6.511   3.657
 2097TIP3    H1 6255   4.576   6.432   3.708
 2097TIP3    H2 6256   4.684   6.534   3.679
 2098TIP3   OH2 6257   7.060   6.285   5.134
 2098TIP3    H1 6258   7.095   6.341   5.065
 2098TIP3    H2 6259   6.981   6.247   5.095
 2099TIP3   OH2 6260   1.658   6.459   3.563
 2099TIP3    H1 6261   1.671   6.505   3.480
 2099TIP3    H2 6262   1.676   6.524   3.630
 2100TIP3   OH2 6263   3.900   5.486   3.886
 2100TIP3    H1 6264   3.832   5.542   3.925
 2100TIP3    H2 6265   3.886   5.494   3.791
 2101TIP3   OH2 6266   2.685   5.373   0.839
 2101TIP3    H1 6267   2.597   5.358   0.805
 2101TIP3    H2 6268   2.743   5.356   0.765
 2102TIP3   OH2 6269   5.792   3.563   3.464
 2102TIP3    H1 6270   5.791   3.486   3.407
 2102TIP3    H2 6271   5.722   3.619   3.431
 2103TIP3   OH2 6272   2.330   1.417   4.802
 2103TIP3    H1 6273   2.367   1.348   4.747
 2103TIP3    H2 6274   2.287   1.476   4.740
 2104TIP3   OH2 6275   5.487   5.311   2.021
 2104TIP3    H1 6276   5.481   5.295   2.115
 2104TIP3    H2 6277   5.571   5.357   2.010
 2105TIP3   OH2 6278   2.254   0.108   0.554
 2105TIP3    H1 6279   2.219   0.194   0.529
 2105TIP3    H2 6280   2.324   0.091   0.491
 2106TIP3   OH2 6281   2.162   2.856   5.538
 2106TIP3    H1 6282   2.183   2.892   5.624
 2106TIP3    H2 6283   2.069   2.836   5.543
 2107TIP3   OH2 6284   4.006   5.555   2.154
 2107TIP3    H1 6285   3.947   5.515   2.090
 2107TIP3    H2 6286   3.969   5.642   2.171
 2108TIP3   OH2 6287   2.814   3.361   0.719
 2108TIP3    H1 6288   2.778   3.316   0.643
 2108TIP3    H2 6289   2.813   3.454   0.694
 2109TIP3   OH2 6290   6.327   5.933   4.017
 2109TIP3    H1 6291   6.358   5.844   4.031
 2109TIP3    H2 6292   6.248   5.939   4.071
 2110TIP3   OH2 6293   1.980   6.765   5.536
 2110TIP3    H1 6294   2.006   6.673   5.532
 2110TIP3    H2 6295   2.029   6.808   5.465
 2111TIP3   OH2 6296   3.812   1.477   1.144
 2111TIP3    H1 6297   3.818   1.572   1.132
 2111TIP3    H2 6298   3.836   1.440   1.060
 2112TIP3   OH2 6299   1.292   5.632   4.038
 2112TIP3    H1 6300   1.347   5.569   3.991
 2112TIP3    H2 6301   1.302   5.714   3.990
 2113TIP3   OH2 6302   2.736   3.334   0.465
 2113TIP3    H1 6303   2.727   3.261   0.404
 2113TIP3    H2 6304   2.808   3.386   0.430
 2114TIP3   OH2 6305   5.684   1.591   3.615
 2114TIP3    H1 6306   5.741   1.532   3.566
 2114TIP3    H2 6307   5.720   1.678   3.601
 2115TIP3   OH2 6308   5.069   5.102   5.081
 2115TIP3    H1 6309   5.110   5.042   5.018
 2115TIP3    H2 6310   5.120   5.183   5.073
 2116TIP3   OH2 6311   1.607   4.172   1.800
 2116TIP3    H1 6312   1.549   4.248   1.801
 2116TIP3    H2 6313   1.690   4.205   1.834
 2117TIP3   OH2 6314   4.144   0.668   0.644
 2117TIP3    H1 6315   4.203   0.634   0.577
 2117TIP3    H2 6316   4.186   0.748   0.675
 2118TIP3   OH2 6317   0.276   5.311   5.062
 2118TIP3    H1 6318   0.335   5.366   5.010
 2118TIP3    H2 6319   0.241   5.248   4.999
 2119TIP3   OH2 6320   4.014   1.043   1.463
 2119TIP3    H1 6321   4.051   1.020   1.378
 2119TIP3    H2 6322   3.967   1.125   1.448
 2120TIP3   OH2 6323   1.536   5.637   3.395
 2120TIP3    H1 6324   1.606   5.601   3.340
 2120TIP3    H2 6325   1.565   5.725   3.416
 2121TIP3   OH2 6326   0.814   3.900   1.202
 2121TIP3    H1 6327   0.754   3.894   1.128
 2121TIP3    H2 6328   0.767   3.856   1.274
 2122TIP3   OH2 6329   3.581   2.881   1.430
 2122TIP3    H1 6330   3.497   2.885   1.474
 2122TIP3    H2 6331   3.627   2.809   1.474
 2123TIP3   OH2 6332   3.475   6.810   5.252
 2123TIP3    H1 6333   3.484   6.888   5.199
 2123TIP3    H2 6334   3.450   6.741   5.190
 2124TIP3   OH2 6335   0.800   5.526   5.592
 2124TIP3    H1 6336   0.895   5.515   5.596
 2124TIP3    H2 6337   0.766   5.472   5.663
 2125TIP3   OH2 6338   3.797   2.071   1.893
 2125TIP3    H1 6339   3.870   2.130   1.877
 2125TIP3    H2 6340   3.835   2.000   1.946
 2126TIP3   OH2 6341   4.853   6.020   4.601
 2126TIP3    H1 6342   4.908   6.075   4.658
 2126TIP3    H2 6343   4.871   6.052   4.513
 2127TIP3   OH2 6344   3.522   5.860   0.245
 2127TIP3    H1 6345   3.565   5.937   0.282
 2127TIP3    H2 6346   3.593   5.806   0.210
 2128TIP3   OH2 6347   1.540   1.749   1.640
 2128TIP3    H1 6348   1.621   1.725   1.686
 2128TIP3    H2 6349   1.522   1.838   1.669
 2129TIP3   OH2 6350   5.511   4.976   0.722
 2129TIP3    H1 6351   5.510   5.068   0.748
 2129TIP3    H2 6352   5.602   4.961   0.693
 2130TIP3   OH2 6353   1.382   6.206   0.854
 2130TIP3    H1 6354   1.402   6.129   0.907
 2130TIP3    H2 6355   1.336   6.170   0.778
 2131TIP3   OH2 6356   3.542   1.496   1.932
 2131TIP3    H1 6357   3.447   1.505   1.927
 2131TIP3    H2 6358   3.569   1.482   1.841
 2132TIP3   OH2 6359   4.422   0.840   1.134
 2132TIP3    H1 6360   4.345   0.796   1.098
 2132TIP3    H2 6361   4.432   0.802   1.221
 2133TIP3   OH2 6362   3.897   0.692   5.383
 2133TIP3    H1 6363   3.900   0.704   5.478
 2133TIP3    H2 6364   3.900   0.781   5.348
 2134TIP3   OH2 6365   3.412   3.208   0.010
 2134TIP3    H1 6366   3.488   3.200  -0.048
 2134TIP3    H2 6367   3.393   3.119   0.038
 2135TIP3   OH2 6368   1.243   1.024   1.929
 2135TIP3    H1 6369   1.207   0.937   1.917
 2135TIP3    H2 6370   1.247   1.036   2.024
 2136TIP3   OH2 6371   4.156   0.827   3.146
 2136TIP3    H1 6372   4.113   0.888   3.206
 2136TIP3    H2 6373   4.170   0.877   3.066
 2137TIP3   OH2 6374   5.045   3.397   3.687
 2137TIP3    H1 6375   5.063   3.304   3.675
 2137TIP3    H2 6376   5.118   3.441   3.643
 2138TIP3   OH2 6377   5.411   1.652   0.244
 2138TIP3    H1 6378   5.398   1.564   0.281
 2138TIP3    H2 6379   5.341   1.705   0.282
 2139TIP3   OH2 6380   4.281   1.735   1.134
 2139TIP3    H1 6381   4.290   1.829   1.122
 2139TIP3    H2 6382   4.231   1.706   1.058
 2140TIP3   OH2 6383   5.029   6.466   0.029
 2140TIP3    H1 6384   5.011   6.494  -0.060
 2140TIP3    H2 6385   5.119   6.433   0.027
 2141TIP3   OH2 6386   5.292   4.165   1.387
 2141TIP3    H1 6387   5.238   4.201   1.317
 2141TIP3    H2 6388   5.254   4.199   1.467
 2142TIP3   OH2 6389   0.618   0.597   5.664
 2142TIP3    H1 6390   0.586   0.605   5.574
 2142TIP3    H2 6391   0.654   0.509   5.669
 2143TIP3   OH2 6392   4.884   4.154   4.524
 2143TIP3    H1 6393   4.863   4.228   4.468
 2143TIP3    H2 6394   4.980   4.153   4.528
 2144TIP3   OH2 6395   0.330   2.646   1.199
 2144TIP3    H1 6396   0.357   2.734   1.172
 2144TIP3    H2 6397   0.412   2.596   1.202
 2145TIP3   OH2 6398   1.437   4.405   1.772
 2145TIP3    H1 6399   1.351   4.369   1.797
 2145TIP3    H2 6400   1.423   4.441   1.685
 2146TIP3   OH2 6401   3.197   2.540   1.683
 2146TIP3    H1 6402   3.127   2.493   1.639
 2146TIP3    H2 6403   3.246   2.582   1.613
 2147TIP3   OH2 6404   2.337   1.920   0.428
 2147TIP3    H1 6405   2.350   1.837   0.473
 2147TIP3    H2 6406   2.245   1.942   0.445
 2148TIP3   OH2 6407   5.964   5.274   2.547
 2148TIP3    H1 6408   6.005   5.226   2.475
 2148TIP3    H2 6409   6.027   5.343   2.568
 2149TIP3   OH2 6410   5.377   3.133   4.867
 2149TIP3    H1 6411   5.296   3.172   4.835
 2149TIP3    H2 6412   5.367   3.131   4.962
 2150TIP3   OH2 6413   1.799   3.847   4.217
 2150TIP3    H1 6414   1.825   3.883   4.301
 2150TIP3    H2 6415   1.880   3.815   4.178
 2151TIP3   OH2 6416   4.137   4.213   3.372
 2151TIP3    H1 6417   4.214   4.260   3.340
 2151TIP3    H2 6418   4.159   4.191   3.463
 2152TIP3   OH2 6419   5.102   0.479   0.777
 2152TIP3    H1 6420   5.092   0.447   0.687
 2152TIP3    H2 6421   5.183   0.437   0.808
 2153TIP3   OH2 6422   2.195   1.435   1.512
 2153TIP3    H1 6423   2.270   1.411   1.458
 2153TIP3    H2 6424   2.226   1.508   1.566
 2154TIP3   OH2 6425   4.713   4.851   4.710
 2154TIP3    H1 6426   4.632   4.891   4.679
 2154TIP3    H2 6427   4.732   4.894   4.793
 2155TIP3   OH2 6428   4.431   5.248   4.022
 2155TIP3    H1 6429   4.384   5.268   4.103
 2155TIP3    H2 6430   4.507   5.198   4.050
 2156TIP3   OH2 6431   6.575   0.932   4.505
 2156TIP3    H1 6432   6.619   1.000   4.456
 2156TIP3    H2 6433   6.606   0.850   4.467
 2157TIP3   OH2 6434   4.766   4.882   5.522
 2157TIP3    H1 6435   4.728   4.838   5.447
 2157TIP3    H2 6436   4.804   4.812   5.575
 2158TIP3   OH2 6437   0.867   0.065   3.117
 2158TIP3    H1 6438   0.835   0.057   3.027
 2158TIP3    H2 6439   0.804   0.015   3.169
 2159TIP3   OH2 6440   3.135   1.707   3.488
 2159TIP3    H1 6441   3.100   1.619   3.471
 2159TIP3    H2 6442   3.230   1.697   3.476
 2160TIP3   OH2 6443   1.247   1.468   4.676
 2160TIP3    H1 6444   1.187   1.396   4.656
 2160TIP3    H2 6445   1.191   1.545   4.683
 2161TIP3   OH2 6446   1.882   1.103   0.568
 2161TIP3    H1 6447   1.855   1.149   0.648
 2161TIP3    H2 6448   1.826   1.139   0.499
 2162TIP3   OH2 6449   3.392   4.672   5.347
 2162TIP3    H1 6450   3.307   4.687   5.305
 2162TIP3    H2 6451   3.370   4.634   5.432
 2163TIP3   OH2 6452   5.420   5.466   1.236
 2163TIP3    H1 6453   5.361   5.390   1.239
 2163TIP3    H2 6454   5.367   5.536   1.198
 2164TIP3   OH2 6455   6.660   6.452   1.092
 2164TIP3    H1 6456   6.748   6.486   1.077
 2164TIP3    H2 6457   6.618   6.452   1.006
 2165TIP3   OH2 6458   6.010   4.361   4.694
 2165TIP3    H1 6459   5.949   4.434   4.704
 2165TIP3    H2 6460   6.034   4.363   4.601
 2166TIP3   OH2 6461   3.278   3.269   1.261
 2166TIP3    H1 6462   3.359   3.319   1.244
 2166TIP3    H2 6463   3.211   3.316   1.212
 2167TIP3   OH2 6464   4.899   3.018   0.783
 2167TIP3    H1 6465   4.821   3.065   0.811
 2167TIP3    H2 6466   4.893   3.015   0.687
 2168TIP3   OH2 6467   4.640   1.034   1.491
 2168TIP3    H1 6468   4.699   1.057   1.419
 2168TIP3    H2 6469   4.554   1.030   1.451
 2169TIP3   OH2 6470   4.656   3.958   1.535
 2169TIP3    H1 6471   4.665   3.871   1.574
 2169TIP3    H2 6472   4.726   4.010   1.576
 2170TIP3   OH2 6473   0.535   2.595   1.797
 2170TIP3    H1 6474   0.539   2.640   1.882
 2170TIP3    H2 6475   0.539   2.665   1.732
 2171TIP3   OH2 6476   3.346   2.302   5.523
 2171TIP3    H1 6477   3.359   2.396   5.525
 2171TIP3    H2 6478   3.252   2.289   5.535
 2172TIP3   OH2 6479   4.135   2.508   3.911
 2172TIP3    H1 6480   4.148   2.414   3.901
 2172TIP3    H2 6481   4.187   2.531   3.988
 2173TIP3   OH2 6482   1.330   4.321   5.237
 2173TIP3    H1 6483   1.423   4.344   5.239
 2173TIP3    H2 6484   1.287   4.396   5.196
 2174TIP3   OH2 6485   0.968   5.431   1.662
 2174TIP3    H1 6486   1.039   5.384   1.617
 2174TIP3    H2 6487   0.984   5.523   1.640
 2175TIP3   OH2 6488   0.883   1.369   3.635
 2175TIP3    H1 6489   0.942   1.309   3.590
 2175TIP3    H2 6490   0.852   1.429   3.566
 2176TIP3   OH2 6491   2.285   1.578   5.415
 2176TIP3    H1 6492   2.350   1.566   5.485
 2176TIP3    H2 6493   2.251   1.667   5.430
 2177TIP3   OH2 6494   4.787   1.822   0.147
 2177TIP3    H1 6495   4.752   1.751   0.093
 2177TIP3    H2 6496   4.713   1.850   0.200
 2178TIP3   OH2 6497   3.393   4.514   3.065
 2178TIP3    H1 6498   3.458   4.452   3.096
 2178TIP3    H2 6499   3.322   4.459   3.030
 2179TIP3   OH2 6500   3.632   1.875   5.284
 2179TIP3    H1 6501   3.702   1.819   5.317
 2179TIP3    H2 6502   3.558   1.858   5.342
 2180TIP3   OH2 6503   2.408   1.800   4.161
 2180TIP3    H1 6504   2.414   1.889   4.195
 2180TIP3    H2 6505   2.495   1.782   4.125
 2181TIP3   OH2 6506   3.488   5.582   0.936
 2181TIP3    H1 6507   3.579   5.597   0.962
 2181TIP3    H2 6508   3.477   5.633   0.856
 2182TIP3   OH2 6509   4.751   1.653   4.258
 2182TIP3    H1 6510   4.675   1.602   4.230
 2182TIP3    H2 6511   4.732   1.742   4.227
 2183TIP3   OH2 6512   2.314   2.677   3.366
 2183TIP3    H1 6513   2.369   2.684   3.287
 2183TIP3    H2 6514   2.266   2.760   3.368
 2184TIP3   OH2 6515   2.051   3.978   3.644
 2184TIP3    H1 6516   2.137   3.974   3.600
 2184TIP3    H2 6517   2.070   3.954   3.735
 2185TIP3   OH2 6518   2.508   2.105   4.257
 2185TIP3    H1 6519   2.501   2.183   4.312
 2185TIP3    H2 6520   2.585   2.122   4.202
 2186TIP3   OH2 6521   7.218   4.075   2.666
 2186TIP3    H1 6522   7.145   4.015   2.649
 2186TIP3    H2 6523   7.296   4.022   2.649
 2187TIP3   OH2 6524   3.695   3.078   2.236
 2187TIP3    H1 6525   3.607   3.116   2.233
 2187TIP3    H2 6526   3.727   3.099   2.324
 2188TIP3   OH2 6527   1.873   6.210   4.281
 2188TIP3    H1 6528   1.896   6.177   4.368
 2188TIP3    H2 6529   1.826   6.292   4.299
 2189TIP3   OH2 6530   3.574   5.448   0.472
 2189TIP3    H1 6531   3.563   5.532   0.515
 2189TIP3    H2 6532   3.485   5.417   0.454
 2190TIP3   OH2 6533   6.063   5.199   3.676
 2190TIP3    H1 6534   6.131   5.148   3.721
 2190TIP3    H2 6535   6.048   5.152   3.594
 2191TIP3   OH2 6536   1.819   6.134   2.741
 2191TIP3    H1 6537   1.756   6.199   2.708
 2191TIP3    H2 6538   1.775   6.093   2.816
 2192TIP3   OH2 6539   1.325   0.051   2.965
 2192TIP3    H1 6540   1.376   0.121   3.007
 2192TIP3    H2 6541   1.249   0.095   2.927
 2193TIP3   OH2 6542   1.863   4.441   5.514
 2193TIP3    H1 6543   1.934   4.474   5.459
 2193TIP3    H2 6544   1.792   4.504   5.501
 2194TIP3   OH2 6545   3.339   6.617   5.132
 2194TIP3    H1 6546   3.351   6.523   5.116
 2194TIP3    H2 6547   3.316   6.654   5.047
 2195TIP3   OH2 6548   5.203   1.843   4.299
 2195TIP3    H1 6549   5.256   1.787   4.242
 2195TIP3    H2 6550   5.203   1.798   4.383
 2196TIP3   OH2 6551   6.604   1.804   3.095
 2196TIP3    H1 6552   6.599   1.764   3.182
 2196TIP3    H2 6553   6.696   1.827   3.085
 2197TIP3   OH2 6554   4.979   1.304   3.358
 2197TIP3    H1 6555   5.069   1.292   3.326
 2197TIP3    H2 6556   4.933   1.226   3.328
 2198TIP3   OH2 6557   5.275   4.144   2.286
 2198TIP3    H1 6558   5.194   4.152   2.337
 2198TIP3    H2 6559   5.314   4.231   2.288
 2199TIP3   OH2 6560   1.171   1.679   5.376
 2199TIP3    H1 6561   1.176   1.769   5.407
 2199TIP3    H2 6562   1.263   1.651   5.369
 2200TIP3   OH2 6563   0.872   1.960   5.050
 2200TIP3    H1 6564   0.818   1.934   4.975
 2200TIP3    H2 6565   0.951   1.908   5.041
 2201TIP3   OH2 6566   0.641   4.482   3.478
 2201TIP3    H1 6567   0.638   4.441   3.392
 2201TIP3    H2 6568   0.731   4.512   3.488
 2202TIP3   OH2 6569   2.299   2.296   5.294
 2202TIP3    H1 6570   2.384   2.323   5.329
 2202TIP3    H2 6571   2.298   2.201   5.305
 2203TIP3   OH2 6572   4.014   4.410   2.122
 2203TIP3    H1 6573   4.083   4.476   2.113
 2203TIP3    H2 6574   3.937   4.459   2.152
 2204TIP3   OH2 6575   5.670   1.231   3.742
 2204TIP3    H1 6576   5.757   1.214   3.780
 2204TIP3    H2 6577   5.685   1.231   3.647
 2205TIP3   OH2 6578   3.446   3.786   0.332
 2205TIP3    H1 6579   3.380   3.802   0.265
 2205TIP3    H2 6580   3.519   3.842   0.308
 2206TIP3   OH2 6581   4.361   0.275   2.438
 2206TIP3    H1 6582   4.451   0.306   2.429
 2206TIP3    H2 6583   4.313   0.350   2.473
 2207TIP3   OH2 6584   0.058   0.406   2.396
 2207TIP3    H1 6585  -0.032   0.392   2.426
 2207TIP3    H2 6586   0.071   0.500   2.402
 2208TIP3   OH2 6587   4.552   6.392   2.280
 2208TIP3    H1 6588   4.469   6.346   2.288
 2208TIP3    H2 6589   4.588   6.363   2.196
 2209TIP3   OH2 6590   4.402   0.343   3.047
 2209TIP3    H1 6591   4.316   0.303   3.035
 2209TIP3    H2 6592   4.404   0.370   3.139
 2210TIP3   OH2 6593   5.430   4.335   3.351
 2210TIP3    H1 6594   5.352   4.348   3.405
 2210TIP3    H2 6595   5.470   4.422   3.344
 2211TIP3   OH2 6596   3.975   4.990   4.777
 2211TIP3    H1 6597   4.043   4.934   4.740
 2211TIP3    H2 6598   3.918   5.011   4.703
 2212TIP3   OH2 6599   2.853   4.391   4.287
 2212TIP3    H1 6600   2.935   4.440   4.273
 2212TIP3    H2 6601   2.785   4.450   4.256
 2213TIP3   OH2 6602   6.985   1.445   3.688
 2213TIP3    H1 6603   7.028   1.490   3.760
 2213TIP3    H2 6604   7.031   1.475   3.609
 2214TIP3   OH2 6605   6.395   6.699   3.680
 2214TIP3    H1 6606   6.411   6.786   3.646
 2214TIP3    H2 6607   6.364   6.648   3.605
 2215TIP3   OH2 6608   0.677   6.420   0.224
 2215TIP3    H1 6609   0.658   6.382   0.310
 2215TIP3    H2 6610   0.595   6.461   0.197
 2216TIP3   OH2 6611   6.497   0.275   5.286
 2216TIP3    H1 6612   6.433   0.243   5.350
 2216TIP3    H2 6613   6.541   0.347   5.332
 2217TIP3   OH2 6614   3.104   0.220   0.035
 2217TIP3    H1 6615   3.167   0.200   0.105
 2217TIP3    H2 6616   3.086   0.136  -0.007
 2218TIP3   OH2 6617   5.044   3.581   4.108
 2218TIP3    H1 6618   5.121   3.604   4.056
 2218TIP3    H2 6619   5.037   3.651   4.173
 2219TIP3   OH2 6620   3.078   1.991   3.584
 2219TIP3    H1 6621   3.152   1.932   3.577
 2219TIP3    H2 6622   3.104   2.055   3.650
 2220TIP3   OH2 6623   4.321   2.099   0.529
 2220TIP3    H1 6624   4.335   2.029   0.592
 2220TIP3    H2 6625   4.307   2.053   0.446
 2221TIP3   OH2 6626   4.355   2.695   3.573
 2221TIP3    H1 6627   4.364   2.607   3.609
 2221TIP3    H2 6628   4.412   2.749   3.628
 2222TIP3   OH2 6629   0.666   6.044   5.337
 2222TIP3    H1 6630   0.732   6.024   5.404
 2222TIP3    H2 6631   0.587   5.999   5.368
 2223TIP3   OH2 6632   4.039   4.600   4.399
 2223TIP3    H1 6633   3.989   4.556   4.467
 2223TIP3    H2 6634   3.990   4.584   4.318
 2224TIP3   OH2 6635   2.918   1.622   1.084
 2224TIP3    H1 6636   2.872   1.549   1.041
 2224TIP3    H2 6637   2.993   1.640   1.028
 2225TIP3   OH2 6638   7.051   4.203   3.720
 2225TIP3    H1 6639   7.071   4.156   3.639
 2225TIP3    H2 6640   7.006   4.282   3.691
 2226TIP3   OH2 6641   5.070   6.207   3.048
 2226TIP3    H1 6642   5.019   6.201   3.128
 2226TIP3    H2 6643   5.146   6.260   3.073
 2227TIP3   OH2 6644   4.682   6.592   3.166
 2227TIP3    H1 6645   4.760   6.547   3.198
 2227TIP3    H2 6646   4.623   6.522   3.138
 2228TIP3   OH2 6647   6.172   6.663   4.340
 2228TIP3    H1 6648   6.218   6.746   4.351
 2228TIP3    H2 6649   6.079   6.685   4.347
 2229TIP3   OH2 6650   4.234   5.464   2.335
 2229TIP3    H1 6651   4.214   5.428   2.421
 2229TIP3    H2 6652   4.157   5.516   2.313
 2230TIP3   OH2 6653   2.189   5.545   3.715
 2230TIP3    H1 6654   2.218   5.620   3.766
 2230TIP3    H2 6655   2.102   5.524   3.750
 2231TIP3   OH2 6656   5.067   4.422   2.935
 2231TIP3    H1 6657   5.038   4.399   2.846
 2231TIP3    H2 6658   4.986   4.443   2.981
 2232TIP3   OH2 6659   6.539   0.546   2.763
 2232TIP3    H1 6660   6.513   0.617   2.705
 2232TIP3    H2 6661   6.547   0.469   2.706
 2233TIP3   OH2 6662   1.376   3.562   0.765
 2233TIP3    H1 6663   1.418   3.486   0.805
 2233TIP3    H2 6664   1.338   3.610   0.839
 2234TIP3   OH2 6665   5.685   3.323   0.696
 2234TIP3    H1 6666   5.714   3.353   0.782
 2234TIP3    H2 6667   5.714   3.390   0.636
 2235TIP3   OH2 6668   2.327   2.400   2.500
 2235TIP3    H1 6669   2.275   2.466   2.546
 2235TIP3    H2 6670   2.359   2.445   2.422
 2236TIP3   OH2 6671   2.617   6.741   3.800
 2236TIP3    H1 6672   2.635   6.685   3.876
 2236TIP3    H2 6673   2.644   6.828   3.828
 2237TIP3   OH2 6674   3.870   2.687   2.169
 2237TIP3    H1 6675   3.822   2.606   2.188
 2237TIP3    H2 6676   3.886   2.725   2.255
 2238TIP3   OH2 6677   1.421   1.726   4.911
 2238TIP3    H1 6678   1.415   1.791   4.982
 2238TIP3    H2 6679   1.385   1.771   4.835
 2239TIP3   OH2 6680   0.065   2.865   5.011
 2239TIP3    H1 6681  -0.030   2.878   5.005
 2239TIP3    H2 6682   0.086   2.880   5.103
 2240TIP3   OH2 6683   6.142   5.518   4.899
 2240TIP3    H1 6684   6.232   5.523   4.868
 2240TIP3    H2 6685   6.089   5.511   4.819
 2241TIP3   OH2 6686   7.027   4.679   0.443
 2241TIP3    H1 6687   6.945   4.687   0.396
 2241TIP3    H2 6688   7.027   4.751   0.506
 2242TIP3   OH2 6689   3.094   2.702   1.877
 2242TIP3    H1 6690   3.140   2.652   1.809
 2242TIP3    H2 6691   3.075   2.638   1.945
 2243TIP3   OH2 6692   4.434   0.609   0.119
 2243TIP3    H1 6693   4.417   0.643   0.031
 2243TIP3    H2 6694   4.506   0.663   0.151
 2244TIP3   OH2 6695   5.532   3.721   4.556
 2244TIP3    H1 6696   5.446   3.743   4.593
 2244TIP3    H2 6697   5.511   3.668   4.478
 2245TIP3   OH2 6698   5.661   5.733   0.998
 2245TIP3    H1 6699   5.729   5.738   1.066
 2245TIP3    H2 6700   5.586   5.779   1.035
 2246TIP3   OH2 6701   3.501   5.313   1.981
 2246TIP3    H1 6702   3.502   5.343   2.072
 2246TIP3    H2 6703   3.409   5.309   1.958
 2247TIP3   OH2 6704   3.450   4.115   3.704
 2247TIP3    H1 6705   3.447   4.055   3.779
 2247TIP3    H2 6706   3.377   4.176   3.720
 2248TIP3   OH2 6707   4.705   3.729   5.695
 2248TIP3    H1 6708   4.691   3.746   5.788
 2248TIP3    H2 6709   4.620   3.747   5.655
 2249TIP3   OH2 6710   1.580   1.401   5.600
 2249TIP3    H1 6711   1.664   1.410   5.647
 2249TIP3    H2 6712   1.553   1.491   5.582
 2250TIP3   OH2 6713   5.143   3.394   2.662
 2250TIP3    H1 6714   5.197   3.315   2.656
 2250TIP3    H2 6715   5.093   3.383   2.743
 2251TIP3   OH2 6716   7.177   2.245   1.169
 2251TIP3    H1 6717   7.269   2.249   1.196
 2251TIP3    H2 6718   7.131   2.209   1.245
 2252TIP3   OH2 6719   6.327   0.861   5.440
 2252TIP3    H1 6720   6.367   0.786   5.395
 2252TIP3    H2 6721   6.401   0.916   5.465
 2253TIP3   OH2 6722   4.641   4.464   5.853
 2253TIP3    H1 6723   4.600   4.379   5.833
 2253TIP3    H2 6724   4.642   4.510   5.770
 2254TIP3   OH2 6725   3.297   3.879   4.332
 2254TIP3    H1 6726   3.284   3.930   4.412
 2254TIP3    H2 6727   3.297   3.788   4.361
 2255TIP3   OH2 6728   6.398   2.129   4.436
 2255TIP3    H1 6729   6.355   2.213   4.450
 2255TIP3    H2 6730   6.477   2.150   4.388
 2256TIP3   OH2 6731   4.240   2.642   3.059
 2256TIP3    H1 6732   4.274   2.728   3.034
 2256TIP3    H2 6733   4.227   2.648   3.154
 2257TIP3   OH2 6734   4.251   2.366   3.407
 2257TIP3    H1 6735   4.277   2.369   3.315
 2257TIP3    H2 6736   4.222   2.276   3.421
 2258TIP3   OH2 6737   5.619   1.434   1.986
 2258TIP3    H1 6738   5.580   1.454   1.901
 2258TIP3    H2 6739   5.546   1.399   2.038
 2259TIP3   OH2 6740   3.035   3.489   3.563
 2259TIP3    H1 6741   3.089   3.515   3.637
 2259TIP3    H2 6742   2.991   3.569   3.535
 2260TIP3   OH2 6743   2.023   1.002   4.261
 2260TIP3    H1 6744   2.108   1.007   4.304
 2260TIP3    H2 6745   2.032   0.930   4.199
 2261TIP3   OH2 6746   1.004   3.874   1.964
 2261TIP3    H1 6747   1.044   3.920   2.037
 2261TIP3    H2 6748   0.912   3.901   1.967
 2262TIP3   OH2 6749   3.050   1.816   0.926
 2262TIP3    H1 6750   3.027   1.870   1.001
 2262TIP3    H2 6751   3.091   1.877   0.864
 2263TIP3   OH2 6752   1.268   3.366   2.020
 2263TIP3    H1 6753   1.333   3.381   1.951
 2263TIP3    H2 6754   1.288   3.433   2.086
 2264TIP3   OH2 6755   5.349   5.071   5.774
 2264TIP3    H1 6756   5.339   5.018   5.853
 2264TIP3    H2 6757   5.441   5.059   5.749
 2265TIP3   OH2 6758   4.845   1.822   3.733
 2265TIP3    H1 6759   4.802   1.830   3.648
 2265TIP3    H2 6760   4.792   1.758   3.781
 2266TIP3   OH2 6761   5.925   5.995   5.784
 2266TIP3    H1 6762   5.966   6.064   5.731
 2266TIP3    H2 6763   5.998   5.943   5.816
 2267TIP3   OH2 6764   2.037   3.215   0.863
 2267TIP3    H1 6765   1.985   3.242   0.939
 2267TIP3    H2 6766   2.034   3.291   0.804
 2268TIP3   OH2 6767   5.243   6.669   2.971
 2268TIP3    H1 6768   5.324   6.620   2.983
 2268TIP3    H2 6769   5.256   6.717   2.890
 2269TIP3   OH2 6770   5.498   5.460   4.611
 2269TIP3    H1 6771   5.535   5.417   4.689
 2269TIP3    H2 6772   5.518   5.400   4.539
 2270TIP3   OH2 6773   2.861   5.322   5.269
 2270TIP3    H1 6774   2.872   5.265   5.345
 2270TIP3    H2 6775   2.878   5.266   5.193
 2271TIP3   OH2 6776   3.766   0.490   2.015
 2271TIP3    H1 6777   3.688   0.434   2.016
 2271TIP3    H2 6778   3.816   0.461   1.939
 2272TIP3   OH2 6779   3.388   2.043   0.892
 2272TIP3    H1 6780   3.433   2.126   0.875
 2272TIP3    H2 6781   3.297   2.059   0.868
 2273TIP3   OH2 6782   4.356   5.611   0.787
 2273TIP3    H1 6783   4.323   5.598   0.698
 2273TIP3    H2 6784   4.377   5.705   0.791
 2274TIP3   OH2 6785   1.434   2.659   1.946
 2274TIP3    H1 6786   1.494   2.718   1.902
 2274TIP3    H2 6787   1.460   2.571   1.917
 2275TIP3   OH2 6788   0.278   0.722   1.340
 2275TIP3    H1 6789   0.285   0.794   1.278
 2275TIP3    H2 6790   0.254   0.647   1.287
 2276TIP3   OH2 6791   4.143   5.938   3.684
 2276TIP3    H1 6792   4.118   5.853   3.648
 2276TIP3    H2 6793   4.194   5.980   3.615
 2277TIP3   OH2 6794   2.187   5.249   5.879
 2277TIP3    H1 6795   2.233   5.333   5.870
 2277TIP3    H2 6796   2.113   5.255   5.819
 2278TIP3   OH2 6797   6.561   5.552   4.345
 2278TIP3    H1 6798   6.649   5.516   4.334
 2278TIP3    H2 6799   6.568   5.643   4.314
 2279TIP3   OH2 6800   2.201   6.316   4.409
 2279TIP3    H1 6801   2.261   6.389   4.426
 2279TIP3    H2 6802   2.201   6.307   4.314
 2280TIP3   OH2 6803   0.714   0.640   0.189
 2280TIP3    H1 6804   0.639   0.582   0.204
 2280TIP3    H2 6805   0.764   0.598   0.119
 2281TIP3   OH2 6806   1.055   1.205   3.070
 2281TIP3    H1 6807   1.073   1.272   3.136
 2281TIP3    H2 6808   0.979   1.238   3.022
 2282TIP3   OH2 6809   6.815   0.853   2.024
 2282TIP3    H1 6810   6.738   0.863   1.967
 2282TIP3    H2 6811   6.871   0.927   2.001
 2283TIP3   OH2 6812   5.597   5.777   5.104
 2283TIP3    H1 6813   5.584   5.865   5.069
 2283TIP3    H2 6814   5.682   5.781   5.149
 2284TIP3   OH2 6815   2.326   5.195   0.882
 2284TIP3    H1 6816   2.334   5.100   0.892
 2284TIP3    H2 6817   2.262   5.221   0.949
 2285TIP3   OH2 6818   5.150   1.003   1.336
 2285TIP3    H1 6819   5.233   1.028   1.296
 2285TIP3    H2 6820   5.128   1.077   1.393
 2286TIP3   OH2 6821   6.233   1.134   2.261
 2286TIP3    H1 6822   6.252   1.089   2.179
 2286TIP3    H2 6823   6.286   1.214   2.257
 2287TIP3   OH2 6824   4.008   5.119   3.091
 2287TIP3    H1 6825   4.101   5.120   3.115
 2287TIP3    H2 6826   3.966   5.176   3.155
 2288TIP3   OH2 6827   3.187   0.165   4.258
 2288TIP3    H1 6828   3.171   0.247   4.304
 2288TIP3    H2 6829   3.282   0.164   4.244
 2289TIP3   OH2 6830   7.175   4.140   2.167
 2289TIP3    H1 6831   7.262   4.109   2.192
 2289TIP3    H2 6832   7.122   4.130   2.246
 2290TIP3   OH2 6833   2.466   0.858   1.026
 2290TIP3    H1 6834   2.556   0.873   1.056
 2290TIP3    H2 6835   2.468   0.881   0.933
 2291TIP3   OH2 6836   2.395   2.995   3.319
 2291TIP3    H1 6837   2.408   2.959   3.231
 2291TIP3    H2 6838   2.346   3.076   3.305
 2292TIP3   OH2 6839   3.872   1.142   4.658
 2292TIP3    H1 6840   3.860   1.200   4.732
 2292TIP3    H2 6841   3.882   1.055   4.696
 2293TIP3   OH2 6842   4.586   0.989   5.499
 2293TIP3    H1 6843   4.633   0.992   5.582
 2293TIP3    H2 6844   4.507   0.938   5.517
 2294TIP3   OH2 6845   6.429   5.434   3.921
 2294TIP3    H1 6846   6.493   5.363   3.923
 2294TIP3    H2 6847   6.456   5.488   3.847
 2295TIP3   OH2 6848   3.624   3.521   4.542
 2295TIP3    H1 6849   3.599   3.484   4.458
 2295TIP3    H2 6850   3.679   3.596   4.520
 2296TIP3   OH2 6851   1.791   0.684   1.517
 2296TIP3    H1 6852   1.864   0.623   1.516
 2296TIP3    H2 6853   1.798   0.727   1.602
 2297TIP3   OH2 6854   4.184   5.679   1.585
 2297TIP3    H1 6855   4.113   5.675   1.649
 2297TIP3    H2 6856   4.207   5.588   1.566
 2298TIP3   OH2 6857   5.276   0.018   4.409
 2298TIP3    H1 6858   5.355   0.023   4.464
 2298TIP3    H2 6859   5.246   0.108   4.402
 2299TIP3   OH2 6860   6.490   3.179   4.080
 2299TIP3    H1 6861   6.561   3.130   4.121
 2299TIP3    H2 6862   6.523   3.268   4.073
 2300TIP3   OH2 6863   4.061   5.322   3.511
 2300TIP3    H1 6864   4.108   5.356   3.434
 2300TIP3    H2 6865   4.126   5.270   3.558
 2301TIP3   OH2 6866   0.807   3.049   2.887
 2301TIP3    H1 6867   0.781   3.098   2.965
 2301TIP3    H2 6868   0.871   3.105   2.844
 2302TIP3   OH2 6869   1.175   0.264   2.489
 2302TIP3    H1 6870   1.224   0.226   2.561
 2302TIP3    H2 6871   1.240   0.313   2.439
 2303TIP3   OH2 6872   1.262   2.895   2.546
 2303TIP3    H1 6873   1.230   2.817   2.502
 2303TIP3    H2 6874   1.322   2.863   2.613
 2304TIP3   OH2 6875   6.149   2.478   3.523
 2304TIP3    H1 6876   6.086   2.461   3.454
 2304TIP3    H2 6877   6.123   2.563   3.559
 2305TIP3   OH2 6878   4.412   6.209   3.244
 2305TIP3    H1 6879   4.473   6.246   3.309
 2305TIP3    H2 6880   4.437   6.250   3.162
 2306TIP3   OH2 6881   6.376   2.079   2.548
 2306TIP3    H1 6882   6.319   2.134   2.495
 2306TIP3    H2 6883   6.430   2.031   2.485
 2307TIP3   OH2 6884   0.904   3.842   5.381
 2307TIP3    H1 6885   0.855   3.806   5.455
 2307TIP3    H2 6886   0.949   3.919   5.417
 2308TIP3   OH2 6887   0.350   5.489   5.286
 2308TIP3    H1 6888   0.339   5.428   5.213
 2308TIP3    H2 6889   0.330   5.437   5.364
 2309TIP3   OH2 6890   3.609   4.136   4.923
 2309TIP3    H1 6891   3.551   4.112   4.851
 2309TIP3    H2 6892   3.696   4.105   4.897
 2310TIP3   OH2 6893   2.299   1.191   4.185
 2310TIP3    H1 6894   2.215   1.236   4.196
 2310TIP3    H2 6895   2.312   1.189   4.090
 2311TIP3   OH2 6896   3.328   6.569   3.212
 2311TIP3    H1 6897   3.298   6.605   3.295
 2311TIP3    H2 6898   3.264   6.601   3.148
 2312TIP3   OH2 6899   3.396   0.412   0.979
 2312TIP3    H1 6900   3.324   0.350   0.986
 2312TIP3    H2 6901   3.353   0.498   0.976
 2313TIP3   OH2 6902   6.292   1.071   2.017
 2313TIP3    H1 6903   6.300   0.976   2.030
 2313TIP3    H2 6904   6.263   1.080   1.926
 2314TIP3   OH2 6905   3.254   5.945   1.590
 2314TIP3    H1 6906   3.240   6.012   1.656
 2314TIP3    H2 6907   3.299   5.874   1.637
 2315TIP3   OH2 6908   5.647   3.340   4.316
 2315TIP3    H1 6909   5.629   3.249   4.338
 2315TIP3    H2 6910   5.679   3.380   4.397
 2316TIP3   OH2 6911   3.308   3.358   1.915
 2316TIP3    H1 6912   3.286   3.290   1.978
 2316TIP3    H2 6913   3.371   3.318   1.856
 2317TIP3   OH2 6914   1.028   0.652   4.494
 2317TIP3    H1 6915   1.051   0.575   4.442
 2317TIP3    H2 6916   0.933   0.660   4.484
 2318TIP3   OH2 6917   4.957   4.057   3.375
 2318TIP3    H1 6918   5.050   4.073   3.357
 2318TIP3    H2 6919   4.954   3.967   3.407
 2319TIP3   OH2 6920   4.378   0.674   2.814
 2319TIP3    H1 6921   4.295   0.626   2.813
 2319TIP3    H2 6922   4.440   0.612   2.851
 2320TIP3   OH2 6923   1.598   4.992   3.359
 2320TIP3    H1 6924   1.662   4.981   3.288
 2320TIP3    H2 6925   1.548   5.069   3.333
 2321TIP3   OH2 6926   0.099   4.599   2.419
 2321TIP3    H1 6927   0.188   4.594   2.384
 2321TIP3    H2 6928   0.111   4.612   2.513
 2322TIP3   OH2 6929   1.298   5.250   4.147
 2322TIP3    H1 6930   1.255   5.184   4.092
 2322TIP3    H2 6931   1.339   5.310   4.085
 2323TIP3   OH2 6932   0.041   2.765   4.762
 2323TIP3    H1 6933  -0.032   2.814   4.725
 2323TIP3    H2 6934   0.049   2.799   4.851
 2324TIP3   OH2 6935   5.228   6.695   5.746
 2324TIP3    H1 6936   5.226   6.688   5.651
 2324TIP3    H2 6937   5.136   6.708   5.771
 2325TIP3   OH2 6938   2.601   2.167   1.143
 2325TIP3    H1 6939   2.615   2.256   1.178
 2325TIP3    H2 6940   2.538   2.128   1.203
 2326TIP3   OH2 6941   3.047   2.664   2.575
 2326TIP3    H1 6942   3.115   2.601   2.551
 2326TIP3    H2 6943   3.015   2.697   2.491
 2327TIP3   OH2 6944   0.047   5.777   5.679
 2327TIP3    H1 6945  -0.035   5.815   5.710
 2327TIP3    H2 6946   0.115   5.816   5.735
 2328TIP3   OH2 6947   5.383   1.066   0.901
 2328TIP3    H1 6948   5.328   1.109   0.967
 2328TIP3    H2 6949   5.324   1.048   0.828
 2329TIP3   OH2 6950   0.397   0.899   3.062
 2329TIP3    H1 6951   0.375   0.956   2.988
 2329TIP3    H2 6952   0.318   0.848   3.078
 2330TIP3   OH2 6953   5.451   3.709   3.611
 2330TIP3    H1 6954   5.391   3.777   3.578
 2330TIP3    H2 6955   5.512   3.694   3.539
 2331TIP3   OH2 6956   4.758   1.876   5.485
 2331TIP3    H1 6957   4.819   1.950   5.488
 2331TIP3    H2 6958   4.814   1.799   5.498
 2332TIP3   OH2 6959   4.154   0.573   3.393
 2332TIP3    H1 6960   4.068   0.560   3.352
 2332TIP3    H2 6961   4.141   0.645   3.455
 2333TIP3   OH2 6962   5.889   0.628   1.322
 2333TIP3    H1 6963   5.846   0.563   1.379
 2333TIP3    H2 6964   5.844   0.710   1.343
 2334TIP3   OH2 6965   4.928   6.172   3.291
 2334TIP3    H1 6966   4.995   6.175   3.359
 2334TIP3    H2 6967   4.881   6.256   3.300
 2335TIP3   OH2 6968   5.969   5.679   1.504
 2335TIP3    H1 6969   6.045   5.635   1.542
 2335TIP3    H2 6970   6.004   5.725   1.428
 2336TIP3   OH2 6971   0.011   0.365   1.857
 2336TIP3    H1 6972  -0.006   0.411   1.939
 2336TIP3    H2 6973   0.074   0.297   1.880
 2337TIP3   OH2 6974   2.392   0.814   1.694
 2337TIP3    H1 6975   2.457   0.746   1.674
 2337TIP3    H2 6976   2.308   0.773   1.676
 2338TIP3   OH2 6977   0.936   3.949   4.544
 2338TIP3    H1 6978   0.929   3.861   4.582
 2338TIP3    H2 6979   0.849   3.967   4.509
 2339TIP3   OH2 6980   6.280   3.632   0.675
 2339TIP3    H1 6981   6.300   3.696   0.743
 2339TIP3    H2 6982   6.343   3.561   0.688
 2340TIP3   OH2 6983   1.216   6.131   2.148
 2340TIP3    H1 6984   1.143   6.184   2.181
 2340TIP3    H2 6985   1.241   6.175   2.066
 2341TIP3   OH2 6986   2.618   1.433   5.376
 2341TIP3    H1 6987   2.670   1.502   5.417
 2341TIP3    H2 6988   2.568   1.478   5.308
 2342TIP3   OH2 6989   2.456   4.474   2.399
 2342TIP3    H1 6990   2.481   4.418   2.473
 2342TIP3    H2 6991   2.447   4.561   2.438
 2343TIP3   OH2 6992   4.572   3.694   1.622
 2343TIP3    H1 6993   4.598   3.690   1.715
 2343TIP3    H2 6994   4.484   3.655   1.621
 2344TIP3   OH2 6995   1.274   0.142   5.698
 2344TIP3    H1 6996   1.281   0.116   5.607
 2344TIP3    H2 6997   1.274   0.238   5.695
 2345TIP3   OH2 6998   2.293   0.473   5.811
 2345TIP3    H1 6999   2.239   0.471   5.891
 2345TIP3    H2 7000   2.327   0.562   5.808
 2346TIP3   OH2 7001   1.617   5.964   0.073
 2346TIP3    H1 7002   1.619   5.913  -0.007
 2346TIP3    H2 7003   1.556   5.917   0.130
 2347TIP3   OH2 7004   4.659   5.904   0.041
 2347TIP3    H1 7005   4.636   5.833  -0.018
 2347TIP3    H2 7006   4.590   5.969   0.028
 2348TIP3   OH2 7007   5.656   5.290   3.421
 2348TIP3    H1 7008   5.643   5.195   3.420
 2348TIP3    H2 7009   5.713   5.305   3.497
 2349TIP3   OH2 7010   0.637   6.333   4.381
 2349TIP3    H1 7011   0.584   6.396   4.431
 2349TIP3    H2 7012   0.721   6.331   4.427
 2350TIP3   OH2 7013   4.431   0.273   3.531
 2350TIP3    H1 7014   4.493   0.307   3.466
 2350TIP3    H2 7015   4.369   0.220   3.481
 2351TIP3   OH2 7016   5.100   0.873   5.016
 2351TIP3    H1 7017   5.109   0.904   4.926
 2351TIP3    H2 7018   5.167   0.805   5.025
 2352TIP3   OH2 7019   0.861   0.340   2.944
 2352TIP3    H1 7020   0.887   0.432   2.937
 2352TIP3    H2 7021   0.869   0.320   3.038
 2353TIP3   OH2 7022   6.537   4.348   2.065
 2353TIP3    H1 7023   6.568   4.432   2.030
 2353TIP3    H2 7024   6.575   4.344   2.153
 2354TIP3   OH2 7025   6.084   3.070   4.140
 2354TIP3    H1 7026   6.013   3.087   4.202
 2354TIP3    H2 7027   6.163   3.068   4.194
 2355TIP3   OH2 7028   1.350   1.411   2.783
 2355TIP3    H1 7029   1.273   1.374   2.741
 2355TIP3    H2 7030   1.323   1.498   2.811
 2356TIP3   OH2 7031   4.726   1.414   3.850
 2356TIP3    H1 7032   4.756   1.350   3.915
 2356TIP3    H2 7033   4.723   1.365   3.768
 2357TIP3   OH2 7034   1.376   0.731   4.881
 2357TIP3    H1 7035   1.404   0.822   4.882
 2357TIP3    H2 7036   1.298   0.731   4.825
 2358TIP3   OH2 7037   6.344   3.841   0.494
 2358TIP3    H1 7038   6.354   3.752   0.529
 2358TIP3    H2 7039   6.415   3.849   0.430
 2359TIP3   OH2 7040   5.119   0.158   5.172
 2359TIP3    H1 7041   5.127   0.186   5.263
 2359TIP3    H2 7042   5.034   0.194   5.144
 2360TIP3   OH2 7043   0.343   4.782   0.711
 2360TIP3    H1 7044   0.287   4.720   0.759
 2360TIP3    H2 7045   0.292   4.863   0.707
 2361TIP3   OH2 7046   4.292   1.743   1.509
 2361TIP3    H1 7047   4.345   1.766   1.585
 2361TIP3    H2 7048   4.353   1.745   1.435
 2362TIP3   OH2 7049   1.688   4.259  -0.008
 2362TIP3    H1 7050   1.697   4.169   0.022
 2362TIP3    H2 7051   1.777   4.292  -0.013
 2363TIP3   OH2 7052   6.680   2.227   2.328
 2363TIP3    H1 7053   6.721   2.215   2.414
 2363TIP3    H2 7054   6.601   2.174   2.331
 2364TIP3   OH2 7055   2.111   3.913   0.167
 2364TIP3    H1 7056   2.179   3.879   0.109
 2364TIP3    H2 7057   2.145   3.997   0.198
 2365TIP3   OH2 7058   5.889   2.423   0.319
 2365TIP3    H1 7059   5.971   2.393   0.280
 2365TIP3    H2 7060   5.916   2.481   0.390
 2366TIP3   OH2 7061   4.079   2.794   3.820
 2366TIP3    H1 7062   4.014   2.749   3.874
 2366TIP3    H2 7063   4.132   2.723   3.783
 2367TIP3   OH2 7064   7.153   0.263   0.018
 2367TIP3    H1 7065   7.216   0.323  -0.021
 2367TIP3    H2 7066   7.172   0.265   0.112
 2368TIP3   OH2 7067   3.557   4.436   1.781
 2368TIP3    H1 7068   3.643   4.406   1.751
 2368TIP3    H2 7069   3.495   4.377   1.738
 2369TIP3   OH2 7070   0.445   5.789   2.001
 2369TIP3    H1 7071   0.475   5.864   1.951
 2369TIP3    H2 7072   0.486   5.714   1.957
 2370TIP3   OH2 7073   1.209   3.830   0.760
 2370TIP3    H1 7074   1.222   3.769   0.832
 2370TIP3    H2 7075   1.229   3.779   0.681
 2371TIP3   OH2 7076   3.523   2.293   2.089
 2371TIP3    H1 7077   3.429   2.305   2.072
 2371TIP3    H2 7078   3.565   2.322   2.008
 2372TIP3   OH2 7079   6.702   3.331   2.483
 2372TIP3    H1 7080   6.620   3.287   2.505
 2372TIP3    H2 7081   6.756   3.322   2.562
 2373TIP3   OH2 7082   7.106   1.022   5.468
 2373TIP3    H1 7083   7.138   0.951   5.413
 2373TIP3    H2 7084   7.029   0.987   5.512
 2374TIP3   OH2 7085   6.724   4.898   0.160
 2374TIP3    H1 7086   6.717   4.965   0.228
 2374TIP3    H2 7087   6.754   4.946   0.082
 2375TIP3   OH2 7088   1.236   1.896   1.751
 2375TIP3    H1 7089   1.303   1.902   1.819
 2375TIP3    H2 7090   1.286   1.877   1.671
 2376TIP3   OH2 7091   3.917   3.257   2.952
 2376TIP3    H1 7092   3.984   3.296   2.896
 2376TIP3    H2 7093   3.951   3.266   3.041
 2377TIP3   OH2 7094   5.753   0.855   5.061
 2377TIP3    H1 7095   5.785   0.832   4.973
 2377TIP3    H2 7096   5.829   0.894   5.104
 2378TIP3   OH2 7097   0.538   1.083   2.726
 2378TIP3    H1 7098   0.604   1.149   2.708
 2378TIP3    H2 7099   0.584   0.999   2.717
 2379TIP3   OH2 7100   2.440   4.443   4.845
 2379TIP3    H1 7101   2.382   4.409   4.777
 2379TIP3    H2 7102   2.464   4.531   4.813
 2380TIP3   OH2 7103   2.413   2.964   0.824
 2380TIP3    H1 7104   2.457   2.884   0.852
 2380TIP3    H2 7105   2.407   3.017   0.904
 2381TIP3   OH2 7106   3.580   0.800   2.048
 2381TIP3    H1 7107   3.668   0.813   2.083
 2381TIP3    H2 7108   3.525   0.789   2.125
 2382TIP3   OH2 7109   7.142   0.865   5.054
 2382TIP3    H1 7110   7.218   0.825   5.095
 2382TIP3    H2 7111   7.143   0.832   4.964
 2383TIP3   OH2 7112   4.299   0.972   5.751
 2383TIP3    H1 7113   4.307   0.879   5.776
 2383TIP3    H2 7114   4.295   0.971   5.656
 2384TIP3   OH2 7115   6.624   2.263   2.718
 2384TIP3    H1 7116   6.643   2.309   2.800
 2384TIP3    H2 7117   6.535   2.292   2.695
 2385TIP3   OH2 7118   6.834   4.202   4.197
 2385TIP3    H1 7119   6.841   4.266   4.268
 2385TIP3    H2 7120   6.900   4.136   4.216
 2386TIP3   OH2 7121   0.454   5.422   0.776
 2386TIP3    H1 7122   0.405   5.503   0.770
 2386TIP3    H2 7123   0.388   5.353   0.774
 2387TIP3   OH2 7124   1.390   4.928   0.372
 2387TIP3    H1 7125   1.361   4.839   0.390
 2387TIP3    H2 7126   1.485   4.925   0.383
 2388TIP3   OH2 7127   3.080   1.689   1.338
 2388TIP3    H1 7128   3.061   1.624   1.405
 2388TIP3    H2 7129   3.023   1.666   1.265
 2389TIP3   OH2 7130   1.677   3.350   4.278
 2389TIP3    H1 7131   1.769   3.378   4.271
 2389TIP3    H2 7132   1.682   3.257   4.298
 2390TIP3   OH2 7133   6.859   3.940   1.963
 2390TIP3    H1 7134   6.777   3.899   1.989
 2390TIP3    H2 7135   6.866   4.017   2.018
 2391TIP3   OH2 7136   3.018   6.387   3.626
 2391TIP3    H1 7137   2.976   6.434   3.698
 2391TIP3    H2 7138   2.949   6.328   3.593
 2392TIP3   OH2 7139   6.211   4.280   4.504
 2392TIP3    H1 7140   6.232   4.250   4.415
 2392TIP3    H2 7141   6.201   4.199   4.554
 2393TIP3   OH2 7142   3.024   2.255   3.161
 2393TIP3    H1 7143   3.004   2.298   3.077
 2393TIP3    H2 7144   3.046   2.327   3.220
 2394TIP3   OH2 7145   6.612   0.142   2.859
 2394TIP3    H1 7146   6.680   0.124   2.794
 2394TIP3    H2 7147   6.653   0.203   2.920
 2395TIP3   OH2 7148   0.207   0.848   3.819
 2395TIP3    H1 7149   0.205   0.753   3.832
 2395TIP3    H2 7150   0.122   0.869   3.781
 2396TIP3   OH2 7151   7.060   6.312   4.617
 2396TIP3    H1 7152   7.149   6.336   4.589
 2396TIP3    H2 7153   7.030   6.388   4.667
 2397TIP3   OH2 7154   5.902   3.027   3.376
 2397TIP3    H1 7155   5.904   2.931   3.377
 2397TIP3    H2 7156   5.993   3.053   3.361
 2398TIP3   OH2 7157   6.328   4.336   1.593
 2398TIP3    H1 7158   6.408   4.287   1.576
 2398TIP3    H2 7159   6.259   4.269   1.592
 2399TIP3   OH2 7160   1.642   4.114   1.380
 2399TIP3    H1 7161   1.582   4.183   1.410
 2399TIP3    H2 7162   1.587   4.036   1.376
 2400TIP3   OH2 7163   5.332   5.578   4.253
 2400TIP3    H1 7164   5.337   5.640   4.181
 2400TIP3    H2 7165   5.365   5.626   4.329
 2401TIP3   OH2 7166   6.294   6.648   5.544
 2401TIP3    H1 7167   6.351   6.702   5.598
 2401TIP3    H2 7168   6.339   6.564   5.537
 2402TIP3   OH2 7169   2.942   5.624   2.001
 2402TIP3    H1 7170   2.930   5.698   2.061
 2402TIP3    H2 7171   2.983   5.557   2.055
 2403TIP3   OH2 7172   6.522   2.945   0.127
 2403TIP3    H1 7173   6.604   2.994   0.140
 2403TIP3    H2 7174   6.548   2.853   0.131
 2404TIP3   OH2 7175   4.864   1.445   2.268
 2404TIP3    H1 7176   4.940   1.388   2.279
 2404TIP3    H2 7177   4.792   1.399   2.312
 2405TIP3   OH2 7178   2.276   1.874   3.759
 2405TIP3    H1 7179   2.312   1.961   3.740
 2405TIP3    H2 7180   2.235   1.847   3.677
 2406TIP3   OH2 7181   2.142   6.581   3.516
 2406TIP3    H1 7182   2.217   6.532   3.481
 2406TIP3    H2 7183   2.180   6.637   3.583
 2407TIP3   OH2 7184   1.984   3.750   1.685
 2407TIP3    H1 7185   1.928   3.793   1.749
 2407TIP3    H2 7186   2.050   3.704   1.737
 2408TIP3   OH2 7187   2.076   1.826   0.672
 2408TIP3    H1 7188   2.076   1.918   0.645
 2408TIP3    H2 7189   2.156   1.790   0.634
 2409TIP3   OH2 7190   2.034   6.738   5.902
 2409TIP3    H1 7191   2.050   6.666   5.841
 2409TIP3    H2 7192   1.945   6.767   5.881
 2410TIP3   OH2 7193   6.157   5.840   5.579
 2410TIP3    H1 7194   6.213   5.778   5.625
 2410TIP3    H2 7195   6.094   5.869   5.645
 2411TIP3   OH2 7196   5.064   0.971   2.048
 2411TIP3    H1 7197   5.064   0.938   2.138
 2411TIP3    H2 7198   5.111   0.904   1.998
 2412TIP3   OH2 7199   7.044   6.703   5.005
 2412TIP3    H1 7200   7.096   6.625   5.019
 2412TIP3    H2 7201   7.064   6.759   5.080
 2413TIP3   OH2 7202   1.009   4.603   5.793
 2413TIP3    H1 7203   1.024   4.642   5.879
 2413TIP3    H2 7204   0.914   4.611   5.779
 2414TIP3   OH2 7205   3.323   3.805   5.293
 2414TIP3    H1 7206   3.291   3.726   5.336
 2414TIP3    H2 7207   3.322   3.783   5.199
 2415TIP3   OH2 7208   5.456   0.495   3.557
 2415TIP3    H1 7209   5.435   0.551   3.632
 2415TIP3    H2 7210   5.445   0.551   3.481
 2416TIP3   OH2 7211   1.399   5.223   2.701
 2416TIP3    H1 7212   1.322   5.236   2.646
 2416TIP3    H2 7213   1.371   5.249   2.789
 2417TIP3   OH2 7214   0.577   3.769   2.624
 2417TIP3    H1 7215   0.561   3.796   2.714
 2417TIP3    H2 7216   0.582   3.674   2.628
 2418TIP3   OH2 7217   0.451   5.711   0.292
 2418TIP3    H1 7218   0.387   5.774   0.324
 2418TIP3    H2 7219   0.439   5.634   0.348
 2419TIP3   OH2 7220   2.691   5.883   3.606
 2419TIP3    H1 7221   2.648   5.798   3.616
 2419TIP3    H2 7222   2.664   5.914   3.520
 2420TIP3   OH2 7223   1.375   6.454   5.622
 2420TIP3    H1 7224   1.382   6.549   5.624
 2420TIP3    H2 7225   1.290   6.437   5.582
 2421TIP3   OH2 7226   3.156   4.058   3.473
 2421TIP3    H1 7227   3.234   4.004   3.480
 2421TIP3    H2 7228   3.184   4.145   3.503
 2422TIP3   OH2 7229   0.336   3.595   5.167
 2422TIP3    H1 7230   0.284   3.521   5.198
 2422TIP3    H2 7231   0.272   3.664   5.149
 2423TIP3   OH2 7232   4.362   0.934   0.312
 2423TIP3    H1 7233   4.307   0.907   0.385
 2423TIP3    H2 7234   4.448   0.949   0.349
 2424TIP3   OH2 7235   1.995   2.819   3.590
 2424TIP3    H1 7236   2.019   2.851   3.503
 2424TIP3    H2 7237   2.017   2.891   3.649
 2425TIP3   OH2 7238   0.064   4.823   1.032
 2425TIP3    H1 7239  -0.003   4.838   0.964
 2425TIP3    H2 7240   0.142   4.867   0.998
 2426TIP3   OH2 7241   4.644   2.097   5.060
 2426TIP3    H1 7242   4.662   2.027   4.998
 2426TIP3    H2 7243   4.553   2.083   5.086
 2427TIP3   OH2 7244   5.407   6.594   0.712
 2427TIP3    H1 7245   5.426   6.679   0.673
 2427TIP3    H2 7246   5.341   6.555   0.656
 2428TIP3   OH2 7247   4.190   4.194   4.730
 2428TIP3    H1 7248   4.193   4.264   4.665
 2428TIP3    H2 7249   4.132   4.226   4.799
 2429TIP3   OH2 7250   5.958   2.198   3.214
 2429TIP3    H1 7251   5.871   2.160   3.198
 2429TIP3    H2 7252   5.998   2.203   3.127
 2430TIP3   OH2 7253   5.614   0.966   4.708
 2430TIP3    H1 7254   5.583   0.987   4.620
 2430TIP3    H2 7255   5.539   0.983   4.765
 2431TIP3   OH2 7256   2.029   4.704   5.606
 2431TIP3    H1 7257   1.993   4.681   5.691
 2431TIP3    H2 7258   2.053   4.620   5.567
 2432TIP3   OH2 7259   2.395   5.165   1.149
 2432TIP3    H1 7260   2.431   5.080   1.121
 2432TIP3    H2 7261   2.471   5.212   1.183
 2433TIP3   OH2 7262   0.104   3.985   4.168
 2433TIP3    H1 7263   0.054   4.040   4.108
 2433TIP3    H2 7264   0.108   3.900   4.124
 2434TIP3   OH2 7265   3.188   2.084   4.281
 2434TIP3    H1 7266   3.164   2.123   4.365
 2434TIP3    H2 7267   3.269   2.038   4.299
 2435TIP3   OH2 7268   4.553   6.546   4.678
 2435TIP3    H1 7269   4.493   6.484   4.637
 2435TIP3    H2 7270   4.638   6.501   4.679
 2436TIP3   OH2 7271   5.290   0.760   0.291
 2436TIP3    H1 7272   5.380   0.743   0.318
 2436TIP3    H2 7273   5.263   0.836   0.343
 2437TIP3   OH2 7274   0.925   6.205   1.955
 2437TIP3    H1 7275   1.015   6.208   1.921
 2437TIP3    H2 7276   0.876   6.261   1.895
 2438TIP3   OH2 7277   4.085   1.669   5.393
 2438TIP3    H1 7278   4.014   1.652   5.331
 2438TIP3    H2 7279   4.053   1.741   5.447
 2439TIP3   OH2 7280   1.782   4.172   2.144
 2439TIP3    H1 7281   1.864   4.125   2.152
 2439TIP3    H2 7282   1.790   4.220   2.062
 2440TIP3   OH2 7283   1.524   4.710   3.983
 2440TIP3    H1 7284   1.464   4.754   3.923
 2440TIP3    H2 7285   1.593   4.773   3.999
 2441TIP3   OH2 7286   3.081   5.460   3.771
 2441TIP3    H1 7287   2.995   5.490   3.743
 2441TIP3    H2 7288   3.108   5.397   3.704
 2442TIP3   OH2 7289   6.759   1.694   4.351
 2442TIP3    H1 7290   6.788   1.694   4.259
 2442TIP3    H2 7291   6.680   1.640   4.351
 2443TIP3   OH2 7292   3.168   1.583   0.053
 2443TIP3    H1 7293   3.081   1.580   0.091
 2443TIP3    H2 7294   3.181   1.496   0.016
 2444TIP3   OH2 7295   5.881   4.377   2.903
 2444TIP3    H1 7296   5.921   4.451   2.947
 2444TIP3    H2 7297   5.955   4.328   2.867
 2445TIP3   OH2 7298   1.627   3.262   5.554
 2445TIP3    H1 7299   1.681   3.188   5.582
 2445TIP3    H2 7300   1.691   3.331   5.533
 2446TIP3   OH2 7301   6.797   4.435   0.654
 2446TIP3    H1 7302   6.773   4.350   0.615
 2446TIP3    H2 7303   6.724   4.456   0.712
 2447TIP3   OH2 7304   5.711   6.020   0.240
 2447TIP3    H1 7305   5.770   5.955   0.279
 2447TIP3    H2 7306   5.630   6.011   0.289
 2448TIP3   OH2 7307   5.195   2.350   2.224
 2448TIP3    H1 7308   5.258   2.288   2.188
 2448TIP3    H2 7309   5.113   2.301   2.228
 2449TIP3   OH2 7310   2.621   1.381   2.523
 2449TIP3    H1 7311   2.642   1.443   2.593
 2449TIP3    H2 7312   2.684   1.310   2.535
 2450TIP3   OH2 7313   6.197   1.701   2.629
 2450TIP3    H1 7314   6.281   1.746   2.641
 2450TIP3    H2 7315   6.138   1.743   2.692
 2451TIP3   OH2 7316   3.640   5.228   1.277
 2451TIP3    H1 7317   3.554   5.187   1.279
 2451TIP3    H2 7318   3.697   5.162   1.236
 2452TIP3   OH2 7319   1.816   6.150   3.337
 2452TIP3    H1 7320   1.817   6.060   3.304
 2452TIP3    H2 7321   1.815   6.205   3.258
 2453TIP3   OH2 7322   5.951   1.544   3.181
 2453TIP3    H1 7323   6.023   1.568   3.240
 2453TIP3    H2 7324   5.992   1.537   3.095
 2454TIP3   OH2 7325   5.000   2.921   2.330
 2454TIP3    H1 7326   5.071   2.865   2.299
 2454TIP3    H2 7327   5.042   2.978   2.396
 2455TIP3   OH2 7328   5.043   2.996   0.526
 2455TIP3    H1 7329   5.108   2.926   0.534
 2455TIP3    H2 7330   5.086   3.073   0.562
 2456TIP3   OH2 7331   4.362   5.604   3.938
 2456TIP3    H1 7332   4.393   5.609   4.028
 2456TIP3    H2 7333   4.279   5.556   3.944
 2457TIP3   OH2 7334   1.319   0.278   2.111
 2457TIP3    H1 7335   1.353   0.368   2.120
 2457TIP3    H2 7336   1.234   0.289   2.069
 2458TIP3   OH2 7337   0.501   4.519   5.658
 2458TIP3    H1 7338   0.513   4.488   5.568
 2458TIP3    H2 7339   0.440   4.592   5.651
 2459TIP3   OH2 7340   1.347   0.546   2.158
 2459TIP3    H1 7341   1.253   0.559   2.145
 2459TIP3    H2 7342   1.379   0.630   2.191
 2460TIP3   OH2 7343   6.046   4.519   0.429
 2460TIP3    H1 7344   6.101   4.488   0.357
 2460TIP3    H2 7345   6.092   4.595   0.464
 2461TIP3   OH2 7346   1.062   0.389   0.492
 2461TIP3    H1 7347   1.048   0.301   0.459
 2461TIP3    H2 7348   0.989   0.440   0.458
 2462TIP3   OH2 7349   7.063   1.176   2.313
 2462TIP3    H1 7350   7.145   1.222   2.330
 2462TIP3    H2 7351   7.091   1.089   2.283
 2463TIP3   OH2 7352   5.336   5.716   1.091
 2463TIP3    H1 7353   5.367   5.772   1.020
 2463TIP3    H2 7354   5.316   5.777   1.162
 2464TIP3   OH2 7355   0.070   5.543   4.195
 2464TIP3    H1 7356   0.033   5.625   4.163
 2464TIP3    H2 7357   0.021   5.524   4.275
 2465TIP3   OH2 7358   6.769   3.043   5.826
 2465TIP3    H1 7359   6.697   3.046   5.889
 2465TIP3    H2 7360   6.844   3.080   5.873
 2466TIP3   OH2 7361   1.974   5.062   5.055
 2466TIP3    H1 7362   1.984   5.032   4.965
 2466TIP3    H2 7363   1.922   5.143   5.048
 2467TIP3   OH2 7364   4.409   5.855   5.829
 2467TIP3    H1 7365   4.482   5.915   5.813
 2467TIP3    H2 7366   4.418   5.786   5.763
 2468TIP3   OH2 7367   0.559   2.420   4.325
 2468TIP3    H1 7368   0.610   2.392   4.401
 2468TIP3    H2 7369   0.468   2.405   4.350
 2469TIP3   OH2 7370   1.244   0.214   3.402
 2469TIP3    H1 7371   1.208   0.150   3.341
 2469TIP3    H2 7372   1.324   0.245   3.360
 2470TIP3   OH2 7373   1.046   2.156   0.294
 2470TIP3    H1 7374   1.065   2.064   0.272
 2470TIP3    H2 7375   1.125   2.186   0.341
 2471TIP3   OH2 7376   6.736   5.639   4.959
 2471TIP3    H1 7377   6.661   5.660   4.904
 2471TIP3    H2 7378   6.812   5.651   4.901
 2472TIP3   OH2 7379   0.798   0.140   1.594
 2472TIP3    H1 7380   0.712   0.179   1.607
 2472TIP3    H2 7381   0.808   0.080   1.669
 2473TIP3   OH2 7382   5.651   3.842   2.865
 2473TIP3    H1 7383   5.719   3.777   2.849
 2473TIP3    H2 7384   5.695   3.912   2.913
 2474TIP3   OH2 7385   3.016   2.704   5.896
 2474TIP3    H1 7386   2.932   2.720   5.853
 2474TIP3    H2 7387   3.021   2.609   5.906
 2475TIP3   OH2 7388   0.958   6.017   0.668
 2475TIP3    H1 7389   0.890   5.952   0.653
 2475TIP3    H2 7390   1.008   5.984   0.742
 2476TIP3   OH2 7391   0.748   5.191   1.925
 2476TIP3    H1 7392   0.814   5.246   1.965
 2476TIP3    H2 7393   0.783   5.170   1.838
 2477TIP3   OH2 7394   1.143   1.353   0.433
 2477TIP3    H1 7395   1.105   1.424   0.380
 2477TIP3    H2 7396   1.228   1.336   0.392
 2478TIP3   OH2 7397   6.984   5.689   4.180
 2478TIP3    H1 7398   6.976   5.613   4.238
 2478TIP3    H2 7399   6.897   5.697   4.141
 2479TIP3   OH2 7400   0.441   2.108   4.611
 2479TIP3    H1 7401   0.352   2.135   4.589
 2479TIP3    H2 7402   0.437   2.012   4.612
 2480TIP3   OH2 7403   6.826   3.588   1.189
 2480TIP3    H1 7404   6.810   3.590   1.095
 2480TIP3    H2 7405   6.790   3.504   1.218
 2481TIP3   OH2 7406   5.881   6.437   4.042
 2481TIP3    H1 7407   5.891   6.387   4.124
 2481TIP3    H2 7408   5.881   6.528   4.070
 2482TIP3   OH2 7409   1.167   6.484   5.438
 2482TIP3    H1 7410   1.215   6.551   5.390
 2482TIP3    H2 7411   1.093   6.530   5.477
 2483TIP3   OH2 7412   1.238   2.288   4.790
 2483TIP3    H1 7413   1.175   2.336   4.736
 2483TIP3    H2 7414   1.199   2.202   4.803
 2484TIP3   OH2 7415   1.739   1.064   4.759
 2484TIP3    H1 7416   1.774   1.080   4.671
 2484TIP3    H2 7417   1.804   1.009   4.801
 2485TIP3   OH2 7418   5.595   4.759   1.498
 2485TIP3    H1 7419   5.621   4.805   1.418
 2485TIP3    H2 7420   5.553   4.679   1.467
 2486TIP3   OH2 7421   2.761   0.935   1.571
 2486TIP3    H1 7422   2.736   0.912   1.661
 2486TIP3    H2 7423   2.688   0.904   1.517
 2487TIP3   OH2 7424   6.319   2.989   2.759
 2487TIP3    H1 7425   6.227   2.980   2.785
 2487TIP3    H2 7426   6.368   2.943   2.827
 2488TIP3   OH2 7427   5.551   6.492   4.384
 2488TIP3    H1 7428   5.553   6.581   4.350
 2488TIP3    H2 7429   5.495   6.497   4.462
 2489TIP3   OH2 7430   5.575   4.927   2.333
 2489TIP3    H1 7431   5.542   4.909   2.421
 2489TIP3    H2 7432   5.656   4.975   2.347
 2490TIP3   OH2 7433   4.738   2.487   5.668
 2490TIP3    H1 7434   4.789   2.470   5.589
 2490TIP3    H2 7435   4.741   2.404   5.716
 2491TIP3   OH2 7436   3.332   6.372   3.995
 2491TIP3    H1 7437   3.249   6.383   3.949
 2491TIP3    H2 7438   3.398   6.365   3.927
 2492TIP3   OH2 7439   1.736   2.051   1.005
 2492TIP3    H1 7440   1.713   2.011   1.088
 2492TIP3    H2 7441   1.797   1.990   0.964
 2493TIP3   OH2 7442   6.901   1.242   5.363
 2493TIP3    H1 7443   6.863   1.244   5.275
 2493TIP3    H2 7444   6.985   1.288   5.354
 2494TIP3   OH2 7445   0.153   6.440   5.632
 2494TIP3    H1 7446   0.078   6.380   5.637
 2494TIP3    H2 7447   0.114   6.526   5.617
 2495TIP3   OH2 7448   7.134   5.175   3.987
 2495TIP3    H1 7449   7.143   5.225   4.068
 2495TIP3    H2 7450   7.205   5.111   3.991
 2496TIP3   OH2 7451   2.933   3.553   2.106
 2496TIP3    H1 7452   2.886   3.579   2.186
 2496TIP3    H2 7453   2.967   3.634   2.070
 2497TIP3   OH2 7454   4.714   4.431   2.893
 2497TIP3    H1 7455   4.709   4.478   2.976
 2497TIP3    H2 7456   4.623   4.408   2.875
 2498TIP3   OH2 7457   3.658   3.724   3.353
 2498TIP3    H1 7458   3.591   3.683   3.299
 2498TIP3    H2 7459   3.667   3.813   3.317
 2499TIP3   OH2 7460   7.019   3.401   2.465
 2499TIP3    H1 7461   7.007   3.373   2.374
 2499TIP3    H2 7462   6.976   3.334   2.517
 2500TIP3   OH2 7463   1.467   5.785   5.879
 2500TIP3    H1 7464   1.475   5.820   5.790
 2500TIP3    H2 7465   1.532   5.833   5.930
 2501TIP3   OH2 7466   3.457   3.300   4.778
 2501TIP3    H1 7467   3.475   3.227   4.837
 2501TIP3    H2 7468   3.414   3.365   4.834
 2502TIP3   OH2 7469   3.898   6.761   2.870
 2502TIP3    H1 7470   3.850   6.840   2.894
 2502TIP3    H2 7471   3.977   6.763   2.924
 2503TIP3   OH2 7472   5.687   3.774   3.827
 2503TIP3    H1 7473   5.757   3.777   3.762
 2503TIP3    H2 7474   5.612   3.814   3.783
 2504TIP3   OH2 7475   3.812   5.938   1.682
 2504TIP3    H1 7476   3.801   5.850   1.718
 2504TIP3    H2 7477   3.724   5.963   1.654
 2505TIP3   OH2 7478   4.500   2.090   3.976
 2505TIP3    H1 7479   4.427   2.116   4.032
 2505TIP3    H2 7480   4.464   2.020   3.921
 2506TIP3   OH2 7481   5.879   3.119   0.713
 2506TIP3    H1 7482   5.806   3.180   0.718
 2506TIP3    H2 7483   5.868   3.075   0.629
 2507TIP3   OH2 7484   3.495   3.455   3.849
 2507TIP3    H1 7485   3.494   3.360   3.836
 2507TIP3    H2 7486   3.550   3.489   3.778
 2508TIP3   OH2 7487   2.511   2.845   3.995
 2508TIP3    H1 7488   2.542   2.796   3.919
 2508TIP3    H2 7489   2.581   2.908   4.013
 2509TIP3   OH2 7490   3.209   0.608   2.189
 2509TIP3    H1 7491   3.177   0.517   2.190
 2509TIP3    H2 7492   3.276   0.608   2.121
 2510TIP3   OH2 7493   0.955   4.107   0.003
 2510TIP3    H1 7494   1.035   4.156   0.023
 2510TIP3    H2 7495   0.899   4.121   0.079
 2511TIP3   OH2 7496   1.569   6.163   1.911
 2511TIP3    H1 7497   1.575   6.075   1.875
 2511TIP3    H2 7498   1.513   6.210   1.849
 2512TIP3   OH2 7499   5.077   5.393   4.168
 2512TIP3    H1 7500   5.149   5.341   4.204
 2512TIP3    H2 7501   5.119   5.456   4.110
 2513TIP3   OH2 7502   2.104   2.494   3.820
 2513TIP3    H1 7503   2.092   2.489   3.725
 2513TIP3    H2 7504   2.016   2.481   3.856
 2514TIP3   OH2 7505   0.635   1.665   3.861
 2514TIP3    H1 7506   0.694   1.718   3.807
 2514TIP3    H2 7507   0.673   1.577   3.859
 2515TIP3   OH2 7508   1.795   0.959   5.351
 2515TIP3    H1 7509   1.784   1.031   5.288
 2515TIP3    H2 7510   1.738   0.890   5.319
 2516TIP3   OH2 7511   4.833   1.779   1.722
 2516TIP3    H1 7512   4.796   1.793   1.635
 2516TIP3    H2 7513   4.806   1.690   1.746
 2517TIP3   OH2 7514   0.170   4.934   3.918
 2517TIP3    H1 7515   0.239   4.872   3.895
 2517TIP3    H2 7516   0.202   4.979   3.996
 2518TIP3   OH2 7517   5.679   6.288   2.100
 2518TIP3    H1 7518   5.741   6.353   2.068
 2518TIP3    H2 7519   5.694   6.211   2.044
 2519TIP3   OH2 7520   4.446   4.243   3.837
 2519TIP3    H1 7521   4.516   4.237   3.772
 2519TIP3    H2 7522   4.488   4.284   3.913
 2520TIP3   OH2 7523   1.666   3.931   1.627
 2520TIP3    H1 7524   1.666   3.993   1.699
 2520TIP3    H2 7525   1.694   3.982   1.551
 2521TIP3   OH2 7526   2.507   6.260   5.200
 2521TIP3    H1 7527   2.494   6.275   5.294
 2521TIP3    H2 7528   2.576   6.195   5.195
 2522TIP3   OH2 7529   4.088   2.616   5.114
 2522TIP3    H1 7530   4.120   2.568   5.038
 2522TIP3    H2 7531   4.124   2.704   5.104
 2523TIP3   OH2 7532   5.705   0.793   1.089
 2523TIP3    H1 7533   5.735   0.843   1.165
 2523TIP3    H2 7534   5.724   0.702   1.111
 2524TIP3   OH2 7535   5.082   5.233   4.626
 2524TIP3    H1 7536   5.087   5.159   4.565
 2524TIP3    H2 7537   5.075   5.192   4.712
 2525TIP3   OH2 7538   5.551   3.844   4.205
 2525TIP3    H1 7539   5.503   3.766   4.233
 2525TIP3    H2 7540   5.558   3.897   4.285
 2526TIP3   OH2 7541   2.190   6.121   0.931
 2526TIP3    H1 7542   2.097   6.112   0.911
 2526TIP3    H2 7543   2.232   6.051   0.881
 2527TIP3   OH2 7544   1.180   1.055   4.936
 2527TIP3    H1 7545   1.097   1.019   4.904
 2527TIP3    H2 7546   1.154   1.129   4.991
 2528TIP3   OH2 7547   0.496   5.835   1.331
 2528TIP3    H1 7548   0.475   5.833   1.424
 2528TIP3    H2 7549   0.534   5.921   1.316
 2529TIP3   OH2 7550   5.768   4.996   0.365
 2529TIP3    H1 7551   5.743   5.000   0.458
 2529TIP3    H2 7552   5.765   4.903   0.343
 2530TIP3   OH2 7553   7.096   2.926   3.607
 2530TIP3    H1 7554   7.039   3.003   3.607
 2530TIP3    H2 7555   7.064   2.872   3.679
 2531TIP3   OH2 7556   1.545   1.851   2.493
 2531TIP3    H1 7557   1.591   1.935   2.482
 2531TIP3    H2 7558   1.567   1.824   2.582
 2532TIP3   OH2 7559   6.286   4.086   3.514
 2532TIP3    H1 7560   6.200   4.044   3.514
 2532TIP3    H2 7561   6.271   4.172   3.475
 2533TIP3   OH2 7562   4.188   2.554   0.829
 2533TIP3    H1 7563   4.203   2.467   0.792
 2533TIP3    H2 7564   4.276   2.590   0.841
 2534TIP3   OH2 7565   0.246   2.314   1.170
 2534TIP3    H1 7566   0.297   2.396   1.165
 2534TIP3    H2 7567   0.215   2.311   1.261
 2535TIP3   OH2 7568   4.818   3.714   4.908
 2535TIP3    H1 7569   4.841   3.801   4.875
 2535TIP3    H2 7570   4.897   3.685   4.955
 2536TIP3   OH2 7571   6.690   5.803   5.696
 2536TIP3    H1 7572   6.697   5.831   5.788
 2536TIP3    H2 7573   6.605   5.837   5.667
 2537TIP3   OH2 7574   7.065   5.126   2.242
 2537TIP3    H1 7575   6.994   5.065   2.219
 2537TIP3    H2 7576   7.044   5.153   2.332
 2538TIP3   OH2 7577   4.273   3.644   1.942
 2538TIP3    H1 7578   4.182   3.671   1.949
 2538TIP3    H2 7579   4.286   3.581   2.012
 2539TIP3   OH2 7580   1.846   2.300   0.185
 2539TIP3    H1 7581   1.815   2.265   0.269
 2539TIP3    H2 7582   1.846   2.225   0.126
 2540TIP3   OH2 7583   6.478   5.752   5.355
 2540TIP3    H1 7584   6.389   5.744   5.318
 2540TIP3    H2 7585   6.484   5.681   5.418
 2541TIP3   OH2 7586   4.199   0.613   4.569
 2541TIP3    H1 7587   4.125   0.652   4.523
 2541TIP3    H2 7588   4.201   0.656   4.654
 2542TIP3   OH2 7589   2.873   1.767   3.944
 2542TIP3    H1 7590   2.941   1.701   3.933
 2542TIP3    H2 7591   2.845   1.788   3.855
 2543TIP3   OH2 7592   1.127   1.726   4.752
 2543TIP3    H1 7593   1.032   1.717   4.765
 2543TIP3    H2 7594   1.136   1.783   4.677
 2544TIP3   OH2 7595   6.201   4.569   5.448
 2544TIP3    H1 7596   6.183   4.525   5.364
 2544TIP3    H2 7597   6.253   4.506   5.497
 2545TIP3   OH2 7598   7.021   2.040   5.546
 2545TIP3    H1 7599   7.065   2.110   5.595
 2545TIP3    H2 7600   6.979   1.987   5.614
 2546TIP3   OH2 7601   1.510   0.987   3.922
 2546TIP3    H1 7602   1.497   1.001   3.828
 2546TIP3    H2 7603   1.479   0.897   3.937
 2547TIP3   OH2 7604   4.179   0.315   5.868
 2547TIP3    H1 7605   4.153   0.396   5.825
 2547TIP3    H2 7606   4.243   0.275   5.809
 2548TIP3   OH2 7607   3.762   0.995   5.772
 2548TIP3    H1 7608   3.771   1.088   5.795
 2548TIP3    H2 7609   3.840   0.975   5.720
 2549TIP3   OH2 7610   4.266   2.215   2.490
 2549TIP3    H1 7611   4.301   2.234   2.403
 2549TIP3    H2 7612   4.232   2.299   2.521
 2550TIP3   OH2 7613   6.011   3.687   4.288
 2550TIP3    H1 7614   5.986   3.601   4.256
 2550TIP3    H2 7615   5.974   3.748   4.225
 2551TIP3   OH2 7616   7.124   2.936   0.227
 2551TIP3    H1 7617   7.210   2.903   0.199
 2551TIP3    H2 7618   7.144   3.006   0.289
 2552TIP3   OH2 7619   0.246   3.995   0.857
 2552TIP3    H1 7620   0.319   4.043   0.897
 2552TIP3    H2 7621   0.211   4.056   0.792
 2553TIP3   OH2 7622   3.541   0.536   4.949
 2553TIP3    H1 7623   3.619   0.485   4.973
 2553TIP3    H2 7624   3.471   0.500   5.002
 2554TIP3   OH2 7625   6.288   0.781   4.039
 2554TIP3    H1 7626   6.297   0.709   4.101
 2554TIP3    H2 7627   6.218   0.752   3.980
 2555TIP3   OH2 7628   0.609   0.735   2.192
 2555TIP3    H1 7629   0.620   0.663   2.130
 2555TIP3    H2 7630   0.688   0.734   2.246
 2556TIP3   OH2 7631   1.919   3.509   1.240
 2556TIP3    H1 7632   2.010   3.535   1.228
 2556TIP3    H2 7633   1.909   3.502   1.335
 2557TIP3   OH2 7634   1.421   3.770   0.187
 2557TIP3    H1 7635   1.360   3.835   0.222
 2557TIP3    H2 7636   1.365   3.695   0.163
 2558TIP3   OH2 7637   1.174   2.433   4.117
 2558TIP3    H1 7638   1.192   2.344   4.087
 2558TIP3    H2 7639   1.242   2.486   4.074
 2559TIP3   OH2 7640   0.833   4.052   0.629
 2559TIP3    H1 7641   0.891   4.029   0.556
 2559TIP3    H2 7642   0.791   3.970   0.654
 2560TIP3   OH2 7643   4.095   3.129   3.382
 2560TIP3    H1 7644   4.114   3.056   3.323
 2560TIP3    H2 7645   4.013   3.105   3.425
 2561TIP3   OH2 7646   0.511   4.367   5.447
 2561TIP3    H1 7647   0.547   4.280   5.429
 2561TIP3    H2 7648   0.460   4.389   5.369
 2562TIP3   OH2 7649   3.129   2.549   5.454
 2562TIP3    H1 7650   3.058   2.494   5.488
 2562TIP3    H2 7651   3.115   2.549   5.359
 2563TIP3   OH2 7652   5.616   1.783   3.034
 2563TIP3    H1 7653   5.626   1.861   2.979
 2563TIP3    H2 7654   5.522   1.762   3.027
 2564TIP3   OH2 7655   3.515   6.309   1.785
 2564TIP3    H1 7656   3.556   6.395   1.795
 2564TIP3    H2 7657   3.496   6.280   1.874
 2565TIP3   OH2 7658   5.138   4.186   1.671
 2565TIP3    H1 7659   5.067   4.129   1.701
 2565TIP3    H2 7660   5.218   4.141   1.701
 2566TIP3   OH2 7661   0.177   3.936   5.404
 2566TIP3    H1 7662   0.166   4.028   5.380
 2566TIP3    H2 7663   0.247   3.935   5.469
 2567TIP3   OH2 7664   1.535   1.438   1.733
 2567TIP3    H1 7665   1.559   1.364   1.788
 2567TIP3    H2 7666   1.614   1.491   1.728
 2568TIP3   OH2 7667   1.881   3.494   1.547
 2568TIP3    H1 7668   1.922   3.578   1.569
 2568TIP3    H2 7669   1.787   3.512   1.547
 2569TIP3   OH2 7670   5.457   6.262   0.842
 2569TIP3    H1 7671   5.375   6.263   0.892
 2569TIP3    H2 7672   5.491   6.173   0.855
 2570TIP3   OH2 7673   5.345   1.344   5.367
 2570TIP3    H1 7674   5.425   1.361   5.317
 2570TIP3    H2 7675   5.343   1.249   5.378
 2571TIP3   OH2 7676   4.921   5.628   4.094
 2571TIP3    H1 7677   5.012   5.603   4.109
 2571TIP3    H2 7678   4.888   5.652   4.181
 2572TIP3   OH2 7679   2.753   2.118   0.403
 2572TIP3    H1 7680   2.766   2.212   0.389
 2572TIP3    H2 7681   2.691   2.112   0.475
 2573TIP3   OH2 7682   1.318   0.069   1.883
 2573TIP3    H1 7683   1.351   0.139   1.826
 2573TIP3    H2 7684   1.373   0.074   1.961
 2574TIP3   OH2 7685   4.727   2.625   2.057
 2574TIP3    H1 7686   4.787   2.554   2.034
 2574TIP3    H2 7687   4.667   2.631   1.983
 2575TIP3   OH2 7688   3.342   2.636   2.720
 2575TIP3    H1 7689   3.425   2.669   2.753
 2575TIP3    H2 7690   3.301   2.711   2.676
 2576TIP3   OH2 7691   0.071   2.774   4.379
 2576TIP3    H1 7692   0.120   2.835   4.325
 2576TIP3    H2 7693   0.007   2.735   4.320
 2577TIP3   OH2 7694   0.317   4.442   3.498
 2577TIP3    H1 7695   0.292   4.361   3.455
 2577TIP3    H2 7696   0.413   4.442   3.496
 2578TIP3   OH2 7697   5.474   5.918   0.876
 2578TIP3    H1 7698   5.568   5.934   0.864
 2578TIP3    H2 7699   5.447   5.874   0.795
 2579TIP3   OH2 7700   1.056   5.806   4.283
 2579TIP3    H1 7701   1.011   5.775   4.362
 2579TIP3    H2 7702   1.144   5.771   4.291
 2580TIP3   OH2 7703   0.414   4.637   1.353
 2580TIP3    H1 7704   0.320   4.621   1.353
 2580TIP3    H2 7705   0.435   4.652   1.261
 2581TIP3   OH2 7706   4.160   5.414   3.980
 2581TIP3    H1 7707   4.080   5.432   3.932
 2581TIP3    H2 7708   4.182   5.323   3.957
 2582TIP3   OH2 7709   5.686   6.063   1.540
 2582TIP3    H1 7710   5.754   6.002   1.569
 2582TIP3    H2 7711   5.613   6.048   1.601
 2583TIP3   OH2 7712   6.661   3.379   3.991
 2583TIP3    H1 7713   6.667   3.475   3.990
 2583TIP3    H2 7714   6.736   3.350   3.939
 2584TIP3   OH2 7715   2.106   0.888   1.132
 2584TIP3    H1 7716   2.125   0.861   1.042
 2584TIP3    H2 7717   2.039   0.826   1.162
 2585TIP3   OH2 7718   6.691   1.558   4.969
 2585TIP3    H1 7719   6.732   1.514   4.894
 2585TIP3    H2 7720   6.598   1.538   4.960
 2586TIP3   OH2 7721   0.594   1.735   5.104
 2586TIP3    H1 7722   0.580   1.788   5.183
 2586TIP3    H2 7723   0.667   1.677   5.127
 2587TIP3   OH2 7724   1.592   0.400   1.973
 2587TIP3    H1 7725   1.645   0.403   2.052
 2587TIP3    H2 7726   1.540   0.481   1.975
 2588TIP3   OH2 7727   5.319   3.289   4.543
 2588TIP3    H1 7728   5.387   3.241   4.589
 2588TIP3    H2 7729   5.237   3.253   4.576
 2589TIP3   OH2 7730   1.847   5.096   4.718
 2589TIP3    H1 7731   1.811   5.174   4.760
 2589TIP3    H2 7732   1.935   5.123   4.691
 2590TIP3   OH2 7733   6.588   4.903   1.485
 2590TIP3    H1 7734   6.548   4.875   1.402
 2590TIP3    H2 7735   6.628   4.987   1.465
 2591TIP3   OH2 7736   0.632   6.780   2.488
 2591TIP3    H1 7737   0.689   6.793   2.564
 2591TIP3    H2 7738   0.691   6.788   2.413
 2592TIP3   OH2 7739   5.297   6.372   3.143
 2592TIP3    H1 7740   5.369   6.429   3.117
 2592TIP3    H2 7741   5.296   6.377   3.239
 2593TIP3   OH2 7742   2.741   4.689   3.467
 2593TIP3    H1 7743   2.785   4.732   3.393
 2593TIP3    H2 7744   2.723   4.760   3.528
 2594TIP3   OH2 7745   2.651   3.428   2.177
 2594TIP3    H1 7746   2.559   3.424   2.203
 2594TIP3    H2 7747   2.668   3.521   2.166
 2595TIP3   OH2 7748   6.124   6.730   0.605
 2595TIP3    H1 7749   6.106   6.710   0.696
 2595TIP3    H2 7750   6.162   6.818   0.607
 2596TIP3   OH2 7751   5.717   3.519   2.198
 2596TIP3    H1 7752   5.674   3.565   2.270
 2596TIP3    H2 7753   5.685   3.429   2.205
 2597TIP3   OH2 7754   4.168   6.529   3.111
 2597TIP3    H1 7755   4.117   6.495   3.037
 2597TIP3    H2 7756   4.159   6.624   3.103
 2598TIP3   OH2 7757   0.941   2.112   1.200
 2598TIP3    H1 7758   0.947   2.021   1.173
 2598TIP3    H2 7759   1.023   2.129   1.246
 2599TIP3   OH2 7760   3.616   5.200   0.104
 2599TIP3    H1 7761   3.642   5.181   0.014
 2599TIP3    H2 7762   3.538   5.145   0.118
 2600TIP3   OH2 7763   2.388   6.440   0.582
 2600TIP3    H1 7764   2.305   6.393   0.580
 2600TIP3    H2 7765   2.449   6.380   0.624
 2601TIP3   OH2 7766   3.832   4.468   0.666
 2601TIP3    H1 7767   3.830   4.379   0.633
 2601TIP3    H2 7768   3.924   4.495   0.656
 2602TIP3   OH2 7769   5.543   3.731   3.113
 2602TIP3    H1 7770   5.480   3.669   3.077
 2602TIP3    H2 7771   5.587   3.768   3.036
 2603TIP3   OH2 7772   2.109   0.072   5.804
 2603TIP3    H1 7773   2.065   0.010   5.746
 2603TIP3    H2 7774   2.099   0.157   5.760
 2604TIP3   OH2 7775   0.033   0.922   0.539
 2604TIP3    H1 7776   0.023   0.827   0.543
 2604TIP3    H2 7777  -0.055   0.956   0.525
 2605TIP3   OH2 7778   6.655   1.738   3.337
 2605TIP3    H1 7779   6.634   1.794   3.411
 2605TIP3    H2 7780   6.655   1.649   3.373
 2606TIP3   OH2 7781   4.104   5.741   2.596
 2606TIP3    H1 7782   4.148   5.814   2.553
 2606TIP3    H2 7783   4.147   5.734   2.681
 2607TIP3   OH2 7784   2.020   3.245   1.928
 2607TIP3    H1 7785   2.070   3.246   2.009
 2607TIP3    H2 7786   2.082   3.273   1.861
 2608TIP3   OH2 7787   3.681   1.934   0.710
 2608TIP3    H1 7788   3.602   1.983   0.731
 2608TIP3    H2 7789   3.733   1.937   0.790
 2609TIP3   OH2 7790   7.184   4.075   1.059
 2609TIP3    H1 7791   7.147   4.157   1.025
 2609TIP3    H2 7792   7.266   4.101   1.101
 2610TIP3   OH2 7793   3.577   0.791   3.446
 2610TIP3    H1 7794   3.496   0.741   3.455
 2610TIP3    H2 7795   3.571   0.833   3.360
 2611TIP3   OH2 7796   2.343   4.010   2.403
 2611TIP3    H1 7797   2.426   4.058   2.402
 2611TIP3    H2 7798   2.279   4.074   2.435
 2612TIP3   OH2 7799   1.503   5.949   3.341
 2612TIP3    H1 7800   1.524   6.024   3.397
 2612TIP3    H2 7801   1.512   5.981   3.252
 2613TIP3   OH2 7802   4.213   3.125   4.268
 2613TIP3    H1 7803   4.268   3.052   4.297
 2613TIP3    H2 7804   4.274   3.185   4.224
 2614TIP3   OH2 7805   2.135   4.928   2.054
 2614TIP3    H1 7806   2.151   4.838   2.026
 2614TIP3    H2 7807   2.149   4.926   2.148
 2615TIP3   OH2 7808   4.505   1.348   0.363
 2615TIP3    H1 7809   4.479   1.394   0.282
 2615TIP3    H2 7810   4.596   1.323   0.348
 2616TIP3   OH2 7811   3.117   4.391   2.855
 2616TIP3    H1 7812   3.092   4.333   2.784
 2616TIP3    H2 7813   3.152   4.334   2.923
 2617TIP3   OH2 7814   0.996   6.086   3.293
 2617TIP3    H1 7815   1.091   6.076   3.295
 2617TIP3    H2 7816   0.979   6.142   3.217
 2618TIP3   OH2 7817   3.016   2.222   5.180
 2618TIP3    H1 7818   3.101   2.193   5.213
 2618TIP3    H2 7819   2.964   2.143   5.177
 2619TIP3   OH2 7820   2.625   2.602   1.599
 2619TIP3    H1 7821   2.703   2.657   1.607
 2619TIP3    H2 7822   2.631   2.541   1.672
 2620TIP3   OH2 7823   2.763   4.023   1.012
 2620TIP3    H1 7824   2.708   4.090   0.970
 2620TIP3    H2 7825   2.799   4.067   1.089
 2621TIP3   OH2 7826   5.433   2.226   0.674
 2621TIP3    H1 7827   5.436   2.280   0.596
 2621TIP3    H2 7828   5.421   2.136   0.642
 2622TIP3   OH2 7829   6.640   2.404   2.114
 2622TIP3    H1 7830   6.676   2.362   2.192
 2622TIP3    H2 7831   6.562   2.449   2.145
 2623TIP3   OH2 7832   5.958   4.299   0.949
 2623TIP3    H1 7833   5.926   4.363   1.012
 2623TIP3    H2 7834   6.053   4.304   0.956
 2624TIP3   OH2 7835   2.771   2.774   5.793
 2624TIP3    H1 7836   2.684   2.814   5.796
 2624TIP3    H2 7837   2.793   2.771   5.700
 2625TIP3   OH2 7838   6.794   2.800   4.259
 2625TIP3    H1 7839   6.790   2.762   4.171
 2625TIP3    H2 7840   6.781   2.725   4.318
 2626TIP3   OH2 7841   0.381   2.843   3.101
 2626TIP3    H1 7842   0.343   2.923   3.064
 2626TIP3    H2 7843   0.349   2.841   3.192
 2627TIP3   OH2 7844   3.806   0.668   2.227
 2627TIP3    H1 7845   3.799   0.596   2.165
 2627TIP3    H2 7846   3.898   0.666   2.256
 2628TIP3   OH2 7847   1.759   4.459   1.555
 2628TIP3    H1 7848   1.752   4.528   1.489
 2628TIP3    H2 7849   1.767   4.378   1.505
 2629TIP3   OH2 7850   2.082   1.924   5.080
 2629TIP3    H1 7851   2.091   1.838   5.038
 2629TIP3    H2 7852   1.991   1.949   5.062
 2630TIP3   OH2 7853   5.116   1.952   2.329
 2630TIP3    H1 7854   5.062   1.976   2.254
 2630TIP3    H2 7855   5.090   2.014   2.398
 2631TIP3   OH2 7856   6.547   4.926   1.163
 2631TIP3    H1 7857   6.546   4.961   1.074
 2631TIP3    H2 7858   6.639   4.931   1.189
 2632TIP3   OH2 7859   7.191   6.446   5.360
 2632TIP3    H1 7860   7.111   6.472   5.406
 2632TIP3    H2 7861   7.164   6.438   5.268
 2633TIP3   OH2 7862   1.635   5.471   5.543
 2633TIP3    H1 7863   1.545   5.496   5.564
 2633TIP3    H2 7864   1.630   5.379   5.519
 2634TIP3   OH2 7865   4.829   0.671   2.131
 2634TIP3    H1 7866   4.915   0.676   2.173
 2634TIP3    H2 7867   4.831   0.738   2.063
 2635TIP3   OH2 7868   2.196   1.233   4.973
 2635TIP3    H1 7869   2.246   1.309   4.940
 2635TIP3    H2 7870   2.256   1.159   4.963
 2636TIP3   OH2 7871   7.068   0.973   1.432
 2636TIP3    H1 7872   7.147   0.995   1.385
 2636TIP3    H2 7873   7.075   0.878   1.447
 2637TIP3   OH2 7874   4.655   2.738   4.093
 2637TIP3    H1 7875   4.611   2.747   4.008
 2637TIP3    H2 7876   4.673   2.828   4.120
 2638TIP3   OH2 7877   5.632   2.391   0.201
 2638TIP3    H1 7878   5.719   2.377   0.239
 2638TIP3    H2 7879   5.630   2.335   0.123
 2639TIP3   OH2 7880   5.529   2.347   3.921
 2639TIP3    H1 7881   5.502   2.367   3.831
 2639TIP3    H2 7882   5.524   2.251   3.926
 2640TIP3   OH2 7883   2.131   5.917   1.141
 2640TIP3    H1 7884   2.072   5.847   1.114
 2640TIP3    H2 7885   2.075   5.994   1.148
 2641TIP3   OH2 7886   6.648   0.258   3.552
 2641TIP3    H1 7887   6.595   0.291   3.624
 2641TIP3    H2 7888   6.714   0.202   3.593
 2642TIP3   OH2 7889   6.630   0.457   5.456
 2642TIP3    H1 7890   6.613   0.483   5.547
 2642TIP3    H2 7891   6.713   0.410   5.459
 2643TIP3   OH2 7892   2.146   4.093   5.620
 2643TIP3    H1 7893   2.186   4.134   5.696
 2643TIP3    H2 7894   2.129   4.002   5.648
 2644TIP3   OH2 7895   6.121   3.255   3.335
 2644TIP3    H1 7896   6.201   3.240   3.386
 2644TIP3    H2 7897   6.116   3.351   3.326
 2645TIP3   OH2 7898   4.469   0.670   4.965
 2645TIP3    H1 7899   4.448   0.582   4.933
 2645TIP3    H2 7900   4.565   0.676   4.958
 2646TIP3   OH2 7901   3.645   2.487   0.292
 2646TIP3    H1 7902   3.632   2.402   0.333
 2646TIP3    H2 7903   3.730   2.481   0.249
 2647TIP3   OH2 7904   0.671   3.006   1.223
 2647TIP3    H1 7905   0.694   3.083   1.170
 2647TIP3    H2 7906   0.740   3.001   1.289
 2648TIP3   OH2 7907   3.639   0.698   4.373
 2648TIP3    H1 7908   3.689   0.643   4.433
 2648TIP3    H2 7909   3.618   0.776   4.424
 2649TIP3   OH2 7910   4.409   3.773   2.889
 2649TIP3    H1 7911   4.429   3.728   2.806
 2649TIP3    H2 7912   4.401   3.702   2.953
 2650TIP3   OH2 7913   2.518   0.553   0.217
 2650TIP3    H1 7914   2.457   0.500   0.269
 2650TIP3    H2 7915   2.464   0.623   0.181
 2651TIP3   OH2 7916   5.365   0.229   0.543
 2651TIP3    H1 7917   5.380   0.188   0.628
 2651TIP3    H2 7918   5.387   0.321   0.556
 2652TIP3   OH2 7919   3.297   2.969   2.364
 2652TIP3    H1 7920   3.278   2.898   2.302
 2652TIP3    H2 7921   3.245   3.043   2.332
 2653TIP3   OH2 7922   1.590   1.088   3.167
 2653TIP3    H1 7923   1.661   1.107   3.229
 2653TIP3    H2 7924   1.518   1.146   3.195
 2654TIP3   OH2 7925   3.005   1.396   2.039
 2654TIP3    H1 7926   3.033   1.481   2.004
 2654TIP3    H2 7927   2.990   1.413   2.132
 2655TIP3   OH2 7928   6.458   4.286   0.442
 2655TIP3    H1 7929   6.488   4.371   0.408
 2655TIP3    H2 7930   6.385   4.308   0.501
 2656TIP3   OH2 7931   5.958   3.179   4.388
 2656TIP3    H1 7932   5.911   3.178   4.471
 2656TIP3    H2 7933   5.990   3.269   4.379
 2657TIP3   OH2 7934   4.577   0.586   1.971
 2657TIP3    H1 7935   4.662   0.615   2.003
 2657TIP3    H2 7936   4.589   0.575   1.876
 2658TIP3   OH2 7937   3.575   6.113   0.435
 2658TIP3    H1 7938   3.654   6.059   0.441
 2658TIP3    H2 7939   3.542   6.118   0.525
 2659TIP3   OH2 7940   6.679   2.380   3.284
 2659TIP3    H1 7941   6.642   2.294   3.305
 2659TIP3    H2 7942   6.688   2.379   3.188
 2660TIP3   OH2 7943   3.487   3.993   0.778
 2660TIP3    H1 7944   3.450   4.041   0.704
 2660TIP3    H2 7945   3.412   3.967   0.831
 2661TIP3   OH2 7946   7.121   3.486   5.526
 2661TIP3    H1 7947   7.083   3.498   5.439
 2661TIP3    H2 7948   7.055   3.437   5.575
 2662TIP3   OH2 7949   2.765   2.856   1.587
 2662TIP3    H1 7950   2.670   2.853   1.574
 2662TIP3    H2 7951   2.796   2.921   1.525
 2663TIP3   OH2 7952   5.519   3.566   5.091
 2663TIP3    H1 7953   5.603   3.547   5.133
 2663TIP3    H2 7954   5.514   3.503   5.019
 2664TIP3   OH2 7955   0.510   3.709   1.883
 2664TIP3    H1 7956   0.461   3.727   1.964
 2664TIP3    H2 7957   0.443   3.697   1.816
 2665TIP3   OH2 7958   2.636   0.014   4.944
 2665TIP3    H1 7959   2.557   0.065   4.926
 2665TIP3    H2 7960   2.703   0.053   4.888
 2666TIP3   OH2 7961   0.731   5.392   0.663
 2666TIP3    H1 7962   0.770   5.418   0.747
 2666TIP3    H2 7963   0.642   5.365   0.686
 2667TIP3   OH2 7964   4.127   0.529   0.913
 2667TIP3    H1 7965   4.070   0.452   0.907
 2667TIP3    H2 7966   4.143   0.554   0.823
 2668TIP3   OH2 7967   0.071   1.556   2.952
 2668TIP3    H1 7968   0.137   1.526   2.889
 2668TIP3    H2 7969   0.012   1.482   2.962
 2669TIP3   OH2 7970   0.331   5.149   1.492
 2669TIP3    H1 7971   0.348   5.057   1.510
 2669TIP3    H2 7972   0.274   5.148   1.415
 2670TIP3   OH2 7973   4.040   0.942   1.701
 2670TIP3    H1 7974   3.958   0.895   1.712
 2670TIP3    H2 7975   4.030   0.988   1.617
 2671TIP3   OH2 7976   0.206   2.691   3.347
 2671TIP3    H1 7977   0.122   2.724   3.316
 2671TIP3    H2 7978   0.216   2.728   3.435
 2672TIP3   OH2 7979   0.273   1.216   4.274
 2672TIP3    H1 7980   0.356   1.255   4.247
 2672TIP3    H2 7981   0.210   1.244   4.208
 2673TIP3   OH2 7982   2.139   6.058   5.269
 2673TIP3    H1 7983   2.085   6.023   5.197
 2673TIP3    H2 7984   2.178   6.138   5.234
 2674TIP3   OH2 7985   0.559   6.513   5.889
 2674TIP3    H1 7986   0.572   6.602   5.857
 2674TIP3    H2 7987   0.471   6.513   5.925
 2675TIP3   OH2 7988   6.765   2.319   4.052
 2675TIP3    H1 7989   6.750   2.255   3.982
 2675TIP3    H2 7990   6.677   2.346   4.079
 2676TIP3   OH2 7991   5.206   2.996   5.274
 2676TIP3    H1 7992   5.254   2.971   5.353
 2676TIP3    H2 7993   5.247   3.077   5.245
 2677TIP3   OH2 7994   3.656   1.933   4.958
 2677TIP3    H1 7995   3.661   2.023   4.926
 2677TIP3    H2 7996   3.738   1.921   5.007
 2678TIP3   OH2 7997   1.669   6.645   0.733
 2678TIP3    H1 7998   1.745   6.661   0.789
 2678TIP3    H2 7999   1.649   6.553   0.745
 2679TIP3   OH2 8000   5.070   0.939   0.747
 2679TIP3    H1 8001   5.009   1.003   0.784
 2679TIP3    H2 8002   5.035   0.854   0.773
 2680TIP3   OH2 8003   7.094   6.034   0.928
 2680TIP3    H1 8004   7.092   6.088   0.849
 2680TIP3    H2 8005   7.182   5.995   0.929
 2681TIP3   OH2 8006   3.324   2.851   1.562
 2681TIP3    H1 8007   3.292   2.938   1.585
 2681TIP3    H2 8008   3.263   2.820   1.495
 2682TIP3   OH2 8009   6.352   1.303   0.105
 2682TIP3    H1 8010   6.401   1.384   0.119
 2682TIP3    H2 8011   6.419   1.235   0.099
 2683TIP3   OH2 8012   3.502   3.723   0.046
 2683TIP3    H1 8013   3.410   3.726   0.019
 2683TIP3    H2 8014   3.520   3.630   0.063
 2684TIP3   OH2 8015   4.845   4.571   2.726
 2684TIP3    H1 8016   4.796   4.512   2.784
 2684TIP3    H2 8017   4.867   4.646   2.781
 2685TIP3   OH2 8018   1.789   3.592   5.751
 2685TIP3    H1 8019   1.800   3.537   5.674
 2685TIP3    H2 8020   1.835   3.673   5.730
 2686TIP3   OH2 8021   1.625   1.865   5.290
 2686TIP3    H1 8022   1.675   1.891   5.212
 2686TIP3    H2 8023   1.691   1.830   5.350
 2687TIP3   OH2 8024   4.491   4.235   3.099
 2687TIP3    H1 8025   4.478   4.142   3.119
 2687TIP3    H2 8026   4.586   4.247   3.102
 2688TIP3   OH2 8027   6.823   6.114   0.560
 2688TIP3    H1 8028   6.760   6.159   0.616
 2688TIP3    H2 8029   6.835   6.029   0.600
 2689TIP3   OH2 8030   3.016   1.927   0.460
 2689TIP3    H1 8031   2.930   1.942   0.498
 2689TIP3    H2 8032   3.024   1.992   0.390
 2690TIP3   OH2 8033   3.525   6.011   3.321
 2690TIP3    H1 8034   3.477   6.093   3.309
 2690TIP3    H2 8035   3.594   6.034   3.384
 2691TIP3   OH2 8036   3.937   0.818   0.967
 2691TIP3    H1 8037   3.986   0.758   0.911
 2691TIP3    H2 8038   3.858   0.770   0.992
 2692TIP3   OH2 8039   1.645   2.044   1.448
 2692TIP3    H1 8040   1.674   2.129   1.480
 2692TIP3    H2 8041   1.712   1.983   1.479
 2693TIP3   OH2 8042   6.022   2.976   1.238
 2693TIP3    H1 8043   5.958   3.033   1.281
 2693TIP3    H2 8044   6.096   3.034   1.218
 2694TIP3   OH2 8045   3.279   4.262   3.036
 2694TIP3    H1 8046   3.246   4.184   3.081
 2694TIP3    H2 8047   3.345   4.228   2.976
 2695TIP3   OH2 8048   6.895   1.169   1.056
 2695TIP3    H1 8049   6.965   1.224   1.090
 2695TIP3    H2 8050   6.910   1.168   0.961
 2696TIP3   OH2 8051   6.764   6.684   4.460
 2696TIP3    H1 8052   6.855   6.676   4.487
 2696TIP3    H2 8053   6.732   6.594   4.456
 2697TIP3   OH2 8054   4.567   0.967   4.077
 2697TIP3    H1 8055   4.645   0.911   4.083
 2697TIP3    H2 8056   4.542   0.964   3.985
 2698TIP3   OH2 8057   4.270   5.043   2.092
 2698TIP3    H1 8058   4.321   5.028   2.013
 2698TIP3    H2 8059   4.324   5.102   2.144
 2699TIP3   OH2 8060   4.074   3.840   1.994
 2699TIP3    H1 8061   4.110   3.904   1.933
 2699TIP3    H2 8062   4.138   3.835   2.065
 2700TIP3   OH2 8063   3.753   6.593   0.914
 2700TIP3    H1 8064   3.759   6.563   0.823
 2700TIP3    H2 8065   3.824   6.657   0.922
 2701TIP3   OH2 8066   1.750   2.620   5.824
 2701TIP3    H1 8067   1.752   2.533   5.785
 2701TIP3    H2 8068   1.824   2.666   5.785
 2702TIP3   OH2 8069   0.204   3.549   4.753
 2702TIP3    H1 8070   0.159   3.624   4.714
 2702TIP3    H2 8071   0.266   3.587   4.814
 2703TIP3   OH2 8072   1.597   5.762   5.180
 2703TIP3    H1 8073   1.522   5.786   5.126
 2703TIP3    H2 8074   1.560   5.740   5.266
 2704TIP3   OH2 8075   2.857   4.536  -0.019
 2704TIP3    H1 8076   2.864   4.533   0.077
 2704TIP3    H2 8077   2.775   4.493  -0.039
 2705TIP3   OH2 8078   0.832   6.333   3.952
 2705TIP3    H1 8079   0.780   6.386   3.891
 2705TIP3    H2 8080   0.789   6.248   3.952
 2706TIP3   OH2 8081   3.221   4.924   1.062
 2706TIP3    H1 8082   3.235   4.965   0.977
 2706TIP3    H2 8083   3.218   4.830   1.044
 2707TIP3   OH2 8084   5.973   1.659   1.523
 2707TIP3    H1 8085   6.065   1.683   1.512
 2707TIP3    H2 8086   5.940   1.647   1.434
 2708TIP3   OH2 8087   1.513   3.396   2.673
 2708TIP3    H1 8088   1.451   3.377   2.602
 2708TIP3    H2 8089   1.459   3.437   2.741
 2709TIP3   OH2 8090   4.351   4.224   2.693
 2709TIP3    H1 8091   4.441   4.190   2.695
 2709TIP3    H2 8092   4.303   4.166   2.753
 2710TIP3   OH2 8093   0.126   2.393   5.464
 2710TIP3    H1 8094   0.148   2.460   5.528
 2710TIP3    H2 8095   0.044   2.423   5.425
 2711TIP3   OH2 8096   2.025   6.634   4.835
 2711TIP3    H1 8097   2.007   6.721   4.873
 2711TIP3    H2 8098   2.091   6.651   4.768
 2712TIP3   OH2 8099   4.073   0.088   3.578
 2712TIP3    H1 8100   4.112   0.135   3.652
 2712TIP3    H2 8101   4.024   0.154   3.530
 2713TIP3   OH2 8102   6.163   0.117   0.824
 2713TIP3    H1 8103   6.252   0.095   0.850
 2713TIP3    H2 8104   6.113   0.036   0.838
 2714TIP3   OH2 8105   3.184   2.806   3.459
 2714TIP3    H1 8106   3.213   2.744   3.393
 2714TIP3    H2 8107   3.096   2.832   3.433
 2715TIP3   OH2 8108   4.838   1.539   1.040
 2715TIP3    H1 8109   4.767   1.600   1.022
 2715TIP3    H2 8110   4.912   1.573   0.990
 2716TIP3   OH2 8111   0.757   4.787   4.499
 2716TIP3    H1 8112   0.771   4.818   4.589
 2716TIP3    H2 8113   0.735   4.694   4.510
 2717TIP3   OH2 8114   1.739   3.948   2.382
 2717TIP3    H1 8115   1.695   3.928   2.300
 2717TIP3    H2 8116   1.832   3.935   2.364
 2718TIP3   OH2 8117   3.687   4.493   4.786
 2718TIP3    H1 8118   3.772   4.535   4.798
 2718TIP3    H2 8119   3.677   4.485   4.691
 2719TIP3   OH2 8120   4.468   5.587   1.104
 2719TIP3    H1 8121   4.411   5.580   1.180
 2719TIP3    H2 8122   4.409   5.608   1.031
 2720TIP3   OH2 8123   6.072   6.321   0.560
 2720TIP3    H1 8124   6.082   6.365   0.476
 2720TIP3    H2 8125   6.153   6.271   0.571
 2721TIP3   OH2 8126   6.450   1.683   3.541
 2721TIP3    H1 8127   6.408   1.706   3.458
 2721TIP3    H2 8128   6.491   1.598   3.525
 2722TIP3   OH2 8129   3.759   3.378   4.179
 2722TIP3    H1 8130   3.767   3.459   4.129
 2722TIP3    H2 8131   3.790   3.400   4.267
 2723TIP3   OH2 8132   4.530   0.140   0.813
 2723TIP3    H1 8133   4.586   0.063   0.820
 2723TIP3    H2 8134   4.545   0.189   0.894
 2724TIP3   OH2 8135   2.364   6.678   5.789
 2724TIP3    H1 8136   2.400   6.650   5.873
 2724TIP3    H2 8137   2.290   6.620   5.774
 2725TIP3   OH2 8138   0.959   6.467   4.133
 2725TIP3    H1 8139   0.916   6.404   4.076
 2725TIP3    H2 8140   0.902   6.473   4.210
 2726TIP3   OH2 8141   3.564   3.010   5.176
 2726TIP3    H1 8142   3.579   3.066   5.252
 2726TIP3    H2 8143   3.648   3.009   5.130
 2727TIP3   OH2 8144   2.186   4.945   0.888
 2727TIP3    H1 8145   2.240   4.868   0.873
 2727TIP3    H2 8146   2.118   4.939   0.820
 2728TIP3   OH2 8147   6.356   5.280   0.147
 2728TIP3    H1 8148   6.447   5.266   0.120
 2728TIP3    H2 8149   6.308   5.288   0.064
 2729TIP3   OH2 8150   3.260   3.198   2.166
 2729TIP3    H1 8151   3.318   3.130   2.131
 2729TIP3    H2 8152   3.317   3.254   2.218
 2730TIP3   OH2 8153   3.740   5.685   3.391
 2730TIP3    H1 8154   3.725   5.713   3.301
 2730TIP3    H2 8155   3.732   5.765   3.443
 2731TIP3   OH2 8156   5.067   5.392   1.978
 2731TIP3    H1 8157   5.120   5.462   2.015
 2731TIP3    H2 8158   4.978   5.413   2.005
 2732TIP3   OH2 8159   5.857   1.413   3.485
 2732TIP3    H1 8160   5.873   1.380   3.396
 2732TIP3    H2 8161   5.941   1.449   3.512
 2733TIP3   OH2 8162   4.976   1.316   1.128
 2733TIP3    H1 8163   4.969   1.242   1.069
 2733TIP3    H2 8164   4.917   1.382   1.092
 2734TIP3   OH2 8165   6.046   2.376   1.586
 2734TIP3    H1 8166   6.044   2.471   1.600
 2734TIP3    H2 8167   6.079   2.366   1.497
 2735TIP3   OH2 8168   0.890   6.395   2.530
 2735TIP3    H1 8169   0.971   6.417   2.484
 2735TIP3    H2 8170   0.860   6.478   2.566
 2736TIP3   OH2 8171   3.873   5.127   1.178
 2736TIP3    H1 8172   3.958   5.090   1.204
 2736TIP3    H2 8173   3.858   5.091   1.090
 2737TIP3   OH2 8174   3.006   0.211   3.242
 2737TIP3    H1 8175   3.036   0.157   3.315
 2737TIP3    H2 8176   2.946   0.274   3.282
 2738TIP3   OH2 8177   4.293   2.495   5.669
 2738TIP3    H1 8178   4.304   2.424   5.606
 2738TIP3    H2 8179   4.214   2.541   5.640
 2739TIP3   OH2 8180   1.692   1.429   2.427
 2739TIP3    H1 8181   1.698   1.464   2.516
 2739TIP3    H2 8182   1.609   1.464   2.394
 2740TIP3   OH2 8183   0.759   6.779   3.068
 2740TIP3    H1 8184   0.820   6.853   3.063
 2740TIP3    H2 8185   0.779   6.737   3.152
 2741TIP3   OH2 8186   2.782   3.991   3.322
 2741TIP3    H1 8187   2.716   3.923   3.313
 2741TIP3    H2 8188   2.812   4.007   3.232
 2742TIP3   OH2 8189   1.893   0.713   0.550
 2742TIP3    H1 8190   1.855   0.761   0.624
 2742TIP3    H2 8191   1.884   0.773   0.476
 2743TIP3   OH2 8192   0.769   1.623   2.753
 2743TIP3    H1 8193   0.725   1.614   2.668
 2743TIP3    H2 8194   0.708   1.584   2.816
 2744TIP3   OH2 8195   5.753   5.781   1.277
 2744TIP3    H1 8196   5.813   5.844   1.317
 2744TIP3    H2 8197   5.673   5.831   1.261
 2745TIP3   OH2 8198   5.532   2.778   3.594
 2745TIP3    H1 8199   5.546   2.735   3.510
 2745TIP3    H2 8200   5.609   2.755   3.647
 2746TIP3   OH2 8201   0.605   4.930   3.936
 2746TIP3    H1 8202   0.570   4.995   3.875
 2746TIP3    H2 8203   0.671   4.883   3.885
 2747TIP3   OH2 8204   1.805   0.443   0.198
 2747TIP3    H1 8205   1.857   0.377   0.152
 2747TIP3    H2 8206   1.719   0.402   0.210
 2748TIP3   OH2 8207   1.704   1.431   2.011
 2748TIP3    H1 8208   1.634   1.366   2.022
 2748TIP3    H2 8209   1.769   1.388   1.957
 2749TIP3   OH2 8210   0.180   0.465   4.087
 2749TIP3    H1 8211   0.238   0.391   4.107
 2749TIP3    H2 8212   0.207   0.493   3.999
 2750TIP3   OH2 8213   1.009   4.536   2.786
 2750TIP3    H1 8214   1.041   4.594   2.855
 2750TIP3    H2 8215   1.086   4.485   2.760
 2751TIP3   OH2 8216   5.482   0.973   2.067
 2751TIP3    H1 8217   5.431   0.892   2.064
 2751TIP3    H2 8218   5.417   1.041   2.083
 2752TIP3   OH2 8219   6.070   6.675   1.694
 2752TIP3    H1 8220   6.148   6.632   1.729
 2752TIP3    H2 8221   6.066   6.759   1.739
 2753TIP3   OH2 8222   6.295   5.882   4.487
 2753TIP3    H1 8223   6.382   5.854   4.461
 2753TIP3    H2 8224   6.247   5.891   4.405
 2754TIP3   OH2 8225   1.250   4.084   0.579
 2754TIP3    H1 8226   1.293   4.024   0.517
 2754TIP3    H2 8227   1.215   4.026   0.647
 2755TIP3   OH2 8228   2.503   0.505   0.692
 2755TIP3    H1 8229   2.573   0.441   0.679
 2755TIP3    H2 8230   2.492   0.510   0.787
 2756TIP3   OH2 8231   6.404   4.074   3.955
 2756TIP3    H1 8232   6.378   4.005   4.016
 2756TIP3    H2 8233   6.384   4.039   3.868
 2757TIP3   OH2 8234   2.395   0.162   3.310
 2757TIP3    H1 8235   2.393   0.231   3.377
 2757TIP3    H2 8236   2.412   0.209   3.228
 2758TIP3   OH2 8237   1.668   0.373   3.548
 2758TIP3    H1 8238   1.620   0.394   3.628
 2758TIP3    H2 8239   1.636   0.435   3.483
 2759TIP3   OH2 8240   1.983   3.303   3.164
 2759TIP3    H1 8241   1.909   3.271   3.112
 2759TIP3    H2 8242   1.946   3.374   3.217
 2760TIP3   OH2 8243   3.051   4.281   2.071
 2760TIP3    H1 8244   3.044   4.377   2.077
 2760TIP3    H2 8245   2.984   4.249   2.131
 2761TIP3   OH2 8246   4.192   3.177   2.728
 2761TIP3    H1 8247   4.278   3.213   2.710
 2761TIP3    H2 8248   4.144   3.247   2.771
 2762TIP3   OH2 8249   5.062   2.522   4.194
 2762TIP3    H1 8250   5.121   2.461   4.149
 2762TIP3    H2 8251   4.976   2.502   4.160
 2763TIP3   OH2 8252   4.947   5.231   2.207
 2763TIP3    H1 8253   4.931   5.324   2.217
 2763TIP3    H2 8254   5.043   5.223   2.206
 2764TIP3   OH2 8255   0.160   0.021   5.848
 2764TIP3    H1 8256   0.097   0.005   5.777
 2764TIP3    H2 8257   0.193   0.109   5.830
 2765TIP3   OH2 8258   2.732   4.259   0.837
 2765TIP3    H1 8259   2.799   4.299   0.782
 2765TIP3    H2 8260   2.651   4.304   0.812
 2766TIP3   OH2 8261   2.830   5.435   5.854
 2766TIP3    H1 8262   2.879   5.489   5.916
 2766TIP3    H2 8263   2.812   5.354   5.901
 2767TIP3   OH2 8264   3.274   4.587   1.991
 2767TIP3    H1 8265   3.260   4.634   2.073
 2767TIP3    H2 8266   3.302   4.500   2.018
 2768TIP3   OH2 8267   0.959   4.479   1.832
 2768TIP3    H1 8268   0.943   4.500   1.740
 2768TIP3    H2 8269   1.051   4.456   1.837
 2769TIP3   OH2 8270   6.237   5.398   5.608
 2769TIP3    H1 8271   6.234   5.311   5.568
 2769TIP3    H2 8272   6.233   5.459   5.534
 2770TIP3   OH2 8273   0.723   0.333   5.714
 2770TIP3    H1 8274   0.702   0.254   5.762
 2770TIP3    H2 8275   0.787   0.305   5.648
 2771TIP3   OH2 8276   4.295   2.286   5.473
 2771TIP3    H1 8277   4.241   2.346   5.421
 2771TIP3    H2 8278   4.257   2.199   5.457
 2772TIP3   OH2 8279   1.680   5.537   4.454
 2772TIP3    H1 8280   1.599   5.494   4.480
 2772TIP3    H2 8281   1.743   5.466   4.443
 2773TIP3   OH2 8282   1.072   3.570   3.033
 2773TIP3    H1 8283   1.138   3.501   3.026
 2773TIP3    H2 8284   1.012   3.539   3.101
 2774TIP3   OH2 8285   5.056   2.407   1.644
 2774TIP3    H1 8286   5.116   2.458   1.588
 2774TIP3    H2 8287   5.113   2.364   1.707
 2775TIP3   OH2 8288   2.658   3.041   3.067
 2775TIP3    H1 8289   2.702   3.081   2.993
 2775TIP3    H2 8290   2.728   3.023   3.130
 2776TIP3   OH2 8291   5.001   0.360   3.253
 2776TIP3    H1 8292   5.083   0.337   3.297
 2776TIP3    H2 8293   5.030   0.409   3.175
 2777TIP3   OH2 8294   5.823   2.106   0.432
 2777TIP3    H1 8295   5.836   2.045   0.504
 2777TIP3    H2 8296   5.801   2.189   0.474
 2778TIP3   OH2 8297   5.731   1.416   2.362
 2778TIP3    H1 8298   5.718   1.358   2.438
 2778TIP3    H2 8299   5.802   1.375   2.314
 2779TIP3   OH2 8300   2.905   6.421   3.089
 2779TIP3    H1 8301   2.896   6.357   3.159
 2779TIP3    H2 8302   2.852   6.385   3.017
 2780TIP3   OH2 8303   0.158   4.555   1.254
 2780TIP3    H1 8304   0.088   4.613   1.222
 2780TIP3    H2 8305   0.121   4.516   1.333
 2781TIP3   OH2 8306   7.065   5.811   3.241
 2781TIP3    H1 8307   7.088   5.792   3.150
 2781TIP3    H2 8308   6.980   5.854   3.236
 2782TIP3   OH2 8309   3.442   0.594   4.697
 2782TIP3    H1 8310   3.517   0.647   4.672
 2782TIP3    H2 8311   3.465   0.557   4.782
 2783TIP3   OH2 8312   4.988   1.161   3.751
 2783TIP3    H1 8313   5.077   1.184   3.724
 2783TIP3    H2 8314   4.931   1.218   3.697
 2784TIP3   OH2 8315   1.031   2.413   5.661
 2784TIP3    H1 8316   1.066   2.476   5.723
 2784TIP3    H2 8317   0.946   2.388   5.697
 2785TIP3   OH2 8318   2.544   3.993   0.548
 2785TIP3    H1 8319   2.508   3.994   0.637
 2785TIP3    H2 8320   2.467   3.983   0.492
 2786TIP3   OH2 8321   3.428   2.751   2.063
 2786TIP3    H1 8322   3.395   2.675   2.014
 2786TIP3    H2 8323   3.497   2.787   2.007
 2787TIP3   OH2 8324   0.788   1.349   4.140
 2787TIP3    H1 8325   0.825   1.430   4.174
 2787TIP3    H2 8326   0.797   1.356   4.045
 2788TIP3   OH2 8327   0.095   2.216   2.199
 2788TIP3    H1 8328   0.025   2.281   2.190
 2788TIP3    H2 8329   0.085   2.159   2.123
 2789TIP3   OH2 8330   2.635   5.022   1.053
 2789TIP3    H1 8331   2.648   5.117   1.045
 2789TIP3    H2 8332   2.688   4.998   1.129
 2790TIP3   OH2 8333   3.835   5.503   1.942
 2790TIP3    H1 8334   3.812   5.412   1.923
 2790TIP3    H2 8335   3.754   5.542   1.973
 2791TIP3   OH2 8336   2.656   1.950   3.150
 2791TIP3    H1 8337   2.568   1.912   3.149
 2791TIP3    H2 8338   2.708   1.891   3.097
 2792TIP3   OH2 8339   0.131   5.269   4.590
 2792TIP3    H1 8340   0.221   5.265   4.624
 2792TIP3    H2 8341   0.076   5.252   4.666
 2793TIP3   OH2 8342   4.268   5.536   2.049
 2793TIP3    H1 8343   4.174   5.557   2.047
 2793TIP3    H2 8344   4.285   5.515   2.141
 2794TIP3   OH2 8345   6.408   6.382   1.421
 2794TIP3    H1 8346   6.450   6.414   1.501
 2794TIP3    H2 8347   6.318   6.363   1.447
 2795TIP3   OH2 8348   0.539   5.918   0.658
 2795TIP3    H1 8349   0.479   5.923   0.584
 2795TIP3    H2 8350   0.551   6.008   0.686
 2796TIP3   OH2 8351   5.433   2.094   3.335
 2796TIP3    H1 8352   5.435   2.172   3.391
 2796TIP3    H2 8353   5.470   2.123   3.252
 2797TIP3   OH2 8354   6.052   4.433   4.005
 2797TIP3    H1 8355   6.029   4.523   3.983
 2797TIP3    H2 8356   6.131   4.441   4.059
 2798TIP3   OH2 8357   3.927   4.160   0.963
 2798TIP3    H1 8358   3.950   4.189   1.051
 2798TIP3    H2 8359   3.923   4.065   0.969
 2799TIP3   OH2 8360   5.371   4.231   0.302
 2799TIP3    H1 8361   5.429   4.184   0.243
 2799TIP3    H2 8362   5.426   4.252   0.377
 2800TIP3   OH2 8363   5.111   3.329   0.248
 2800TIP3    H1 8364   5.192   3.370   0.220
 2800TIP3    H2 8365   5.042   3.380   0.205
 2801TIP3   OH2 8366   3.240   5.021   5.736
 2801TIP3    H1 8367   3.148   5.022   5.710
 2801TIP3    H2 8368   3.282   5.084   5.677
 2802TIP3   OH2 8369   5.094   0.411   3.707
 2802TIP3    H1 8370   5.155   0.442   3.639
 2802TIP3    H2 8371   5.076   0.488   3.760
 2803TIP3   OH2 8372   1.537   2.136   2.984
 2803TIP3    H1 8373   1.606   2.169   2.927
 2803TIP3    H2 8374   1.566   2.156   3.073
 2804TIP3   OH2 8375   6.073   2.595   2.346
 2804TIP3    H1 8376   6.132   2.523   2.365
 2804TIP3    H2 8377   6.124   2.655   2.291
 2805TIP3   OH2 8378   4.042   6.762   5.157
 2805TIP3    H1 8379   4.013   6.716   5.236
 2805TIP3    H2 8380   4.032   6.698   5.086
 2806TIP3   OH2 8381   1.684   5.722   1.747
 2806TIP3    H1 8382   1.714   5.632   1.736
 2806TIP3    H2 8383   1.588   5.716   1.750
 2807TIP3   OH2 8384   6.723   2.058   3.579
 2807TIP3    H1 8385   6.733   1.967   3.604
 2807TIP3    H2 8386   6.812   2.091   3.571
 2808TIP3   OH2 8387   3.463   1.275   4.223
 2808TIP3    H1 8388   3.484   1.210   4.289
 2808TIP3    H2 8389   3.513   1.248   4.146
 2809TIP3   OH2 8390   3.520   1.966   3.556
 2809TIP3    H1 8391   3.493   2.054   3.584
 2809TIP3    H2 8392   3.472   1.951   3.475
 2810TIP3   OH2 8393   6.952   3.331   3.799
 2810TIP3    H1 8394   6.865   3.365   3.778
 2810TIP3    H2 8395   6.972   3.271   3.727
 2811TIP3   OH2 8396   6.847   2.157   4.723
 2811TIP3    H1 8397   6.883   2.107   4.797
 2811TIP3    H2 8398   6.888   2.118   4.646
 2812TIP3   OH2 8399   5.138   6.511   1.205
 2812TIP3    H1 8400   5.132   6.555   1.290
 2812TIP3    H2 8401   5.202   6.561   1.156
 2813TIP3   OH2 8402   2.002   6.308   1.195
 2813TIP3    H1 8403   1.962   6.282   1.112
 2813TIP3    H2 8404   1.959   6.251   1.260
 2814TIP3   OH2 8405   3.579   4.146   5.715
 2814TIP3    H1 8406   3.569   4.055   5.690
 2814TIP3    H2 8407   3.582   4.194   5.632
 2815TIP3   OH2 8408   1.205   1.731   1.480
 2815TIP3    H1 8409   1.280   1.791   1.471
 2815TIP3    H2 8410   1.244   1.644   1.478
 2816TIP3   OH2 8411   3.521   4.194   4.409
 2816TIP3    H1 8412   3.482   4.272   4.370
 2816TIP3    H2 8413   3.506   4.204   4.503
 2817TIP3   OH2 8414   0.657   1.011   2.108
 2817TIP3    H1 8415   0.636   0.919   2.126
 2817TIP3    H2 8416   0.698   1.009   2.021
 2818TIP3   OH2 8417   2.606   0.378   4.653
 2818TIP3    H1 8418   2.630   0.288   4.675
 2818TIP3    H2 8419   2.610   0.381   4.557
 2819TIP3   OH2 8420   6.576   5.750   3.489
 2819TIP3    H1 8421   6.663   5.787   3.507
 2819TIP3    H2 8422   6.594   5.668   3.444
 2820TIP3   OH2 8423   0.175   6.113   1.265
 2820TIP3    H1 8424   0.154   6.073   1.350
 2820TIP3    H2 8425   0.270   6.121   1.265
 2821TIP3   OH2 8426   2.767   4.984   3.589
 2821TIP3    H1 8427   2.802   5.002   3.676
 2821TIP3    H2 8428   2.834   5.018   3.529
 2822TIP3   OH2 8429   1.427   4.407   0.342
 2822TIP3    H1 8430   1.413   4.322   0.300
 2822TIP3    H2 8431   1.480   4.387   0.419
 2823TIP3   OH2 8432   1.268   5.874   3.188
 2823TIP3    H1 8433   1.251   5.962   3.153
 2823TIP3    H2 8434   1.345   5.885   3.244
 2824TIP3   OH2 8435   0.728   4.382   1.172
 2824TIP3    H1 8436   0.702   4.292   1.192
 2824TIP3    H2 8437   0.685   4.401   1.089
 2825TIP3   OH2 8438   6.110   0.425   0.044
 2825TIP3    H1 8439   6.135   0.461  -0.042
 2825TIP3    H2 8440   6.107   0.502   0.101
 2826TIP3   OH2 8441   3.996   0.587   4.378
 2826TIP3    H1 8442   4.047   0.545   4.309
 2826TIP3    H2 8443   3.966   0.669   4.339
 2827TIP3   OH2 8444   4.023   3.118  -0.013
 2827TIP3    H1 8445   4.089   3.134   0.055
 2827TIP3    H2 8446   4.011   3.202  -0.056
 2828TIP3   OH2 8447   6.520   2.169   3.419
 2828TIP3    H1 8448   6.470   2.222   3.481
 2828TIP3    H2 8449   6.595   2.137   3.470
 2829TIP3   OH2 8450   0.801   0.557   4.760
 2829TIP3    H1 8451   0.826   0.507   4.682
 2829TIP3    H2 8452   0.788   0.646   4.729
 2830TIP3   OH2 8453   2.805   1.938   5.540
 2830TIP3    H1 8454   2.799   1.900   5.452
 2830TIP3    H2 8455   2.897   1.924   5.565
 2831TIP3   OH2 8456   7.120   1.136   5.028
 2831TIP3    H1 8457   7.031   1.165   5.011
 2831TIP3    H2 8458   7.111   1.043   5.049
 2832TIP3   OH2 8459   0.827   3.864   2.555
 2832TIP3    H1 8460   0.838   3.883   2.649
 2832TIP3    H2 8461   0.737   3.832   2.548
 2833TIP3   OH2 8462   1.352   0.406   3.586
 2833TIP3    H1 8463   1.413   0.332   3.584
 2833TIP3    H2 8464   1.280   0.379   3.529
 2834TIP3   OH2 8465   6.832   4.767   1.553
 2834TIP3    H1 8466   6.832   4.676   1.523
 2834TIP3    H2 8467   6.751   4.803   1.519
 2835TIP3   OH2 8468   5.291   6.371   1.598
 2835TIP3    H1 8469   5.363   6.392   1.539
 2835TIP3    H2 8470   5.311   6.419   1.679
 2836TIP3   OH2 8471   2.132   5.535   0.073
 2836TIP3    H1 8472   2.168   5.594   0.139
 2836TIP3    H2 8473   2.195   5.464   0.067
 2837TIP3   OH2 8474   3.602   3.906   3.020
 2837TIP3    H1 8475   3.574   3.815   3.032
 2837TIP3    H2 8476   3.536   3.943   2.961
 2838TIP3   OH2 8477   6.609   4.487   5.670
 2838TIP3    H1 8478   6.585   4.399   5.642
 2838TIP3    H2 8479   6.623   4.480   5.765
 2839TIP3   OH2 8480   1.824   1.055   4.474
 2839TIP3    H1 8481   1.865   1.042   4.389
 2839TIP3    H2 8482   1.807   1.149   4.479
 2840TIP3   OH2 8483   4.216   3.850   2.243
 2840TIP3    H1 8484   4.178   3.937   2.241
 2840TIP3    H2 8485   4.201   3.818   2.332
 2841TIP3   OH2 8486   2.976   6.509   5.693
 2841TIP3    H1 8487   3.007   6.582   5.639
 2841TIP3    H2 8488   2.986   6.432   5.637
 2842TIP3   OH2 8489   4.410   1.951   5.469
 2842TIP3    H1 8490   4.453   1.872   5.438
 2842TIP3    H2 8491   4.479   2.017   5.473
 2843TIP3   OH2 8492   0.124   1.618   5.604
 2843TIP3    H1 8493   0.109   1.712   5.594
 2843TIP3    H2 8494   0.128   1.586   5.514
 2844TIP3   OH2 8495   0.423   2.440   5.418
 2844TIP3    H1 8496   0.404   2.528   5.386
 2844TIP3    H2 8497   0.344   2.389   5.398
 2845TIP3   OH2 8498   3.573   6.014   1.590
 2845TIP3    H1 8499   3.482   6.038   1.608
 2845TIP3    H2 8500   3.583   6.027   1.496
 2846TIP3   OH2 8501   3.804   3.441   2.142
 2846TIP3    H1 8502   3.839   3.380   2.206
 2846TIP3    H2 8503   3.710   3.420   2.138
 2847TIP3   OH2 8504   7.115   5.881   3.565
 2847TIP3    H1 8505   7.197   5.834   3.582
 2847TIP3    H2 8506   7.141   5.957   3.513
 2848TIP3   OH2 8507   0.432   3.765   4.578
 2848TIP3    H1 8508   0.426   3.748   4.672
 2848TIP3    H2 8509   0.395   3.687   4.537
 2849TIP3   OH2 8510   1.189   2.905   3.746
 2849TIP3    H1 8511   1.134   2.984   3.756
 2849TIP3    H2 8512   1.276   2.939   3.727
 2850TIP3   OH2 8513   2.573   5.105   2.529
 2850TIP3    H1 8514   2.551   5.142   2.615
 2850TIP3    H2 8515   2.595   5.181   2.475
 2851TIP3   OH2 8516   1.690   6.793   4.489
 2851TIP3    H1 8517   1.768   6.746   4.518
 2851TIP3    H2 8518   1.630   6.788   4.563
 2852TIP3   OH2 8519   0.409   6.754   1.514
 2852TIP3    H1 8520   0.445   6.699   1.444
 2852TIP3    H2 8521   0.483   6.769   1.573
 2853TIP3   OH2 8522   1.459   0.810   3.224
 2853TIP3    H1 8523   1.521   0.882   3.232
 2853TIP3    H2 8524   1.425   0.819   3.135
 2854TIP3   OH2 8525   4.384   6.419   5.690
 2854TIP3    H1 8526   4.379   6.456   5.778
 2854TIP3    H2 8527   4.398   6.325   5.705
 2855TIP3   OH2 8528   4.256   4.452   4.588
 2855TIP3    H1 8529   4.161   4.439   4.579
 2855TIP3    H2 8530   4.264   4.533   4.639
 2856TIP3   OH2 8531   0.222   2.140   5.480
 2856TIP3    H1 8532   0.157   2.210   5.475
 2856TIP3    H2 8533   0.287   2.163   5.415
 2857TIP3   OH2 8534   0.044   5.988   1.805
 2857TIP3    H1 8535   0.065   5.916   1.865
 2857TIP3    H2 8536   0.120   6.047   1.813
 2858TIP3   OH2 8537   6.586   1.173   0.127
 2858TIP3    H1 8538   6.632   1.095   0.097
 2858TIP3    H2 8539   6.651   1.220   0.180
 2859TIP3   OH2 8540   4.442   6.602   0.212
 2859TIP3    H1 8541   4.393   6.537   0.262
 2859TIP3    H2 8542   4.376   6.665   0.183
 2860TIP3   OH2 8543   1.420   4.462   5.506
 2860TIP3    H1 8544   1.470   4.380   5.510
 2860TIP3    H2 8545   1.486   4.531   5.520
 2861TIP3   OH2 8546   2.587   2.081   2.841
 2861TIP3    H1 8547   2.510   2.119   2.799
 2861TIP3    H2 8548   2.615   2.147   2.905
 2862TIP3   OH2 8549   2.856   3.408   3.120
 2862TIP3    H1 8550   2.826   3.340   3.180
 2862TIP3    H2 8551   2.854   3.367   3.034
 2863TIP3   OH2 8552   1.056   3.816   0.040
 2863TIP3    H1 8553   1.078   3.857   0.124
 2863TIP3    H2 8554   1.004   3.883  -0.006
 2864TIP3   OH2 8555   1.784   3.780   4.691
 2864TIP3    H1 8556   1.718   3.763   4.759
 2864TIP3    H2 8557   1.790   3.875   4.688
 2865TIP3   OH2 8558   4.927   5.534   3.259
 2865TIP3    H1 8559   4.960   5.554   3.172
 2865TIP3    H2 8560   4.890   5.617   3.291
 2866TIP3   OH2 8561   0.783   5.349   1.451
 2866TIP3    H1 8562   0.711   5.397   1.493
 2866TIP3    H2 8563   0.832   5.311   1.523
 2867TIP3   OH2 8564   0.975   5.362   3.677
 2867TIP3    H1 8565   0.938   5.274   3.672
 2867TIP3    H2 8566   1.019   5.365   3.762
 2868TIP3   OH2 8567   5.781   4.454   2.644
 2868TIP3    H1 8568   5.814   4.473   2.731
 2868TIP3    H2 8569   5.851   4.482   2.585
 2869TIP3   OH2 8570   5.152   2.455   5.783
 2869TIP3    H1 8571   5.095   2.511   5.836
 2869TIP3    H2 8572   5.180   2.510   5.711
 2870TIP3   OH2 8573   6.672   1.890   2.193
 2870TIP3    H1 8574   6.598   1.943   2.163
 2870TIP3    H2 8575   6.638   1.800   2.192
 2871TIP3   OH2 8576   3.858   4.206   5.187
 2871TIP3    H1 8577   3.765   4.228   5.195
 2871TIP3    H2 8578   3.892   4.269   5.124
 2872TIP3   OH2 8579   6.810   2.930   3.377
 2872TIP3    H1 8580   6.875   2.952   3.310
 2872TIP3    H2 8581   6.729   2.971   3.346
 2873TIP3   OH2 8582   2.580   6.418   3.905
 2873TIP3    H1 8583   2.553   6.345   3.850
 2873TIP3    H2 8584   2.533   6.404   3.988
 2874TIP3   OH2 8585   5.373   0.281   5.807
 2874TIP3    H1 8586   5.337   0.364   5.837
 2874TIP3    H2 8587   5.298   0.231   5.775
 2875TIP3   OH2 8588   2.123   0.337   0.486
 2875TIP3    H1 8589   2.039   0.374   0.461
 2875TIP3    H2 8590   2.162   0.401   0.545
 2876TIP3   OH2 8591   5.353   1.281   0.681
 2876TIP3    H1 8592   5.371   1.352   0.742
 2876TIP3    H2 8593   5.438   1.260   0.643
 2877TIP3   OH2 8594   6.398   5.537   3.179
 2877TIP3    H1 8595   6.307   5.564   3.173
 2877TIP3    H2 8596   6.427   5.528   3.088
 2878TIP3   OH2 8597   4.377   3.068   4.000
 2878TIP3    H1 8598   4.304   3.090   3.942
 2878TIP3    H2 8599   4.444   3.134   3.980
 2879TIP3   OH2 8600   2.269   1.315   3.941
 2879TIP3    H1 8601   2.354   1.289   3.907
 2879TIP3    H2 8602   2.241   1.388   3.884
 2880TIP3   OH2 8603   5.838   3.982   5.351
 2880TIP3    H1 8604   5.785   4.060   5.367
 2880TIP3    H2 8605   5.774   3.914   5.331
 2881TIP3   OH2 8606   5.182   4.468   5.625
 2881TIP3    H1 8607   5.133   4.499   5.548
 2881TIP3    H2 8608   5.222   4.548   5.660
 2882TIP3   OH2 8609   1.459   0.418   2.426
 2882TIP3    H1 8610   1.463   0.418   2.331
 2882TIP3    H2 8611   1.425   0.505   2.449
 2883TIP3   OH2 8612   2.800   3.803   5.340
 2883TIP3    H1 8613   2.810   3.858   5.262
 2883TIP3    H2 8614   2.771   3.864   5.408
 2884TIP3   OH2 8615   4.018   6.582   4.956
 2884TIP3    H1 8616   4.051   6.593   4.867
 2884TIP3    H2 8617   3.990   6.490   4.960
 2885TIP3   OH2 8618   3.828   5.423   1.193
 2885TIP3    H1 8619   3.919   5.404   1.215
 2885TIP3    H2 8620   3.780   5.343   1.214
 2886TIP3   OH2 8621   2.587   6.676   2.062
 2886TIP3    H1 8622   2.681   6.691   2.070
 2886TIP3    H2 8623   2.563   6.713   1.978
 2887TIP3   OH2 8624   6.020   4.764   1.903
 2887TIP3    H1 8625   6.039   4.673   1.928
 2887TIP3    H2 8626   6.069   4.778   1.822
 2888TIP3   OH2 8627   4.243   0.811   4.948
 2888TIP3    H1 8628   4.260   0.814   5.042
 2888TIP3    H2 8629   4.327   0.789   4.909
 2889TIP3   OH2 8630   3.323   5.701   2.805
 2889TIP3    H1 8631   3.291   5.743   2.885
 2889TIP3    H2 8632   3.261   5.729   2.737
 2890TIP3   OH2 8633   3.638   2.891   5.477
 2890TIP3    H1 8634   3.586   2.815   5.450
 2890TIP3    H2 8635   3.678   2.863   5.560
 2891TIP3   OH2 8636   5.465   4.903   2.066
 2891TIP3    H1 8637   5.373   4.914   2.091
 2891TIP3    H2 8638   5.507   4.865   2.143
 2892TIP3   OH2 8639   3.121   6.709  -0.014
 2892TIP3    H1 8640   3.126   6.623   0.028
 2892TIP3    H2 8641   3.027   6.723  -0.028
 2893TIP3   OH2 8642   5.616   2.915   3.181
 2893TIP3    H1 8643   5.554   2.852   3.143
 2893TIP3    H2 8644   5.642   2.877   3.264
 2894TIP3   OH2 8645   5.031   1.996   2.979
 2894TIP3    H1 8646   4.939   2.016   2.964
 2894TIP3    H2 8647   5.037   1.982   3.074
 2895TIP3   OH2 8648   5.847   1.361   1.852
 2895TIP3    H1 8649   5.903   1.311   1.910
 2895TIP3    H2 8650   5.761   1.361   1.895
 2896TIP3   OH2 8651   2.264   5.771   2.463
 2896TIP3    H1 8652   2.205   5.706   2.499
 2896TIP3    H2 8653   2.259   5.845   2.524
 2897TIP3   OH2 8654   4.862   5.459   5.606
 2897TIP3    H1 8655   4.939   5.412   5.574
 2897TIP3    H2 8656   4.857   5.537   5.551
 2898TIP3   OH2 8657   5.890   2.709   5.232
 2898TIP3    H1 8658   5.984   2.720   5.217
 2898TIP3    H2 8659   5.885   2.642   5.300
 2899TIP3   OH2 8660   3.069   2.736   3.878
 2899TIP3    H1 8661   3.009   2.787   3.825
 2899TIP3    H2 8662   3.156   2.768   3.855
 2900TIP3   OH2 8663   1.745   3.018   3.597
 2900TIP3    H1 8664   1.744   3.019   3.501
 2900TIP3    H2 8665   1.747   3.110   3.621
 2901TIP3   OH2 8666   2.123   5.794   2.216
 2901TIP3    H1 8667   2.037   5.751   2.211
 2901TIP3    H2 8668   2.153   5.777   2.305
 2902TIP3   OH2 8669   7.281   0.014   5.352
 2902TIP3    H1 8670   7.220  -0.027   5.413
 2902TIP3    H2 8671   7.234   0.092   5.321
 2903TIP3   OH2 8672   0.324   4.048   1.966
 2903TIP3    H1 8673   0.329   3.957   1.996
 2903TIP3    H2 8674   0.404   4.089   2.000
 2904TIP3   OH2 8675   2.991   1.163   2.792
 2904TIP3    H1 8676   2.959   1.220   2.862
 2904TIP3    H2 8677   2.955   1.201   2.712
 2905TIP3   OH2 8678   2.356   1.680   2.427
 2905TIP3    H1 8679   2.362   1.590   2.461
 2905TIP3    H2 8680   2.362   1.735   2.505
 2906TIP3   OH2 8681   1.224   1.588   2.552
 2906TIP3    H1 8682   1.130   1.574   2.539
 2906TIP3    H2 8683   1.230   1.631   2.637
 2907TIP3   OH2 8684   5.519   5.229   2.282
 2907TIP3    H1 8685   5.558   5.143   2.267
 2907TIP3    H2 8686   5.557   5.259   2.364
 2908TIP3   OH2 8687   6.400   3.861   4.828
 2908TIP3    H1 8688   6.322   3.907   4.796
 2908TIP3    H2 8689   6.466   3.930   4.837
 2909TIP3   OH2 8690   3.135   3.754   0.395
 2909TIP3    H1 8691   3.069   3.823   0.395
 2909TIP3    H2 8692   3.166   3.749   0.305
 2910TIP3   OH2 8693   6.858   3.482   4.975
 2910TIP3    H1 8694   6.917   3.531   5.033
 2910TIP3    H2 8695   6.875   3.390   4.994
 2911TIP3   OH2 8696   1.998   1.958   2.284
 2911TIP3    H1 8697   1.996   1.968   2.380
 2911TIP3    H2 8698   2.020   1.866   2.270
 2912TIP3   OH2 8699   1.894   3.794   3.548
 2912TIP3    H1 8700   1.826   3.833   3.603
 2912TIP3    H2 8701   1.973   3.845   3.567
 2913TIP3   OH2 8702   2.740   5.032   4.261
 2913TIP3    H1 8703   2.815   4.976   4.244
 2913TIP3    H2 8704   2.775   5.106   4.310
 2914TIP3   OH2 8705   3.670   1.206   1.670
 2914TIP3    H1 8706   3.744   1.262   1.693
 2914TIP3    H2 8707   3.634   1.179   1.755
 2915TIP3   OH2 8708   0.293   1.350   5.367
 2915TIP3    H1 8709   0.217   1.323   5.419
 2915TIP3    H2 8710   0.274   1.440   5.340
 2916TIP3   OH2 8711   1.537   0.115   0.116
 2916TIP3    H1 8712   1.474   0.126   0.188
 2916TIP3    H2 8713   1.591   0.041   0.143
 2917TIP3   OH2 8714   3.725   3.243   5.618
 2917TIP3    H1 8715   3.783   3.242   5.542
 2917TIP3    H2 8716   3.696   3.334   5.625
 2918TIP3   OH2 8717   6.423   5.015   5.530
 2918TIP3    H1 8718   6.439   5.053   5.444
 2918TIP3    H2 8719   6.351   4.953   5.517
 2919TIP3   OH2 8720   4.963   6.199   2.616
 2919TIP3    H1 8721   5.002   6.150   2.544
 2919TIP3    H2 8722   5.038   6.233   2.665
 2920TIP3   OH2 8723   2.795   2.199   4.225
 2920TIP3    H1 8724   2.832   2.275   4.179
 2920TIP3    H2 8725   2.833   2.123   4.181
 2921TIP3   OH2 8726   2.719   3.040   4.042
 2921TIP3    H1 8727   2.696   3.104   4.110
 2921TIP3    H2 8728   2.752   3.093   3.970
 2922TIP3   OH2 8729   1.184   5.178   3.797
 2922TIP3    H1 8730   1.166   5.267   3.826
 2922TIP3    H2 8731   1.279   5.176   3.782
 2923TIP3   OH2 8732   0.848   0.719   2.338
 2923TIP3    H1 8733   0.899   0.663   2.279
 2923TIP3    H2 8734   0.912   0.781   2.374
 2924TIP3   OH2 8735   1.779   3.720   0.767
 2924TIP3    H1 8736   1.751   3.671   0.690
 2924TIP3    H2 8737   1.855   3.673   0.800
 2925TIP3   OH2 8738   3.673   3.423   1.864
 2925TIP3    H1 8739   3.650   3.432   1.772
 2925TIP3    H2 8740   3.593   3.449   1.911
 2926TIP3   OH2 8741   2.322   1.717   5.764
 2926TIP3    H1 8742   2.306   1.806   5.730
 2926TIP3    H2 8743   2.382   1.730   5.837
 2927TIP3   OH2 8744   6.585   1.063   2.282
 2927TIP3    H1 8745   6.537   1.139   2.248
 2927TIP3    H2 8746   6.656   1.101   2.333
 2928TIP3   OH2 8747   5.046   0.861   4.326
 2928TIP3    H1 8748   5.091   0.785   4.289
 2928TIP3    H2 8749   5.117   0.917   4.357
 2929TIP3   OH2 8750   5.309   0.725   2.956
 2929TIP3    H1 8751   5.356   0.669   3.017
 2929TIP3    H2 8752   5.371   0.794   2.933
 2930TIP3   OH2 8753   2.881   0.135   3.772
 2930TIP3    H1 8754   2.819   0.070   3.738
 2930TIP3    H2 8755   2.964   0.088   3.781
 2931TIP3   OH2 8756   4.764   0.985   3.736
 2931TIP3    H1 8757   4.679   1.019   3.762
 2931TIP3    H2 8758   4.827   1.045   3.775
 2932TIP3   OH2 8759   4.964   4.586   1.888
 2932TIP3    H1 8760   4.971   4.642   1.965
 2932TIP3    H2 8761   4.870   4.575   1.874
 2933TIP3   OH2 8762   3.290   2.143   1.678
 2933TIP3    H1 8763   3.224   2.209   1.699
 2933TIP3    H2 8764   3.354   2.149   1.750
 2934TIP3   OH2 8765   6.627   6.051   0.299
 2934TIP3    H1 8766   6.689   6.029   0.369
 2934TIP3    H2 8767   6.654   5.996   0.225
 2935TIP3   OH2 8768   4.812   2.072   0.650
 2935TIP3    H1 8769   4.898   2.084   0.610
 2935TIP3    H2 8770   4.788   2.159   0.682
 2936TIP3   OH2 8771   4.217   3.164   0.174
 2936TIP3    H1 8772   4.281   3.131   0.111
 2936TIP3    H2 8773   4.255   3.244   0.208
 2937TIP3   OH2 8774   6.095   0.998   4.409
 2937TIP3    H1 8775   6.060   1.087   4.407
 2937TIP3    H2 8776   6.038   0.952   4.472
 2938TIP3   OH2 8777   0.311   3.384   0.084
 2938TIP3    H1 8778   0.330   3.393  -0.009
 2938TIP3    H2 8779   0.292   3.473   0.114
 2939TIP3   OH2 8780   2.164   4.663   1.979
 2939TIP3    H1 8781   2.141   4.602   1.909
 2939TIP3    H2 8782   2.238   4.621   2.023
 2940TIP3   OH2 8783   0.383   6.069   5.423
 2940TIP3    H1 8784   0.369   6.160   5.398
 2940TIP3    H2 8785   0.323   6.019   5.368
 2941TIP3   OH2 8786   1.198   4.358   4.108
 2941TIP3    H1 8787   1.234   4.447   4.113
 2941TIP3    H2 8788   1.258   4.305   4.160
 2942TIP3   OH2 8789   0.804   4.405   2.602
 2942TIP3    H1 8790   0.746   4.331   2.585
 2942TIP3    H2 8791   0.875   4.368   2.655
 2943TIP3   OH2 8792   1.731   2.532   4.712
 2943TIP3    H1 8793   1.773   2.577   4.639
 2943TIP3    H2 8794   1.642   2.565   4.712
 2944TIP3   OH2 8795   0.239   3.074   1.621
 2944TIP3    H1 8796   0.184   3.150   1.637
 2944TIP3    H2 8797   0.192   3.024   1.554
 2945TIP3   OH2 8798   2.190   0.714   3.237
 2945TIP3    H1 8799   2.108   0.736   3.280
 2945TIP3    H2 8800   2.252   0.701   3.309
 2946TIP3   OH2 8801   5.863   2.848   1.772
 2946TIP3    H1 8802   5.853   2.753   1.764
 2946TIP3    H2 8803   5.833   2.882   1.688
 2947TIP3   OH2 8804   0.076   6.733   3.409
 2947TIP3    H1 8805   0.031   6.817   3.405
 2947TIP3    H2 8806   0.165   6.751   3.379
 2948TIP3   OH2 8807   1.384   0.000   1.012
 2948TIP3    H1 8808   1.374   0.016   1.106
 2948TIP3    H2 8809   1.443   0.068   0.983
 2949TIP3   OH2 8810   5.663   1.894   3.538
 2949TIP3    H1 8811   5.734   1.956   3.557
 2949TIP3    H2 8812   5.689   1.852   3.456
 2950TIP3   OH2 8813   3.710   6.611   3.697
 2950TIP3    H1 8814   3.752   6.562   3.627
 2950TIP3    H2 8815   3.774   6.612   3.768
 2951TIP3   OH2 8816   5.229   5.199   2.237
 2951TIP3    H1 8817   5.319   5.205   2.268
 2951TIP3    H2 8818   5.197   5.116   2.273
 2952TIP3   OH2 8819   4.311   1.654   5.229
 2952TIP3    H1 8820   4.237   1.680   5.284
 2952TIP3    H2 8821   4.386   1.700   5.266
 2953TIP3   OH2 8822   3.358   1.405   5.746
 2953TIP3    H1 8823   3.280   1.362   5.781
 2953TIP3    H2 8824   3.368   1.368   5.658
 2954TIP3   OH2 8825   4.162   3.459   3.851
 2954TIP3    H1 8826   4.257   3.471   3.855
 2954TIP3    H2 8827   4.149   3.394   3.782
 2955TIP3   OH2 8828   1.782   3.382   0.341
 2955TIP3    H1 8829   1.752   3.292   0.357
 2955TIP3    H2 8830   1.864   3.389   0.391
 2956TIP3   OH2 8831   5.518   1.310   3.066
 2956TIP3    H1 8832   5.557   1.390   3.100
 2956TIP3    H2 8833   5.559   1.297   2.980
 2957TIP3   OH2 8834   0.203   4.027   1.438
 2957TIP3    H1 8835   0.257   3.975   1.379
 2957TIP3    H2 8836   0.266   4.075   1.492
 2958TIP3   OH2 8837   6.739   3.358   1.263
 2958TIP3    H1 8838   6.655   3.335   1.302
 2958TIP3    H2 8839   6.795   3.282   1.279
 2959TIP3   OH2 8840   5.134   2.371   4.875
 2959TIP3    H1 8841   5.174   2.458   4.880
 2959TIP3    H2 8842   5.187   2.316   4.932
 2960TIP3   OH2 8843   4.864   2.930   3.836
 2960TIP3    H1 8844   4.777   2.928   3.796
 2960TIP3    H2 8845   4.875   2.843   3.873
 2961TIP3   OH2 8846   4.624   2.586   3.636
 2961TIP3    H1 8847   4.595   2.497   3.616
 2961TIP3    H2 8848   4.673   2.614   3.558
 2962TIP3   OH2 8849   0.283   5.863   2.551
 2962TIP3    H1 8850   0.205   5.889   2.503
 2962TIP3    H2 8851   0.344   5.936   2.538
 2963TIP3   OH2 8852   2.763   4.399   4.554
 2963TIP3    H1 8853   2.800   4.424   4.469
 2963TIP3    H2 8854   2.835   4.356   4.600
 2964TIP3   OH2 8855   1.747   4.792   4.973
 2964TIP3    H1 8856   1.696   4.853   4.921
 2964TIP3    H2 8857   1.799   4.743   4.909
 2965TIP3   OH2 8858   3.678   0.988   1.483
 2965TIP3    H1 8859   3.710   1.077   1.497
 2965TIP3    H2 8860   3.692   0.945   1.568
 2966TIP3   OH2 8861   0.251   6.736   4.300
 2966TIP3    H1 8862   0.228   6.829   4.305
 2966TIP3    H2 8863   0.329   6.733   4.246
 2967TIP3   OH2 8864   2.092   4.599   2.872
 2967TIP3    H1 8865   2.018   4.538   2.875
 2967TIP3    H2 8866   2.072   4.664   2.939
 2968TIP3   OH2 8867   7.110   1.600   5.788
 2968TIP3    H1 8868   7.137   1.550   5.864
 2968TIP3    H2 8869   7.181   1.591   5.725
 2969TIP3   OH2 8870   1.830   2.843   1.590
 2969TIP3    H1 8871   1.776   2.810   1.518
 2969TIP3    H2 8872   1.857   2.765   1.638
 2970TIP3   OH2 8873   4.482   5.980   5.516
 2970TIP3    H1 8874   4.548   5.926   5.474
 2970TIP3    H2 8875   4.512   5.989   5.606
 2971TIP3   OH2 8876   2.512   6.303   1.442
 2971TIP3    H1 8877   2.526   6.210   1.423
 2971TIP3    H2 8878   2.468   6.304   1.527
 2972TIP3   OH2 8879   2.992   6.557   4.824
 2972TIP3    H1 8880   2.972   6.611   4.900
 2972TIP3    H2 8881   3.029   6.477   4.860
 2973TIP3   OH2 8882   3.833   4.882   4.279
 2973TIP3    H1 8883   3.831   4.928   4.196
 2973TIP3    H2 8884   3.828   4.951   4.345
 2974TIP3   OH2 8885   5.717   0.063   1.833
 2974TIP3    H1 8886   5.707   0.050   1.739
 2974TIP3    H2 8887   5.743  -0.023   1.866
 2975TIP3   OH2 8888   0.577   4.100   2.043
 2975TIP3    H1 8889   0.593   4.164   1.973
 2975TIP3    H2 8890   0.651   4.039   2.036
 2976TIP3   OH2 8891   0.604   2.833   1.014
 2976TIP3    H1 8892   0.510   2.846   1.000
 2976TIP3    H2 8893   0.627   2.898   1.080
 2977TIP3   OH2 8894   2.784   2.887   0.062
 2977TIP3    H1 8895   2.835   2.966   0.043
 2977TIP3    H2 8896   2.772   2.846  -0.024
 2978TIP3   OH2 8897   1.588   4.221   0.499
 2978TIP3    H1 8898   1.643   4.261   0.567
 2978TIP3    H2 8899   1.647   4.159   0.454
 2979TIP3   OH2 8900   0.815   0.033   3.916
 2979TIP3    H1 8901   0.819  -0.056   3.882
 2979TIP3    H2 8902   0.889   0.078   3.876
 2980TIP3   OH2 8903   5.261   3.116   3.053
 2980TIP3    H1 8904   5.280   3.142   3.143
 2980TIP3    H2 8905   5.169   3.137   3.041
 2981TIP3   OH2 8906   5.533   3.270   1.047
 2981TIP3    H1 8907   5.439   3.279   1.033
 2981TIP3    H2 8908   5.570   3.353   1.018
 2982TIP3   OH2 8909   4.494   2.782   1.147
 2982TIP3    H1 8910   4.579   2.789   1.104
 2982TIP3    H2 8911   4.431   2.792   1.076
 2983TIP3   OH2 8912   1.647   2.499   2.237
 2983TIP3    H1 8913   1.620   2.558   2.307
 2983TIP3    H2 8914   1.674   2.557   2.166
 2984TIP3   OH2 8915   0.615   5.539   1.965
 2984TIP3    H1 8916   0.626   5.579   2.051
 2984TIP3    H2 8917   0.700   5.549   1.923
 2985TIP3   OH2 8918   4.809   3.974   1.016
 2985TIP3    H1 8919   4.861   4.054   1.005
 2985TIP3    H2 8920   4.764   3.986   1.099
 2986TIP3   OH2 8921   3.757   6.274   0.880
 2986TIP3    H1 8922   3.845   6.280   0.919
 2986TIP3    H2 8923   3.768   6.307   0.791
 2987TIP3   OH2 8924   3.302   4.178   2.476
 2987TIP3    H1 8925   3.248   4.244   2.434
 2987TIP3    H2 8926   3.255   4.155   2.556
 2988TIP3   OH2 8927   0.948   4.135   1.752
 2988TIP3    H1 8928   0.909   4.195   1.688
 2988TIP3    H2 8929   0.934   4.048   1.715
 2989TIP3   OH2 8930   0.236   0.700   2.868
 2989TIP3    H1 8931   0.211   0.674   2.957
 2989TIP3    H2 8932   0.154   0.702   2.820
 2990TIP3   OH2 8933   3.070   6.706   5.495
 2990TIP3    H1 8934   3.041   6.777   5.437
 2990TIP3    H2 8935   3.163   6.722   5.507
 2991TIP3   OH2 8936   1.736   4.956   1.284
 2991TIP3    H1 8937   1.783   5.026   1.239
 2991TIP3    H2 8938   1.670   4.927   1.221
 2992TIP3   OH2 8939   4.866   5.500   1.707
 2992TIP3    H1 8940   4.959   5.521   1.697
 2992TIP3    H2 8941   4.834   5.487   1.618
 2993TIP3   OH2 8942   6.004   0.083   2.596
 2993TIP3    H1 8943   5.985  -0.011   2.591
 2993TIP3    H2 8944   6.058   0.101   2.520
 2994TIP3   OH2 8945   6.944   2.052   0.699
 2994TIP3    H1 8946   6.963   2.081   0.788
 2994TIP3    H2 8947   7.010   2.096   0.645
 2995TIP3   OH2 8948   4.793   1.076   2.414
 2995TIP3    H1 8949   4.803   1.008   2.347
 2995TIP3    H2 8950   4.834   1.038   2.492
 2996TIP3   OH2 8951   3.789   6.454   2.087
 2996TIP3    H1 8952   3.796   6.368   2.128
 2996TIP3    H2 8953   3.695   6.473   2.090
 2997TIP3   OH2 8954   1.934   3.452   4.245
 2997TIP3    H1 8955   2.013   3.402   4.224
 2997TIP3    H2 8956   1.953   3.541   4.214
 2998TIP3   OH2 8957   3.012   5.521   1.129
 2998TIP3    H1 8958   2.946   5.554   1.068
 2998TIP3    H2 8959   3.062   5.457   1.078
 2999TIP3   OH2 8960   0.686   2.303   1.748
 2999TIP3    H1 8961   0.634   2.288   1.827
 2999TIP3    H2 8962   0.677   2.222   1.697
 3000TIP3   OH2 8963   4.871   0.878   5.158
 3000TIP3    H1 8964   4.904   0.872   5.247
 3000TIP3    H2 8965   4.948   0.864   5.103
 3001TIP3   OH2 8966   3.427   2.019   3.078
 3001TIP3    H1 8967   3.408   2.089   3.015
 3001TIP3    H2 8968   3.510   1.983   3.048
 3002TIP3   OH2 8969   6.195   1.685   2.108
 3002TIP3    H1 8970   6.143   1.702   2.187
 3002TIP3    H2 8971   6.160   1.746   2.043
 3003TIP3   OH2 8972   7.028   5.642   2.754
 3003TIP3    H1 8973   7.098   5.707   2.744
 3003TIP3    H2 8974   6.998   5.625   2.665
 3004TIP3   OH2 8975   1.867   0.931  -0.010
 3004TIP3    H1 8976   1.782   0.901  -0.043
 3004TIP3    H2 8977   1.911   0.852   0.020
 3005TIP3   OH2 8978   2.246   0.986   3.455
 3005TIP3    H1 8979   2.172   0.947   3.501
 3005TIP3    H2 8980   2.262   1.068   3.501
 3006TIP3   OH2 8981   1.950   4.765   1.142
 3006TIP3    H1 8982   2.026   4.719   1.107
 3006TIP3    H2 8983   1.971   4.858   1.132
 3007TIP3   OH2 8984   1.892   6.588   1.652
 3007TIP3    H1 8985   1.941   6.567   1.573
 3007TIP3    H2 8986   1.955   6.634   1.708
 3008TIP3   OH2 8987   2.931   5.978   0.304
 3008TIP3    H1 8988   3.006   5.930   0.269
 3008TIP3    H2 8989   2.955   5.998   0.394
 3009TIP3   OH2 8990   6.623   6.122   1.496
 3009TIP3    H1 8991   6.713   6.143   1.473
 3009TIP3    H2 8992   6.570   6.188   1.451
 3010TIP3   OH2 8993   6.961   2.727   4.705
 3010TIP3    H1 8994   7.021   2.771   4.645
 3010TIP3    H2 8995   6.927   2.797   4.760
 3011TIP3   OH2 8996   0.759   1.302   0.134
 3011TIP3    H1 8997   0.707   1.274   0.209
 3011TIP3    H2 8998   0.707   1.277   0.058
 3012TIP3   OH2 8999   2.423   5.422   4.591
 3012TIP3    H1 9000   2.388   5.358   4.653
 3012TIP3    H2 9001   2.478   5.371   4.532
 3013TIP3   OH2 9002   3.830   4.590   2.215
 3013TIP3    H1 9003   3.743   4.607   2.179
 3013TIP3    H2 9004   3.873   4.676   2.216
 3014TIP3   OH2 9005   0.985   5.762   3.236
 3014TIP3    H1 9006   1.079   5.752   3.225
 3014TIP3    H2 9007   0.971   5.856   3.250
 3015TIP3   OH2 9008   7.201   2.530   4.634
 3015TIP3    H1 9009   7.252   2.604   4.668
 3015TIP3    H2 9010   7.110   2.559   4.642
 3016TIP3   OH2 9011   5.227   0.916   3.232
 3016TIP3    H1 9012   5.240   0.870   3.315
 3016TIP3    H2 9013   5.313   0.912   3.189
 3017TIP3   OH2 9014   5.224   2.813   2.020
 3017TIP3    H1 9015   5.238   2.722   2.047
 3017TIP3    H2 9016   5.183   2.806   1.934
 3018TIP3   OH2 9017   7.130   0.186   4.098
 3018TIP3    H1 9018   7.157   0.241   4.024
 3018TIP3    H2 9019   7.045   0.151   4.072
 3019TIP3   OH2 9020   5.599   6.677   3.569
 3019TIP3    H1 9021   5.610   6.626   3.649
 3019TIP3    H2 9022   5.681   6.726   3.560
 3020TIP3   OH2 9023   5.333   6.038   3.041
 3020TIP3    H1 9024   5.401   5.979   3.010
 3020TIP3    H2 9025   5.380   6.107   3.089
 3021TIP3   OH2 9026   4.789   5.010   1.280
 3021TIP3    H1 9027   4.696   5.011   1.256
 3021TIP3    H2 9028   4.798   5.082   1.342
 3022TIP3   OH2 9029   2.912   0.452   5.120
 3022TIP3    H1 9030   2.825   0.487   5.138
 3022TIP3    H2 9031   2.899   0.391   5.048
 3023TIP3   OH2 9032   1.476   0.780   0.458
 3023TIP3    H1 9033   1.514   0.705   0.413
 3023TIP3    H2 9034   1.402   0.743   0.507
 3024TIP3   OH2 9035   6.321   1.174   0.610
 3024TIP3    H1 9036   6.408   1.146   0.641
 3024TIP3    H2 9037   6.340   1.237   0.540
 3025TIP3   OH2 9038   2.329   3.656   5.466
 3025TIP3    H1 9039   2.239   3.687   5.451
 3025TIP3    H2 9040   2.319   3.589   5.534
 3026TIP3   OH2 9041   2.475   5.366   0.589
 3026TIP3    H1 9042   2.388   5.378   0.628
 3026TIP3    H2 9043   2.473   5.419   0.510
 3027TIP3   OH2 9044   5.558   5.950   1.151
 3027TIP3    H1 9045   5.604   6.025   1.189
 3027TIP3    H2 9046   5.501   5.989   1.084
 3028TIP3   OH2 9047   5.231   3.361   5.136
 3028TIP3    H1 9048   5.244   3.399   5.050
 3028TIP3    H2 9049   5.136   3.348   5.143
 3029TIP3   OH2 9050   2.588   5.994   0.646
 3029TIP3    H1 9051   2.634   5.926   0.695
 3029TIP3    H2 9052   2.626   5.991   0.559
 3030TIP3   OH2 9053   3.369   1.647   4.438
 3030TIP3    H1 9054   3.292   1.593   4.421
 3030TIP3    H2 9055   3.441   1.602   4.395
 3031TIP3   OH2 9056   0.341   0.948   1.181
 3031TIP3    H1 9057   0.399   0.950   1.105
 3031TIP3    H2 9058   0.375   1.017   1.238
 3032TIP3   OH2 9059   4.084   0.259   0.788
 3032TIP3    H1 9060   4.166   0.238   0.745
 3032TIP3    H2 9061   4.077   0.196   0.860
 3033TIP3   OH2 9062   3.643   5.360   0.771
 3033TIP3    H1 9063   3.668   5.434   0.827
 3033TIP3    H2 9064   3.603   5.401   0.694
 3034TIP3   OH2 9065   6.092   2.091   2.145
 3034TIP3    H1 9066   6.097   2.016   2.204
 3034TIP3    H2 9067   6.140   2.160   2.190
 3035TIP3   OH2 9068   6.116   3.795   4.890
 3035TIP3    H1 9069   6.020   3.794   4.898
 3035TIP3    H2 9070   6.132   3.841   4.808
 3036TIP3   OH2 9071   6.223   6.526   2.220
 3036TIP3    H1 9072   6.239   6.438   2.186
 3036TIP3    H2 9073   6.204   6.512   2.313
 3037TIP3   OH2 9074   3.788   6.380   0.239
 3037TIP3    H1 9075   3.768   6.408   0.328
 3037TIP3    H2 9076   3.770   6.458   0.185
 3038TIP3   OH2 9077   1.212   0.246   1.671
 3038TIP3    H1 9078   1.287   0.305   1.674
 3038TIP3    H2 9079   1.159   0.270   1.748
 3039TIP3   OH2 9080   1.790   2.642   1.952
 3039TIP3    H1 9081   1.749   2.679   1.874
 3039TIP3    H2 9082   1.781   2.547   1.940
 3040TIP3   OH2 9083   1.427   1.243   1.390
 3040TIP3    H1 9084   1.438   1.338   1.399
 3040TIP3    H2 9085   1.514   1.207   1.403
 3041TIP3   OH2 9086   3.085   3.027   5.800
 3041TIP3    H1 9087   3.048   2.982   5.724
 3041TIP3    H2 9088   3.177   3.001   5.801
 3042TIP3   OH2 9089   1.878   6.597   3.658
 3042TIP3    H1 9090   1.938   6.575   3.587
 3042TIP3    H2 9091   1.932   6.646   3.720
 3043TIP3   OH2 9092   2.802   0.406   3.357
 3043TIP3    H1 9093   2.785   0.486   3.408
 3043TIP3    H2 9094   2.766   0.336   3.411
 3044TIP3   OH2 9095   1.346   1.507   5.054
 3044TIP3    H1 9096   1.365   1.432   4.998
 3044TIP3    H2 9097   1.356   1.583   4.997
 3045TIP3   OH2 9098   1.452   3.753   1.674
 3045TIP3    H1 9099   1.505   3.823   1.635
 3045TIP3    H2 9100   1.447   3.777   1.767
 3046TIP3   OH2 9101   6.040   1.984   4.526
 3046TIP3    H1 9102   6.017   1.941   4.609
 3046TIP3    H2 9103   6.034   2.078   4.546
 3047TIP3   OH2 9104   6.230   2.354   0.841
 3047TIP3    H1 9105   6.148   2.402   0.856
 3047TIP3    H2 9106   6.280   2.411   0.783
 3048TIP3   OH2 9107   3.182   0.284   1.918
 3048TIP3    H1 9108   3.135   0.290   2.002
 3048TIP3    H2 9109   3.259   0.339   1.930
 3049TIP3   OH2 9110   1.969   1.704   4.079
 3049TIP3    H1 9111   2.064   1.698   4.087
 3049TIP3    H2 9112   1.947   1.643   4.009
 3050TIP3   OH2 9113   3.853   1.428   0.131
 3050TIP3    H1 9114   3.851   1.374   0.052
 3050TIP3    H2 9115   3.793   1.500   0.113
 3051TIP3   OH2 9116   6.195   4.746   5.736
 3051TIP3    H1 9117   6.195   4.794   5.653
 3051TIP3    H2 9118   6.280   4.703   5.738
 3052TIP3   OH2 9119   0.302   1.342   1.447
 3052TIP3    H1 9120   0.373   1.279   1.460
 3052TIP3    H2 9121   0.240   1.323   1.517
 3053TIP3   OH2 9122   6.423   3.918   1.778
 3053TIP3    H1 9123   6.458   3.994   1.824
 3053TIP3    H2 9124   6.336   3.904   1.816
 3054TIP3   OH2 9125   3.044   0.101   0.821
 3054TIP3    H1 9126   3.110   0.130   0.883
 3054TIP3    H2 9127   3.092   0.048   0.757
 3055TIP3   OH2 9128   1.536   5.589   4.212
 3055TIP3    H1 9129   1.445   5.613   4.234
 3055TIP3    H2 9130   1.584   5.604   4.293
 3056TIP3   OH2 9131   6.381   2.371   2.667
 3056TIP3    H1 9132   6.342   2.326   2.593
 3056TIP3    H2 9133   6.390   2.462   2.638
 3057TIP3   OH2 9134   1.823   4.172   3.789
 3057TIP3    H1 9135   1.842   4.105   3.723
 3057TIP3    H2 9136   1.794   4.123   3.865
 3058TIP3   OH2 9137   1.816   1.395   4.046
 3058TIP3    H1 9138   1.758   1.327   4.080
 3058TIP3    H2 9139   1.774   1.477   4.073
 3059TIP3   OH2 9140   2.419   2.531   2.819
 3059TIP3    H1 9141   2.479   2.600   2.791
 3059TIP3    H2 9142   2.444   2.455   2.767
 3060TIP3   OH2 9143   0.593   0.829   2.686
 3060TIP3    H1 9144   0.541   0.836   2.606
 3060TIP3    H2 9145   0.681   0.808   2.655
 3061TIP3   OH2 9146   3.355   4.003   2.928
 3061TIP3    H1 9147   3.347   3.974   2.837
 3061TIP3    H2 9148   3.302   3.940   2.977
 3062TIP3   OH2 9149   1.125   3.666   2.073
 3062TIP3    H1 9150   1.101   3.679   2.165
 3062TIP3    H2 9151   1.078   3.735   2.026
 3063TIP3   OH2 9152   3.334   1.773   0.633
 3063TIP3    H1 9153   3.320   1.743   0.543
 3063TIP3    H2 9154   3.343   1.693   0.684
 3064TIP3   OH2 9155   0.315   4.705   5.599
 3064TIP3    H1 9156   0.242   4.766   5.615
 3064TIP3    H2 9157   0.377   4.756   5.546
 3065TIP3   OH2 9158   0.825   1.583   1.014
 3065TIP3    H1 9159   0.785   1.556   1.097
 3065TIP3    H2 9160   0.751   1.599   0.956
 3066TIP3   OH2 9161   3.064   1.411   0.286
 3066TIP3    H1 9162   3.052   1.460   0.367
 3066TIP3    H2 9163   3.141   1.357   0.302
 3067TIP3   OH2 9164   5.107   6.581   4.345
 3067TIP3    H1 9165   5.023   6.562   4.386
 3067TIP3    H2 9166   5.155   6.633   4.409
 3068TIP3   OH2 9167   0.674   3.624   3.330
 3068TIP3    H1 9168   0.638   3.705   3.294
 3068TIP3    H2 9169   0.597   3.577   3.362
 3069TIP3   OH2 9170   0.041   5.593   2.239
 3069TIP3    H1 9171   0.088   5.529   2.293
 3069TIP3    H2 9172   0.027   5.548   2.156
 3070TIP3   OH2 9173   1.004   0.455   0.922
 3070TIP3    H1 9174   0.997   0.399   0.845
 3070TIP3    H2 9175   1.097   0.454   0.945
 3071TIP3   OH2 9176   2.536   2.354   5.663
 3071TIP3    H1 9177   2.441   2.341   5.658
 3071TIP3    H2 9178   2.573   2.272   5.631
 3072TIP3   OH2 9179   6.445   0.566   3.417
 3072TIP3    H1 9180   6.399   0.525   3.343
 3072TIP3    H2 9181   6.442   0.501   3.487
 3073TIP3   OH2 9182   0.787   5.975   1.084
 3073TIP3    H1 9183   0.715   5.954   1.025
 3073TIP3    H2 9184   0.844   6.032   1.033
 3074TIP3   OH2 9185   2.183   3.155   3.312
 3074TIP3    H1 9186   2.140   3.167   3.397
 3074TIP3    H2 9187   2.135   3.213   3.253
 3075TIP3   OH2 9188   6.127   1.535   1.161
 3075TIP3    H1 9189   6.118   1.627   1.135
 3075TIP3    H2 9190   6.063   1.488   1.108
 3076TIP3   OH2 9191   7.063   4.859   3.903
 3076TIP3    H1 9192   7.153   4.859   3.935
 3076TIP3    H2 9193   7.038   4.766   3.902
 3077TIP3   OH2 9194   0.837   4.850   0.969
 3077TIP3    H1 9195   0.892   4.924   0.944
 3077TIP3    H2 9196   0.804   4.815   0.886
 3078TIP3   OH2 9197   2.528   5.810   5.262
 3078TIP3    H1 9198   2.534   5.867   5.339
 3078TIP3    H2 9199   2.558   5.865   5.189
 3079TIP3   OH2 9200   2.105   4.565   1.738
 3079TIP3    H1 9201   2.089   4.521   1.655
 3079TIP3    H2 9202   2.173   4.628   1.720
 3080TIP3   OH2 9203   4.284   3.468   4.593
 3080TIP3    H1 9204   4.321   3.523   4.662
 3080TIP3    H2 9205   4.318   3.381   4.610
 3081TIP3   OH2 9206   4.212   5.956   5.452
 3081TIP3    H1 9207   4.299   5.947   5.492
 3081TIP3    H2 9208   4.159   5.889   5.495
 3082TIP3   OH2 9209   6.316   3.062   3.841
 3082TIP3    H1 9210   6.389   3.114   3.874
 3082TIP3    H2 9211   6.324   2.978   3.885
 3083TIP3   OH2 9212   1.818   2.774   5.389
 3083TIP3    H1 9213   1.727   2.747   5.380
 3083TIP3    H2 9214   1.841   2.809   5.302
 3084TIP3   OH2 9215   1.448   3.532   2.924
 3084TIP3    H1 9216   1.489   3.555   3.007
 3084TIP3    H2 9217   1.441   3.615   2.877
 3085TIP3   OH2 9218   6.759   3.885   2.358
 3085TIP3    H1 9219   6.692   3.869   2.425
 3085TIP3    H2 9220   6.815   3.807   2.361
 3086TIP3   OH2 9221   5.721   0.590   5.209
 3086TIP3    H1 9222   5.816   0.594   5.216
 3086TIP3    H2 9223   5.698   0.660   5.149
 3087TIP3   OH2 9224   1.724   0.879   5.841
 3087TIP3    H1 9225   1.665   0.809   5.815
 3087TIP3    H2 9226   1.793   0.878   5.775
 3088TIP3   OH2 9227   4.704   3.334   2.670
 3088TIP3    H1 9228   4.683   3.326   2.577
 3088TIP3    H2 9229   4.699   3.244   2.703
 3089TIP3   OH2 9230   4.745   1.089   0.101
 3089TIP3    H1 9231   4.803   1.109   0.028
 3089TIP3    H2 9232   4.732   1.173   0.146
 3090TIP3   OH2 9233   3.210   3.094   1.625
 3090TIP3    H1 9234   3.200   3.078   1.719
 3090TIP3    H2 9235   3.160   3.175   1.609
 3091TIP3   OH2 9236   6.051   3.585   5.570
 3091TIP3    H1 9237   6.042   3.657   5.507
 3091TIP3    H2 9238   6.032   3.625   5.655
 3092TIP3   OH2 9239   5.627   6.528   1.675
 3092TIP3    H1 9240   5.603   6.543   1.766
 3092TIP3    H2 9241   5.566   6.584   1.626
 3093TIP3   OH2 9242   1.832   3.367   0.683
 3093TIP3    H1 9243   1.755   3.310   0.686
 3093TIP3    H2 9244   1.813   3.436   0.746
 3094TIP3   OH2 9245   6.020   1.517   4.652
 3094TIP3    H1 9246   6.061   1.588   4.701
 3094TIP3    H2 9247   5.979   1.560   4.577
 3095TIP3   OH2 9248   5.867   6.467   0.379
 3095TIP3    H1 9249   5.859   6.551   0.334
 3095TIP3    H2 9250   5.805   6.474   0.452
 3096TIP3   OH2 9251   4.348   3.068   5.042
 3096TIP3    H1 9252   4.346   3.132   5.112
 3096TIP3    H2 9253   4.401   3.108   4.974
 3097TIP3   OH2 9254   3.292   0.874   0.351
 3097TIP3    H1 9255   3.363   0.834   0.402
 3097TIP3    H2 9256   3.213   0.828   0.379
 3098TIP3   OH2 9257   3.541   2.063   1.803
 3098TIP3    H1 9258   3.632   2.085   1.821
 3098TIP3    H2 9259   3.504   2.041   1.889
 3099TIP3   OH2 9260   1.359   2.254   1.610
 3099TIP3    H1 9261   1.429   2.229   1.670
 3099TIP3    H2 9262   1.279   2.251   1.663
 3100TIP3   OH2 9263   1.339   4.203   4.316
 3100TIP3    H1 9264   1.264   4.148   4.336
 3100TIP3    H2 9265   1.340   4.270   4.384
 3101TIP3   OH2 9266   4.709   6.262   5.723
 3101TIP3    H1 9267   4.752   6.319   5.787
 3101TIP3    H2 9268   4.683   6.321   5.652
 3102TIP3   OH2 9269   0.270   6.148   1.730
 3102TIP3    H1 9270   0.268   6.162   1.635
 3102TIP3    H2 9271   0.256   6.235   1.767
 3103TIP3   OH2 9272   3.498   3.431   5.794
 3103TIP3    H1 9273   3.570   3.405   5.851
 3103TIP3    H2 9274   3.507   3.526   5.785
 3104TIP3   OH2 9275   5.873   0.048   0.355
 3104TIP3    H1 9276   5.855   0.134   0.317
 3104TIP3    H2 9277   5.842  -0.014   0.290
 3105TIP3   OH2 9278   6.673   4.691   3.431
 3105TIP3    H1 9279   6.702   4.712   3.520
 3105TIP3    H2 9280   6.727   4.747   3.375
 3106TIP3   OH2 9281   6.914   5.545   1.886
 3106TIP3    H1 9282   6.929   5.463   1.932
 3106TIP3    H2 9283   6.985   5.602   1.915
 3107TIP3   OH2 9284   6.250   1.843   0.668
 3107TIP3    H1 9285   6.324   1.800   0.710
 3107TIP3    H2 9286   6.259   1.935   0.692
 3108TIP3   OH2 9287   4.858   4.628   4.674
 3108TIP3    H1 9288   4.803   4.706   4.671
 3108TIP3    H2 9289   4.916   4.642   4.750
 3109TIP3   OH2 9290   3.524   3.982   0.135
 3109TIP3    H1 9291   3.550   4.050   0.073
 3109TIP3    H2 9292   3.531   3.901   0.086
 3110TIP3   OH2 9293   3.194   2.208   0.557
 3110TIP3    H1 9294   3.187   2.113   0.558
 3110TIP3    H2 9295   3.280   2.226   0.518
 3111TIP3   OH2 9296   0.959   6.778   4.595
 3111TIP3    H1 9297   0.997   6.856   4.554
 3111TIP3    H2 9298   1.024   6.752   4.661
 3112TIP3   OH2 9299   3.058   3.054   1.300
 3112TIP3    H1 9300   3.015   3.123   1.250
 3112TIP3    H2 9301   3.142   3.040   1.255
 3113TIP3   OH2 9302   4.192   4.885   2.298
 3113TIP3    H1 9303   4.241   4.930   2.229
 3113TIP3    H2 9304   4.102   4.914   2.287
 3114TIP3   OH2 9305   5.372   2.853   5.701
 3114TIP3    H1 9306   5.303   2.867   5.765
 3114TIP3    H2 9307   5.351   2.914   5.630
 3115TIP3   OH2 9308   2.040   4.113   2.668
 3115TIP3    H1 9309   2.066   4.204   2.654
 3115TIP3    H2 9310   2.093   4.083   2.742
 3116TIP3   OH2 9311   0.801   6.650   3.332
 3116TIP3    H1 9312   0.724   6.594   3.323
 3116TIP3    H2 9313   0.871   6.590   3.356
 3117TIP3   OH2 9314   4.257   4.421   5.069
 3117TIP3    H1 9315   4.328   4.470   5.026
 3117TIP3    H2 9316   4.298   4.343   5.104
 3118TIP3   OH2 9317   5.284   0.112   1.870
 3118TIP3    H1 9318   5.284   0.171   1.945
 3118TIP3    H2 9319   5.192   0.111   1.841
 3119TIP3   OH2 9320   4.292   1.537   2.263
 3119TIP3    H1 9321   4.352   1.473   2.223
 3119TIP3    H2 9322   4.347   1.589   2.321
 3120TIP3   OH2 9323   3.102   0.509   3.486
 3120TIP3    H1 9324   3.143   0.429   3.450
 3120TIP3    H2 9325   3.024   0.477   3.532
 3121TIP3   OH2 9326   4.754   3.936   4.313
 3121TIP3    H1 9327   4.703   4.006   4.354
 3121TIP3    H2 9328   4.691   3.889   4.259
 3122TIP3   OH2 9329   1.360   3.743   5.116
 3122TIP3    H1 9330   1.433   3.802   5.133
 3122TIP3    H2 9331   1.301   3.756   5.190
 3123TIP3   OH2 9332   2.359   4.405   0.857
 3123TIP3    H1 9333   2.444   4.425   0.896
 3123TIP3    H2 9334   2.378   4.341   0.788
 3124TIP3   OH2 9335   1.540   0.673   3.620
 3124TIP3    H1 9336   1.489   0.660   3.539
 3124TIP3    H2 9337   1.474   0.678   3.689
 3125TIP3   OH2 9338   4.003   2.349   2.290
 3125TIP3    H1 9339   4.070   2.323   2.354
 3125TIP3    H2 9340   4.043   2.421   2.242
 3126TIP3   OH2 9341   6.811   0.812   2.299
 3126TIP3    H1 9342   6.815   0.794   2.205
 3126TIP3    H2 9343   6.718   0.831   2.316
 3127TIP3   OH2 9344   5.264   1.527   2.882
 3127TIP3    H1 9345   5.306   1.597   2.931
 3127TIP3    H2 9346   5.176   1.521   2.919
 3128TIP3   OH2 9347   5.442   0.927   2.822
 3128TIP3    H1 9348   5.479   0.890   2.742
 3128TIP3    H2 9349   5.515   0.972   2.864
 3129TIP3   OH2 9350   2.529   3.065   4.386
 3129TIP3    H1 9351   2.436   3.055   4.367
 3129TIP3    H2 9352   2.565   3.108   4.309
 3130TIP3   OH2 9353   1.581   1.132   5.484
 3130TIP3    H1 9354   1.630   1.053   5.506
 3130TIP3    H2 9355   1.566   1.175   5.568
 3131TIP3   OH2 9356   3.313   1.266   0.241
 3131TIP3    H1 9357   3.283   1.239   0.155
 3131TIP3    H2 9358   3.373   1.339   0.225
 3132TIP3   OH2 9359   4.729   4.567   4.280
 3132TIP3    H1 9360   4.707   4.585   4.371
 3132TIP3    H2 9361   4.652   4.597   4.231
 3133TIP3   OH2 9362   2.529   6.322   4.703
 3133TIP3    H1 9363   2.503   6.329   4.611
 3133TIP3    H2 9364   2.550   6.411   4.729
 3134TIP3   OH2 9365   3.123   0.974   5.366
 3134TIP3    H1 9366   3.075   0.904   5.322
 3134TIP3    H2 9367   3.164   0.931   5.441
 3135TIP3   OH2 9368   7.103   0.886   3.666
 3135TIP3    H1 9369   7.095   0.976   3.632
 3135TIP3    H2 9370   7.025   0.841   3.635
 3136TIP3   OH2 9371   6.687   6.254   0.768
 3136TIP3    H1 9372   6.663   6.165   0.794
 3136TIP3    H2 9373   6.626   6.310   0.817
 3137TIP3   OH2 9374   3.011   3.219   0.887
 3137TIP3    H1 9375   2.934   3.238   0.833
 3137TIP3    H2 9376   2.975   3.180   0.967
 3138TIP3   OH2 9377   5.607   5.056   5.212
 3138TIP3    H1 9378   5.582   5.070   5.121
 3138TIP3    H2 9379   5.701   5.038   5.209
 3139TIP3   OH2 9380   4.117   1.410   0.239
 3139TIP3    H1 9381   4.022   1.408   0.234
 3139TIP3    H2 9382   4.137   1.499   0.268
 3140TIP3   OH2 9383   5.465   5.651   3.891
 3140TIP3    H1 9384   5.442   5.572   3.842
 3140TIP3    H2 9385   5.409   5.719   3.854
 3141TIP3   OH2 9386   3.258   5.626   4.856
 3141TIP3    H1 9387   3.279   5.629   4.763
 3141TIP3    H2 9388   3.288   5.540   4.885
 3142TIP3   OH2 9389   3.870   4.705   2.465
 3142TIP3    H1 9390   3.827   4.646   2.403
 3142TIP3    H2 9391   3.815   4.700   2.544
 3143TIP3   OH2 9392   6.573   4.700   5.503
 3143TIP3    H1 9393   6.551   4.785   5.541
 3143TIP3    H2 9394   6.622   4.655   5.572
 3144TIP3   OH2 9395   4.462   5.606   2.442
 3144TIP3    H1 9396   4.490   5.678   2.385
 3144TIP3    H2 9397   4.392   5.563   2.392
 3145TIP3   OH2 9398   2.820   1.352   3.736
 3145TIP3    H1 9399   2.848   1.379   3.823
 3145TIP3    H2 9400   2.808   1.434   3.688
 3146TIP3   OH2 9401   5.250   0.635   5.005
 3146TIP3    H1 9402   5.262   0.540   5.001
 3146TIP3    H2 9403   5.338   0.671   4.996
 3147TIP3   OH2 9404   6.260   4.336   3.424
 3147TIP3    H1 9405   6.321   4.398   3.465
 3147TIP3    H2 9406   6.175   4.381   3.428
 3148TIP3   OH2 9407   1.580   2.648   5.425
 3148TIP3    H1 9408   1.494   2.689   5.424
 3148TIP3    H2 9409   1.576   2.584   5.496
 3149TIP3   OH2 9410   5.687   3.578   1.897
 3149TIP3    H1 9411   5.697   3.648   1.961
 3149TIP3    H2 9412   5.767   3.526   1.906
 3150TIP3   OH2 9413   3.854   0.984   3.703
 3150TIP3    H1 9414   3.839   0.956   3.793
 3150TIP3    H2 9415   3.949   0.982   3.692
 3151TIP3   OH2 9416   7.082   4.358   1.195
 3151TIP3    H1 9417   7.113   4.296   1.262
 3151TIP3    H2 9418   7.160   4.379   1.143
 3152TIP3   OH2 9419   0.796   4.442   2.943
 3152TIP3    H1 9420   0.873   4.424   2.997
 3152TIP3    H2 9421   0.831   4.483   2.864
 3153TIP3   OH2 9422   4.147   6.553   3.728
 3153TIP3    H1 9423   4.212   6.502   3.775
 3153TIP3    H2 9424   4.115   6.617   3.793
 3154TIP3   OH2 9425   0.303   3.675   1.667
 3154TIP3    H1 9426   0.234   3.653   1.729
 3154TIP3    H2 9427   0.272   3.642   1.583
 3155TIP3   OH2 9428   5.280   5.840   3.769
 3155TIP3    H1 9429   5.201   5.793   3.744
 3155TIP3    H2 9430   5.337   5.833   3.692
 3156TIP3   OH2 9431   5.186   5.717   4.053
 3156TIP3    H1 9432   5.242   5.784   4.016
 3156TIP3    H2 9433   5.209   5.637   4.006
 3157TIP3   OH2 9434   1.825   1.595   2.235
 3157TIP3    H1 9435   1.771   1.529   2.191
 3157TIP3    H2 9436   1.869   1.547   2.304
 3158TIP3   OH2 9437   2.724   6.651   5.706
 3158TIP3    H1 9438   2.644   6.610   5.738
 3158TIP3    H2 9439   2.790   6.582   5.710
 3159TIP3   OH2 9440   5.938   2.375   2.269
 3159TIP3    H1 9441   5.971   2.460   2.301
 3159TIP3    H2 9442   6.008   2.313   2.290
 3160TIP3   OH2 9443   1.076   0.160   4.601
 3160TIP3    H1 9444   1.117   0.080   4.632
 3160TIP3    H2 9445   1.145   0.206   4.554
 3161TIP3   OH2 9446   2.066   2.796   2.801
 3161TIP3    H1 9447   1.989   2.849   2.777
 3161TIP3    H2 9448   2.138   2.859   2.801
 3162TIP3   OH2 9449   1.865   2.180   2.226
 3162TIP3    H1 9450   1.892   2.088   2.230
 3162TIP3    H2 9451   1.947   2.229   2.239
 3163TIP3   OH2 9452   6.513   5.035   5.803
 3163TIP3    H1 9453   6.495   5.035   5.709
 3163TIP3    H2 9454   6.550   4.948   5.820
 3164TIP3   OH2 9455   2.760   5.680   0.102
 3164TIP3    H1 9456   2.820   5.668   0.029
 3164TIP3    H2 9457   2.815   5.677   0.180
 3165TIP3   OH2 9458   5.892   4.842   0.968
 3165TIP3    H1 9459   5.983   4.859   0.946
 3165TIP3    H2 9460   5.859   4.925   1.001
 3166TIP3   OH2 9461   3.118   2.842   5.521
 3166TIP3    H1 9462   3.129   2.760   5.474
 3166TIP3    H2 9463   3.204   2.884   5.517
 3167TIP3   OH2 9464   4.421   0.459   5.502
 3167TIP3    H1 9465   4.499   0.496   5.544
 3167TIP3    H2 9466   4.420   0.367   5.531
 3168TIP3   OH2 9467   2.176   5.074   5.467
 3168TIP3    H1 9468   2.102   5.040   5.417
 3168TIP3    H2 9469   2.166   5.169   5.465
 3169TIP3   OH2 9470   0.336   2.880   1.066
 3169TIP3    H1 9471   0.285   2.810   1.026
 3169TIP3    H2 9472   0.295   2.961   1.033
 3170TIP3   OH2 9473   5.930   1.497   0.940
 3170TIP3    H1 9474   5.903   1.458   1.023
 3170TIP3    H2 9475   5.849   1.522   0.897
 3171TIP3   OH2 9476   6.666   2.994   3.870
 3171TIP3    H1 9477   6.734   3.002   3.803
 3171TIP3    H2 9478   6.708   3.024   3.951
 3172TIP3   OH2 9479   1.846   1.466   3.498
 3172TIP3    H1 9480   1.921   1.525   3.491
 3172TIP3    H2 9481   1.773   1.522   3.524
 3173TIP3   OH2 9482   4.744   4.860   1.023
 3173TIP3    H1 9483   4.808   4.796   0.991
 3173TIP3    H2 9484   4.783   4.895   1.104
 3174TIP3   OH2 9485   3.532   6.156   5.225
 3174TIP3    H1 9486   3.612   6.119   5.263
 3174TIP3    H2 9487   3.560   6.194   5.142
 3175TIP3   OH2 9488   3.083   6.283   3.902
 3175TIP3    H1 9489   3.035   6.210   3.941
 3175TIP3    H2 9490   3.026   6.313   3.830
 3176TIP3   OH2 9491   4.557   0.813   2.677
 3176TIP3    H1 9492   4.628   0.861   2.720
 3176TIP3    H2 9493   4.513   0.766   2.748
 3177TIP3   OH2 9494   3.597   4.351   3.143
 3177TIP3    H1 9495   3.640   4.294   3.080
 3177TIP3    H2 9496   3.653   4.346   3.221
 3178TIP3   OH2 9497   4.448   1.904   1.676
 3178TIP3    H1 9498   4.495   1.937   1.752
 3178TIP3    H2 9499   4.411   1.982   1.634
 3179TIP3   OH2 9500   5.832   0.717   2.852
 3179TIP3    H1 9501   5.815   0.685   2.763
 3179TIP3    H2 9502   5.897   0.657   2.888
 3180TIP3   OH2 9503   1.193   0.221   0.751
 3180TIP3    H1 9504   1.176   0.165   0.827
 3180TIP3    H2 9505   1.106   0.238   0.714
 3181TIP3   OH2 9506   6.592   3.570   2.638
 3181TIP3    H1 9507   6.607   3.580   2.544
 3181TIP3    H2 9508   6.678   3.586   2.678
 3182TIP3   OH2 9509   6.926   4.910   3.092
 3182TIP3    H1 9510   6.995   4.881   3.031
 3182TIP3    H2 9511   6.972   4.921   3.175
 3183TIP3   OH2 9512   7.178   3.230   0.433
 3183TIP3    H1 9513   7.191   3.319   0.466
 3183TIP3    H2 9514   7.179   3.175   0.511
 3184TIP3   OH2 9515   0.483   5.987   1.810
 3184TIP3    H1 9516   0.387   5.988   1.808
 3184TIP3    H2 9517   0.509   6.073   1.778
 3185TIP3   OH2 9518   3.885   0.614   3.990
 3185TIP3    H1 9519   3.812   0.662   4.028
 3185TIP3    H2 9520   3.902   0.543   4.052
 3186TIP3   OH2 9521   2.206   0.391   0.029
 3186TIP3    H1 9522   2.237   0.442   0.104
 3186TIP3    H2 9523   2.138   0.335   0.064
 3187TIP3   OH2 9524   0.145   2.150   4.576
 3187TIP3    H1 9525   0.162   2.057   4.592
 3187TIP3    H2 9526   0.070   2.150   4.517
 3188TIP3   OH2 9527   1.208   3.964   0.262
 3188TIP3    H1 9528   1.291   4.004   0.288
 3188TIP3    H2 9529   1.160   4.033   0.216
 3189TIP3   OH2 9530   5.890   3.599   1.622
 3189TIP3    H1 9531   5.966   3.635   1.577
 3189TIP3    H2 9532   5.920   3.586   1.712
 3190TIP3   OH2 9533   3.840   3.088   3.468
 3190TIP3    H1 9534   3.776   3.040   3.416
 3190TIP3    H2 9535   3.867   3.026   3.536
 3191TIP3   OH2 9536   5.710   3.035   4.007
 3191TIP3    H1 9537   5.724   3.129   4.019
 3191TIP3    H2 9538   5.787   3.006   3.958
 3192TIP3   OH2 9539   6.930   0.544   3.468
 3192TIP3    H1 9540   6.967   0.596   3.538
 3192TIP3    H2 9541   6.958   0.588   3.387
 3193TIP3   OH2 9542   0.025   4.791   1.480
 3193TIP3    H1 9543   0.010   4.698   1.497
 3193TIP3    H2 9544   0.058   4.826   1.563
 3194TIP3   OH2 9545   1.858   4.457   4.315
 3194TIP3    H1 9546   1.763   4.445   4.304
 3194TIP3    H2 9547   1.897   4.384   4.267
 3195TIP3   OH2 9548   6.394   2.617   0.132
 3195TIP3    H1 9549   6.334   2.671   0.183
 3195TIP3    H2 9550   6.470   2.604   0.190
 3196TIP3   OH2 9551   4.485   0.097   5.305
 3196TIP3    H1 9552   4.574   0.129   5.319
 3196TIP3    H2 9553   4.436   0.173   5.275
 3197TIP3   OH2 9554   2.005   2.372   1.694
 3197TIP3    H1 9555   2.028   2.284   1.666
 3197TIP3    H2 9556   2.063   2.389   1.769
 3198TIP3   OH2 9557   3.559   2.847   1.067
 3198TIP3    H1 9558   3.569   2.844   0.971
 3198TIP3    H2 9559   3.637   2.893   1.097
 3199TIP3   OH2 9560   2.660   5.608   1.491
 3199TIP3    H1 9561   2.684   5.565   1.574
 3199TIP3    H2 9562   2.734   5.665   1.472
 3200TIP3   OH2 9563   0.904   0.270   0.713
 3200TIP3    H1 9564   0.920   0.335   0.645
 3200TIP3    H2 9565   0.812   0.246   0.703
 3201TIP3   OH2 9566   3.796   1.012   0.061
 3201TIP3    H1 9567   3.729   1.081   0.058
 3201TIP3    H2 9568   3.747   0.931   0.048
 3202TIP3   OH2 9569   4.072   1.161   0.937
 3202TIP3    H1 9570   3.997   1.113   0.973
 3202TIP3    H2 9571   4.033   1.239   0.897
 3203TIP3   OH2 9572   3.502   5.992   4.078
 3203TIP3    H1 9573   3.536   5.903   4.071
 3203TIP3    H2 9574   3.419   5.990   4.031
 3204TIP3   OH2 9575   0.126   3.830   1.034
 3204TIP3    H1 9576   0.175   3.865   0.959
 3204TIP3    H2 9577   0.057   3.894   1.050
 3205TIP3   OH2 9578   2.591   6.214   2.265
 3205TIP3    H1 9579   2.501   6.187   2.248
 3205TIP3    H2 9580   2.584   6.307   2.288
 3206TIP3   OH2 9581   2.956   4.646   3.945
 3206TIP3    H1 9582   2.901   4.647   3.866
 3206TIP3    H2 9583   3.005   4.564   3.940
 3207TIP3   OH2 9584   4.701   5.629   0.987
 3207TIP3    H1 9585   4.715   5.634   0.892
 3207TIP3    H2 9586   4.606   5.618   0.996
 3208TIP3   OH2 9587   3.105   3.378   2.524
 3208TIP3    H1 9588   3.108   3.467   2.560
 3208TIP3    H2 9589   3.166   3.381   2.450
 3209TIP3   OH2 9590   7.128   6.552   3.276
 3209TIP3    H1 9591   7.187   6.612   3.322
 3209TIP3    H2 9592   7.184   6.506   3.215
 3210TIP3   OH2 9593   2.347   4.014   2.103
 3210TIP3    H1 9594   2.342   4.014   2.199
 3210TIP3    H2 9595   2.403   3.940   2.082
 3211TIP3   OH2 9596   6.334   0.556   1.465
 3211TIP3    H1 9597   6.356   0.629   1.522
 3211TIP3    H2 9598   6.367   0.479   1.511
 3212TIP3   OH2 9599   4.628   1.244   1.271
 3212TIP3    H1 9600   4.550   1.192   1.288
 3212TIP3    H2 9601   4.595   1.326   1.233
 3213TIP3   OH2 9602   0.742   4.749   3.117
 3213TIP3    H1 9603   0.695   4.670   3.092
 3213TIP3    H2 9604   0.713   4.816   3.054
 3214TIP3   OH2 9605   2.258   5.829   5.399
 3214TIP3    H1 9606   2.206   5.896   5.354
 3214TIP3    H2 9607   2.344   5.833   5.357
 3215TIP3   OH2 9608   0.343   4.575   4.804
 3215TIP3    H1 9609   0.377   4.502   4.856
 3215TIP3    H2 9610   0.345   4.650   4.863
 3216TIP3   OH2 9611   7.132   5.125   0.637
 3216TIP3    H1 9612   7.143   5.220   0.634
 3216TIP3    H2 9613   7.215   5.092   0.671
 3217TIP3   OH2 9614   5.124   5.770   3.022
 3217TIP3    H1 9615   5.045   5.721   3.000
 3217TIP3    H2 9616   5.160   5.726   3.099
 3218TIP3   OH2 9617   3.709   1.387   4.495
 3218TIP3    H1 9618   3.753   1.426   4.570
 3218TIP3    H2 9619   3.675   1.462   4.446
 3219TIP3   OH2 9620   2.964   3.595   0.960
 3219TIP3    H1 9621   2.907   3.662   0.996
 3219TIP3    H2 9622   3.043   3.642   0.934
 3220TIP3   OH2 9623   0.575   0.601   4.601
 3220TIP3    H1 9624   0.486   0.610   4.569
 3220TIP3    H2 9625   0.583   0.669   4.669
 3221TIP3   OH2 9626   0.021   2.989   3.061
 3221TIP3    H1 9627   0.031   3.026   2.973
 3221TIP3    H2 9628   0.008   2.895   3.045
 3222TIP3   OH2 9629   4.930   5.566   2.994
 3222TIP3    H1 9630   4.937   5.523   2.909
 3222TIP3    H2 9631   4.836   5.571   3.011
 3223TIP3   OH2 9632   6.443   6.749   5.735
 3223TIP3    H1 9633   6.459   6.831   5.782
 3223TIP3    H2 9634   6.519   6.738   5.678
 3224TIP3   OH2 9635   0.720   0.597   3.041
 3224TIP3    H1 9636   0.632   0.611   3.005
 3224TIP3    H2 9637   0.778   0.621   2.969
 3225TIP3   OH2 9638   5.963   6.074   2.722
 3225TIP3    H1 9639   6.054   6.092   2.745
 3225TIP3    H2 9640   5.942   5.994   2.771
 3226TIP3   OH2 9641   6.267   4.205   2.226
 3226TIP3    H1 9642   6.301   4.142   2.162
 3226TIP3    H2 9643   6.182   4.168   2.252
 3227TIP3   OH2 9644   5.293   4.537   4.588
 3227TIP3    H1 9645   5.205   4.502   4.596
 3227TIP3    H2 9646   5.316   4.522   4.496
 3228TIP3   OH2 9647   6.312   0.090   1.682
 3228TIP3    H1 9648   6.374   0.162   1.669
 3228TIP3    H2 9649   6.330   0.029   1.610
 3229TIP3   OH2 9650   4.361   6.347   5.053
 3229TIP3    H1 9651   4.414   6.311   5.124
 3229TIP3    H2 9652   4.271   6.333   5.081
 3230TIP3   OH2 9653   0.447   1.117   1.390
 3230TIP3    H1 9654   0.453   1.032   1.434
 3230TIP3    H2 9655   0.532   1.127   1.347
 3231TIP3   OH2 9656   2.574   1.331   5.033
 3231TIP3    H1 9657   2.579   1.368   4.945
 3231TIP3    H2 9658   2.547   1.405   5.088
 3232TIP3   OH2 9659   2.287   4.737   1.637
 3232TIP3    H1 9660   2.344   4.704   1.568
 3232TIP3    H2 9661   2.252   4.819   1.602
 3233TIP3   OH2 9662   4.121   5.033   5.538
 3233TIP3    H1 9663   4.139   5.127   5.534
 3233TIP3    H2 9664   4.115   5.005   5.447
 3234TIP3   OH2 9665   5.858   0.927   4.559
 3234TIP3    H1 9666   5.933   0.913   4.616
 3234TIP3    H2 9667   5.792   0.967   4.616
 3235TIP3   OH2 9668   6.828   1.372   4.792
 3235TIP3    H1 9669   6.836   1.409   4.704
 3235TIP3    H2 9670   6.864   1.284   4.785
 3236TIP3   OH2 9671   5.802   6.363   4.308
 3236TIP3    H1 9672   5.866   6.392   4.373
 3236TIP3    H2 9673   5.727   6.419   4.322
 3237TIP3   OH2 9674   2.608   2.730   2.738
 3237TIP3    H1 9675   2.666   2.781   2.796
 3237TIP3    H2 9676   2.659   2.718   2.658
 3238TIP3   OH2 9677   3.428   4.060   1.324
 3238TIP3    H1 9678   3.472   4.145   1.335
 3238TIP3    H2 9679   3.487   4.009   1.269
 3239TIP3   OH2 9680   0.255   5.406   2.370
 3239TIP3    H1 9681   0.254   5.376   2.279
 3239TIP3    H2 9682   0.347   5.419   2.390
 3240TIP3   OH2 9683   3.979   3.807   4.724
 3240TIP3    H1 9684   4.053   3.794   4.665
 3240TIP3    H2 9685   4.016   3.846   4.803
 3241TIP3   OH2 9686   5.390   3.153   5.140
 3241TIP3    H1 9687   5.472   3.120   5.178
 3241TIP3    H2 9688   5.376   3.237   5.184
 3242TIP3   OH2 9689   4.370   3.473   1.264
 3242TIP3    H1 9690   4.358   3.403   1.328
 3242TIP3    H2 9691   4.438   3.440   1.205
 3243TIP3   OH2 9692   6.340   3.562   5.318
 3243TIP3    H1 9693   6.360   3.600   5.233
 3243TIP3    H2 9694   6.328   3.637   5.376
 3244TIP3   OH2 9695   3.120   6.388   1.009
 3244TIP3    H1 9696   3.051   6.323   1.013
 3244TIP3    H2 9697   3.190   6.347   0.958
 3245TIP3   OH2 9698   1.750   3.347   2.811
 3245TIP3    H1 9699   1.662   3.338   2.774
 3245TIP3    H2 9700   1.762   3.267   2.862
 3246TIP3   OH2 9701   2.982   5.015   2.709
 3246TIP3    H1 9702   3.002   5.075   2.637
 3246TIP3    H2 9703   2.931   4.945   2.669
 3247TIP3   OH2 9704   1.316   5.792   5.282
 3247TIP3    H1 9705   1.338   5.702   5.308
 3247TIP3    H2 9706   1.223   5.801   5.302
 3248TIP3   OH2 9707   3.284   5.396   5.057
 3248TIP3    H1 9708   3.233   5.322   5.022
 3248TIP3    H2 9709   3.296   5.374   5.149
 3249TIP3   OH2 9710   0.126   4.854   5.717
 3249TIP3    H1 9711   0.119   4.884   5.808
 3249TIP3    H2 9712   0.041   4.875   5.679
 3250TIP3   OH2 9713   2.076   5.383   0.421
 3250TIP3    H1 9714   2.074   5.364   0.327
 3250TIP3    H2 9715   2.158   5.431   0.434
 3251TIP3   OH2 9716   3.586   0.593   5.771
 3251TIP3    H1 9717   3.576   0.688   5.765
 3251TIP3    H2 9718   3.556   0.571   5.859
 3252TIP3   OH2 9719   4.417   4.377   1.888
 3252TIP3    H1 9720   4.430   4.301   1.831
 3252TIP3    H2 9721   4.340   4.422   1.852
 3253TIP3   OH2 9722   6.523   6.472   0.855
 3253TIP3    H1 9723   6.539   6.525   0.777
 3253TIP3    H2 9724   6.449   6.515   0.899
 3254TIP3   OH2 9725   7.155   5.682   0.783
 3254TIP3    H1 9726   7.167   5.701   0.876
 3254TIP3    H2 9727   7.094   5.749   0.752
 3255TIP3   OH2 9728   5.390   1.744   4.138
 3255TIP3    H1 9729   5.455   1.679   4.165
 3255TIP3    H2 9730   5.413   1.764   4.047
 3256TIP3   OH2 9731   5.917   6.345   1.116
 3256TIP3    H1 9732   5.952   6.344   1.205
 3256TIP3    H2 9733   5.932   6.435   1.085
 3257TIP3   OH2 9734   0.920   0.845   4.655
 3257TIP3    H1 9735   0.932   0.828   4.561
 3257TIP3    H2 9736   0.886   0.934   4.659
 3258TIP3   OH2 9737   2.757   0.825   1.034
 3258TIP3    H1 9738   2.744   0.820   0.939
 3258TIP3    H2 9739   2.762   0.919   1.053
 3259TIP3   OH2 9740   1.867   5.967   4.511
 3259TIP3    H1 9741   1.949   5.962   4.559
 3259TIP3    H2 9742   1.821   5.886   4.534
 3260TIP3   OH2 9743   6.945   5.894   3.798
 3260TIP3    H1 9744   6.891   5.959   3.752
 3260TIP3    H2 9745   7.013   5.871   3.735
 3261TIP3   OH2 9746   6.390   4.770   3.399
 3261TIP3    H1 9747   6.436   4.694   3.434
 3261TIP3    H2 9748   6.310   4.776   3.452
 3262TIP3   OH2 9749   4.576   2.498   2.377
 3262TIP3    H1 9750   4.603   2.437   2.445
 3262TIP3    H2 9751   4.635   2.573   2.388
 3263TIP3   OH2 9752   1.798   2.750   0.042
 3263TIP3    H1 9753   1.818   2.823   0.101
 3263TIP3    H2 9754   1.831   2.778  -0.043
 3264TIP3   OH2 9755   5.584   0.270   0.813
 3264TIP3    H1 9756   5.659   0.242   0.760
 3264TIP3    H2 9757   5.530   0.191   0.821
 3265TIP3   OH2 9758   4.926   0.485   2.909
 3265TIP3    H1 9759   4.991   0.522   2.849
 3265TIP3    H2 9760   4.875   0.425   2.855
 3266TIP3   OH2 9761   1.016   3.861   3.090
 3266TIP3    H1 9762   1.041   3.769   3.100
 3266TIP3    H2 9763   1.098   3.909   3.090
 3267TIP3   OH2 9764   4.787   0.852   1.920
 3267TIP3    H1 9765   4.847   0.918   1.885
 3267TIP3    H2 9766   4.704   0.869   1.876
 3268TIP3   OH2 9767   1.070   3.723   3.378
 3268TIP3    H1 9768   1.114   3.714   3.463
 3268TIP3    H2 9769   0.978   3.733   3.401
 3269TIP3   OH2 9770   4.063   0.580   5.166
 3269TIP3    H1 9771   4.156   0.562   5.176
 3269TIP3    H2 9772   4.032   0.598   5.255
 3270TIP3   OH2 9773   4.362   4.751   5.169
 3270TIP3    H1 9774   4.383   4.844   5.181
 3270TIP3    H2 9775   4.348   4.718   5.257
 3271TIP3   OH2 9776   7.133   2.503  -0.041
 3271TIP3    H1 9777   7.180   2.584  -0.020
 3271TIP3    H2 9778   7.087   2.480   0.039
 3272TIP3   OH2 9779   5.362   5.548   3.506
 3272TIP3    H1 9780   5.448   5.587   3.523
 3272TIP3    H2 9781   5.352   5.482   3.575
 3273TIP3   OH2 9782   1.884   2.078   0.736
 3273TIP3    H1 9783   1.889   2.164   0.777
 3273TIP3    H2 9784   1.791   2.064   0.719
 3274TIP3   OH2 9785   0.587   2.440   0.262
 3274TIP3    H1 9786   0.575   2.525   0.303
 3274TIP3    H2 9787   0.682   2.430   0.255
 3275TIP3   OH2 9788   0.085   5.790   5.405
 3275TIP3    H1 9789   0.090   5.796   5.501
 3275TIP3    H2 9790   0.089   5.881   5.376
 3276TIP3   OH2 9791   5.166   3.222   0.618
 3276TIP3    H1 9792   5.258   3.240   0.639
 3276TIP3    H2 9793   5.136   3.303   0.576
 3277TIP3   OH2 9794   1.853   5.099   1.753
 3277TIP3    H1 9795   1.845   5.051   1.670
 3277TIP3    H2 9796   1.947   5.115   1.762
 3278TIP3   OH2 9797   1.950   2.591   3.126
 3278TIP3    H1 9798   2.029   2.583   3.072
 3278TIP3    H2 9799   1.950   2.682   3.154
 3279TIP3   OH2 9800   6.750   2.155   3.847
 3279TIP3    H1 9801   6.818   2.209   3.807
 3279TIP3    H2 9802   6.689   2.136   3.775
 3280TIP3   OH2 9803   0.496   0.522   1.175
 3280TIP3    H1 9804   0.414   0.511   1.223
 3280TIP3    H2 9805   0.501   0.444   1.119
 3281TIP3   OH2 9806   3.712   3.767   4.384
 3281TIP3    H1 9807   3.720   3.862   4.387
 3281TIP3    H2 9808   3.785   3.739   4.329
 3282TIP3   OH2 9809   0.683   2.159   5.631
 3282TIP3    H1 9810   0.675   2.166   5.536
 3282TIP3    H2 9811   0.593   2.160   5.663
 3283TIP3   OH2 9812   6.225   4.825   5.483
 3283TIP3    H1 9813   6.210   4.731   5.468
 3283TIP3    H2 9814   6.170   4.869   5.418
 3284TIP3   OH2 9815   3.819   5.158   3.383
 3284TIP3    H1 9816   3.903   5.187   3.420
 3284TIP3    H2 9817   3.786   5.093   3.445
 3285TIP3   OH2 9818   6.903   3.224   5.397
 3285TIP3    H1 9819   6.993   3.200   5.419
 3285TIP3    H2 9820   6.864   3.249   5.480
 3286TIP3   OH2 9821   5.645   4.323   4.505
 3286TIP3    H1 9822   5.700   4.375   4.563
 3286TIP3    H2 9823   5.622   4.383   4.433
 3287TIP3   OH2 9824   3.247   2.811   4.904
 3287TIP3    H1 9825   3.210   2.868   4.972
 3287TIP3    H2 9826   3.332   2.783   4.939
 3288TIP3   OH2 9827   4.229   5.284   4.212
 3288TIP3    H1 9828   4.192   5.329   4.136
 3288TIP3    H2 9829   4.206   5.340   4.286
 3289TIP3   OH2 9830   4.579   1.222   3.512
 3289TIP3    H1 9831   4.668   1.239   3.542
 3289TIP3    H2 9832   4.525   1.226   3.591
 3290TIP3   OH2 9833   5.647   2.190   0.850
 3290TIP3    H1 9834   5.581   2.209   0.783
 3290TIP3    H2 9835   5.729   2.180   0.801
 3291TIP3   OH2 9836   0.950   6.177   3.003
 3291TIP3    H1 9837   0.897   6.248   2.966
 3291TIP3    H2 9838   1.012   6.155   2.934
 3292TIP3   OH2 9839   2.501   4.867   5.108
 3292TIP3    H1 9840   2.416   4.883   5.149
 3292TIP3    H2 9841   2.530   4.953   5.079
 3293TIP3   OH2 9842   4.309   5.328   4.757
 3293TIP3    H1 9843   4.293   5.422   4.753
 3293TIP3    H2 9844   4.240   5.290   4.703
 3294TIP3   OH2 9845   0.239   2.118   0.823
 3294TIP3    H1 9846   0.182   2.041   0.829
 3294TIP3    H2 9847   0.324   2.083   0.797
 3295TIP3   OH2 9848   4.586   2.812   0.706
 3295TIP3    H1 9849   4.624   2.726   0.684
 3295TIP3    H2 9850   4.582   2.858   0.623
 3296TIP3   OH2 9851   3.088   2.444   5.803
 3296TIP3    H1 9852   3.070   2.413   5.714
 3296TIP3    H2 9853   3.084   2.365   5.857
 3297TIP3   OH2 9854   5.992   5.883   0.838
 3297TIP3    H1 9855   6.036   5.813   0.885
 3297TIP3    H2 9856   5.952   5.937   0.907
 3298TIP3   OH2 9857   2.383   5.082   1.998
 3298TIP3    H1 9858   2.412   5.005   1.948
 3298TIP3    H2 9859   2.335   5.044   2.072
 3299TIP3   OH2 9860   4.350   1.094   1.687
 3299TIP3    H1 9861   4.268   1.059   1.653
 3299TIP3    H2 9862   4.387   1.143   1.615
 3300TIP3   OH2 9863   1.043   6.001   4.551
 3300TIP3    H1 9864   1.071   5.910   4.537
 3300TIP3    H2 9865   1.028   6.007   4.646
 3301TIP3   OH2 9866   6.108   1.017   0.073
 3301TIP3    H1 9867   6.195   0.976   0.074
 3301TIP3    H2 9868   6.079   1.008  -0.017
 3302TIP3   OH2 9869   5.727   5.152   3.975
 3302TIP3    H1 9870   5.799   5.199   4.016
 3302TIP3    H2 9871   5.674   5.121   4.049
 3303TIP3   OH2 9872   1.871   5.447   5.246
 3303TIP3    H1 9873   1.897   5.425   5.156
 3303TIP3    H2 9874   1.949   5.430   5.298
 3304TIP3   OH2 9875   1.269   2.843   0.573
 3304TIP3    H1 9876   1.217   2.777   0.618
 3304TIP3    H2 9877   1.215   2.922   0.576
 3305TIP3   OH2 9878   4.126   1.425   1.880
 3305TIP3    H1 9879   4.153   1.342   1.919
 3305TIP3    H2 9880   4.066   1.400   1.809
 3306TIP3   OH2 9881   5.866   3.715   4.887
 3306TIP3    H1 9882   5.832   3.627   4.898
 3306TIP3    H2 9883   5.792   3.772   4.908
 3307TIP3   OH2 9884   4.407   4.473   1.559
 3307TIP3    H1 9885   4.466   4.477   1.484
 3307TIP3    H2 9886   4.451   4.415   1.621
 3308TIP3   OH2 9887   6.545   0.050   4.104
 3308TIP3    H1 9888   6.564   0.144   4.098
 3308TIP3    H2 9889   6.493   0.041   4.184
 3309TIP3   OH2 9890   3.561   4.340   1.438
 3309TIP3    H1 9891   3.641   4.291   1.458
 3309TIP3    H2 9892   3.592   4.422   1.399
 3310TIP3   OH2 9893   1.155   4.005   2.162
 3310TIP3    H1 9894   1.199   4.088   2.143
 3310TIP3    H2 9895   1.191   3.978   2.247
 3311TIP3   OH2 9896   1.554   6.076   3.973
 3311TIP3    H1 9897   1.490   6.146   3.965
 3311TIP3    H2 9898   1.552   6.032   3.888
 3312TIP3   OH2 9899   6.286   3.507   3.858
 3312TIP3    H1 9900   6.378   3.490   3.877
 3312TIP3    H2 9901   6.239   3.435   3.900
 3313TIP3   OH2 9902   3.480   1.623   5.649
 3313TIP3    H1 9903   3.461   1.608   5.742
 3313TIP3    H2 9904   3.492   1.536   5.613
 3314TIP3   OH2 9905   7.152   4.842   2.097
 3314TIP3    H1 9906   7.192   4.779   2.038
 3314TIP3    H2 9907   7.223   4.901   2.122
 3315TIP3   OH2 9908   7.033   5.382   2.049
 3315TIP3    H1 9909   7.019   5.291   2.075
 3315TIP3    H2 9910   7.127   5.389   2.035
 3316TIP3   OH2 9911   6.833   2.666   3.122
 3316TIP3    H1 9912   6.823   2.583   3.075
 3316TIP3    H2 9913   6.865   2.727   3.055
 3317TIP3   OH2 9914   6.598   3.957   1.026
 3317TIP3    H1 9915   6.642   3.911   1.098
 3317TIP3    H2 9916   6.536   4.015   1.069
 3318TIP3   OH2 9917   6.018   1.215   2.011
 3318TIP3    H1 9918   6.054   1.133   2.043
 3318TIP3    H2 9919   6.081   1.282   2.040
 3319TIP3   OH2 9920   4.089   5.548   0.918
 3319TIP3    H1 9921   4.054   5.512   0.836
 3319TIP3    H2 9922   4.181   5.525   0.917
 3320TIP3   OH2 9923   6.183   4.343   2.877
 3320TIP3    H1 9924   6.191   4.289   2.799
 3320TIP3    H2 9925   6.231   4.423   2.856
 3321TIP3   OH2 9926   1.822   4.331   1.306
 3321TIP3    H1 9927   1.782   4.246   1.322
 3321TIP3    H2 9928   1.761   4.377   1.249
 3322TIP3   OH2 9929   4.361   0.537   5.213
 3322TIP3    H1 9930   4.349   0.448   5.245
 3322TIP3    H2 9931   4.456   0.549   5.209
 3323TIP3   OH2 9932   0.839   1.341   5.625
 3323TIP3    H1 9933   0.789   1.362   5.547
 3323TIP3    H2 9934   0.773   1.331   5.694
 3324TIP3   OH2 9935   1.460   1.425   5.869
 3324TIP3    H1 9936   1.496   1.364   5.805
 3324TIP3    H2 9937   1.406   1.485   5.818
 3325TIP3   OH2 9938   5.763   2.621   4.747
 3325TIP3    H1 9939   5.759   2.679   4.823
 3325TIP3    H2 9940   5.787   2.535   4.783
 3326TIP3   OH2 9941   4.109   5.813   2.215
 3326TIP3    H1 9942   4.074   5.875   2.151
 3326TIP3    H2 9943   4.190   5.780   2.174
 3327TIP3   OH2 9944   3.913   1.963   0.593
 3327TIP3    H1 9945   3.856   1.910   0.649
 3327TIP3    H2 9946   3.945   2.033   0.649
 3328TIP3   OH2 9947   2.580   2.558   4.353
 3328TIP3    H1 9948   2.598   2.532   4.263
 3328TIP3    H2 9949   2.505   2.617   4.347
 3329TIP3   OH2 9950   0.504   2.199   3.681
 3329TIP3    H1 9951   0.450   2.121   3.677
 3329TIP3    H2 9952   0.594   2.166   3.679
 3330TIP3   OH2 9953   3.726   6.633   5.143
 3330TIP3    H1 9954   3.672   6.602   5.071
 3330TIP3    H2 9955   3.816   6.622   5.111
 3331TIP3   OH2 9956   3.148   0.373   3.821
 3331TIP3    H1 9957   3.113   0.387   3.909
 3331TIP3    H2 9958   3.214   0.304   3.832
 3332TIP3   OH2 9959   1.315   2.110   2.534
 3332TIP3    H1 9960   1.278   2.032   2.577
 3332TIP3    H2 9961   1.389   2.134   2.590
 3333TIP3   OH2 9962   5.605   5.734   3.289
 3333TIP3    H1 9963   5.696   5.712   3.267
 3333TIP3    H2 9964   5.552   5.668   3.245
 3334TIP3   OH2 9965   3.258   2.452   2.911
 3334TIP3    H1 9966   3.281   2.513   2.842
 3334TIP3    H2 9967   3.291   2.493   2.991
 3335TIP3   OH2 9968   0.637   6.396   5.663
 3335TIP3    H1 9969   0.562   6.409   5.606
 3335TIP3    H2 9970   0.612   6.435   5.747
 3336TIP3   OH2 9971   0.303   2.655   1.495
 3336TIP3    H1 9972   0.345   2.623   1.415
 3336TIP3    H2 9973   0.221   2.694   1.465
 3337TIP3   OH2 9974   2.352   0.051   4.193
 3337TIP3    H1 9975   2.355   0.115   4.122
 3337TIP3    H2 9976   2.421   0.078   4.254
 3338TIP3   OH2 9977   1.889   3.539   2.167
 3338TIP3    H1 9978   1.981   3.563   2.159
 3338TIP3    H2 9979   1.890   3.446   2.191
 3339TIP3   OH2 9980   6.947   0.987   2.837
 3339TIP3    H1 9981   7.018   1.051   2.838
 3339TIP3    H2 9982   6.936   0.965   2.744
 3340TIP3   OH2 9983   5.499   6.063   4.313
 3340TIP3    H1 9984   5.504   6.115   4.393
 3340TIP3    H2 9985   5.583   6.080   4.269
 3341TIP3   OH2 9986   0.359   4.401   5.202
 3341TIP3    H1 9987   0.377   4.491   5.230
 3341TIP3    H2 9988   0.342   4.408   5.108
 3342TIP3   OH2 9989   1.912   2.920   1.923
 3342TIP3    H1 9990   1.872   2.838   1.893
 3342TIP3    H2 9991   2.006   2.903   1.920
 3343TIP3   OH2 9992   3.964   2.813   0.905
 3343TIP3    H1 9993   3.908   2.833   0.979
 3343TIP3    H2 9994   4.052   2.807   0.942
 3344TIP3   OH2 9995   1.119   5.920   0.178
 3344TIP3    H1 9996   1.124   5.918   0.274
 3344TIP3    H2 9997   1.063   5.995   0.159
 3345TIP3   OH2 9998   4.007   2.505   4.269
 3345TIP3    H1 9999   4.102   2.499   4.267
 3345TIP3    H210000   3.985   2.571   4.203
 3346TIP3   OH210001   4.015   4.413   3.977
 3346TIP3    H110002   4.086   4.351   3.960
 3346TIP3    H210003   4.045   4.495   3.937
 3347TIP3   OH210004   5.671   1.716   0.253
 3347TIP3    H110005   5.577   1.724   0.269
 3347TIP3    H210006   5.712   1.733   0.338
 3348TIP3   OH210007   4.279   4.500   3.787
 3348TIP3    H110008   4.341   4.431   3.765
 3348TIP3    H210009   4.202   4.482   3.734
 3349TIP3   OH210010   4.327   2.106   1.522
 3349TIP3    H110011   4.248   2.104   1.467
 3349TIP3    H210012   4.337   2.198   1.547
 3350TIP3   OH210013   4.772   6.622   2.057
 3350TIP3    H110014   4.816   6.633   2.141
 3350TIP3    H210015   4.683   6.596   2.080
 3351TIP3   OH210016   1.799   6.568   3.960
 3351TIP3    H110017   1.768   6.597   3.874
 3351TIP3    H210018   1.723   6.523   3.998
 3352TIP3   OH210019   4.560   5.425   2.134
 3352TIP3    H110020   4.500   5.485   2.091
 3352TIP3    H210021   4.644   5.438   2.089
 3353TIP3   OH210022   2.204   2.593   2.650
 3353TIP3    H110023   2.144   2.641   2.708
 3353TIP3    H210024   2.284   2.583   2.701
 3354TIP3   OH210025   3.008   3.781   2.456
 3354TIP3    H110026   2.978   3.697   2.422
 3354TIP3    H210027   3.003   3.772   2.551
 3355TIP3   OH210028   3.538   2.276   0.841
 3355TIP3    H110029   3.506   2.365   0.832
 3355TIP3    H210030   3.610   2.269   0.778
 3356TIP3   OH210031   0.846   0.564   5.247
 3356TIP3    H110032   0.759   0.535   5.276
 3356TIP3    H210033   0.859   0.522   5.163
 3357TIP3   OH210034   5.385   1.840   3.878
 3357TIP3    H110035   5.379   1.867   3.786
 3357TIP3    H210036   5.294   1.831   3.906
 3358TIP3   OH210037   5.847   3.879   0.526
 3358TIP3    H110038   5.901   3.852   0.451
 3358TIP3    H210039   5.910   3.912   0.590
 3359TIP3   OH210040   0.473   4.594   1.855
 3359TIP3    H110041   0.451   4.534   1.926
 3359TIP3    H210042   0.528   4.661   1.895
 3360TIP3   OH210043   2.809   4.094   3.586
 3360TIP3    H110044   2.796   4.027   3.652
 3360TIP3    H210045   2.818   4.046   3.504
 3361TIP3   OH210046   1.510   3.420   1.875
 3361TIP3    H110047   1.593   3.372   1.876
 3361TIP3    H210048   1.534   3.509   1.903
 3362TIP3   OH210049   1.133   5.901   0.839
 3362TIP3    H110050   1.208   5.949   0.873
 3362TIP3    H210051   1.158   5.809   0.849
 3363TIP3   OH210052   1.086   1.458   3.177
 3363TIP3    H110053   1.094   1.541   3.130
 3363TIP3    H210054   0.992   1.445   3.188
 3364TIP3   OH210055   2.629   4.679   0.626
 3364TIP3    H110056   2.653   4.771   0.623
 3364TIP3    H210057   2.577   4.664   0.547
 3365TIP3   OH210058   0.984   5.309   4.986
 3365TIP3    H110059   0.898   5.334   5.018
 3365TIP3    H210060   0.990   5.349   4.899
 3366TIP3   OH210061   1.021   4.309   3.549
 3366TIP3    H110062   1.021   4.229   3.497
 3366TIP3    H210063   0.968   4.287   3.626
 3367TIP3   OH210064   7.071   4.683   4.319
 3367TIP3    H110065   7.037   4.599   4.348
 3367TIP3    H210066   7.165   4.670   4.311
 3368TIP3   OH210067   2.447   4.609   0.398
 3368TIP3    H110068   2.460   4.697   0.362
 3368TIP3    H210069   2.364   4.614   0.445
 3369TIP3   OH210070   1.293   4.957   5.071
 3369TIP3    H110071   1.328   5.019   5.135
 3369TIP3    H210072   1.312   4.871   5.108
 3370TIP3   OH210073   3.588  -0.024   4.767
 3370TIP3    H110074   3.676  -0.005   4.735
 3370TIP3    H210075   3.543   0.061   4.765
 3371TIP3   OH210076   6.686   4.069   5.269
 3371TIP3    H110077   6.634   4.045   5.192
 3371TIP3    H210078   6.664   4.002   5.334
 3372TIP3   OH210079   4.276   3.282   1.760
 3372TIP3    H110080   4.362   3.242   1.766
 3372TIP3    H210081   4.240   3.276   1.849
 3373TIP3   OH210082   0.160   4.056   5.080
 3373TIP3    H110083   0.188   4.098   5.162
 3373TIP3    H210084   0.065   4.059   5.082
 3374TIP3   OH210085   0.435   4.040   2.573
 3374TIP3    H110086   0.433   4.074   2.483
 3374TIP3    H210087   0.504   3.973   2.571
 3375TIP3   OH210088   2.102   3.598   2.897
 3375TIP3    H110089   2.102   3.693   2.906
 3375TIP3    H210090   2.034   3.569   2.958
 3376TIP3   OH210091   1.125   0.395   1.920
 3376TIP3    H110092   1.084   0.447   1.990
 3376TIP3    H210093   1.116   0.449   1.842
 3377TIP3   OH210094   1.152   4.503   3.766
 3377TIP3    H110095   1.087   4.475   3.831
 3377TIP3    H210096   1.142   4.440   3.695
 3378TIP3   OH210097   4.591   2.410   3.046
 3378TIP3    H110098   4.652   2.340   3.071
 3378TIP3    H210099   4.616   2.484   3.102
 3379TIP3   OH210100   3.185   6.549   2.070
 3379TIP3    H110101   3.162   6.581   1.983
 3379TIP3    H210102   3.105   6.508   2.102
 3380TIP3   OH210103   1.379   4.101   2.653
 3380TIP3    H110104   1.444   4.031   2.649
 3380TIP3    H210105   1.415   4.171   2.599
 3381TIP3   OH210106   5.116   0.015   2.495
 3381TIP3    H110107   5.156   0.008   2.582
 3381TIP3    H210108   5.099  -0.075   2.469
 3382TIP3   OH210109   3.566   6.064   1.334
 3382TIP3    H110110   3.652   6.041   1.301
 3382TIP3    H210111   3.513   6.079   1.256
 3383TIP3   OH210112   3.379   0.935   1.194
 3383TIP3    H110113   3.372   0.923   1.288
 3383TIP3    H210114   3.370   0.846   1.158
 3384TIP3   OH210115   3.366   4.352   2.096
 3384TIP3    H110116   3.410   4.320   2.174
 3384TIP3    H210117   3.289   4.296   2.087
 3385TIP3   OH210118   0.947   1.601   0.555
 3385TIP3    H110119   0.989   1.588   0.639
 3385TIP3    H210120   0.922   1.513   0.526
 3386TIP3   OH210121   2.179   2.898   1.984
 3386TIP3    H110122   2.260   2.848   1.994
 3386TIP3    H210123   2.127   2.875   2.061
 3387TIP3   OH210124   0.495   0.880   1.554
 3387TIP3    H110125   0.584   0.873   1.588
 3387TIP3    H210126   0.460   0.792   1.562
 3388TIP3   OH210127   6.723   4.548   4.531
 3388TIP3    H110128   6.777   4.610   4.581
 3388TIP3    H210129   6.755   4.462   4.558
 3389TIP3   OH210130   1.005   6.533   2.243
 3389TIP3    H110131   1.065   6.537   2.169
 3389TIP3    H210132   1.053   6.487   2.311
 3390TIP3   OH210133   5.693   1.168   3.468
 3390TIP3    H110134   5.763   1.226   3.438
 3390TIP3    H210135   5.640   1.152   3.390
 3391TIP3   OH210136   6.208   3.463   2.673
 3391TIP3    H110137   6.170   3.442   2.758
 3391TIP3    H210138   6.228   3.556   2.677
 3392TIP3   OH210139   2.842   0.867   0.058
 3392TIP3    H110140   2.770   0.811   0.028
 3392TIP3    H210141   2.817   0.892   0.147
 3393TIP3   OH210142   2.939   2.534   3.738
 3393TIP3    H110143   3.013   2.499   3.689
 3393TIP3    H210144   2.977   2.600   3.797
 3394TIP3   OH210145   2.260   1.669   0.543
 3394TIP3    H110146   2.278   1.576   0.557
 3394TIP3    H210147   2.197   1.671   0.471
 3395TIP3   OH210148   2.407   4.501   4.397
 3395TIP3    H110149   2.449   4.417   4.414
 3395TIP3    H210150   2.476   4.566   4.411
 3396TIP3   OH210151   2.247   4.344   4.673
 3396TIP3    H110152   2.255   4.260   4.719
 3396TIP3    H210153   2.241   4.319   4.580
 3397TIP3   OH210154   5.247   4.675   2.975
 3397TIP3    H110155   5.180   4.611   2.949
 3397TIP3    H210156   5.259   4.660   3.069
 3398TIP3   OH210157   1.984   2.049   2.912
 3398TIP3    H110158   2.015   2.027   2.824
 3398TIP3    H210159   2.006   1.973   2.965
 3399TIP3   OH210160   6.562   4.489   0.820
 3399TIP3    H110161   6.474   4.520   0.842
 3399TIP3    H210162   6.572   4.408   0.870
 3400TIP3   OH210163   4.146   1.681   0.662
 3400TIP3    H110164   4.149   1.768   0.703
 3400TIP3    H210165   4.234   1.645   0.677
 3401TIP3   OH210166   0.563   0.552   5.013
 3401TIP3    H110167   0.591   0.488   4.948
 3401TIP3    H210168   0.616   0.630   4.993
 3402TIP3   OH210169   5.399   0.450   0.751
 3402TIP3    H110170   5.478   0.399   0.772
 3402TIP3    H210171   5.428   0.542   0.756
 3403TIP3   OH210172   3.765   4.709   2.721
 3403TIP3    H110173   3.674   4.708   2.750
 3403TIP3    H210174   3.815   4.674   2.795
 3404TIP3   OH210175   0.555   6.745   5.329
 3404TIP3    H110176   0.534   6.729   5.421
 3404TIP3    H210177   0.469   6.750   5.286
 3405TIP3   OH210178   0.115   3.863   2.381
 3405TIP3    H110179   0.190   3.805   2.393
 3405TIP3    H210180   0.081   3.878   2.469
 3406TIP3   OH210181   0.213   0.159   1.838
 3406TIP3    H110182   0.273   0.231   1.858
 3406TIP3    H210183   0.249   0.084   1.886
 3407TIP3   OH210184   7.107   1.465   5.429
 3407TIP3    H110185   7.134   1.397   5.367
 3407TIP3    H210186   7.139   1.546   5.390
 3408TIP3   OH210187   3.055   5.808   3.338
 3408TIP3    H110188   3.032   5.810   3.431
 3408TIP3    H210189   3.151   5.808   3.338
 3409TIP3   OH210190   3.090   5.720   2.525
 3409TIP3    H110191   3.109   5.810   2.552
 3409TIP3    H210192   3.001   5.725   2.488
 3410TIP3   OH210193   6.952   1.674   2.123
 3410TIP3    H110194   6.899   1.751   2.143
 3410TIP3    H210195   6.896   1.621   2.067
 3411TIP3   OH210196   5.206   6.275   4.927
 3411TIP3    H110197   5.153   6.318   4.994
 3411TIP3    H210198   5.167   6.189   4.916
 3412TIP3   OH210199   4.458   0.447   3.768
 3412TIP3    H110200   4.493   0.405   3.846
 3412TIP3    H210201   4.470   0.382   3.698
 3413TIP3   OH210202   4.414   5.206   3.745
 3413TIP3    H110203   4.508   5.198   3.728
 3413TIP3    H210204   4.409   5.230   3.838
 3414TIP3   OH210205   0.382   5.725   3.409
 3414TIP3    H110206   0.288   5.721   3.391
 3414TIP3    H210207   0.396   5.811   3.448
 3415TIP3   OH210208   0.532   4.578   3.060
 3415TIP3    H110209   0.507   4.576   2.968
 3415TIP3    H210210   0.473   4.643   3.099
 3416TIP3   OH210211   1.536   6.548   4.164
 3416TIP3    H110212   1.526   6.643   4.157
 3416TIP3    H210213   1.447   6.514   4.161
 3417TIP3   OH210214   5.349   2.936   4.660
 3417TIP3    H110215   5.359   3.004   4.727
 3417TIP3    H210216   5.408   2.866   4.687
 3418TIP3   OH210217   5.521   3.577   0.598
 3418TIP3    H110218   5.549   3.520   0.526
 3418TIP3    H210219   5.602   3.618   0.629
 3419TIP3   OH210220   6.860   3.680   5.601
 3419TIP3    H110221   6.857   3.658   5.508
 3419TIP3    H210222   6.805   3.614   5.643
 3420TIP3   OH210223   4.621   3.934   2.899
 3420TIP3    H110224   4.539   3.886   2.886
 3420TIP3    H210225   4.687   3.883   2.853
 3421TIP3   OH210226   4.557   0.235   1.172
 3421TIP3    H110227   4.494   0.201   1.235
 3421TIP3    H210228   4.541   0.329   1.169
 3422TIP3   OH210229   6.061   0.498   2.313
 3422TIP3    H110230   6.042   0.512   2.220
 3422TIP3    H210231   6.103   0.579   2.341
 3423TIP3   OH210232   1.240   6.675   1.251
 3423TIP3    H110233   1.316   6.732   1.258
 3423TIP3    H210234   1.165   6.734   1.262
 3424TIP3   OH210235   5.333   5.319   4.243
 3424TIP3    H110236   5.398   5.330   4.173
 3424TIP3    H210237   5.318   5.407   4.275
 3425TIP3   OH210238   0.988   0.181   4.136
 3425TIP3    H110239   0.933   0.218   4.067
 3425TIP3    H210240   1.072   0.227   4.125
 3426TIP3   OH210241   5.678   4.079   4.345
 3426TIP3    H110242   5.730   4.012   4.389
 3426TIP3    H210243   5.709   4.162   4.381
 3427TIP3   OH210244   6.778   1.539   3.500
 3427TIP3    H110245   6.774   1.557   3.593
 3427TIP3    H210246   6.872   1.541   3.479
 3428TIP3   OH210247   6.223   1.135   1.757
 3428TIP3    H110248   6.214   1.055   1.704
 3428TIP3    H210249   6.166   1.198   1.713
 3429TIP3   OH210250   0.938   5.292   2.149
 3429TIP3    H110251   1.034   5.286   2.144
 3429TIP3    H210252   0.917   5.372   2.099
 3430TIP3   OH210253   4.729   3.019   1.447
 3430TIP3    H110254   4.682   3.055   1.371
 3430TIP3    H210255   4.754   3.096   1.498
 3431TIP3   OH210256   5.757   4.140   1.029
 3431TIP3    H110257   5.844   4.176   1.014
 3431TIP3    H210258   5.697   4.206   0.995
 3432TIP3   OH210259   6.843   4.586   2.244
 3432TIP3    H110260   6.934   4.610   2.265
 3432TIP3    H210261   6.803   4.569   2.329
 3433TIP3   OH210262   4.328   2.655   0.494
 3433TIP3    H110263   4.373   2.677   0.576
 3433TIP3    H210264   4.239   2.634   0.520
 3434TIP3   OH210265   3.847   5.904   0.034
 3434TIP3    H110266   3.802   5.979   0.071
 3434TIP3    H210267   3.798   5.828   0.066
 3435TIP3   OH210268   2.297   6.240   3.479
 3435TIP3    H110269   2.320   6.159   3.434
 3435TIP3    H210270   2.203   6.251   3.463
 3436TIP3   OH210271   6.887   3.126   4.779
 3436TIP3    H110272   6.952   3.180   4.735
 3436TIP3    H210273   6.854   3.068   4.711
 3437TIP3   OH210274   4.575   0.709   2.268
 3437TIP3    H110275   4.655   0.667   2.235
 3437TIP3    H210276   4.575   0.796   2.227
 3438TIP3   OH210277   4.131   4.693   2.596
 3438TIP3    H110278   4.138   4.788   2.589
 3438TIP3    H210279   4.046   4.673   2.557
 3439TIP3   OH210280   3.438   6.002   5.771
 3439TIP3    H110281   3.527   5.992   5.805
 3439TIP3    H210282   3.431   5.939   5.700
 3440TIP3   OH210283   0.579   2.199   0.141
 3440TIP3    H110284   0.674   2.205   0.133
 3440TIP3    H210285   0.547   2.286   0.119
 3441TIP3   OH210286   6.303   4.359   1.153
 3441TIP3    H110287   6.321   4.408   1.233
 3441TIP3    H210288   6.256   4.281   1.183
 3442TIP3   OH210289   5.703   2.084   3.190
 3442TIP3    H110290   5.641   2.083   3.117
 3442TIP3    H210291   5.682   2.005   3.240
 3443TIP3   OH210292   2.201   5.618   2.006
 3443TIP3    H110293   2.166   5.531   2.028
 3443TIP3    H210294   2.161   5.676   2.070
 3444TIP3   OH210295   0.632   6.153   0.711
 3444TIP3    H110296   0.635   6.239   0.753
 3444TIP3    H210297   0.674   6.166   0.626
 3445TIP3   OH210298   4.749   2.513   0.978
 3445TIP3    H110299   4.743   2.516   1.074
 3445TIP3    H210300   4.824   2.568   0.957
 3446TIP3   OH210301   2.343   1.806   1.276
 3446TIP3    H110302   2.320   1.891   1.238
 3446TIP3    H210303   2.405   1.767   1.214
 3447TIP3   OH210304   2.295   1.906   1.992
 3447TIP3    H110305   2.377   1.954   1.995
 3447TIP3    H210306   2.312   1.827   2.043
 3448TIP3   OH210307   6.349   1.433   4.080
 3448TIP3    H110308   6.414   1.389   4.134
 3448TIP3    H210309   6.381   1.523   4.072
 3449TIP3   OH210310   6.914   3.178   1.517
 3449TIP3    H110311   6.889   3.169   1.425
 3449TIP3    H210312   6.868   3.257   1.547
 3450TIP3   OH210313   1.504   3.166   0.183
 3450TIP3    H110314   1.507   3.235   0.250
 3450TIP3    H210315   1.493   3.085   0.233
 3451TIP3   OH210316   2.588   0.891   1.376
 3451TIP3    H110317   2.511   0.841   1.349
 3451TIP3    H210318   2.585   0.970   1.321
 3452TIP3   OH210319   5.973   2.512   1.973
 3452TIP3    H110320   5.962   2.517   2.068
 3452TIP3    H210321   6.018   2.594   1.950
 3453TIP3   OH210322   5.382   4.286   3.843
 3453TIP3    H110323   5.381   4.214   3.906
 3453TIP3    H210324   5.290   4.305   3.826
 3454TIP3   OH210325   5.076   4.801   5.852
 3454TIP3    H110326   5.068   4.872   5.788
 3454TIP3    H210327   5.170   4.782   5.855
 3455TIP3   OH210328   4.411   6.648   3.841
 3455TIP3    H110329   4.344   6.588   3.875
 3455TIP3    H210330   4.485   6.593   3.819
 3456TIP3   OH210331   3.495   1.278   1.478
 3456TIP3    H110332   3.566   1.241   1.530
 3456TIP3    H210333   3.432   1.311   1.542
 3457TIP3   OH210334   6.141   0.645   0.182
 3457TIP3    H110335   6.071   0.710   0.178
 3457TIP3    H210336   6.182   0.660   0.267
 3458TIP3   OH210337   3.853   3.068   4.077
 3458TIP3    H110338   3.860   2.984   4.123
 3458TIP3    H210339   3.760   3.091   4.084
 3459TIP3   OH210340   1.301   2.669   4.351
 3459TIP3    H110341   1.308   2.576   4.374
 3459TIP3    H210342   1.209   2.690   4.368
 3460TIP3   OH210343   4.188   4.860   3.442
 3460TIP3    H110344   4.275   4.823   3.459
 3460TIP3    H210345   4.129   4.806   3.494
 3461TIP3   OH210346   6.015   0.883   2.695
 3461TIP3    H110347   5.931   0.846   2.722
 3461TIP3    H210348   6.044   0.935   2.770
 3462TIP3   OH210349   5.833   4.808   2.151
 3462TIP3    H110350   5.775   4.760   2.091
 3462TIP3    H210351   5.914   4.818   2.101
 3463TIP3   OH210352   2.632   5.425   5.654
 3463TIP3    H110353   2.671   5.460   5.574
 3463TIP3    H210354   2.693   5.450   5.723
 3464TIP3   OH210355   4.297   2.565   4.192
 3464TIP3    H110356   4.294   2.560   4.287
 3464TIP3    H210357   4.311   2.658   4.174
 3465TIP3   OH210358   2.087   5.525   2.809
 3465TIP3    H110359   2.148   5.513   2.736
 3465TIP3    H210360   2.001   5.505   2.772
 3466TIP3   OH210361   4.479   0.800   3.587
 3466TIP3    H110362   4.499   0.864   3.519
 3466TIP3    H210363   4.561   0.752   3.599
 3467TIP3   OH210364   3.905   6.442   1.340
 3467TIP3    H110365   3.855   6.459   1.260
 3467TIP3    H210366   3.838   6.427   1.407
 3468TIP3   OH210367   2.697   2.789   3.527
 3468TIP3    H110368   2.638   2.865   3.516
 3468TIP3    H210369   2.639   2.719   3.559
 3469TIP3   OH210370   0.510   6.478   4.588
 3469TIP3    H110371   0.448   6.468   4.660
 3469TIP3    H210372   0.547   6.566   4.601
 3470TIP3   OH210373   1.330   1.999   2.797
 3470TIP3    H110374   1.335   2.012   2.891
 3470TIP3    H210375   1.417   2.025   2.765
 3471TIP3   OH210376   0.626   0.840   3.500
 3471TIP3    H110377   0.534   0.814   3.494
 3471TIP3    H210378   0.665   0.809   3.418
 3472TIP3   OH210379   2.277   0.042   2.041
 3472TIP3    H110380   2.236   0.078   1.963
 3472TIP3    H210381   2.322  -0.036   2.011
 3473TIP3   OH210382   6.951   0.447   2.222
 3473TIP3    H110383   6.966   0.530   2.176
 3473TIP3    H210384   6.856   0.437   2.222
 3474TIP3   OH210385   0.587   0.411   5.243
 3474TIP3    H110386   0.568   0.464   5.165
 3474TIP3    H210387   0.505   0.409   5.291
 3475TIP3   OH210388   2.185   3.568   0.653
 3475TIP3    H110389   2.219   3.514   0.582
 3475TIP3    H210390   2.256   3.572   0.717
 3476TIP3   OH210391   5.399   2.158   1.014
 3476TIP3    H110392   5.448   2.201   0.945
 3476TIP3    H210393   5.379   2.071   0.979
 3477TIP3   OH210394   5.449   2.781   1.282
 3477TIP3    H110395   5.410   2.742   1.204
 3477TIP3    H210396   5.543   2.777   1.266
 3478TIP3   OH210397   4.013   4.369   2.611
 3478TIP3    H110398   3.932   4.354   2.660
 3478TIP3    H210399   4.045   4.281   2.590
 3479TIP3   OH210400   3.193   5.891   4.245
 3479TIP3    H110401   3.137   5.861   4.174
 3479TIP3    H210402   3.217   5.980   4.220
 3480TIP3   OH210403   4.005   2.154   5.656
 3480TIP3    H110404   3.954   2.233   5.673
 3480TIP3    H210405   3.957   2.085   5.701
 3481TIP3   OH210406   4.079   0.391   5.446
 3481TIP3    H110407   4.140   0.318   5.436
 3481TIP3    H210408   3.993   0.354   5.423
 3482TIP3   OH210409   1.748   0.664   2.394
 3482TIP3    H110410   1.730   0.608   2.470
 3482TIP3    H210411   1.821   0.719   2.421
 3483TIP3   OH210412   3.682   5.649   4.494
 3483TIP3    H110413   3.758   5.667   4.549
 3483TIP3    H210414   3.667   5.731   4.447
 3484TIP3   OH210415   6.318   2.602   5.353
 3484TIP3    H110416   6.263   2.525   5.341
 3484TIP3    H210417   6.299   2.658   5.278
 3485TIP3   OH210418   3.853   0.629   0.704
 3485TIP3    H110419   3.943   0.605   0.681
 3485TIP3    H210420   3.825   0.687   0.633
 3486TIP3   OH210421   4.104   4.141   2.265
 3486TIP3    H110422   4.073   4.232   2.258
 3486TIP3    H210423   4.028   4.093   2.298
 3487TIP3   OH210424   6.527   4.144   0.198
 3487TIP3    H110425   6.562   4.057   0.219
 3487TIP3    H210426   6.498   4.178   0.282
 3488TIP3   OH210427   3.378   2.025   2.041
 3488TIP3    H110428   3.341   2.110   2.017
 3488TIP3    H210429   3.427   2.042   2.122
 3489TIP3   OH210430   0.176   4.205   5.342
 3489TIP3    H110431   0.224   4.267   5.287
 3489TIP3    H210432   0.162   4.251   5.424
 3490TIP3   OH210433   2.605   6.037   2.002
 3490TIP3    H110434   2.604   6.025   2.097
 3490TIP3    H210435   2.640   5.955   1.968
 3491TIP3   OH210436   2.938   2.023   1.142
 3491TIP3    H110437   2.910   2.102   1.188
 3491TIP3    H210438   3.016   1.994   1.189
 3492TIP3   OH210439   0.277   3.458   1.467
 3492TIP3    H110440   0.187   3.426   1.479
 3492TIP3    H210441   0.332   3.392   1.510
 3493TIP3   OH210442   2.012   5.941   2.729
 3493TIP3    H110443   1.971   6.015   2.773
 3493TIP3    H210444   1.938   5.890   2.695
 3494TIP3   OH210445   4.667   1.878   4.073
 3494TIP3    H110446   4.617   1.958   4.058
 3494TIP3    H210447   4.653   1.826   3.994
 3495TIP3   OH210448   6.780   6.194   4.991
 3495TIP3    H110449   6.803   6.125   4.929
 3495TIP3    H210450   6.724   6.150   5.056
 3496TIP3   OH210451   3.332   3.566   1.043
 3496TIP3    H110452   3.288   3.609   0.969
 3496TIP3    H210453   3.272   3.496   1.068
 3497TIP3   OH210454   5.855   3.217   2.020
 3497TIP3    H110455   5.934   3.207   1.967
 3497TIP3    H210456   5.784   3.222   1.956
 3498TIP3   OH210457   5.475   3.861   1.515
 3498TIP3    H110458   5.520   3.843   1.597
 3498TIP3    H210459   5.464   3.775   1.474
 3499TIP3   OH210460   0.916   0.990   3.275
 3499TIP3    H110461   0.978   0.984   3.202
 3499TIP3    H210462   0.970   0.982   3.354
 3500TIP3   OH210463   1.871   5.405   3.034
 3500TIP3    H110464   1.939   5.459   3.074
 3500TIP3    H210465   1.833   5.460   2.966
 3501TIP3   OH210466   0.742   5.233   4.239
 3501TIP3    H110467   0.650   5.221   4.261
 3501TIP3    H210468   0.789   5.175   4.299
 3502TIP3   OH210469   2.536   0.594   3.191
 3502TIP3    H110470   2.510   0.611   3.282
 3502TIP3    H210471   2.609   0.653   3.176
 3503TIP3   OH210472   2.043   4.789   3.831
 3503TIP3    H110473   2.061   4.791   3.737
 3503TIP3    H210474   1.959   4.744   3.839
 3504TIP3   OH210475   2.287   2.835   5.286
 3504TIP3    H110476   2.222   2.822   5.218
 3504TIP3    H210477   2.236   2.840   5.367
 3505TIP3   OH210478   4.203   0.925   4.691
 3505TIP3    H110479   4.223   0.893   4.779
 3505TIP3    H210480   4.213   1.020   4.697
 3506TIP3   OH210481   6.606   1.639   4.623
 3506TIP3    H110482   6.624   1.733   4.626
 3506TIP3    H210483   6.541   1.625   4.692
 3507TIP3   OH210484   0.213   6.833   5.593
 3507TIP3    H110485   0.141   6.792   5.641
 3507TIP3    H210486   0.214   6.789   5.508
 3508TIP3   OH210487   0.065   2.816   4.005
 3508TIP3    H110488   0.104   2.859   3.929
 3508TIP3    H210489   0.115   2.848   4.080
 3509TIP3   OH210490   2.187   1.576   4.617
 3509TIP3    H110491   2.141   1.544   4.540
 3509TIP3    H210492   2.238   1.651   4.586
 3510TIP3   OH210493   3.931   1.879   4.643
 3510TIP3    H110494   3.846   1.870   4.684
 3510TIP3    H210495   3.928   1.819   4.568
 3511TIP3   OH210496   3.678   5.962   4.921
 3511TIP3    H110497   3.626   5.883   4.937
 3511TIP3    H210498   3.648   5.993   4.835
 3512TIP3   OH210499   6.037   3.893   1.567
 3512TIP3    H110500   5.949   3.868   1.538
 3512TIP3    H210501   6.029   3.904   1.662
 3513TIP3   OH210502   2.812   1.205   5.390
 3513TIP3    H110503   2.788   1.179   5.479
 3513TIP3    H210504   2.748   1.271   5.366
 3514TIP3   OH210505   6.100   6.312   5.902
 3514TIP3    H110506   6.178   6.302   5.848
 3514TIP3    H210507   6.130   6.359   5.979
 3515TIP3   OH210508   1.299   5.897   4.764
 3515TIP3    H110509   1.370   5.853   4.717
 3515TIP3    H210510   1.288   5.846   4.844
 3516TIP3   OH210511   4.686   4.685   5.321
 3516TIP3    H110512   4.715   4.625   5.252
 3516TIP3    H210513   4.645   4.628   5.386
 3517TIP3   OH210514   0.307   6.540   2.974
 3517TIP3    H110515   0.277   6.539   2.883
 3517TIP3    H210516   0.366   6.616   2.978
 3518TIP3   OH210517   6.186   2.267   0.445
 3518TIP3    H110518   6.280   2.256   0.456
 3518TIP3    H210519   6.156   2.299   0.531
 3519TIP3   OH210520   0.100   6.411   2.382
 3519TIP3    H110521   0.140   6.331   2.416
 3519TIP3    H210522   0.105   6.403   2.287
 3520TIP3   OH210523   2.745   0.081   2.810
 3520TIP3    H110524   2.683   0.109   2.877
 3520TIP3    H210525   2.800   0.016   2.853
 3521TIP3   OH210526   0.467   1.802   3.676
 3521TIP3    H110527   0.433   1.732   3.620
 3521TIP3    H210528   0.541   1.762   3.721
 3522TIP3   OH210529   0.478   2.719   4.657
 3522TIP3    H110530   0.566   2.749   4.636
 3522TIP3    H210531   0.438   2.699   4.572
 3523TIP3   OH210532   1.514   1.782   3.012
 3523TIP3    H110533   1.504   1.875   3.036
 3523TIP3    H210534   1.509   1.735   3.095
 3524TIP3   OH210535   4.146   1.572   4.633
 3524TIP3    H110536   4.133   1.657   4.675
 3524TIP3    H210537   4.061   1.528   4.642
 3525TIP3   OH210538   3.260   6.847   1.536
 3525TIP3    H110539   3.203   6.784   1.581
 3525TIP3    H210540   3.256   6.820   1.444
 3526TIP3   OH210541   3.971   5.659   4.627
 3526TIP3    H110542   4.035   5.727   4.647
 3526TIP3    H210543   4.023   5.587   4.590
 3527TIP3   OH210544   3.607   3.619   5.367
 3527TIP3    H110545   3.613   3.683   5.296
 3527TIP3    H210546   3.598   3.534   5.323
 3528TIP3   OH210547   0.902   5.788   2.244
 3528TIP3    H110548   0.876   5.696   2.233
 3528TIP3    H210549   0.925   5.818   2.156
 3529TIP3   OH210550   0.441   0.187   1.519
 3529TIP3    H110551   0.457   0.201   1.612
 3529TIP3    H210552   0.439   0.275   1.481
 3530TIP3   OH210553   3.899   1.228   3.296
 3530TIP3    H110554   3.866   1.258   3.211
 3530TIP3    H210555   3.932   1.307   3.339
 3531TIP3   OH210556   0.137   2.080   4.954
 3531TIP3    H110557   0.137   2.034   4.871
 3531TIP3    H210558   0.083   2.158   4.938
 3532TIP3   OH210559   6.460   2.111   5.761
 3532TIP3    H110560   6.400   2.164   5.812
 3532TIP3    H210561   6.491   2.169   5.691
 3533TIP3   OH210562   6.964   0.466   4.560
 3533TIP3    H110563   7.008   0.548   4.539
 3533TIP3    H210564   7.029   0.416   4.609
 3534TIP3   OH210565   5.792   3.647   5.821
 3534TIP3    H110566   5.767   3.602   5.901
 3534TIP3    H210567   5.735   3.724   5.817
 3535TIP3   OH210568   1.522   1.825   0.202
 3535TIP3    H110569   1.481   1.738   0.195
 3535TIP3    H210570   1.599   1.810   0.256
 3536TIP3   OH210571   6.728   4.007   3.796
 3536TIP3    H110572   6.760   3.946   3.863
 3536TIP3    H210573   6.745   4.094   3.833
 3537TIP3   OH210574   5.778   2.320   1.652
 3537TIP3    H110575   5.864   2.308   1.612
 3537TIP3    H210576   5.716   2.293   1.585
 3538TIP3   OH210577   6.609   1.883   5.688
 3538TIP3    H110578   6.646   1.903   5.602
 3538TIP3    H210579   6.578   1.968   5.721
 3539TIP3   OH210580   2.141   4.880   3.283
 3539TIP3    H110581   2.186   4.965   3.280
 3539TIP3    H210582   2.212   4.816   3.289
 3540TIP3   OH210583   4.773   5.728   2.247
 3540TIP3    H110584   4.777   5.655   2.308
 3540TIP3    H210585   4.772   5.806   2.303
 3541TIP3   OH210586   5.867   4.288   0.303
 3541TIP3    H110587   5.939   4.225   0.306
 3541TIP3    H210588   5.907   4.370   0.276
 3542TIP3   OH210589   4.029   5.194   2.080
 3542TIP3    H110590   4.037   5.198   2.176
 3542TIP3    H210591   4.091   5.127   2.053
 3543TIP3   OH210592   1.117   4.702   4.973
 3543TIP3    H110593   1.112   4.793   5.000
 3543TIP3    H210594   1.117   4.705   4.877
 3544TIP3   OH210595   0.802   0.651   3.620
 3544TIP3    H110596   0.812   0.631   3.713
 3544TIP3    H210597   0.745   0.728   3.618
 3545TIP3   OH210598   0.777   5.555   2.961
 3545TIP3    H110599   0.684   5.538   2.944
 3545TIP3    H210600   0.807   5.476   3.006
 3546TIP3   OH210601   2.650   1.801   2.879
 3546TIP3    H110602   2.570   1.755   2.907
 3546TIP3    H210603   2.620   1.889   2.857
 3547TIP3   OH210604   6.202   3.371   0.236
 3547TIP3    H110605   6.236   3.289   0.200
 3547TIP3    H210606   6.252   3.439   0.191
 3548TIP3   OH210607   4.837   3.674   4.550
 3548TIP3    H110608   4.927   3.645   4.536
 3548TIP3    H210609   4.845   3.763   4.582
 3549TIP3   OH210610   2.610   6.499   2.292
 3549TIP3    H110611   2.547   6.551   2.342
 3549TIP3    H210612   2.634   6.555   2.218
 3550TIP3   OH210613   0.322   5.955   0.420
 3550TIP3    H110614   0.245   5.906   0.391
 3550TIP3    H210615   0.295   6.047   0.416
 3551TIP3   OH210616   0.264   0.089   5.106
 3551TIP3    H110617   0.201   0.069   5.036
 3551TIP3    H210618   0.212   0.135   5.172
 3552TIP3   OH210619   4.045   5.694   1.263
 3552TIP3    H110620   3.997   5.695   1.346
 3552TIP3    H210621   4.072   5.603   1.251
 3553TIP3   OH210622   0.134   4.943   4.377
 3553TIP3    H110623   0.171   4.879   4.317
 3553TIP3    H210624   0.202   4.957   4.443
 3554TIP3   OH210625   5.640   1.952   0.640
 3554TIP3    H110626   5.714   1.997   0.682
 3554TIP3    H210627   5.679   1.874   0.602
 3555TIP3   OH210628   2.906   5.376   4.001
 3555TIP3    H110629   2.881   5.441   4.067
 3555TIP3    H210630   2.996   5.398   3.978
 3556TIP3   OH210631   5.108   5.904   1.094
 3556TIP3    H110632   5.064   5.863   1.019
 3556TIP3    H210633   5.053   5.978   1.117
 3557TIP3   OH210634   6.068   1.407   3.655
 3557TIP3    H110635   6.078   1.496   3.690
 3557TIP3    H210636   6.143   1.397   3.596
 3558TIP3   OH210637   1.454   2.741   2.706
 3558TIP3    H110638   1.444   2.790   2.788
 3558TIP3    H210639   1.549   2.736   2.693
 3559TIP3   OH210640   6.736   3.523   0.903
 3559TIP3    H110641   6.767   3.605   0.864
 3559TIP3    H210642   6.735   3.460   0.832
 3560TIP3   OH210643   1.752   4.413   3.955
 3560TIP3    H110644   1.772   4.373   3.870
 3560TIP3    H210645   1.706   4.344   4.003
 3561TIP3   OH210646   1.668   1.687   1.308
 3561TIP3    H110647   1.762   1.679   1.293
 3561TIP3    H210648   1.640   1.758   1.250
 3562TIP3   OH210649   2.989   2.806   4.570
 3562TIP3    H110650   3.006   2.741   4.638
 3562TIP3    H210651   2.900   2.788   4.541
 3563TIP3   OH210652   1.929   4.862   2.969
 3563TIP3    H110653   1.847   4.822   2.998
 3563TIP3    H210654   1.909   4.955   2.963
 3564TIP3   OH210655   3.178   2.387   3.585
 3564TIP3    H110656   3.119   2.374   3.511
 3564TIP3    H210657   3.254   2.432   3.548
 3565TIP3   OH210658   2.052   0.021   0.236
 3565TIP3    H110659   2.143   0.040   0.258
 3565TIP3    H210660   2.002   0.059   0.307
 3566TIP3   OH210661   5.528   3.819   2.109
 3566TIP3    H110662   5.539   3.764   2.187
 3566TIP3    H210663   5.611   3.865   2.101
 3567TIP3   OH210664   7.079   0.034   5.759
 3567TIP3    H110665   7.069   0.093   5.833
 3567TIP3    H210666   6.993  -0.009   5.751
 3568TIP3   OH210667   5.081   2.856   2.932
 3568TIP3    H110668   5.051   2.782   2.985
 3568TIP3    H210669   5.050   2.933   2.979
 3569TIP3   OH210670   6.911   2.217   3.424
 3569TIP3    H110671   6.887   2.266   3.346
 3569TIP3    H210672   6.987   2.262   3.459
 3570TIP3   OH210673   0.482   1.656   3.433
 3570TIP3    H110674   0.451   1.743   3.408
 3570TIP3    H210675   0.499   1.612   3.351
 3571TIP3   OH210676   0.540   6.402   2.563
 3571TIP3    H110677   0.578   6.382   2.648
 3571TIP3    H210678   0.520   6.317   2.524
 3572TIP3   OH210679   0.705   4.672   2.753
 3572TIP3    H110680   0.616   4.646   2.775
 3572TIP3    H210681   0.726   4.741   2.815
 3573TIP3   OH210682   7.160   0.674   4.840
 3573TIP3    H110683   7.167   0.658   4.746
 3573TIP3    H210684   7.090   0.617   4.870
 3574TIP3   OH210685   1.634   6.686   1.888
 3574TIP3    H110686   1.687   6.704   1.966
 3574TIP3    H210687   1.616   6.772   1.850
 3575TIP3   OH210688   6.934   6.796   2.668
 3575TIP3    H110689   7.026   6.820   2.675
 3575TIP3    H210690   6.933   6.727   2.601
 3576TIP3   OH210691   4.600   1.595   2.947
 3576TIP3    H110692   4.628   1.582   2.856
 3576TIP3    H210693   4.626   1.515   2.992
 3577TIP3   OH210694   6.677   2.513   1.600
 3577TIP3    H110695   6.642   2.438   1.551
 3577TIP3    H210696   6.648   2.499   1.690
 3578TIP3   OH210697   5.492   3.014   0.260
 3578TIP3    H110698   5.446   3.022   0.176
 3578TIP3    H210699   5.576   3.057   0.245
 3579TIP3   OH210700   1.872   1.199   0.107
 3579TIP3    H110701   1.947   1.167   0.158
 3579TIP3    H210702   1.853   1.129   0.045
 3580TIP3   OH210703   1.794   2.297   0.901
 3580TIP3    H110704   1.834   2.350   0.970
 3580TIP3    H210705   1.761   2.219   0.947
 3581TIP3   OH210706   1.968   5.360   1.706
 3581TIP3    H110707   1.885   5.321   1.733
 3581TIP3    H210708   1.957   5.377   1.612
 3582TIP3   OH210709   4.757   2.779   2.287
 3582TIP3    H110710   4.750   2.740   2.200
 3582TIP3    H210711   4.847   2.810   2.293
 3583TIP3   OH210712   5.832   5.856   4.217
 3583TIP3    H110713   5.782   5.929   4.181
 3583TIP3    H210714   5.780   5.826   4.292
 3584TIP3   OH210715   7.182   4.354   2.530
 3584TIP3    H110716   7.215   4.273   2.570
 3584TIP3    H210717   7.254   4.384   2.474
 3585TIP3   OH210718   6.446   2.756   4.302
 3585TIP3    H110719   6.354   2.770   4.277
 3585TIP3    H210720   6.463   2.665   4.276
 3586TIP3   OH210721   4.235   3.134   2.267
 3586TIP3    H110722   4.151   3.158   2.227
 3586TIP3    H210723   4.300   3.166   2.205
 3587TIP3   OH210724   5.409   1.883   3.625
 3587TIP3    H110725   5.501   1.870   3.602
 3587TIP3    H210726   5.361   1.867   3.544
 3588TIP3   OH210727   5.812   2.871   0.539
 3588TIP3    H110728   5.728   2.856   0.496
 3588TIP3    H210729   5.872   2.893   0.467
 3589TIP3   OH210730   3.353   2.911   3.642
 3589TIP3    H110731   3.287   2.884   3.579
 3589TIP3    H210732   3.330   3.002   3.663
 3590TIP3   OH210733   0.196   0.679   1.994
 3590TIP3    H110734   0.233   0.765   2.015
 3590TIP3    H210735   0.129   0.697   1.929
 3591TIP3   OH210736   0.905   1.501   2.437
 3591TIP3    H110737   0.903   1.527   2.345
 3591TIP3    H210738   0.820   1.528   2.472
 3592TIP3   OH210739   0.427   2.229   2.629
 3592TIP3    H110740   0.514   2.189   2.619
 3592TIP3    H210741   0.393   2.236   2.540
 3593TIP3   OH210742   2.113   5.348   5.379
 3593TIP3    H110743   2.202   5.371   5.405
 3593TIP3    H210744   2.057   5.387   5.447
 3594TIP3   OH210745   7.119   4.227   5.356
 3594TIP3    H110746   7.198   4.202   5.308
 3594TIP3    H210747   7.047   4.203   5.298
 3595TIP3   OH210748   6.924   6.535   4.806
 3595TIP3    H110749   6.960   6.593   4.873
 3595TIP3    H210750   6.949   6.575   4.723
 3596TIP3   OH210751   3.269   6.000   3.918
 3596TIP3    H110752   3.227   5.965   3.840
 3596TIP3    H210753   3.302   6.086   3.892
 3597TIP3   OH210754   6.477   1.211   4.178
 3597TIP3    H110755   6.548   1.189   4.117
 3597TIP3    H210756   6.410   1.144   4.162
 3598TIP3   OH210757   5.054   4.448   4.533
 3598TIP3    H110758   4.980   4.490   4.578
 3598TIP3    H210759   5.017   4.415   4.452
 3599TIP3   OH210760   0.810   6.420   2.981
 3599TIP3    H110761   0.730   6.386   2.941
 3599TIP3    H210762   0.781   6.496   3.032
 3600TIP3   OH210763   4.298   0.131   0.694
 3600TIP3    H110764   4.287   0.039   0.672
 3600TIP3    H210765   4.393   0.142   0.705
 3601TIP3   OH210766   1.056   2.686   3.635
 3601TIP3    H110767   1.082   2.687   3.727
 3601TIP3    H210768   1.123   2.738   3.590
 3602TIP3   OH210769   2.371   1.570   1.752
 3602TIP3    H110770   2.328   1.491   1.784
 3602TIP3    H210771   2.316   1.642   1.783
 3603TIP3   OH210772   1.447   3.847   0.486
 3603TIP3    H110773   1.517   3.856   0.422
 3603TIP3    H210774   1.487   3.870   0.570
 3604TIP3   OH210775   2.092   1.000   2.223
 3604TIP3    H110776   2.043   1.074   2.186
 3604TIP3    H210777   2.183   1.027   2.219
 3605TIP3   OH210778   6.240   3.098   2.282
 3605TIP3    H110779   6.306   3.103   2.213
 3605TIP3    H210780   6.252   3.178   2.333
 3606TIP3   OH210781   3.010   1.468   2.706
 3606TIP3    H110782   3.013   1.393   2.648
 3606TIP3    H210783   3.059   1.536   2.660
 3607TIP3   OH210784   5.935   5.355   3.505
 3607TIP3    H110785   5.991   5.312   3.569
 3607TIP3    H210786   5.877   5.410   3.557
 3608TIP3   OH210787   5.723   0.302   2.084
 3608TIP3    H110788   5.693   0.331   1.998
 3608TIP3    H210789   5.776   0.224   2.066
 3609TIP3   OH210790   0.547   6.251   1.805
 3609TIP3    H110791   0.496   6.331   1.818
 3609TIP3    H210792   0.589   6.235   1.890
 3610TIP3   OH210793   0.662   3.053   3.218
 3610TIP3    H110794   0.579   3.044   3.264
 3610TIP3    H210795   0.695   2.963   3.210
 3611TIP3   OH210796   0.948   5.776   2.900
 3611TIP3    H110797   0.879   5.710   2.908
 3611TIP3    H210798   0.939   5.810   2.811
 3612TIP3   OH210799   5.193   2.576   1.117
 3612TIP3    H110800   5.175   2.566   1.210
 3612TIP3    H210801   5.287   2.590   1.112
 3613TIP3   OH210802   3.520   0.863   5.823
 3613TIP3    H110803   3.609   0.893   5.808
 3613TIP3    H210804   3.474   0.939   5.860
 3614TIP3   OH210805   4.328   0.279   4.250
 3614TIP3    H110806   4.353   0.361   4.207
 3614TIP3    H210807   4.234   0.271   4.235
 3615TIP3   OH210808   4.291   3.118   0.708
 3615TIP3    H110809   4.219   3.056   0.694
 3615TIP3    H210810   4.284   3.179   0.635
 3616TIP3   OH210811   4.049   1.820   3.502
 3616TIP3    H110812   3.993   1.806   3.426
 3616TIP3    H210813   4.035   1.744   3.557
 3617TIP3   OH210814   3.213   0.166   5.695
 3617TIP3    H110815   3.280   0.184   5.629
 3617TIP3    H210816   3.134   0.207   5.660
 3618TIP3   OH210817   0.514   0.963   0.972
 3618TIP3    H110818   0.496   0.906   0.897
 3618TIP3    H210819   0.608   0.978   0.968
 3619TIP3   OH210820   0.200   5.004   2.596
 3619TIP3    H110821   0.138   4.959   2.538
 3619TIP3    H210822   0.285   4.991   2.553
 3620TIP3   OH210823   2.376   5.771   3.431
 3620TIP3    H110824   2.346   5.717   3.358
 3620TIP3    H210825   2.386   5.859   3.393
 3621TIP3   OH210826   1.761   4.651   3.379
 3621TIP3    H110827   1.672   4.687   3.384
 3621TIP3    H210828   1.763   4.603   3.296
 3622TIP3   OH210829   2.257   0.735   0.518
 3622TIP3    H110830   2.186   0.787   0.557
 3622TIP3    H210831   2.262   0.657   0.574
 3623TIP3   OH210832   3.280   2.327   2.544
 3623TIP3    H110833   3.214   2.260   2.527
 3623TIP3    H210834   3.246   2.374   2.620
 3624TIP3   OH210835   0.144   3.717   0.550
 3624TIP3    H110836   0.176   3.751   0.467
 3624TIP3    H210837   0.206   3.750   0.615
 3625TIP3   OH210838   5.813   1.521   5.362
 3625TIP3    H110839   5.900   1.544   5.394
 3625TIP3    H210840   5.765   1.604   5.364
 3626TIP3   OH210841   0.019   5.600   3.878
 3626TIP3    H110842   0.086   5.532   3.886
 3626TIP3    H210843  -0.052   5.559   3.828
 3627TIP3   OH210844   5.735   0.646   5.633
 3627TIP3    H110845   5.681   0.567   5.625
 3627TIP3    H210846   5.744   0.659   5.727
 3628TIP3   OH210847   3.837   0.026   2.704
 3628TIP3    H110848   3.932   0.027   2.716
 3628TIP3    H210849   3.822   0.067   2.619
 3629TIP3   OH210850   6.049   3.464   2.404
 3629TIP3    H110851   6.140   3.436   2.406
 3629TIP3    H210852   6.006   3.410   2.471
 3630TIP3   OH210853   1.354   5.877   1.912
 3630TIP3    H110854   1.334   5.930   1.835
 3630TIP3    H210855   1.392   5.797   1.877
 3631TIP3   OH210856   3.469   5.655   3.752
 3631TIP3    H110857   3.389   5.677   3.704
 3631TIP3    H210858   3.493   5.568   3.719
 3632TIP3   OH210859   0.595   5.776   3.884
 3632TIP3    H110860   0.589   5.765   3.789
 3632TIP3    H210861   0.689   5.771   3.903
 3633TIP3   OH210862   3.830   5.966   4.476
 3633TIP3    H110863   3.830   6.051   4.431
 3633TIP3    H210864   3.787   5.907   4.414
 3634TIP3   OH210865   1.892   0.069   1.437
 3634TIP3    H110866   1.825   0.095   1.374
 3634TIP3    H210867   1.883  -0.026   1.445
 3635TIP3   OH210868   0.810   3.078   0.181
 3635TIP3    H110869   0.824   2.993   0.138
 3635TIP3    H210870   0.897   3.107   0.206
 3636TIP3   OH210871   3.770   3.224   0.619
 3636TIP3    H110872   3.857   3.237   0.581
 3636TIP3    H210873   3.735   3.146   0.576
 3637TIP3   OH210874   1.539   5.986   1.199
 3637TIP3    H110875   1.540   5.990   1.295
 3637TIP3    H210876   1.621   5.943   1.176
 3638TIP3   OH210877   6.158   5.168   0.388
 3638TIP3    H110878   6.246   5.144   0.362
 3638TIP3    H210879   6.104   5.153   0.310
 3639TIP3   OH210880   3.291   1.453   1.828
 3639TIP3    H110881   3.270   1.380   1.770
 3639TIP3    H210882   3.286   1.531   1.772
 3640TIP3   OH210883   2.029   2.506   0.459
 3640TIP3    H110884   2.023   2.530   0.367
 3640TIP3    H210885   2.005   2.586   0.506
 3641TIP3   OH210886   1.208   1.912   5.495
 3641TIP3    H110887   1.290   1.963   5.495
 3641TIP3    H210888   1.142   1.973   5.461
 3642TIP3   OH210889   6.252   3.296   0.553
 3642TIP3    H110890   6.197   3.353   0.500
 3642TIP3    H210891   6.210   3.210   0.548
 3643TIP3   OH210892   4.070   2.597   0.539
 3643TIP3    H110893   3.982   2.614   0.573
 3643TIP3    H210894   4.078   2.502   0.541
 3644TIP3   OH210895   1.892   2.847   5.144
 3644TIP3    H110896   1.979   2.816   5.119
 3644TIP3    H210897   1.833   2.808   5.079
 3645TIP3   OH210898   7.211   6.489   0.861
 3645TIP3    H110899   7.235   6.560   0.921
 3645TIP3    H210900   7.265   6.504   0.784
 3646TIP3   OH210901   1.649   1.599   3.639
 3646TIP3    H110902   1.570   1.569   3.684
 3646TIP3    H210903   1.685   1.666   3.697
 3647TIP3   OH210904   0.203   0.314   0.541
 3647TIP3    H110905   0.226   0.248   0.606
 3647TIP3    H210906   0.196   0.266   0.459
 3648TIP3   OH210907   7.247   6.046   5.178
 3648TIP3    H110908   7.288   5.978   5.124
 3648TIP3    H210909   7.208   6.107   5.115
 3649TIP3   OH210910   3.741   3.717   0.180
 3649TIP3    H110911   3.663   3.752   0.137
 3649TIP3    H210912   3.707   3.651   0.241
 3650TIP3   OH210913   5.834   2.807   5.725
 3650TIP3    H110914   5.842   2.714   5.747
 3650TIP3    H210915   5.893   2.851   5.787
 3651TIP3   OH210916   5.264   5.242   1.332
 3651TIP3    H110917   5.285   5.199   1.249
 3651TIP3    H210918   5.210   5.179   1.379
 3652TIP3   OH210919   3.776   5.316   2.302
 3652TIP3    H110920   3.844   5.352   2.245
 3652TIP3    H210921   3.754   5.388   2.361
 3653TIP3   OH210922   0.023   2.196   0.249
 3653TIP3    H110923   0.085   2.148   0.302
 3653TIP3    H210924   0.026   2.154   0.163
 3654TIP3   OH210925   4.428   1.075   2.331
 3654TIP3    H110926   4.485   1.038   2.263
 3654TIP3    H210927   4.341   1.039   2.312
 3655TIP3   OH210928   5.563   3.014   2.586
 3655TIP3    H110929   5.555   2.928   2.546
 3655TIP3    H210930   5.645   3.049   2.551
 3656TIP3   OH210931   6.872   5.441   0.465
 3656TIP3    H110932   6.870   5.366   0.406
 3656TIP3    H210933   6.956   5.432   0.510
 3657TIP3   OH210934   6.848   2.371   0.723
 3657TIP3    H110935   6.788   2.419   0.780
 3657TIP3    H210936   6.888   2.305   0.780
 3658TIP3   OH210937   3.883   0.016   5.034
 3658TIP3    H110938   3.907   0.093   5.085
 3658TIP3    H210939   3.790   0.002   5.052
 3659TIP3   OH210940   2.219   4.502   3.217
 3659TIP3    H110941   2.263   4.569   3.269
 3659TIP3    H210942   2.275   4.491   3.140
 3660TIP3   OH210943   1.822   4.348   3.589
 3660TIP3    H110944   1.842   4.263   3.549
 3660TIP3    H210945   1.817   4.330   3.682
 3661TIP3   OH210946   0.373   4.116   1.641
 3661TIP3    H110947   0.319   4.133   1.718
 3661TIP3    H210948   0.431   4.192   1.636
 3662TIP3   OH210949   5.600   0.631   0.788
 3662TIP3    H110950   5.620   0.559   0.847
 3662TIP3    H210951   5.652   0.704   0.820
 3663TIP3   OH210952   0.682   3.936   4.959
 3663TIP3    H110953   0.605   3.924   5.015
 3663TIP3    H210954   0.756   3.926   5.018
 3664TIP3   OH210955   0.691   2.253   0.595
 3664TIP3    H110956   0.762   2.257   0.532
 3664TIP3    H210957   0.612   2.241   0.542
 3665TIP3   OH210958   4.433   3.932   1.088
 3665TIP3    H110959   4.348   3.903   1.121
 3665TIP3    H210960   4.496   3.870   1.125
 3666TIP3   OH210961   5.742   3.488   4.545
 3666TIP3    H110962   5.666   3.533   4.582
 3666TIP3    H210963   5.810   3.555   4.541
 3667TIP3   OH210964   0.647   4.053   1.515
 3667TIP3    H110965   0.603   3.977   1.553
 3667TIP3    H210966   0.741   4.034   1.524
 3668TIP3   OH210967   2.888   5.946   0.865
 3668TIP3    H110968   2.893   5.936   0.960
 3668TIP3    H210969   2.845   5.865   0.835
 3669TIP3   OH210970   4.934   1.805   0.445
 3669TIP3    H110971   4.892   1.731   0.402
 3669TIP3    H210972   4.931   1.783   0.539
 3670TIP3   OH210973   2.943   5.097   0.034
 3670TIP3    H110974   2.992   5.084  -0.047
 3670TIP3    H210975   2.869   5.151   0.008
 3671TIP3   OH210976   7.163   2.387   0.754
 3671TIP3    H110977   7.089   2.362   0.810
 3671TIP3    H210978   7.240   2.375   0.810
 3672TIP3   OH210979   7.235   1.177   3.526
 3672TIP3    H110980   7.173   1.225   3.581
 3672TIP3    H210981   7.250   1.234   3.451
 3673TIP3   OH210982   6.512   4.931   4.330
 3673TIP3    H110983   6.568   4.967   4.262
 3673TIP3    H210984   6.539   4.839   4.338
 3674TIP3   OH210985   6.418   0.857   0.532
 3674TIP3    H110986   6.498   0.843   0.583
 3674TIP3    H210987   6.391   0.946   0.555
 3675TIP3   OH210988   5.538   6.674   2.595
 3675TIP3    H110989   5.634   6.678   2.600
 3675TIP3    H210990   5.512   6.757   2.555
 3676TIP3   OH210991   3.470   3.678   3.113
 3676TIP3    H110992   3.418   3.664   3.034
 3676TIP3    H210993   3.407   3.708   3.178
 3677TIP3   OH210994   5.490   6.572   3.082
 3677TIP3    H110995   5.541   6.620   3.016
 3677TIP3    H210996   5.529   6.598   3.166
 3678TIP3   OH210997   3.790   4.395   2.448
 3678TIP3    H110998   3.872   4.403   2.497
 3678TIP3    H210999   3.810   4.429   2.361
 3679TIP3   OH211000   6.659   6.230   5.729
 3679TIP3    H111001   6.729   6.166   5.716
 3679TIP3    H211002   6.578   6.179   5.716
 3680TIP3   OH211003   4.866   0.173   0.246
 3680TIP3    H111004   4.887   0.168   0.339
 3680TIP3    H211005   4.879   0.265   0.223
 3681TIP3   OH211006   0.168   2.523   2.633
 3681TIP3    H111007   0.181   2.601   2.580
 3681TIP3    H211008   0.179   2.450   2.572
 3682TIP3   OH211009   2.228   0.051   0.847
 3682TIP3    H111010   2.301   0.068   0.907
 3682TIP3    H211011   2.261   0.075   0.761
 3683TIP3   OH211012   4.674   4.868   3.112
 3683TIP3    H111013   4.732   4.903   3.180
 3683TIP3    H211014   4.716   4.893   3.029
 3684TIP3   OH211015   6.636   1.954   1.467
 3684TIP3    H111016   6.642   1.879   1.407
 3684TIP3    H211017   6.604   1.916   1.548
 3685TIP3   OH211018   6.003   3.534   0.672
 3685TIP3    H111019   5.958   3.505   0.593
 3685TIP3    H211020   6.076   3.588   0.640
 3686TIP3   OH211021   1.826   2.430   5.655
 3686TIP3    H111022   1.775   2.349   5.646
 3686TIP3    H211023   1.857   2.448   5.566
 3687TIP3   OH211024   0.538   1.464   3.653
 3687TIP3    H111025   0.519   1.521   3.578
 3687TIP3    H211026   0.527   1.375   3.618
 3688TIP3   OH211027   4.194   4.511   0.064
 3688TIP3    H111028   4.172   4.426   0.026
 3688TIP3    H211029   4.288   4.506   0.081
 3689TIP3   OH211030   4.113   5.217   1.364
 3689TIP3    H111031   4.045   5.186   1.424
 3689TIP3    H211032   4.194   5.210   1.414
 3690TIP3   OH211033   0.079   5.580   4.859
 3690TIP3    H111034  -0.012   5.605   4.841
 3690TIP3    H211035   0.075   5.485   4.873
 3691TIP3   OH211036   6.788   0.545   5.242
 3691TIP3    H111037   6.876   0.511   5.223
 3691TIP3    H211038   6.734   0.468   5.254
 3692TIP3   OH211039   4.869   3.010   4.927
 3692TIP3    H111040   4.941   2.957   4.959
 3692TIP3    H211041   4.791   2.974   4.970
 3693TIP3   OH211042   4.901   1.891   4.417
 3693TIP3    H111043   4.906   1.814   4.474
 3693TIP3    H211044   4.968   1.950   4.451
 3694TIP3   OH211045   0.037   5.273   5.251
 3694TIP3    H111046  -0.050   5.296   5.220
 3694TIP3    H211047   0.090   5.263   5.172
 3695TIP3   OH211048   1.604   6.632   4.892
 3695TIP3    H111049   1.606   6.547   4.936
 3695TIP3    H211050   1.558   6.689   4.953
 3696TIP3   OH211051   2.749   6.415   4.978
 3696TIP3    H111052   2.710   6.414   5.065
 3696TIP3    H211053   2.723   6.499   4.940
 3697TIP3   OH211054   4.882   4.635   1.502
 3697TIP3    H111055   4.972   4.629   1.533
 3697TIP3    H211056   4.844   4.706   1.553
 3698TIP3   OH211057   4.927   0.126   0.782
 3698TIP3    H111058   4.924   0.040   0.741
 3698TIP3    H211059   4.994   0.118   0.850
 3699TIP3   OH211060   4.754   6.133   0.282
 3699TIP3    H111061   4.772   6.142   0.189
 3699TIP3    H211062   4.702   6.210   0.304
 3700TIP3   OH211063   6.407   6.122   4.525
 3700TIP3    H111064   6.466   6.129   4.450
 3700TIP3    H211065   6.355   6.044   4.507
 3701TIP3   OH211066   1.936   6.240   0.945
 3701TIP3    H111067   1.880   6.214   0.872
 3701TIP3    H211068   1.988   6.313   0.911
 3702TIP3   OH211069   1.528   1.740   2.060
 3702TIP3    H111070   1.497   1.758   2.148
 3702TIP3    H211071   1.451   1.703   2.015
 3703TIP3   OH211072   3.639   2.625   2.742
 3703TIP3    H111073   3.686   2.685   2.800
 3703TIP3    H211074   3.676   2.641   2.655
 3704TIP3   OH211075   4.473   5.228   1.109
 3704TIP3    H111076   4.383   5.237   1.140
 3704TIP3    H211077   4.471   5.262   1.020
 3705TIP3   OH211078   1.384   4.881   4.169
 3705TIP3    H111079   1.303   4.928   4.149
 3705TIP3    H211080   1.379   4.862   4.262
 3706TIP3   OH211081   1.399   4.592   2.769
 3706TIP3    H111082   1.383   4.675   2.725
 3706TIP3    H211083   1.484   4.603   2.811
 3707TIP3   OH211084   1.838   3.231   2.578
 3707TIP3    H111085   1.840   3.316   2.624
 3707TIP3    H211086   1.930   3.210   2.563
 3708TIP3   OH211087   6.820   0.433   3.825
 3708TIP3    H111088   6.868   0.494   3.881
 3708TIP3    H211089   6.749   0.486   3.788
 3709TIP3   OH211090   1.003   0.935   2.376
 3709TIP3    H111091   0.963   1.019   2.400
 3709TIP3    H211092   1.085   0.959   2.333
 3710TIP3   OH211093   6.014   2.833   0.317
 3710TIP3    H111094   5.994   2.812   0.226
 3710TIP3    H211095   6.048   2.751   0.353
 3711TIP3   OH211096   6.785   2.183   5.309
 3711TIP3    H111097   6.836   2.183   5.228
 3711TIP3    H211098   6.838   2.235   5.370
 3712TIP3   OH211099   2.303   0.470   5.241
 3712TIP3    H111100   2.271   0.388   5.205
 3712TIP3    H211101   2.376   0.445   5.298
 3713TIP3   OH211102   6.629   3.010   2.405
 3713TIP3    H111103   6.632   3.071   2.479
 3713TIP3    H211104   6.547   2.963   2.415
 3714TIP3   OH211105   3.144   1.350   2.467
 3714TIP3    H111106   3.069   1.292   2.479
 3714TIP3    H211107   3.192   1.312   2.393
 3715TIP3   OH211108   4.739   5.297   2.853
 3715TIP3    H111109   4.818   5.288   2.799
 3715TIP3    H211110   4.685   5.360   2.807
 3716TIP3   OH211111   0.016   3.532   4.988
 3716TIP3    H111112   0.085   3.539   5.054
 3716TIP3    H211113   0.059   3.491   4.913
 3717TIP3   OH211114   4.563   3.543   4.354
 3717TIP3    H111115   4.583   3.472   4.293
 3717TIP3    H211116   4.596   3.622   4.310
 3718TIP3   OH211117   1.939   0.922   2.858
 3718TIP3    H111118   1.923   0.995   2.799
 3718TIP3    H211119   1.854   0.880   2.871
 3719TIP3   OH211120   6.085   3.008   5.339
 3719TIP3    H111121   6.173   3.038   5.359
 3719TIP3    H211122   6.077   2.924   5.385
 3720TIP3   OH211123   4.109   1.571   0.916
 3720TIP3    H111124   4.039   1.626   0.950
 3720TIP3    H211125   4.079   1.545   0.829
 3721TIP3   OH211126   5.400   3.559   2.965
 3721TIP3    H111127   5.366   3.587   2.880
 3721TIP3    H211128   5.399   3.464   2.960
 3722TIP3   OH211129   6.809   5.403   3.188
 3722TIP3    H111130   6.901   5.401   3.214
 3722TIP3    H211131   6.806   5.361   3.102
 3723TIP3   OH211132   6.149   0.114   0.429
 3723TIP3    H111133   6.062   0.086   0.399
 3723TIP3    H211134   6.180   0.172   0.360
 3724TIP3   OH211135   0.075   0.192   0.329
 3724TIP3    H111136  -0.017   0.213   0.343
 3724TIP3    H211137   0.074   0.099   0.306
 3725TIP3   OH211138   5.932   4.420   2.214
 3725TIP3    H111139   5.842   4.388   2.201
 3725TIP3    H211140   5.950   4.474   2.137
 3726TIP3   OH211141   3.269   3.617   0.598
 3726TIP3    H111142   3.229   3.533   0.623
 3726TIP3    H211143   3.207   3.655   0.536
 3727TIP3   OH211144   4.481   6.622   2.879
 3727TIP3    H111145   4.537   6.558   2.836
 3727TIP3    H211146   4.539   6.695   2.899
 3728TIP3   OH211147   2.889   5.148   0.341
 3728TIP3    H111148   2.878   5.063   0.384
 3728TIP3    H211149   2.897   5.127   0.248
 3729TIP3   OH211150   5.050   3.719   2.999
 3729TIP3    H111151   5.109   3.647   3.021
 3729TIP3    H211152   5.024   3.701   2.909
 3730TIP3   OH211153   5.609   3.763   3.386
 3730TIP3    H111154   5.634   3.851   3.414
 3730TIP3    H211155   5.582   3.773   3.295
 3731TIP3   OH211156   3.191   5.900   4.822
 3731TIP3    H111157   3.119   5.934   4.876
 3731TIP3    H211158   3.248   5.854   4.883
 3732TIP3   OH211159   4.562   4.975   5.803
 3732TIP3    H111160   4.640   4.998   5.853
 3732TIP3    H211161   4.558   4.879   5.807
 3733TIP3   OH211162   6.022   3.171   3.101
 3733TIP3    H111163   5.929   3.152   3.108
 3733TIP3    H211164   6.043   3.221   3.180
 3734TIP3   OH211165   0.025   2.878   0.820
 3734TIP3    H111166  -0.055   2.834   0.792
 3734TIP3    H211167   0.064   2.818   0.884
 3735TIP3   OH211168   2.586   3.305   1.441
 3735TIP3    H111169   2.569   3.377   1.502
 3735TIP3    H211170   2.669   3.268   1.469
 3736TIP3   OH211171   0.455   6.691   5.584
 3736TIP3    H111172   0.381   6.751   5.593
 3736TIP3    H211173   0.507   6.704   5.663
 3737TIP3   OH211174   4.814   3.229   1.620
 3737TIP3    H111175   4.735   3.283   1.628
 3737TIP3    H211176   4.885   3.292   1.608
 3738TIP3   OH211177   6.183   1.705   4.748
 3738TIP3    H111178   6.224   1.695   4.662
 3738TIP3    H211179   6.201   1.796   4.772
 3739TIP3   OH211180   7.010   4.409   4.446
 3739TIP3    H111181   7.072   4.389   4.515
 3739TIP3    H211182   6.928   4.369   4.474
 3740TIP3   OH211183   0.127   3.559   1.854
 3740TIP3    H111184   0.170   3.475   1.836
 3740TIP3    H211185   0.172   3.593   1.932
 3741TIP3   OH211186   1.082   0.165   0.314
 3741TIP3    H111187   1.058   0.219   0.238
 3741TIP3    H211188   1.015   0.096   0.316
 3742TIP3   OH211189   2.081   1.412   4.142
 3742TIP3    H111190   2.137   1.373   4.075
 3742TIP3    H211191   1.992   1.401   4.108
 3743TIP3   OH211192   5.967   0.070   4.823
 3743TIP3    H111193   5.885   0.087   4.775
 3743TIP3    H211194   6.023   0.025   4.759
 3744TIP3   OH211195   3.736   1.721   3.539
 3744TIP3    H111196   3.788   1.725   3.458
 3744TIP3    H211197   3.691   1.806   3.543
 3745TIP3   OH211198   0.456   4.414   2.052
 3745TIP3    H111199   0.523   4.404   2.120
 3745TIP3    H211200   0.376   4.380   2.092
 3746TIP3   OH211201   5.427   5.726   2.464
 3746TIP3    H111202   5.410   5.635   2.440
 3746TIP3    H211203   5.504   5.751   2.414
 3747TIP3   OH211204   4.137   2.800   2.227
 3747TIP3    H111205   4.132   2.791   2.132
 3747TIP3    H211206   4.176   2.718   2.257
 3748TIP3   OH211207   3.517   0.113   3.197
 3748TIP3    H111208   3.431   0.120   3.239
 3748TIP3    H211209   3.565   0.190   3.226
 3749TIP3   OH211210   3.119   4.424   0.054
 3749TIP3    H111211   3.053   4.473   0.005
 3749TIP3    H211212   3.133   4.344   0.003
 3750TIP3   OH211213   1.051   5.607   5.044
 3750TIP3    H111214   1.018   5.564   5.123
 3750TIP3    H211215   0.974   5.648   5.005
 3751TIP3   OH211216   2.499   5.926   0.127
 3751TIP3    H111217   2.492   5.832   0.115
 3751TIP3    H211218   2.562   5.937   0.198
 3752TIP3   OH211219   2.899   2.600   2.791
 3752TIP3    H111220   2.918   2.666   2.857
 3752TIP3    H211221   2.946   2.629   2.713
 3753TIP3   OH211222   3.326   2.362   0.084
 3753TIP3    H111223   3.242   2.401   0.104
 3753TIP3    H211224   3.305   2.280   0.039
 3754TIP3   OH211225   6.004   2.036   4.914
 3754TIP3    H111226   5.963   1.957   4.949
 3754TIP3    H211227   5.931   2.087   4.880
 3755TIP3   OH211228   4.537   0.158   4.725
 3755TIP3    H111229   4.626   0.146   4.694
 3755TIP3    H211230   4.482   0.138   4.649
 3756TIP3   OH211231   3.038   1.479   3.330
 3756TIP3    H111232   2.959   1.429   3.307
 3756TIP3    H211233   3.069   1.513   3.247
 3757TIP3   OH211234   7.038   0.330   1.165
 3757TIP3    H111235   7.126   0.323   1.202
 3757TIP3    H211236   7.045   0.402   1.102
 3758TIP3   OH211237   1.303   3.970   4.043
 3758TIP3    H111238   1.247   4.047   4.038
 3758TIP3    H211239   1.243   3.897   4.057
 3759TIP3   OH211240   5.178   5.376   2.694
 3759TIP3    H111241   5.258   5.408   2.652
 3759TIP3    H211242   5.200   5.373   2.787
 3760TIP3   OH211243   7.194   5.795   4.056
 3760TIP3    H111244   7.114   5.766   4.100
 3760TIP3    H211245   7.212   5.728   3.990
 3761TIP3   OH211246   5.680   6.626   5.033
 3761TIP3    H111247   5.672   6.658   4.943
 3761TIP3    H211248   5.722   6.697   5.080
 3762TIP3   OH211249   0.486   5.145   4.146
 3762TIP3    H111250   0.543   5.201   4.093
 3762TIP3    H211251   0.488   5.060   4.101
 3763TIP3   OH211252   0.585   3.292   4.896
 3763TIP3    H111253   0.677   3.266   4.887
 3763TIP3    H211254   0.588   3.371   4.950
 3764TIP3   OH211255   7.206   6.259   0.088
 3764TIP3    H111256   7.244   6.339   0.125
 3764TIP3    H211257   7.137   6.290   0.030
 3765TIP3   OH211258   3.347   3.001   5.757
 3765TIP3    H111259   3.328   2.914   5.791
 3765TIP3    H211260   3.426   3.028   5.803
 3766TIP3   OH211261   1.579   5.399   1.507
 3766TIP3    H111262   1.574   5.494   1.511
 3766TIP3    H211263   1.616   5.373   1.592
 3767TIP3   OH211264   0.696   1.297   4.433
 3767TIP3    H111265   0.658   1.218   4.472
 3767TIP3    H211266   0.788   1.275   4.419
 3768TIP3   OH211267   5.730   3.502   5.560
 3768TIP3    H111268   5.752   3.564   5.629
 3768TIP3    H211269   5.807   3.445   5.554
 3769TIP3   OH211270   2.221   2.689   0.919
 3769TIP3    H111271   2.294   2.749   0.933
 3769TIP3    H211272   2.220   2.633   0.997
 3770TIP3   OH211273   3.983   1.397   5.541
 3770TIP3    H111274   4.033   1.473   5.512
 3770TIP3    H211275   4.042   1.352   5.602
 3771TIP3   OH211276   2.501   3.373   1.182
 3771TIP3    H111277   2.415   3.414   1.188
 3771TIP3    H211278   2.517   3.337   1.269
 3772TIP3   OH211279   7.142   1.826   4.977
 3772TIP3    H111280   7.096   1.776   4.909
 3772TIP3    H211281   7.165   1.760   5.043
 3773TIP3   OH211282   4.257   4.511   1.268
 3773TIP3    H111283   4.346   4.506   1.303
 3773TIP3    H211284   4.260   4.463   1.186
 3774TIP3   OH211285   1.129   1.046   5.880
 3774TIP3    H111286   1.102   1.111   5.816
 3774TIP3    H211287   1.211   1.010   5.845
 3775TIP3   OH211288   3.259   3.687   1.273
 3775TIP3    H111289   3.333   3.685   1.334
 3775TIP3    H211290   3.291   3.642   1.195
 3776TIP3   OH211291   2.106   3.834   1.043
 3776TIP3    H111292   2.088   3.862   1.132
 3776TIP3    H211293   2.148   3.749   1.052
 3777TIP3   OH211294   2.993   2.140   1.810
 3777TIP3    H111295   2.974   2.072   1.875
 3777TIP3    H211296   3.006   2.220   1.861
 3778TIP3   OH211297   6.357   4.857   2.925
 3778TIP3    H111298   6.405   4.924   2.974
 3778TIP3    H211299   6.269   4.858   2.963
 3779TIP3   OH211300   3.372   0.911   2.851
 3779TIP3    H111301   3.330   0.997   2.847
 3779TIP3    H211302   3.444   0.917   2.788
 3780TIP3   OH211303   5.602   2.138   4.521
 3780TIP3    H111304   5.531   2.079   4.547
 3780TIP3    H211305   5.585   2.218   4.570
 3781TIP3   OH211306   0.116   0.015   1.203
 3781TIP3    H111307   0.200  -0.007   1.244
 3781TIP3    H211308   0.124  -0.018   1.113
 3782TIP3   OH211309   6.445   5.720   0.101
 3782TIP3    H111310   6.492   5.752   0.023
 3782TIP3    H211311   6.493   5.758   0.175
 3783TIP3   OH211312   6.887   0.581   4.109
 3783TIP3    H111313   6.927   0.657   4.151
 3783TIP3    H211314   6.798   0.609   4.090
 3784TIP3   OH211315   6.865   5.997   2.464
 3784TIP3    H111316   6.856   5.917   2.412
 3784TIP3    H211317   6.822   5.976   2.547
 3785TIP3   OH211318   5.020   5.554   0.757
 3785TIP3    H111319   4.988   5.504   0.683
 3785TIP3    H211320   5.109   5.522   0.771
 3786TIP3   OH211321   3.702   4.627   0.475
 3786TIP3    H111322   3.786   4.617   0.431
 3786TIP3    H211323   3.712   4.579   0.557
 3787TIP3   OH211324   4.988   5.588   5.344
 3787TIP3    H111325   5.039   5.507   5.354
 3787TIP3    H211326   5.006   5.637   5.424
 3788TIP3   OH211327   3.225   1.914   3.977
 3788TIP3    H111328   3.153   1.976   3.987
 3788TIP3    H211329   3.222   1.888   3.885
 3789TIP3   OH211330   4.520   0.379   1.455
 3789TIP3    H111331   4.563   0.299   1.484
 3789TIP3    H211332   4.437   0.350   1.418
 3790TIP3   OH211333   0.503   5.316   1.886
 3790TIP3    H111334   0.581   5.265   1.908
 3790TIP3    H211335   0.530   5.407   1.895
 3791TIP3   OH211336   3.829   6.297   4.759
 3791TIP3    H111337   3.751   6.335   4.718
 3791TIP3    H211338   3.819   6.203   4.749
 3792TIP3   OH211339   7.105   4.253   0.406
 3792TIP3    H111340   7.016   4.218   0.410
 3792TIP3    H211341   7.161   4.177   0.424
 3793TIP3   OH211342   4.663   0.786   3.083
 3793TIP3    H111343   4.578   0.773   3.125
 3793TIP3    H211344   4.701   0.698   3.077
 3794TIP3   OH211345   1.909   5.032   4.339
 3794TIP3    H111346   1.939   4.980   4.265
 3794TIP3    H211347   1.845   5.093   4.302
 3795TIP3   OH211348   6.004   0.603   5.235
 3795TIP3    H111349   6.067   0.547   5.280
 3795TIP3    H211350   6.022   0.691   5.269
 3796TIP3   OH211351   3.813   1.291   3.038
 3796TIP3    H111352   3.813   1.386   3.050
 3796TIP3    H211353   3.721   1.266   3.043
 3797TIP3   OH211354   5.190   1.320   2.580
 3797TIP3    H111355   5.217   1.290   2.666
 3797TIP3    H211356   5.094   1.322   2.584
 3798TIP3   OH211357   3.096   5.768   0.158
 3798TIP3    H111358   3.171   5.790   0.213
 3798TIP3    H211359   3.050   5.699   0.207
 3799TIP3   OH211360   1.374   1.242   3.222
 3799TIP3    H111361   1.297   1.189   3.242
 3799TIP3    H211362   1.355   1.328   3.259
 3800TIP3   OH211363   1.549   2.296   5.407
 3800TIP3    H111364   1.632   2.342   5.398
 3800TIP3    H211365   1.501   2.316   5.327
 3801TIP3   OH211366   4.679   3.163   0.882
 3801TIP3    H111367   4.641   3.076   0.892
 3801TIP3    H211368   4.610   3.214   0.838
 3802TIP3   OH211369   0.190   3.253   2.417
 3802TIP3    H111370   0.284   3.268   2.426
 3802TIP3    H211371   0.154   3.275   2.502
 3803TIP3   OH211372   3.379   5.772   1.241
 3803TIP3    H111373   3.439   5.810   1.177
 3803TIP3    H211374   3.409   5.682   1.251
 3804TIP3   OH211375   6.491   5.865   4.282
 3804TIP3    H111376   6.515   5.957   4.274
 3804TIP3    H211377   6.515   5.826   4.198
 3805TIP3   OH211378   4.070   3.962   1.404
 3805TIP3    H111379   4.048   4.049   1.369
 3805TIP3    H211380   4.133   3.981   1.474
 3806TIP3   OH211381   6.972   2.362   2.764
 3806TIP3    H111382   6.884   2.361   2.800
 3806TIP3    H211383   7.000   2.270   2.766
 3807TIP3   OH211384   1.271   3.574   3.938
 3807TIP3    H111385   1.226   3.655   3.961
 3807TIP3    H211386   1.364   3.596   3.945
 3808TIP3   OH211387   2.888   3.551   0.150
 3808TIP3    H111388   2.954   3.535   0.083
 3808TIP3    H211389   2.933   3.532   0.233
 3809TIP3   OH211390   6.801   4.450   1.504
 3809TIP3    H111391   6.837   4.411   1.583
 3809TIP3    H211392   6.773   4.375   1.451
 3810TIP3   OH211393   5.682   6.235   3.936
 3810TIP3    H111394   5.674   6.161   3.876
 3810TIP3    H211395   5.761   6.281   3.906
 3811TIP3   OH211396   1.344   5.039   3.156
 3811TIP3    H111397   1.416   5.057   3.095
 3811TIP3    H211398   1.325   4.946   3.142
 3812TIP3   OH211399   0.664   1.356   0.746
 3812TIP3    H111400   0.612   1.277   0.730
 3812TIP3    H211401   0.723   1.362   0.671
 3813TIP3   OH211402   4.064   1.748   5.086
 3813TIP3    H111403   4.140   1.727   5.140
 3813TIP3    H211404   4.047   1.667   5.037
 3814TIP3   OH211405   4.759   3.398  -0.002
 3814TIP3    H111406   4.682   3.455  -0.009
 3814TIP3    H211407   4.814   3.440   0.064
 3815TIP3   OH211408   4.835   0.306   3.663
 3815TIP3    H111409   4.859   0.224   3.621
 3815TIP3    H211410   4.917   0.357   3.663
 3816TIP3   OH211411   2.968   5.874   4.993
 3816TIP3    H111412   2.965   5.808   5.062
 3816TIP3    H211413   2.912   5.839   4.924
 3817TIP3   OH211414   1.202   3.012   5.504
 3817TIP3    H111415   1.205   3.105   5.481
 3817TIP3    H211416   1.143   3.007   5.579
 3818TIP3   OH211417   1.350   4.564   5.058
 3818TIP3    H111418   1.390   4.620   5.124
 3818TIP3    H211419   1.265   4.605   5.039
 3819TIP3   OH211420   3.335   6.616   2.499
 3819TIP3    H111421   3.342   6.689   2.438
 3819TIP3    H211422   3.323   6.657   2.584
 3820TIP3   OH211423   4.228   0.717   1.691
 3820TIP3    H111424   4.226   0.625   1.718
 3820TIP3    H211425   4.138   0.737   1.667
 3821TIP3   OH211426   6.999   5.123   4.935
 3821TIP3    H111427   6.947   5.105   5.013
 3821TIP3    H211428   6.993   5.217   4.923
 3822TIP3   OH211429   1.369   5.940   0.987
 3822TIP3    H111430   1.433   5.894   0.932
 3822TIP3    H211431   1.420   5.974   1.061
 3823TIP3   OH211432   4.441   5.321   5.221
 3823TIP3    H111433   4.384   5.398   5.211
 3823TIP3    H211434   4.469   5.301   5.132
 3824TIP3   OH211435   2.732   5.895   2.929
 3824TIP3    H111436   2.713   5.801   2.928
 3824TIP3    H211437   2.799   5.905   2.997
 3825TIP3   OH211438   4.927   2.685   4.366
 3825TIP3    H111439   4.957   2.620   4.302
 3825TIP3    H211440   4.955   2.769   4.331
 3826TIP3   OH211441   4.391   1.618   0.123
 3826TIP3    H111442   4.313   1.587   0.170
 3826TIP3    H211443   4.360   1.692   0.071
 3827TIP3   OH211444   4.383   5.521   1.795
 3827TIP3    H111445   4.337   5.538   1.877
 3827TIP3    H211446   4.340   5.444   1.758
 3828TIP3   OH211447   1.568   5.104   2.991
 3828TIP3    H111448   1.510   5.176   2.967
 3828TIP3    H211449   1.628   5.142   3.055
 3829TIP3   OH211450   3.224   5.591   3.974
 3829TIP3    H111451   3.301   5.626   3.931
 3829TIP3    H211452   3.169   5.559   3.902
 3830TIP3   OH211453   3.027   0.784   0.372
 3830TIP3    H111454   3.051   0.697   0.402
 3830TIP3    H211455   2.934   0.778   0.351
 3831TIP3   OH211456   2.717   4.159   0.417
 3831TIP3    H111457   2.662   4.236   0.402
 3831TIP3    H211458   2.661   4.099   0.467
 3832TIP3   OH211459   4.174   5.598   0.062
 3832TIP3    H111460   4.090   5.645   0.064
 3832TIP3    H211461   4.179   5.562  -0.027
 3833TIP3   OH211462   1.708   2.281   4.839
 3833TIP3    H111463   1.765   2.268   4.915
 3833TIP3    H211464   1.739   2.362   4.798
 3834TIP3   OH211465   3.344   4.808   0.738
 3834TIP3    H111466   3.298   4.882   0.777
 3834TIP3    H211467   3.282   4.735   0.746
 3835TIP3   OH211468   6.750   0.390   0.421
 3835TIP3    H111469   6.707   0.461   0.468
 3835TIP3    H211470   6.736   0.313   0.477
 3836TIP3   OH211471   6.515   6.076   4.778
 3836TIP3    H111472   6.459   6.066   4.702
 3836TIP3    H211473   6.603   6.088   4.742
 3837TIP3   OH211474   3.872   1.681   3.851
 3837TIP3    H111475   3.829   1.701   3.934
 3837TIP3    H211476   3.910   1.764   3.823
 3838TIP3   OH211477   2.822   5.928   4.612
 3838TIP3    H111478   2.752   5.919   4.677
 3838TIP3    H211479   2.834   6.023   4.602
 3839TIP3   OH211480   0.337   0.468   2.564
 3839TIP3    H111481   0.414   0.456   2.620
 3839TIP3    H211482   0.364   0.535   2.500
 3840TIP3   OH211483   5.001   6.695   0.473
 3840TIP3    H111484   4.974   6.686   0.381
 3840TIP3    H211485   4.995   6.606   0.508
 3841TIP3   OH211486   5.100   2.020   0.639
 3841TIP3    H111487   5.190   1.989   0.651
 3841TIP3    H211488   5.046   1.942   0.651
 3842TIP3   OH211489   3.510   1.879   2.272
 3842TIP3    H111490   3.534   1.834   2.192
 3842TIP3    H211491   3.573   1.950   2.280
 3843TIP3   OH211492   4.629   2.820   0.431
 3843TIP3    H111493   4.559   2.803   0.369
 3843TIP3    H211494   4.691   2.748   0.418
 3844TIP3   OH211495   3.516   1.118   5.599
 3844TIP3    H111496   3.610   1.122   5.612
 3844TIP3    H211497   3.484   1.203   5.629
 3845TIP3   OH211498   6.347   5.130   2.192
 3845TIP3    H111499   6.389   5.165   2.113
 3845TIP3    H211500   6.314   5.044   2.166
 3846TIP3   OH211501   5.675   3.314   5.173
 3846TIP3    H111502   5.590   3.306   5.216
 3846TIP3    H211503   5.732   3.255   5.221
 3847TIP3   OH211504   5.087   6.215   4.345
 3847TIP3    H111505   5.085   6.251   4.433
 3847TIP3    H211506   5.167   6.250   4.306
 3848TIP3   OH211507   3.386   0.985   1.501
 3848TIP3    H111508   3.402   0.898   1.539
 3848TIP3    H211509   3.472   1.026   1.500
 3849TIP3   OH211510   0.511   0.662   2.875
 3849TIP3    H111511   0.535   0.727   2.809
 3849TIP3    H211512   0.416   0.666   2.880
 3850TIP3   OH211513   5.544   6.753   1.149
 3850TIP3    H111514   5.530   6.827   1.208
 3850TIP3    H211515   5.631   6.720   1.171
 3851TIP3   OH211516   7.210   1.758   2.740
 3851TIP3    H111517   7.161   1.838   2.759
 3851TIP3    H211518   7.274   1.751   2.811
 3852TIP3   OH211519   0.355   5.347   2.707
 3852TIP3    H111520   0.341   5.437   2.677
 3852TIP3    H211521   0.269   5.320   2.740
 3853TIP3   OH211522   1.078   4.974   2.920
 3853TIP3    H111523   1.057   5.064   2.896
 3853TIP3    H211524   1.059   4.968   3.014
 3854TIP3   OH211525   6.067   1.029   2.449
 3854TIP3    H111526   6.106   0.963   2.507
 3854TIP3    H211527   6.141   1.072   2.408
 3855TIP3   OH211528   6.846   2.704   5.433
 3855TIP3    H111529   6.829   2.774   5.370
 3855TIP3    H211530   6.787   2.723   5.506
 3856TIP3   OH211531   1.441   2.572   3.289
 3856TIP3    H111532   1.468   2.663   3.303
 3856TIP3    H211533   1.488   2.545   3.210
 3857TIP3   OH211534   1.011   0.313   5.521
 3857TIP3    H111535   1.107   0.306   5.525
 3857TIP3    H211536   0.994   0.406   5.508
 3858TIP3   OH211537   2.331   1.094   2.270
 3858TIP3    H111538   2.415   1.113   2.229
 3858TIP3    H211539   2.329   1.150   2.347
 3859TIP3   OH211540   3.044   5.750   4.647
 3859TIP3    H111541   3.107   5.791   4.706
 3859TIP3    H211542   2.969   5.809   4.646
 3860TIP3   OH211543   4.546   0.446   0.360
 3860TIP3    H111544   4.502   0.462   0.276
 3860TIP3    H211545   4.552   0.351   0.366
 3861TIP3   OH211546   6.932   6.238   5.385
 3861TIP3    H111547   6.998   6.235   5.454
 3861TIP3    H211548   6.980   6.262   5.306
 3862TIP3   OH211549   1.373   1.860   5.165
 3862TIP3    H111550   1.439   1.849   5.234
 3862TIP3    H211551   1.381   1.952   5.138
 3863TIP3   OH211552   0.040   5.358   3.435
 3863TIP3    H111553  -0.044   5.390   3.401
 3863TIP3    H211554   0.105   5.397   3.376
 3864TIP3   OH211555   4.486   6.673   3.455
 3864TIP3    H111556   4.534   6.598   3.492
 3864TIP3    H211557   4.395   6.644   3.452
 3865TIP3   OH211558   2.604   5.295   2.353
 3865TIP3    H111559   2.647   5.277   2.270
 3865TIP3    H211560   2.569   5.384   2.343
 3866TIP3   OH211561   2.688   2.428   1.354
 3866TIP3    H111562   2.630   2.414   1.428
 3866TIP3    H211563   2.716   2.519   1.363
 3867TIP3   OH211564   5.973   1.930   5.374
 3867TIP3    H111565   5.910   1.857   5.374
 3867TIP3    H211566   6.002   1.936   5.465
 3868TIP3   OH211567   0.778   5.832   4.732
 3868TIP3    H111568   0.697   5.883   4.728
 3868TIP3    H211569   0.843   5.894   4.765
 3869TIP3   OH211570   4.717   6.540   0.290
 3869TIP3    H111571   4.716   6.539   0.386
 3869TIP3    H211572   4.632   6.577   0.266
 3870TIP3   OH211573   3.318   5.116   0.091
 3870TIP3    H111574   3.307   5.211   0.085
 3870TIP3    H211575   3.275   5.092   0.173
 3871TIP3   OH211576   4.010   3.790   5.519
 3871TIP3    H111577   4.054   3.852   5.578
 3871TIP3    H211578   4.035   3.704   5.551
 3872TIP3   OH211579   3.270   3.531   5.430
 3872TIP3    H111580   3.325   3.462   5.469
 3872TIP3    H211581   3.181   3.503   5.447
 3873TIP3   OH211582   5.290   2.687   2.515
 3873TIP3    H111583   5.276   2.652   2.427
 3873TIP3    H211584   5.218   2.650   2.566
 3874TIP3   OH211585   0.809   6.004   1.780
 3874TIP3    H111586   0.859   6.028   1.857
 3874TIP3    H211587   0.721   6.038   1.798
 3875TIP3   OH211588   1.952   2.599   2.527
 3875TIP3    H111589   1.917   2.515   2.498
 3875TIP3    H211590   2.034   2.577   2.572
 3876TIP3   OH211591   4.992   2.222   0.163
 3876TIP3    H111592   4.949   2.176   0.235
 3876TIP3    H211593   4.983   2.163   0.088
 3877TIP3   OH211594   1.041   4.889   1.586
 3877TIP3    H111595   1.038   4.802   1.626
 3877TIP3    H211596   1.000   4.877   1.500
 3878TIP3   OH211597   0.230   5.657   0.764
 3878TIP3    H111598   0.177   5.713   0.821
 3878TIP3    H211599   0.205   5.683   0.676
 3879TIP3   OH211600   1.481   4.525   3.669
 3879TIP3    H111601   1.523   4.456   3.720
 3879TIP3    H211602   1.406   4.551   3.721
 3880TIP3   OH211603   6.232   5.550   1.373
 3880TIP3    H111604   6.301   5.516   1.316
 3880TIP3    H211605   6.189   5.472   1.409
 3881TIP3   OH211606   5.367   0.351   0.226
 3881TIP3    H111607   5.303   0.420   0.244
 3881TIP3    H211608   5.342   0.317   0.139
 3882TIP3   OH211609   1.350   3.102   2.090
 3882TIP3    H111610   1.349   3.095   2.185
 3882TIP3    H211611   1.344   3.196   2.073
 3883TIP3   OH211612   0.611   2.390   2.847
 3883TIP3    H111613   0.548   2.338   2.797
 3883TIP3    H211614   0.563   2.468   2.873
 3884TIP3   OH211615   4.668   0.408   4.553
 3884TIP3    H111616   4.700   0.324   4.522
 3884TIP3    H211617   4.626   0.447   4.476
 3885TIP3   OH211618   5.885   1.146   0.760
 3885TIP3    H111619   5.866   1.212   0.693
 3885TIP3    H211620   5.962   1.179   0.805
 3886TIP3   OH211621   4.683   0.194   2.586
 3886TIP3    H111622   4.725   0.136   2.649
 3886TIP3    H211623   4.695   0.282   2.622
 3887TIP3   OH211624   3.851   1.857   2.082
 3887TIP3    H111625   3.887   1.906   2.156
 3887TIP3    H211626   3.904   1.777   2.078
 3888TIP3   OH211627   3.899   5.316   2.574
 3888TIP3    H111628   3.993   5.330   2.583
 3888TIP3    H211629   3.883   5.235   2.623
 3889TIP3   OH211630   1.927   5.133   3.889
 3889TIP3    H111631   1.942   5.081   3.968
 3889TIP3    H211632   2.014   5.141   3.849
 3890TIP3   OH211633   5.717   0.955   5.549
 3890TIP3    H111634   5.643   0.946   5.609
 3890TIP3    H211635   5.768   0.876   5.561
 3891TIP3   OH211636   3.823   5.817   0.673
 3891TIP3    H111637   3.831   5.905   0.637
 3891TIP3    H211638   3.861   5.823   0.760
 3892TIP3   OH211639   1.249   6.735   4.179
 3892TIP3    H111640   1.281   6.740   4.269
 3892TIP3    H211641   1.323   6.761   4.125
 3893TIP3   OH211642   0.286   4.862   3.477
 3893TIP3    H111643   0.238   4.900   3.551
 3893TIP3    H211644   0.218   4.824   3.422
 3894TIP3   OH211645   0.466   3.358   1.989
 3894TIP3    H111646   0.407   3.394   1.922
 3894TIP3    H211647   0.437   3.268   2.000
 3895TIP3   OH211648   3.377   5.734   5.206
 3895TIP3    H111649   3.294   5.691   5.184
 3895TIP3    H211650   3.422   5.745   5.122
 3896TIP3   OH211651   1.314   0.025   5.129
 3896TIP3    H111652   1.243  -0.039   5.126
 3896TIP3    H211653   1.285   0.096   5.072
 3897TIP3   OH211654   4.046   4.695   0.864
 3897TIP3    H111655   4.083   4.767   0.812
 3897TIP3    H211656   3.952   4.713   0.866
 3898TIP3   OH211657   4.328   3.581   3.369
 3898TIP3    H111658   4.359   3.650   3.428
 3898TIP3    H211659   4.242   3.610   3.341
 3899TIP3   OH211660   2.408   3.881   4.551
 3899TIP3    H111661   2.406   3.786   4.563
 3899TIP3    H211662   2.484   3.910   4.601
 3900TIP3   OH211663   2.661   4.957   0.661
 3900TIP3    H111664   2.619   5.026   0.609
 3900TIP3    H211665   2.724   5.003   0.715
 3901TIP3   OH211666   2.985   0.408   1.747
 3901TIP3    H111667   3.044   0.369   1.812
 3901TIP3    H211668   3.044   0.452   1.685
 3902TIP3   OH211669   1.266   6.389   3.742
 3902TIP3    H111670   1.184   6.346   3.720
 3902TIP3    H211671   1.287   6.358   3.830
 3903TIP3   OH211672   3.763   0.057   3.627
 3903TIP3    H111673   3.706   0.130   3.652
 3903TIP3    H211674   3.714  -0.022   3.649
 3904TIP3   OH211675   3.399   2.683   3.789
 3904TIP3    H111676   3.382   2.738   3.866
 3904TIP3    H211677   3.386   2.741   3.715
 3905TIP3   OH211678   7.187   6.036   4.446
 3905TIP3    H111679   7.266   6.052   4.393
 3905TIP3    H211680   7.196   6.097   4.520
 3906TIP3   OH211681   5.353   6.699   4.167
 3906TIP3    H111682   5.301   6.710   4.247
 3906TIP3    H211683   5.444   6.697   4.197
 3907TIP3   OH211684   2.507   5.274   0.290
 3907TIP3    H111685   2.510   5.247   0.198
 3907TIP3    H211686   2.435   5.337   0.294
 3908TIP3   OH211687   1.348   2.716   2.218
 3908TIP3    H111688   1.399   2.704   2.138
 3908TIP3    H211689   1.274   2.656   2.208
 3909TIP3   OH211690   0.420  -0.013   1.337
 3909TIP3    H111691   0.502   0.001   1.289
 3909TIP3    H211692   0.411   0.064   1.393
 3910TIP3   OH211693   6.633   3.319   0.269
 3910TIP3    H111694   6.593   3.266   0.201
 3910TIP3    H211695   6.718   3.279   0.286
 3911TIP3   OH211696   1.313   6.662   0.301
 3911TIP3    H111697   1.296   6.733   0.362
 3911TIP3    H211698   1.375   6.605   0.347
 3912TIP3   OH211699   2.440   1.508   3.105
 3912TIP3    H111700   2.347   1.486   3.108
 3912TIP3    H211701   2.475   1.457   3.031
 3913TIP3   OH211702   1.514   5.763   4.579
 3913TIP3    H111703   1.563   5.683   4.562
 3913TIP3    H211704   1.563   5.807   4.648
 3914TIP3   OH211705   1.555   6.394   0.763
 3914TIP3    H111706   1.497   6.329   0.801
 3914TIP3    H211707   1.642   6.353   0.765
 3915TIP3   OH211708   5.162   6.694   2.018
 3915TIP3    H111709   5.100   6.622   2.021
 3915TIP3    H211710   5.116   6.768   2.058
 3916TIP3   OH211711   1.750   3.042   4.901
 3916TIP3    H111712   1.710   2.956   4.889
 3916TIP3    H211713   1.843   3.027   4.888
 3917TIP3   OH211714   5.990   6.395   4.574
 3917TIP3    H111715   6.027   6.331   4.514
 3917TIP3    H211716   6.064   6.451   4.598
 3918TIP3   OH211717   1.030   4.560   0.484
 3918TIP3    H111718   0.984   4.566   0.401
 3918TIP3    H211719   0.963   4.576   0.550
 3919TIP3   OH211720   0.107   0.691   3.362
 3919TIP3    H111721   0.096   0.711   3.269
 3919TIP3    H211722   0.083   0.772   3.407
 3920TIP3   OH211723   3.073   6.232   1.357
 3920TIP3    H111724   3.157   6.191   1.379
 3920TIP3    H211725   3.050   6.283   1.435
 3921TIP3   OH211726   1.899   1.951   2.540
 3921TIP3    H111727   1.818   1.982   2.499
 3921TIP3    H211728   1.873   1.872   2.589
 3922TIP3   OH211729   0.941   4.308   0.755
 3922TIP3    H111730   0.846   4.324   0.757
 3922TIP3    H211731   0.951   4.238   0.691
 3923TIP3   OH211732   1.055   2.746   1.331
 3923TIP3    H111733   1.070   2.676   1.394
 3923TIP3    H211734   1.022   2.700   1.253
 3924TIP3   OH211735   6.176   4.717   5.130
 3924TIP3    H111736   6.270   4.696   5.123
 3924TIP3    H211737   6.160   4.777   5.056
 3925TIP3   OH211738   0.215   1.088   0.684
 3925TIP3    H111739   0.204   1.061   0.776
 3925TIP3    H211740   0.152   1.035   0.636
 3926TIP3   OH211741   0.899   3.930   1.548
 3926TIP3    H111742   0.890   3.840   1.579
 3926TIP3    H211743   0.984   3.932   1.504
 3927TIP3   OH211744   4.441   4.414   2.895
 3927TIP3    H111745   4.468   4.350   2.962
 3927TIP3    H211746   4.381   4.366   2.839
 3928TIP3   OH211747   7.088   5.871   2.975
 3928TIP3    H111748   7.162   5.863   2.914
 3928TIP3    H211749   7.012   5.887   2.918
 3929TIP3   OH211750   4.666   4.165   0.411
 3929TIP3    H111751   4.762   4.161   0.414
 3929TIP3    H211752   4.645   4.249   0.450
 3930TIP3   OH211753   5.853   1.265   3.239
 3930TIP3    H111754   5.888   1.348   3.207
 3930TIP3    H211755   5.791   1.238   3.170
 3931TIP3   OH211756   5.936   1.038   4.040
 3931TIP3    H111757   5.975   0.996   3.963
 3931TIP3    H211758   6.010   1.057   4.097
 3932TIP3   OH211759   6.046   1.066   3.552
 3932TIP3    H111760   6.097   1.082   3.473
 3932TIP3    H211761   6.020   1.153   3.582
 3933TIP3   OH211762   2.259   6.480   3.874
 3933TIP3    H111763   2.168   6.455   3.861
 3933TIP3    H211764   2.296   6.409   3.927
 3934TIP3   OH211765   3.484   4.710   3.718
 3934TIP3    H111766   3.446   4.757   3.643
 3934TIP3    H211767   3.409   4.670   3.762
 3935TIP3   OH211768   0.752   0.740   3.276
 3935TIP3    H111769   0.846   0.748   3.292
 3935TIP3    H211770   0.746   0.699   3.189
 3936TIP3   OH211771   3.618   3.206   3.073
 3936TIP3    H111772   3.653   3.166   3.152
 3936TIP3    H211773   3.534   3.244   3.100
 3937TIP3   OH211774   0.575   6.374   2.864
 3937TIP3    H111775   0.509   6.424   2.913
 3937TIP3    H211776   0.550   6.283   2.876
 3938TIP3   OH211777   4.194   3.842   4.436
 3938TIP3    H111778   4.152   3.759   4.462
 3938TIP3    H211779   4.212   3.831   4.342
 3939TIP3   OH211780   0.461   6.751   3.017
 3939TIP3    H111781   0.419   6.783   3.097
 3939TIP3    H211782   0.548   6.723   3.045
 3940TIP3   OH211783   1.930   3.905   4.463
 3940TIP3    H111784   1.965   3.842   4.526
 3940TIP3    H211785   2.005   3.958   4.437
 3941TIP3   OH211786   2.545   0.273   1.347
 3941TIP3    H111787   2.533   0.365   1.324
 3941TIP3    H211788   2.529   0.269   1.441
 3942TIP3   OH211789   7.004   0.246   3.744
 3942TIP3    H111790   6.932   0.184   3.740
 3942TIP3    H211791   6.963   0.329   3.767
 3943TIP3   OH211792   4.624   5.197   4.463
 3943TIP3    H111793   4.712   5.234   4.457
 3943TIP3    H211794   4.614   5.172   4.554
 3944TIP3   OH211795   5.860   6.153   0.574
 3944TIP3    H111796   5.928   6.220   0.567
 3944TIP3    H211797   5.902   6.072   0.544
 3945TIP3   OH211798   1.458   4.297   1.387
 3945TIP3    H111799   1.449   4.321   1.294
 3945TIP3    H211800   1.407   4.363   1.434
 3946TIP3   OH211801   1.583   5.978   1.494
 3946TIP3    H111802   1.673   5.980   1.526
 3946TIP3    H211803   1.530   5.986   1.573
 3947TIP3   OH211804   2.258   1.242   2.678
 3947TIP3    H111805   2.219   1.300   2.744
 3947TIP3    H211806   2.327   1.195   2.725
 3948TIP3   OH211807   1.582   0.566   3.300
 3948TIP3    H111808   1.575   0.658   3.276
 3948TIP3    H211809   1.673   0.543   3.281
 3949TIP3   OH211810   6.737   4.858   1.966
 3949TIP3    H111811   6.662   4.887   1.915
 3949TIP3    H211812   6.788   4.803   1.906
 3950TIP3   OH211813   6.674   6.402   0.511
 3950TIP3    H111814   6.718   6.375   0.592
 3950TIP3    H211815   6.597   6.346   0.506
 3951TIP3   OH211816   1.243   2.161   0.490
 3951TIP3    H111817   1.201   2.136   0.572
 3951TIP3    H211818   1.319   2.103   0.483
 3952TIP3   OH211819   5.401   6.108   3.767
 3952TIP3    H111820   5.495   6.103   3.787
 3952TIP3    H211821   5.374   6.017   3.753
 3953TIP3   OH211822   0.762   3.284   1.470
 3953TIP3    H111823   0.846   3.241   1.461
 3953TIP3    H211824   0.783   3.375   1.491
 3954TIP3   OH211825   3.930   0.841   4.264
 3954TIP3    H111826   4.010   0.890   4.246
 3954TIP3    H211827   3.876   0.851   4.186
 3955TIP3   OH211828   4.689   4.594   1.877
 3955TIP3    H111829   4.657   4.555   1.958
 3955TIP3    H211830   4.620   4.578   1.813
 3956TIP3   OH211831   0.845   6.386   4.633
 3956TIP3    H111832   0.815   6.454   4.693
 3956TIP3    H211833   0.871   6.433   4.554
 3957TIP3   OH211834   4.807   6.001   1.011
 3957TIP3    H111835   4.729   5.953   1.041
 3957TIP3    H211836   4.842   5.948   0.940
 3958TIP3   OH211837   2.318   3.596   0.134
 3958TIP3    H111838   2.305   3.546   0.214
 3958TIP3    H211839   2.386   3.660   0.156
 3959TIP3   OH211840   1.541   6.446   5.331
 3959TIP3    H111841   1.477   6.512   5.304
 3959TIP3    H211842   1.488   6.375   5.367
 3960TIP3   OH211843   4.943   5.518   2.729
 3960TIP3    H111844   4.999   5.441   2.722
 3960TIP3    H211845   4.878   5.506   2.660
 3961TIP3   OH211846   0.041   2.152   1.912
 3961TIP3    H111847  -0.011   2.072   1.922
 3961TIP3    H211848   0.126   2.121   1.881
 3962TIP3   OH211849   3.696   1.135   3.482
 3962TIP3    H111850   3.770   1.170   3.432
 3962TIP3    H211851   3.736   1.096   3.560
 3963TIP3   OH211852   3.061   4.336   5.891
 3963TIP3    H111853   3.009   4.310   5.966
 3963TIP3    H211854   3.141   4.373   5.928
 3964TIP3   OH211855   3.838   0.292   5.336
 3964TIP3    H111856   3.784   0.341   5.399
 3964TIP3    H211857   3.801   0.204   5.337
 3965TIP3   OH211858   6.400   4.598   5.839
 3965TIP3    H111859   6.448   4.541   5.780
 3965TIP3    H211860   6.347   4.539   5.892
 3966TIP3   OH211861   6.023   5.835   3.905
 3966TIP3    H111862   6.061   5.756   3.868
 3966TIP3    H211863   5.940   5.847   3.858
 3967TIP3   OH211864   6.458   6.505   3.455
 3967TIP3    H111865   6.421   6.586   3.419
 3967TIP3    H211866   6.384   6.445   3.459
 3968TIP3   OH211867   0.621   3.200   1.050
 3968TIP3    H111868   0.572   3.125   1.018
 3968TIP3    H211869   0.575   3.276   1.013
 3969TIP3   OH211870   4.924   5.990   5.433
 3969TIP3    H111871   4.993   6.052   5.455
 3969TIP3    H211872   4.956   5.905   5.465
 3970TIP3   OH211873   2.674   3.019   1.058
 3970TIP3    H111874   2.698   2.988   0.971
 3970TIP3    H211875   2.635   3.105   1.043
 3971TIP3   OH211876   6.474   0.498   5.697
 3971TIP3    H111877   6.406   0.565   5.688
 3971TIP3    H211878   6.517   0.519   5.780
 3972TIP3   OH211879   4.077   4.546   0.623
 3972TIP3    H111880   4.083   4.629   0.670
 3972TIP3    H211881   4.099   4.568   0.532
 3973TIP3   OH211882   0.070   0.605   0.338
 3973TIP3    H111883  -0.010   0.565   0.305
 3973TIP3    H211884   0.088   0.677   0.277
 3974TIP3   OH211885   4.111   6.470   5.635
 3974TIP3    H111886   4.095   6.383   5.598
 3974TIP3    H211887   4.206   6.475   5.642
 3975TIP3   OH211888   4.515   2.338   3.573
 3975TIP3    H111889   4.431   2.340   3.527
 3975TIP3    H211890   4.519   2.251   3.612
 3976TIP3   OH211891   1.148   6.597   5.753
 3976TIP3    H111892   1.070   6.574   5.702
 3976TIP3    H211893   1.128   6.684   5.788
 3977TIP3   OH211894   3.888   5.182   4.371
 3977TIP3    H111895   3.925   5.168   4.284
 3977TIP3    H211896   3.843   5.267   4.365
 3978TIP3   OH211897   0.676   1.448   5.413
 3978TIP3    H111898   0.751   1.490   5.370
 3978TIP3    H211899   0.616   1.427   5.341
 3979TIP3   OH211900   3.971   5.560   0.659
 3979TIP3    H111901   3.910   5.491   0.636
 3979TIP3    H211902   3.921   5.641   0.650
 3980TIP3   OH211903   1.368   5.508   5.291
 3980TIP3    H111904   1.388   5.526   5.383
 3980TIP3    H211905   1.449   5.471   5.256
 3981TIP3   OH211906   2.399   2.416   1.143
 3981TIP3    H111907   2.422   2.394   1.053
 3981TIP3    H211908   2.326   2.357   1.164
 3982TIP3   OH211909   7.049   5.234   3.173
 3982TIP3    H111910   7.017   5.192   3.093
 3982TIP3    H211911   7.144   5.225   3.169
 3983TIP3   OH211912   3.284   0.896   4.366
 3983TIP3    H111913   3.267   0.826   4.429
 3983TIP3    H211914   3.209   0.895   4.307
 3984TIP3   OH211915   3.140   3.092   1.899
 3984TIP3    H111916   3.053   3.127   1.881
 3984TIP3    H211917   3.145   3.086   1.995
 3985TIP3   OH211918   4.330   4.173   5.476
 3985TIP3    H111919   4.243   4.136   5.488
 3985TIP3    H211920   4.318   4.267   5.487
 3986TIP3   OH211921   6.867   5.638   1.175
 3986TIP3    H111922   6.832   5.718   1.135
 3986TIP3    H211923   6.819   5.567   1.132
 3987TIP3   OH211924   2.505   6.565   3.619
 3987TIP3    H111925   2.540   6.618   3.690
 3987TIP3    H211926   2.438   6.510   3.660
 3988TIP3   OH211927   3.839   3.746   3.959
 3988TIP3    H111928   3.747   3.745   3.985
 3988TIP3    H211929   3.852   3.661   3.917
 3989TIP3   OH211930   3.066   6.742   2.415
 3989TIP3    H111931   3.154   6.762   2.383
 3989TIP3    H211932   3.012   6.817   2.389
 3990TIP3   OH211933   0.891   2.261   4.026
 3990TIP3    H111934   0.882   2.352   4.053
 3990TIP3    H211935   0.856   2.210   4.099
 3991TIP3   OH211936   0.348   6.646   3.913
 3991TIP3    H111937   0.382   6.566   3.872
 3991TIP3    H211938   0.253   6.636   3.908
 3992TIP3   OH211939   2.568   1.662   4.771
 3992TIP3    H111940   2.487   1.644   4.818
 3992TIP3    H211941   2.593   1.749   4.800
 3993TIP3   OH211942   1.076   4.628   2.419
 3993TIP3    H111943   1.164   4.591   2.406
 3993TIP3    H211944   1.025   4.594   2.346
 3994TIP3   OH211945   5.560   1.555   4.169
 3994TIP3    H111946   5.654   1.541   4.181
 3994TIP3    H211947   5.518   1.488   4.223
 3995TIP3   OH211948   1.480   5.374   4.895
 3995TIP3    H111949   1.400   5.407   4.935
 3995TIP3    H211950   1.465   5.280   4.885
 3996TIP3   OH211951   6.696   4.721   4.050
 3996TIP3    H111952   6.770   4.761   4.096
 3996TIP3    H211953   6.636   4.694   4.119
 3997TIP3   OH211954   5.545   0.694   0.405
 3997TIP3    H111955   5.639   0.710   0.394
 3997TIP3    H211956   5.520   0.751   0.477
 3998TIP3   OH211957   0.299   5.277   2.119
 3998TIP3    H111958   0.279   5.184   2.113
 3998TIP3    H211959   0.378   5.288   2.067
 3999TIP3   OH211960   5.615   3.228   2.295
 3999TIP3    H111961   5.694   3.224   2.349
 3999TIP3    H211962   5.598   3.136   2.272
 4000TIP3   OH211963   6.918   2.762   2.861
 4000TIP3    H111964   6.884   2.677   2.832
 4000TIP3    H211965   7.009   2.745   2.884
 4001TIP3   OH211966   6.626   5.486   5.842
 4001TIP3    H111967   6.616   5.532   5.759
 4001TIP3    H211968   6.669   5.550   5.899
 4002TIP3   OH211969   0.137   5.766   0.319
 4002TIP3    H111970   0.089   5.811   0.250
 4002TIP3    H211971   0.104   5.677   0.318
 4003TIP3   OH211972   6.751   3.790   0.847
 4003TIP3    H111973   6.832   3.840   0.855
 4003TIP3    H211974   6.690   3.834   0.905
 4004TIP3   OH211975   2.202   2.197   4.954
 4004TIP3    H111976   2.256   2.255   5.008
 4004TIP3    H211977   2.199   2.115   5.003
 4005TIP3   OH211978   1.535   2.179   2.696
 4005TIP3    H111979   1.552   2.272   2.683
 4005TIP3    H211980   1.622   2.138   2.694
 4006TIP3   OH211981   4.102   3.551   4.375
 4006TIP3    H111982   4.152   3.539   4.456
 4006TIP3    H211983   4.014   3.518   4.397
 4007TIP3   OH211984   6.925   1.561   2.976
 4007TIP3    H111985   6.888   1.598   3.056
 4007TIP3    H211986   7.004   1.515   3.004
 4008TIP3   OH211987   4.113   4.754   1.955
 4008TIP3    H111988   4.033   4.725   1.912
 4008TIP3    H211989   4.125   4.694   2.028
 4009TIP3   OH211990   3.997   4.939   2.563
 4009TIP3    H111991   3.945   4.879   2.509
 4009TIP3    H211992   3.944   4.952   2.642
 4010TIP3   OH211993   2.280   4.895   3.663
 4010TIP3    H111994   2.212   4.957   3.637
 4010TIP3    H211995   2.360   4.928   3.622
 4011TIP3   OH211996   1.608   0.326   5.665
 4011TIP3    H111997   1.546   0.397   5.682
 4011TIP3    H211998   1.553   0.248   5.658
 4012TIP3   OH211999   0.102   5.372   0.432
 4012TIP3    H112000   0.046   5.299   0.409
 4012TIP3    H212001   0.083   5.439   0.366
 4013TIP3   OH212002   7.032   3.906   2.608
 4013TIP3    H112003   7.057   3.836   2.668
 4013TIP3    H212004   6.939   3.920   2.626
 4014TIP3   OH212005   2.267   1.098   1.174
 4014TIP3    H112006   2.268   1.081   1.268
 4014TIP3    H212007   2.211   1.029   1.138
 4015TIP3   OH212008   2.631   0.908   3.846
 4015TIP3    H112009   2.660   0.958   3.922
 4015TIP3    H212010   2.705   0.853   3.823
 4016TIP3   OH212011   2.742   6.554   2.520
 4016TIP3    H112012   2.713   6.536   2.431
 4016TIP3    H212013   2.663   6.543   2.574
 4017TIP3   OH212014   5.521   5.415   4.060
 4017TIP3    H112015   5.603   5.418   4.110
 4017TIP3    H212016   5.514   5.502   4.021
 4018TIP3   OH212017   6.281   2.101   0.728
 4018TIP3    H112018   6.258   2.158   0.801
 4018TIP3    H212019   6.331   2.156   0.668
 4019TIP3   OH212020   4.951   2.991   5.695
 4019TIP3    H112021   4.966   3.084   5.709
 4019TIP3    H212022   5.012   2.947   5.754
 4020TIP3   OH212023   2.638   1.458   0.533
 4020TIP3    H112024   2.572   1.426   0.471
 4020TIP3    H212025   2.712   1.399   0.522
 4021TIP3   OH212026   5.553   4.008   3.666
 4021TIP3    H112027   5.582   4.041   3.581
 4021TIP3    H212028   5.593   4.068   3.730
 4022TIP3   OH212029   5.010   3.816   4.321
 4022TIP3    H112030   4.935   3.875   4.326
 4022TIP3    H212031   4.991   3.747   4.384
 4023TIP3   OH212032   3.301   5.002   4.674
 4023TIP3    H112033   3.393   5.028   4.667
 4023TIP3    H212034   3.303   4.908   4.691
 4024TIP3   OH212035   4.076   3.671   5.822
 4024TIP3    H112036   4.051   3.618   5.746
 4024TIP3    H212037   4.023   3.637   5.894
 4025TIP3   OH212038   1.538   5.354   0.446
 4025TIP3    H112039   1.606   5.314   0.501
 4025TIP3    H212040   1.462   5.297   0.457
 4026TIP3   OH212041   3.544   3.544   2.569
 4026TIP3    H112042   3.628   3.538   2.523
 4026TIP3    H212043   3.499   3.462   2.548
 4027TIP3   OH212044   3.664   2.989   0.530
 4027TIP3    H112045   3.592   3.011   0.470
 4027TIP3    H212046   3.697   2.905   0.498
 4028TIP3   OH212047   1.959   6.604   2.057
 4028TIP3    H112048   2.002   6.534   2.107
 4028TIP3    H212049   1.869   6.606   2.090
 4029TIP3   OH212050   0.408   1.843   2.137
 4029TIP3    H112051   0.372   1.921   2.178
 4029TIP3    H212052   0.430   1.870   2.048
 4030TIP3   OH212053   2.444   1.697   4.532
 4030TIP3    H112054   2.491   1.650   4.601
 4030TIP3    H212055   2.447   1.789   4.559
 4031TIP3   OH212056   4.824   1.131   4.993
 4031TIP3    H112057   4.859   1.073   5.061
 4031TIP3    H212058   4.850   1.090   4.910
 4032TIP3   OH212059   0.326   2.679   5.358
 4032TIP3    H112060   0.357   2.694   5.447
 4032TIP3    H212061   0.233   2.700   5.360
 4033TIP3   OH212062   1.348   4.740   1.033
 4033TIP3    H112063   1.294   4.670   0.996
 4033TIP3    H212064   1.380   4.704   1.116
 4034TIP3   OH212065   3.358   2.384   3.892
 4034TIP3    H112066   3.334   2.467   3.852
 4034TIP3    H212067   3.279   2.357   3.940
 4035TIP3   OH212068   6.440   5.476   2.323
 4035TIP3    H112069   6.467   5.567   2.312
 4035TIP3    H212070   6.345   5.481   2.340
 4036TIP3   OH212071   4.502   0.031   0.025
 4036TIP3    H112072   4.558   0.024   0.102
 4036TIP3    H212073   4.429   0.087   0.053
 4037TIP3   OH212074   1.265   5.631   4.571
 4037TIP3    H112075   1.355   5.661   4.584
 4037TIP3    H212076   1.252   5.635   4.477
 4038TIP3   OH212077   4.061   3.016   5.397
 4038TIP3    H112078   3.990   3.076   5.418
 4038TIP3    H212079   4.137   3.051   5.444
 4039TIP3   OH212080   4.777   0.041   5.137
 4039TIP3    H112081   4.690   0.040   5.177
 4039TIP3    H212082   4.774   0.116   5.077
 4040TIP3   OH212083   3.304   0.715   3.476
 4040TIP3    H112084   3.257   0.793   3.505
 4040TIP3    H212085   3.235   0.649   3.463
 4041TIP3   OH212086   0.327   1.928   2.645
 4041TIP3    H112087   0.291   1.900   2.729
 4041TIP3    H212088   0.273   2.003   2.619
 4042TIP3   OH212089   4.818   2.489   4.068
 4042TIP3    H112090   4.756   2.557   4.094
 4042TIP3    H212091   4.764   2.419   4.031
 4043TIP3   OH212092   3.699   6.150   2.099
 4043TIP3    H112093   3.606   6.169   2.086
 4043TIP3    H212094   3.717   6.079   2.038
 4044TIP3   OH212095   6.191   0.174   2.389
 4044TIP3    H112096   6.156   0.118   2.320
 4044TIP3    H212097   6.284   0.154   2.392
 4045TIP3   OH212098   6.171   1.280   4.364
 4045TIP3    H112099   6.184   1.295   4.458
 4045TIP3    H212100   6.244   1.223   4.339
 4046TIP3   OH212101   6.609   6.193   1.181
 4046TIP3    H112102   6.516   6.190   1.156
 4046TIP3    H212103   6.633   6.285   1.176
 4047TIP3   OH212104   0.130   1.070   2.593
 4047TIP3    H112105   0.119   1.125   2.516
 4047TIP3    H212106   0.225   1.066   2.606
 4048TIP3   OH212107   2.494   2.633   3.566
 4048TIP3    H112108   2.430   2.667   3.628
 4048TIP3    H212109   2.445   2.623   3.484
 4049TIP3   OH212110   6.294   4.052   1.073
 4049TIP3    H112111   6.209   4.009   1.061
 4049TIP3    H212112   6.322   4.024   1.161
 4050TIP3   OH212113   5.298   5.323   4.814
 4050TIP3    H112114   5.327   5.398   4.867
 4050TIP3    H212115   5.235   5.361   4.753
 4051TIP3   OH212116   2.624   6.300   3.161
 4051TIP3    H112117   2.572   6.360   3.213
 4051TIP3    H212118   2.602   6.321   3.070
 4052TIP3   OH212119   2.433   5.714   2.103
 4052TIP3    H112120   2.405   5.785   2.162
 4052TIP3    H212121   2.352   5.679   2.067
 4053TIP3   OH212122   5.881   3.939   0.122
 4053TIP3    H112123   5.864   3.845   0.111
 4053TIP3    H212124   5.816   3.968   0.186
 4054TIP3   OH212125   2.983   6.090   5.720
 4054TIP3    H112126   3.065   6.100   5.670
 4054TIP3    H212127   3.002   6.128   5.805
 4055TIP3   OH212128   2.062   2.313   2.851
 4055TIP3    H112129   2.028   2.322   2.762
 4055TIP3    H212130   2.015   2.239   2.888
 4056TIP3   OH212131   6.405   0.941   1.361
 4056TIP3    H112132   6.431   1.019   1.313
 4056TIP3    H212133   6.394   0.873   1.294
 4057TIP3   OH212134   6.845   2.515   5.211
 4057TIP3    H112135   6.762   2.551   5.180
 4057TIP3    H212136   6.863   2.563   5.292
 4058TIP3   OH212137   0.878   4.230   4.163
 4058TIP3    H112138   0.799   4.223   4.216
 4058TIP3    H212139   0.916   4.315   4.187
 4059TIP3   OH212140   2.098   0.594   5.122
 4059TIP3    H112141   2.122   0.686   5.112
 4059TIP3    H212142   2.157   0.561   5.189
 4060TIP3   OH212143   2.226   0.495   0.667
 4060TIP3    H112144   2.320   0.482   0.677
 4060TIP3    H212145   2.191   0.487   0.756
 4061TIP3   OH212146   0.902   0.837   2.620
 4061TIP3    H112147   0.937   0.906   2.676
 4061TIP3    H212148   0.947   0.848   2.537
 4062TIP3   OH212149   6.835   3.088   3.624
 4062TIP3    H112150   6.810   3.014   3.569
 4062TIP3    H212151   6.754   3.139   3.634
 4063TIP3   OH212152   5.545   4.118   3.249
 4063TIP3    H112153   5.546   4.133   3.154
 4063TIP3    H212154   5.492   4.190   3.283
 4064TIP3   OH212155   3.753   2.580   5.233
 4064TIP3    H112156   3.822   2.645   5.241
 4064TIP3    H212157   3.680   2.617   5.283
 4065TIP3   OH212158   6.954   2.205   0.184
 4065TIP3    H112159   6.987   2.187   0.096
 4065TIP3    H212160   7.032   2.205   0.240
 4066TIP3   OH212161   7.020   5.191   1.109
 4066TIP3    H112162   6.974   5.128   1.053
 4066TIP3    H212163   6.951   5.232   1.161
 4067TIP3   OH212164  -0.035   5.550   5.413
 4067TIP3    H112165   0.046   5.499   5.410
 4067TIP3    H212166  -0.009   5.638   5.385
 4068TIP3   OH212167   2.225   4.534   0.175
 4068TIP3    H112168   2.220   4.567   0.264
 4068TIP3    H212169   2.254   4.443   0.184
 4069TIP3   OH212170   5.066   3.797   2.420
 4069TIP3    H112171   4.978   3.780   2.386
 4069TIP3    H212172   5.064   3.889   2.445
 4070TIP3   OH212173   2.327   0.774   3.008
 4070TIP3    H112174   2.416   0.783   3.044
 4070TIP3    H212175   2.271   0.769   3.085
 4071TIP3   OH212176   5.980   3.678   0.187
 4071TIP3    H112177   6.016   3.748   0.241
 4071TIP3    H212178   5.931   3.623   0.248
 4072TIP3   OH212179   2.758   3.445   2.801
 4072TIP3    H112180   2.749   3.354   2.827
 4072TIP3    H212181   2.703   3.454   2.724
 4073TIP3   OH212182   6.847   0.088   4.026
 4073TIP3    H112183   6.805   0.021   3.972
 4073TIP3    H212184   6.778   0.153   4.041
 4074TIP3   OH212185   3.406   4.004   0.492
 4074TIP3    H112186   3.473   3.945   0.457
 4074TIP3    H212187   3.323   3.961   0.467
 4075TIP3   OH212188   3.457   5.335   5.748
 4075TIP3    H112189   3.455   5.430   5.759
 4075TIP3    H212190   3.536   5.319   5.696
 4076TIP3   OH212191   6.678   2.484   2.533
 4076TIP3    H112192   6.620   2.412   2.508
 4076TIP3    H212193   6.655   2.555   2.473
 4077TIP3   OH212194   2.609   3.690   2.453
 4077TIP3    H112195   2.522   3.728   2.438
 4077TIP3    H212196   2.592   3.613   2.507
 4078TIP3   OH212197   6.638   0.117   5.013
 4078TIP3    H112198   6.634   0.021   5.014
 4078TIP3    H212199   6.704   0.137   4.947
 4079TIP3   OH212200   3.793   0.163   1.110
 4079TIP3    H112201   3.848   0.241   1.115
 4079TIP3    H212202   3.705   0.194   1.133
 4080TIP3   OH212203   6.959   2.523   5.822
 4080TIP3    H112204   6.938   2.599   5.766
 4080TIP3    H212205   7.040   2.488   5.786
 4081TIP3   OH212206   5.506   2.571   2.031
 4081TIP3    H112207   5.565   2.647   2.028
 4081TIP3    H212208   5.562   2.497   2.011
 4082TIP3   OH212209   2.482   2.522   0.027
 4082TIP3    H112210   2.468   2.453   0.092
 4082TIP3    H212211   2.461   2.603   0.073
 4083TIP3   OH212212   5.951   3.106   2.257
 4083TIP3    H112213   6.045   3.093   2.246
 4083TIP3    H212214   5.925   3.158   2.181
 4084TIP3   OH212215   2.133   6.767   4.365
 4084TIP3    H112216   2.085   6.822   4.426
 4084TIP3    H212217   2.200   6.725   4.417
 4085TIP3   OH212218   4.597   1.913   0.543
 4085TIP3    H112219   4.533   1.912   0.614
 4085TIP3    H212220   4.677   1.947   0.582
 4086TIP3   OH212221   6.762   5.174   1.280
 4086TIP3    H112222   6.819   5.140   1.349
 4086TIP3    H212223   6.674   5.168   1.317
 4087TIP3   OH212224   5.432   2.228   2.110
 4087TIP3    H112225   5.432   2.138   2.078
 4087TIP3    H212226   5.463   2.280   2.036
 4088TIP3   OH212227   0.101   5.563   1.756
 4088TIP3    H112228   0.140   5.496   1.701
 4088TIP3    H212229   0.029   5.599   1.703
 4089TIP3   OH212230   6.066   5.143   1.730
 4089TIP3    H112231   5.981   5.110   1.761
 4089TIP3    H212232   6.061   5.237   1.742
 4090TIP3   OH212233   0.552   2.904   4.141
 4090TIP3    H112234   0.639   2.896   4.179
 4090TIP3    H212235   0.521   2.814   4.131
 4091TIP3   OH212236   0.703   1.098   0.346
 4091TIP3    H112237   0.683   1.011   0.379
 4091TIP3    H212238   0.619   1.143   0.346
 4092TIP3   OH212239   2.634   3.650   4.270
 4092TIP3    H112240   2.725   3.625   4.255
 4092TIP3    H212241   2.611   3.608   4.353
 4093TIP3   OH212242   6.026   5.358   1.441
 4093TIP3    H112243   6.028   5.364   1.536
 4093TIP3    H212244   5.935   5.339   1.420
 4094TIP3   OH212245   6.444   1.838   3.853
 4094TIP3    H112246   6.438   1.933   3.846
 4094TIP3    H212247   6.475   1.810   3.767
 4095TIP3   OH212248   5.315   2.454   3.204
 4095TIP3    H112249   5.378   2.416   3.266
 4095TIP3    H212250   5.338   2.416   3.120
 4096TIP3   OH212251   6.241   3.293   4.012
 4096TIP3    H112252   6.326   3.256   4.033
 4096TIP3    H212253   6.178   3.226   4.038
 4097TIP3   OH212254   3.761   2.807   2.555
 4097TIP3    H112255   3.808   2.859   2.490
 4097TIP3    H212256   3.684   2.774   2.508
 4098TIP3   OH212257   4.172   0.515   4.122
 4098TIP3    H112258   4.160   0.461   4.044
 4098TIP3    H212259   4.255   0.561   4.106
 4099TIP3   OH212260   0.101   0.812   0.164
 4099TIP3    H112261   0.075   0.898   0.198
 4099TIP3    H212262   0.193   0.822   0.142
 4100TIP3   OH212263   4.783   1.819   3.374
 4100TIP3    H112264   4.828   1.863   3.303
 4100TIP3    H212265   4.698   1.862   3.380
 4101TIP3   OH212266   3.120   0.082   1.400
 4101TIP3    H112267   3.160   0.167   1.421
 4101TIP3    H212268   3.106   0.040   1.485
 4102TIP3   OH212269   1.678   4.004   3.092
 4102TIP3    H112270   1.760   3.984   3.046
 4102TIP3    H212271   1.670   3.934   3.157
 4103TIP3   OH212272   4.964   3.798   1.388
 4103TIP3    H112273   5.028   3.793   1.459
 4103TIP3    H212274   4.894   3.737   1.414
 4104TIP3   OH212275   4.857   3.277   4.910
 4104TIP3    H112276   4.798   3.292   4.836
 4104TIP3    H212277   4.858   3.182   4.922
 4105TIP3   OH212278   5.241   5.648   3.262
 4105TIP3    H112279   5.281   5.659   3.348
 4105TIP3    H212280   5.313   5.617   3.207
 4106TIP3   OH212281   2.835   1.858   4.752
 4106TIP3    H112282   2.896   1.931   4.762
 4106TIP3    H212283   2.881   1.797   4.694
 4107TIP3   OH212284   5.291   3.696   1.278
 4107TIP3    H112285   5.307   3.615   1.228
 4107TIP3    H212286   5.270   3.666   1.366
 4108TIP3   OH212287   0.733   2.899   3.801
 4108TIP3    H112288   0.733   2.875   3.894
 4108TIP3    H212289   0.804   2.848   3.763
 4109TIP3   OH212290   5.204   5.406   3.037
 4109TIP3    H112291   5.188   5.334   3.098
 4109TIP3    H212292   5.151   5.478   3.071
 4110TIP3   OH212293   5.370   1.973   5.160
 4110TIP3    H112294   5.305   1.907   5.139
 4110TIP3    H212295   5.453   1.934   5.134
 4111TIP3   OH212296   4.083   6.329   3.334
 4111TIP3    H112297   4.006   6.337   3.279
 4111TIP3    H212298   4.150   6.381   3.290
 4112TIP3   OH212299   5.157   6.392   2.681
 4112TIP3    H112300   5.139   6.486   2.681
 4112TIP3    H212301   5.203   6.377   2.764
 4113TIP3   OH212302   1.594   4.789   1.752
 4113TIP3    H112303   1.647   4.711   1.768
 4113TIP3    H212304   1.651   4.846   1.701
 4114TIP3   OH212305   2.587   0.592   1.094
 4114TIP3    H112306   2.655   0.659   1.101
 4114TIP3    H212307   2.612   0.540   1.017
 4115TIP3   OH212308   1.979   3.638   3.854
 4115TIP3    H112309   2.048   3.589   3.898
 4115TIP3    H212310   2.010   3.728   3.854
 4116TIP3   OH212311   7.105   4.626   3.108
 4116TIP3    H112312   7.016   4.592   3.100
 4116TIP3    H212313   7.095   4.708   3.158
 4117TIP3   OH212314   4.290   1.959   0.295
 4117TIP3    H112315   4.245   1.898   0.237
 4117TIP3    H212316   4.370   1.983   0.247
 4118TIP3   OH212317   6.435   3.102   4.873
 4118TIP3    H112318   6.523   3.135   4.892
 4118TIP3    H212319   6.397   3.085   4.959
 4119TIP3   OH212320   6.006   6.270   3.138
 4119TIP3    H112321   6.056   6.325   3.078
 4119TIP3    H212322   5.928   6.244   3.088
 4120TIP3   OH212323   5.247   1.249   4.597
 4120TIP3    H112324   5.259   1.172   4.540
 4120TIP3    H212325   5.154   1.271   4.588
 4121TIP3   OH212326   6.463   1.340   2.247
 4121TIP3    H112327   6.415   1.374   2.322
 4121TIP3    H212328   6.538   1.398   2.238
 4122TIP3   OH212329   2.369   2.382   5.059
 4122TIP3    H112330   2.414   2.467   5.060
 4122TIP3    H212331   2.347   2.366   5.151
 4123TIP3   OH212332   5.748   6.042   3.053
 4123TIP3    H112333   5.715   6.120   3.009
 4123TIP3    H212334   5.673   6.010   3.104
 4124TIP3   OH212335   5.265   3.926   2.637
 4124TIP3    H112336   5.317   3.949   2.714
 4124TIP3    H212337   5.320   3.951   2.563
 4125TIP3   OH212338   1.098   1.918   0.127
 4125TIP3    H112339   1.179   1.963   0.104
 4125TIP3    H212340   1.059   1.895   0.042
 4126TIP3   OH212341   1.860   6.285   3.098
 4126TIP3    H112342   1.863   6.372   3.137
 4126TIP3    H212343   1.833   6.301   3.007
 4127TIP3   OH212344   1.430   0.790   2.265
 4127TIP3    H112345   1.502   0.794   2.202
 4127TIP3    H212346   1.462   0.838   2.341
 4128TIP3   OH212347   2.873   4.426   2.298
 4128TIP3    H112348   2.855   4.514   2.265
 4128TIP3    H212349   2.787   4.391   2.321
 4129TIP3   OH212350   3.650   5.076   5.345
 4129TIP3    H112351   3.575   5.054   5.290
 4129TIP3    H212352   3.714   5.008   5.326
 4130TIP3   OH212353   2.070   5.266   3.391
 4130TIP3    H112354   2.052   5.286   3.299
 4130TIP3    H212355   2.138   5.329   3.417
 4131TIP3   OH212356   6.758   4.364   0.222
 4131TIP3    H112357   6.755   4.455   0.251
 4131TIP3    H212358   6.667   4.344   0.199
 4132TIP3   OH212359   6.065   5.785   5.158
 4132TIP3    H112360   6.132   5.716   5.158
 4132TIP3    H212361   6.102   5.855   5.105
 4133TIP3   OH212362   2.827   6.607   5.240
 4133TIP3    H112363   2.733   6.623   5.243
 4133TIP3    H212364   2.844   6.552   5.316
 4134TIP3   OH212365   0.457   0.062   0.614
 4134TIP3    H112366   0.476   0.155   0.624
 4134TIP3    H212367   0.375   0.049   0.661
 4135TIP3   OH212368   5.893   0.236   1.025
 4135TIP3    H112369   5.956   0.193   0.967
 4135TIP3    H212370   5.821   0.173   1.033
 4136TIP3   OH212371   2.248   1.962   4.417
 4136TIP3    H112372   2.260   2.057   4.428
 4136TIP3    H212373   2.168   1.942   4.466
 4137TIP3   OH212374   7.209   4.127   3.953
 4137TIP3    H112375   7.302   4.142   3.936
 4137TIP3    H212376   7.170   4.122   3.865
 4138TIP3   OH212377   0.563   3.245   3.772
 4138TIP3    H112378   0.595   3.335   3.783
 4138TIP3    H212379   0.520   3.224   3.855
 4139TIP3   OH212380   4.199   2.377   1.630
 4139TIP3    H112381   4.211   2.329   1.711
 4139TIP3    H212382   4.223   2.467   1.651
 4140TIP3   OH212383   4.298   0.915   2.586
 4140TIP3    H112384   4.330   0.837   2.630
 4140TIP3    H212385   4.376   0.959   2.553
 4141TIP3   OH212386   1.617   2.129   3.249
 4141TIP3    H112387   1.662   2.191   3.307
 4141TIP3    H212388   1.687   2.072   3.216
 4142TIP3   OH212389   6.491   5.649   1.210
 4142TIP3    H112390   6.479   5.740   1.183
 4142TIP3    H212391   6.565   5.651   1.270
 4143TIP3   OH212392   4.546   4.247   1.627
 4143TIP3    H112393   4.561   4.217   1.537
 4143TIP3    H212394   4.634   4.250   1.666
 4144TIP3   OH212395   4.844   6.293   4.096
 4144TIP3    H112396   4.817   6.203   4.112
 4144TIP3    H212397   4.938   6.294   4.116
 4145TIP3   OH212398   0.413   6.607   0.452
 4145TIP3    H112399   0.375   6.520   0.468
 4145TIP3    H212400   0.340   6.659   0.417
 4146TIP3   OH212401   2.907   1.597   0.170
 4146TIP3    H112402   2.818   1.609   0.202
 4146TIP3    H212403   2.957   1.570   0.247
 4147TIP3   OH212404   6.290   4.440   3.144
 4147TIP3    H112405   6.247   4.384   3.209
 4147TIP3    H212406   6.233   4.436   3.068
 4148TIP3   OH212407   0.528   3.101   0.791
 4148TIP3    H112408   0.483   3.170   0.742
 4148TIP3    H212409   0.480   3.021   0.769
 4149TIP3   OH212410   6.439   1.562   1.545
 4149TIP3    H112411   6.469   1.566   1.636
 4149TIP3    H212412   6.388   1.482   1.540
 4150TIP3   OH212413   0.794   0.323   3.981
 4150TIP3    H112414   0.830   0.387   3.919
 4150TIP3    H212415   0.744   0.263   3.926
 4151TIP3   OH212416   0.602   5.676   2.207
 4151TIP3    H112417   0.577   5.651   2.296
 4151TIP3    H212418   0.521   5.711   2.169
 4152TIP3   OH212419   1.667   6.009   5.340
 4152TIP3    H112420   1.700   6.039   5.256
 4152TIP3    H212421   1.628   5.923   5.321
 4153TIP3   OH212422   2.264   4.740   2.310
 4153TIP3    H112423   2.170   4.749   2.293
 4153TIP3    H212424   2.275   4.764   2.402
 4154TIP3   OH212425   3.827   2.947   1.947
 4154TIP3    H112426   3.869   2.862   1.938
 4154TIP3    H212427   3.787   2.945   2.034
 4155TIP3   OH212428   1.036   5.991   4.821
 4155TIP3    H112429   1.057   6.022   4.909
 4155TIP3    H212430   1.113   5.940   4.794
 4156TIP3   OH212431   6.729   2.925   0.694
 4156TIP3    H112432   6.766   3.013   0.683
 4156TIP3    H212433   6.784   2.870   0.637
 4157TIP3   OH212434   0.865   3.802   2.286
 4157TIP3    H112435   0.892   3.887   2.251
 4157TIP3    H212436   0.863   3.815   2.380
 4158TIP3   OH212437   4.306   0.502   0.491
 4158TIP3    H112438   4.243   0.433   0.471
 4158TIP3    H212439   4.382   0.481   0.438
 4159TIP3   OH212440   4.710   2.190   3.197
 4159TIP3    H112441   4.728   2.252   3.267
 4159TIP3    H212442   4.652   2.125   3.237
 4160TIP3   OH212443   4.335   6.131   5.681
 4160TIP3    H112444   4.317   6.039   5.704
 4160TIP3    H212445   4.366   6.127   5.591
 4161TIP3   OH212446   4.809   5.771   3.335
 4161TIP3    H112447   4.852   5.829   3.397
 4161TIP3    H212448   4.743   5.826   3.293
 4162TIP3   OH212449   4.429   6.204   0.236
 4162TIP3    H112450   4.377   6.281   0.258
 4162TIP3    H212451   4.367   6.132   0.238
 4163TIP3   OH212452   4.984   2.008   4.933
 4163TIP3    H112453   4.901   1.960   4.933
 4163TIP3    H212454   5.014   2.003   5.024
 4164TIP3   OH212455   2.633   5.614   0.472
 4164TIP3    H112456   2.553   5.611   0.419
 4164TIP3    H212457   2.692   5.552   0.430
 4165TIP3   OH212458   2.485   5.649   0.043
 4165TIP3    H112459   2.430   5.617   0.115
 4165TIP3    H212460   2.572   5.614   0.061
 4166TIP3   OH212461   1.960   5.731   1.027
 4166TIP3    H112462   1.889   5.747   0.964
 4166TIP3    H212463   1.992   5.644   1.005
 4167TIP3   OH212464   1.660   5.603   4.919
 4167TIP3    H112465   1.658   5.618   5.013
 4167TIP3    H212466   1.599   5.531   4.904
 4168TIP3   OH212467   1.104   2.967   2.866
 4168TIP3    H112468   1.043   2.944   2.797
 4168TIP3    H212469   1.184   2.917   2.846
 4169TIP3   OH212470   1.126   2.621   2.546
 4169TIP3    H112471   1.180   2.546   2.522
 4169TIP3    H212472   1.107   2.609   2.639
 4170TIP3   OH212473   4.948   2.589   3.001
 4170TIP3    H112474   4.869   2.641   3.019
 4170TIP3    H212475   4.915   2.510   2.959
 4171TIP3   OH212476   6.671   0.723   2.908
 4171TIP3    H112477   6.686   0.778   2.831
 4171TIP3    H212478   6.632   0.643   2.873
 4172TIP3   OH212479   2.250   4.864   5.619
 4172TIP3    H112480   2.224   4.949   5.585
 4172TIP3    H212481   2.168   4.814   5.624
 4173TIP3   OH212482   3.980   1.693   1.140
 4173TIP3    H112483   4.032   1.627   1.185
 4173TIP3    H212484   3.983   1.770   1.197
 4174TIP3   OH212485   1.528   5.506   2.753
 4174TIP3    H112486   1.619   5.501   2.723
 4174TIP3    H212487   1.487   5.426   2.719
 4175TIP3   OH212488   1.188   3.063   4.669
 4175TIP3    H112489   1.222   3.075   4.758
 4175TIP3    H212490   1.251   3.109   4.613
 4176TIP3   OH212491   6.193   2.718   2.682
 4176TIP3    H112492   6.229   2.721   2.771
 4176TIP3    H212493   6.262   2.677   2.631
 4177TIP3   OH212494   3.103   0.957   0.887
 4177TIP3    H112495   3.160   1.000   0.824
 4177TIP3    H212496   3.113   0.863   0.868
 4178TIP3   OH212497   5.568   6.564   1.954
 4178TIP3    H112498   5.606   6.588   2.039
 4178TIP3    H212499   5.513   6.488   1.973
 4179TIP3   OH212500   6.413   0.396   3.683
 4179TIP3    H112501   6.350   0.362   3.620
 4179TIP3    H212502   6.370   0.386   3.768
 4180TIP3   OH212503   1.822   6.732   1.285
 4180TIP3    H112504   1.780   6.671   1.224
 4180TIP3    H212505   1.867   6.676   1.348
 4181TIP3   OH212506   2.577   5.151   5.084
 4181TIP3    H112507   2.564   5.134   4.990
 4181TIP3    H212508   2.492   5.183   5.114
 4182TIP3   OH212509   1.493   5.842   0.757
 4182TIP3    H112510   1.458   5.754   0.749
 4182TIP3    H212511   1.452   5.891   0.685
 4183TIP3   OH212512   2.756   0.156   5.233
 4183TIP3    H112513   2.681   0.165   5.292
 4183TIP3    H212514   2.722   0.106   5.158
 4184TIP3   OH212515   4.510   4.691   0.568
 4184TIP3    H112516   4.545   4.746   0.638
 4184TIP3    H212517   4.459   4.624   0.614
 4185TIP3   OH212518   5.157   4.531   3.779
 4185TIP3    H112519   5.063   4.533   3.762
 4185TIP3    H212520   5.165   4.559   3.871
 4186TIP3   OH212521   4.893   6.645   5.123
 4186TIP3    H112522   4.814   6.596   5.147
 4186TIP3    H212523   4.913   6.698   5.201
 4187TIP3   OH212524   3.230   2.238   1.328
 4187TIP3    H112525   3.314   2.204   1.356
 4187TIP3    H212526   3.182   2.161   1.297
 4188TIP3   OH212527   0.234   0.544   3.808
 4188TIP3    H112528   0.186   0.496   3.741
 4188TIP3    H212529   0.324   0.546   3.777
 4189TIP3   OH212530   5.664   4.090   2.375
 4189TIP3    H112531   5.667   4.153   2.447
 4189TIP3    H212532   5.652   4.144   2.297
 4190TIP3   OH212533   3.423   0.192   1.535
 4190TIP3    H112534   3.349   0.244   1.504
 4190TIP3    H212535   3.438   0.127   1.467
 4191TIP3   OH212536   5.562   5.066   1.575
 4191TIP3    H112537   5.552   5.082   1.669
 4191TIP3    H212538   5.567   4.971   1.567
 4192TIP3   OH212539   0.398   5.488   0.433
 4192TIP3    H112540   0.310   5.450   0.429
 4192TIP3    H212541   0.430   5.467   0.521
 4193TIP3   OH212542   3.008   1.741   4.565
 4193TIP3    H112543   3.033   1.648   4.569
 4193TIP3    H212544   3.091   1.788   4.565
 4194TIP3   OH212545   4.062   3.786   5.254
 4194TIP3    H112546   3.980   3.810   5.211
 4194TIP3    H212547   4.059   3.831   5.338
 4195TIP3   OH212548   0.996   3.491   3.694
 4195TIP3    H112549   1.059   3.419   3.694
 4195TIP3    H212550   1.049   3.570   3.686
 4196TIP3   OH212551   2.679   2.444   1.813
 4196TIP3    H112552   2.680   2.496   1.893
 4196TIP3    H212553   2.605   2.385   1.823
 4197TIP3   OH212554   6.058   3.546   3.363
 4197TIP3    H112555   5.989   3.526   3.426
 4197TIP3    H212556   6.027   3.624   3.317
 4198TIP3   OH212557   3.642   3.109   1.265
 4198TIP3    H112558   3.626   3.164   1.341
 4198TIP3    H212559   3.657   3.022   1.302
 4199TIP3   OH212560   6.661   1.975   1.028
 4199TIP3    H112561   6.586   2.022   0.990
 4199TIP3    H212562   6.656   1.887   0.990
 4200TIP3   OH212563   4.910   5.744   0.058
 4200TIP3    H112564   4.996   5.769   0.024
 4200TIP3    H212565   4.850   5.808   0.021
 4201TIP3   OH212566   6.361   0.061   4.686
 4201TIP3    H112567   6.279   0.022   4.656
 4201TIP3    H212568   6.428   0.000   4.656
 4202TIP3   OH212569   1.423   5.344   2.977
 4202TIP3    H112570   1.441   5.428   2.934
 4202TIP3    H212571   1.385   5.368   3.062
 4203TIP3   OH212572   5.301   3.689   5.219
 4203TIP3    H112573   5.295   3.609   5.166
 4203TIP3    H212574   5.246   3.671   5.295
 4204TIP3   OH212575   0.434   1.064   4.077
 4204TIP3    H112576   0.479   1.036   3.997
 4204TIP3    H212577   0.416   1.157   4.063
 4205TIP3   OH212578   5.991   4.473   2.494
 4205TIP3    H112579   6.086   4.483   2.499
 4205TIP3    H212580   5.975   4.436   2.406
 4206TIP3   OH212581   0.276   5.498   3.660
 4206TIP3    H112582   0.309   5.450   3.584
 4206TIP3    H212583   0.346   5.560   3.681
 4207TIP3   OH212584   6.235   6.570   3.947
 4207TIP3    H112585   6.317   6.597   3.988
 4207TIP3    H212586   6.203   6.649   3.902
 4208TIP3   OH212587   5.626   4.155   2.059
 4208TIP3    H112588   5.625   4.135   1.965
 4208TIP3    H212589   5.715   4.135   2.087
 4209TIP3   OH212590   2.496   3.715   0.505
 4209TIP3    H112591   2.425   3.671   0.459
 4209TIP3    H212592   2.461   3.801   0.527
 4210TIP3   OH212593   2.527   0.724   4.649
 4210TIP3    H112594   2.600   0.700   4.706
 4210TIP3    H212595   2.449   0.701   4.699
 4211TIP3   OH212596   2.080   0.800   3.559
 4211TIP3    H112597   2.116   0.791   3.647
 4211TIP3    H212598   1.993   0.759   3.564
 4212TIP3   OH212599   0.377   1.645   2.420
 4212TIP3    H112600   0.327   1.613   2.345
 4212TIP3    H212601   0.322   1.712   2.460
 4213TIP3   OH212602   4.219   3.237   3.605
 4213TIP3    H112603   4.225   3.173   3.676
 4213TIP3    H212604   4.161   3.197   3.541
 4214TIP3   OH212605   5.939   1.016   5.159
 4214TIP3    H112606   5.989   0.983   5.234
 4214TIP3    H212607   6.004   1.058   5.103
 4215TIP3   OH212608   6.815   4.876   1.224
 4215TIP3    H112609   6.820   4.791   1.267
 4215TIP3    H212610   6.906   4.897   1.203
 4216TIP3   OH212611   2.852   0.821   2.047
 4216TIP3    H112612   2.877   0.910   2.071
 4216TIP3    H212613   2.871   0.768   2.124
 4217TIP3   OH212614   4.549   4.133   4.377
 4217TIP3    H112615   4.553   4.180   4.461
 4217TIP3    H212616   4.456   4.134   4.354
 4218TIP3   OH212617   1.916   6.648   0.567
 4218TIP3    H112618   1.837   6.633   0.514
 4218TIP3    H212619   1.907   6.587   0.640
 4219TIP3   OH212620   2.542   4.277   4.453
 4219TIP3    H112621   2.577   4.188   4.450
 4219TIP3    H212622   2.606   4.325   4.507
 4220TIP3   OH212623   5.292   4.727   1.708
 4220TIP3    H112624   5.232   4.654   1.696
 4220TIP3    H212625   5.315   4.755   1.619
 4221TIP3   OH212626   3.621   5.326   3.310
 4221TIP3    H112627   3.669   5.255   3.354
 4221TIP3    H212628   3.685   5.365   3.250
 4222TIP3   OH212629   3.940   5.076   2.321
 4222TIP3    H112630   3.997   5.072   2.398
 4222TIP3    H212631   3.882   5.150   2.338
 4223TIP3   OH212632   3.476   1.084   5.273
 4223TIP3    H112633   3.414   1.018   5.241
 4223TIP3    H212634   3.492   1.060   5.364
 4224TIP3   OH212635   0.131   0.333   2.981
 4224TIP3    H112636   0.062   0.397   2.997
 4224TIP3    H212637   0.093   0.271   2.918
 4225TIP3   OH212638   3.030   0.904   4.231
 4225TIP3    H112639   2.945   0.876   4.265
 4225TIP3    H212640   3.009   0.974   4.170
 4226TIP3   OH212641   3.893   2.753   4.889
 4226TIP3    H112642   3.979   2.786   4.863
 4226TIP3    H212643   3.910   2.667   4.926
 4227TIP3   OH212644   1.574   1.929   1.205
 4227TIP3    H112645   1.483   1.951   1.182
 4227TIP3    H212646   1.591   1.982   1.283
 4228TIP3   OH212647   6.293   2.832   3.140
 4228TIP3    H112648   6.275   2.879   3.222
 4228TIP3    H212649   6.365   2.773   3.163
 4229TIP3   OH212650   4.075   0.487   5.698
 4229TIP3    H112651   3.988   0.489   5.657
 4229TIP3    H212652   4.131   0.442   5.636
 4230TIP3   OH212653   2.643   0.857   5.078
 4230TIP3    H112654   2.723   0.857   5.025
 4230TIP3    H212655   2.603   0.942   5.060
 4231TIP3   OH212656   4.323   2.016   1.086
 4231TIP3    H112657   4.321   2.079   1.014
 4231TIP3    H212658   4.405   2.033   1.132
 4232TIP3   OH212659   7.162   6.673   0.035
 4232TIP3    H112660   7.086   6.616   0.023
 4232TIP3    H212661   7.141   6.725   0.113
 4233TIP3   OH212662   6.959   5.194   5.440
 4233TIP3    H112663   6.973   5.240   5.358
 4233TIP3    H212664   6.902   5.121   5.417
 4234TIP3   OH212665   0.605   0.082   2.162
 4234TIP3    H112666   0.643   0.006   2.206
 4234TIP3    H212667   0.674   0.113   2.104
 4235TIP3   OH212668   0.834   1.580   5.056
 4235TIP3    H112669   0.788   1.497   5.043
 4235TIP3    H212670   0.849   1.614   4.968
 4236TIP3   OH212671   6.505   0.983   5.635
 4236TIP3    H112672   6.588   0.979   5.589
 4236TIP3    H212673   6.523   0.943   5.720
 4237TIP3   OH212674   1.564   3.611   5.562
 4237TIP3    H112675   1.638   3.583   5.507
 4237TIP3    H212676   1.490   3.559   5.531
 4238TIP3   OH212677   1.991   3.577   0.852
 4238TIP3    H112678   2.059   3.543   0.794
 4238TIP3    H212679   2.035   3.588   0.937
 4239TIP3   OH212680   3.494   3.667   5.657
 4239TIP3    H112681   3.447   3.653   5.575
 4239TIP3    H212682   3.531   3.755   5.649
 4240TIP3   OH212683   0.205   2.375   1.894
 4240TIP3    H112684   0.175   2.463   1.871
 4240TIP3    H212685   0.129   2.319   1.877
 4241TIP3   OH212686   4.832   6.191   5.183
 4241TIP3    H112687   4.886   6.164   5.257
 4241TIP3    H212688   4.820   6.111   5.132
 4242TIP3   OH212689   4.766   3.898   1.872
 4242TIP3    H112690   4.735   3.979   1.911
 4242TIP3    H212691   4.698   3.834   1.891
 4243TIP3   OH212692   0.839   6.038   5.563
 4243TIP3    H112693   0.907   6.102   5.540
 4243TIP3    H212694   0.880   5.984   5.630
 4244TIP3   OH212695   5.356   1.674   2.178
 4244TIP3    H112696   5.388   1.587   2.154
 4244TIP3    H212697   5.264   1.673   2.153
 4245TIP3   OH212698   5.664   4.581   0.620
 4245TIP3    H112699   5.704   4.588   0.707
 4245TIP3    H212700   5.620   4.496   0.621
 4246TIP3   OH212701   4.550   0.943   2.108
 4246TIP3    H112702   4.602   0.997   2.049
 4246TIP3    H212703   4.509   0.878   2.051
 4247TIP3   OH212704   1.508   1.235   1.996
 4247TIP3    H112705   1.509   1.182   2.076
 4247TIP3    H212706   1.417   1.264   1.988
 4248TIP3   OH212707   5.040   3.764   3.741
 4248TIP3    H112708   5.092   3.705   3.796
 4248TIP3    H212709   4.961   3.781   3.792
 4249TIP3   OH212710   0.837   4.972   4.328
 4249TIP3    H112711   0.788   4.902   4.370
 4249TIP3    H212712   0.901   4.927   4.273
 4250TIP3   OH212713   5.520   4.035   0.710
 4250TIP3    H112714   5.605   4.058   0.673
 4250TIP3    H212715   5.526   4.060   0.802
 4251TIP3   OH212716   1.408   4.953   2.574
 4251TIP3    H112717   1.362   4.896   2.636
 4251TIP3    H212718   1.454   5.016   2.630
 4252TIP3   OH212719   2.404   0.360   0.442
 4252TIP3    H112720   2.345   0.355   0.517
 4252TIP3    H212721   2.490   0.378   0.480
 4253TIP3   OH212722   1.752   4.667   0.696
 4253TIP3    H112723   1.710   4.743   0.735
 4253TIP3    H212724   1.680   4.611   0.668
 4254TIP3   OH212725   6.864   6.175   1.390
 4254TIP3    H112726   6.878   6.257   1.437
 4254TIP3    H212727   6.885   6.195   1.299
 4255TIP3   OH212728   0.416   2.038   4.315
 4255TIP3    H112729   0.405   2.070   4.225
 4255TIP3    H212730   0.409   2.116   4.369
 4256TIP3   OH212731   1.462   5.628   0.062
 4256TIP3    H112732   1.504   5.662   0.141
 4256TIP3    H212733   1.369   5.624   0.084
 4257TIP3   OH212734   2.059   5.218   0.191
 4257TIP3    H112735   1.975   5.249   0.158
 4257TIP3    H212736   2.069   5.130   0.155
 4258TIP3   OH212737   2.275   6.503   4.739
 4258TIP3    H112738   2.303   6.483   4.829
 4258TIP3    H212739   2.232   6.422   4.710
 4259TIP3   OH212740   6.685   6.568   0.286
 4259TIP3    H112741   6.704   6.522   0.368
 4259TIP3    H212742   6.592   6.552   0.270
 4260TIP3   OH212743   3.103   6.610   4.580
 4260TIP3    H112744   3.106   6.706   4.577
 4260TIP3    H212745   3.072   6.590   4.669
 4261TIP3   OH212746   5.371   3.000   4.390
 4261TIP3    H112747   5.395   2.981   4.481
 4261TIP3    H212748   5.452   3.029   4.349
 4262TIP3   OH212749   5.957   2.308   1.080
 4262TIP3    H112750   6.029   2.327   1.140
 4262TIP3    H212751   5.969   2.368   1.007
 4263TIP3   OH212752   0.423   5.067   2.799
 4263TIP3    H112753   0.363   5.116   2.743
 4263TIP3    H212754   0.387   4.978   2.801
 4264TIP3   OH212755   5.578   3.336   5.442
 4264TIP3    H112756   5.622   3.417   5.468
 4264TIP3    H212757   5.606   3.271   5.506
 4265TIP3   OH212758   6.540   4.566   2.686
 4265TIP3    H112759   6.559   4.493   2.744
 4265TIP3    H212760   6.447   4.585   2.701
 4266TIP3   OH212761   5.164   2.956   3.965
 4266TIP3    H112762   5.095   3.021   3.979
 4266TIP3    H212763   5.205   2.981   3.882
 4267TIP3   OH212764   5.931   4.628   3.032
 4267TIP3    H112765   5.871   4.702   3.042
 4267TIP3    H212766   6.014   4.659   3.067
 4268TIP3   OH212767   4.043   2.208   1.105
 4268TIP3    H112768   4.019   2.300   1.116
 4268TIP3    H212769   4.125   2.211   1.055
 4269TIP3   OH212770   0.094   1.561   4.193
 4269TIP3    H112771   0.013   1.602   4.225
 4269TIP3    H212772   0.072   1.468   4.185
 4270TIP3   OH212773   5.192   4.029   0.265
 4270TIP3    H112774   5.256   4.099   0.279
 4270TIP3    H212775   5.165   4.003   0.352
 4271TIP3   OH212776   1.105   6.317   4.785
 4271TIP3    H112777   1.081   6.277   4.869
 4271TIP3    H212778   1.021   6.337   4.743
 4272TIP3   OH212779   2.935   0.068   1.167
 4272TIP3    H112780   2.922  -0.024   1.146
 4272TIP3    H212781   2.981   0.067   1.251
 4273TIP3   OH212782   0.136   3.038   3.836
 4273TIP3    H112783   0.227   3.043   3.864
 4273TIP3    H212784   0.138   3.062   3.743
 4274TIP3   OH212785   0.201   0.154   3.371
 4274TIP3    H112786   0.139   0.094   3.330
 4274TIP3    H212787   0.153   0.237   3.377
 4275TIP3   OH212788   4.451   2.274   2.283
 4275TIP3    H112789   4.431   2.360   2.246
 4275TIP3    H212790   4.510   2.293   2.357
 4276TIP3   OH212791   2.872   1.167   0.241
 4276TIP3    H112792   2.922   1.118   0.306
 4276TIP3    H212793   2.934   1.233   0.209
 4277TIP3   OH212794   6.867   5.375   0.873
 4277TIP3    H112795   6.832   5.303   0.821
 4277TIP3    H212796   6.810   5.379   0.950
 4278TIP3   OH212797   2.844   5.336   0.618
 4278TIP3    H112798   2.898   5.413   0.598
 4278TIP3    H212799   2.808   5.310   0.533
 4279TIP3   OH212800   3.122   4.819   3.456
 4279TIP3    H112801   3.108   4.907   3.491
 4279TIP3    H212802   3.217   4.811   3.447
 4280TIP3   OH212803   0.921   4.413   2.253
 4280TIP3    H112804   0.948   4.329   2.291
 4280TIP3    H212805   0.881   4.389   2.169
 4281TIP3   OH212806   1.678   2.166   4.394
 4281TIP3    H112807   1.719   2.096   4.344
 4281TIP3    H212808   1.736   2.180   4.469
 4282TIP3   OH212809   1.113   2.106   4.077
 4282TIP3    H112810   1.038   2.166   4.068
 4282TIP3    H212811   1.138   2.087   3.987
 4283TIP3   OH212812   5.183   6.157   3.972
 4283TIP3    H112813   5.188   6.224   4.040
 4283TIP3    H212814   5.193   6.205   3.890
 4284TIP3   OH212815   1.244   4.653   1.981
 4284TIP3    H112816   1.322   4.614   2.021
 4284TIP3    H212817   1.260   4.647   1.887
 4285TIP3   OH212818   1.872   0.298   3.743
 4285TIP3    H112819   1.843   0.389   3.752
 4285TIP3    H212820   1.904   0.274   3.830
 4286TIP3   OH212821   5.761   5.240   1.389
 4286TIP3    H112822   5.712   5.211   1.466
 4286TIP3    H212823   5.698   5.289   1.337
 4287TIP3   OH212824   3.220   5.886   0.621
 4287TIP3    H112825   3.235   5.874   0.527
 4287TIP3    H212826   3.144   5.944   0.626
 4288TIP3   OH212827   1.890   0.968   5.608
 4288TIP3    H112828   1.856   0.976   5.519
 4288TIP3    H212829   1.952   0.895   5.603
 4289TIP3   OH212830   4.689   2.555   0.612
 4289TIP3    H112831   4.647   2.470   0.598
 4289TIP3    H212832   4.782   2.537   0.600
 4290TIP3   OH212833   1.282   5.503   1.268
 4290TIP3    H112834   1.367   5.545   1.285
 4290TIP3    H212835   1.294   5.412   1.298
 4291TIP3   OH212836   3.663   1.520   1.664
 4291TIP3    H112837   3.660   1.525   1.569
 4291TIP3    H212838   3.620   1.600   1.694
 4292TIP3   OH212839   5.537   3.760   5.345
 4292TIP3    H112840   5.476   3.719   5.283
 4292TIP3    H212841   5.622   3.756   5.301
 4293TIP3   OH212842   3.663   5.581   5.569
 4293TIP3    H112843   3.576   5.577   5.528
 4293TIP3    H212844   3.696   5.491   5.562
 4294TIP3   OH212845   2.471   2.758   5.717
 4294TIP3    H112846   2.408   2.757   5.789
 4294TIP3    H212847   2.459   2.844   5.676
 4295TIP3   OH212848   0.472   4.376   4.946
 4295TIP3    H112849   0.563   4.371   4.974
 4295TIP3    H212850   0.456   4.293   4.901
 4296TIP3   OH212851   6.158   0.569   4.195
 4296TIP3    H112852   6.107   0.617   4.130
 4296TIP3    H212853   6.096   0.549   4.265
 4297TIP3   OH212854   5.976   4.409   1.550
 4297TIP3    H112855   6.000   4.495   1.516
 4297TIP3    H212856   6.059   4.364   1.564
 4298TIP3   OH212857   2.362   1.442   3.562
 4298TIP3    H112858   2.283   1.395   3.536
 4298TIP3    H212859   2.434   1.389   3.529
 4299TIP3   OH212860   0.996   4.846   2.651
 4299TIP3    H112861   0.942   4.874   2.726
 4299TIP3    H212862   0.963   4.898   2.577
 4300TIP3   OH212863   4.112   2.318   0.258
 4300TIP3    H112864   4.070   2.239   0.292
 4300TIP3    H212865   4.200   2.290   0.233
 4301TIP3   OH212866   4.888   0.934   1.280
 4301TIP3    H112867   4.980   0.959   1.286
 4301TIP3    H212868   4.880   0.857   1.337
 4302TIP3   OH212869   2.631   1.249   5.623
 4302TIP3    H112870   2.703   1.263   5.685
 4302TIP3    H212871   2.625   1.332   5.574
 4303TIP3   OH212872   4.601   5.632   4.960
 4303TIP3    H112873   4.672   5.575   4.988
 4303TIP3    H212874   4.582   5.686   5.037
 4304TIP3   OH212875   4.582   3.255   3.911
 4304TIP3    H112876   4.669   3.276   3.946
 4304TIP3    H212877   4.589   3.275   3.817
 4305TIP3   OH212878   3.901   1.515   0.655
 4305TIP3    H112879   3.847   1.507   0.576
 4305TIP3    H212880   3.974   1.571   0.629
 4306TIP3   OH212881   7.112   4.041   5.092
 4306TIP3    H112882   7.077   3.960   5.057
 4306TIP3    H212883   7.038   4.101   5.093
 4307TIP3   OH212884   3.893   1.030   1.119
 4307TIP3    H112885   3.798   1.033   1.119
 4307TIP3    H212886   3.916   0.968   1.050
 4308TIP3   OH212887   5.932   6.602   3.071
 4308TIP3    H112888   5.905   6.558   2.990
 4308TIP3    H212889   5.976   6.681   3.041
 4309TIP3   OH212890   4.272   4.674   4.739
 4309TIP3    H112891   4.318   4.757   4.722
 4309TIP3    H212892   4.312   4.641   4.820
 4310TIP3   OH212893   1.931   4.161   3.050
 4310TIP3    H112894   1.933   4.204   2.964
 4310TIP3    H212895   1.981   4.219   3.107
 4311TIP3   OH212896   0.488   1.908   2.985
 4311TIP3    H112897   0.466   2.001   2.991
 4311TIP3    H212898   0.545   1.902   2.908
 4312TIP3   OH212899   2.135   5.220   4.396
 4312TIP3    H112900   2.104   5.200   4.485
 4312TIP3    H212901   2.158   5.134   4.360
 4313TIP3   OH212902   0.609   1.992   2.624
 4313TIP3    H112903   0.652   1.932   2.686
 4313TIP3    H212904   0.518   1.960   2.620
 4314TIP3   OH212905   1.351   4.431   4.465
 4314TIP3    H112906   1.338   4.519   4.501
 4314TIP3    H212907   1.442   4.410   4.485
 4315TIP3   OH212908   0.272   1.067   0.401
 4315TIP3    H112909   0.234   1.070   0.489
 4315TIP3    H212910   0.196   1.067   0.343
 4316TIP3   OH212911   5.111   0.575   3.095
 4316TIP3    H112912   5.126   0.670   3.090
 4316TIP3    H212913   5.041   0.559   3.032
 4317TIP3   OH212914   5.614   1.646   2.407
 4317TIP3    H112915   5.626   1.553   2.389
 4317TIP3    H212916   5.527   1.667   2.373
 4318TIP3   OH212917   4.471   4.241   0.232
 4318TIP3    H112918   4.521   4.167   0.266
 4318TIP3    H212919   4.538   4.305   0.205
 4319TIP3   OH212920   5.407   0.170   5.445
 4319TIP3    H112921   5.378   0.259   5.422
 4319TIP3    H212922   5.487   0.157   5.395
 4320TIP3   OH212923   3.165   3.435   4.157
 4320TIP3    H112924   3.204   3.519   4.136
 4320TIP3    H212925   3.117   3.451   4.239
 4321TIP3   OH212926   2.891   1.671   2.453
 4321TIP3    H112927   2.978   1.652   2.489
 4321TIP3    H212928   2.830   1.652   2.524
 4322TIP3   OH212929   5.780   4.106   2.739
 4322TIP3    H112930   5.693   4.134   2.710
 4322TIP3    H212931   5.773   4.101   2.835
 4323TIP3   OH212932   1.632   0.081   5.128
 4323TIP3    H112933   1.686   0.157   5.150
 4323TIP3    H212934   1.551   0.119   5.093
 4324TIP3   OH212935   3.753   2.991   4.969
 4324TIP3    H112936   3.773   3.020   4.880
 4324TIP3    H212937   3.777   2.899   4.971
 4325TIP3   OH212938   0.829   0.431   1.760
 4325TIP3    H112939   0.924   0.428   1.769
 4325TIP3    H212940   0.814   0.427   1.666
 4326TIP3   OH212941   2.372   1.087   1.648
 4326TIP3    H112942   2.429   1.118   1.718
 4326TIP3    H212943   2.369   0.992   1.660
 4327TIP3   OH212944   6.882   6.095   4.425
 4327TIP3    H112945   6.965   6.137   4.448
 4327TIP3    H212946   6.889   6.077   4.332
 4328TIP3   OH212947   1.170   5.097   2.531
 4328TIP3    H112948   1.150   5.034   2.462
 4328TIP3    H212949   1.258   5.074   2.560
 4329TIP3   OH212950   6.496   1.368   5.104
 4329TIP3    H112951   6.466   1.277   5.101
 4329TIP3    H212952   6.485   1.394   5.195
 4330TIP3   OH212953   3.640   4.319   2.035
 4330TIP3    H112954   3.555   4.290   2.001
 4330TIP3    H212955   3.618   4.391   2.094
 4331TIP3   OH212956   1.479   6.382   4.511
 4331TIP3    H112957   1.511   6.427   4.433
 4331TIP3    H212958   1.539   6.309   4.524
 4332TIP3   OH212959   5.606   4.500   5.584
 4332TIP3    H112960   5.648   4.535   5.663
 4332TIP3    H212961   5.530   4.452   5.617
 4333TIP3   OH212962   1.794   1.746   4.528
 4333TIP3    H112963   1.731   1.709   4.589
 4333TIP3    H212964   1.808   1.677   4.463
 4334TIP3   OH212965   5.993   0.431   3.528
 4334TIP3    H112966   5.942   0.360   3.567
 4334TIP3    H212967   6.082   0.396   3.521
 4335TIP3   OH212968   0.747   3.458   3.830
 4335TIP3    H112969   0.807   3.462   3.756
 4335TIP3    H212970   0.800   3.426   3.903
 4336TIP3   OH212971   4.430   5.362   0.863
 4336TIP3    H112972   4.386   5.447   0.859
 4336TIP3    H212973   4.446   5.338   0.772
 4337TIP3   OH212974   3.140   1.277   3.489
 4337TIP3    H112975   3.109   1.356   3.444
 4337TIP3    H212976   3.171   1.309   3.574
 4338TIP3   OH212977   0.754   5.518   0.393
 4338TIP3    H112978   0.765   5.493   0.485
 4338TIP3    H212979   0.729   5.610   0.396
 4339TIP3   OH212980   5.150   4.652   0.023
 4339TIP3    H112981   5.081   4.586   0.021
 4339TIP3    H212982   5.178   4.654   0.115
 4340TIP3   OH212983   2.570   4.260   3.560
 4340TIP3    H112984   2.642   4.197   3.563
 4340TIP3    H212985   2.601   4.334   3.613
 4341TIP3   OH212986   6.009   3.305   0.886
 4341TIP3    H112987   6.047   3.388   0.857
 4341TIP3    H212988   5.970   3.268   0.806
 4342TIP3   OH212989   7.008   6.674   4.581
 4342TIP3    H112990   7.014   6.766   4.610
 4342TIP3    H212991   7.086   6.661   4.527
 4343TIP3   OH212992   0.951   0.766   1.733
 4343TIP3    H112993   0.958   0.848   1.781
 4343TIP3    H212994   0.857   0.745   1.734
 4344TIP3   OH212995   4.753   5.494   5.142
 4344TIP3    H112996   4.832   5.518   5.190
 4344TIP3    H212997   4.708   5.431   5.199
 4345TIP3   OH212998   7.069   4.208   0.848
 4345TIP3    H112999   6.997   4.205   0.912
 4345TIP3    H213000   7.070   4.299   0.818
 4346TIP3   OH213001   3.098   1.698   5.097
 4346TIP3    H113002   3.185   1.737   5.091
 4346TIP3    H213003   3.105   1.616   5.047
 4347TIP3   OH213004   1.738   5.754   0.850
 4347TIP3    H113005   1.662   5.786   0.802
 4347TIP3    H213006   1.758   5.670   0.810
 4348TIP3   OH213007   5.757   4.063   1.292
 4348TIP3    H113008   5.774   4.092   1.202
 4348TIP3    H213009   5.738   4.143   1.340
 4349TIP3   OH213010   0.387   1.395   4.913
 4349TIP3    H113011   0.406   1.351   4.996
 4349TIP3    H213012   0.403   1.487   4.931
 4350TIP3   OH213013   3.648   0.700   3.127
 4350TIP3    H113014   3.579   0.648   3.086
 4350TIP3    H213015   3.602   0.768   3.175
 4351TIP3   OH213016   3.917   2.291   3.395
 4351TIP3    H113017   3.862   2.340   3.456
 4351TIP3    H213018   3.996   2.271   3.445
 4352TIP3   OH213019   0.244   6.745   0.293
 4352TIP3    H113020   0.236   6.773   0.201
 4352TIP3    H213021   0.197   6.812   0.342
 4353TIP3   OH213022   5.240   6.589   0.263
 4353TIP3    H113023   5.200   6.635   0.189
 4353TIP3    H213024   5.272   6.507   0.225
 4354TIP3   OH213025   6.505   1.670   2.102
 4354TIP3    H113026   6.419   1.709   2.118
 4354TIP3    H213027   6.508   1.656   2.007
 4355TIP3   OH213028   6.345   3.684   1.171
 4355TIP3    H113029   6.312   3.704   1.258
 4355TIP3    H213030   6.427   3.732   1.165
 4356TIP3   OH213031   5.800   3.376   3.281
 4356TIP3    H113032   5.818   3.420   3.198
 4356TIP3    H213033   5.772   3.288   3.255
 4357TIP3   OH213034   4.952   1.160   5.382
 4357TIP3    H113035   5.014   1.146   5.311
 4357TIP3    H213036   4.903   1.077   5.388
 4358TIP3   OH213037   3.921   5.399   1.662
 4358TIP3    H113038   3.892   5.328   1.720
 4358TIP3    H213039   3.858   5.398   1.591
 4359TIP3   OH213040   1.501   2.844   4.309
 4359TIP3    H113041   1.521   2.829   4.217
 4359TIP3    H213042   1.424   2.790   4.326
 4360TIP3   OH213043   0.812   2.022   4.686
 4360TIP3    H113044   0.780   1.958   4.623
 4360TIP3    H213045   0.774   1.994   4.770
 4361TIP3   OH213046   0.590   4.144   5.167
 4361TIP3    H113047   0.674   4.151   5.213
 4361TIP3    H213048   0.557   4.234   5.165
 4362TIP3   OH213049   5.592   4.145   5.711
 4362TIP3    H113050   5.549   4.066   5.678
 4362TIP3    H213051   5.523   4.211   5.714
 4363TIP3   OH213052   5.763   1.731   0.526
 4363TIP3    H113053   5.716   1.660   0.570
 4363TIP3    H213054   5.855   1.714   0.543
 4364TIP3   OH213055   5.086   6.427   5.406
 4364TIP3    H113056   5.116   6.337   5.413
 4364TIP3    H213057   5.165   6.480   5.415
 4365TIP3   OH213058   1.401   1.587   0.115
 4365TIP3    H113059   1.337   1.531   0.073
 4365TIP3    H213060   1.483   1.568   0.070
 4366TIP3   OH213061   1.972   1.061   4.967
 4366TIP3    H113062   2.018   1.129   4.917
 4366TIP3    H213063   1.925   1.109   5.036
 4367TIP3   OH213064   2.722   2.974   0.793
 4367TIP3    H113065   2.694   2.965   0.701
 4367TIP3    H213066   2.721   3.068   0.809
 4368TIP3   OH213067   0.613   5.579   5.189
 4368TIP3    H113068   0.620   5.665   5.149
 4368TIP3    H213069   0.531   5.582   5.239
 4369TIP3   OH213070   3.281   3.932   2.018
 4369TIP3    H113071   3.366   3.976   2.027
 4369TIP3    H213072   3.254   3.915   2.108
 4370TIP3   OH213073   3.741   5.416   4.326
 4370TIP3    H113074   3.738   5.485   4.393
 4370TIP3    H213075   3.701   5.456   4.249
 4371TIP3   OH213076   5.303   2.821   4.175
 4371TIP3    H113077   5.319   2.888   4.242
 4371TIP3    H213078   5.259   2.869   4.104
 4372TIP3   OH213079   0.895   6.333   1.583
 4372TIP3    H113080   0.927   6.419   1.610
 4372TIP3    H213081   0.800   6.341   1.584
 4373TIP3   OH213082   4.295   4.789   1.259
 4373TIP3    H113083   4.267   4.813   1.347
 4373TIP3    H213084   4.285   4.694   1.255
 4374TIP3   OH213085   2.770   1.675   3.290
 4374TIP3    H113086   2.820   1.732   3.348
 4374TIP3    H213087   2.812   1.685   3.204
 4375TIP3   OH213088   2.286   5.509   2.615
 4375TIP3    H113089   2.291   5.429   2.564
 4375TIP3    H213090   2.376   5.543   2.616
 4376TIP3   OH213091   4.007   6.710   3.907
 4376TIP3    H113092   3.989   6.793   3.862
 4376TIP3    H213093   4.062   6.734   3.981
 4377TIP3   OH213094   4.212   4.144   3.641
 4377TIP3    H113095   4.286   4.139   3.702
 4377TIP3    H213096   4.135   4.126   3.695
 4378TIP3   OH213097   4.183   3.689   1.503
 4378TIP3    H113098   4.249   3.733   1.449
 4378TIP3    H213099   4.108   3.749   1.503
 4379TIP3   OH213100   3.813   1.489   4.723
 4379TIP3    H113101   3.826   1.408   4.774
 4379TIP3    H213102   3.811   1.558   4.789
 4380TIP3   OH213103   6.150   5.871   3.246
 4380TIP3    H113104   6.218   5.823   3.293
 4380TIP3    H213105   6.162   5.846   3.154
 4381TIP3   OH213106   3.947   2.916   2.387
 4381TIP3    H113107   3.980   2.977   2.454
 4381TIP3    H213108   4.026   2.888   2.341
 4382TIP3   OH213109   4.157   2.042   5.389
 4382TIP3    H113110   4.079   1.996   5.419
 4382TIP3    H213111   4.228   2.006   5.442
 4383TIP3   OH213112   7.207   0.705   5.460
 4383TIP3    H113113   7.114   0.710   5.479
 4383TIP3    H213114   7.248   0.760   5.527
 4384TIP3   OH213115   2.188   0.393   2.075
 4384TIP3    H113116   2.245   0.322   2.104
 4384TIP3    H213117   2.107   0.381   2.125
 4385TIP3   OH213118   3.028   5.771   4.075
 4385TIP3    H113119   3.095   5.733   4.019
 4385TIP3    H213120   2.953   5.785   4.017
 4386TIP3   OH213121   5.181   0.879   3.506
 4386TIP3    H113122   5.219   0.961   3.536
 4386TIP3    H213123   5.236   0.811   3.545
 4387TIP3   OH213124   0.144   6.017   0.017
 4387TIP3    H113125   0.094   6.094   0.043
 4387TIP3    H213126   0.077   5.949   0.003
 4388TIP3   OH213127   6.832   3.666   5.334
 4388TIP3    H113128   6.751   3.683   5.286
 4388TIP3    H213129   6.897   3.650   5.266
 4389TIP3   OH213130   1.462   5.416   4.568
 4389TIP3    H113131   1.424   5.365   4.639
 4389TIP3    H213132   1.399   5.406   4.496
 4390TIP3   OH213133   4.101   2.496   1.068
 4390TIP3    H113134   4.167   2.444   1.114
 4390TIP3    H213135   4.144   2.526   0.989
 4391TIP3   OH213136   2.574   2.113   0.593
 4391TIP3    H113137   2.487   2.145   0.568
 4391TIP3    H213138   2.574   2.120   0.689
 4392TIP3   OH213139   4.245   1.221   3.925
 4392TIP3    H113140   4.243   1.125   3.930
 4392TIP3    H213141   4.154   1.247   3.938
 4393TIP3   OH213142   3.836   3.763   1.882
 4393TIP3    H113143   3.924   3.781   1.916
 4393TIP3    H213144   3.778   3.781   1.956
 4394TIP3   OH213145   5.996   4.844   4.933
 4394TIP3    H113146   5.908   4.848   4.894
 4394TIP3    H213147   6.035   4.929   4.913
 4395TIP3   OH213148   2.192   4.319   4.406
 4395TIP3    H113149   2.101   4.350   4.409
 4395TIP3    H213150   2.238   4.389   4.359
 4396TIP3   OH213151   2.314   5.149   1.464
 4396TIP3    H113152   2.282   5.237   1.485
 4396TIP3    H213153   2.254   5.091   1.511
 4397TIP3   OH213154   2.066   4.902   4.833
 4397TIP3    H113155   2.008   4.846   4.782
 4397TIP3    H213156   2.101   4.845   4.902
 4398TIP3   OH213157   0.034   5.040   5.406
 4398TIP3    H113158   0.063   5.107   5.343
 4398TIP3    H213159  -0.054   5.068   5.431
 4399TIP3   OH213160   6.921   1.978   3.267
 4399TIP3    H113161   6.974   2.038   3.214
 4399TIP3    H213162   6.881   2.034   3.334
 4400TIP3   OH213163   1.083   2.431   3.491
 4400TIP3    H113164   1.072   2.525   3.503
 4400TIP3    H213165   1.056   2.393   3.575
 4401TIP3   OH213166   7.202   2.662   2.237
 4401TIP3    H113167   7.231   2.571   2.229
 4401TIP3    H213168   7.107   2.658   2.232
 4402TIP3   OH213169   5.985   0.507   3.021
 4402TIP3    H113170   6.010   0.573   3.085
 4402TIP3    H213171   5.935   0.442   3.071
 4403TIP3   OH213172   0.850   1.739   5.550
 4403TIP3    H113173   0.861   1.813   5.492
 4403TIP3    H213174   0.857   1.662   5.494
 4404TIP3   OH213175   5.652   2.632   5.130
 4404TIP3    H113176   5.607   2.713   5.106
 4404TIP3    H213177   5.740   2.659   5.156
 4405TIP3   OH213178   1.235   1.307   2.015
 4405TIP3    H113179   1.242   1.378   2.080
 4405TIP3    H213180   1.185   1.239   2.060
 4406TIP3   OH213181   2.419   1.849   1.007
 4406TIP3    H113182   2.495   1.864   0.951
 4406TIP3    H213183   2.361   1.793   0.956
 4407TIP3   OH213184   6.681   2.830   4.948
 4407TIP3    H113185   6.684   2.746   4.902
 4407TIP3    H213186   6.685   2.896   4.879
 4408TIP3   OH213187   6.053   6.760   3.903
 4408TIP3    H113188   6.043   6.713   3.985
 4408TIP3    H213189   6.056   6.853   3.929
 4409TIP3   OH213190   4.119   4.829   0.652
 4409TIP3    H113191   4.162   4.914   0.663
 4409TIP3    H213192   4.056   4.844   0.581
 4410TIP3   OH213193   5.645   1.239   2.553
 4410TIP3    H113194   5.571   1.241   2.492
 4410TIP3    H213195   5.613   1.283   2.631
 4411TIP3   OH213196   6.415   5.843   1.553
 4411TIP3    H113197   6.471   5.883   1.488
 4411TIP3    H213198   6.456   5.758   1.572
 4412TIP3   OH213199   5.405   5.214   5.269
 4412TIP3    H113200   5.474   5.255   5.218
 4412TIP3    H213201   5.442   5.130   5.296
 4413TIP3   OH213202   6.969   2.306   3.781
 4413TIP3    H113203   7.031   2.366   3.824
 4413TIP3    H213204   6.997   2.303   3.690
 4414TIP3   OH213205   5.945   1.313   0.135
 4414TIP3    H113206   5.979   1.395   0.100
 4414TIP3    H213207   5.927   1.332   0.227
 4415TIP3   OH213208   1.840   2.149   4.601
 4415TIP3    H113209   1.816   2.139   4.694
 4415TIP3    H213210   1.897   2.225   4.599
 4416TIP3   OH213211   1.538   4.299   2.218
 4416TIP3    H113212   1.632   4.285   2.216
 4416TIP3    H213213   1.504   4.227   2.271
 4417TIP3   OH213214   0.088   1.288   4.063
 4417TIP3    H113215   0.085   1.290   3.967
 4417TIP3    H213216   0.022   1.223   4.087
 4418TIP3   OH213217   1.710   2.798   3.014
 4418TIP3    H113218   1.737   2.886   2.989
 4418TIP3    H213219   1.660   2.810   3.095
 4419TIP3   OH213220   0.896   3.478   3.226
 4419TIP3    H113221   0.932   3.411   3.284
 4419TIP3    H213222   0.824   3.517   3.276
 4420TIP3   OH213223   2.883   4.098   4.255
 4420TIP3    H113224   2.878   4.191   4.276
 4420TIP3    H213225   2.920   4.057   4.334
 4421TIP3   OH213226   6.571   4.662   4.305
 4421TIP3    H113227   6.492   4.608   4.306
 4421TIP3    H213228   6.630   4.620   4.367
 4422TIP3   OH213229   2.401   2.317   1.846
 4422TIP3    H113230   2.443   2.254   1.904
 4422TIP3    H213231   2.338   2.265   1.796
 4423TIP3   OH213232   2.379   3.115   0.187
 4423TIP3    H113233   2.317   3.093   0.256
 4423TIP3    H213234   2.325   3.129   0.109
 4424TIP3   OH213235   3.820   2.332   5.430
 4424TIP3    H113236   3.823   2.418   5.387
 4424TIP3    H213237   3.840   2.350   5.522
 4425TIP3   OH213238   3.215   3.439   3.835
 4425TIP3    H113239   3.188   3.475   3.919
 4425TIP3    H213240   3.308   3.460   3.828
 4426TIP3   OH213241   2.152   4.276   2.029
 4426TIP3    H113242   2.243   4.289   2.003
 4426TIP3    H213243   2.128   4.358   2.073
 4427TIP3   OH213244   4.242   4.721   5.429
 4427TIP3    H113245   4.181   4.739   5.500
 4427TIP3    H213246   4.186   4.710   5.352
 4428TIP3   OH213247   1.988   1.939   4.494
 4428TIP3    H113248   1.952   2.013   4.541
 4428TIP3    H213249   1.921   1.871   4.499
 4429TIP3   OH213250   5.302   2.040   2.895
 4429TIP3    H113251   5.221   2.038   2.946
 4429TIP3    H213252   5.296   1.964   2.838
 4430TIP3   OH213253   7.159   1.845   1.454
 4430TIP3    H113254   7.130   1.882   1.537
 4430TIP3    H213255   7.248   1.813   1.472
 4431TIP3   OH213256   4.381   5.647   5.665
 4431TIP3    H113257   4.471   5.647   5.633
 4431TIP3    H213258   4.339   5.575   5.618
 4432TIP3   OH213259   3.929   5.755   4.100
 4432TIP3    H113260   3.936   5.796   4.014
 4432TIP3    H213261   3.871   5.812   4.150
 4433TIP3   OH213262   4.083   0.162   1.807
 4433TIP3    H113263   4.160   0.213   1.835
 4433TIP3    H213264   4.116   0.109   1.735
 4434TIP3   OH213265   6.149   6.312   5.005
 4434TIP3    H113266   6.239   6.311   4.972
 4434TIP3    H213267   6.149   6.380   5.073
 4435TIP3   OH213268   0.172   0.139   5.593
 4435TIP3    H113269   0.139   0.126   5.504
 4435TIP3    H213270   0.149   0.230   5.614
 4436TIP3   OH213271   3.947   0.380   1.079
 4436TIP3    H113272   3.929   0.460   1.129
 4436TIP3    H213273   4.016   0.337   1.129
 4437TIP3   OH213274   4.863   4.162   3.610
 4437TIP3    H113275   4.899   4.130   3.527
 4437TIP3    H213276   4.805   4.092   3.639
 4438TIP3   OH213277   6.515   4.279   5.373
 4438TIP3    H113278   6.591   4.222   5.373
 4438TIP3    H213279   6.443   4.225   5.340
 4439TIP3   OH213280   2.652   5.153   5.761
 4439TIP3    H113281   2.638   5.221   5.696
 4439TIP3    H213282   2.702   5.195   5.830
 4440TIP3   OH213283   3.459   2.147   1.448
 4440TIP3    H113284   3.410   2.122   1.526
 4440TIP3    H213285   3.492   2.065   1.412
 4441TIP3   OH213286   5.868   2.085   0.719
 4441TIP3    H113287   5.932   2.027   0.760
 4441TIP3    H213288   5.920   2.147   0.669
 4442TIP3   OH213289   1.568   1.237   5.074
 4442TIP3    H113290   1.504   1.270   5.010
 4442TIP3    H213291   1.516   1.186   5.136
 4443TIP3   OH213292   5.094   2.980   4.562
 4443TIP3    H113293   5.136   2.987   4.477
 4443TIP3    H213294   5.158   2.934   4.617
 4444TIP3   OH213295   0.416   5.645   2.902
 4444TIP3    H113296   0.411   5.639   2.806
 4444TIP3    H213297   0.325   5.659   2.929
 4445TIP3   OH213298   4.950   4.785   2.994
 4445TIP3    H113299   4.926   4.874   2.969
 4445TIP3    H213300   5.042   4.777   2.968
 4446TIP3   OH213301   6.383   4.177   3.017
 4446TIP3    H113302   6.358   4.250   2.960
 4446TIP3    H213303   6.468   4.203   3.052
 4447TIP3   OH213304   6.672   0.699   3.421
 4447TIP3    H113305   6.585   0.662   3.404
 4447TIP3    H213306   6.726   0.624   3.444
 4448TIP3   OH213307   2.200   3.593   1.785
 4448TIP3    H113308   2.282   3.578   1.831
 4448TIP3    H213309   2.178   3.509   1.744
 4449TIP3   OH213310   7.003   2.889   4.984
 4449TIP3    H113311   6.964   2.973   4.960
 4449TIP3    H213312   6.970   2.872   5.072
 4450TIP3   OH213313   1.431   6.500   1.867
 4450TIP3    H113314   1.496   6.568   1.852
 4450TIP3    H213315   1.469   6.421   1.829
 4451TIP3   OH213316   1.538   3.230   3.308
 4451TIP3    H113317   1.542   3.312   3.358
 4451TIP3    H213318   1.496   3.255   3.226
 4452TIP3   OH213319   5.788   1.432   2.847
 4452TIP3    H113320   5.758   1.523   2.844
 4452TIP3    H213321   5.867   1.432   2.792
 4453TIP3   OH213322   4.526   3.768   1.920
 4453TIP3    H113323   4.527   3.795   2.013
 4453TIP3    H213324   4.452   3.708   1.913
 4454TIP3   OH213325   6.696   5.327   1.590
 4454TIP3    H113326   6.729   5.248   1.632
 4454TIP3    H213327   6.640   5.295   1.519
 4455TIP3   OH213328   5.391   1.797   0.007
 4455TIP3    H113329   5.371   1.889   0.024
 4455TIP3    H213330   5.437   1.768   0.086
 4456TIP3   OH213331   5.046   6.402   5.124
 4456TIP3    H113332   5.046   6.368   5.214
 4456TIP3    H213333   5.017   6.493   5.133
 4457TIP3   OH213334   0.889   0.640   3.882
 4457TIP3    H113335   0.797   0.653   3.906
 4457TIP3    H213336   0.938   0.672   3.957
 4458TIP3   OH213337   0.101   0.779   0.983
 4458TIP3    H113338   0.184   0.763   1.029
 4458TIP3    H213339   0.103   0.719   0.909
 4459TIP3   OH213340   4.898   3.948   5.678
 4459TIP3    H113341   4.817   3.895   5.679
 4459TIP3    H213342   4.949   3.916   5.752
 4460TIP3   OH213343   0.931   0.570   5.792
 4460TIP3    H113344   0.962   0.637   5.730
 4460TIP3    H213345   0.929   0.490   5.740
 4461TIP3   OH213346   7.251   1.331   3.308
 4461TIP3    H113347   7.200   1.386   3.247
 4461TIP3    H213348   7.333   1.379   3.320
 4462TIP3   OH213349   0.361   5.904   3.753
 4462TIP3    H113350   0.414   5.947   3.686
 4462TIP3    H213351   0.424   5.858   3.808
 4463TIP3   OH213352   0.909   6.117   2.609
 4463TIP3    H113353   0.881   6.203   2.577
 4463TIP3    H213354   0.991   6.133   2.656
 4464TIP3   OH213355   2.477   5.108   0.503
 4464TIP3    H113356   2.462   5.128   0.411
 4464TIP3    H213357   2.479   5.193   0.546
 4465TIP3   OH213358   5.714   2.271   5.675
 4465TIP3    H113359   5.691   2.219   5.598
 4465TIP3    H213360   5.629   2.290   5.717
 4466TIP3   OH213361   6.976   2.556   2.514
 4466TIP3    H113362   6.882   2.571   2.517
 4466TIP3    H213363   7.011   2.603   2.590
 4467TIP3   OH213364   5.443   5.575   3.081
 4467TIP3    H113365   5.378   5.506   3.071
 4467TIP3    H213366   5.523   5.529   3.108
 4468TIP3   OH213367   5.878   2.515   3.898
 4468TIP3    H113368   5.849   2.581   3.961
 4468TIP3    H213369   5.891   2.436   3.950
 4469TIP3   OH213370   1.066   6.037   3.867
 4469TIP3    H113371   1.049   6.055   3.960
 4469TIP3    H213372   1.048   6.120   3.823
 4470TIP3   OH213373   5.226   5.880   0.237
 4470TIP3    H113374   5.216   5.849   0.147
 4470TIP3    H213375   5.150   5.938   0.251
 4471TIP3   OH213376   4.537   6.300   2.005
 4471TIP3    H113377   4.500   6.378   1.963
 4471TIP3    H213378   4.477   6.229   1.982
 4472TIP3   OH213379   5.203   4.375   3.503
 4472TIP3    H113380   5.223   4.396   3.594
 4472TIP3    H213381   5.131   4.434   3.480
 4473TIP3   OH213382   3.830   2.398   1.993
 4473TIP3    H113383   3.800   2.366   2.079
 4473TIP3    H213384   3.925   2.381   1.994
 4474TIP3   OH213385   6.372   0.129   3.734
 4474TIP3    H113386   6.395   0.220   3.717
 4474TIP3    H213387   6.309   0.107   3.665
 4475TIP3   OH213388   3.681   2.150   3.207
 4475TIP3    H113389   3.633   2.219   3.161
 4475TIP3    H213390   3.680   2.176   3.299
 4476TIP3   OH213391   6.280   0.418   1.248
 4476TIP3    H113392   6.190   0.386   1.252
 4476TIP3    H213393   6.293   0.464   1.331
 4477TIP3   OH213394   5.684   5.629   5.407
 4477TIP3    H113395   5.759   5.602   5.460
 4477TIP3    H213396   5.714   5.707   5.361
 4478TIP3   OH213397   6.193   3.783   3.371
 4478TIP3    H113398   6.120   3.839   3.397
 4478TIP3    H213399   6.216   3.813   3.283
 4479TIP3   OH213400   2.413   5.913   2.281
 4479TIP3    H113401   2.369   5.835   2.314
 4479TIP3    H213402   2.433   5.964   2.360
 4480TIP3   OH213403   5.186   1.552   5.250
 4480TIP3    H113404   5.242   1.520   5.321
 4480TIP3    H213405   5.240   1.543   5.171
 4481TIP3   OH213406   0.509   3.837   1.588
 4481TIP3    H113407   0.433   3.892   1.606
 4481TIP3    H213408   0.482   3.749   1.613
 4482TIP3   OH213409   0.126   1.621   4.679
 4482TIP3    H113410   0.039   1.590   4.655
 4482TIP3    H213411   0.132   1.605   4.774
 4483TIP3   OH213412   2.112   3.824   0.563
 4483TIP3    H113413   2.071   3.839   0.648
 4483TIP3    H213414   2.147   3.735   0.569
 4484TIP3   OH213415   6.872   3.114   1.266
 4484TIP3    H113416   6.809   3.057   1.221
 4484TIP3    H213417   6.921   3.156   1.196
 4485TIP3   OH213418   4.483   1.595   3.559
 4485TIP3    H113419   4.402   1.601   3.609
 4485TIP3    H213420   4.457   1.613   3.469
 4486TIP3   OH213421   6.635   2.836   1.114
 4486TIP3    H113422   6.555   2.871   1.074
 4486TIP3    H213423   6.688   2.809   1.039
 4487TIP3   OH213424   1.856   0.161   1.124
 4487TIP3    H113425   1.888   0.074   1.099
 4487TIP3    H213426   1.782   0.143   1.181
 4488TIP3   OH213427   1.296   4.739   4.396
 4488TIP3    H113428   1.206   4.732   4.427
 4488TIP3    H213429   1.298   4.686   4.316
 4489TIP3   OH213430   3.065   4.774   1.602
 4489TIP3    H113431   2.987   4.818   1.569
 4489TIP3    H213432   3.030   4.702   1.655
 4490TIP3   OH213433   0.178   2.623   1.757
 4490TIP3    H113434   0.228   2.615   1.675
 4490TIP3    H213435   0.167   2.717   1.769
 4491TIP3   OH213436   1.681   5.205   4.127
 4491TIP3    H113437   1.652   5.226   4.216
 4491TIP3    H213438   1.773   5.233   4.125
 4492TIP3   OH213439   1.839   6.147   4.811
 4492TIP3    H113440   1.908   6.172   4.873
 4492TIP3    H213441   1.830   6.223   4.753
 4493TIP3   OH213442   4.698   4.510   4.995
 4493TIP3    H113443   4.713   4.422   5.031
 4493TIP3    H213444   4.785   4.540   4.970
 4494TIP3   OH213445   3.360   5.092   3.414
 4494TIP3    H113446   3.429   5.026   3.413
 4494TIP3    H213447   3.349   5.117   3.322
 4495TIP3   OH213448   2.952   1.940   5.109
 4495TIP3    H113449   3.004   1.860   5.119
 4495TIP3    H213450   2.969   1.968   5.019
 4496TIP3   OH213451   2.995   4.584   1.366
 4496TIP3    H113452   3.063   4.530   1.406
 4496TIP3    H213453   3.039   4.667   1.346
 4497TIP3   OH213454   3.704   3.997   4.687
 4497TIP3    H113455   3.721   4.006   4.594
 4497TIP3    H213456   3.791   3.997   4.727
 4498TIP3   OH213457   1.433   2.743   5.111
 4498TIP3    H113458   1.463   2.699   5.190
 4498TIP3    H213459   1.339   2.756   5.124
 4499TIP3   OH213460   2.673   4.659   5.538
 4499TIP3    H113461   2.676   4.747   5.574
 4499TIP3    H213462   2.650   4.671   5.446
 4500TIP3   OH213463   5.401   4.067   4.041
 4500TIP3    H113464   5.335   4.026   3.985
 4500TIP3    H213465   5.450   3.993   4.078
 4501TIP3   OH213466   3.427   5.534   3.403
 4501TIP3    H113467   3.484   5.531   3.326
 4501TIP3    H213468   3.339   5.523   3.368
 4502TIP3   OH213469   3.607   4.021   1.581
 4502TIP3    H113470   3.657   3.941   1.595
 4502TIP3    H213471   3.633   4.051   1.494
 4503TIP3   OH213472   0.585   1.657   0.131
 4503TIP3    H113473   0.611   1.596   0.063
 4503TIP3    H213474   0.539   1.604   0.196
 4504TIP3   OH213475   6.134   5.084   1.472
 4504TIP3    H113476   6.117   5.106   1.563
 4504TIP3    H213477   6.049   5.056   1.438
 4505TIP3   OH213478   1.562   2.547   3.004
 4505TIP3    H113479   1.636   2.503   3.046
 4505TIP3    H213480   1.602   2.623   2.961
 4506TIP3   OH213481   2.638   2.806   1.228
 4506TIP3    H113482   2.659   2.856   1.149
 4506TIP3    H213483   2.709   2.826   1.289
 4507TIP3   OH213484   4.263   5.998   0.201
 4507TIP3    H113485   4.232   6.025   0.115
 4507TIP3    H213486   4.279   5.904   0.192
 4508TIP3   OH213487   2.699   5.961   2.657
 4508TIP3    H113488   2.721   5.938   2.748
 4508TIP3    H213489   2.650   6.043   2.665
 4509TIP3   OH213490   0.980   4.468   3.995
 4509TIP3    H113491   0.901   4.494   4.043
 4509TIP3    H213492   1.045   4.452   4.063
 4510TIP3   OH213493   4.070   6.484   2.825
 4510TIP3    H113494   4.125   6.467   2.749
 4510TIP3    H213495   3.994   6.529   2.789
 4511TIP3   OH213496   1.179   3.210   3.404
 4511TIP3    H113497   1.155   3.120   3.422
 4511TIP3    H213498   1.099   3.260   3.419
 4512TIP3   OH213499   5.289   3.709   4.683
 4512TIP3    H113500   5.346   3.675   4.751
 4512TIP3    H213501   5.232   3.771   4.727
 4513TIP3   OH213502   1.433   4.199   3.746
 4513TIP3    H113503   1.439   4.229   3.655
 4513TIP3    H213504   1.347   4.158   3.753
 4514TIP3   OH213505   0.255   6.226   3.449
 4514TIP3    H113506   0.270   6.311   3.407
 4514TIP3    H213507   0.242   6.248   3.541
 4515TIP3   OH213508   0.528   6.017   4.673
 4515TIP3    H113509   0.597   6.082   4.685
 4515TIP3    H213510   0.504   6.024   4.580
 4516TIP3   OH213511   6.337   3.336   5.556
 4516TIP3    H113512   6.363   3.406   5.497
 4516TIP3    H213513   6.307   3.381   5.635
 4517TIP3   OH213514   2.452   6.151   0.355
 4517TIP3    H113515   2.365   6.153   0.395
 4517TIP3    H213516   2.453   6.071   0.302
 4518TIP3   OH213517   0.138   1.769   2.468
 4518TIP3    H113518   0.158   1.820   2.547
 4518TIP3    H213519   0.060   1.812   2.432
 4519TIP3   OH213520   1.728   4.981   1.989
 4519TIP3    H113521   1.784   5.008   1.917
 4519TIP3    H213522   1.641   5.016   1.967
 4520TIP3   OH213523   2.870   4.716   0.879
 4520TIP3    H113524   2.867   4.797   0.828
 4520TIP3    H213525   2.785   4.674   0.862
 4521TIP3   OH213526   6.526   0.177   0.511
 4521TIP3    H113527   6.493   0.202   0.597
 4521TIP3    H213528   6.507   0.084   0.504
 4522TIP3   OH213529   6.414   5.810   2.832
 4522TIP3    H113530   6.396   5.738   2.772
 4522TIP3    H213531   6.508   5.825   2.823
 4523TIP3   OH213532   2.776   0.762   4.088
 4523TIP3    H113533   2.765   0.679   4.134
 4523TIP3    H213534   2.814   0.737   4.003
 4524TIP3   OH213535   1.944   2.065   5.406
 4524TIP3    H113536   1.897   1.988   5.375
 4524TIP3    H213537   2.029   2.060   5.362
 4525TIP3   OH213538   3.248   0.898   1.870
 4525TIP3    H113539   3.179   0.961   1.888
 4525TIP3    H213540   3.202   0.819   1.839
 4526TIP3   OH213541   6.883   6.574   2.094
 4526TIP3    H113542   6.963   6.575   2.040
 4526TIP3    H213543   6.901   6.636   2.164
 4527TIP3   OH213544   4.963   0.105   5.421
 4527TIP3    H113545   4.991   0.086   5.510
 4527TIP3    H213546   4.942   0.020   5.384
 4528TIP3   OH213547   0.761   6.600   4.781
 4528TIP3    H113548   0.799   6.688   4.785
 4528TIP3    H213549   0.791   6.558   4.862
 4529TIP3   OH213550   1.176   5.361   2.364
 4529TIP3    H113551   1.265   5.394   2.355
 4529TIP3    H213552   1.186   5.265   2.362
 4530TIP3   OH213553   4.858   5.000   2.568
 4530TIP3    H113554   4.781   5.053   2.590
 4530TIP3    H213555   4.827   4.910   2.570
 4531TIP3   OH213556   1.926   2.570   4.895
 4531TIP3    H113557   1.884   2.561   4.809
 4531TIP3    H213558   1.873   2.636   4.940
 4532TIP3   OH213559   0.496   0.420   0.468
 4532TIP3    H113560   0.502   0.434   0.374
 4532TIP3    H213561   0.436   0.488   0.499
 4533TIP3   OH213562   5.346   1.111   3.529
 4533TIP3    H113563   5.330   1.172   3.601
 4533TIP3    H213564   5.401   1.159   3.468
 4534TIP3   OH213565   0.221   1.842   1.523
 4534TIP3    H113566   0.221   1.926   1.476
 4534TIP3    H213567   0.304   1.801   1.499
 4535TIP3   OH213568   1.318   5.573   3.111
 4535TIP3    H113569   1.311   5.652   3.165
 4535TIP3    H213570   1.337   5.503   3.175
 4536TIP3   OH213571   0.978   1.290   1.679
 4536TIP3    H113572   0.914   1.250   1.737
 4536TIP3    H213573   0.934   1.367   1.644
 4537TIP3   OH213574   5.611   2.896   4.990
 4537TIP3    H113575   5.677   2.937   4.934
 4537TIP3    H213576   5.632   2.929   5.078
 4538TIP3   OH213577   4.961   4.771   0.906
 4538TIP3    H113578   4.964   4.750   0.813
 4538TIP3    H213579   4.983   4.864   0.911
 4539TIP3   OH213580   1.739   4.206   2.470
 4539TIP3    H113581   1.815   4.149   2.464
 4539TIP3    H213582   1.664   4.147   2.462
 4540TIP3   OH213583   3.907   0.020   5.492
 4540TIP3    H113584   3.995   0.033   5.456
 4540TIP3    H213585   3.910   0.062   5.578
 4541TIP3   OH213586   3.461   1.570   3.051
 4541TIP3    H113587   3.491   1.521   3.127
 4541TIP3    H213588   3.524   1.548   2.982
 4542TIP3   OH213589   3.401   6.632   4.611
 4542TIP3    H113590   3.403   6.727   4.601
 4542TIP3    H213591   3.319   6.605   4.569
 4543TIP3   OH213592   0.826   5.175   5.719
 4543TIP3    H113593   0.882   5.112   5.764
 4543TIP3    H213594   0.737   5.153   5.747
 4544TIP3   OH213595   5.969   2.093   0.164
 4544TIP3    H113596   5.934   2.127   0.246
 4544TIP3    H213597   5.891   2.068   0.114
 4545TIP3   OH213598   0.050   4.719   1.878
 4545TIP3    H113599   0.080   4.629   1.889
 4545TIP3    H213600   0.104   4.755   1.808
 4546TIP3   OH213601   3.185   3.181   4.333
 4546TIP3    H113602   3.105   3.169   4.383
 4546TIP3    H213603   3.228   3.256   4.374
 4547TIP3   OH213604   2.442   2.408   0.826
 4547TIP3    H113605   2.500   2.473   0.785
 4547TIP3    H213606   2.356   2.426   0.789
 4548TIP3   OH213607   0.419   0.661   3.292
 4548TIP3    H113608   0.461   0.731   3.242
 4548TIP3    H213609   0.367   0.707   3.358
 4549TIP3   OH213610   2.237   6.673   0.792
 4549TIP3    H113611   2.209   6.605   0.854
 4549TIP3    H213612   2.328   6.691   0.815
 4550TIP3   OH213613   6.206   3.427   1.567
 4550TIP3    H113614   6.255   3.351   1.600
 4550TIP3    H213615   6.261   3.502   1.589
 4551TIP3   OH213616   2.309   2.283   3.913
 4551TIP3    H113617   2.324   2.373   3.941
 4551TIP3    H213618   2.271   2.291   3.826
 4552TIP3   OH213619   6.895   5.125   1.942
 4552TIP3    H113620   6.810   5.083   1.929
 4552TIP3    H213621   6.957   5.070   1.894
 4553TIP3   OH213622   4.096   5.110   5.212
 4553TIP3    H113623   4.085   5.033   5.157
 4553TIP3    H213624   4.080   5.184   5.153
 4554TIP3   OH213625   0.638   6.510   3.559
 4554TIP3    H113626   0.640   6.419   3.532
 4554TIP3    H213627   0.550   6.540   3.538
 4555TIP3   OH213628   1.923   1.154   1.082
 4555TIP3    H113629   1.952   1.192   1.165
 4555TIP3    H213630   2.004   1.123   1.041
 4556TIP3   OH213631   1.636   5.734   5.480
 4556TIP3    H113632   1.632   5.641   5.501
 4556TIP3    H213633   1.719   5.764   5.518
 4557TIP3   OH213634   4.193   0.148   5.198
 4557TIP3    H113635   4.121   0.200   5.163
 4557TIP3    H213636   4.268   0.170   5.142
 4558TIP3   OH213637   6.825   5.934   0.956
 4558TIP3    H113638   6.776   5.953   1.036
 4558TIP3    H213639   6.912   5.970   0.973
 4559TIP3   OH213640   0.620   0.805   4.784
 4559TIP3    H113641   0.595   0.872   4.847
 4559TIP3    H213642   0.712   0.822   4.765
 4560TIP3   OH213643   2.539   1.863   0.257
 4560TIP3    H113644   2.475   1.911   0.309
 4560TIP3    H213645   2.581   1.930   0.203
 4561TIP3   OH213646   6.794   1.527   5.799
 4561TIP3    H113647   6.837   1.578   5.730
 4561TIP3    H213648   6.865   1.503   5.859
 4562TIP3   OH213649   3.553   5.432   1.720
 4562TIP3    H113650   3.537   5.410   1.811
 4562TIP3    H213651   3.466   5.429   1.679
 4563TIP3   OH213652   2.371   4.536   2.119
 4563TIP3    H113653   2.408   4.451   2.095
 4563TIP3    H213654   2.344   4.526   2.210
 4564TIP3   OH213655   6.595   5.479   2.993
 4564TIP3    H113656   6.663   5.546   2.981
 4564TIP3    H213657   6.644   5.399   3.012
 4565TIP3   OH213658   2.456   2.780   1.032
 4565TIP3    H113659   2.498   2.800   1.116
 4565TIP3    H213660   2.511   2.712   0.993
 4566TIP3   OH213661   2.854   1.223   1.888
 4566TIP3    H113662   2.776   1.269   1.857
 4566TIP3    H213663   2.896   1.285   1.948
 4567TIP3   OH213664   2.015   4.742   3.498
 4567TIP3    H113665   1.949   4.805   3.526
 4567TIP3    H213666   2.048   4.777   3.415
 4568TIP3   OH213667   2.533   4.749   2.203
 4568TIP3    H113668   2.440   4.771   2.195
 4568TIP3    H213669   2.545   4.729   2.296
 4569TIP3   OH213670   0.680   6.157   5.780
 4569TIP3    H113671   0.687   6.248   5.752
 4569TIP3    H213672   0.704   6.106   5.703
 4570TIP3   OH213673   2.820   3.692   3.180
 4570TIP3    H113674   2.843   3.732   3.096
 4570TIP3    H213675   2.831   3.598   3.165
 4571TIP3   OH213676   1.462   0.755   1.136
 4571TIP3    H113677   1.412   0.815   1.081
 4571TIP3    H213678   1.509   0.812   1.197
 4572TIP3   OH213679   7.195   1.189   5.773
 4572TIP3    H113680   7.123   1.211   5.714
 4572TIP3    H213681   7.210   1.270   5.823
 4573TIP3   OH213682   1.421   4.651   4.668
 4573TIP3    H113683   1.506   4.609   4.655
 4573TIP3    H213684   1.422   4.727   4.610
 4574TIP3   OH213685   2.927   5.075   3.816
 4574TIP3    H113686   2.911   4.998   3.870
 4574TIP3    H213687   3.000   5.120   3.859
 4575TIP3   OH213688   4.609   5.503   4.676
 4575TIP3    H113689   4.681   5.442   4.658
 4575TIP3    H213690   4.619   5.526   4.769
 4576TIP3   OH213691   7.135   2.621   0.583
 4576TIP3    H113692   7.123   2.548   0.643
 4576TIP3    H213693   7.165   2.581   0.502
 4577TIP3   OH213694   4.478   1.619   0.897
 4577TIP3    H113695   4.432   1.612   0.813
 4577TIP3    H213696   4.415   1.660   0.956
 4578TIP3   OH213697   4.620   3.546   0.558
 4578TIP3    H113698   4.684   3.479   0.536
 4578TIP3    H213699   4.630   3.559   0.652
 4579TIP3   OH213700   0.122   1.881   5.312
 4579TIP3    H113701   0.147   1.936   5.386
 4579TIP3    H213702   0.065   1.937   5.259
 4580TIP3   OH213703   5.807   3.139   2.465
 4580TIP3    H113704   5.856   3.181   2.535
 4580TIP3    H213705   5.872   3.121   2.397
 4581TIP3   OH213706   2.607   2.566   4.065
 4581TIP3    H113707   2.533   2.626   4.062
 4581TIP3    H213708   2.593   2.506   3.993
 4582TIP3   OH213709   2.099   2.073   0.527
 4582TIP3    H113710   2.009   2.079   0.497
 4582TIP3    H213711   2.143   2.149   0.488
 4583TIP3   OH213712   3.067   3.128   5.078
 4583TIP3    H113713   3.137   3.073   5.112
 4583TIP3    H213714   3.070   3.114   4.983
 4584TIP3   OH213715   6.148   2.105  -0.033
 4584TIP3    H113716   6.192   2.188  -0.013
 4584TIP3    H213717   6.081   2.097   0.034
 4585TIP3   OH213718   2.083   1.685   2.130
 4585TIP3    H113719   2.138   1.609   2.150
 4585TIP3    H213720   2.000   1.665   2.173
 4586TIP3   OH213721   2.584   1.942   4.493
 4586TIP3    H113722   2.546   1.942   4.405
 4586TIP3    H213723   2.602   2.034   4.510
 4587TIP3   OH213724   4.405   0.730   5.850
 4587TIP3    H113725   4.339   0.670   5.884
 4587TIP3    H213726   4.477   0.725   5.913
 4588TIP3   OH213727   5.027   0.638   5.785
 4588TIP3    H113728   5.098   0.584   5.821
 4588TIP3    H213729   4.949   0.582   5.791
 4589TIP3   OH213730   7.208   4.278   3.367
 4589TIP3    H113731   7.212   4.214   3.438
 4589TIP3    H213732   7.132   4.252   3.315
 4590TIP3   OH213733   5.669   4.897   1.251
 4590TIP3    H113734   5.616   4.973   1.275
 4590TIP3    H213735   5.633   4.867   1.168
 4591TIP3   OH213736   2.999   6.570   0.336
 4591TIP3    H113737   2.957   6.652   0.311
 4591TIP3    H213738   3.072   6.561   0.275
 4592TIP3   OH213739   5.700   0.342   1.820
 4592TIP3    H113740   5.724   0.253   1.844
 4592TIP3    H213741   5.633   0.332   1.753
 4593TIP3   OH213742   6.031   2.760   5.491
 4593TIP3    H113743   5.963   2.693   5.489
 4593TIP3    H213744   6.053   2.771   5.583
 4594TIP3   OH213745   5.962   3.020   3.897
 4594TIP3    H113746   6.017   3.067   3.835
 4594TIP3    H213747   5.997   3.044   3.983
 4595TIP3   OH213748   0.187   6.235   5.319
 4595TIP3    H113749   0.119   6.275   5.373
 4595TIP3    H213750   0.141   6.166   5.270
 4596TIP3   OH213751   6.163   0.749   4.568
 4596TIP3    H113752   6.181   0.843   4.560
 4596TIP3    H213753   6.238   0.707   4.526
 4597TIP3   OH213754   1.407   1.950   0.433
 4597TIP3    H113755   1.441   1.923   0.348
 4597TIP3    H213756   1.455   1.896   0.496
 4598TIP3   OH213757   0.560   6.657   4.970
 4598TIP3    H113758   0.642   6.613   4.991
 4598TIP3    H213759   0.584   6.749   4.960
 4599TIP3   OH213760   3.392   6.535   5.767
 4599TIP3    H113761   3.320   6.487   5.810
 4599TIP3    H213762   3.402   6.614   5.820
 4600TIP3   OH213763   1.523   3.810   4.184
 4600TIP3    H113764   1.619   3.811   4.185
 4600TIP3    H213765   1.499   3.884   4.129
 4601TIP3   OH213766   6.624   3.763   5.153
 4601TIP3    H113767   6.582   3.689   5.109
 4601TIP3    H213768   6.554   3.828   5.163
 4602TIP3   OH213769   6.276   5.642   4.043
 4602TIP3    H113770   6.338   5.576   4.013
 4602TIP3    H213771   6.207   5.643   3.977
 4603TIP3   OH213772   6.372   6.276   1.050
 4603TIP3    H113773   6.352   6.370   1.051
 4603TIP3    H213774   6.291   6.235   1.019
 4604TIP3   OH213775   0.696   6.261   3.465
 4604TIP3    H113776   0.790   6.270   3.449
 4604TIP3    H213777   0.682   6.166   3.473
 4605TIP3   OH213778   2.335   0.893   4.865
 4605TIP3    H113779   2.334   0.813   4.917
 4605TIP3    H213780   2.243   0.909   4.844
 4606TIP3   OH213781   6.267   3.674   2.453
 4606TIP3    H113782   6.313   3.643   2.375
 4606TIP3    H213783   6.228   3.595   2.490
 4607TIP3   OH213784   4.638   2.937   5.038
 4607TIP3    H113785   4.550   2.976   5.036
 4607TIP3    H213786   4.653   2.916   5.130
 4608TIP3   OH213787   3.244   6.328   0.778
 4608TIP3    H113788   3.264   6.366   0.692
 4608TIP3    H213789   3.327   6.326   0.824
 4609TIP3   OH213790   4.522   2.221   1.116
 4609TIP3    H113791   4.528   2.230   1.211
 4609TIP3    H213792   4.476   2.299   1.087
 4610TIP3   OH213793   4.236   2.099   5.804
 4610TIP3    H113794   4.156   2.105   5.752
 4610TIP3    H213795   4.305   2.129   5.745
 4611TIP3   OH213796   0.694   0.956   3.023
 4611TIP3    H113797   0.711   0.980   3.114
 4611TIP3    H213798   0.604   0.923   3.023
 4612TIP3   OH213799   3.915   5.209   3.747
 4612TIP3    H113800   3.924   5.278   3.681
 4612TIP3    H213801   3.905   5.129   3.696
 4613TIP3   OH213802   3.654   3.599   1.063
 4613TIP3    H113803   3.744   3.588   1.031
 4613TIP3    H213804   3.609   3.647   0.993
 4614TIP3   OH213805   3.483   3.201   1.012
 4614TIP3    H113806   3.420   3.135   0.984
 4614TIP3    H213807   3.535   3.157   1.080
 4615TIP3   OH213808   4.375   0.127   2.705
 4615TIP3    H113809   4.450   0.125   2.764
 4615TIP3    H213810   4.412   0.147   2.619
 4616TIP3   OH213811   6.015   0.936   3.798
 4616TIP3    H113812   6.020   0.866   3.733
 4616TIP3    H213813   6.047   1.013   3.751
 4617TIP3   OH213814   0.914   5.107   3.432
 4617TIP3    H113815   0.873   5.021   3.429
 4617TIP3    H213816   0.841   5.169   3.434
 4618TIP3   OH213817   5.262   6.462   1.877
 4618TIP3    H113818   5.178   6.433   1.912
 4618TIP3    H213819   5.271   6.552   1.906
 4619TIP3   OH213820   1.319   1.490   3.324
 4619TIP3    H113821   1.304   1.532   3.409
 4619TIP3    H213822   1.231   1.473   3.290
 4620TIP3   OH213823   7.073   0.731   0.624
 4620TIP3    H113824   7.087   0.640   0.652
 4620TIP3    H213825   7.015   0.723   0.548
 4621TIP3   OH213826   6.221   3.945   0.724
 4621TIP3    H113827   6.274   3.960   0.645
 4621TIP3    H213828   6.285   3.932   0.794
 4622TIP3   OH213829   1.475   2.934   5.571
 4622TIP3    H113830   1.503   2.890   5.652
 4622TIP3    H213831   1.380   2.931   5.573
 4623TIP3   OH213832   6.654   3.892   3.564
 4623TIP3    H113833   6.680   3.932   3.647
 4623TIP3    H213834   6.597   3.820   3.589
 4624TIP3   OH213835   1.777   4.006   0.033
 4624TIP3    H113836   1.866   3.989   0.001
 4624TIP3    H213837   1.767   3.944   0.106
 4625TIP3   OH213838   0.587   5.328   4.005
 4625TIP3    H113839   0.677   5.322   3.974
 4625TIP3    H213840   0.587   5.402   4.066
 4626TIP3   OH213841   3.125   4.595   0.778
 4626TIP3    H113842   3.047   4.622   0.826
 4626TIP3    H213843   3.154   4.515   0.823
 4627TIP3   OH213844   0.127   6.484   3.933
 4627TIP3    H113845   0.184   6.450   4.001
 4627TIP3    H213846   0.053   6.523   3.980
 4628TIP3   OH213847   6.530   2.889   5.271
 4628TIP3    H113848   6.506   2.871   5.362
 4628TIP3    H213849   6.582   2.969   5.275
 4629TIP3   OH213850   2.919   1.781   3.054
 4629TIP3    H113851   2.929   1.797   2.960
 4629TIP3    H213852   2.977   1.845   3.095
 4630TIP3   OH213853   1.715   3.113   0.422
 4630TIP3    H113854   1.640   3.054   0.420
 4630TIP3    H213855   1.740   3.116   0.514
 4631TIP3   OH213856   3.482   3.407   0.861
 4631TIP3    H113857   3.433   3.453   0.929
 4631TIP3    H213858   3.463   3.314   0.876
 4632TIP3   OH213859   2.294   4.024   3.581
 4632TIP3    H113860   2.316   4.103   3.631
 4632TIP3    H213861   2.372   3.968   3.588
 4633TIP3   OH213862   0.644   2.454   2.453
 4633TIP3    H113863   0.616   2.541   2.480
 4633TIP3    H213864   0.702   2.424   2.523
 4634TIP3   OH213865   1.678   5.005   5.324
 4634TIP3    H113866   1.626   4.941   5.372
 4634TIP3    H213867   1.628   5.086   5.330
 4635TIP3   OH213868   3.757   0.674   5.135
 4635TIP3    H113869   3.774   0.680   5.229
 4635TIP3    H213870   3.779   0.761   5.102
 4636TIP3   OH213871   5.519   6.188   5.726
 4636TIP3    H113872   5.430   6.219   5.712
 4636TIP3    H213873   5.572   6.267   5.733
 4637TIP3   OH213874   0.332   4.641   0.447
 4637TIP3    H113875   0.351   4.699   0.521
 4637TIP3    H213876   0.248   4.600   0.469
 4638TIP3   OH213877   1.855   0.565   3.828
 4638TIP3    H113878   1.792   0.528   3.890
 4638TIP3    H213879   1.875   0.652   3.863
 4639TIP3   OH213880   2.360   3.331   2.570
 4639TIP3    H113881   2.336   3.415   2.611
 4639TIP3    H213882   2.301   3.324   2.495
 4640TIP3   OH213883   4.793   1.809   2.631
 4640TIP3    H113884   4.742   1.729   2.619
 4640TIP3    H213885   4.869   1.782   2.682
 4641TIP3   OH213886   1.444   0.328   3.295
 4641TIP3    H113887   1.500   0.403   3.311
 4641TIP3    H213888   1.455   0.309   3.201
 4642TIP3   OH213889   2.934   0.132   2.226
 4642TIP3    H113890   2.937   0.205   2.287
 4642TIP3    H213891   3.021   0.092   2.232
 4643TIP3   OH213892   0.245   6.270   3.720
 4643TIP3    H113893   0.312   6.320   3.766
 4643TIP3    H213894   0.200   6.220   3.788
 4644TIP3   OH213895   3.080   4.313   5.584
 4644TIP3    H113896   3.118   4.314   5.672
 4644TIP3    H213897   3.007   4.374   5.588
 4645TIP3   OH213898   5.036   2.017   5.196
 4645TIP3    H113899   5.022   2.104   5.234
 4645TIP3    H213900   5.073   1.965   5.267
 4646TIP3   OH213901   4.930   0.333   1.255
 4646TIP3    H113902   5.004   0.310   1.198
 4646TIP3    H213903   4.894   0.413   1.216
 4647TIP3   OH213904   2.393   5.691   0.650
 4647TIP3    H113905   2.441   5.660   0.574
 4647TIP3    H213906   2.309   5.645   0.647
 4648TIP3   OH213907   0.691   3.628   4.794
 4648TIP3    H113908   0.718   3.582   4.873
 4648TIP3    H213909   0.608   3.670   4.818
 4649TIP3   OH213910   4.808   6.692   2.937
 4649TIP3    H113911   4.818   6.625   2.870
 4649TIP3    H213912   4.752   6.652   3.003
 4650TIP3   OH213913   5.790   4.997   0.682
 4650TIP3    H113914   5.841   5.056   0.738
 4650TIP3    H213915   5.841   4.916   0.679
 4651TIP3   OH213916   3.001   6.468   0.582
 4651TIP3    H113917   2.976   6.496   0.494
 4651TIP3    H213918   3.097   6.465   0.580
 4652TIP3   OH213919   4.014   5.938   1.908
 4652TIP3    H113920   4.101   5.900   1.894
 4652TIP3    H213921   3.988   5.971   1.822
 4653TIP3   OH213922   6.464   5.010   4.600
 4653TIP3    H113923   6.412   5.048   4.530
 4653TIP3    H213924   6.546   4.984   4.558
 4654TIP3   OH213925   1.456   6.200   5.432
 4654TIP3    H113926   1.536   6.159   5.399
 4654TIP3    H213927   1.459   6.185   5.526
 4655TIP3   OH213928   0.220   6.205   2.674
 4655TIP3    H113929   0.176   6.281   2.713
 4655TIP3    H213930   0.254   6.156   2.749
 4656TIP3   OH213931   4.851   3.459   5.594
 4656TIP3    H113932   4.906   3.537   5.583
 4656TIP3    H213933   4.780   3.488   5.650
 4657TIP3   OH213934   0.449   3.097   4.352
 4657TIP3    H113935   0.501   3.030   4.308
 4657TIP3    H213936   0.492   3.107   4.437
 4658TIP3   OH213937   3.326   6.827   1.004
 4658TIP3    H113938   3.352   6.745   0.960
 4658TIP3    H213939   3.267   6.799   1.074
 4659TIP3   OH213940   5.795   1.121   1.567
 4659TIP3    H113941   5.883   1.089   1.547
 4659TIP3    H213942   5.786   1.110   1.662
 4660TIP3   OH213943   3.188   6.429   4.983
 4660TIP3    H113944   3.168   6.452   5.073
 4660TIP3    H213945   3.254   6.360   4.990
 4661TIP3   OH213946   3.799   0.111   3.377
 4661TIP3    H113947   3.749   0.193   3.375
 4661TIP3    H213948   3.804   0.089   3.470
 4662TIP3   OH213949   5.147   5.038   1.490
 4662TIP3    H113950   5.052   5.031   1.500
 4662TIP3    H213951   5.179   5.062   1.577
 4663TIP3   OH213952   3.430   6.613   0.820
 4663TIP3    H113953   3.391   6.564   0.747
 4663TIP3    H213954   3.492   6.673   0.778
 4664TIP3   OH213955   4.499   4.765   1.607
 4664TIP3    H113956   4.593   4.769   1.595
 4664TIP3    H213957   4.473   4.684   1.562
 4665TIP3   OH213958   5.773   2.701   3.712
 4665TIP3    H113959   5.775   2.630   3.775
 4665TIP3    H213960   5.865   2.724   3.698
 4666TIP3   OH213961   4.878   4.959   5.200
 4666TIP3    H113962   4.939   5.012   5.149
 4666TIP3    H213963   4.791   4.994   5.178
 4667TIP3   OH213964   0.287   0.207   0.119
 4667TIP3    H113965   0.222   0.205   0.189
 4667TIP3    H213966   0.290   0.298   0.091
 4668TIP3   OH213967   6.130   0.617   3.257
 4668TIP3    H113968   6.067   0.618   3.329
 4668TIP3    H213969   6.183   0.695   3.270
 4669TIP3   OH213970   3.490   3.051   4.857
 4669TIP3    H113971   3.529   2.977   4.904
 4669TIP3    H213972   3.406   3.018   4.825
 4670TIP3   OH213973   6.378   3.796   0.889
 4670TIP3    H113974   6.426   3.866   0.935
 4670TIP3    H213975   6.370   3.727   0.955
 4671TIP3   OH213976   2.330   2.456   1.586
 4671TIP3    H113977   2.326   2.420   1.675
 4671TIP3    H213978   2.313   2.381   1.529
 4672TIP3   OH213979   0.439   4.050   3.053
 4672TIP3    H113980   0.347   4.049   3.026
 4672TIP3    H213981   0.485   4.003   2.983
 4673TIP3   OH213982   5.949   0.312   4.277
 4673TIP3    H113983   5.945   0.396   4.230
 4673TIP3    H213984   5.859   0.294   4.302
 4674TIP3   OH213985   2.481   3.001   4.667
 4674TIP3    H113986   2.498   3.000   4.573
 4674TIP3    H213987   2.392   3.037   4.675
 4675TIP3   OH213988   6.034   3.076   0.455
 4675TIP3    H113989   6.032   2.985   0.427
 4675TIP3    H213990   5.979   3.122   0.392
 4676TIP3   OH213991   3.725   1.154   2.125
 4676TIP3    H113992   3.770   1.236   2.141
 4676TIP3    H213993   3.634   1.180   2.108
 4677TIP3   OH213994   4.756   2.169   4.571
 4677TIP3    H113995   4.752   2.082   4.610
 4677TIP3    H213996   4.723   2.157   4.482
 4678TIP3   OH213997   2.533   5.529   5.131
 4678TIP3    H113998   2.594   5.519   5.058
 4678TIP3    H213999   2.576   5.591   5.190
 4679TIP3   OH214000   3.752   0.807   1.286
 4679TIP3    H114001   3.823   0.850   1.238
 4679TIP3    H214002   3.717   0.875   1.344
 4680TIP3   OH214003   6.352   0.298   5.555
 4680TIP3    H114004   6.411   0.357   5.601
 4680TIP3    H214005   6.331   0.230   5.619
 4681TIP3   OH214006   2.597   6.689   5.061
 4681TIP3    H114007   2.669   6.750   5.072
 4681TIP3    H214008   2.544   6.699   5.140
 4682TIP3   OH214009   1.544   2.378   4.036
 4682TIP3    H114010   1.527   2.366   4.130
 4682TIP3    H214011   1.627   2.333   4.021
 4683TIP3   OH214012   5.876   5.482   1.206
 4683TIP3    H114013   5.954   5.464   1.259
 4683TIP3    H214014   5.832   5.554   1.251
 4684TIP3   OH214015   6.350   3.280   2.881
 4684TIP3    H114016   6.255   3.285   2.885
 4684TIP3    H214017   6.379   3.371   2.871
 4685TIP3   OH214018   5.716   5.277   5.790
 4685TIP3    H114019   5.785   5.253   5.851
 4685TIP3    H214020   5.748   5.249   5.704
 4686TIP3   OH214021   3.030   5.948   2.838
 4686TIP3    H114022   2.949   5.898   2.831
 4686TIP3    H214023   3.011   6.033   2.797
 4687TIP3   OH214024   5.693   1.221   4.162
 4687TIP3    H114025   5.676   1.128   4.149
 4687TIP3    H214026   5.768   1.241   4.106
 4688TIP3   OH214027   6.445   2.044   2.101
 4688TIP3    H114028   6.388   2.005   2.167
 4688TIP3    H214029   6.387   2.103   2.052
 4689TIP3   OH214030   1.672   0.941   2.756
 4689TIP3    H114031   1.636   1.019   2.798
 4689TIP3    H214032   1.672   0.962   2.662
 4690TIP3   OH214033   5.767   1.959   1.829
 4690TIP3    H114034   5.770   1.891   1.896
 4690TIP3    H214035   5.826   1.928   1.761
 4691TIP3   OH214036   5.064   5.958   4.936
 4691TIP3    H114037   5.156   5.936   4.928
 4691TIP3    H214038   5.035   5.914   5.016
 4692TIP3   OH214039   0.195   3.565   5.439
 4692TIP3    H114040   0.232   3.482   5.411
 4692TIP3    H214041   0.101   3.549   5.446
 4693TIP3   OH214042   6.861   5.700   0.373
 4693TIP3    H114043   6.866   5.609   0.402
 4693TIP3    H214044   6.800   5.697   0.299
 4694TIP3   OH214045   3.439   1.761   2.843
 4694TIP3    H114046   3.355   1.802   2.825
 4694TIP3    H214047   3.423   1.705   2.919
 4695TIP3   OH214048   3.803   4.275   1.544
 4695TIP3    H114049   3.856   4.339   1.496
 4695TIP3    H214050   3.847   4.264   1.628
 4696TIP3   OH214051   0.904   3.590   1.415
 4696TIP3    H114052   0.959   3.608   1.491
 4696TIP3    H214053   0.842   3.663   1.412
 4697TIP3   OH214054   4.102   2.162   3.583
 4697TIP3    H114055   4.061   2.090   3.631
 4697TIP3    H214056   4.084   2.239   3.636
 4698TIP3   OH214057   1.667   6.154   0.443
 4698TIP3    H114058   1.712   6.070   0.437
 4698TIP3    H214059   1.586   6.141   0.395
 4699TIP3   OH214060   0.920   1.266   5.303
 4699TIP3    H114061   1.012   1.245   5.287
 4699TIP3    H214062   0.921   1.359   5.328
 4700TIP3   OH214063   0.855   4.826   1.371
 4700TIP3    H114064   0.853   4.769   1.294
 4700TIP3    H214065   0.807   4.905   1.344
 4701TIP3   OH214066   0.678   4.573   5.420
 4701TIP3    H114067   0.750   4.632   5.399
 4701TIP3    H214068   0.721   4.493   5.452
 4702TIP3   OH214069   7.095   5.042   4.272
 4702TIP3    H114070   7.143   5.115   4.313
 4702TIP3    H214071   7.139   4.963   4.304
 4703TIP3   OH214072   1.215   1.615   0.330
 4703TIP3    H114073   1.139   1.634   0.275
 4703TIP3    H214074   1.288   1.606   0.268
 4704TIP3   OH214075   3.663   6.815   2.220
 4704TIP3    H114076   3.692   6.830   2.131
 4704TIP3    H214077   3.567   6.818   2.215
 4705TIP3   OH214078   7.063   5.768   1.902
 4705TIP3    H114079   7.134   5.820   1.940
 4705TIP3    H214080   7.083   5.766   1.808
 4706TIP3   OH214081   3.612   0.038   5.543
 4706TIP3    H114082   3.599  -0.045   5.589
 4706TIP3    H214083   3.702   0.036   5.513
 4707TIP3   OH214084   2.087   2.338   4.561
 4707TIP3    H114085   2.113   2.295   4.479
 4707TIP3    H214086   2.130   2.286   4.629
 4708TIP3   OH214087   6.558   2.870   2.855
 4708TIP3    H114088   6.606   2.791   2.831
 4708TIP3    H214089   6.549   2.864   2.951
 4709TIP3   OH214090   2.628   5.652   1.200
 4709TIP3    H114091   2.705   5.595   1.210
 4709TIP3    H214092   2.642   5.723   1.262
 4710TIP3   OH214093   5.343   5.984   4.941
 4710TIP3    H114094   5.434   5.992   4.968
 4710TIP3    H214095   5.348   5.969   4.846
 4711TIP3   OH214096   0.535   4.061   5.526
 4711TIP3    H114097   0.475   4.046   5.600
 4711TIP3    H214098   0.565   3.973   5.501
 4712TIP3   OH214099   5.440   0.701   4.211
 4712TIP3    H114100   5.355   0.683   4.254
 4712TIP3    H214101   5.417   0.747   4.131
 4713TIP3   OH214102   1.035   5.980   2.379
 4713TIP3    H114103   0.985   5.919   2.325
 4713TIP3    H214104   0.979   6.058   2.385
 4714TIP3   OH214105   6.096   5.772   2.782
 4714TIP3    H114106   6.098   5.797   2.689
 4714TIP3    H214107   6.004   5.763   2.803
 4715TIP3   OH214108   3.868   4.800   3.325
 4715TIP3    H114109   3.939   4.780   3.387
 4715TIP3    H214110   3.789   4.801   3.379
 4716TIP3   OH214111   4.830   3.289   5.374
 4716TIP3    H114112   4.840   3.341   5.454
 4716TIP3    H214113   4.873   3.206   5.394
 4717TIP3   OH214114   3.826   4.949   5.057
 4717TIP3    H114115   3.829   4.907   4.971
 4717TIP3    H214116   3.826   5.043   5.037
 4718TIP3   OH214117   2.126   6.285   4.674
 4718TIP3    H114118   2.035   6.309   4.658
 4718TIP3    H214119   2.163   6.273   4.586
 4719TIP3   OH214120   2.233   4.922   4.005
 4719TIP3    H114121   2.201   4.886   3.922
 4719TIP3    H214122   2.328   4.916   3.999
 4720TIP3   OH214123   2.818   0.207   1.445
 4720TIP3    H114124   2.728   0.210   1.411
 4720TIP3    H214125   2.841   0.114   1.442
 4721TIP3   OH214126   2.511   6.036   3.029
 4721TIP3    H114127   2.575   6.102   3.052
 4721TIP3    H214128   2.563   5.963   2.994
 4722TIP3   OH214129   6.306   5.999   0.862
 4722TIP3    H114130   6.358   6.006   0.942
 4722TIP3    H214131   6.251   5.923   0.876
 4723TIP3   OH214132   3.312   0.673   2.516
 4723TIP3    H114133   3.364   0.728   2.574
 4723TIP3    H214134   3.292   0.595   2.568
 4724TIP3   OH214135   6.081   3.451   4.423
 4724TIP3    H114136   6.154   3.473   4.364
 4724TIP3    H214137   6.049   3.536   4.453
 4725TIP3   OH214138   3.594   3.726   0.585
 4725TIP3    H114139   3.575   3.775   0.666
 4725TIP3    H214140   3.649   3.785   0.534
 4726TIP3   OH214141   1.778   4.043   0.441
 4726TIP3    H114142   1.808   3.962   0.400
 4726TIP3    H214143   1.843   4.108   0.417
 4727TIP3   OH214144   2.614   0.338   2.053
 4727TIP3    H114145   2.677   0.266   2.044
 4727TIP3    H214146   2.561   0.314   2.129
 4728TIP3   OH214147   4.023   4.410   3.640
 4728TIP3    H114148   4.047   4.340   3.579
 4728TIP3    H214149   3.932   4.391   3.663
 4729TIP3   OH214150   1.643   0.090   1.294
 4729TIP3    H114151   1.580   0.122   1.359
 4729TIP3    H214152   1.635  -0.005   1.297
 4730TIP3   OH214153   0.729   4.412   0.088
 4730TIP3    H114154   0.634   4.416   0.088
 4730TIP3    H214155   0.750   4.336   0.142
 4731TIP3   OH214156   0.486   0.785   2.434
 4731TIP3    H114157   0.529   0.750   2.356
 4731TIP3    H214158   0.447   0.868   2.405
 4732TIP3   OH214159   7.146   6.521   1.513
 4732TIP3    H114160   7.123   6.483   1.428
 4732TIP3    H214161   7.194   6.601   1.491
 4733TIP3   OH214162   0.228   6.193   4.663
 4733TIP3    H114163   0.183   6.267   4.622
 4733TIP3    H214164   0.300   6.172   4.603
 4734TIP3   OH214165   6.959   1.395   1.305
 4734TIP3    H114166   6.978   1.461   1.371
 4734TIP3    H214167   6.911   1.327   1.351
 4735TIP3   OH214168   2.342   0.534   4.789
 4735TIP3    H114169   2.261   0.487   4.809
 4735TIP3    H214170   2.357   0.588   4.867
 4736TIP3   OH214171   0.135   0.741   5.216
 4736TIP3    H114172   0.156   0.658   5.172
 4736TIP3    H214173   0.086   0.716   5.294
 4737TIP3   OH214174   6.025   3.989   3.491
 4737TIP3    H114175   5.989   3.999   3.403
 4737TIP3    H214176   5.964   4.038   3.548
 4738TIP3   OH214177   0.871   5.855   3.937
 4738TIP3    H114178   0.866   5.820   3.848
 4738TIP3    H214179   0.943   5.917   3.935
 4739TIP3   OH214180   5.805   5.813   2.277
 4739TIP3    H114181   5.802   5.869   2.199
 4739TIP3    H214182   5.891   5.771   2.272
 4740TIP3   OH214183   0.132   3.162   3.572
 4740TIP3    H114184   0.130   3.117   3.488
 4740TIP3    H214185   0.211   3.216   3.569
 4741TIP3   OH214186   1.634   6.629   0.391
 4741TIP3    H114187   1.583   6.633   0.472
 4741TIP3    H214188   1.602   6.703   0.339
 4742TIP3   OH214189   3.697   6.701   0.215
 4742TIP3    H114190   3.781   6.748   0.217
 4742TIP3    H214191   3.685   6.677   0.123
 4743TIP3   OH214192   7.081   1.809   4.136
 4743TIP3    H114193   7.175   1.807   4.153
 4743TIP3    H214194   7.062   1.902   4.122
 4744TIP3   OH214195   4.777   4.246   0.744
 4744TIP3    H114196   4.768   4.288   0.829
 4744TIP3    H214197   4.746   4.312   0.681
 4745TIP3   OH214198   3.465   6.652   3.490
 4745TIP3    H114199   3.401   6.722   3.498
 4745TIP3    H214200   3.527   6.669   3.561
 4746TIP3   OH214201   5.999   4.422   3.478
 4746TIP3    H114202   5.919   4.466   3.507
 4746TIP3    H214203   6.026   4.370   3.553
 4747TIP3   OH214204   0.066   1.593   3.737
 4747TIP3    H114205   0.050   1.623   3.826
 4747TIP3    H214206   0.054   1.671   3.682
 4748TIP3   OH214207   4.810   5.489   1.427
 4748TIP3    H114208   4.789   5.464   1.337
 4748TIP3    H214209   4.852   5.575   1.419
 4749TIP3   OH214210   4.996   4.887   1.815
 4749TIP3    H114211   5.057   4.931   1.874
 4749TIP3    H214212   4.996   4.795   1.844
 4750TIP3   OH214213   6.026   2.396   4.853
 4750TIP3    H114214   6.105   2.343   4.844
 4750TIP3    H214215   6.053   2.472   4.904
 4751TIP3   OH214216   4.391   2.566   4.770
 4751TIP3    H114217   4.419   2.574   4.678
 4751TIP3    H214218   4.424   2.646   4.811
 4752TIP3   OH214219   5.184   6.085   0.800
 4752TIP3    H114220   5.195   6.041   0.884
 4752TIP3    H214221   5.147   6.018   0.742
 4753TIP3   OH214222   5.146   2.035   4.083
 4753TIP3    H114223   5.057   2.008   4.059
 4753TIP3    H214224   5.176   1.966   4.143
 4754TIP3   OH214225   1.438   2.516   5.648
 4754TIP3    H114226   1.385   2.596   5.643
 4754TIP3    H214227   1.456   2.505   5.742
 4755TIP3   OH214228   4.361   2.264   0.103
 4755TIP3    H114229   4.419   2.339   0.090
 4755TIP3    H214230   4.416   2.197   0.142
 4756TIP3   OH214231   3.527   0.546   2.288
 4756TIP3    H114232   3.616   0.574   2.267
 4756TIP3    H214233   3.494   0.506   2.208
 4757TIP3   OH214234   2.853   2.155   1.549
 4757TIP3    H114235   2.781   2.154   1.612
 4757TIP3    H214236   2.932   2.162   1.603
 4758TIP3   OH214237   6.877   3.207   0.390
 4758TIP3    H114238   6.966   3.228   0.363
 4758TIP3    H214239   6.878   3.218   0.485
 4759TIP3   OH214240   2.390   3.507   0.821
 4759TIP3    H114241   2.446   3.457   0.762
 4759TIP3    H214242   2.451   3.560   0.872
 4760TIP3   OH214243   5.078   4.280   1.225
 4760TIP3    H114244   5.037   4.237   1.150
 4760TIP3    H214245   5.004   4.311   1.278
 4761TIP3   OH214246   1.305   6.121   0.561
 4761TIP3    H114247   1.247   6.044   0.564
 4761TIP3    H214248   1.341   6.120   0.473
 4762TIP3   OH214249   6.450   2.112   3.885
 4762TIP3    H114250   6.471   2.192   3.836
 4762TIP3    H214251   6.401   2.143   3.961
 4763TIP3   OH214252   3.328   3.463   0.336
 4763TIP3    H114253   3.296   3.472   0.246
 4763TIP3    H214254   3.287   3.383   0.369
 4764TIP3   OH214255   6.149   6.366   3.546
 4764TIP3    H114256   6.097   6.429   3.497
 4764TIP3    H214257   6.180   6.304   3.480
 4765TIP3   OH214258   5.557   1.456   4.613
 4765TIP3    H114259   5.473   1.499   4.628
 4765TIP3    H214260   5.610   1.477   4.690
 4766TIP3   OH214261   5.440   4.747   0.619
 4766TIP3    H114262   5.451   4.830   0.664
 4766TIP3    H214263   5.527   4.708   0.616
 4767TIP3   OH214264   2.581   3.155   1.781
 4767TIP3    H114265   2.594   3.249   1.779
 4767TIP3    H214266   2.487   3.144   1.799
 4768TIP3   OH214267   4.701   2.348   1.542
 4768TIP3    H114268   4.725   2.336   1.634
 4768TIP3    H214269   4.613   2.385   1.546
 4769TIP3   OH214270   3.727   4.963   0.638
 4769TIP3    H114271   3.723   4.872   0.609
 4769TIP3    H214272   3.762   5.010   0.563
 4770TIP3   OH214273   0.485   4.147   2.293
 4770TIP3    H114274   0.512   4.123   2.205
 4770TIP3    H214275   0.529   4.230   2.310
 4771TIP3   OH214276   4.909   1.648   5.606
 4771TIP3    H114277   4.989   1.690   5.637
 4771TIP3    H214278   4.921   1.555   5.626
 4772TIP3   OH214279   4.200   6.557   2.327
 4772TIP3    H114280   4.136   6.621   2.358
 4772TIP3    H214281   4.193   6.560   2.231
 4773TIP3   OH214282   3.455   0.808   2.285
 4773TIP3    H114283   3.493   0.731   2.327
 4773TIP3    H214284   3.475   0.880   2.345
 4774TIP3   OH214285   4.972   6.219   1.774
 4774TIP3    H114286   4.914   6.179   1.839
 4774TIP3    H214287   4.967   6.313   1.791
 4775TIP3   OH214288   2.264   4.889   5.251
 4775TIP3    H114289   2.184   4.914   5.205
 4775TIP3    H214290   2.266   4.945   5.328
 4776TIP3   OH214291   4.169   2.911   3.233
 4776TIP3    H114292   4.128   2.827   3.251
 4776TIP3    H214293   4.146   2.930   3.142
 4777TIP3   OH214294   2.212   0.517   0.265
 4777TIP3    H114295   2.182   0.598   0.307
 4777TIP3    H214296   2.218   0.454   0.336
 4778TIP3   OH214297   4.930   3.700   1.666
 4778TIP3    H114298   4.865   3.739   1.724
 4778TIP3    H214299   5.011   3.702   1.717
 4779TIP3   OH214300   5.282   1.319   1.113
 4779TIP3    H114301   5.206   1.266   1.089
 4779TIP3    H214302   5.268   1.340   1.206
 4780TIP3   OH214303   4.681   6.446   2.846
 4780TIP3    H114304   4.776   6.434   2.858
 4780TIP3    H214305   4.664   6.416   2.757
 4781TIP3   OH214306   1.950   4.991   5.308
 4781TIP3    H114307   1.970   5.022   5.219
 4781TIP3    H214308   1.863   5.025   5.326
 4782TIP3   OH214309   5.706   4.134   1.768
 4782TIP3    H114310   5.749   4.049   1.758
 4782TIP3    H214311   5.648   4.141   1.693
 4783TIP3   OH214312   3.965   6.260   2.973
 4783TIP3    H114313   4.006   6.309   2.902
 4783TIP3    H214314   3.914   6.191   2.930
 4784TIP3   OH214315   3.510   1.969   4.025
 4784TIP3    H114316   3.522   1.996   4.116
 4784TIP3    H214317   3.417   1.948   4.018
 4785TIP3   OH214318   6.552   1.071   5.183
 4785TIP3    H114319   6.516   1.113   5.261
 4785TIP3    H214320   6.608   1.001   5.216
 4786TIP3   OH214321   1.691   4.205   5.299
 4786TIP3    H114322   1.773   4.190   5.345
 4786TIP3    H214323   1.624   4.172   5.359
 4787TIP3   OH214324   4.981   3.437   1.945
 4787TIP3    H114325   5.046   3.368   1.932
 4787TIP3    H214326   5.019   3.514   1.903
 4788TIP3   OH214327   5.576   2.500   5.337
 4788TIP3    H114328   5.504   2.557   5.362
 4788TIP3    H214329   5.611   2.538   5.257
 4789TIP3   OH214330   6.318   6.316   5.728
 4789TIP3    H114331   6.365   6.375   5.787
 4789TIP3    H214332   6.365   6.323   5.645
 4790TIP3   OH214333   0.636   0.559   0.828
 4790TIP3    H114334   0.723   0.568   0.867
 4790TIP3    H214335   0.611   0.649   0.806
 4791TIP3   OH214336   5.997   0.687   3.652
 4791TIP3    H114337   5.972   0.745   3.580
 4791TIP3    H214338   5.996   0.600   3.614
 4792TIP3   OH214339   2.514   1.468   2.181
 4792TIP3    H114340   2.543   1.377   2.192
 4792TIP3    H214341   2.430   1.472   2.227
 4793TIP3   OH214342   6.045   2.813   2.088
 4793TIP3    H114343   5.952   2.821   2.111
 4793TIP3    H214344   6.065   2.893   2.039
 4794TIP3   OH214345   0.458   2.148   4.882
 4794TIP3    H114346   0.461   2.150   4.786
 4794TIP3    H214347   0.439   2.057   4.903
 4795TIP3   OH214348   5.160   3.905   5.077
 4795TIP3    H114349   5.217   3.862   5.141
 4795TIP3    H214350   5.137   3.988   5.118
 4796TIP3   OH214351   2.539   6.175   2.769
 4796TIP3    H114352   2.491   6.192   2.850
 4796TIP3    H214353   2.498   6.232   2.704
 4797TIP3   OH214354   4.234   0.220   3.780
 4797TIP3    H114355   4.289   0.217   3.858
 4797TIP3    H214356   4.281   0.277   3.719
 4798TIP3   OH214357   5.743   3.104   0.165
 4798TIP3    H114358   5.813   3.168   0.175
 4798TIP3    H214359   5.771   3.049   0.092
 4799TIP3   OH214360   6.062   2.952   2.570
 4799TIP3    H114361   6.123   2.886   2.602
 4799TIP3    H214362   6.004   2.969   2.645
 4800TIP3   OH214363   1.871   4.120   3.488
 4800TIP3    H114364   1.946   4.095   3.434
 4800TIP3    H214365   1.827   4.037   3.508
 4801TIP3   OH214366   0.559   3.113   0.079
 4801TIP3    H114367   0.643   3.117   0.125
 4801TIP3    H214368   0.581   3.134  -0.012
 4802TIP3   OH214369   3.762   0.436   5.606
 4802TIP3    H114370   3.706   0.510   5.628
 4802TIP3    H214371   3.733   0.365   5.663
 4803TIP3   OH214372   6.317   5.029   1.784
 4803TIP3    H114373   6.304   4.937   1.760
 4803TIP3    H214374   6.230   5.068   1.774
 4804TIP3   OH214375   5.741   2.373   4.121
 4804TIP3    H114376   5.785   2.310   4.064
 4804TIP3    H214377   5.661   2.396   4.074
 4805TIP3   OH214378   3.064   4.272   1.630
 4805TIP3    H114379   3.081   4.217   1.554
 4805TIP3    H214380   3.107   4.226   1.703
 4806TIP3   OH214381   6.168   5.499   2.357
 4806TIP3    H114382   6.132   5.525   2.442
 4806TIP3    H214383   6.147   5.407   2.349
 4807TIP3   OH214384   4.459   2.154   4.763
 4807TIP3    H114385   4.523   2.083   4.750
 4807TIP3    H214386   4.462   2.204   4.681
 4808TIP3   OH214387   4.114   3.286   1.971
 4808TIP3    H114388   4.047   3.343   1.935
 4808TIP3    H214389   4.068   3.228   2.031
 4809TIP3   OH214390   6.693   5.346   4.898
 4809TIP3    H114391   6.686   5.250   4.898
 4809TIP3    H214392   6.610   5.376   4.934
 4810TIP3   OH214393   6.338   2.910   5.744
 4810TIP3    H114394   6.396   2.850   5.697
 4810TIP3    H214395   6.396   2.953   5.808
 4811TIP3   OH214396   3.623   2.639   1.262
 4811TIP3    H114397   3.602   2.690   1.341
 4811TIP3    H214398   3.587   2.690   1.190
 4812TIP3   OH214399   0.279   2.373   2.876
 4812TIP3    H114400   0.226   2.295   2.858
 4812TIP3    H214401   0.267   2.428   2.799
 4813TIP3   OH214402   5.098   4.195   3.134
 4813TIP3    H114403   5.117   4.113   3.090
 4813TIP3    H214404   5.116   4.262   3.067
 4814TIP3   OH214405   6.547   5.109   2.903
 4814TIP3    H114406   6.572   5.106   2.995
 4814TIP3    H214407   6.603   5.044   2.860
 4815TIP3   OH214408   1.339   3.062   1.117
 4815TIP3    H114409   1.304   3.148   1.095
 4815TIP3    H214410   1.261   3.007   1.129
 4816TIP3   OH214411   3.350   4.469   1.221
 4816TIP3    H114412   3.300   4.501   1.295
 4816TIP3    H214413   3.441   4.470   1.251
 4817TIP3   OH214414   4.069   0.763   3.566
 4817TIP3    H114415   4.050   0.857   3.560
 4817TIP3    H214416   4.102   0.751   3.655
 4818TIP3   OH214417   4.101   1.477   1.299
 4818TIP3    H114418   4.172   1.513   1.352
 4818TIP3    H214419   4.145   1.430   1.228
 4819TIP3   OH214420   3.663   1.187   5.118
 4819TIP3    H114421   3.595   1.150   5.175
 4819TIP3    H214422   3.615   1.214   5.039
 4820TIP3   OH214423   7.136   0.116   2.034
 4820TIP3    H114424   7.204   0.175   2.067
 4820TIP3    H214425   7.183   0.053   1.979
 4821TIP3   OH214426   7.162   2.734   3.025
 4821TIP3    H114427   7.148   2.643   3.052
 4821TIP3    H214428   7.242   2.731   2.972
 4822TIP3   OH214429   7.067   4.250   2.890
 4822TIP3    H114430   7.143   4.210   2.847
 4822TIP3    H214431   7.092   4.342   2.901
 4823TIP3   OH214432   6.000   5.444   5.761
 4823TIP3    H114433   6.069   5.416   5.700
 4823TIP3    H214434   5.983   5.366   5.815
 4824TIP3   OH214435   5.420   0.720   3.406
 4824TIP3    H114436   5.420   0.746   3.313
 4824TIP3    H214437   5.474   0.786   3.449
 4825TIP3   OH214438   5.588   1.829   2.039
 4825TIP3    H114439   5.630   1.746   2.019
 4825TIP3    H214440   5.514   1.805   2.096
 4826TIP3   OH214441   1.024   2.978   3.451
 4826TIP3    H114442   0.941   2.940   3.480
 4826TIP3    H214443   1.041   2.937   3.367
 4827TIP3   OH214444   5.362   1.946   5.841
 4827TIP3    H114445   5.310   1.990   5.908
 4827TIP3    H214446   5.346   1.996   5.761
 4828TIP3   OH214447   4.466   6.169   3.828
 4828TIP3    H114448   4.520   6.235   3.872
 4828TIP3    H214449   4.378   6.183   3.863
 4829TIP3   OH214450   6.113   3.042   3.596
 4829TIP3    H114451   6.176   3.027   3.667
 4829TIP3    H214452   6.084   3.132   3.609
 4830TIP3   OH214453   1.101   1.868   2.480
 4830TIP3    H114454   1.183   1.820   2.467
 4830TIP3    H214455   1.059   1.867   2.394
 4831TIP3   OH214456   0.696   6.102   3.934
 4831TIP3    H114457   0.676   6.054   3.854
 4831TIP3    H214458   0.712   6.034   3.999
 4832TIP3   OH214459   2.577   4.933   3.944
 4832TIP3    H114460   2.640   4.910   4.012
 4832TIP3    H214461   2.608   5.017   3.910
 4833TIP3   OH214462   6.261   2.681   2.173
 4833TIP3    H114463   6.341   2.733   2.164
 4833TIP3    H214464   6.200   2.720   2.110
 4834TIP3   OH214465   2.790   3.730   0.450
 4834TIP3    H114466   2.832   3.661   0.501
 4834TIP3    H214467   2.696   3.719   0.467
 4835TIP3   OH214468   2.428   6.362   2.980
 4835TIP3    H114469   2.345   6.315   2.975
 4835TIP3    H214470   2.403   6.455   2.977
 4836TIP3   OH214471   3.962   6.776   0.155
 4836TIP3    H114472   3.958   6.851   0.096
 4836TIP3    H214473   4.054   6.749   0.152
 4837TIP3   OH214474   6.476   0.939   3.898
 4837TIP3    H114475   6.423   1.012   3.866
 4837TIP3    H214476   6.415   0.865   3.898
 4838TIP3   OH214477   1.369   1.924   4.675
 4838TIP3    H114478   1.293   1.954   4.624
 4838TIP3    H214479   1.400   2.003   4.720
 4839TIP3   OH214480   5.925   4.085   4.187
 4839TIP3    H114481   6.009   4.052   4.218
 4839TIP3    H214482   5.865   4.010   4.194
 4840TIP3   OH214483   3.278   3.020   0.509
 4840TIP3    H114484   3.240   2.936   0.485
 4840TIP3    H214485   3.363   3.021   0.464
 4841TIP3   OH214486   2.119   2.796   0.213
 4841TIP3    H114487   2.088   2.715   0.173
 4841TIP3    H214488   2.065   2.808   0.290
 4842TIP3   OH214489   0.121   0.964   3.379
 4842TIP3    H114490   0.089   1.035   3.435
 4842TIP3    H214491   0.137   1.005   3.294
 4843TIP3   OH214492   3.472   4.855   4.310
 4843TIP3    H114493   3.539   4.838   4.243
 4843TIP3    H214494   3.494   4.942   4.343
 4844TIP3   OH214495   3.893   4.124   0.538
 4844TIP3    H114496   3.965   4.067   0.567
 4844TIP3    H214497   3.826   4.115   0.605
 4845TIP3   OH214498   5.749   4.314   1.421
 4845TIP3    H114499   5.696   4.259   1.478
 4845TIP3    H214500   5.814   4.354   1.478
 4846TIP3   OH214501   2.548   0.982   1.861
 4846TIP3    H114502   2.572   1.073   1.877
 4846TIP3    H214503   2.458   0.974   1.894
 4847TIP3   OH214504   3.226   3.159   3.699
 4847TIP3    H114505   3.219   3.208   3.781
 4847TIP3    H214506   3.136   3.154   3.666
 4848TIP3   OH214507   4.809   5.183   1.490
 4848TIP3    H114508   4.868   5.189   1.565
 4848TIP3    H214509   4.798   5.274   1.460
 4849TIP3   OH214510   0.906   2.703   5.609
 4849TIP3    H114511   0.866   2.755   5.540
 4849TIP3    H214512   0.879   2.613   5.591
 4850TIP3   OH214513   1.077   0.147   2.835
 4850TIP3    H114514   1.098   0.236   2.808
 4850TIP3    H214515   1.015   0.158   2.907
 4851TIP3   OH214516   6.675   1.703   0.913
 4851TIP3    H114517   6.739   1.727   0.847
 4851TIP3    H214518   6.726   1.661   0.982
 4852TIP3   OH214519   5.305   3.989   2.077
 4852TIP3    H114520   5.272   4.024   2.160
 4852TIP3    H214521   5.383   3.938   2.102
 4853TIP3   OH214522   6.140   2.127   3.479
 4853TIP3    H114523   6.193   2.188   3.427
 4853TIP3    H214524   6.098   2.070   3.415
 4854TIP3   OH214525   7.036   4.577   5.202
 4854TIP3    H114526   7.078   4.597   5.285
 4854TIP3    H214527   7.062   4.486   5.183
 4855TIP3   OH214528   2.919   0.924   3.105
 4855TIP3    H114529   2.976   0.871   3.050
 4855TIP3    H214530   2.979   0.973   3.162
 4856TIP3   OH214531   5.773   0.945   0.321
 4856TIP3    H114532   5.715   0.996   0.266
 4856TIP3    H214533   5.740   0.957   0.410
 4857TIP3   OH214534   2.924   2.166   2.740
 4857TIP3    H114535   2.934   2.223   2.816
 4857TIP3    H214536   2.945   2.078   2.774
 4858TIP3   OH214537   2.637   3.240   4.202
 4858TIP3    H114538   2.654   3.304   4.133
 4858TIP3    H214539   2.662   3.286   4.283
 4859TIP3   OH214540   2.388   1.124   0.650
 4859TIP3    H114541   2.469   1.073   0.649
 4859TIP3    H214542   2.373   1.143   0.743
 4860TIP3   OH214543   3.101   3.294   3.311
 4860TIP3    H114544   3.151   3.298   3.393
 4860TIP3    H214545   3.100   3.385   3.279
 4861TIP3   OH214546   3.759   4.054   4.404
 4861TIP3    H114547   3.806   4.111   4.342
 4861TIP3    H214548   3.672   4.093   4.410
 4862TIP3   OH214549   1.531   2.821   5.816
 4862TIP3    H114550   1.621   2.790   5.829
 4862TIP3    H214551   1.483   2.788   5.893
 4863TIP3   OH214552   3.787   4.663   5.750
 4863TIP3    H114553   3.770   4.752   5.719
 4863TIP3    H214554   3.754   4.607   5.680
 4864TIP3   OH214555   4.346   0.719   2.056
 4864TIP3    H114556   4.340   0.692   2.148
 4864TIP3    H214557   4.416   0.665   2.020
 4865TIP3   OH214558   2.988   4.291   5.026
 4865TIP3    H114559   3.020   4.213   4.980
 4865TIP3    H214560   3.002   4.270   5.119
 4866TIP3   OH214561   0.139   3.363   3.233
 4866TIP3    H114562   0.069   3.423   3.259
 4866TIP3    H214563   0.154   3.308   3.310
 4867TIP3   OH214564   2.330   2.743   2.448
 4867TIP3    H114565   2.258   2.712   2.503
 4867TIP3    H214566   2.344   2.673   2.384
 4868TIP3   OH214567   3.312   3.190   2.677
 4868TIP3    H114568   3.352   3.193   2.590
 4868TIP3    H214569   3.223   3.225   2.664
 4869TIP3   OH214570   4.793   4.873   1.606
 4869TIP3    H114571   4.802   4.953   1.553
 4869TIP3    H214572   4.826   4.897   1.692
 4870TIP3   OH214573   5.760   2.110   5.204
 4870TIP3    H114574   5.674   2.103   5.246
 4870TIP3    H214575   5.813   2.044   5.248
 4871TIP3   OH214576   0.986   1.175   4.433
 4871TIP3    H114577   1.079   1.176   4.409
 4871TIP3    H214578   0.960   1.084   4.422
 4872TIP3   OH214579   1.775   2.003   5.073
 4872TIP3    H114580   1.835   2.078   5.067
 4872TIP3    H214581   1.689   2.044   5.085
 4873TIP3   OH214582   6.732   2.738   3.962
 4873TIP3    H114583   6.753   2.734   3.869
 4873TIP3    H214584   6.660   2.801   3.967
 4874TIP3   OH214585   5.815   6.165   2.502
 4874TIP3    H114586   5.843   6.255   2.485
 4874TIP3    H214587   5.872   6.135   2.573
 4875TIP3   OH214588   5.942   4.354   0.651
 4875TIP3    H114589   5.924   4.400   0.733
 4875TIP3    H214590   5.975   4.422   0.592
 4876TIP3   OH214591   4.179   3.915   2.755
 4876TIP3    H114592   4.241   3.865   2.808
 4876TIP3    H214593   4.151   3.986   2.813
 4877TIP3   OH214594   1.639   5.603   3.670
 4877TIP3    H114595   1.591   5.613   3.588
 4877TIP3    H214596   1.690   5.523   3.658
 4878TIP3   OH214597   1.782   2.248   3.480
 4878TIP3    H114598   1.851   2.313   3.498
 4878TIP3    H214599   1.771   2.202   3.564
 4879TIP3   OH214600   3.863   0.662   0.057
 4879TIP3    H114601   3.894   0.737   0.005
 4879TIP3    H214602   3.781   0.692   0.095
 4880TIP3   OH214603   0.859   4.230   5.316
 4880TIP3    H114604   0.940   4.193   5.283
 4880TIP3    H214605   0.862   4.216   5.411
 4881TIP3   OH214606   4.608   0.952   5.209
 4881TIP3    H114607   4.690   0.920   5.170
 4881TIP3    H214608   4.622   0.943   5.303
 4882TIP3   OH214609   6.898   4.844   4.178
 4882TIP3    H114610   6.959   4.784   4.221
 4882TIP3    H214611   6.935   4.931   4.193
 4883TIP3   OH214612   2.108   5.679   3.439
 4883TIP3    H114613   2.183   5.671   3.498
 4883TIP3    H214614   2.041   5.721   3.491
 4884TIP3   OH214615   3.981   2.263   4.428
 4884TIP3    H114616   3.972   2.312   4.347
 4884TIP3    H214617   4.075   2.246   4.436
 4885TIP3   OH214618   5.080   4.797   0.488
 4885TIP3    H114619   5.153   4.735   0.482
 4885TIP3    H214620   5.121   4.881   0.507
 4886TIP3   OH214621   0.853   1.301   2.893
 4886TIP3    H114622   0.778   1.347   2.932
 4886TIP3    H214623   0.926   1.363   2.902
 4887TIP3   OH214624   3.343   5.323   2.598
 4887TIP3    H114625   3.308   5.343   2.685
 4887TIP3    H214626   3.410   5.390   2.584
 4888TIP3   OH214627   1.650   4.418   2.696
 4888TIP3    H114628   1.607   4.357   2.756
 4888TIP3    H214629   1.620   4.505   2.726
 4889TIP3   OH214630   0.082   0.604   1.521
 4889TIP3    H114631   0.118   0.528   1.566
 4889TIP3    H214632   0.159   0.645   1.479
 4890TIP3   OH214633   2.777   1.412   3.305
 4890TIP3    H114634   2.812   1.498   3.327
 4890TIP3    H214635   2.706   1.430   3.242
 4891TIP3   OH214636   4.599   3.065   3.621
 4891TIP3    H114637   4.560   3.028   3.700
 4891TIP3    H214638   4.598   3.160   3.636
 4892TIP3   OH214639   1.187   5.274   5.767
 4892TIP3    H114640   1.249   5.302   5.834
 4892TIP3    H214641   1.113   5.333   5.777
 4893TIP3   OH214642   5.910   0.620   4.307
 4893TIP3    H114643   5.894   0.695   4.250
 4893TIP3    H214644   5.866   0.643   4.389
 4894TIP3   OH214645   4.755   3.410   4.567
 4894TIP3    H114646   4.809   3.489   4.574
 4894TIP3    H214647   4.712   3.418   4.481
 4895TIP3   OH214648   6.844   6.686   0.562
 4895TIP3    H114649   6.898   6.676   0.484
 4895TIP3    H214650   6.878   6.621   0.623
 4896TIP3   OH214651   6.450   0.794   3.598
 4896TIP3    H114652   6.401   0.859   3.548
 4896TIP3    H214653   6.450   0.716   3.542
 4897TIP3   OH214654   5.611   0.502   0.216
 4897TIP3    H114655   5.547   0.431   0.209
 4897TIP3    H214656   5.581   0.555   0.289
 4898TIP3   OH214657   2.943   4.035   2.193
 4898TIP3    H114658   3.030   4.008   2.225
 4898TIP3    H214659   2.883   4.007   2.262
 4899TIP3   OH214660   6.677   2.766   5.632
 4899TIP3    H114661   6.678   2.761   5.728
 4899TIP3    H214662   6.597   2.720   5.608
 4900TIP3   OH214663   1.238   5.324   4.413
 4900TIP3    H114664   1.178   5.266   4.459
 4900TIP3    H214665   1.234   5.295   4.321
 4901TIP3   OH214666   4.946   4.570   5.447
 4901TIP3    H114667   4.871   4.626   5.429
 4901TIP3    H214668   5.022   4.629   5.443
 4902TIP3   OH214669   1.184   2.541   0.239
 4902TIP3    H114670   1.095   2.545   0.274
 4902TIP3    H214671   1.235   2.495   0.306
 4903TIP3   OH214672   4.026   5.284   0.323
 4903TIP3    H114673   3.931   5.276   0.315
 4903TIP3    H214674   4.061   5.214   0.268
 4904TIP3   OH214675   5.753   4.788   2.841
 4904TIP3    H114676   5.781   4.838   2.764
 4904TIP3    H214677   5.668   4.752   2.815
 4905TIP3   OH214678   4.265   0.936   5.487
 4905TIP3    H114679   4.259   0.976   5.400
 4905TIP3    H214680   4.243   0.844   5.472
 4906TIP3   OH214681   2.131   0.707   4.484
 4906TIP3    H114682   2.060   0.714   4.548
 4906TIP3    H214683   2.166   0.796   4.478
 4907TIP3   OH214684   0.714   3.489   1.219
 4907TIP3    H114685   0.769   3.429   1.170
 4907TIP3    H214686   0.762   3.506   1.301
 4908TIP3   OH214687   3.105   5.408   4.357
 4908TIP3    H114688   3.134   5.397   4.266
 4908TIP3    H214689   3.124   5.499   4.377
 4909TIP3   OH214690   1.603   2.048   0.750
 4909TIP3    H114691   1.539   1.977   0.741
 4909TIP3    H214692   1.630   2.044   0.842
 4910TIP3   OH214693   4.573   1.511   1.440
 4910TIP3    H114694   4.573   1.548   1.528
 4910TIP3    H214695   4.651   1.454   1.438
 4911TIP3   OH214696   7.224   6.677   5.648
 4911TIP3    H114697   7.139   6.653   5.612
 4911TIP3    H214698   7.205   6.721   5.730
 4912TIP3   OH214699   6.922   3.405   1.989
 4912TIP3    H114700   6.964   3.369   2.068
 4912TIP3    H214701   6.981   3.474   1.960
 4913TIP3   OH214702   4.371   0.160   4.486
 4913TIP3    H114703   4.369   0.178   4.392
 4913TIP3    H214704   4.280   0.170   4.515
 4914TIP3   OH214705   2.569   5.514   1.977
 4914TIP3    H114706   2.557   5.455   1.902
 4914TIP3    H214707   2.512   5.588   1.958
 4915TIP3   OH214708   6.363   3.547   3.356
 4915TIP3    H114709   6.417   3.583   3.286
 4915TIP3    H214710   6.274   3.570   3.331
 4916TIP3   OH214711   4.257   6.134   2.103
 4916TIP3    H114712   4.308   6.054   2.091
 4916TIP3    H214713   4.239   6.165   2.015
 4917TIP3   OH214714   1.157   0.039   5.925
 4917TIP3    H114715   1.146  -0.056   5.913
 4917TIP3    H214716   1.188   0.071   5.841
 4918TIP3   OH214717   6.369   5.818   0.628
 4918TIP3    H114718   6.318   5.759   0.684
 4918TIP3    H214719   6.381   5.897   0.681
 4919TIP3   OH214720   3.007   5.709   5.204
 4919TIP3    H114721   2.960   5.741   5.282
 4919TIP3    H214722   3.052   5.630   5.234
 4920TIP3   OH214723   2.013   3.368   0.488
 4920TIP3    H114724   1.959   3.371   0.567
 4920TIP3    H214725   2.076   3.298   0.505
 4921TIP3   OH214726   5.326   6.375   3.748
 4921TIP3    H114727   5.359   6.286   3.760
 4921TIP3    H214728   5.364   6.425   3.820
 4922TIP3   OH214729   6.108   3.400   5.269
 4922TIP3    H114730   6.136   3.422   5.358
 4922TIP3    H214731   6.077   3.483   5.233
 4923TIP3   OH214732   4.289   0.373   1.794
 4923TIP3    H114733   4.221   0.432   1.825
 4923TIP3    H214734   4.354   0.371   1.864
 4924TIP3   OH214735   5.083   3.994   4.113
 4924TIP3    H114736   5.129   4.055   4.171
 4924TIP3    H214737   5.072   3.915   4.165
 4925TIP3   OH214738   0.134   5.836   5.041
 4925TIP3    H114739   0.145   5.823   4.947
 4925TIP3    H214740   0.046   5.802   5.059
 4926TIP3   OH214741   6.710   6.275   4.114
 4926TIP3    H114742   6.693   6.308   4.026
 4926TIP3    H214743   6.786   6.219   4.105
 4927TIP3   OH214744   6.068   5.720   4.565
 4927TIP3    H114745   6.109   5.806   4.566
 4927TIP3    H214746   6.085   5.687   4.477
 4928TIP3   OH214747   1.239   4.955   0.909
 4928TIP3    H114748   1.258   4.874   0.955
 4928TIP3    H214749   1.244   4.932   0.816
 4929TIP3   OH214750   2.128   3.854   1.973
 4929TIP3    H114751   2.212   3.807   1.967
 4929TIP3    H214752   2.069   3.793   2.016
 4930TIP3   OH214753   6.524   6.329   2.640
 4930TIP3    H114754   6.525   6.410   2.589
 4930TIP3    H214755   6.498   6.357   2.728
 4931TIP3   OH214756   3.689   3.748   2.102
 4931TIP3    H114757   3.622   3.815   2.084
 4931TIP3    H214758   3.639   3.671   2.128
 4932TIP3   OH214759   1.236   6.159   3.173
 4932TIP3    H114760   1.310   6.214   3.201
 4932TIP3    H214761   1.214   6.191   3.086
 4933TIP3   OH214762   5.287   5.145   1.731
 4933TIP3    H114763   5.239   5.156   1.813
 4933TIP3    H214764   5.346   5.072   1.747
 4934TIP3   OH214765   6.660   2.344   4.669
 4934TIP3    H114766   6.629   2.326   4.580
 4934TIP3    H214767   6.716   2.270   4.690
 4935TIP3   OH214768   6.453   3.500   3.609
 4935TIP3    H114769   6.488   3.575   3.656
 4935TIP3    H214770   6.413   3.537   3.530
 4936TIP3   OH214771   3.303   2.146   5.254
 4936TIP3    H114772   3.374   2.210   5.250
 4936TIP3    H214773   3.295   2.124   5.346
 4937TIP3   OH214774   3.781   0.464   3.009
 4937TIP3    H114775   3.736   0.438   2.928
 4937TIP3    H214776   3.842   0.532   2.982
 4938TIP3   OH214777   5.445   2.517   3.695
 4938TIP3    H114778   5.496   2.594   3.668
 4938TIP3    H214779   5.405   2.542   3.778
 4939TIP3   OH214780   4.828   3.177   4.040
 4939TIP3    H114781   4.875   3.162   3.958
 4939TIP3    H214782   4.876   3.247   4.083
 4940TIP3   OH214783   2.333   5.939   0.778
 4940TIP3    H114784   2.341   5.844   0.763
 4940TIP3    H214785   2.418   5.974   0.751
 4941TIP3   OH214786   3.667   5.010   4.039
 4941TIP3    H114787   3.683   5.101   4.015
 4941TIP3    H214788   3.594   5.013   4.100
 4942TIP3   OH214789   3.171   5.521   3.273
 4942TIP3    H114790   3.159   5.588   3.206
 4942TIP3    H214791   3.083   5.488   3.290
 4943TIP3   OH214792   3.124   4.452   4.257
 4943TIP3    H114793   3.172   4.378   4.293
 4943TIP3    H214794   3.183   4.527   4.268
 4944TIP3   OH214795   2.375   0.673   5.040
 4944TIP3    H114796   2.421   0.745   5.083
 4944TIP3    H214797   2.353   0.613   5.112
 4945TIP3   OH214798   1.608   4.829   4.296
 4945TIP3    H114799   1.627   4.735   4.286
 4945TIP3    H214800   1.550   4.849   4.222
 4946TIP3   OH214801   5.912   0.588   4.604
 4946TIP3    H114802   5.986   0.636   4.566
 4946TIP3    H214803   5.941   0.496   4.603
 4947TIP3   OH214804   5.390   6.600   4.683
 4947TIP3    H114805   5.378   6.506   4.666
 4947TIP3    H214806   5.426   6.604   4.771
 4948TIP3   OH214807   2.425   6.432   2.045
 4948TIP3    H114808   2.353   6.475   2.092
 4948TIP3    H214809   2.480   6.505   2.016
 4949TIP3   OH214810   1.007   3.335   0.845
 4949TIP3    H114811   0.953   3.257   0.830
 4949TIP3    H214812   0.968   3.377   0.921
 4950TIP3   OH214813   2.012   2.803   0.485
 4950TIP3    H114814   1.972   2.834   0.567
 4950TIP3    H214815   2.095   2.764   0.513
 4951TIP3   OH214816   3.050   6.375   1.582
 4951TIP3    H114817   2.966   6.390   1.626
 4951TIP3    H214818   3.090   6.303   1.630
 4952TIP3   OH214819   4.642   3.621   3.510
 4952TIP3    H114820   4.569   3.680   3.529
 4952TIP3    H214821   4.674   3.593   3.595
 4953TIP3   OH214822   5.573   3.619   4.033
 4953TIP3    H114823   5.593   3.668   4.112
 4953TIP3    H214824   5.612   3.670   3.962
 4954TIP3   OH214825   3.386   3.875   3.503
 4954TIP3    H114826   3.362   3.862   3.595
 4954TIP3    H214827   3.467   3.824   3.493
 4955TIP3   OH214828   4.065   4.113   5.329
 4955TIP3    H114829   4.001   4.124   5.259
 4955TIP3    H214830   4.148   4.101   5.284
 4956TIP3   OH214831   3.581   1.822   0.032
 4956TIP3    H114832   3.557   1.797   0.121
 4956TIP3    H214833   3.676   1.808   0.027
 4957TIP3   OH214834   6.941   6.537   0.148
 4957TIP3    H114835   6.851   6.521   0.176
 4957TIP3    H214836   6.958   6.628   0.172
 4958TIP3   OH214837   1.844   0.525   5.221
 4958TIP3    H114838   1.930   0.558   5.195
 4958TIP3    H214839   1.848   0.521   5.317
 4959TIP3   OH214840   4.231   5.445   5.506
 4959TIP3    H114841   4.164   5.403   5.453
 4959TIP3    H214842   4.260   5.377   5.567
 4960TIP3   OH214843   6.152   0.742   1.349
 4960TIP3    H114844   6.063   0.738   1.313
 4960TIP3    H214845   6.145   0.698   1.434
 4961TIP3   OH214846   4.849   4.988   3.310
 4961TIP3    H114847   4.932   5.006   3.265
 4961TIP3    H214848   4.830   5.068   3.358
 4962TIP3   OH214849   5.256   6.659   5.483
 4962TIP3    H114850   5.240   6.752   5.467
 4962TIP3    H214851   5.349   6.648   5.468
 4963TIP3   OH214852   3.318   1.818   1.224
 4963TIP3    H114853   3.336   1.744   1.282
 4963TIP3    H214854   3.268   1.879   1.278
 4964TIP3   OH214855   4.464   4.555   0.051
 4964TIP3    H114856   4.522   4.493   0.006
 4964TIP3    H214857   4.517   4.586   0.125
 4965TIP3   OH214858   0.298   2.896   4.874
 4965TIP3    H114859   0.215   2.873   4.915
 4965TIP3    H214860   0.294   2.855   4.787
 4966TIP3   OH214861   2.839   0.319   0.107
 4966TIP3    H114862   2.934   0.310   0.092
 4966TIP3    H214863   2.813   0.389   0.047
 4967TIP3   OH214864   3.491   4.039   2.111
 4967TIP3    H114865   3.555   4.109   2.124
 4967TIP3    H214866   3.471   4.007   2.199
 4968TIP3   OH214867   4.659   1.187   4.393
 4968TIP3    H114868   4.736   1.226   4.353
 4968TIP3    H214869   4.690   1.149   4.475
 4969TIP3   OH214870   3.960   5.108   1.561
 4969TIP3    H114871   3.965   5.055   1.640
 4969TIP3    H214872   3.892   5.173   1.579
 4970TIP3   OH214873   0.320   3.666   2.414
 4970TIP3    H114874   0.331   3.641   2.506
 4970TIP3    H214875   0.409   3.670   2.379
 4971TIP3   OH214876   1.315   6.465   0.095
 4971TIP3    H114877   1.404   6.498   0.091
 4971TIP3    H214878   1.265   6.535   0.138
 4972TIP3   OH214879   2.739   2.333   5.070
 4972TIP3    H114880   2.721   2.414   5.119
 4972TIP3    H214881   2.816   2.353   5.018
 4973TIP3   OH214882   1.551   4.886   4.538
 4973TIP3    H114883   1.568   4.865   4.446
 4973TIP3    H214884   1.503   4.968   4.535
 4974TIP3   OH214885   1.675   3.860   0.240
 4974TIP3    H114886   1.590   3.815   0.237
 4974TIP3    H214887   1.731   3.801   0.291
 4975TIP3   OH214888   6.626   6.727   5.276
 4975TIP3    H114889   6.547   6.747   5.226
 4975TIP3    H214890   6.668   6.655   5.228
 4976TIP3   OH214891   4.687   3.377   3.292
 4976TIP3    H114892   4.653   3.448   3.346
 4976TIP3    H214893   4.645   3.298   3.325
 4977TIP3   OH214894   4.737   1.066   3.158
 4977TIP3    H114895   4.697   0.982   3.135
 4977TIP3    H214896   4.806   1.044   3.220
 4978TIP3   OH214897   3.613   2.860   0.782
 4978TIP3    H114898   3.522   2.887   0.775
 4978TIP3    H214899   3.662   2.926   0.732
 4979TIP3   OH214900   5.947   0.226   0.137
 4979TIP3    H114901   5.998   0.297   0.096
 4979TIP3    H214902   5.897   0.188   0.064
 4980TIP3   OH214903   6.555   0.859   1.012
 4980TIP3    H114904   6.513   0.809   1.083
 4980TIP3    H214905   6.635   0.894   1.052
 4981TIP3   OH214906   5.089   5.932   0.593
 4981TIP3    H114907   5.054   5.976   0.515
 4981TIP3    H214908   5.133   5.854   0.559
 4982TIP3   OH214909   4.890   1.921   1.347
 4982TIP3    H114910   4.817   1.921   1.409
 4982TIP3    H214911   4.879   1.840   1.297
 4983TIP3   OH214912   4.570   5.196   4.735
 4983TIP3    H114913   4.492   5.250   4.720
 4983TIP3    H214914   4.602   5.223   4.821
 4984TIP3   OH214915   6.346   1.890   4.589
 4984TIP3    H114916   6.341   1.835   4.511
 4984TIP3    H214917   6.358   1.979   4.554
 4985TIP3   OH214918   6.257   6.160   0.658
 4985TIP3    H114919   6.342   6.187   0.623
 4985TIP3    H214920   6.279   6.109   0.737
 4986TIP3   OH214921   0.116   4.511   5.797
 4986TIP3    H114922   0.163   4.428   5.799
 4986TIP3    H214923   0.152   4.558   5.722
 4987TIP3   OH214924   3.190   4.151   1.423
 4987TIP3    H114925   3.131   4.163   1.348
 4987TIP3    H214926   3.269   4.113   1.386
 4988TIP3   OH214927   6.749   2.900   1.633
 4988TIP3    H114928   6.787   2.978   1.673
 4988TIP3    H214929   6.761   2.831   1.699
 4989TIP3   OH214930   2.980   1.032   0.484
 4989TIP3    H114931   3.006   0.942   0.465
 4989TIP3    H214932   3.063   1.078   0.497
 4990TIP3   OH214933   5.367   0.705   1.782
 4990TIP3    H114934   5.457   0.736   1.776
 4990TIP3    H214935   5.326   0.736   1.701
 4991TIP3   OH214936   3.096   4.298   5.295
 4991TIP3    H114937   3.144   4.380   5.283
 4991TIP3    H214938   3.093   4.286   5.390
 4992TIP3   OH214939   4.577   2.463   4.517
 4992TIP3    H114940   4.597   2.547   4.474
 4992TIP3    H214941   4.548   2.406   4.446
 4993TIP3   OH214942   0.444   2.601   2.966
 4993TIP3    H114943   0.426   2.690   2.996
 4993TIP3    H214944   0.435   2.547   3.044
 4994TIP3   OH214945   4.217   1.827   0.055
 4994TIP3    H114946   4.228   1.919   0.031
 4994TIP3    H214947   4.189   1.784  -0.025
 4995TIP3   OH214948   0.929   1.553   5.345
 4995TIP3    H114949   1.018   1.582   5.363
 4995TIP3    H214950   0.917   1.569   5.251
 4996TIP3   OH214951   4.725   1.696   0.799
 4996TIP3    H114952   4.635   1.711   0.829
 4996TIP3    H214953   4.718   1.625   0.735
 4997TIP3   OH214954   3.278   5.112   4.404
 4997TIP3    H114955   3.187   5.139   4.395
 4997TIP3    H214956   3.274   5.028   4.451
 4998TIP3   OH214957   0.377   1.730   0.696
 4998TIP3    H114958   0.306   1.676   0.729
 4998TIP3    H214959   0.451   1.712   0.755
 4999TIP3   OH214960   2.881   2.674   5.163
 4999TIP3    H114961   2.896   2.764   5.191
 4999TIP3    H214962   2.968   2.634   5.162
 5000TIP3   OH214963   3.490   1.399   5.450
 5000TIP3    H114964   3.565   1.432   5.401
 5000TIP3    H214965   3.416   1.452   5.420
 5001TIP3   OH214966   1.963   3.908   1.471
 5001TIP3    H114967   1.969   4.000   1.496
 5001TIP3    H214968   1.976   3.860   1.553
 5002TIP3   OH214969   1.332   6.534   4.790
 5002TIP3    H114970   1.409   6.576   4.829
 5002TIP3    H214971   1.269   6.605   4.779
 5003TIP3   OH214972   4.076   5.148   2.809
 5003TIP3    H114973   4.021   5.105   2.875
 5003TIP3    H214974   4.127   5.077   2.770
 5004TIP3   OH214975   2.022   3.717   4.148
 5004TIP3    H114976   2.095   3.698   4.207
 5004TIP3    H214977   2.063   3.728   4.063
 5005TIP3   OH214978   6.768   1.082   1.596
 5005TIP3    H114979   6.800   1.099   1.507
 5005TIP3    H214980   6.691   1.027   1.585
 5006TIP3   OH214981   4.162   0.238   1.190
 5006TIP3    H114982   4.197   0.193   1.113
 5006TIP3    H214983   4.225   0.219   1.260
 5007TIP3   OH214984   3.194   0.352   1.489
 5007TIP3    H114985   3.239   0.417   1.543
 5007TIP3    H214986   3.122   0.400   1.449
 5008TIP3   OH214987   3.121   4.737   5.266
 5008TIP3    H114988   3.124   4.728   5.171
 5008TIP3    H214989   3.031   4.764   5.284
 5009TIP3   OH214990   4.563   5.454   3.875
 5009TIP3    H114991   4.496   5.519   3.899
 5009TIP3    H214992   4.537   5.374   3.921
 5010TIP3   OH214993   4.762   6.733   1.606
 5010TIP3    H114994   4.857   6.742   1.606
 5010TIP3    H214995   4.745   6.655   1.554
 5011TIP3   OH214996   1.636   4.591   2.927
 5011TIP3    H114997   1.633   4.559   3.017
 5011TIP3    H214998   1.644   4.686   2.936
 5012TIP3   OH214999   6.297   0.800   2.065
 5012TIP3    H115000   6.347   0.788   2.146
 5012TIP3    H215001   6.207   0.775   2.088
 5013TIP3   OH215002   0.494   1.807   4.040
 5013TIP3    H115003   0.545   1.753   3.979
 5013TIP3    H215004   0.405   1.773   4.034
 5014TIP3   OH215005   2.748   6.216   5.672
 5014TIP3    H115006   2.841   6.199   5.691
 5014TIP3    H215007   2.706   6.215   5.758
 5015TIP3   OH215008   1.835   2.906   0.308
 5015TIP3    H115009   1.887   2.883   0.385
 5015TIP3    H215010   1.790   2.988   0.333
 5016TIP3   OH215011   5.236   1.840   0.385
 5016TIP3    H115012   5.147   1.844   0.418
 5016TIP3    H215013   5.290   1.826   0.462
 5017TIP3   OH215014   1.236   4.380   2.764
 5017TIP3    H115015   1.293   4.332   2.704
 5017TIP3    H215016   1.285   4.460   2.785
 5018TIP3   OH215017   4.981   3.073   3.063
 5018TIP3    H115018   4.887   3.062   3.048
 5018TIP3    H215019   4.990   3.079   3.158
 5019TIP3   OH215020   2.344   0.039   1.471
 5019TIP3    H115021   2.384   0.083   1.546
 5019TIP3    H215022   2.419   0.003   1.423
 5020TIP3   OH215023   5.720   3.056   1.032
 5020TIP3    H115024   5.662   3.132   1.042
 5020TIP3    H215025   5.802   3.083   1.072
 5021TIP3   OH215026   1.898   4.704   4.743
 5021TIP3    H115027   1.886   4.741   4.655
 5021TIP3    H215028   1.935   4.617   4.728
 5022TIP3   OH215029   4.589   3.884   0.208
 5022TIP3    H115030   4.651   3.822   0.246
 5022TIP3    H215031   4.509   3.872   0.259
 5023TIP3   OH215032   4.029   4.004   1.764
 5023TIP3    H115033   3.943   3.989   1.803
 5023TIP3    H215034   4.070   4.071   1.818
 5024TIP3   OH215035   3.079   1.531   3.047
 5024TIP3    H115036   3.162   1.576   3.030
 5024TIP3    H215037   3.013   1.600   3.043
 5025TIP3   OH215038   0.716   2.919   5.689
 5025TIP3    H115039   0.780   2.882   5.749
 5025TIP3    H215040   0.746   3.009   5.675
 5026TIP3   OH215041   4.659   5.750   4.576
 5026TIP3    H115042   4.686   5.776   4.664
 5026TIP3    H215043   4.612   5.668   4.589
 5027TIP3   OH215044   4.225   6.609   3.479
 5027TIP3    H115045   4.140   6.618   3.438
 5027TIP3    H215046   4.206   6.575   3.566
 5028TIP3   OH215047   3.033   0.292   2.921
 5028TIP3    H115048   3.066   0.202   2.927
 5028TIP3    H215049   2.964   0.297   2.987
 5029TIP3   OH215050   0.767   2.562   1.995
 5029TIP3    H115051   0.832   2.632   2.003
 5029TIP3    H215052   0.735   2.549   2.084
 5030TIP3   OH215053   6.755   4.602   2.509
 5030TIP3    H115054   6.673   4.570   2.546
 5030TIP3    H215055   6.823   4.563   2.564
 5031TIP3   OH215056   2.652   4.570   4.185
 5031TIP3    H115057   2.630   4.663   4.184
 5031TIP3    H215058   2.592   4.531   4.121
 5032TIP3   OH215059   2.560   4.175   4.831
 5032TIP3    H115060   2.533   4.133   4.913
 5032TIP3    H215061   2.533   4.266   4.840
 5033TIP3   OH215062   2.539   6.489   2.674
 5033TIP3    H115063   2.560   6.540   2.752
 5033TIP3    H215064   2.445   6.472   2.680
 5034TIP3   OH215065   3.729   1.800   4.047
 5034TIP3    H115066   3.796   1.869   4.056
 5034TIP3    H215067   3.646   1.848   4.041
 5035TIP3   OH215068   3.945   3.648   2.294
 5035TIP3    H115069   3.911   3.620   2.209
 5035TIP3    H215070   4.000   3.724   2.274
 5036TIP3   OH215071   0.652   1.096   3.631
 5036TIP3    H115072   0.659   1.008   3.595
 5036TIP3    H215073   0.719   1.146   3.585
 5037TIP3   OH215074   5.415   2.031   0.240
 5037TIP3    H115075   5.362   1.961   0.276
 5037TIP3    H215076   5.358   2.108   0.241
 5038TIP3   OH215077   4.446   1.686   2.096
 5038TIP3    H115078   4.373   1.653   2.147
 5038TIP3    H215079   4.423   1.666   2.005
 5039TIP3   OH215080   2.097   1.597   1.021
 5039TIP3    H115081   2.147   1.520   1.048
 5039TIP3    H215082   2.156   1.645   0.963
 5040TIP3   OH215083   5.400   1.119   5.086
 5040TIP3    H115084   5.421   1.033   5.050
 5040TIP3    H215085   5.456   1.127   5.163
 5041TIP3   OH215086   5.745   6.546   5.335
 5041TIP3    H115087   5.805   6.611   5.370
 5041TIP3    H215088   5.729   6.574   5.245
 5042TIP3   OH215089   0.813   5.727   5.391
 5042TIP3    H115090   0.821   5.650   5.448
 5042TIP3    H215091   0.719   5.745   5.389
 5043TIP3   OH215092   2.292   1.955   5.634
 5043TIP3    H115093   2.319   2.029   5.689
 5043TIP3    H215094   2.357   1.953   5.563
 5044TIP3   OH215095   4.794   4.636   1.208
 5044TIP3    H115096   4.734   4.710   1.217
 5044TIP3    H215097   4.866   4.655   1.267
 5045TIP3   OH215098   1.903   5.009   0.415
 5045TIP3    H115099   1.976   5.050   0.462
 5045TIP3    H215100   1.856   5.082   0.375
 5046TIP3   OH215101   4.187   5.646   3.000
 5046TIP3    H115102   4.281   5.632   3.007
 5046TIP3    H215103   4.177   5.730   2.957
 5047TIP3   OH215104   2.229   4.024   5.235
 5047TIP3    H115105   2.256   3.940   5.199
 5047TIP3    H215106   2.138   4.034   5.207
 5048TIP3   OH215107   4.517   6.618   1.137
 5048TIP3    H115108   4.581   6.655   1.198
 5048TIP3    H215109   4.474   6.548   1.186
 5049TIP3   OH215110   1.046   6.108   1.631
 5049TIP3    H115111   1.013   6.195   1.606
 5049TIP3    H215112   0.967   6.058   1.650
 5050TIP3   OH215113   6.199   5.617   0.020
 5050TIP3    H115114   6.289   5.644   0.041
 5050TIP3    H215115   6.154   5.699   0.000
 5051TIP3   OH215116   5.016   2.978   0.101
 5051TIP3    H115117   4.956   2.907   0.081
 5051TIP3    H215118   4.981   3.018   0.180
 5052TIP3   OH215119   6.692   1.827   4.851
 5052TIP3    H115120   6.719   1.740   4.881
 5052TIP3    H215121   6.760   1.853   4.788
 5053TIP3   OH215122   5.900   5.106   5.606
 5053TIP3    H115123   5.857   5.170   5.549
 5053TIP3    H215124   5.994   5.118   5.588
 5054TIP3   OH215125   4.368   0.179   5.708
 5054TIP3    H115126   4.349   0.123   5.634
 5054TIP3    H215127   4.393   0.119   5.779
 5055TIP3   OH215128   0.321   2.659   4.438
 5055TIP3    H115129   0.232   2.690   4.425
 5055TIP3    H215130   0.311   2.566   4.460
 5056TIP3   OH215131   6.551   4.090   4.938
 5056TIP3    H115132   6.558   4.183   4.962
 5056TIP3    H215133   6.560   4.089   4.843
 5057TIP3   OH215134   4.354   3.518   1.620
 5057TIP3    H115135   4.302   3.461   1.677
 5057TIP3    H215136   4.291   3.577   1.580
 5058TIP3   OH215137   0.555   3.875   1.070
 5058TIP3    H115138   0.582   3.783   1.062
 5058TIP3    H215139   0.572   3.912   0.983
 5059TIP3   OH215140   3.435   6.352   0.220
 5059TIP3    H115141   3.376   6.366   0.293
 5059TIP3    H215142   3.507   6.300   0.256
 5060TIP3   OH215143   5.559   6.229   4.519
 5060TIP3    H115144   5.635   6.211   4.575
 5060TIP3    H215145   5.589   6.296   4.458
 5061TIP3   OH215146   4.812   5.529   2.043
 5061TIP3    H115147   4.824   5.602   1.982
 5061TIP3    H215148   4.844   5.563   2.127
 5062TIP3   OH215149   6.634   4.072   0.572
 5062TIP3    H115150   6.653   4.090   0.664
 5062TIP3    H215151   6.568   4.137   0.548
 5063TIP3   OH215152   4.136   5.931   5.188
 5063TIP3    H115153   4.139   5.945   5.282
 5063TIP3    H215154   4.047   5.902   5.170
 5064TIP3   OH215155   2.277   0.975   4.366
 5064TIP3    H115156   2.363   0.934   4.366
 5064TIP3    H215157   2.291   1.061   4.326
 5065TIP3   OH215158   5.306   1.484   4.703
 5065TIP3    H115159   5.305   1.397   4.664
 5065TIP3    H215160   5.249   1.477   4.780
 5066TIP3   OH215161   1.009   6.601   1.608
 5066TIP3    H115162   1.103   6.586   1.621
 5066TIP3    H215163   0.984   6.658   1.681
 5067TIP3   OH215164   0.179   5.747   3.031
 5067TIP3    H115165   0.205   5.747   3.123
 5067TIP3    H215166   0.114   5.678   3.024
 5068TIP3   OH215167   2.217   3.285   1.677
 5068TIP3    H115168   2.252   3.197   1.683
 5068TIP3    H215169   2.138   3.276   1.623
 5069TIP3   OH215170   2.008   5.930   5.063
 5069TIP3    H115171   2.056   5.889   4.991
 5069TIP3    H215172   1.948   5.861   5.094
 5070TIP3   OH215173   1.613   4.380   4.553
 5070TIP3    H115174   1.648   4.295   4.526
 5070TIP3    H215175   1.595   4.370   4.646
 5071TIP3   OH215176   2.452   3.644   4.814
 5071TIP3    H115177   2.421   3.644   4.723
 5071TIP3    H215178   2.482   3.554   4.829
 5072TIP3   OH215179   1.965   1.680   1.283
 5072TIP3    H115180   2.030   1.689   1.213
 5072TIP3    H215181   1.985   1.596   1.325
 5073TIP3   OH215182   4.956   6.833   3.132
 5073TIP3    H115183   4.888   6.813   3.068
 5073TIP3    H215184   4.993   6.748   3.155
 5074TIP3   OH215185   5.195   5.053   4.442
 5074TIP3    H115186   5.257   4.983   4.424
 5074TIP3    H215187   5.109   5.017   4.418
 5075TIP3   OH215188   1.150   4.088   5.737
 5075TIP3    H115189   1.091   4.162   5.733
 5075TIP3    H215190   1.114   4.032   5.806
 5076TIP3   OH215191   4.914   4.300   4.781
 5076TIP3    H115192   4.991   4.260   4.821
 5076TIP3    H215193   4.930   4.293   4.687
 5077TIP3   OH215194   1.885   4.440   2.851
 5077TIP3    H115195   1.824   4.405   2.915
 5077TIP3    H215196   1.833   4.452   2.771
 5078TIP3   OH215197   4.827   6.309   1.516
 5078TIP3    H115198   4.915   6.273   1.500
 5078TIP3    H215199   4.800   6.271   1.599
 5079TIP3   OH215200   0.680   2.270   0.875
 5079TIP3    H115201   0.709   2.275   0.785
 5079TIP3    H215202   0.598   2.221   0.871
 5080TIP3   OH215203   4.322   4.360   1.035
 5080TIP3    H115204   4.398   4.372   0.978
 5080TIP3    H215205   4.248   4.355   0.974
 5081TIP3   OH215206   5.015   6.451   1.996
 5081TIP3    H115207   4.936   6.501   1.973
 5081TIP3    H215208   4.986   6.392   2.065
 5082TIP3   OH215209   1.124   2.039   4.863
 5082TIP3    H115210   1.128   2.002   4.774
 5082TIP3    H215211   1.150   1.967   4.920
 5083TIP3   OH215212   7.065   5.999   5.871
 5083TIP3    H115213   7.057   5.962   5.959
 5083TIP3    H215214   7.022   5.935   5.814
 5084TIP3   OH215215   3.544   5.536   2.453
 5084TIP3    H115216   3.537   5.619   2.406
 5084TIP3    H215217   3.583   5.559   2.537
 5085TIP3   OH215218   0.157   3.387   4.357
 5085TIP3    H115219   0.169   3.302   4.314
 5085TIP3    H215220   0.063   3.405   4.348
 5086TIP3   OH215221   2.532   5.645   3.628
 5086TIP3    H115222   2.458   5.644   3.566
 5086TIP3    H215223   2.556   5.553   3.638
 5087TIP3   OH215224   6.168   2.709   5.849
 5087TIP3    H115225   6.207   2.622   5.857
 5087TIP3    H215226   6.225   2.755   5.787
 5088TIP3   OH215227   2.783   0.119   0.734
 5088TIP3    H115228   2.801   0.125   0.640
 5088TIP3    H215229   2.870   0.115   0.774
 5089TIP3   OH215230   1.729   4.909   3.820
 5089TIP3    H115231   1.666   4.926   3.890
 5089TIP3    H215232   1.806   4.959   3.843
 5090TIP3   OH215233   5.990   1.985   2.591
 5090TIP3    H115234   5.908   1.952   2.627
 5090TIP3    H215235   5.979   2.080   2.588
 5091TIP3   OH215236   2.754   5.787   4.851
 5091TIP3    H115237   2.662   5.809   4.863
 5091TIP3    H215238   2.759   5.693   4.868
 5092TIP3   OH215239   0.074   4.048   0.450
 5092TIP3    H115240   0.083   4.055   0.545
 5092TIP3    H215241   0.144   3.988   0.424
 5093TIP3   OH215242   3.746   4.144   3.003
 5093TIP3    H115243   3.676   4.078   3.005
 5093TIP3    H215244   3.809   4.113   3.069
 5094TIP3   OH215245   6.381   2.913   1.009
 5094TIP3    H115246   6.396   2.961   0.928
 5094TIP3    H215247   6.319   2.968   1.058
 5095TIP3   OH215248   6.308   4.927   4.795
 5095TIP3    H115249   6.349   4.948   4.711
 5095TIP3    H215250   6.341   4.840   4.816
 5096TIP3   OH215251   1.379  -0.016   2.500
 5096TIP3    H115252   1.436   0.043   2.549
 5096TIP3    H215253   1.300   0.035   2.484
 5097TIP3   OH215254   5.559   2.388   5.047
 5097TIP3    H115255   5.636   2.366   5.100
 5097TIP3    H215256   5.566   2.483   5.034
 5098TIP3   OH215257   6.851   4.997   3.384
 5098TIP3    H115258   6.907   5.075   3.395
 5098TIP3    H215259   6.782   5.008   3.448
 5099TIP3   OH215260   6.188   2.126   5.374
 5099TIP3    H115261   6.121   2.061   5.353
 5099TIP3    H215262   6.263   2.074   5.405
 5100TIP3   OH215263   3.408   1.362   2.641
 5100TIP3    H115264   3.394   1.280   2.687
 5100TIP3    H215265   3.325   1.380   2.598
 5101TIP3   OH215266   1.352   5.029   1.679
 5101TIP3    H115267   1.358   5.091   1.607
 5101TIP3    H215268   1.276   5.057   1.729
 5102TIP3   OH215269   0.349   4.694   0.168
 5102TIP3    H115270   0.341   4.655   0.256
 5102TIP3    H215271   0.258   4.707   0.140
 5103TIP3   OH215272   3.444   2.266   4.824
 5103TIP3    H115273   3.494   2.322   4.764
 5103TIP3    H215274   3.507   2.202   4.855
 5104TIP3   OH215275   2.845   0.735   5.409
 5104TIP3    H115276   2.783   0.808   5.397
 5104TIP3    H215277   2.795   0.670   5.459
 5105TIP3   OH215278   2.361   0.505   2.431
 5105TIP3    H115279   2.323   0.537   2.513
 5105TIP3    H215280   2.306   0.430   2.408
 5106TIP3   OH215281   6.718   0.310   5.853
 5106TIP3    H115282   6.676   0.270   5.929
 5106TIP3    H215283   6.697   0.251   5.781
 5107TIP3   OH215284   3.261   1.747   3.166
 5107TIP3    H115285   3.345   1.707   3.142
 5107TIP3    H215286   3.282   1.806   3.238
 5108TIP3   OH215287   7.120   5.706   1.613
 5108TIP3    H115288   7.042   5.650   1.612
 5108TIP3    H215289   7.101   5.774   1.548
 5109TIP3   OH215290   5.131   1.531   1.589
 5109TIP3    H115291   5.184   1.506   1.665
 5109TIP3    H215292   5.102   1.620   1.609
 5110TIP3   OH215293   4.063   1.143   0.315
 5110TIP3    H115294   4.051   1.223   0.264
 5110TIP3    H215295   4.062   1.172   0.406
 5111TIP3   OH215296   2.064   5.505   4.567
 5111TIP3    H115297   2.031   5.428   4.614
 5111TIP3    H215298   2.121   5.469   4.499
 5112TIP3   OH215299   0.553   4.009   0.695
 5112TIP3    H115300   0.540   3.997   0.601
 5112TIP3    H215301   0.624   3.949   0.717
 5113TIP3   OH215302   7.085   1.581   2.550
 5113TIP3    H115303   7.112   1.636   2.623
 5113TIP3    H215304   6.996   1.611   2.529
 5114TIP3   OH215305   6.327   4.968   0.130
 5114TIP3    H115306   6.337   5.007   0.217
 5114TIP3    H215307   6.257   5.019   0.089
 5115TIP3   OH215308   3.447   3.079   1.994
 5115TIP3    H115309   3.517   3.014   1.989
 5115TIP3    H215310   3.383   3.050   1.928
 5116TIP3   OH215311   5.130   3.200   4.725
 5116TIP3    H115312   5.100   3.122   4.678
 5116TIP3    H215313   5.050   3.236   4.764
 5117TIP3   OH215314   0.897   6.173   0.240
 5117TIP3    H115315   0.826   6.216   0.192
 5117TIP3    H215316   0.977   6.212   0.203
 5118TIP3   OH215317   0.177   6.416   2.060
 5118TIP3    H115318   0.109   6.366   2.016
 5118TIP3    H215319   0.221   6.464   1.990
 5119TIP3   OH215320   2.418   3.907   5.750
 5119TIP3    H115321   2.386   3.995   5.773
 5119TIP3    H215322   2.407   3.902   5.655
 5120TIP3   OH215323   5.639   4.898   4.089
 5120TIP3    H115324   5.653   4.848   4.008
 5120TIP3    H215325   5.630   4.832   4.157
 5121TIP3   OH215326   3.668   6.760   1.463
 5121TIP3    H115327   3.676   6.822   1.391
 5121TIP3    H215328   3.623   6.684   1.424
 5122TIP3   OH215329   0.559   2.192   1.971
 5122TIP3    H115330   0.481   2.226   2.015
 5122TIP3    H215331   0.625   2.186   2.040
 5123TIP3   OH215332   1.266   5.765   4.999
 5123TIP3    H115333   1.314   5.779   5.080
 5123TIP3    H215334   1.193   5.709   5.023
 5124TIP3   OH215335   3.872   2.643   5.523
 5124TIP3    H115336   3.858   2.716   5.463
 5124TIP3    H215337   3.965   2.622   5.513
 5125TIP3   OH215338   6.907   5.506   1.598
 5125TIP3    H115339   6.916   5.504   1.693
 5125TIP3    H215340   6.836   5.445   1.579
 5126TIP3   OH215341   2.488   3.923   1.191
 5126TIP3    H115342   2.415   3.929   1.252
 5126TIP3    H215343   2.566   3.923   1.247
 5127TIP3   OH215344   6.910   4.523   5.839
 5127TIP3    H115345   6.828   4.489   5.875
 5127TIP3    H215346   6.975   4.505   5.907
 5128TIP3   OH215347   5.207   0.271   1.213
 5128TIP3    H115348   5.244   0.355   1.241
 5128TIP3    H215349   5.281   0.224   1.174
 5129TIP3   OH215350   4.056   3.013   1.655
 5129TIP3    H115351   3.978   3.066   1.672
 5129TIP3    H215352   4.025   2.923   1.660
 5130TIP3   OH215353   1.831   0.516   5.513
 5130TIP3    H115354   1.748   0.545   5.551
 5130TIP3    H215355   1.896   0.534   5.581
 5131TIP3   OH215356   5.815   0.475   3.294
 5131TIP3    H115357   5.820   0.388   3.253
 5131TIP3    H215358   5.861   0.464   3.377
 5132TIP3   OH215359   3.511   4.283   2.335
 5132TIP3    H115360   3.561   4.363   2.354
 5132TIP3    H215361   3.461   4.267   2.415
 5133TIP3   OH215362   2.497   5.547   2.309
 5133TIP3    H115363   2.410   5.515   2.331
 5133TIP3    H215364   2.489   5.584   2.221
 5134TIP3   OH215365   5.121   0.920   2.990
 5134TIP3    H115366   5.150   0.947   3.077
 5134TIP3    H215367   5.182   0.850   2.965
 5135TIP3   OH215368   4.229   0.517   2.534
 5135TIP3    H115369   4.197   0.547   2.619
 5135TIP3    H215370   4.312   0.562   2.522
 5136TIP3   OH215371   1.118   5.110   1.832
 5136TIP3    H115372   1.081   5.062   1.906
 5136TIP3    H215373   1.046   5.119   1.770
 5137TIP3   OH215374   5.789   5.502   0.193
 5137TIP3    H115375   5.849   5.500   0.268
 5137TIP3    H215376   5.702   5.487   0.231
 5138TIP3   OH215377   3.202   3.079   4.789
 5138TIP3    H115378   3.137   3.024   4.747
 5138TIP3    H215379   3.188   3.166   4.752
 5139TIP3   OH215380   2.803   1.461   4.355
 5139TIP3    H115381   2.884   1.476   4.306
 5139TIP3    H215382   2.783   1.546   4.394
 5140TIP3   OH215383   3.181   1.886   2.454
 5140TIP3    H115384   3.127   1.906   2.378
 5140TIP3    H215385   3.172   1.791   2.465
 5141TIP3   OH215386   6.015   3.494   2.114
 5141TIP3    H115387   5.923   3.503   2.140
 5141TIP3    H215388   6.063   3.491   2.197
 5142TIP3   OH215389   1.240   0.766   4.613
 5142TIP3    H115390   1.313   0.705   4.625
 5142TIP3    H215391   1.168   0.712   4.583
 5143TIP3   OH215392   6.751   5.113   0.340
 5143TIP3    H115393   6.821   5.163   0.296
 5143TIP3    H215394   6.706   5.178   0.394
 5144TIP3   OH215395   3.626   4.923   2.182
 5144TIP3    H115396   3.567   4.848   2.190
 5144TIP3    H215397   3.707   4.886   2.148
 5145TIP3   OH215398   3.371   0.631   1.931
 5145TIP3    H115399   3.441   0.696   1.936
 5145TIP3    H215400   3.415   0.547   1.945
 5146TIP3   OH215401   5.082   2.196   5.768
 5146TIP3    H115402   4.989   2.197   5.744
 5146TIP3    H215403   5.107   2.289   5.769
 5147TIP3   OH215404   4.557   2.209   0.420
 5147TIP3    H115405   4.518   2.135   0.464
 5147TIP3    H215406   4.499   2.283   0.439
 5148TIP3   OH215407   0.952   5.239   2.927
 5148TIP3    H115408   0.922   5.199   3.009
 5148TIP3    H215409   0.872   5.258   2.878
 5149TIP3   OH215410   4.776   5.732   1.839
 5149TIP3    H115411   4.803   5.660   1.782
 5149TIP3    H215412   4.817   5.809   1.801
 5150TIP3   OH215413   0.950   6.568   2.802
 5150TIP3    H115414   0.992   6.621   2.869
 5150TIP3    H215415   0.897   6.505   2.851
 5151TIP3   OH215416   6.008   5.419   1.710
 5151TIP3    H115417   5.918   5.438   1.683
 5151TIP3    H215418   6.024   5.479   1.784
 5152TIP3   OH215419   2.035   0.130   5.224
 5152TIP3    H115420   2.009   0.039   5.238
 5152TIP3    H215421   1.955   0.180   5.237
 5153TIP3   OH215422   5.537   0.381   3.247
 5153TIP3    H115423   5.524   0.305   3.190
 5153TIP3    H215424   5.630   0.379   3.269
 5154TIP3   OH215425   7.041   3.505   0.693
 5154TIP3    H115426   7.043   3.600   0.708
 5154TIP3    H215427   6.954   3.488   0.656
 5155TIP3   OH215428   1.717   1.099   4.046
 5155TIP3    H115429   1.650   1.075   3.982
 5155TIP3    H215430   1.800   1.091   3.998
 5156TIP3   OH215431   0.440   4.442   0.124
 5156TIP3    H115432   0.375   4.401   0.066
 5156TIP3    H215433   0.415   4.534   0.127
 5157TIP3   OH215434   1.169   0.901   3.991
 5157TIP3    H115435   1.087   0.949   3.984
 5157TIP3    H215436   1.233   0.966   4.021
 5158TIP3   OH215437   0.580   0.308   2.973
 5158TIP3    H115438   0.660   0.273   3.013
 5158TIP3    H215439   0.609   0.344   2.889
 5159TIP3   OH215440   4.793   2.806   3.062
 5159TIP3    H115441   4.768   2.897   3.047
 5159TIP3    H215442   4.837   2.808   3.148
 5160TIP3   OH215443   2.339   3.738   2.366
 5160TIP3    H115444   2.262   3.692   2.401
 5160TIP3    H215445   2.320   3.830   2.382
 5161TIP3   OH215446   1.592   2.854   0.681
 5161TIP3    H115447   1.520   2.903   0.723
 5161TIP3    H215448   1.550   2.806   0.610
 5162TIP3   OH215449   5.953   0.838   2.064
 5162TIP3    H115450   5.893   0.911   2.074
 5162TIP3    H215451   5.944   0.788   2.146
 5163TIP3   OH215452   1.390   5.434   1.003
 5163TIP3    H115453   1.408   5.341   1.021
 5163TIP3    H215454   1.410   5.479   1.084
 5164TIP3   OH215455   6.147   1.196   0.833
 5164TIP3    H115456   6.204   1.176   0.758
 5164TIP3    H215457   6.192   1.156   0.908
 5165TIP3   OH215458   0.216   0.811   4.647
 5165TIP3    H115459   0.165   0.797   4.726
 5165TIP3    H215460   0.278   0.880   4.669
 5166TIP3   OH215461   1.632   4.636   5.520
 5166TIP3    H115462   1.681   4.681   5.451
 5166TIP3    H215463   1.625   4.701   5.590
 5167TIP3   OH215464   2.980   1.338   5.728
 5167TIP3    H115465   3.057   1.283   5.712
 5167TIP3    H215466   2.931   1.292   5.795
 5168TIP3   OH215467   5.286   2.208   5.042
 5168TIP3    H115468   5.372   2.249   5.043
 5168TIP3    H215469   5.301   2.121   5.080
 5169TIP3   OH215470   3.916   1.795   1.773
 5169TIP3    H115471   4.002   1.832   1.753
 5169TIP3    H215472   3.931   1.741   1.851
 5170TIP3   OH215473   3.747   0.164   4.354
 5170TIP3    H115474   3.759   0.233   4.419
 5170TIP3    H215475   3.816   0.179   4.289
 5171TIP3   OH215476   4.124   3.846   0.388
 5171TIP3    H115477   4.196   3.897   0.353
 5171TIP3    H215478   4.138   3.844   0.482
 5172TIP3   OH215479   6.237   5.042   3.132
 5172TIP3    H115480   6.189   5.002   3.205
 5172TIP3    H215481   6.288   5.112   3.174
 5173TIP3   OH215482   2.547   0.695   3.636
 5173TIP3    H115483   2.630   0.664   3.602
 5173TIP3    H215484   2.549   0.673   3.729
 5174TIP3   OH215485   1.187   4.201   0.122
 5174TIP3    H115486   1.138   4.278   0.151
 5174TIP3    H215487   1.278   4.230   0.122
 5175TIP3   OH215488   6.894   6.595   1.103
 5175TIP3    H115489   6.910   6.669   1.045
 5175TIP3    H215490   6.905   6.630   1.191
 5176TIP3   OH215491   6.000   1.377   4.898
 5176TIP3    H115492   6.031   1.429   4.973
 5176TIP3    H215493   6.029   1.427   4.822
 5177TIP3   OH215494   4.168   1.919   0.846
 5177TIP3    H115495   4.076   1.893   0.852
 5177TIP3    H215496   4.185   1.962   0.930
 5178TIP3   OH215497   6.700   2.675   0.109
 5178TIP3    H115498   6.762   2.603   0.096
 5178TIP3    H215499   6.742   2.732   0.174
 5179TIP3   OH215500   1.077   0.387   4.398
 5179TIP3    H115501   1.060   0.294   4.418
 5179TIP3    H215502   1.155   0.385   4.342
 5180TIP3   OH215503   5.091   6.520   1.508
 5180TIP3    H115504   5.034   6.571   1.565
 5180TIP3    H215505   5.143   6.466   1.568
 5181TIP3   OH215506   4.738   5.543   3.513
 5181TIP3    H115507   4.777   5.626   3.488
 5181TIP3    H215508   4.670   5.566   3.577
 5182TIP3   OH215509   3.901   1.361   1.655
 5182TIP3    H115510   3.909   1.343   1.561
 5182TIP3    H215511   3.850   1.441   1.660
 5183TIP3   OH215512   1.875   5.690   4.571
 5183TIP3    H115513   1.949   5.631   4.555
 5183TIP3    H215514   1.805   5.658   4.515
 5184TIP3   OH215515   2.986   6.140   0.042
 5184TIP3    H115516   3.049   6.194   0.090
 5184TIP3    H215517   2.979   6.060   0.093
 5185TIP3   OH215518   6.793   2.653   3.700
 5185TIP3    H115519   6.742   2.578   3.730
 5185TIP3    H215520   6.747   2.683   3.621
 5186TIP3   OH215521   5.493   4.609   0.101
 5186TIP3    H115522   5.429   4.646   0.161
 5186TIP3    H215523   5.460   4.521   0.082
 5187TIP3   OH215524   4.908   1.293   2.599
 5187TIP3    H115525   4.818   1.327   2.601
 5187TIP3    H215526   4.900   1.203   2.630
 5188TIP3   OH215527   0.078   5.442   2.008
 5188TIP3    H115528   0.132   5.367   2.036
 5188TIP3    H215529   0.112   5.464   1.921
 5189TIP3   OH215530   2.376   4.184   5.811
 5189TIP3    H115531   2.423   4.230   5.742
 5189TIP3    H215532   2.411   4.219   5.893
 5190TIP3   OH215533   3.329   6.599   1.827
 5190TIP3    H115534   3.270   6.523   1.832
 5190TIP3    H215535   3.417   6.561   1.829
 5191TIP3   OH215536   0.024   6.716   2.730
 5191TIP3    H115537   0.097   6.654   2.732
 5191TIP3    H215538   0.004   6.732   2.823
 5192TIP3   OH215539   6.406   5.543   4.851
 5192TIP3    H115540   6.405   5.455   4.813
 5192TIP3    H215541   6.469   5.591   4.798
 5193TIP3   OH215542   0.359   3.740   0.782
 5193TIP3    H115543   0.325   3.823   0.816
 5193TIP3    H215544   0.445   3.763   0.746
 5194TIP3   OH215545   1.591   4.972   4.030
 5194TIP3    H115546   1.621   5.056   4.065
 5194TIP3    H215547   1.503   4.962   4.065
 5195TIP3   OH215548   6.040   1.466   2.743
 5195TIP3    H115549   6.061   1.540   2.800
 5195TIP3    H215550   6.083   1.486   2.660
 5196TIP3   OH215551   2.528   4.327   0.652
 5196TIP3    H115552   2.475   4.251   0.630
 5196TIP3    H215553   2.479   4.401   0.617
 5197TIP3   OH215554   2.854   1.619   5.019
 5197TIP3    H115555   2.860   1.526   5.039
 5197TIP3    H215556   2.920   1.660   5.075
 5198TIP3   OH215557   5.552   2.889   1.572
 5198TIP3    H115558   5.532   2.826   1.642
 5198TIP3    H215559   5.635   2.858   1.535
 5199TIP3   OH215560   5.101   6.749   3.554
 5199TIP3    H115561   5.128   6.825   3.502
 5199TIP3    H215562   5.006   6.747   3.543
 5200TIP3   OH215563   5.657   3.257   3.782
 5200TIP3    H115564   5.686   3.258   3.691
 5200TIP3    H215565   5.725   3.305   3.829
 5201TIP3   OH215566   5.034   5.691   3.717
 5201TIP3    H115567   4.969   5.665   3.782
 5201TIP3    H215568   5.030   5.624   3.649
 5202TIP3   OH215569   6.227   4.256   0.905
 5202TIP3    H115570   6.247   4.176   0.954
 5202TIP3    H215571   6.276   4.325   0.950
 5203TIP3   OH215572   0.708   3.245   1.895
 5203TIP3    H115573   0.630   3.260   1.949
 5203TIP3    H215574   0.738   3.333   1.870
 5204TIP3   OH215575   2.319   3.542   2.745
 5204TIP3    H115576   2.380   3.613   2.763
 5204TIP3    H215577   2.253   3.549   2.814
 5205TIP3   OH215578   4.396   5.266   2.829
 5205TIP3    H115579   4.342   5.224   2.763
 5205TIP3    H215580   4.413   5.198   2.894
 5206TIP3   OH215581   5.697   0.158   4.913
 5206TIP3    H115582   5.672   0.093   4.846
 5206TIP3    H215583   5.615   0.201   4.936
 5207TIP3   OH215584   6.283   2.134   4.995
 5207TIP3    H115585   6.338   2.101   4.925
 5207TIP3    H215586   6.195   2.102   4.974
 5208TIP3   OH215587   3.352   1.960   3.331
 5208TIP3    H115588   3.303   2.041   3.346
 5208TIP3    H215589   3.388   1.970   3.243
 5209TIP3   OH215590   0.193   5.052   4.916
 5209TIP3    H115591   0.267   4.994   4.901
 5209TIP3    H215592   0.118   5.004   4.881
 5210TIP3   OH215593   6.407   1.040   0.876
 5210TIP3    H115594   6.448   1.030   0.962
 5210TIP3    H215595   6.469   1.094   0.826
 5211TIP3   OH215596   3.146   3.384   0.648
 5211TIP3    H115597   3.105   3.313   0.600
 5211TIP3    H215598   3.132   3.361   0.740
 5212TIP3   OH215599   3.343   1.998   0.343
 5212TIP3    H115600   3.405   2.014   0.413
 5212TIP3    H215601   3.313   1.908   0.357
 5213TIP3   OH215602   3.305   5.349   5.356
 5213TIP3    H115603   3.215   5.378   5.344
 5213TIP3    H215604   3.300   5.278   5.420
 5214TIP3   OH215605   0.884   0.425   2.675
 5214TIP3    H115606   0.838   0.359   2.726
 5214TIP3    H215607   0.827   0.442   2.600
 5215TIP3   OH215608   2.478   0.321   3.851
 5215TIP3    H115609   2.541   0.258   3.886
 5215TIP3    H215610   2.396   0.299   3.897
 5216TIP3   OH215611   1.537   2.470   4.996
 5216TIP3    H115612   1.593   2.423   4.933
 5216TIP3    H215613   1.492   2.536   4.943
 5217TIP3   OH215614   0.985   0.286   1.182
 5217TIP3    H115615   0.942   0.372   1.180
 5217TIP3    H215616   0.981   0.259   1.274
 5218TIP3   OH215617   6.857   2.315   1.311
 5218TIP3    H115618   6.872   2.234   1.263
 5218TIP3    H215619   6.944   2.354   1.321
 5219TIP3   OH215620   0.972   1.027   3.685
 5219TIP3    H115621   0.994   0.953   3.628
 5219TIP3    H215622   0.938   0.986   3.765
 5220TIP3   OH215623   3.672   3.630   1.609
 5220TIP3    H115624   3.734   3.702   1.603
 5220TIP3    H215625   3.636   3.637   1.697
 5221TIP3   OH215626   2.894   4.677   4.739
 5221TIP3    H115627   2.929   4.732   4.809
 5221TIP3    H215628   2.800   4.694   4.738
 5222TIP3   OH215629   5.507   4.862   4.910
 5222TIP3    H115630   5.435   4.852   4.847
 5222TIP3    H215631   5.515   4.776   4.951
 5223TIP3   OH215632   2.391   5.610   5.564
 5223TIP3    H115633   2.357   5.680   5.510
 5223TIP3    H215634   2.482   5.635   5.582
 5224TIP3   OH215635   1.491   1.001   3.656
 5224TIP3    H115636   1.444   0.918   3.645
 5224TIP3    H215637   1.473   1.049   3.575
 5225TIP3   OH215638   3.592   5.656   0.697
 5225TIP3    H115639   3.682   5.683   0.679
 5225TIP3    H215640   3.541   5.736   0.688
 5226TIP3   OH215641   3.742   3.902   2.721
 5226TIP3    H115642   3.683   3.975   2.705
 5226TIP3    H215643   3.685   3.829   2.744
 5227TIP3   OH215644   3.431   0.753   1.664
 5227TIP3    H115645   3.489   0.678   1.683
 5227TIP3    H215646   3.405   0.785   1.751
 5228TIP3   OH215647   4.423   6.695   5.769
 5228TIP3    H115648   4.396   6.614   5.728
 5228TIP3    H215649   4.448   6.670   5.858
 5229TIP3   OH215650   2.110   1.692   4.855
 5229TIP3    H115651   2.101   1.683   4.760
 5229TIP3    H215652   2.083   1.607   4.890
 5230TIP3   OH215653   4.695   4.222   5.067
 5230TIP3    H115654   4.606   4.220   5.101
 5230TIP3    H215655   4.699   4.147   5.007
 5231TIP3   OH215656   5.649   4.497   4.279
 5231TIP3    H115657   5.725   4.444   4.256
 5231TIP3    H215658   5.577   4.461   4.226
 5232TIP3   OH215659   4.187   3.511   1.039
 5232TIP3    H115660   4.149   3.424   1.025
 5232TIP3    H215661   4.252   3.497   1.108
 5233TIP3   OH215662   4.113   4.235   1.907
 5233TIP3    H115663   4.153   4.308   1.860
 5233TIP3    H215664   4.123   4.258   2.000
 5234TIP3   OH215665   5.836   0.393   2.736
 5234TIP3    H115666   5.918   0.425   2.774
 5234TIP3    H215667   5.861   0.313   2.689
 5235TIP3   OH215668   0.026   4.484   0.474
 5235TIP3    H115669  -0.042   4.549   0.456
 5235TIP3    H215670  -0.010   4.402   0.441
 5236TIP3   OH215671   5.332   2.166   5.361
 5236TIP3    H115672   5.282   2.241   5.328
 5236TIP3    H215673   5.349   2.112   5.283
 5237TIP3   OH215674   6.343   3.041   5.140
 5237TIP3    H115675   6.353   3.118   5.196
 5237TIP3    H215676   6.414   2.982   5.165
 5238TIP3   OH215677   0.350   2.441   3.754
 5238TIP3    H115678   0.346   2.458   3.848
 5238TIP3    H215679   0.437   2.404   3.741
 5239TIP3   OH215680   7.097   1.629   5.188
 5239TIP3    H115681   7.073   1.717   5.216
 5239TIP3    H215682   7.014   1.583   5.177
 5240TIP3   OH215683   3.839   2.881   3.645
 5240TIP3    H115684   3.899   2.855   3.715
 5240TIP3    H215685   3.752   2.881   3.687
 5241TIP3   OH215686   0.961   2.261   3.702
 5241TIP3    H115687   0.940   2.216   3.619
 5241TIP3    H215688   1.008   2.195   3.754
 5242TIP3   OH215689   5.533   2.953   2.245
 5242TIP3    H115690   5.570   2.926   2.161
 5242TIP3    H215691   5.571   2.893   2.309
 5243TIP3   OH215692   1.734   1.796   0.389
 5243TIP3    H115693   1.753   1.762   0.477
 5243TIP3    H215694   1.733   1.719   0.333
 5244TIP3   OH215695   1.384   4.307   0.704
 5244TIP3    H115696   1.340   4.236   0.659
 5244TIP3    H215697   1.448   4.264   0.762
 5245TIP3   OH215698   1.813   4.599   1.772
 5245TIP3    H115699   1.797   4.551   1.691
 5245TIP3    H215700   1.897   4.641   1.759
 5246TIP3   OH215701   1.031   4.684   3.002
 5246TIP3    H115702   1.056   4.603   3.046
 5246TIP3    H215703   0.946   4.707   3.039
 5247TIP3   OH215704   3.676   6.409   2.428
 5247TIP3    H115705   3.582   6.426   2.441
 5247TIP3    H215706   3.719   6.491   2.452
 5248TIP3   OH215707   0.491   1.807   4.661
 5248TIP3    H115708   0.564   1.808   4.598
 5248TIP3    H215709   0.460   1.717   4.660
 5249TIP3   OH215710   5.740   1.275   4.515
 5249TIP3    H115711   5.678   1.338   4.552
 5249TIP3    H215712   5.788   1.325   4.448
 5250TIP3   OH215713   5.009   6.639   2.720
 5250TIP3    H115714   4.985   6.704   2.655
 5250TIP3    H215715   5.044   6.689   2.794
 5251TIP3   OH215716   4.198   4.609   2.165
 5251TIP3    H115717   4.286   4.581   2.191
 5251TIP3    H215718   4.173   4.674   2.230
 5252TIP3   OH215719   1.544   2.392   4.315
 5252TIP3    H115720   1.495   2.409   4.395
 5252TIP3    H215721   1.580   2.304   4.327
 5253TIP3   OH215722   3.253   0.402   2.664
 5253TIP3    H115723   3.198   0.452   2.723
 5253TIP3    H215724   3.289   0.331   2.719
 5254TIP3   OH215725   2.310   4.659   1.225
 5254TIP3    H115726   2.325   4.731   1.286
 5254TIP3    H215727   2.360   4.682   1.147
 5255TIP3   OH215728   4.772   1.280   0.321
 5255TIP3    H115729   4.858   1.257   0.287
 5255TIP3    H215730   4.785   1.286   0.416
 5256TIP3   OH215731   0.830   1.792   3.717
 5256TIP3    H115732   0.832   1.863   3.652
 5256TIP3    H215733   0.904   1.737   3.693
 5257TIP3   OH215734   5.018   6.186   1.067
 5257TIP3    H115735   4.931   6.150   1.049
 5257TIP3    H215736   5.001   6.276   1.094
 5258TIP3   OH215737   6.397   0.941   2.814
 5258TIP3    H115738   6.472   0.899   2.857
 5258TIP3    H215739   6.378   0.884   2.739
 5259TIP3   OH215740   2.034   5.559   3.210
 5259TIP3    H115741   2.056   5.621   3.141
 5259TIP3    H215742   2.080   5.592   3.287
 5260TIP3   OH215743   2.944   5.755   1.747
 5260TIP3    H115744   2.870   5.805   1.781
 5260TIP3    H215745   2.987   5.720   1.826
 5261TIP3   OH215746   7.054   4.489   0.812
 5261TIP3    H115747   7.137   4.524   0.779
 5261TIP3    H215748   6.988   4.518   0.749
 5262TIP3   OH215749   5.321   5.362   5.487
 5262TIP3    H115750   5.343   5.450   5.456
 5262TIP3    H215751   5.337   5.306   5.412
 5263TIP3   OH215752   1.583   5.250   0.794
 5263TIP3    H115753   1.526   5.240   0.870
 5263TIP3    H215754   1.533   5.215   0.721
 5264TIP3   OH215755   7.220   3.345   1.469
 5264TIP3    H115756   7.135   3.387   1.457
 5264TIP3    H215757   7.219   3.272   1.406
 5265TIP3   OH215758   0.075   3.104   5.710
 5265TIP3    H115759   0.043   3.113   5.800
 5265TIP3    H215760   0.091   3.194   5.681
 5266TIP3   OH215761   2.192   4.153   0.832
 5266TIP3    H115762   2.157   4.234   0.868
 5266TIP3    H215763   2.119   4.090   0.840
 5267TIP3   OH215764   6.705   5.349   2.012
 5267TIP3    H115765   6.681   5.348   2.104
 5267TIP3    H215766   6.784   5.295   2.006
 5268TIP3   OH215767   2.550   6.587   0.149
 5268TIP3    H115768   2.514   6.500   0.130
 5268TIP3    H215769   2.573   6.583   0.242
 5269TIP3   OH215770   4.736   6.522   4.170
 5269TIP3    H115771   4.807   6.579   4.142
 5269TIP3    H215772   4.763   6.435   4.143
 5270TIP3   OH215773   3.295   4.586   2.403
 5270TIP3    H115774   3.223   4.649   2.402
 5270TIP3    H215775   3.255   4.504   2.431
 5271TIP3   OH215776   5.193   5.728   1.878
 5271TIP3    H115777   5.248   5.654   1.850
 5271TIP3    H215778   5.184   5.782   1.800
 5272TIP3   OH215779   3.430   3.895   4.782
 5272TIP3    H115780   3.516   3.924   4.753
 5272TIP3    H215781   3.427   3.802   4.758
 5273TIP3   OH215782   4.512   4.376   4.518
 5273TIP3    H115783   4.424   4.409   4.540
 5273TIP3    H215784   4.551   4.354   4.602
 5274TIP3   OH215785   4.188   3.840   1.168
 5274TIP3    H115786   4.135   3.861   1.245
 5274TIP3    H215787   4.249   3.772   1.198
 5275TIP3   OH215788   5.683   4.506   2.165
 5275TIP3    H115789   5.673   4.557   2.246
 5275TIP3    H215790   5.707   4.571   2.099
 5276TIP3   OH215791   1.092   1.178   5.652
 5276TIP3    H115792   1.164   1.210   5.598
 5276TIP3    H215793   1.024   1.245   5.644
 5277TIP3   OH215794   2.832   6.458   3.828
 5277TIP3    H115795   2.880   6.462   3.910
 5277TIP3    H215796   2.740   6.463   3.855
 5278TIP3   OH215797   3.031   3.300   5.633
 5278TIP3    H115798   3.063   3.301   5.542
 5278TIP3    H215799   2.936   3.306   5.624
 5279TIP3   OH215800   1.776   1.726   2.012
 5279TIP3    H115801   1.681   1.735   2.013
 5279TIP3    H215802   1.797   1.679   2.092
 5280TIP3   OH215803   6.503   0.361   1.615
 5280TIP3    H115804   6.556   0.382   1.692
 5280TIP3    H215805   6.566   0.343   1.546
 5281TIP3   OH215806   4.791   6.780   0.153
 5281TIP3    H115807   4.775   6.694   0.193
 5281TIP3    H215808   4.714   6.798   0.100
 5282TIP3   OH215809   0.189   0.924   1.537
 5282TIP3    H115810   0.255   0.863   1.503
 5282TIP3    H215811   0.142   0.955   1.460
 5283TIP3   OH215812   4.862   5.732   4.829
 5283TIP3    H115813   4.912   5.677   4.890
 5283TIP3    H215814   4.927   5.792   4.792
 5284TIP3   OH215815   1.574   1.953   3.632
 5284TIP3    H115816   1.585   2.043   3.665
 5284TIP3    H215817   1.580   1.898   3.710
 5285TIP3   OH215818   3.060   2.454   3.331
 5285TIP3    H115819   3.116   2.520   3.291
 5285TIP3    H215820   2.987   2.505   3.369
 5286TIP3   OH215821   6.511   4.277   4.426
 5286TIP3    H115822   6.451   4.232   4.366
 5286TIP3    H215823   6.475   4.365   4.435
 5287TIP3   OH215824   4.351   1.950   4.900
 5287TIP3    H115825   4.361   1.967   4.994
 5287TIP3    H215826   4.359   2.036   4.859
 5288TIP3   OH215827   5.378   1.914   0.664
 5288TIP3    H115828   5.471   1.931   0.671
 5288TIP3    H215829   5.351   1.887   0.752
 5289TIP3   OH215830   4.795   4.512   0.970
 5289TIP3    H115831   4.704   4.500   0.944
 5289TIP3    H215832   4.791   4.562   1.052
 5290TIP3   OH215833   2.754   0.569   5.619
 5290TIP3    H115834   2.823   0.528   5.671
 5290TIP3    H215835   2.673   0.530   5.654
 5291TIP3   OH215836   6.034   3.799   5.376
 5291TIP3    H115837   5.965   3.864   5.362
 5291TIP3    H215838   6.020   3.734   5.307
 5292TIP3   OH215839   6.600   4.623   3.820
 5292TIP3    H115840   6.534   4.556   3.839
 5292TIP3    H215841   6.645   4.637   3.903
 5293TIP3   OH215842   2.174   6.006   2.021
 5293TIP3    H115843   2.162   5.929   2.076
 5293TIP3    H215844   2.239   6.058   2.067
 5294TIP3   OH215845   5.439   0.499   2.800
 5294TIP3    H115846   5.513   0.480   2.857
 5294TIP3    H215847   5.445   0.435   2.730
 5295TIP3   OH215848   6.563   0.406   2.529
 5295TIP3    H115849   6.570   0.325   2.479
 5295TIP3    H215850   6.482   0.447   2.497
 5296TIP3   OH215851   7.086   6.382   1.312
 5296TIP3    H115852   7.109   6.289   1.300
 5296TIP3    H215853   7.060   6.412   1.225
 5297TIP3   OH215854   1.694   2.550   3.593
 5297TIP3    H115855   1.628   2.508   3.538
 5297TIP3    H215856   1.770   2.561   3.537
 5298TIP3   OH215857   6.058   0.868   5.355
 5298TIP3    H115858   6.145   0.882   5.392
 5298TIP3    H215859   6.014   0.812   5.420
 5299TIP3   OH215860   3.132   6.516   5.289
 5299TIP3    H115861   3.216   6.560   5.276
 5299TIP3    H215862   3.074   6.584   5.324
 5300TIP3   OH215863   2.254   5.568   5.825
 5300TIP3    H115864   2.342   5.532   5.837
 5300TIP3    H215865   2.245   5.582   5.731
 5301TIP3   OH215866   2.690   6.306   0.300
 5301TIP3    H115867   2.614   6.248   0.310
 5301TIP3    H215868   2.678   6.374   0.366
 5302TIP3   OH215869   2.208   6.041   0.527
 5302TIP3    H115870   2.238   6.000   0.609
 5302TIP3    H215871   2.199   5.969   0.466
 5303TIP3   OH215872   6.722   5.386   1.107
 5303TIP3    H115873   6.627   5.375   1.101
 5303TIP3    H215874   6.749   5.317   1.168
 5304TIP3   OH215875   3.525   2.400   5.185
 5304TIP3    H115876   3.557   2.314   5.161
 5304TIP3    H215877   3.602   2.447   5.218
 5305TIP3   OH215878   4.705   0.241   5.360
 5305TIP3    H115879   4.703   0.331   5.327
 5305TIP3    H215880   4.788   0.205   5.327
 5306TIP3   OH215881   5.641   2.581   1.437
 5306TIP3    H115882   5.655   2.661   1.388
 5306TIP3    H215883   5.551   2.588   1.471
 5307TIP3   OH215884   2.479   5.427   1.255
 5307TIP3    H115885   2.511   5.517   1.252
 5307TIP3    H215886   2.538   5.378   1.198
 5308TIP3   OH215887   2.188   2.997   5.783
 5308TIP3    H115888   2.125   2.945   5.833
 5308TIP3    H215889   2.270   2.989   5.833
 5309TIP3   OH215890   5.358   2.003   4.552
 5309TIP3    H115891   5.295   2.043   4.612
 5309TIP3    H215892   5.321   1.917   4.531
 5310TIP3   OH215893   5.852   2.189   2.841
 5310TIP3    H115894   5.874   2.230   2.757
 5310TIP3    H215895   5.830   2.261   2.899
 5311TIP3   OH215896   6.727   3.905   5.482
 5311TIP3    H115897   6.644   3.866   5.510
 5311TIP3    H215898   6.782   3.829   5.461
 5312TIP3   OH215899   1.193   6.490   4.479
 5312TIP3    H115900   1.256   6.490   4.406
 5312TIP3    H215901   1.128   6.556   4.455
 5313TIP3   OH215902   5.777   5.541   4.715
 5313TIP3    H115903   5.738   5.470   4.766
 5313TIP3    H215904   5.866   5.511   4.696
 5314TIP3   OH215905   1.177   5.062   0.274
 5314TIP3    H115906   1.201   5.144   0.232
 5314TIP3    H215907   1.258   5.032   0.316
 5315TIP3   OH215908   4.421   2.769   5.166
 5315TIP3    H115909   4.482   2.826   5.213
 5315TIP3    H215910   4.364   2.828   5.118
 5316TIP3   OH215911   3.934   6.273   2.454
 5316TIP3    H115912   3.852   6.320   2.441
 5316TIP3    H215913   3.957   6.239   2.368
 5317TIP3   OH215914   5.646   3.205   1.860
 5317TIP3    H115915   5.603   3.120   1.860
 5317TIP3    H215916   5.633   3.239   1.772
 5318TIP3   OH215917   3.586   1.724   2.065
 5318TIP3    H115918   3.575   1.667   1.990
 5318TIP3    H215919   3.680   1.739   2.071
 5319TIP3   OH215920   0.769   3.249   2.238
 5319TIP3    H115921   0.840   3.303   2.205
 5319TIP3    H215922   0.790   3.160   2.210
 5320TIP3   OH215923   6.741   2.632   3.398
 5320TIP3    H115924   6.677   2.565   3.372
 5320TIP3    H215925   6.790   2.650   3.318
 5321TIP3   OH215926   2.009   0.358   3.443
 5321TIP3    H115927   1.961   0.360   3.526
 5321TIP3    H215928   2.080   0.421   3.454
 5322TIP3   OH215929   6.799   3.269   2.743
 5322TIP3    H115930   6.712   3.231   2.747
 5322TIP3    H215931   6.842   3.238   2.823
 5323TIP3   OH215932   4.867   5.313   4.951
 5323TIP3    H115933   4.818   5.380   4.999
 5323TIP3    H215934   4.924   5.273   5.017
 5324TIP3   OH215935   2.671   0.784   2.912
 5324TIP3    H115936   2.716   0.706   2.881
 5324TIP3    H215937   2.585   0.781   2.869
 5325TIP3   OH215938   2.375   3.151   1.029
 5325TIP3    H115939   2.423   3.129   1.109
 5325TIP3    H215940   2.286   3.170   1.059
 5326TIP3   OH215941   2.166   0.767   0.911
 5326TIP3    H115942   2.236   0.702   0.912
 5326TIP3    H215943   2.169   0.803   0.822
 5327TIP3   OH215944   3.331   5.803   3.458
 5327TIP3    H115945   3.382   5.877   3.425
 5327TIP3    H215946   3.384   5.726   3.439
 5328TIP3   OH215947   3.389   1.775   5.122
 5328TIP3    H115948   3.354   1.766   5.211
 5328TIP3    H215949   3.470   1.825   5.132
 5329TIP3   OH215950   7.157   6.357   2.968
 5329TIP3    H115951   7.145   6.265   2.991
 5329TIP3    H215952   7.214   6.392   3.037
 5330TIP3   OH215953   1.312   2.078   5.848
 5330TIP3    H115954   1.245   2.094   5.782
 5330TIP3    H215955   1.308   1.983   5.863
 5331TIP3   OH215956   6.030   1.685   0.579
 5331TIP3    H115957   6.048   1.611   0.637
 5331TIP3    H215958   6.103   1.745   0.594
 5332TIP3   OH215959   4.096   1.859   2.842
 5332TIP3    H115960   4.101   1.885   2.934
 5332TIP3    H215961   4.186   1.837   2.818
 5333TIP3   OH215962   4.976   2.036   1.683
 5333TIP3    H115963   4.937   1.961   1.728
 5333TIP3    H215964   5.056   2.055   1.733
 5334TIP3   OH215965   2.862   1.096   2.191
 5334TIP3    H115966   2.945   1.104   2.144
 5334TIP3    H215967   2.882   1.125   2.280
 5335TIP3   OH215968   7.049   0.948   5.812
 5335TIP3    H115969   7.116   1.016   5.812
 5335TIP3    H215970   7.047   0.917   5.903
 5336TIP3   OH215971   4.858   0.353   0.968
 5336TIP3    H115972   4.882   0.283   0.907
 5336TIP3    H215973   4.792   0.404   0.921
 5337TIP3   OH215974   1.387   3.709   1.995
 5337TIP3    H115975   1.394   3.804   1.988
 5337TIP3    H215976   1.293   3.691   1.992
 5338TIP3   OH215977   4.705   5.361   5.806
 5338TIP3    H115978   4.764   5.397   5.739
 5338TIP3    H215979   4.731   5.404   5.887
 5339TIP3   OH215980   0.760   5.125   3.746
 5339TIP3    H115981   0.723   5.086   3.667
 5339TIP3    H215982   0.717   5.211   3.752
 5340TIP3   OH215983   2.406   3.065   0.571
 5340TIP3    H115984   2.490   3.020   0.569
 5340TIP3    H215985   2.372   3.048   0.659
 5341TIP3   OH215986   4.527   1.492   2.681
 5341TIP3    H115987   4.597   1.509   2.617
 5341TIP3    H215988   4.501   1.401   2.663
 5342TIP3   OH215989   0.686   2.009   3.556
 5342TIP3    H115990   0.749   2.073   3.522
 5342TIP3    H215991   0.630   1.989   3.481
 5343TIP3   OH215992   2.718   0.062   3.227
 5343TIP3    H115993   2.697   0.123   3.297
 5343TIP3    H215994   2.663   0.089   3.154
 5344TIP3   OH215995   5.731   4.705   0.126
 5344TIP3    H115996   5.753   4.688   0.218
 5344TIP3    H215997   5.640   4.675   0.117
 5345TIP3   OH215998   4.608   4.480   5.479
 5345TIP3    H115999   4.687   4.428   5.494
 5345TIP3    H216000   4.537   4.416   5.477
 5346TIP3   OH216001   4.477   5.772   3.133
 5346TIP3    H116002   4.526   5.810   3.206
 5346TIP3    H216003   4.538   5.710   3.094
 5347TIP3   OH216004   1.721   3.231   5.116
 5347TIP3    H116005   1.737   3.175   5.040
 5347TIP3    H216006   1.688   3.171   5.183
 5348TIP3   OH216007   3.551   5.028   4.747
 5348TIP3    H116008   3.571   4.979   4.827
 5348TIP3    H216009   3.546   5.119   4.776
 5349TIP3   OH216010   6.368   0.918   0.031
 5349TIP3    H116011   6.339   0.847  -0.028
 5349TIP3    H216012   6.441   0.958  -0.016
 5350TIP3   OH216013   5.964   0.983   5.773
 5350TIP3    H116014   6.010   0.901   5.755
 5350TIP3    H216015   5.991   1.007   5.862
 5351TIP3   OH216016   0.122   3.368   5.644
 5351TIP3    H116017   0.197   3.428   5.640
 5351TIP3    H216018   0.046   3.425   5.635
 5352TIP3   OH216019   5.521   6.726   3.307
 5352TIP3    H116020   5.544   6.709   3.398
 5352TIP3    H216021   5.477   6.811   3.309
 5353TIP3   OH216022   3.551   0.576   5.394
 5353TIP3    H116023   3.494   0.619   5.330
 5353TIP3    H216024   3.610   0.645   5.424
 5354TIP3   OH216025   3.871   1.790   3.279
 5354TIP3    H116026   3.910   1.726   3.220
 5354TIP3    H216027   3.789   1.816   3.236
 5355TIP3   OH216028   6.700   1.246   5.721
 5355TIP3    H116029   6.659   1.328   5.693
 5355TIP3    H216030   6.783   1.244   5.674
 5356TIP3   OH216031   4.779   3.482   4.043
 5356TIP3    H116032   4.742   3.455   4.127
 5356TIP3    H216033   4.849   3.543   4.067
 5357TIP3   OH216034   2.660   3.959   4.686
 5357TIP3    H116035   2.705   4.013   4.621
 5357TIP3    H216036   2.627   4.021   4.751
 5358TIP3   OH216037   0.288   1.134   1.664
 5358TIP3    H116038   0.272   1.060   1.605
 5358TIP3    H216039   0.205   1.181   1.668
 5359TIP3   OH216040   3.056   2.417   0.126
 5359TIP3    H116041   3.004   2.347   0.087
 5359TIP3    H216042   3.043   2.407   0.220
 5360TIP3   OH216043   6.796   1.709   1.654
 5360TIP3    H116044   6.805   1.622   1.613
 5360TIP3    H216045   6.876   1.756   1.628
 5361TIP3   OH216046   7.151   0.229   1.529
 5361TIP3    H116047   7.133   0.152   1.583
 5361TIP3    H216048   7.065   0.258   1.498
 5362TIP3   OH216049   5.971   3.317   1.508
 5362TIP3    H116050   6.049   3.370   1.528
 5362TIP3    H216051   5.903   3.381   1.489
 5363TIP3   OH216052   3.628   1.228   3.972
 5363TIP3    H116053   3.607   1.265   3.886
 5363TIP3    H216054   3.687   1.292   4.011
 5364TIP3   OH216055   5.126   6.241   3.468
 5364TIP3    H116056   5.122   6.187   3.547
 5364TIP3    H216057   5.160   6.325   3.498
 5365TIP3   OH216058   5.537   5.532   5.840
 5365TIP3    H116059   5.600   5.461   5.845
 5365TIP3    H216060   5.452   5.489   5.841
 5366TIP3   OH216061   1.156   2.161   1.767
 5366TIP3    H116062   1.076   2.140   1.815
 5366TIP3    H216063   1.197   2.076   1.750
 5367TIP3   OH216064   4.936   6.564   0.874
 5367TIP3    H116065   4.968   6.479   0.843
 5367TIP3    H216066   5.009   6.600   0.925
 5368TIP3   OH216067   6.844   4.529   5.526
 5368TIP3    H116068   6.767   4.490   5.569
 5368TIP3    H216069   6.869   4.602   5.582
 5369TIP3   OH216070   6.122   1.618   2.956
 5369TIP3    H116071   6.218   1.626   2.954
 5369TIP3    H216072   6.091   1.703   2.925
 5370TIP3   OH216073   6.379   0.726   1.666
 5370TIP3    H116074   6.384   0.822   1.667
 5370TIP3    H216075   6.465   0.697   1.696
 5371TIP3   OH216076   0.887   2.283   0.072
 5371TIP3    H116077   0.923   2.235   0.147
 5371TIP3    H216078   0.952   2.274   0.003
 5372TIP3   OH216079   2.929   5.165   1.078
 5372TIP3    H116080   2.940   5.170   1.173
 5372TIP3    H216081   2.989   5.231   1.044
 5373TIP3   OH216082   4.167   0.913   1.945
 5373TIP3    H116083   4.231   0.844   1.927
 5373TIP3    H216084   4.126   0.931   1.860
 5374TIP3   OH216085   3.605   3.208   3.778
 5374TIP3    H116086   3.626   3.115   3.763
 5374TIP3    H216087   3.681   3.256   3.745
 5375TIP3   OH216088   0.587   1.940   5.312
 5375TIP3    H116089   0.681   1.954   5.318
 5375TIP3    H216090   0.549   2.028   5.312
 5376TIP3   OH216091   5.917   0.204   5.070
 5376TIP3    H116092   5.956   0.162   4.993
 5376TIP3    H216093   5.850   0.262   5.035
 5377TIP3   OH216094   4.430   1.225   2.956
 5377TIP3    H116095   4.383   1.146   2.930
 5377TIP3    H216096   4.369   1.297   2.940
 5378TIP3   OH216097   3.807   1.568   3.027
 5378TIP3    H116098   3.754   1.647   3.036
 5378TIP3    H216099   3.871   1.589   2.959
 5379TIP3   OH216100   3.843   2.094   2.846
 5379TIP3    H116101   3.763   2.145   2.848
 5379TIP3    H216102   3.913   2.157   2.863
 5380TIP3   OH216103   3.229   2.195   3.374
 5380TIP3    H116104   3.172   2.221   3.302
 5380TIP3    H216105   3.240   2.274   3.426
 5381TIP3   OH216106   2.319   1.977   2.360
 5381TIP3    H116107   2.238   1.999   2.314
 5381TIP3    H216108   2.301   1.892   2.400
 5382TIP3   OH216109   1.545   3.682   3.152
 5382TIP3    H116110   1.611   3.725   3.207
 5382TIP3    H216111   1.477   3.655   3.214
 5383TIP3   OH216112   0.711   2.206   3.064
 5383TIP3    H116113   0.692   2.267   2.992
 5383TIP3    H216114   0.758   2.134   3.023
 5384TIP3   OH216115   6.252   2.232   4.079
 5384TIP3    H116116   6.165   2.208   4.109
 5384TIP3    H216117   6.242   2.321   4.043
 5385TIP3   OH216118   1.618   1.767   2.757
 5385TIP3    H116119   1.611   1.775   2.852
 5385TIP3    H216120   1.573   1.686   2.736
 5386TIP3   OH216121   4.587   3.784   3.295
 5386TIP3    H116122   4.667   3.772   3.243
 5386TIP3    H216123   4.588   3.711   3.357
 5387TIP3   OH216124   6.233   2.099   3.108
 5387TIP3    H116125   6.197   2.144   3.031
 5387TIP3    H216126   6.250   2.169   3.171
 5388TIP3   OH216127   0.141   0.840   3.108
 5388TIP3    H116128   0.059   0.792   3.093
 5388TIP3    H216129   0.119   0.930   3.086
 5389TIP3   OH216130   1.323   6.242   3.985
 5389TIP3    H116131   1.292   6.273   4.070
 5389TIP3    H216132   1.277   6.159   3.971
 5390TIP3   OH216133   5.901   1.680   2.301
 5390TIP3    H116134   5.823   1.649   2.348
 5390TIP3    H216135   5.958   1.603   2.297
 5391TIP3   OH216136   0.158   5.763   3.591
 5391TIP3    H116137   0.219   5.812   3.646
 5391TIP3    H216138   0.148   5.679   3.637
 5392TIP3   OH216139   4.381   2.565   2.074
 5392TIP3    H116140   4.415   2.654   2.073
 5392TIP3    H216141   4.344   2.554   2.162
 5393TIP3   OH216142   2.724   5.902   3.335
 5393TIP3    H116143   2.819   5.912   3.344
 5393TIP3    H216144   2.713   5.819   3.288
 5394TIP3   OH216145   0.579   6.258   2.062
 5394TIP3    H116146   0.647   6.323   2.084
 5394TIP3    H216147   0.510   6.274   2.126
 5395TIP3   OH216148   5.080   4.422   0.527
 5395TIP3    H116149   5.141   4.488   0.561
 5395TIP3    H216150   5.042   4.383   0.606
 5396TIP3   OH216151   4.057   2.911   3.010
 5396TIP3    H116152   4.108   2.863   2.945
 5396TIP3    H216153   3.991   2.958   2.959
 5397TIP3   OH216154   7.145   2.446   3.055
 5397TIP3    H116155   7.231   2.455   3.096
 5397TIP3    H216156   7.149   2.361   3.010
 5398TIP3   OH216157   2.585   0.547   4.381
 5398TIP3    H116158   2.511   0.573   4.437
 5398TIP3    H216159   2.564   0.458   4.354
 5399TIP3   OH216160   7.210   2.610   3.782
 5399TIP3    H116161   7.163   2.687   3.813
 5399TIP3    H216162   7.175   2.594   3.695
 5400TIP3   OH216163   3.024   0.327   5.623
 5400TIP3    H116164   2.982   0.332   5.538
 5400TIP3    H216165   2.956   0.295   5.682
 5401TIP3   OH216166   1.401   0.500   4.631
 5401TIP3    H116167   1.467   0.479   4.697
 5401TIP3    H216168   1.348   0.420   4.624
 5402TIP3   OH216169   4.858   5.378   4.567
 5402TIP3    H116170   4.944   5.342   4.591
 5402TIP3    H216171   4.877   5.466   4.535
 5403TIP3   OH216172   5.405   6.119   0.567
 5403TIP3    H116173   5.447   6.195   0.607
 5403TIP3    H216174   5.340   6.091   0.631
 5404TIP3   OH216175   0.430   5.729   5.429
 5404TIP3    H116176   0.405   5.781   5.352
 5404TIP3    H216177   0.375   5.651   5.424
 5405TIP3   OH216178   5.932   6.195   1.695
 5405TIP3    H116179   5.954   6.256   1.625
 5405TIP3    H216180   6.002   6.130   1.694
 5406TIP3   OH216181   4.922   2.219   1.448
 5406TIP3    H116182   4.864   2.291   1.473
 5406TIP3    H216183   4.917   2.157   1.520
 5407TIP3   OH216184   0.942   4.774   4.150
 5407TIP3    H116185   0.978   4.728   4.225
 5407TIP3    H216186   0.999   4.750   4.077
 5408TIP3   OH216187   3.708   4.467   3.400
 5408TIP3    H116188   3.736   4.401   3.463
 5408TIP3    H216189   3.777   4.467   3.333
 5409TIP3   OH216190   4.433   5.067   3.007
 5409TIP3    H116191   4.402   5.022   3.086
 5409TIP3    H216192   4.479   4.999   2.957
 5410TIP3   OH216193   1.016   4.248   2.698
 5410TIP3    H116194   1.033   4.157   2.722
 5410TIP3    H216195   1.094   4.296   2.726
 5411TIP3   OH216196   6.766   3.398   1.559
 5411TIP3    H116197   6.852   3.435   1.540
 5411TIP3    H216198   6.723   3.392   1.474
 5412TIP3   OH216199   0.710   2.772   3.220
 5412TIP3    H116200   0.758   2.690   3.231
 5412TIP3    H216201   0.618   2.746   3.222
 5413TIP3   OH216202   3.517   0.445   2.566
 5413TIP3    H116203   3.426   0.416   2.575
 5413TIP3    H216204   3.516   0.505   2.491
 5414TIP3   OH216205   6.763   1.621   2.472
 5414TIP3    H116206   6.769   1.706   2.430
 5414TIP3    H216207   6.792   1.637   2.562
 5415TIP3   OH216208   0.313   0.765   4.931
 5415TIP3    H116209   0.380   0.704   4.899
 5415TIP3    H216210   0.349   0.851   4.911
 5416TIP3   OH216211   5.048   1.494   4.826
 5416TIP3    H116212   4.986   1.566   4.819
 5416TIP3    H216213   5.031   1.456   4.912
 5417TIP3   OH216214   3.036   4.522   0.531
 5417TIP3    H116215   2.961   4.470   0.561
 5417TIP3    H216216   3.080   4.547   0.612
 5418TIP3   OH216217   2.504   5.043   4.838
 5418TIP3    H116218   2.549   4.963   4.809
 5418TIP3    H216219   2.417   5.037   4.800
 5419TIP3   OH216220   4.486   2.493   5.192
 5419TIP3    H116221   4.447   2.579   5.208
 5419TIP3    H216222   4.411   2.437   5.169
 5420TIP3   OH216223   5.936   3.686   4.615
 5420TIP3    H116224   5.899   3.709   4.700
 5420TIP3    H216225   6.028   3.668   4.634
 5421TIP3   OH216226   1.263   0.625   3.340
 5421TIP3    H116227   1.307   0.540   3.349
 5421TIP3    H216228   1.332   0.684   3.310
 5422TIP3   OH216229   5.504   2.976   3.841
 5422TIP3    H116230   5.567   2.943   3.904
 5422TIP3    H216231   5.502   3.071   3.856
 5423TIP3   OH216232   3.058   2.654   4.757
 5423TIP3    H116233   3.099   2.568   4.745
 5423TIP3    H216234   3.123   2.705   4.806
 5424TIP3   OH216235   4.175   1.285   2.711
 5424TIP3    H116236   4.192   1.371   2.673
 5424TIP3    H216237   4.157   1.302   2.803
 5425TIP3   OH216238   1.257   5.596   4.294
 5425TIP3    H116239   1.270   5.609   4.200
 5425TIP3    H216240   1.230   5.505   4.302
 5426TIP3   OH216241   5.195   3.514   3.155
 5426TIP3    H116242   5.282   3.522   3.115
 5426TIP3    H216243   5.204   3.444   3.220
 5427TIP3   OH216244   5.930   1.095   1.131
 5427TIP3    H116245   5.956   1.003   1.122
 5427TIP3    H216246   5.849   1.102   1.081
 5428TIP3   OH216247   5.444   4.279   0.915
 5428TIP3    H116248   5.405   4.200   0.953
 5428TIP3    H216249   5.431   4.347   0.981
 5429TIP3   OH216250   6.253   3.705   3.628
 5429TIP3    H116251   6.276   3.613   3.646
 5429TIP3    H216252   6.237   3.708   3.534
 5430TIP3   OH216253   4.496   1.739   1.294
 5430TIP3    H116254   4.411   1.727   1.252
 5430TIP3    H216255   4.521   1.651   1.323
 5431TIP3   OH216256   1.214   6.559   2.041
 5431TIP3    H116257   1.277   6.538   1.972
 5431TIP3    H216258   1.258   6.627   2.093
 5432TIP3   OH216259   6.496   0.004   5.513
 5432TIP3    H116260   6.538   0.020   5.598
 5432TIP3    H216261   6.548   0.056   5.451
 5433TIP3   OH216262   4.069   5.830   0.389
 5433TIP3    H116263   4.145   5.817   0.332
 5433TIP3    H216264   4.105   5.858   0.473
 5434TIP3   OH216265   4.004   2.070   0.340
 5434TIP3    H116266   4.026   1.996   0.283
 5434TIP3    H216267   3.990   2.030   0.426
 5435TIP3   OH216268   3.883   5.303   0.614
 5435TIP3    H116269   3.799   5.298   0.659
 5435TIP3    H216270   3.863   5.280   0.523
 5436TIP3   OH216271   6.532   4.551   0.370
 5436TIP3    H116272   6.561   4.591   0.451
 5436TIP3    H216273   6.440   4.575   0.362
 5437TIP3   OH216274   3.878   2.388   3.998
 5437TIP3    H116275   3.910   2.475   3.974
 5437TIP3    H216276   3.952   2.330   3.981
 5438TIP3   OH216277   3.914   0.649   3.241
 5438TIP3    H116278   3.827   0.675   3.212
 5438TIP3    H216279   3.972   0.717   3.207
 5439TIP3   OH216280   5.607   3.024   5.258
 5439TIP3    H116281   5.687   3.076   5.269
 5439TIP3    H216282   5.597   2.978   5.342
 5440TIP3   OH216283   1.174   3.523   5.625
 5440TIP3    H116284   1.174   3.462   5.551
 5440TIP3    H216285   1.119   3.480   5.691
 5441TIP3   OH216286   0.269   0.768   4.318
 5441TIP3    H116287   0.209   0.694   4.315
 5441TIP3    H216288   0.232   0.831   4.255
 5442TIP3   OH216289   6.275   5.020   4.386
 5442TIP3    H116290   6.356   4.972   4.370
 5442TIP3    H216291   6.248   5.051   4.299
 5443TIP3   OH216292   0.936   6.572   1.094
 5443TIP3    H116293   0.968   6.486   1.124
 5443TIP3    H216294   0.900   6.612   1.174
 5444TIP3   OH216295   4.076   6.306   5.072
 5444TIP3    H116296   4.022   6.330   5.147
 5444TIP3    H216297   4.051   6.215   5.053
 5445TIP3   OH216298   4.709   5.301   2.356
 5445TIP3    H116299   4.672   5.347   2.282
 5445TIP3    H216300   4.794   5.269   2.326
 5446TIP3   OH216301   1.480   0.646   1.645
 5446TIP3    H116302   1.529   0.564   1.639
 5446TIP3    H216303   1.462   0.656   1.739
 5447TIP3   OH216304   5.465   2.088   4.262
 5447TIP3    H116305   5.431   2.000   4.277
 5447TIP3    H216306   5.537   2.097   4.325
 5448TIP3   OH216307   4.815   4.442   3.592
 5448TIP3    H116308   4.837   4.349   3.603
 5448TIP3    H216309   4.751   4.460   3.661
 5449TIP3   OH216310   2.153   4.055   4.347
 5449TIP3    H116311   2.153   4.147   4.373
 5449TIP3    H216312   2.234   4.020   4.382
 5450TIP3   OH216313   4.218   3.945   4.873
 5450TIP3    H116314   4.265   3.892   4.808
 5450TIP3    H216315   4.199   4.027   4.827
 5451TIP3   OH216316   5.172   2.273   2.802
 5451TIP3    H116317   5.183   2.179   2.815
 5451TIP3    H216318   5.201   2.289   2.713
 5452TIP3   OH216319   1.170   4.742   3.935
 5452TIP3    H116320   1.161   4.671   3.871
 5452TIP3    H216321   1.240   4.797   3.900
 5453TIP3   OH216322   7.126   6.598   4.043
 5453TIP3    H116323   7.161   6.687   4.037
 5453TIP3    H216324   7.032   6.610   4.054
 5454TIP3   OH216325   6.770   3.494   0.604
 5454TIP3    H116326   6.734   3.581   0.591
 5454TIP3    H216327   6.696   3.435   0.589
 5455TIP3   OH216328   3.173   4.248   0.601
 5455TIP3    H116329   3.139   4.172   0.553
 5455TIP3    H216330   3.169   4.320   0.538
 5456TIP3   OH216331   6.310   6.082   2.748
 5456TIP3    H116332   6.391   6.072   2.698
 5456TIP3    H216333   6.290   5.993   2.779
 5457TIP3   OH216334   4.291   1.886   3.856
 5457TIP3    H116335   4.302   1.833   3.934
 5457TIP3    H216336   4.207   1.932   3.869
 5458TIP3   OH216337   0.701   2.789   2.818
 5458TIP3    H116338   0.716   2.743   2.901
 5458TIP3    H216339   0.718   2.881   2.839
 5459TIP3   OH216340   3.130   4.775   4.977
 5459TIP3    H116341   3.219   4.743   4.963
 5459TIP3    H216342   3.139   4.871   4.975
 5460TIP3   OH216343   2.754   1.413   1.001
 5460TIP3    H116344   2.662   1.387   1.013
 5460TIP3    H216345   2.771   1.397   0.908
 5461TIP3   OH216346   0.408   5.682   4.057
 5461TIP3    H116347   0.473   5.703   3.990
 5461TIP3    H216348   0.418   5.588   4.072
 5462TIP3   OH216349   5.314   1.486   0.880
 5462TIP3    H116350   5.319   1.414   0.942
 5462TIP3    H216351   5.317   1.565   0.934
 5463TIP3   OH216352   2.366   1.405   2.483
 5463TIP3    H116353   2.461   1.408   2.494
 5463TIP3    H216354   2.334   1.352   2.556
 5464TIP3   OH216355   0.417   5.222   4.819
 5464TIP3    H116356   0.467   5.182   4.748
 5464TIP3    H216357   0.396   5.150   4.878
 5465TIP3   OH216358   3.510   0.718   0.542
 5465TIP3    H116359   3.556   0.801   0.556
 5465TIP3    H216360   3.442   0.717   0.609
 5466TIP3   OH216361   0.444   0.391   3.226
 5466TIP3    H116362   0.422   0.477   3.263
 5466TIP3    H216363   0.515   0.410   3.164
 5467TIP3   OH216364   0.852   1.115   4.700
 5467TIP3    H116365   0.770   1.145   4.662
 5467TIP3    H216366   0.920   1.163   4.654
 5468TIP3   OH216367   6.960   1.276   2.075
 5468TIP3    H116368   6.990   1.221   2.147
 5468TIP3    H216369   6.941   1.214   2.004
 5469TIP3   OH216370   3.799   3.753   3.674
 5469TIP3    H116371   3.743   3.826   3.649
 5469TIP3    H216372   3.832   3.776   3.761
 5470TIP3   OH216373   5.992   3.351   4.874
 5470TIP3    H116374   6.036   3.305   4.946
 5470TIP3    H216375   6.038   3.322   4.795
 5471TIP3   OH216376   2.790   6.192   4.534
 5471TIP3    H116377   2.804   6.286   4.528
 5471TIP3    H216378   2.709   6.176   4.484
 5472TIP3   OH216379   0.409   0.563   0.219
 5472TIP3    H116380   0.333   0.518   0.182
 5472TIP3    H216381   0.402   0.652   0.185
 5473TIP3   OH216382   3.080   5.062   5.239
 5473TIP3    H116383   3.147   5.087   5.175
 5473TIP3    H216384   2.997   5.075   5.193
 5474TIP3   OH216385   3.119   2.180   5.599
 5474TIP3    H116386   3.108   2.091   5.565
 5474TIP3    H216387   3.113   2.170   5.694
 5475TIP3   OH216388   4.697   1.285   3.014
 5475TIP3    H116389   4.722   1.197   3.042
 5475TIP3    H216390   4.623   1.272   2.955
 5476TIP3   OH216391   4.201   2.676   2.545
 5476TIP3    H116392   4.245   2.760   2.533
 5476TIP3    H216393   4.210   2.657   2.638
 5477TIP3   OH216394   1.443   2.983   0.859
 5477TIP3    H116395   1.431   3.041   0.934
 5477TIP3    H216396   1.374   2.918   0.868
 5478TIP3   OH216397   3.291   4.891   1.822
 5478TIP3    H116398   3.338   4.832   1.881
 5478TIP3    H216399   3.252   4.957   1.879
 5479TIP3   OH216400   5.592   1.113   5.303
 5479TIP3    H116401   5.625   1.164   5.376
 5479TIP3    H216402   5.660   1.047   5.287
 5480TIP3   OH216403   4.775   3.526   3.712
 5480TIP3    H116404   4.772   3.568   3.798
 5480TIP3    H216405   4.869   3.522   3.690
 5481TIP3   OH216406   3.553   5.888   0.969
 5481TIP3    H116407   3.512   5.916   0.887
 5481TIP3    H216408   3.534   5.958   1.031
 5482TIP3   OH216409   3.605   5.625   2.701
 5482TIP3    H116410   3.534   5.654   2.758
 5482TIP3    H216411   3.685   5.642   2.751
 5483TIP3   OH216412   1.783   4.935   1.553
 5483TIP3    H116413   1.837   4.856   1.552
 5483TIP3    H216414   1.761   4.950   1.461
 5484TIP3   OH216415   0.079   1.290   1.616
 5484TIP3    H116416   0.055   1.377   1.650
 5484TIP3    H216417  -0.002   1.240   1.621
 5485TIP3   OH216418   5.711   5.062   4.596
 5485TIP3    H116419   5.692   5.075   4.503
 5485TIP3    H216420   5.790   5.112   4.612
 5486TIP3   OH216421   6.755   3.864   4.147
 5486TIP3    H116422   6.737   3.820   4.230
 5486TIP3    H216423   6.749   3.958   4.168
 5487TIP3   OH216424   2.005   1.512   4.389
 5487TIP3    H116425   2.065   1.578   4.354
 5487TIP3    H216426   1.991   1.451   4.316
 5488TIP3   OH216427   2.013   5.296   2.461
 5488TIP3    H116428   1.977   5.346   2.534
 5488TIP3    H216429   1.942   5.292   2.397
 5489TIP3   OH216430   0.122   3.761   5.114
 5489TIP3    H116431   0.071   3.764   5.195
 5489TIP3    H216432   0.138   3.853   5.093
 5490TIP3   OH216433   6.291   3.339   2.380
 5490TIP3    H116434   6.339   3.397   2.321
 5490TIP3    H216435   6.358   3.306   2.440
 5491TIP3   OH216436   4.746   1.093   1.074
 5491TIP3    H116437   4.792   1.020   1.116
 5491TIP3    H216438   4.703   1.139   1.146
 5492TIP3   OH216439   5.695   1.151   5.803
 5492TIP3    H116440   5.625   1.096   5.839
 5492TIP3    H216441   5.692   1.231   5.856
 5493TIP3   OH216442   0.918   2.104   3.457
 5493TIP3    H116443   0.957   2.164   3.392
 5493TIP3    H216444   0.938   2.017   3.423
 5494TIP3   OH216445   3.550   0.218   5.231
 5494TIP3    H116446   3.500   0.183   5.305
 5494TIP3    H216447   3.499   0.292   5.201
 5495TIP3   OH216448   6.173   1.562   3.877
 5495TIP3    H116449   6.229   1.512   3.936
 5495TIP3    H216450   6.220   1.645   3.865
 5496TIP3   OH216451   1.243   3.104   2.357
 5496TIP3    H116452   1.167   3.127   2.410
 5496TIP3    H216453   1.288   3.036   2.406
 5497TIP3   OH216454   4.620   3.158   4.535
 5497TIP3    H116455   4.701   3.135   4.581
 5497TIP3    H216456   4.640   3.242   4.493
 5498TIP3   OH216457   5.823   0.225   3.172
 5498TIP3    H116458   5.762   0.208   3.101
 5498TIP3    H216459   5.886   0.153   3.166
 5499TIP3   OH216460   4.429   3.338   3.457
 5499TIP3    H116461   4.367   3.297   3.517
 5499TIP3    H216462   4.385   3.418   3.428
 5500TIP3   OH216463   6.277   5.188   5.863
 5500TIP3    H116464   6.283   5.221   5.773
 5500TIP3    H216465   6.359   5.142   5.879
 5501TIP3   OH216466   0.822   1.678   4.241
 5501TIP3    H116467   0.808   1.749   4.179
 5501TIP3    H216468   0.733   1.645   4.260
 5502TIP3   OH216469   5.459   3.472   4.735
 5502TIP3    H116470   5.428   3.490   4.646
 5502TIP3    H216471   5.521   3.400   4.724
 5503TIP3   OH216472   0.857   2.732   0.898
 5503TIP3    H116473   0.933   2.723   0.955
 5503TIP3    H216474   0.792   2.776   0.953
 5504TIP3   OH216475   1.537   0.982   4.298
 5504TIP3    H116476   1.618   0.981   4.349
 5504TIP3    H216477   1.565   1.005   4.209
 5505TIP3   OH216478   2.509   0.537   1.329
 5505TIP3    H116479   2.552   0.547   1.244
 5505TIP3    H216480   2.443   0.606   1.331
 5506TIP3   OH216481   0.409   5.006   5.871
 5506TIP3    H116482   0.470   5.078   5.854
 5506TIP3    H216483   0.346   5.043   5.934
 5507TIP3   OH216484   6.538   4.874   2.719
 5507TIP3    H116485   6.543   4.780   2.704
 5507TIP3    H216486   6.466   4.884   2.781
 5508TIP3   OH216487   6.484   4.203   3.683
 5508TIP3    H116488   6.509   4.158   3.763
 5508TIP3    H216489   6.416   4.148   3.644
 5509TIP3   OH216490   5.013   0.082   1.738
 5509TIP3    H116491   4.938   0.138   1.761
 5509TIP3    H216492   5.025   0.096   1.644
 5510TIP3   OH216493   6.126   1.919   2.861
 5510TIP3    H116494   6.220   1.901   2.865
 5510TIP3    H216495   6.116   1.977   2.786
 5511TIP3   OH216496   4.655   5.577   3.055
 5511TIP3    H116497   4.579   5.556   3.001
 5511TIP3    H216498   4.676   5.495   3.100
 5512TIP3   OH216499   4.845   0.082   2.799
 5512TIP3    H116500   4.849   0.134   2.879
 5512TIP3    H216501   4.936   0.056   2.783
 5513TIP3   OH216502   1.391   3.210   4.550
 5513TIP3    H116503   1.435   3.174   4.626
 5513TIP3    H216504   1.460   3.252   4.499
 5514TIP3   OH216505   6.356   4.498   4.419
 5514TIP3    H116506   6.380   4.541   4.501
 5514TIP3    H216507   6.261   4.488   4.424
 5515TIP3   OH216508   1.420   3.962   1.877
 5515TIP3    H116509   1.359   4.019   1.923
 5515TIP3    H216510   1.498   4.016   1.863
 5516TIP3   OH216511   0.200   4.126   2.290
 5516TIP3    H116512   0.198   4.031   2.306
 5516TIP3    H216513   0.292   4.149   2.297
 5517TIP3   OH216514   2.961   2.690   0.903
 5517TIP3    H116515   3.018   2.652   0.836
 5517TIP3    H216516   3.009   2.765   0.936
 5518TIP3   OH216517   1.174   2.189   1.358
 5518TIP3    H116518   1.215   2.276   1.362
 5518TIP3    H216519   1.126   2.181   1.440
 5519TIP3   OH216520   1.475   5.088   0.599
 5519TIP3    H116521   1.386   5.122   0.593
 5519TIP3    H216522   1.478   5.017   0.535
 5520TIP3   OH216523   0.968   2.299   2.454
 5520TIP3    H116524   0.947   2.360   2.525
 5520TIP3    H216525   0.953   2.213   2.492
 5521TIP3   OH216526   4.821   1.824   2.003
 5521TIP3    H116527   4.805   1.801   1.911
 5521TIP3    H216528   4.745   1.790   2.050
 5522TIP3   OH216529   2.696   2.584   0.833
 5522TIP3    H116530   2.736   2.668   0.854
 5522TIP3    H216531   2.767   2.520   0.840
 5523TIP3   OH216532   2.482   0.582   3.944
 5523TIP3    H116533   2.500   0.499   3.900
 5523TIP3    H216534   2.445   0.558   4.028
 5524TIP3   OH216535   1.670   2.175   5.671
 5524TIP3    H116536   1.591   2.218   5.638
 5524TIP3    H216537   1.692   2.111   5.603
 5525TIP3   OH216538   3.809   3.415   0.141
 5525TIP3    H116539   3.758   3.411   0.059
 5525TIP3    H216540   3.894   3.450   0.115
 5526TIP3   OH216541   4.414   3.305   2.705
 5526TIP3    H116542   4.431   3.397   2.725
 5526TIP3    H216543   4.428   3.298   2.610
 5527TIP3   OH216544   4.984   1.391   5.076
 5527TIP3    H116545   5.021   1.303   5.087
 5527TIP3    H216546   4.993   1.432   5.162
 5528TIP3   OH216547   6.806   0.218   1.057
 5528TIP3    H116548   6.894   0.246   1.082
 5528TIP3    H216549   6.756   0.218   1.138
 5529TIP3   OH216550   1.789   4.041   5.680
 5529TIP3    H116551   1.729   4.001   5.743
 5529TIP3    H216552   1.810   4.126   5.718
 5530TIP3   OH216553   4.313   4.688   4.408
 5530TIP3    H116554   4.281   4.756   4.349
 5530TIP3    H216555   4.236   4.634   4.427
 5531TIP3   OH216556   6.005   2.241   1.832
 5531TIP3    H116557   6.004   2.252   1.737
 5531TIP3    H216558   6.018   2.329   1.867
 5532TIP3   OH216559   4.632   0.679   1.050
 5532TIP3    H116560   4.566   0.748   1.055
 5532TIP3    H216561   4.595   0.606   1.100
 5533TIP3   OH216562   1.065   1.941   4.571
 5533TIP3    H116563   1.070   1.944   4.475
 5533TIP3    H216564   0.977   1.973   4.590
 5534TIP3   OH216565   2.764   3.434   1.117
 5534TIP3    H116566   2.670   3.444   1.103
 5534TIP3    H216567   2.803   3.452   1.031
 5535TIP3   OH216568   3.165   0.329   2.200
 5535TIP3    H116569   3.238   0.271   2.221
 5535TIP3    H216570   3.116   0.337   2.282
 5536TIP3   OH216571   6.791   4.859   2.412
 5536TIP3    H116572   6.777   4.765   2.427
 5536TIP3    H216573   6.852   4.861   2.338
 5537TIP3   OH216574   6.051   0.171   5.577
 5537TIP3    H116575   6.133   0.164   5.528
 5537TIP3    H216576   6.050   0.094   5.633
 5538TIP3   OH216577   4.897   6.364   1.239
 5538TIP3    H116578   4.881   6.323   1.324
 5538TIP3    H216579   4.982   6.406   1.249
 5539TIP3   OH216580   4.056   1.299   4.497
 5539TIP3    H116581   3.976   1.258   4.530
 5539TIP3    H216582   4.065   1.267   4.408
 5540TIP3   OH216583   4.933   5.311   3.658
 5540TIP3    H116584   4.946   5.371   3.584
 5540TIP3    H216585   4.902   5.368   3.729
 5541TIP3   OH216586   6.391   0.380   0.691
 5541TIP3    H116587   6.391   0.378   0.786
 5541TIP3    H216588   6.306   0.344   0.666
 5542TIP3   OH216589   1.058   4.145   3.965
 5542TIP3    H116590   1.103   4.227   3.987
 5542TIP3    H216591   0.979   4.146   4.019
 5543TIP3   OH216592   6.989   6.432   0.685
 5543TIP3    H116593   7.048   6.460   0.755
 5543TIP3    H216594   6.912   6.399   0.730
 5544TIP3   OH216595   1.067   2.569   3.194
 5544TIP3    H116596   1.152   2.608   3.173
 5544TIP3    H216597   1.014   2.643   3.223
 5545TIP3   OH216598   0.061   3.477   0.451
 5545TIP3    H116599   0.114   3.551   0.483
 5545TIP3    H216600  -0.030   3.507   0.460
 5546TIP3   OH216601   2.123   1.787   5.491
 5546TIP3    H116602   2.158   1.865   5.535
 5546TIP3    H216603   2.117   1.721   5.560
 5547TIP3   OH216604   1.364   2.981   3.377
 5547TIP3    H116605   1.372   2.979   3.473
 5547TIP3    H216606   1.396   3.068   3.352
 5548TIP3   OH216607   3.233   0.007   2.254
 5548TIP3    H116608   3.281   0.084   2.283
 5548TIP3    H216609   3.301  -0.050   2.217
 5549TIP3   OH216610   6.049   3.549   1.844
 5549TIP3    H116611   6.038   3.536   1.938
 5549TIP3    H216612   6.144   3.544   1.830
 5550TIP3   OH216613   5.371   6.264   5.272
 5550TIP3    H116614   5.462   6.269   5.302
 5550TIP3    H216615   5.362   6.337   5.211
 5551TIP3   OH216616   0.191   2.345   1.466
 5551TIP3    H116617   0.265   2.366   1.523
 5551TIP3    H216618   0.128   2.416   1.481
 5552TIP3   OH216619   2.430   4.999   5.825
 5552TIP3    H116620   2.514   5.038   5.800
 5552TIP3    H216621   2.384   4.987   5.743
 5553TIP3   OH216622   7.165   4.468   3.554
 5553TIP3    H116623   7.072   4.475   3.576
 5553TIP3    H216624   7.170   4.393   3.496
 5554TIP3   OH216625   3.696   1.419   2.136
 5554TIP3    H116626   3.634   1.455   2.072
 5554TIP3    H216627   3.730   1.495   2.182
 5555TIP3   OH216628   2.632   0.312   2.445
 5555TIP3    H116629   2.609   0.367   2.520
 5555TIP3    H216630   2.671   0.233   2.484
 5556TIP3   OH216631   2.535   4.156   0.062
 5556TIP3    H116632   2.588   4.103   0.122
 5556TIP3    H216633   2.469   4.197   0.117
 5557TIP3   OH216634   5.008   3.317   2.895
 5557TIP3    H116635   5.034   3.266   2.972
 5557TIP3    H216636   4.926   3.360   2.921
 5558TIP3   OH216637   2.066   3.737   5.424
 5558TIP3    H116638   2.039   3.754   5.514
 5558TIP3    H216639   2.005   3.787   5.371
 5559TIP3   OH216640   4.942   3.717   5.503
 5559TIP3    H116641   4.944   3.742   5.410
 5559TIP3    H216642   4.932   3.800   5.549
 5560TIP3   OH216643   3.364   4.347   5.283
 5560TIP3    H116644   3.436   4.332   5.222
 5560TIP3    H216645   3.402   4.333   5.369
 5561TIP3   OH216646   4.215   1.747   4.085
 5561TIP3    H116647   4.191   1.766   4.175
 5561TIP3    H216648   4.282   1.680   4.092
 5562TIP3   OH216649   5.228   2.802   0.816
 5562TIP3    H116650   5.233   2.784   0.723
 5562TIP3    H216651   5.253   2.720   0.858
 5563TIP3   OH216652   3.066   1.656   1.965
 5563TIP3    H116653   3.161   1.655   1.973
 5563TIP3    H216654   3.035   1.689   2.050
 5564TIP3   OH216655   4.799   6.471   0.571
 5564TIP3    H116656   4.811   6.453   0.664
 5564TIP3    H216657   4.841   6.398   0.526
 5565TIP3   OH216658   2.670   0.181   3.473
 5565TIP3    H116659   2.684   0.116   3.542
 5565TIP3    H216660   2.601   0.238   3.508
 5566TIP3   OH216661   6.160   4.701   3.176
 5566TIP3    H116662   6.182   4.747   3.257
 5566TIP3    H216663   6.180   4.610   3.194
 5567TIP3   OH216664   0.579   5.298   0.318
 5567TIP3    H116665   0.508   5.355   0.289
 5567TIP3    H216666   0.647   5.359   0.351
 5568TIP3   OH216667   5.240   1.914   3.234
 5568TIP3    H116668   5.258   1.842   3.295
 5568TIP3    H216669   5.310   1.977   3.251
 5569TIP3   OH216670   1.214   6.653   3.720
 5569TIP3    H116671   1.145   6.657   3.787
 5569TIP3    H216672   1.235   6.560   3.714
 5570TIP3   OH216673   5.811   0.266   0.634
 5570TIP3    H116674   5.883   0.266   0.697
 5570TIP3    H216675   5.855   0.259   0.549
 5571TIP3   OH216676   2.665   2.409   2.733
 5571TIP3    H116677   2.651   2.393   2.826
 5571TIP3    H216678   2.737   2.473   2.730
 5572TIP3   OH216679   3.209   6.332   5.770
 5572TIP3    H116680   3.160   6.269   5.823
 5572TIP3    H216681   3.195   6.302   5.680
 5573TIP3   OH216682   5.590   0.826   2.600
 5573TIP3    H116683   5.663   0.772   2.632
 5573TIP3    H216684   5.632   0.892   2.545
 5574TIP3   OH216685   0.684   1.009   5.460
 5574TIP3    H116686   0.742   0.993   5.534
 5574TIP3    H216687   0.640   1.091   5.482
 5575TIP3   OH216688   3.501   6.268   5.856
 5575TIP3    H116689   3.494   6.176   5.831
 5575TIP3    H216690   3.439   6.314   5.799
 5576TIP3   OH216691   3.763   5.463   1.439
 5576TIP3    H116692   3.779   5.437   1.348
 5576TIP3    H216693   3.732   5.553   1.433
 5577TIP3   OH216694   5.315   6.341   4.659
 5577TIP3    H116695   5.380   6.273   4.638
 5577TIP3    H216696   5.278   6.313   4.743
 5578TIP3   OH216697   2.996   0.709   5.177
 5578TIP3    H116698   2.937   0.720   5.251
 5578TIP3    H216699   2.988   0.616   5.153
 5579TIP3   OH216700   4.217   5.452   5.919
 5579TIP3    H116701   4.151   5.514   5.887
 5579TIP3    H216702   4.203   5.374   5.866
 5580TIP3   OH216703   3.257   5.704   2.293
 5580TIP3    H116704   3.293   5.617   2.313
 5580TIP3    H216705   3.209   5.729   2.371
 5581TIP3   OH216706   1.075   5.104   4.413
 5581TIP3    H116707   1.059   5.045   4.486
 5581TIP3    H216708   1.013   5.075   4.345
 5582TIP3   OH216709   1.539   4.068   3.955
 5582TIP3    H116710   1.520   4.139   3.893
 5582TIP3    H216711   1.453   4.038   3.985
 5583TIP3   OH216712   3.711   2.293   0.614
 5583TIP3    H116713   3.754   2.269   0.531
 5583TIP3    H216714   3.653   2.366   0.591
 5584TIP3   OH216715   5.820   1.339   0.573
 5584TIP3    H116716   5.818   1.377   0.485
 5584TIP3    H216717   5.761   1.395   0.624
 5585TIP3   OH216718   6.537   2.463   5.722
 5585TIP3    H116719   6.502   2.420   5.644
 5585TIP3    H216720   6.611   2.409   5.749
 5586TIP3   OH216721   5.311   0.643   0.984
 5586TIP3    H116722   5.258   0.581   1.034
 5586TIP3    H216723   5.298   0.618   0.892
 5587TIP3   OH216724   1.754   0.115   0.780
 5587TIP3    H116725   1.828   0.071   0.823
 5587TIP3    H216726   1.689   0.046   0.770
 5588TIP3   OH216727   5.698   2.319   1.385
 5588TIP3    H116728   5.770   2.313   1.322
 5588TIP3    H216729   5.686   2.413   1.399
 5589TIP3   OH216730   3.558   0.816   3.768
 5589TIP3    H116731   3.628   0.751   3.765
 5589TIP3    H216732   3.541   0.838   3.676
 5590TIP3   OH216733   3.479   5.899   1.929
 5590TIP3    H116734   3.574   5.907   1.944
 5590TIP3    H216735   3.472   5.873   1.837
 5591TIP3   OH216736   7.010   2.056   4.010
 5591TIP3    H116737   6.933   2.049   3.953
 5591TIP3    H216738   7.077   2.097   3.955
 5592TIP3   OH216739   5.640   5.432   3.189
 5592TIP3    H116740   5.650   5.379   3.267
 5592TIP3    H216741   5.730   5.455   3.165
 5593TIP3   OH216742   4.873   0.745   4.721
 5593TIP3    H116743   4.946   0.686   4.743
 5593TIP3    H216744   4.853   0.726   4.630
 5594TIP3   OH216745   4.855   5.799   2.674
 5594TIP3    H116746   4.886   5.726   2.728
 5594TIP3    H216747   4.760   5.798   2.684
 5595TIP3   OH216748   1.039   4.846   5.549
 5595TIP3    H116749   0.987   4.802   5.482
 5595TIP3    H216750   1.044   4.937   5.520
 5596TIP3   OH216751   4.963   0.545   0.075
 5596TIP3    H116752   4.933   0.584  -0.008
 5596TIP3    H216753   4.906   0.585   0.141
 5597TIP3   OH216754   2.844   2.086  -0.014
 5597TIP3    H116755   2.761   2.112   0.026
 5597TIP3    H216756   2.869   2.006   0.032
 5598TIP3   OH216757   6.466   6.655   2.709
 5598TIP3    H116758   6.543   6.700   2.744
 5598TIP3    H216759   6.455   6.690   2.621
 5599TIP3   OH216760   1.372   6.271   1.334
 5599TIP3    H116761   1.323   6.338   1.380
 5599TIP3    H216762   1.337   6.188   1.367
 5600TIP3   OH216763   0.971   1.733   1.672
 5600TIP3    H116764   1.065   1.751   1.666
 5600TIP3    H216765   0.939   1.745   1.583
 5601TIP3   OH216766   0.642   5.185   4.622
 5601TIP3    H116767   0.723   5.167   4.670
 5601TIP3    H216768   0.644   5.279   4.606
 5602TIP3   OH216769   6.303   1.129   3.799
 5602TIP3    H116770   6.325   1.182   3.722
 5602TIP3    H216771   6.252   1.187   3.854
 5603TIP3   OH216772   6.498   3.762   5.857
 5603TIP3    H116773   6.533   3.815   5.929
 5603TIP3    H216774   6.487   3.675   5.895
 5604TIP3   OH216775   2.548   2.756   5.379
 5604TIP3    H116776   2.591   2.721   5.301
 5604TIP3    H216777   2.467   2.795   5.346
 5605TIP3   OH216778   3.963   4.845   0.434
 5605TIP3    H116779   3.992   4.775   0.376
 5605TIP3    H216780   3.880   4.874   0.398
 5606TIP3   OH216781   3.801   4.223   5.906
 5606TIP3    H116782   3.733   4.203   5.842
 5606TIP3    H216783   3.871   4.265   5.855
 5607TIP3   OH216784   6.068   5.113   0.101
 5607TIP3    H116785   5.991   5.056   0.097
 5607TIP3    H216786   6.037   5.196   0.066
 5608TIP3   OH216787   4.990   0.319   2.161
 5608TIP3    H116788   4.945   0.298   2.243
 5608TIP3    H216789   4.930   0.287   2.092
 5609TIP3   OH216790   2.548   0.081   3.018
 5609TIP3    H116791   2.486   0.009   3.020
 5609TIP3    H216792   2.494   0.160   3.021
 5610TIP3   OH216793   1.188   2.715   5.642
 5610TIP3    H116794   1.194   2.786   5.705
 5610TIP3    H216795   1.094   2.699   5.632
 5611TIP3   OH216796   5.492   6.283   4.862
 5611TIP3    H116797   5.401   6.312   4.872
 5611TIP3    H216798   5.507   6.225   4.936
 5612TIP3   OH216799   7.069   3.789   0.626
 5612TIP3    H116800   7.146   3.814   0.575
 5612TIP3    H216801   6.997   3.791   0.563
 5613TIP3   OH216802   6.058   3.719   3.877
 5613TIP3    H116803   6.138   3.690   3.832
 5613TIP3    H216804   6.017   3.779   3.815
 5614TIP3   OH216805   1.163   2.678   1.925
 5614TIP3    H116806   1.161   2.766   1.887
 5614TIP3    H216807   1.254   2.663   1.949
 5615TIP3   OH216808   2.708   3.141   3.727
 5615TIP3    H116809   2.746   3.228   3.724
 5615TIP3    H216810   2.682   3.123   3.637
 5616TIP3   OH216811   5.888   6.300   4.907
 5616TIP3    H116812   5.837   6.313   4.987
 5616TIP3    H216813   5.978   6.295   4.936
 5617TIP3   OH216814   6.693   1.822   0.122
 5617TIP3    H116815   6.631   1.761   0.163
 5617TIP3    H216816   6.698   1.895   0.184
 5618TIP3   OH216817   3.533   3.391   0.602
 5618TIP3    H116818   3.521   3.413   0.695
 5618TIP3    H216819   3.599   3.321   0.603
 5619TIP3   OH216820   2.114   5.599   0.705
 5619TIP3    H116821   2.117   5.617   0.799
 5619TIP3    H216822   2.057   5.667   0.669
 5620TIP3   OH216823   4.501   3.445   5.528
 5620TIP3    H116824   4.553   3.518   5.495
 5620TIP3    H216825   4.449   3.416   5.453
 5621TIP3   OH216826   3.906   5.318   4.661
 5621TIP3    H116827   3.941   5.231   4.679
 5621TIP3    H216828   3.961   5.352   4.590
 5622TIP3   OH216829   6.530   2.156   1.768
 5622TIP3    H116830   6.589   2.082   1.784
 5622TIP3    H216831   6.457   2.142   1.828
 5623TIP3   OH216832   1.115   3.444   1.231
 5623TIP3    H116833   1.035   3.392   1.232
 5623TIP3    H216834   1.172   3.402   1.296
 5624TIP3   OH216835   5.352   5.063   0.062
 5624TIP3    H116836   5.336   4.997   0.130
 5624TIP3    H216837   5.342   5.015  -0.020
 5625TIP3   OH216838   2.713   3.186   2.841
 5625TIP3    H116839   2.617   3.187   2.842
 5625TIP3    H216840   2.736   3.127   2.769
 5626TIP3   OH216841   5.213   4.997   3.373
 5626TIP3    H116842   5.260   5.058   3.430
 5626TIP3    H216843   5.199   4.920   3.428
 5627TIP3   OH216844   4.721   4.060   3.121
 5627TIP3    H116845   4.769   3.999   3.178
 5627TIP3    H216846   4.696   4.007   3.045
 5628TIP3   OH216847   4.396   5.598   4.215
 5628TIP3    H116848   4.490   5.585   4.230
 5628TIP3    H216849   4.364   5.639   4.295
 5629TIP3   OH216850   4.078   0.538   3.045
 5629TIP3    H116851   4.136   0.613   3.057
 5629TIP3    H216852   4.013   0.546   3.114
 5630TIP3   OH216853   3.450   5.180   2.875
 5630TIP3    H116854   3.539   5.216   2.869
 5630TIP3    H216855   3.421   5.206   2.963
 5631TIP3   OH216856   3.655   2.971   3.311
 5631TIP3    H116857   3.561   2.966   3.293
 5631TIP3    H216858   3.695   2.915   3.244
 5632TIP3   OH216859   6.182   2.496   3.957
 5632TIP3    H116860   6.087   2.486   3.953
 5632TIP3    H216861   6.199   2.578   3.911
 5633TIP3   OH216862   3.829   3.316   2.669
 5633TIP3    H116863   3.850   3.397   2.622
 5633TIP3    H216864   3.882   3.249   2.627
 5634TIP3   OH216865   3.313   0.209   2.863
 5634TIP3    H116866   3.303   0.239   2.953
 5634TIP3    H216867   3.407   0.194   2.853
 5635TIP3   OH216868   4.105   5.424   1.223
 5635TIP3    H116869   4.136   5.392   1.138
 5635TIP3    H216870   4.120   5.352   1.284
 5636TIP3   OH216871   3.537   2.861   2.416
 5636TIP3    H116872   3.580   2.921   2.356
 5636TIP3    H216873   3.446   2.888   2.418
 5637TIP3   OH216874   0.430   3.936   5.134
 5637TIP3    H116875   0.461   4.021   5.164
 5637TIP3    H216876   0.367   3.956   5.064
 5638TIP3   OH216877   6.777   4.439   5.251
 5638TIP3    H116878   6.851   4.482   5.293
 5638TIP3    H216879   6.700   4.481   5.288
 5639TIP3   OH216880   2.801   1.574   3.570
 5639TIP3    H116881   2.718   1.560   3.526
 5639TIP3    H216882   2.794   1.663   3.606
 5640TIP3   OH216883   3.428   0.223   5.500
 5640TIP3    H116884   3.450   0.309   5.535
 5640TIP3    H216885   3.502   0.167   5.524
 5641TIP3   OH216886   5.913   2.667   3.091
 5641TIP3    H116887   5.888   2.742   3.037
 5641TIP3    H216888   5.866   2.593   3.054
 5642TIP3   OH216889   5.164   2.330   5.234
 5642TIP3    H116890   5.184   2.320   5.141
 5642TIP3    H216891   5.152   2.424   5.246
 5643TIP3   OH216892   2.648   0.159   1.116
 5643TIP3    H116893   2.604   0.198   1.192
 5643TIP3    H216894   2.731   0.127   1.151
 5644TIP3   OH216895   1.944   2.872   2.465
 5644TIP3    H116896   1.940   2.779   2.486
 5644TIP3    H216897   1.854   2.894   2.439
 5645TIP3   OH216898   1.131   5.357   2.757
 5645TIP3    H116899   1.143   5.447   2.789
 5645TIP3    H216900   1.092   5.311   2.832
 5646TIP3   OH216901   1.011   5.571   2.422
 5646TIP3    H116902   1.052   5.491   2.387
 5646TIP3    H216903   1.071   5.641   2.395
 5647TIP3   OH216904   1.721   1.242   0.378
 5647TIP3    H116905   1.745   1.220   0.288
 5647TIP3    H216906   1.635   1.283   0.371
 5648TIP3   OH216907   3.629   6.307   3.069
 5648TIP3    H116908   3.569   6.278   3.138
 5648TIP3    H216909   3.648   6.227   3.020
 5649TIP3   OH216910   5.809   0.426   1.494
 5649TIP3    H116911   5.848   0.343   1.524
 5649TIP3    H216912   5.715   0.415   1.511
 5650TIP3   OH216913   5.308   3.073   5.563
 5650TIP3    H116914   5.280   3.107   5.648
 5650TIP3    H216915   5.319   3.150   5.509
 5651TIP3   OH216916   4.363   4.461   0.689
 5651TIP3    H116917   4.367   4.438   0.597
 5651TIP3    H216918   4.271   4.453   0.712
 5652TIP3   OH216919   4.592   1.881   5.752
 5652TIP3    H116920   4.585   1.804   5.809
 5652TIP3    H216921   4.653   1.854   5.683
 5653TIP3   OH216922   4.822   0.106   5.664
 5653TIP3    H116923   4.792   0.017   5.682
 5653TIP3    H216924   4.808   0.118   5.570
 5654TIP3   OH216925   3.564   0.847   4.986
 5654TIP3    H116926   3.564   0.751   4.992
 5654TIP3    H216927   3.645   0.873   5.030
 5655TIP3   OH216928   6.225   6.416   4.271
 5655TIP3    H116929   6.222   6.501   4.315
 5655TIP3    H216930   6.251   6.436   4.181
 5656TIP3   OH216931   3.245   3.374   5.879
 5656TIP3    H116932   3.194   3.376   5.798
 5656TIP3    H216933   3.328   3.416   5.857
 5657TIP3   OH216934   0.339   2.942   0.394
 5657TIP3    H116935   0.427   2.928   0.430
 5657TIP3    H216936   0.310   3.024   0.434
 5658TIP3   OH216937   1.292   4.739   5.603
 5658TIP3    H116938   1.288   4.649   5.636
 5658TIP3    H216939   1.200   4.764   5.591
 5659TIP3   OH216940   0.419   1.576   0.354
 5659TIP3    H116941   0.455   1.635   0.420
 5659TIP3    H216942   0.325   1.593   0.355
 5660TIP3   OH216943   7.028   0.690   2.113
 5660TIP3    H116944   6.970   0.747   2.064
 5660TIP3    H216945   7.108   0.686   2.061
 5661TIP3   OH216946   5.877   4.303   4.939
 5661TIP3    H116947   5.925   4.309   4.856
 5661TIP3    H216948   5.886   4.390   4.978
 5662TIP3   OH216949   4.352   5.576   1.348
 5662TIP3    H116950   4.402   5.582   1.429
 5662TIP3    H216951   4.265   5.609   1.371
 5663TIP3   OH216952   5.726   5.359   2.424
 5663TIP3    H116953   5.737   5.438   2.477
 5663TIP3    H216954   5.799   5.303   2.449
 5664TIP3   OH216955   4.974   1.496   4.196
 5664TIP3    H116956   4.902   1.556   4.215
 5664TIP3    H216957   5.020   1.537   4.123
 5665TIP3   OH216958   6.347   2.652   0.909
 5665TIP3    H116959   6.380   2.583   0.967
 5665TIP3    H216960   6.363   2.733   0.957
 5666TIP3   OH216961   5.840   3.192   4.647
 5666TIP3    H116962   5.749   3.223   4.650
 5666TIP3    H216963   5.891   3.265   4.681
 5667TIP3   OH216964   4.548   6.539   0.797
 5667TIP3    H116965   4.480   6.603   0.819
 5667TIP3    H216966   4.572   6.499   0.880
 5668TIP3   OH216967   6.116   6.237   0.952
 5668TIP3    H116968   6.042   6.251   1.012
 5668TIP3    H216969   6.095   6.154   0.909
 5669TIP3   OH216970   0.357   2.121   4.072
 5669TIP3    H116971   0.432   2.159   4.026
 5669TIP3    H216972   0.311   2.070   4.005
 5670TIP3   OH216973   3.954   2.202   3.146
 5670TIP3    H116974   3.958   2.271   3.213
 5670TIP3    H216975   3.863   2.173   3.146
 5671TIP3   OH216976   2.423   2.502   2.252
 5671TIP3    H116977   2.443   2.561   2.179
 5671TIP3    H216978   2.438   2.414   2.216
 5672TIP3   OH216979   6.540   3.721   3.766
 5672TIP3    H116980   6.510   3.798   3.814
 5672TIP3    H216981   6.604   3.680   3.824
 5673TIP3   OH216982   3.841   6.154   3.640
 5673TIP3    H116983   3.929   6.189   3.624
 5673TIP3    H216984   3.824   6.173   3.732
 5674TIP3   OH216985   1.007   6.482   3.265
 5674TIP3    H116986   1.069   6.555   3.273
 5674TIP3    H216987   1.028   6.443   3.180
 5675TIP3   OH216988   1.342   2.635   4.066
 5675TIP3    H116989   1.332   2.624   4.160
 5675TIP3    H216990   1.436   2.649   4.054
 5676TIP3   OH216991   6.466   2.404   3.827
 5676TIP3    H116992   6.547   2.439   3.790
 5676TIP3    H216993   6.451   2.457   3.905
 5677TIP3   OH216994   7.170   0.759   1.281
 5677TIP3    H116995   7.144   0.667   1.280
 5677TIP3    H216996   7.184   0.781   1.189
 5678TIP3   OH216997   0.146   1.904   4.231
 5678TIP3    H116998   0.194   1.959   4.170
 5678TIP3    H216999   0.208   1.885   4.301
 5679TIP3   OH217000   4.156   5.255   1.007
 5679TIP3    H117001   4.184   5.179   1.057
 5679TIP3    H217002   4.112   5.219   0.930
 5680TIP3   OH217003   2.999   1.525   4.171
 5680TIP3    H117004   3.073   1.488   4.218
 5680TIP3    H217005   3.022   1.617   4.159
 5681TIP3   OH217006   0.138   3.240   4.070
 5681TIP3    H117007   0.078   3.314   4.069
 5681TIP3    H217008   0.134   3.204   3.982
 5682TIP3   OH217009   5.785   0.384   4.791
 5682TIP3    H117010   5.767   0.310   4.849
 5682TIP3    H217011   5.870   0.364   4.752
 5683TIP3   OH217012   4.542   3.790   4.197
 5683TIP3    H117013   4.452   3.819   4.210
 5683TIP3    H217014   4.550   3.778   4.103
 5684TIP3   OH217015   2.744   2.746   2.506
 5684TIP3    H117016   2.731   2.814   2.440
 5684TIP3    H217017   2.744   2.664   2.457
 5685TIP3   OH217018   4.646   4.573   3.111
 5685TIP3    H117019   4.641   4.667   3.093
 5685TIP3    H217020   4.600   4.563   3.195
 5686TIP3   OH217021   6.147   4.004   5.199
 5686TIP3    H117022   6.076   3.974   5.255
 5686TIP3    H217023   6.103   4.052   5.128
 5687TIP3   OH217024   6.213   2.851   0.072
 5687TIP3    H117025   6.258   2.834   0.155
 5687TIP3    H217026   6.173   2.937   0.083
 5688TIP3   OH217027   5.721   2.779   1.155
 5688TIP3    H117028   5.803   2.754   1.112
 5688TIP3    H217029   5.704   2.868   1.125
 5689TIP3   OH217030   4.688   2.545   3.243
 5689TIP3    H117031   4.641   2.621   3.210
 5689TIP3    H217032   4.767   2.581   3.283
 5690TIP3   OH217033   5.519   5.228   4.435
 5690TIP3    H117034   5.568   5.147   4.418
 5690TIP3    H217035   5.435   5.215   4.390
 5691TIP3   OH217036   0.807   2.363   2.676
 5691TIP3    H117037   0.879   2.383   2.736
 5691TIP3    H217038   0.729   2.370   2.730
 5692TIP3   OH217039   2.727   2.337   4.695
 5692TIP3    H117040   2.784   2.404   4.732
 5692TIP3    H217041   2.767   2.315   4.611
 5693TIP3   OH217042   0.628   2.566   0.531
 5693TIP3    H117043   0.596   2.562   0.621
 5693TIP3    H217044   0.670   2.480   0.517
 5694TIP3   OH217045   0.194   6.603   0.695
 5694TIP3    H117046   0.276   6.599   0.745
 5694TIP3    H217047   0.206   6.538   0.626
 5695TIP3   OH217048   2.455   1.876   5.389
 5695TIP3    H117049   2.488   1.802   5.440
 5695TIP3    H217050   2.530   1.905   5.337
 5696TIP3   OH217051   3.176   1.651   5.574
 5696TIP3    H117052   3.240   1.590   5.537
 5696TIP3    H217053   3.208   1.669   5.662
 5697TIP3   OH217054   7.063   3.003   1.648
 5697TIP3    H117055   7.111   2.940   1.594
 5697TIP3    H217056   6.995   3.037   1.590
 5698TIP3   OH217057   4.245   5.568   4.668
 5698TIP3    H117058   4.270   5.634   4.734
 5698TIP3    H217059   4.253   5.614   4.584
 5699TIP3   OH217060   4.771   1.796   3.041
 5699TIP3    H117061   4.703   1.729   3.043
 5699TIP3    H217062   4.828   1.775   3.114
 5700TIP3   OH217063   4.444   1.810   3.024
 5700TIP3    H117064   4.454   1.730   2.973
 5700TIP3    H217065   4.428   1.879   2.960
 5701TIP3   OH217066   3.633   1.008   1.080
 5701TIP3    H117067   3.646   0.941   1.013
 5701TIP3    H217068   3.547   0.989   1.118
 5702TIP3   OH217069   0.326   5.239   1.043
 5702TIP3    H117070   0.313   5.279   1.128
 5702TIP3    H217071   0.291   5.302   0.980
 5703TIP3   OH217072   6.404   3.540   2.248
 5703TIP3    H117073   6.495   3.568   2.259
 5703TIP3    H217074   6.386   3.549   2.155
 5704TIP3   OH217075   4.432   1.055   4.516
 5704TIP3    H117076   4.374   1.052   4.592
 5704TIP3    H217077   4.493   1.126   4.536
 5705TIP3   OH217078   5.959   6.499   2.771
 5705TIP3    H117079   5.967   6.421   2.716
 5705TIP3    H217080   6.049   6.521   2.795
 5706TIP3   OH217081   0.955   1.582   3.967
 5706TIP3    H117082   1.006   1.644   3.914
 5706TIP3    H217083   0.926   1.634   4.042
 5707TIP3   OH217084   0.435   4.943   0.071
 5707TIP3    H117085   0.425   4.854   0.104
 5707TIP3    H217086   0.526   4.965   0.090
 5708TIP3   OH217087   7.175   0.183   2.838
 5708TIP3    H117088   7.097   0.222   2.877
 5708TIP3    H217089   7.171   0.090   2.862
 5709TIP3   OH217090   6.301   3.703   4.263
 5709TIP3    H117091   6.352   3.630   4.299
 5709TIP3    H217092   6.213   3.690   4.298
 5710TIP3   OH217093   4.632   5.848   1.182
 5710TIP3    H117094   4.636   5.761   1.142
 5710TIP3    H217095   4.667   5.835   1.270
 5711TIP3   OH217096   0.374   1.219   5.158
 5711TIP3    H117097   0.338   1.247   5.242
 5711TIP3    H217098   0.392   1.126   5.169
 5712TIP3   OH217099   3.847   5.002   0.885
 5712TIP3    H117100   3.798   5.002   0.803
 5712TIP3    H217101   3.923   5.057   0.867
 5713TIP3   OH217102   4.628   5.167   2.600
 5713TIP3    H117103   4.634   5.207   2.514
 5713TIP3    H217104   4.535   5.174   2.624
 5714TIP3   OH217105   3.606   0.675   2.804
 5714TIP3    H117106   3.622   0.581   2.799
 5714TIP3    H217107   3.525   0.683   2.854
 5715TIP3   OH217108   6.904   4.932   2.168
 5715TIP3    H117109   6.829   4.925   2.109
 5715TIP3    H217110   6.980   4.937   2.110
 5716TIP3   OH217111   4.195   0.974   0.546
 5716TIP3    H117112   4.241   0.986   0.628
 5716TIP3    H217113   4.220   1.049   0.492
 5717TIP3   OH217114   1.446   1.166   1.032
 5717TIP3    H117115   1.451   1.202   0.943
 5717TIP3    H217116   1.519   1.207   1.078
 5718TIP3   OH217117   0.074   3.953   4.799
 5718TIP3    H117118   0.045   4.025   4.744
 5718TIP3    H217119  -0.001   3.934   4.855
 5719TIP3   OH217120   5.542   3.322   0.385
 5719TIP3    H117121   5.577   3.237   0.358
 5719TIP3    H217122   5.619   3.376   0.401
 5720TIP3   OH217123   6.991   3.983   1.720
 5720TIP3    H117124   6.945   3.940   1.792
 5720TIP3    H217125   7.084   3.978   1.744
 5721TIP3   OH217126   6.036   6.448   0.810
 5721TIP3    H117127   6.067   6.426   0.723
 5721TIP3    H217128   6.085   6.391   0.869
 5722TIP3   OH217129   3.797   1.589   2.677
 5722TIP3    H117130   3.805   1.513   2.619
 5722TIP3    H217131   3.788   1.663   2.617
 5723TIP3   OH217132   3.316   1.756   2.014
 5723TIP3    H117133   3.322   1.832   2.073
 5723TIP3    H217134   3.378   1.777   1.944
 5724TIP3   OH217135   1.629   0.529   1.133
 5724TIP3    H117136   1.584   0.608   1.102
 5724TIP3    H217137   1.694   0.509   1.065
 5725TIP3   OH217138   3.814   4.821   1.518
 5725TIP3    H117139   3.801   4.911   1.546
 5725TIP3    H217140   3.781   4.767   1.591
 5726TIP3   OH217141   1.761   3.795   3.283
 5726TIP3    H117142   1.800   3.799   3.371
 5726TIP3    H217143   1.833   3.817   3.224
 5727TIP3   OH217144   0.658   2.276   5.344
 5727TIP3    H117145   0.593   2.343   5.365
 5727TIP3    H217146   0.664   2.277   5.248
 5728TIP3   OH217147   5.235   2.766   3.727
 5728TIP3    H117148   5.299   2.707   3.767
 5728TIP3    H217149   5.168   2.778   3.794
 5729TIP3   OH217150   1.647   2.770   1.381
 5729TIP3    H117151   1.552   2.769   1.395
 5729TIP3    H217152   1.659   2.835   1.311
 5730TIP3   OH217153   6.993   1.311   5.612
 5730TIP3    H117154   7.039   1.385   5.571
 5730TIP3    H217155   6.969   1.255   5.538
 5731TIP3   OH217156   0.343   0.387   5.397
 5731TIP3    H117157   0.337   0.478   5.427
 5731TIP3    H217158   0.265   0.374   5.343
 5732TIP3   OH217159   4.673   1.836   1.499
 5732TIP3    H117160   4.639   1.816   1.412
 5732TIP3    H217161   4.595   1.842   1.555
 5733TIP3   OH217162   0.459   5.476   4.832
 5733TIP3    H117163   0.514   5.478   4.753
 5733TIP3    H217164   0.452   5.383   4.854
 5734TIP3   OH217165   7.053   1.593   3.457
 5734TIP3    H117166   7.014   1.618   3.373
 5734TIP3    H217167   7.110   1.666   3.480
 5735TIP3   OH217168   6.962   1.149   0.769
 5735TIP3    H117169   6.920   1.063   0.760
 5735TIP3    H217170   7.018   1.156   0.691
 5736TIP3   OH217171   2.946   5.895   3.098
 5736TIP3    H117172   3.006   5.847   3.155
 5736TIP3    H217173   2.996   5.907   3.017
 5737TIP3   OH217174   4.668   1.218   0.625
 5737TIP3    H117175   4.652   1.137   0.577
 5737TIP3    H217176   4.584   1.238   0.667
 5738TIP3   OH217177   2.151   3.292   5.866
 5738TIP3    H117178   2.114   3.270   5.951
 5738TIP3    H217179   2.084   3.265   5.803
 5739TIP3   OH217180   5.023   5.934   4.033
 5739TIP3    H117181   5.062   5.846   4.033
 5739TIP3    H217182   5.088   5.990   3.992
 5740TIP3   OH217183   4.265   3.830   4.175
 5740TIP3    H117184   4.257   3.910   4.124
 5740TIP3    H217185   4.196   3.773   4.142
 5741TIP3   OH217186   5.493   4.915   3.302
 5741TIP3    H117187   5.409   4.962   3.299
 5741TIP3    H217188   5.532   4.942   3.385
 5742TIP3   OH217189   0.750   6.145   4.767
 5742TIP3    H117190   0.770   6.236   4.746
 5742TIP3    H217191   0.818   6.119   4.828
 5743TIP3   OH217192   4.196   4.144   2.918
 5743TIP3    H117193   4.159   4.229   2.941
 5743TIP3    H217194   4.263   4.128   2.985
 5744TIP3   OH217195   3.235   4.663   3.831
 5744TIP3    H117196   3.195   4.617   3.904
 5744TIP3    H217197   3.192   4.627   3.753
 5745TIP3   OH217198   2.014   3.954   4.770
 5745TIP3    H117199   2.011   3.900   4.692
 5745TIP3    H217200   2.096   3.930   4.813
 5746TIP3   OH217201   3.384   1.084   0.775
 5746TIP3    H117202   3.326   1.135   0.719
 5746TIP3    H217203   3.390   1.136   0.856
 5747TIP3   OH217204   2.151   0.697   4.081
 5747TIP3    H117205   2.206   0.775   4.075
 5747TIP3    H217206   2.068   0.723   4.041
 5748TIP3   OH217207   6.320   3.088   5.461
 5748TIP3    H117208   6.399   3.053   5.502
 5748TIP3    H217209   6.335   3.183   5.458
 5749TIP3   OH217210   5.117   3.872   1.162
 5749TIP3    H117211   5.047   3.875   1.227
 5749TIP3    H217212   5.183   3.814   1.201
 5750TIP3   OH217213   5.016   0.892   0.106
 5750TIP3    H117214   5.104   0.862   0.082
 5750TIP3    H217215   4.958   0.840   0.050
 5751TIP3   OH217216   0.281   1.908   5.088
 5751TIP3    H117217   0.235   1.880   5.168
 5751TIP3    H217218   0.216   1.958   5.039
 5752TIP3   OH217219   0.060   0.317   1.292
 5752TIP3    H117220   0.085   0.228   1.270
 5752TIP3    H217221   0.015   0.309   1.377
 5753TIP3   OH217222   0.895   6.185   2.260
 5753TIP3    H117223   0.900   6.180   2.165
 5753TIP3    H217224   0.831   6.255   2.277
 5754TIP3   OH217225   5.190   1.722   1.273
 5754TIP3    H117226   5.206   1.779   1.349
 5754TIP3    H217227   5.103   1.685   1.289
 5755TIP3   OH217228   1.069   2.606   2.197
 5755TIP3    H117229   1.028   2.520   2.188
 5755TIP3    H217230   1.052   2.650   2.113
 5756TIP3   OH217231   4.846   6.499   5.787
 5756TIP3    H117232   4.849   6.513   5.693
 5756TIP3    H217233   4.839   6.587   5.824
 5757TIP3   OH217234   3.458   0.367   0.719
 5757TIP3    H117235   3.554   0.374   0.713
 5757TIP3    H217236   3.438   0.392   0.809
 5758TIP3   OH217237   5.074   0.200   2.944
 5758TIP3    H117238   5.002   0.230   3.000
 5758TIP3    H217239   5.145   0.262   2.961
 5759TIP3   OH217240   6.731   1.256   3.998
 5759TIP3    H117241   6.774   1.173   3.978
 5759TIP3    H217242   6.681   1.276   3.918
 5760TIP3   OH217243   6.115   4.797   0.416
 5760TIP3    H117244   6.208   4.799   0.439
 5760TIP3    H217245   6.070   4.829   0.495
 5761TIP3   OH217246   0.807   2.812   3.509
 5761TIP3    H117247   0.850   2.736   3.549
 5761TIP3    H217248   0.714   2.798   3.525
 5762TIP3   OH217249   2.593   4.454   5.118
 5762TIP3    H117250   2.534   4.449   5.042
 5762TIP3    H217251   2.681   4.454   5.079
 5763TIP3   OH217252   4.167   5.676   3.589
 5763TIP3    H117253   4.201   5.586   3.589
 5763TIP3    H217254   4.117   5.683   3.508
 5764TIP3   OH217255   6.274   4.606   2.845
 5764TIP3    H117256   6.181   4.630   2.834
 5764TIP3    H217257   6.319   4.689   2.856
 5765TIP3   OH217258   6.271   0.308   4.590
 5765TIP3    H117259   6.329   0.239   4.623
 5765TIP3    H217260   6.294   0.318   4.498
 5766TIP3   OH217261   2.452   2.320   4.439
 5766TIP3    H117262   2.407   2.303   4.522
 5766TIP3    H217263   2.504   2.398   4.455
 5767TIP3   OH217264   4.389   1.555   4.064
 5767TIP3    H117265   4.464   1.540   4.121
 5767TIP3    H217266   4.322   1.495   4.096
 5768TIP3   OH217267   5.893   6.345   5.242
 5768TIP3    H117268   5.841   6.415   5.281
 5768TIP3    H217269   5.971   6.340   5.297
 5769TIP3   OH217270   0.758   3.623   5.801
 5769TIP3    H117271   0.737   3.544   5.751
 5769TIP3    H217272   0.698   3.690   5.767
 5770TIP3   OH217273   5.380   2.342   4.202
 5770TIP3    H117274   5.342   2.331   4.115
 5770TIP3    H217275   5.421   2.258   4.221
 5771TIP3   OH217276   5.916   1.628   4.433
 5771TIP3    H117277   5.911   1.546   4.383
 5771TIP3    H217278   5.925   1.696   4.367
 5772TIP3   OH217279   3.912   2.951   2.795
 5772TIP3    H117280   3.828   2.906   2.809
 5772TIP3    H217281   3.893   3.018   2.730
 5773TIP3   OH217282   5.320   6.155   0.293
 5773TIP3    H117283   5.287   6.067   0.275
 5773TIP3    H217284   5.345   6.154   0.385
 5774TIP3   OH217285   3.902   6.728   2.057
 5774TIP3    H117286   3.975   6.704   2.000
 5774TIP3    H217287   3.859   6.645   2.077
 5775TIP3   OH217288   2.826   1.005   0.799
 5775TIP3    H117289   2.813   1.059   0.878
 5775TIP3    H217290   2.916   0.974   0.807
 5776TIP3   OH217291   2.822   0.452   0.333
 5776TIP3    H117292   2.729   0.471   0.332
 5776TIP3    H217293   2.840   0.413   0.248
 5777TIP3   OH217294   7.032   1.585   3.952
 5777TIP3    H117295   6.999   1.517   4.010
 5777TIP3    H217296   7.053   1.658   4.011
 5778TIP3   OH217297   0.321   5.721   4.844
 5778TIP3    H117298   0.234   5.683   4.833
 5778TIP3    H217299   0.378   5.646   4.857
 5779TIP3   OH217300   6.882   0.292   1.495
 5779TIP3    H117301   6.821   0.274   1.424
 5779TIP3    H217302   6.826   0.306   1.572
 5780TIP3   OH217303   2.383   6.183   2.085
 5780TIP3    H117304   2.420   6.267   2.059
 5780TIP3    H217305   2.441   6.118   2.044
 5781TIP3   OH217306   1.083   6.749   2.982
 5781TIP3    H117307   1.088   6.812   3.053
 5781TIP3    H217308   1.144   6.680   3.007
 5782TIP3   OH217309   0.811   2.342   5.789
 5782TIP3    H117310   0.768   2.271   5.741
 5782TIP3    H217311   0.765   2.346   5.873
 5783TIP3   OH217312   3.392   4.140   5.919
 5783TIP3    H117313   3.436   4.171   5.840
 5783TIP3    H217314   3.344   4.216   5.951
 5784TIP3   OH217315   3.070   5.496   5.348
 5784TIP3    H117316   3.033   5.525   5.432
 5784TIP3    H217317   3.006   5.434   5.314
 5785TIP3   OH217318   5.015   2.192   0.846
 5785TIP3    H117319   5.066   2.142   0.783
 5785TIP3    H217320   5.053   2.280   0.843
 5786TIP3   OH217321   1.397   5.101   4.502
 5786TIP3    H117322   1.339   5.134   4.433
 5786TIP3    H217323   1.360   5.136   4.583
 5787TIP3   OH217324   5.765   2.447   3.007
 5787TIP3    H117325   5.708   2.430   3.082
 5787TIP3    H217326   5.705   2.452   2.932
 5788TIP3   OH217327   1.022   1.535   2.823
 5788TIP3    H117328   0.948   1.586   2.791
 5788TIP3    H217329   1.061   1.589   2.891
 5789TIP3   OH217330   5.535   1.508   1.175
 5789TIP3    H117331   5.501   1.522   1.263
 5789TIP3    H217332   5.516   1.416   1.157
 5790TIP3   OH217333   3.265   6.041   3.065
 5790TIP3    H117334   3.208   6.114   3.038
 5790TIP3    H217335   3.270   6.048   3.160
 5791TIP3   OH217336   7.153   4.697   4.952
 5791TIP3    H117337   7.127   4.605   4.945
 5791TIP3    H217338   7.085   4.737   5.006
 5792TIP3   OH217339   2.803   4.034   1.579
 5792TIP3    H117340   2.835   4.124   1.582
 5792TIP3    H217341   2.723   4.035   1.631
 5793TIP3   OH217342   6.911   2.802   0.532
 5793TIP3    H117343   6.972   2.730   0.546
 5793TIP3    H217344   6.891   2.799   0.439
 5794TIP3   OH217345   1.912   4.214   4.721
 5794TIP3    H117346   1.832   4.162   4.724
 5794TIP3    H217347   1.983   4.149   4.725
 5795TIP3   OH217348   0.449   4.107   3.351
 5795TIP3    H117349   0.387   4.179   3.348
 5795TIP3    H217350   0.466   4.086   3.259
 5796TIP3   OH217351   5.071   4.133   2.745
 5796TIP3    H117352   5.086   4.118   2.839
 5796TIP3    H217353   5.134   4.077   2.701
 5797TIP3   OH217354   1.096   4.735   3.360
 5797TIP3    H117355   1.182   4.711   3.324
 5797TIP3    H217356   1.102   4.829   3.375
 5798TIP3   OH217357   6.833   4.469   2.802
 5798TIP3    H117358   6.807   4.527   2.873
 5798TIP3    H217359   6.913   4.427   2.833
 5799TIP3   OH217360   2.371   6.761   0.096
 5799TIP3    H117361   2.415   6.844   0.114
 5799TIP3    H217362   2.442   6.697   0.091
 5800TIP3   OH217363   2.396   3.535   4.115
 5800TIP3    H117364   2.438   3.553   4.031
 5800TIP3    H217365   2.434   3.598   4.175
 5801TIP3   OH217366   4.843   3.579   0.975
 5801TIP3    H117367   4.874   3.492   0.998
 5801TIP3    H217368   4.774   3.598   1.039
 5802TIP3   OH217369   2.958   1.387   0.775
 5802TIP3    H117370   2.899   1.342   0.715
 5802TIP3    H217371   2.947   1.480   0.753
 5803TIP3   OH217372   0.911   1.527   0.110
 5803TIP3    H117373   0.838   1.466   0.122
 5803TIP3    H217374   0.916   1.540   0.015
 5804TIP3   OH217375   5.891   1.382   4.311
 5804TIP3    H117376   5.862   1.328   4.238
 5804TIP3    H217377   5.979   1.351   4.331
 5805TIP3   OH217378   6.701   4.405   4.838
 5805TIP3    H117379   6.642   4.395   4.913
 5805TIP3    H217380   6.675   4.488   4.798
 5806TIP3   OH217381   2.526   1.187   3.881
 5806TIP3    H117382   2.592   1.154   3.942
 5806TIP3    H217383   2.506   1.113   3.825
 5807TIP3   OH217384   5.506   5.124   4.962
 5807TIP3    H117385   5.494   5.031   4.942
 5807TIP3    H217386   5.427   5.166   4.929
 5808TIP3   OH217387   0.938   2.360   2.172
 5808TIP3    H117388   0.959   2.317   2.255
 5808TIP3    H217389   0.999   2.322   2.109
 5809TIP3   OH217390   2.844   4.720   5.248
 5809TIP3    H117391   2.753   4.702   5.271
 5809TIP3    H217392   2.857   4.676   5.164
 5810TIP3   OH217393   3.088   3.298   1.465
 5810TIP3    H117394   3.081   3.387   1.430
 5810TIP3    H217395   3.152   3.254   1.409
 5811TIP3   OH217396   6.912   6.756   4.215
 5811TIP3    H117397   6.992   6.805   4.193
 5811TIP3    H217398   6.893   6.783   4.305
 5812TIP3   OH217399   0.841   2.070   4.311
 5812TIP3    H117400   0.820   1.986   4.269
 5812TIP3    H217401   0.756   2.106   4.335
 5813TIP3   OH217402   1.433   2.937   1.567
 5813TIP3    H117403   1.420   2.876   1.494
 5813TIP3    H217404   1.352   2.987   1.572
 5814TIP3   OH217405   6.698   1.862   5.147
 5814TIP3    H117406   6.628   1.924   5.166
 5814TIP3    H217407   6.710   1.866   5.052
 5815TIP3   OH217408   6.027   3.822   2.422
 5815TIP3    H117409   5.983   3.764   2.359
 5815TIP3    H217410   6.114   3.783   2.434
 5816TIP3   OH217411   4.243   2.216   1.848
 5816TIP3    H117412   4.321   2.233   1.901
 5816TIP3    H217413   4.216   2.128   1.872
 5817TIP3   OH217414   1.310   2.708   5.374
 5817TIP3    H117415   1.269   2.738   5.455
 5817TIP3    H217416   1.242   2.658   5.329
 5818TIP3   OH217417   4.911   0.326   5.150
 5818TIP3    H117418   4.936   0.394   5.213
 5818TIP3    H217419   4.870   0.374   5.078
 5819TIP3   OH217420   3.831   0.913   5.036
 5819TIP3    H117421   3.860   0.891   4.947
 5819TIP3    H217422   3.900   0.969   5.071
 5820TIP3   OH217423   3.532   2.412   1.552
 5820TIP3    H117424   3.460   2.444   1.497
 5820TIP3    H217425   3.546   2.322   1.523
 5821TIP3   OH217426   0.001   6.070   3.385
 5821TIP3    H117427  -0.054   6.088   3.309
 5821TIP3    H217428   0.028   6.157   3.416
 5822TIP3   OH217429   1.468   6.494   1.058
 5822TIP3    H117430   1.407   6.451   0.998
 5822TIP3    H217431   1.444   6.587   1.054
 5823TIP3   OH217432   2.205   3.592   1.075
 5823TIP3    H117433   2.292   3.590   1.034
 5823TIP3    H217434   2.217   3.548   1.159
 5824TIP3   OH217435   0.574   5.605   0.947
 5824TIP3    H117436   0.547   5.525   0.901
 5824TIP3    H217437   0.567   5.583   1.040
 5825TIP3   OH217438   0.891   5.753   1.938
 5825TIP3    H117439   0.960   5.812   1.971
 5825TIP3    H217440   0.819   5.811   1.915
 5826TIP3   OH217441   4.181   6.552   4.236
 5826TIP3    H117442   4.264   6.521   4.273
 5826TIP3    H217443   4.206   6.601   4.158
 5827TIP3   OH217444   5.109   6.756   0.958
 5827TIP3    H117445   5.203   6.771   0.964
 5827TIP3    H217446   5.080   6.810   0.885
 5828TIP3   OH217447   1.367   5.706   2.660
 5828TIP3    H117448   1.439   5.643   2.661
 5828TIP3    H217449   1.295   5.661   2.704
 5829TIP3   OH217450   5.459   6.357   3.402
 5829TIP3    H117451   5.500   6.412   3.336
 5829TIP3    H217452   5.401   6.416   3.449
 5830TIP3   OH217453   1.175   6.412   1.146
 5830TIP3    H117454   1.190   6.493   1.194
 5830TIP3    H217455   1.258   6.364   1.154
 5831TIP3   OH217456   4.614   5.645   0.198
 5831TIP3    H117457   4.666   5.721   0.225
 5831TIP3    H217458   4.649   5.621   0.112
 5832TIP3   OH217459   0.512   2.421   5.692
 5832TIP3    H117460   0.501   2.397   5.600
 5832TIP3    H217461   0.570   2.497   5.691
 5833TIP3   OH217462   2.456   2.941   2.587
 5833TIP3    H117463   2.518   2.878   2.623
 5833TIP3    H217464   2.407   2.891   2.521
 5834TIP3   OH217465   0.233   1.967   1.786
 5834TIP3    H117466   0.217   1.923   1.703
 5834TIP3    H217467   0.322   1.939   1.811
 5835TIP3   OH217468   6.755   5.812   2.303
 5835TIP3    H117469   6.794   5.727   2.281
 5835TIP3    H217470   6.788   5.872   2.236
 5836TIP3   OH217471   1.365   0.602   5.132
 5836TIP3    H117472   1.362   0.654   5.052
 5836TIP3    H217473   1.284   0.551   5.131
 5837TIP3   OH217474   0.372   2.950   1.360
 5837TIP3    H117475   0.333   2.974   1.275
 5837TIP3    H217476   0.366   3.030   1.412
 5838TIP3   OH217477   6.507   0.003   3.089
 5838TIP3    H117478   6.541   0.059   3.020
 5838TIP3    H217479   6.536   0.045   3.170
 5839TIP3   OH217480   5.666   2.821   1.970
 5839TIP3    H117481   5.722   2.839   2.046
 5839TIP3    H217482   5.727   2.817   1.896
 5840TIP3   OH217483   6.429   1.551   0.985
 5840TIP3    H117484   6.520   1.578   0.983
 5840TIP3    H217485   6.402   1.551   0.893
 5841TIP3   OH217486   1.331   1.300   5.541
 5841TIP3    H117487   1.322   1.359   5.616
 5841TIP3    H217488   1.414   1.324   5.501
 5842TIP3   OH217489   1.456   5.111   4.918
 5842TIP3    H117490   1.395   5.050   4.961
 5842TIP3    H217491   1.511   5.054   4.863
 5843TIP3   OH217492   0.841   5.913   0.351
 5843TIP3    H117493   0.868   5.998   0.317
 5843TIP3    H217494   0.805   5.932   0.438
 5844TIP3   OH217495   1.864   4.266   0.680
 5844TIP3    H117496   1.881   4.253   0.586
 5844TIP3    H217497   1.897   4.186   0.721
 5845TIP3   OH217498   6.897   0.498   2.800
 5845TIP3    H117499   6.837   0.540   2.738
 5845TIP3    H217500   6.965   0.563   2.815
 5846TIP3   OH217501   5.473   4.617   3.415
 5846TIP3    H117502   5.512   4.701   3.394
 5846TIP3    H217503   5.387   4.639   3.452
 5847TIP3   OH217504   4.642   0.559   5.294
 5847TIP3    H117505   4.738   0.559   5.291
 5847TIP3    H217506   4.620   0.615   5.368
 5848TIP3   OH217507   6.427   3.199   2.556
 5848TIP3    H117508   6.418   3.104   2.571
 5848TIP3    H217509   6.439   3.235   2.644
 5849TIP3   OH217510   2.026   1.564   3.834
 5849TIP3    H117511   2.001   1.641   3.783
 5849TIP3    H217512   2.105   1.591   3.881
 5850TIP3   OH217513   0.717   5.355   1.075
 5850TIP3    H117514   0.657   5.308   1.133
 5850TIP3    H217515   0.736   5.437   1.122
 5851TIP3   OH217516   3.256   5.027   5.019
 5851TIP3    H117517   3.305   4.995   5.094
 5851TIP3    H217518   3.320   5.076   4.967
 5852TIP3   OH217519   2.651   2.494   2.429
 5852TIP3    H117520   2.633   2.455   2.514
 5852TIP3    H217521   2.565   2.509   2.390
 5853TIP3   OH217522   5.779   5.107   1.025
 5853TIP3    H117523   5.696   5.061   1.036
 5853TIP3    H217524   5.757   5.199   1.040
 5854TIP3   OH217525   2.813   3.055   1.427
 5854TIP3    H117526   2.825   3.113   1.501
 5854TIP3    H217527   2.893   3.065   1.375
 5855TIP3   OH217528   2.508   2.703   4.980
 5855TIP3    H117529   2.415   2.682   4.988
 5855TIP3    H217530   2.528   2.688   4.888
 5856TIP3   OH217531   5.026   0.525   1.841
 5856TIP3    H117532   5.061   0.542   1.928
 5856TIP3    H217533   4.988   0.608   1.813
 5857TIP3   OH217534   0.428   1.615   1.524
 5857TIP3    H117535   0.402   1.525   1.504
 5857TIP3    H217536   0.480   1.608   1.604
 5858TIP3   OH217537   1.984   2.081   3.368
 5858TIP3    H117538   1.894   2.090   3.398
 5858TIP3    H217539   2.006   2.166   3.330
 5859TIP3   OH217540   3.838   5.595   2.889
 5859TIP3    H117541   3.847   5.671   2.832
 5859TIP3    H217542   3.919   5.546   2.877
 5860TIP3   OH217543   6.409   6.652   0.072
 5860TIP3    H117544   6.449   6.637  -0.014
 5860TIP3    H217545   6.385   6.565   0.103
 5861TIP3   OH217546   2.172   3.347   4.209
 5861TIP3    H117547   2.250   3.400   4.194
 5861TIP3    H217548   2.163   3.294   4.130
 5862TIP3   OH217549   6.237   0.455   5.382
 5862TIP3    H117550   6.289   0.407   5.445
 5862TIP3    H217551   6.200   0.388   5.325
 5863TIP3   OH217552   2.037   0.528   4.272
 5863TIP3    H117553   2.065   0.588   4.203
 5863TIP3    H217554   2.054   0.575   4.354
 5864TIP3   OH217555   1.158   6.208   0.135
 5864TIP3    H117556   1.196   6.294   0.155
 5864TIP3    H217557   1.213   6.173   0.065
 5865TIP3   OH217558   0.651   3.254   4.136
 5865TIP3    H117559   0.599   3.329   4.167
 5865TIP3    H217560   0.600   3.177   4.163
 5866TIP3   OH217561   3.791   6.708   3.280
 5866TIP3    H117562   3.854   6.663   3.223
 5866TIP3    H217563   3.729   6.749   3.218
 5867TIP3   OH217564   0.658   4.146   3.543
 5867TIP3    H117565   0.583   4.138   3.484
 5867TIP3    H217566   0.646   4.230   3.586
 5868TIP3   OH217567   6.722   6.246   3.422
 5868TIP3    H117568   6.663   6.180   3.458
 5868TIP3    H217569   6.715   6.320   3.484
 5869TIP3   OH217570   2.457   4.110   5.076
 5869TIP3    H117571   2.509   4.103   5.156
 5869TIP3    H217572   2.375   4.152   5.104
 5870TIP3   OH217573   1.258   1.054   0.446
 5870TIP3    H117574   1.232   0.962   0.450
 5870TIP3    H217575   1.224   1.085   0.362
 5871TIP3   OH217576   5.411   5.794   4.403
 5871TIP3    H117577   5.473   5.852   4.359
 5871TIP3    H217578   5.325   5.834   4.386
 5872TIP3   OH217579   5.910   2.328   5.162
 5872TIP3    H117580   5.939   2.296   5.076
 5872TIP3    H217581   5.842   2.267   5.189
 5873TIP3   OH217582   1.398   5.576   0.736
 5873TIP3    H117583   1.358   5.492   0.715
 5873TIP3    H217584   1.487   5.554   0.763
 5874TIP3   OH217585   1.041   4.564   0.843
 5874TIP3    H117586   1.023   4.493   0.782
 5874TIP3    H217587   0.985   4.636   0.813
 5875TIP3   OH217588   2.071   2.683   5.862
 5875TIP3    H117589   2.068   2.740   5.939
 5875TIP3    H217590   2.012   2.724   5.799
 5876TIP3   OH217591   1.799   1.511   5.046
 5876TIP3    H117592   1.764   1.469   4.968
 5876TIP3    H217593   1.894   1.506   5.036
 5877TIP3   OH217594   4.749   2.383   4.751
 5877TIP3    H117595   4.762   2.297   4.711
 5877TIP3    H217596   4.677   2.422   4.701
 5878TIP3   OH217597   2.709   1.053   2.992
 5878TIP3    H117598   2.770   1.017   3.057
 5878TIP3    H217599   2.692   0.981   2.932
 5879TIP3   OH217600   2.195   5.984   0.206
 5879TIP3    H117601   2.161   5.954   0.121
 5879TIP3    H217602   2.199   6.079   0.198
 5880TIP3   OH217603   4.359   2.885   2.443
 5880TIP3    H117604   4.435   2.926   2.403
 5880TIP3    H217605   4.285   2.917   2.391
 5881TIP3   OH217606   4.372   3.937   0.397
 5881TIP3    H117607   4.340   3.890   0.474
 5881TIP3    H217608   4.464   3.957   0.418
 5882TIP3   OH217609   6.089   3.855   0.401
 5882TIP3    H117610   6.103   3.948   0.386
 5882TIP3    H217611   6.171   3.824   0.441
 5883TIP3   OH217612   5.232   3.237   5.774
 5883TIP3    H117613   5.139   3.233   5.753
 5883TIP3    H217614   5.260   3.323   5.742
 5884TIP3   OH217615   3.404   2.462   3.470
 5884TIP3    H117616   3.489   2.478   3.510
 5884TIP3    H217617   3.408   2.508   3.386
 5885TIP3   OH217618   4.446   3.254   4.883
 5885TIP3    H117619   4.490   3.338   4.886
 5885TIP3    H217620   4.354   3.274   4.897
 5886TIP3   OH217621   0.700   0.124   1.352
 5886TIP3    H117622   0.728   0.215   1.338
 5886TIP3    H217623   0.726   0.104   1.442
 5887TIP3   OH217624   3.818   1.116   4.345
 5887TIP3    H117625   3.812   1.022   4.363
 5887TIP3    H217626   3.826   1.157   4.431
 5888TIP3   OH217627   2.655   1.793   0.830
 5888TIP3    H117628   2.719   1.850   0.786
 5888TIP3    H217629   2.670   1.809   0.924
 5889TIP3   OH217630   1.474   6.543   2.624
 5889TIP3    H117631   1.387   6.563   2.659
 5889TIP3    H217632   1.481   6.599   2.547
 5890TIP3   OH217633   2.698   6.248   0.962
 5890TIP3    H117634   2.641   6.182   1.001
 5890TIP3    H217635   2.781   6.240   1.010
 5891TIP3   OH217636   2.038   0.355   4.618
 5891TIP3    H117637   2.109   0.395   4.568
 5891TIP3    H217638   2.047   0.393   4.705
 5892TIP3   OH217639   3.150   5.333   0.993
 5892TIP3    H117640   3.241   5.343   1.019
 5892TIP3    H217641   3.152   5.331   0.898
 5893TIP3   OH217642   5.823   0.097   4.578
 5893TIP3    H117643   5.737   0.139   4.577
 5893TIP3    H217644   5.885   0.168   4.568
 5894TIP3   OH217645   6.972   6.279   0.356
 5894TIP3    H117646   6.915   6.354   0.342
 5894TIP3    H217647   6.929   6.229   0.425
 5895TIP3   OH217648   6.292   5.509   3.586
 5895TIP3    H117649   6.253   5.448   3.523
 5895TIP3    H217650   6.377   5.470   3.608
 5896TIP3   OH217651   0.786   0.040   4.532
 5896TIP3    H117652   0.767   0.110   4.469
 5896TIP3    H217653   0.703   0.027   4.579
 5897TIP3   OH217654   0.203   1.347   2.787
 5897TIP3    H117655   0.199   1.391   2.702
 5897TIP3    H217656   0.122   1.296   2.792
 5898TIP3   OH217657   5.209   6.155   5.711
 5898TIP3    H117658   5.210   6.063   5.737
 5898TIP3    H217659   5.201   6.153   5.615
 5899TIP3   OH217660   2.996   6.574   0.842
 5899TIP3    H117661   3.017   6.529   0.760
 5899TIP3    H217662   3.016   6.510   0.910
 5900TIP3   OH217663   4.557   4.197   5.633
 5900TIP3    H117664   4.528   4.183   5.723
 5900TIP3    H217665   4.485   4.166   5.579
 5901TIP3   OH217666   5.275   4.927   0.298
 5901TIP3    H117667   5.312   4.956   0.381
 5901TIP3    H217668   5.219   5.000   0.270
 5902TIP3   OH217669   2.831   4.888   4.011
 5902TIP3    H117670   2.888   4.939   4.068
 5902TIP3    H217671   2.863   4.798   4.018
 5903TIP3   OH217672   3.761   2.502   4.385
 5903TIP3    H117673   3.708   2.453   4.322
 5903TIP3    H217674   3.851   2.489   4.356
 5904TIP3   OH217675   2.534   0.129   0.862
 5904TIP3    H117676   2.618   0.121   0.816
 5904TIP3    H217677   2.557   0.156   0.950
 5905TIP3   OH217678   6.221   5.670   1.652
 5905TIP3    H117679   6.265   5.751   1.627
 5905TIP3    H217680   6.263   5.602   1.599
 5906TIP3   OH217681   3.542   1.164   4.475
 5906TIP3    H117682   3.600   1.122   4.538
 5906TIP3    H217683   3.581   1.250   4.459
 5907TIP3   OH217684   5.084   3.102   3.318
 5907TIP3    H117685   5.018   3.089   3.387
 5907TIP3    H217686   5.116   3.191   3.332
 5908TIP3   OH217687   5.044   4.102   5.889
 5908TIP3    H117688   4.982   4.135   5.824
 5908TIP3    H217689   4.992   4.092   5.969
 5909TIP3   OH217690   1.362   5.356   3.265
 5909TIP3    H117691   1.441   5.352   3.319
 5909TIP3    H217692   1.291   5.335   3.325
 5910TIP3   OH217693   5.443   5.411   3.737
 5910TIP3    H117694   5.410   5.368   3.816
 5910TIP3    H217695   5.536   5.392   3.736
 5911TIP3   OH217696   6.320   3.653   5.048
 5911TIP3    H117697   6.312   3.576   4.991
 5911TIP3    H217698   6.303   3.727   4.990
 5912TIP3   OH217699   6.497   5.221   1.402
 5912TIP3    H117700   6.467   5.298   1.353
 5912TIP3    H217701   6.421   5.164   1.405
 5913TIP3   OH217702   1.150   4.503   5.468
 5913TIP3    H117703   1.244   4.501   5.447
 5913TIP3    H217704   1.107   4.500   5.382
 5914TIP3   OH217705   2.279   6.628   2.749
 5914TIP3    H117706   2.276   6.610   2.843
 5914TIP3    H217707   2.341   6.701   2.741
 5915TIP3   OH217708   1.425   1.825   0.734
 5915TIP3    H117709   1.390   1.769   0.665
 5915TIP3    H217710   1.461   1.763   0.798
 5916TIP3   OH217711   5.174   5.242   0.654
 5916TIP3    H117712   5.114   5.316   0.647
 5916TIP3    H217713   5.154   5.203   0.739
 5917TIP3   OH217714   6.231   1.741   1.448
 5917TIP3    H117715   6.236   1.727   1.354
 5917TIP3    H217716   6.308   1.697   1.483
 5918TIP3   OH217717   4.963   2.607   5.048
 5918TIP3    H117718   5.004   2.689   5.021
 5918TIP3    H217719   4.924   2.626   5.133
 5919TIP3   OH217720   2.832   6.137   2.191
 5919TIP3    H117721   2.740   6.158   2.208
 5919TIP3    H217722   2.862   6.096   2.271
 5920TIP3   OH217723   4.537   0.139   2.059
 5920TIP3    H117724   4.499   0.121   2.145
 5920TIP3    H217725   4.625   0.103   2.063
 5921TIP3   OH217726   2.093   5.736   5.640
 5921TIP3    H117727   2.139   5.741   5.556
 5921TIP3    H217728   2.045   5.654   5.637
 5922TIP3   OH217729   3.276   1.171   2.790
 5922TIP3    H117730   3.182   1.164   2.770
 5922TIP3    H217731   3.280   1.236   2.860
 5923TIP3   OH217732   1.871   4.725   5.370
 5923TIP3    H117733   1.941   4.708   5.433
 5923TIP3    H217734   1.893   4.810   5.333
 5924TIP3   OH217735   0.247   1.451   3.431
 5924TIP3    H117736   0.290   1.534   3.411
 5924TIP3    H217737   0.312   1.384   3.412
 5925TIP3   OH217738   5.981   0.281   3.974
 5925TIP3    H117739   5.950   0.196   4.004
 5925TIP3    H217740   5.956   0.285   3.882
 5926TIP3   OH217741   1.213   2.232   3.368
 5926TIP3    H117742   1.270   2.194   3.434
 5926TIP3    H217743   1.181   2.314   3.407
 5927TIP3   OH217744   5.367   2.432   1.367
 5927TIP3    H117745   5.350   2.373   1.294
 5927TIP3    H217746   5.460   2.423   1.385
 5928TIP3   OH217747   0.825   4.119   2.218
 5928TIP3    H117748   0.811   4.178   2.144
 5928TIP3    H217749   0.915   4.136   2.245
 5929TIP3   OH217750   4.401   2.488   1.136
 5929TIP3    H117751   4.443   2.569   1.165
 5929TIP3    H217752   4.369   2.448   1.217
 5930TIP3   OH217753   1.817   1.175   5.156
 5930TIP3    H117754   1.827   1.222   5.238
 5930TIP3    H217755   1.725   1.190   5.130
 5931TIP3   OH217756   7.143   5.401   2.785
 5931TIP3    H117757   7.207   5.394   2.715
 5931TIP3    H217758   7.091   5.479   2.763
 5932TIP3   OH217759   1.081   2.950   1.147
 5932TIP3    H117760   1.043   2.871   1.187
 5932TIP3    H217761   1.085   2.929   1.054
 5933TIP3   OH217762   5.158   3.228   1.964
 5933TIP3    H117763   5.197   3.168   2.028
 5933TIP3    H217764   5.105   3.171   1.907
 5934TIP3   OH217765   5.851   6.438   1.909
 5934TIP3    H117766   5.855   6.517   1.855
 5934TIP3    H217767   5.898   6.372   1.858
 5935TIP3   OH217768   5.250   1.454   5.631
 5935TIP3    H117769   5.158   1.429   5.627
 5935TIP3    H217770   5.292   1.403   5.562
 5936TIP3   OH217771   1.544   2.427   1.826
 5936TIP3    H117772   1.578   2.423   1.737
 5936TIP3    H217773   1.593   2.360   1.874
 5937TIP3   OH217774   6.888   2.437   1.981
 5937TIP3    H117775   6.796   2.417   1.998
 5937TIP3    H217776   6.919   2.366   1.925
 5938TIP3   OH217777   6.708   1.936   3.998
 5938TIP3    H117778   6.627   1.949   4.048
 5938TIP3    H217779   6.723   2.020   3.955
 5939TIP3   OH217780   0.959   3.670   0.712
 5939TIP3    H117781   0.890   3.604   0.705
 5939TIP3    H217782   1.010   3.660   0.631
 5940TIP3   OH217783   3.733   1.046   2.536
 5940TIP3    H117784   3.744   1.005   2.450
 5940TIP3    H217785   3.819   1.038   2.578
 5941TIP3   OH217786   6.317   6.558   1.003
 5941TIP3    H117787   6.255   6.627   0.979
 5941TIP3    H217788   6.357   6.589   1.084
 5942TIP3   OH217789   2.004   2.875   3.091
 5942TIP3    H117790   1.933   2.939   3.080
 5942TIP3    H217791   2.025   2.847   3.002
 5943TIP3   OH217792   0.457   6.544   0.123
 5943TIP3    H117793   0.465   6.579   0.034
 5943TIP3    H217794   0.420   6.615   0.174
 5944TIP3   OH217795   6.520   4.719   0.085
 5944TIP3    H117796   6.453   4.784   0.062
 5944TIP3    H217797   6.602   4.768   0.088
 5945TIP3   OH217798   3.095   4.568   3.620
 5945TIP3    H117799   3.040   4.492   3.601
 5945TIP3    H217800   3.061   4.637   3.563
 5946TIP3   OH217801   2.765   5.633   2.394
 5946TIP3    H117802   2.685   5.592   2.361
 5946TIP3    H217803   2.766   5.611   2.487
 5947TIP3   OH217804   3.082   0.274   2.454
 5947TIP3    H117805   3.014   0.333   2.488
 5947TIP3    H217806   3.146   0.268   2.524
 5948TIP3   OH217807   7.124   3.660   2.743
 5948TIP3    H117808   7.171   3.599   2.685
 5948TIP3    H217809   7.035   3.625   2.747
 5949TIP3   OH217810   5.625   0.658   4.471
 5949TIP3    H117811   5.604   0.677   4.380
 5949TIP3    H217812   5.640   0.744   4.511
 5950TIP3   OH217813   5.208   0.185   0.025
 5950TIP3    H117814   5.219   0.137  -0.057
 5950TIP3    H217815   5.123   0.230   0.015
 5951TIP3   OH217816   1.027   4.191   2.407
 5951TIP3    H117817   1.097   4.131   2.433
 5951TIP3    H217818   0.977   4.206   2.487
 5952TIP3   OH217819   1.995   0.403   1.215
 5952TIP3    H117820   1.966   0.312   1.203
 5952TIP3    H217821   2.086   0.396   1.244
 5953TIP3   OH217822   2.642   3.453   2.559
 5953TIP3    H117823   2.714   3.398   2.528
 5953TIP3    H217824   2.564   3.397   2.553
 5954TIP3   OH217825   2.894   2.243   4.491
 5954TIP3    H117826   2.970   2.186   4.479
 5954TIP3    H217827   2.851   2.243   4.406
 5955TIP3   OH217828   5.897   5.181   2.091
 5955TIP3    H117829   5.843   5.259   2.074
 5955TIP3    H217830   5.885   5.126   2.014
 5956TIP3   OH217831   6.798   2.294   5.768
 5956TIP3    H117832   6.849   2.223   5.806
 5956TIP3    H217833   6.839   2.374   5.802
 5957TIP3   OH217834   0.929   5.464   1.931
 5957TIP3    H117835   0.944   5.559   1.931
 5957TIP3    H217836   0.949   5.436   1.842
 5958TIP3   OH217837   4.003   4.185   1.241
 5958TIP3    H117838   4.008   4.268   1.288
 5958TIP3    H217839   4.094   4.162   1.221
 5959TIP3   OH217840   1.368   0.903   2.995
 5959TIP3    H117841   1.272   0.912   2.994
 5959TIP3    H217842   1.399   0.972   2.936
 5960TIP3   OH217843   2.615   4.288   2.261
 5960TIP3    H117844   2.536   4.341   2.270
 5960TIP3    H217845   2.616   4.233   2.339
 5961TIP3   OH217846   4.709   1.501   0.613
 5961TIP3    H117847   4.731   1.408   0.603
 5961TIP3    H217848   4.614   1.501   0.628
 5962TIP3   OH217849   3.749   6.770   5.366
 5962TIP3    H117850   3.662   6.755   5.403
 5962TIP3    H217851   3.749   6.721   5.284
 5963TIP3   OH217852   3.048   1.448   4.645
 5963TIP3    H117853   2.968   1.461   4.696
 5963TIP3    H217854   3.086   1.367   4.681
 5964TIP3   OH217855   2.218   0.502   3.561
 5964TIP3    H117856   2.176   0.506   3.647
 5964TIP3    H217857   2.244   0.592   3.543
 5965TIP3   OH217858   2.898   4.862   3.296
 5965TIP3    H117859   2.972   4.851   3.355
 5965TIP3    H217860   2.936   4.850   3.209
 5966TIP3   OH217861   2.043   6.241   3.425
 5966TIP3    H117862   1.965   6.206   3.382
 5966TIP3    H217863   2.012   6.274   3.509
 5967TIP3   OH217864   2.583   1.246   3.587
 5967TIP3    H117865   2.645   1.292   3.645
 5967TIP3    H217866   2.526   1.198   3.647
 5968TIP3   OH217867   0.759   2.810   4.638
 5968TIP3    H117868   0.833   2.752   4.622
 5968TIP3    H217869   0.750   2.860   4.557
 5969TIP3   OH217870   4.925   6.741   4.162
 5969TIP3    H117871   4.992   6.684   4.199
 5969TIP3    H217872   4.970   6.789   4.092
 5970TIP3   OH217873   6.897   4.212   5.156
 5970TIP3    H117874   6.842   4.145   5.198
 5970TIP3    H217875   6.856   4.295   5.180
 5971TIP3   OH217876   2.139   2.608   1.181
 5971TIP3    H117877   2.206   2.580   1.244
 5971TIP3    H217878   2.084   2.669   1.231
 5972TIP3   OH217879   6.816   1.524   1.117
 5972TIP3    H117880   6.858   1.477   1.046
 5972TIP3    H217881   6.862   1.495   1.196
 5973TIP3   OH217882   4.996   5.951   2.043
 5973TIP3    H117883   5.062   5.928   1.979
 5973TIP3    H217884   4.973   5.868   2.085
 5974TIP3   OH217885   6.894   2.733   1.828
 5974TIP3    H117886   6.967   2.793   1.847
 5974TIP3    H217887   6.871   2.698   1.914
 5975TIP3   OH217888   0.751   4.074   0.972
 5975TIP3    H117889   0.797   4.010   0.918
 5975TIP3    H217890   0.815   4.097   1.040
 5976TIP3   OH217891   4.900   5.008   4.002
 5976TIP3    H117892   4.862   4.924   4.026
 5976TIP3    H217893   4.987   4.987   3.968
 5977TIP3   OH217894   1.414   2.855   2.952
 5977TIP3    H117895   1.352   2.789   2.982
 5977TIP3    H217896   1.488   2.847   3.013
 5978TIP3   OH217897   6.382   1.836   2.333
 5978TIP3    H117898   6.290   1.863   2.332
 5978TIP3    H217899   6.380   1.741   2.319
 5979TIP3   OH217900   4.690   5.380   1.192
 5979TIP3    H117901   4.624   5.316   1.166
 5979TIP3    H217902   4.654   5.464   1.163
 5980TIP3   OH217903   5.287   1.910   0.923
 5980TIP3    H117904   5.333   1.842   0.971
 5980TIP3    H217905   5.194   1.894   0.940
 5981TIP3   OH217906   2.852   6.831   0.329
 5981TIP3    H117907   2.777   6.808   0.384
 5981TIP3    H217908   2.820   6.823   0.240
 5982TIP3   OH217909   1.308   2.093   0.092
 5982TIP3    H117910   1.373   2.058   0.031
 5982TIP3    H217911   1.357   2.155   0.146
 5983TIP3   OH217912   2.461  -0.004   3.859
 5983TIP3    H117913   2.515   0.032   3.930
 5983TIP3    H217914   2.374   0.033   3.874
 5984TIP3   OH217915   0.746   3.865   3.128
 5984TIP3    H117916   0.836   3.864   3.096
 5984TIP3    H217917   0.746   3.931   3.197
 5985TIP3   OH217918   0.405   6.381   5.508
 5985TIP3    H117919   0.358   6.420   5.434
 5985TIP3    H217920   0.339   6.372   5.577
 5986TIP3   OH217921   1.237   4.027   3.110
 5986TIP3    H117922   1.317   3.986   3.076
 5986TIP3    H217923   1.251   4.120   3.094
 5987TIP3   OH217924   2.255   5.394   1.524
 5987TIP3    H117925   2.309   5.448   1.466
 5987TIP3    H217926   2.290   5.410   1.611
 5988TIP3   OH217927   4.043   3.555   0.061
 5988TIP3    H117928   4.086   3.542   0.145
 5988TIP3    H217929   4.049   3.650   0.046
 5989TIP3   OH217930   1.845   2.533   2.871
 5989TIP3    H117931   1.812   2.615   2.834
 5989TIP3    H217932   1.874   2.557   2.959
 5990TIP3   OH217933   2.689   3.790   4.031
 5990TIP3    H117934   2.682   3.731   3.957
 5990TIP3    H217935   2.614   3.769   4.087
 5991TIP3   OH217936   5.049   1.288   0.160
 5991TIP3    H117937   5.027   1.348   0.088
 5991TIP3    H217938   5.098   1.218   0.118
 5992TIP3   OH217939   3.967   6.538   5.317
 5992TIP3    H117940   3.932   6.450   5.300
 5992TIP3    H217941   3.908   6.575   5.383
 5993TIP3   OH217942   0.103   1.080   1.286
 5993TIP3    H117943   0.166   1.067   1.215
 5993TIP3    H217944   0.067   1.167   1.270
 5994TIP3   OH217945   1.525   2.697   0.218
 5994TIP3    H117946   1.597   2.749   0.184
 5994TIP3    H217947   1.447   2.749   0.200
 5995TIP3   OH217948   4.748   0.697   4.957
 5995TIP3    H117949   4.793   0.721   5.038
 5995TIP3    H217950   4.798   0.740   4.888
 5996TIP3   OH217951   4.615   2.681   4.340
 5996TIP3    H117952   4.616   2.692   4.245
 5996TIP3    H217953   4.704   2.701   4.368
 5997TIP3   OH217954   5.276   5.559   0.851
 5997TIP3    H117955   5.262   5.597   0.938
 5997TIP3    H217956   5.371   5.553   0.843
 5998TIP3   OH217957   4.622   3.698   0.814
 5998TIP3    H117958   4.706   3.666   0.850
 5998TIP3    H217959   4.638   3.790   0.794
 5999TIP3   OH217960   5.644   0.218   1.277
 5999TIP3    H117961   5.638   0.291   1.338
 5999TIP3    H217962   5.726   0.175   1.300
 6000TIP3   OH217963   5.189   0.347   4.670
 6000TIP3    H117964   5.175   0.266   4.719
 6000TIP3    H217965   5.129   0.340   4.595
 6001TIP3   OH217966   3.084   6.518   4.312
 6001TIP3    H117967   3.176   6.502   4.289
 6001TIP3    H217968   3.087   6.546   4.403
 6002TIP3   OH217969   4.949   1.349   4.576
 6002TIP3    H117970   4.975   1.367   4.666
 6002TIP3    H217971   4.897   1.425   4.550
 6003TIP3   OH217972   0.696   3.026   2.631
 6003TIP3    H117973   0.767   2.967   2.606
 6003TIP3    H217974   0.700   3.029   2.727
 6004TIP3   OH217975   2.147   5.549   1.280
 6004TIP3    H117976   2.185   5.472   1.237
 6004TIP3    H217977   2.222   5.607   1.295
 6005TIP3   OH217978   6.857   0.207   4.847
 6005TIP3    H117979   6.858   0.176   4.756
 6005TIP3    H217980   6.942   0.180   4.881
 6006TIP3   OH217981   2.549   2.427   5.369
 6006TIP3    H117982   2.599   2.346   5.377
 6006TIP3    H217983   2.565   2.457   5.280
 6007TIP3   OH217984   2.803   4.031   5.732
 6007TIP3    H117985   2.896   4.026   5.709
 6007TIP3    H217986   2.758   4.029   5.647
 6008TIP3   OH217987   1.050   0.887   0.897
 6008TIP3    H117988   1.073   0.897   0.805
 6008TIP3    H217989   1.130   0.912   0.944
 6009TIP3   OH217990   0.221   2.369   4.747
 6009TIP3    H117991   0.231   2.284   4.705
 6009TIP3    H217992   0.129   2.375   4.771
 6010TIP3   OH217993   0.415   3.281   3.491
 6010TIP3    H117994   0.467   3.222   3.546
 6010TIP3    H217995   0.404   3.360   3.544
 6011TIP3   OH217996   0.929   4.896   1.969
 6011TIP3    H117997   0.867   4.863   1.904
 6011TIP3    H217998   0.966   4.816   2.008
 6012TIP3   OH217999   6.072   4.043   5.703
 6012TIP3    H118000   6.049   3.952   5.721
 6012TIP3    H218001   6.007   4.094   5.752
 6013TIP3   OH218002   1.177   2.089   3.808
 6013TIP3    H118003   1.190   2.064   3.717
 6013TIP3    H218004   1.223   2.172   3.817
 6014TIP3   OH218005   4.577   0.608   4.721
 6014TIP3    H118006   4.644   0.663   4.762
 6014TIP3    H218007   4.625   0.552   4.661
 6015TIP3   OH218008   6.807   5.948   3.263
 6015TIP3    H118009   6.842   6.031   3.231
 6015TIP3    H218010   6.743   5.922   3.196
 6016TIP3   OH218011   2.962   2.388   1.912
 6016TIP3    H118012   2.921   2.449   1.850
 6016TIP3    H218013   2.899   2.379   1.983
 6017TIP3   OH218014   4.430   4.438   4.284
 6017TIP3    H118015   4.398   4.525   4.308
 6017TIP3    H218016   4.477   4.408   4.362
 6018TIP3   OH218017   2.918   5.793   2.238
 6018TIP3    H118018   2.877   5.718   2.283
 6018TIP3    H218019   2.931   5.858   2.307
 6019TIP3   OH218020   0.876   4.197   0.254
 6019TIP3    H118021   0.797   4.172   0.301
 6019TIP3    H218022   0.928   4.246   0.318
 6020TIP3   OH218023   3.379   4.362   4.030
 6020TIP3    H118024   3.293   4.373   3.989
 6020TIP3    H218025   3.392   4.267   4.031
 6021TIP3   OH218026   1.029   1.652   0.814
 6021TIP3    H118027   0.953   1.625   0.866
 6021TIP3    H218028   1.103   1.639   0.873
 6022TIP3   OH218029   4.862   4.333   4.323
 6022TIP3    H118030   4.797   4.402   4.310
 6022TIP3    H218031   4.854   4.277   4.246
 6023TIP3   OH218032   1.438   5.383   3.959
 6023TIP3    H118033   1.517   5.434   3.976
 6023TIP3    H218034   1.462   5.325   3.887
 6024TIP3   OH218035   1.529   0.129   2.251
 6024TIP3    H118036   1.480   0.167   2.179
 6024TIP3    H218037   1.608   0.093   2.211
 6025TIP3   OH218038   4.334   1.270   5.281
 6025TIP3    H118039   4.277   1.198   5.308
 6025TIP3    H218040   4.284   1.315   5.213
 6026TIP3   OH218041   6.093   6.744   0.063
 6026TIP3    H118042   6.186   6.767   0.058
 6026TIP3    H218043   6.071   6.749   0.156
 6027TIP3   OH218044   2.851   3.289   2.504
 6027TIP3    H118045   2.937   3.296   2.546
 6027TIP3    H218046   2.858   3.211   2.448
 6028TIP3   OH218047   4.875   2.436   3.769
 6028TIP3    H118048   4.824   2.370   3.816
 6028TIP3    H218049   4.961   2.396   3.758
 6029TIP3   OH218050   7.090   2.511   5.383
 6029TIP3    H118051   7.016   2.516   5.444
 6029TIP3    H218052   7.057   2.461   5.309
 6030TIP3   OH218053   6.574   2.342   5.282
 6030TIP3    H118054   6.608   2.413   5.227
 6030TIP3    H218055   6.652   2.292   5.307
 6031TIP3   OH218056   4.094   3.197   1.425
 6031TIP3    H118057   4.065   3.276   1.471
 6031TIP3    H218058   4.118   3.136   1.496
 6032TIP3   OH218059   4.022   2.260   5.272
 6032TIP3    H118060   4.058   2.197   5.335
 6032TIP3    H218061   3.940   2.289   5.310
 6033TIP3   OH218062   2.488   6.669   0.693
 6033TIP3    H118063   2.440   6.596   0.653
 6033TIP3    H218064   2.548   6.626   0.754
 6034TIP3   OH218065   1.684   2.736   4.958
 6034TIP3    H118066   1.607   2.734   5.016
 6034TIP3    H218067   1.678   2.654   4.908
 6035TIP3   OH218068   3.231   4.467   1.501
 6035TIP3    H118069   3.275   4.524   1.564
 6035TIP3    H218070   3.190   4.399   1.555
 6036TIP3   OH218071   2.438   1.418   0.325
 6036TIP3    H118072   2.387   1.459   0.255
 6036TIP3    H218073   2.497   1.358   0.280
 6037TIP3   OH218074   6.854   1.907   2.403
 6037TIP3    H118075   6.857   1.982   2.463
 6037TIP3    H218076   6.777   1.924   2.349
 6038TIP3   OH218077   3.750   0.935   2.296
 6038TIP3    H118078   3.746   0.984   2.214
 6038TIP3    H218079   3.777   0.847   2.270
 6039TIP3   OH218080   2.799   0.438   3.081
 6039TIP3    H118081   2.751   0.520   3.088
 6039TIP3    H218082   2.796   0.401   3.169
 6040TIP3   OH218083   6.095   5.151   0.647
 6040TIP3    H118084   6.117   5.063   0.678
 6040TIP3    H218085   6.106   5.147   0.552
 6041TIP3   OH218086   1.708   5.336   4.748
 6041TIP3    H118087   1.676   5.363   4.662
 6041TIP3    H218088   1.645   5.374   4.810
 6042TIP3   OH218089   6.651   3.827   3.277
 6042TIP3    H118090   6.644   3.896   3.342
 6042TIP3    H218091   6.581   3.845   3.214
 6043TIP3   OH218092   0.263   6.535   2.692
 6043TIP3    H118093   0.196   6.490   2.639
 6043TIP3    H218094   0.344   6.488   2.672
 6044TIP3   OH218095   5.846   3.302   2.826
 6044TIP3    H118096   5.849   3.280   2.919
 6044TIP3    H218097   5.887   3.227   2.782
 6045TIP3   OH218098   2.789   0.204   5.724
 6045TIP3    H118099   2.717   0.264   5.744
 6045TIP3    H218100   2.750   0.141   5.663
 6046TIP3   OH218101   0.859   4.643   1.135
 6046TIP3    H118102   0.827   4.583   1.067
 6046TIP3    H218103   0.870   4.727   1.089
 6047TIP3   OH218104   6.553   6.060   2.015
 6047TIP3    H118105   6.550   5.965   2.011
 6047TIP3    H218106   6.541   6.088   1.924
 6048TIP3   OH218107   2.322   4.688   5.865
 6048TIP3    H118108   2.396   4.693   5.925
 6048TIP3    H218109   2.316   4.776   5.827
 6049TIP3   OH218110   3.707   3.267   4.670
 6049TIP3    H118111   3.677   3.253   4.581
 6049TIP3    H218112   3.630   3.297   4.718
 6050TIP3   OH218113   0.704   3.853   4.006
 6050TIP3    H118114   0.643   3.779   4.008
 6050TIP3    H218115   0.783   3.819   4.048
 6051TIP3   OH218116   5.566   2.002   4.809
 6051TIP3    H118117   5.636   2.031   4.867
 6051TIP3    H218118   5.496   2.066   4.821
 6052TIP3   OH218119   5.077   4.442   2.448
 6052TIP3    H118120   5.167   4.434   2.415
 6052TIP3    H218121   5.085   4.429   2.542
 6053TIP3   OH218122   6.296   1.195   2.825
 6053TIP3    H118123   6.202   1.186   2.807
 6053TIP3    H218124   6.332   1.109   2.806
 6054TIP3   OH218125   5.380   1.934   2.297
 6054TIP3    H118126   5.392   1.850   2.253
 6054TIP3    H218127   5.285   1.948   2.296
 6055TIP3   OH218128   2.566   0.894   0.723
 6055TIP3    H118129   2.541   0.849   0.642
 6055TIP3    H218130   2.661   0.904   0.717
 6056TIP3   OH218131   4.421   4.633   2.740
 6056TIP3    H118132   4.437   4.557   2.796
 6056TIP3    H218133   4.385   4.596   2.659
 6057TIP3   OH218134   3.891   2.488   0.157
 6057TIP3    H118135   3.928   2.562   0.107
 6057TIP3    H218136   3.968   2.442   0.192
 6058TIP3   OH218137   4.296   2.557   2.326
 6058TIP3    H118138   4.247   2.568   2.407
 6058TIP3    H218139   4.388   2.553   2.354
 6059TIP3   OH218140   5.667   2.642   0.089
 6059TIP3    H118141   5.613   2.564   0.091
 6059TIP3    H218142   5.619   2.704   0.034
 6060TIP3   OH218143   1.601   1.660   4.112
 6060TIP3    H118144   1.570   1.614   4.034
 6060TIP3    H218145   1.542   1.734   4.122
 6061TIP3   OH218146   6.616   4.240   3.153
 6061TIP3    H118147   6.580   4.181   3.219
 6061TIP3    H218148   6.607   4.327   3.191
 6062TIP3   OH218149   0.121   6.459   0.211
 6062TIP3    H118150   0.082   6.542   0.182
 6062TIP3    H218151   0.206   6.485   0.249
 6063TIP3   OH218152   4.164   4.109   4.391
 6063TIP3    H118153   4.120   4.152   4.465
 6063TIP3    H218154   4.174   4.018   4.418
 6064TIP3   OH218155   5.657   2.472   4.370
 6064TIP3    H118156   5.680   2.424   4.291
 6064TIP3    H218157   5.563   2.486   4.364
 6065TIP3   OH218158   5.331   0.306   4.382
 6065TIP3    H118159   5.273   0.382   4.378
 6065TIP3    H218160   5.360   0.303   4.474
 6066TIP3   OH218161   4.173   1.654   0.365
 6066TIP3    H118162   4.079   1.671   0.360
 6066TIP3    H218163   4.199   1.694   0.449
 6067TIP3   OH218164   0.327   5.756   1.116
 6067TIP3    H118165   0.382   5.739   1.039
 6067TIP3    H218166   0.389   5.784   1.184
 6068TIP3   OH218167   3.292   3.638   4.491
 6068TIP3    H118168   3.234   3.652   4.566
 6068TIP3    H218169   3.287   3.544   4.475
 6069TIP3   OH218170   4.002   1.949   3.743
 6069TIP3    H118171   4.009   1.916   3.654
 6069TIP3    H218172   3.909   1.967   3.755
 6070TIP3   OH218173   6.331   1.270   1.505
 6070TIP3    H118174   6.240   1.281   1.476
 6070TIP3    H218175   6.367   1.204   1.446
 6071TIP3   OH218176   6.387   5.281   4.761
 6071TIP3    H118177   6.384   5.238   4.846
 6071TIP3    H218178   6.329   5.229   4.705
 6072TIP3   OH218179   6.284   2.173   1.898
 6072TIP3    H118180   6.205   2.148   1.946
 6072TIP3    H218181   6.252   2.224   1.824
 6073TIP3   OH218182   5.649   4.742   3.887
 6073TIP3    H118183   5.625   4.649   3.885
 6073TIP3    H218184   5.619   4.776   3.803
 6074TIP3   OH218185   4.399   5.746   4.818
 6074TIP3    H118186   4.400   5.810   4.889
 6074TIP3    H218187   4.455   5.675   4.848
 6075TIP3   OH218188   3.171   2.377   1.073
 6075TIP3    H118189   3.192   2.323   1.149
 6075TIP3    H218190   3.176   2.318   0.999
 6076TIP3   OH218191   3.375   5.304   0.358
 6076TIP3    H118192   3.344   5.214   0.347
 6076TIP3    H218193   3.340   5.351   0.282
 6077TIP3   OH218194   4.605   3.325   3.657
 6077TIP3    H118195   4.554   3.349   3.580
 6077TIP3    H218196   4.679   3.386   3.658
 6078TIP3   OH218197   6.580   5.194   3.923
 6078TIP3    H118198   6.639   5.157   3.989
 6078TIP3    H218199   6.577   5.127   3.855
 6079TIP3   OH218200   4.685   2.308   5.255
 6079TIP3    H118201   4.668   2.233   5.198
 6079TIP3    H218202   4.629   2.378   5.221
 6080TIP3   OH218203   6.362   3.877   0.072
 6080TIP3    H118204   6.411   3.819   0.014
 6080TIP3    H218205   6.353   3.958   0.021
 6081TIP3   OH218206   2.947   3.950   0.462
 6081TIP3    H118207   2.880   4.009   0.427
 6081TIP3    H218208   2.900   3.870   0.485
 6082TIP3   OH218209   4.143   3.055   5.781
 6082TIP3    H118210   4.059   3.025   5.747
 6082TIP3    H218211   4.160   2.998   5.856
 6083TIP3   OH218212   4.949   4.753   3.570
 6083TIP3    H118213   4.877   4.763   3.508
 6083TIP3    H218214   4.945   4.661   3.598
 6084TIP3   OH218215   6.905   1.690   3.237
 6084TIP3    H118216   6.821   1.685   3.283
 6084TIP3    H218217   6.932   1.781   3.246
 6085TIP3   OH218218   4.944   0.693   0.789
 6085TIP3    H118219   4.979   0.604   0.795
 6085TIP3    H218220   4.954   0.717   0.697
 6086TIP3   OH218221   6.722   2.352   0.454
 6086TIP3    H118222   6.714   2.258   0.473
 6086TIP3    H218223   6.784   2.384   0.519
 6087TIP3   OH218224   2.824   3.419   5.306
 6087TIP3    H118225   2.768   3.489   5.340
 6087TIP3    H218226   2.909   3.435   5.348
 6088TIP3   OH218227   4.299   3.790   0.635
 6088TIP3    H118228   4.303   3.849   0.710
 6088TIP3    H218229   4.321   3.704   0.671
 6089TIP3   OH218230   5.486   0.937   5.671
 6089TIP3    H118231   5.394   0.913   5.661
 6089TIP3    H218232   5.483   1.032   5.687
 6090TIP3   OH218233   2.942   4.958   5.683
 6090TIP3    H118234   2.946   4.922   5.594
 6090TIP3    H218235   2.959   5.051   5.672
 6091TIP3   OH218236   5.250   1.164   0.335
 6091TIP3    H118237   5.159   1.174   0.305
 6091TIP3    H218238   5.249   1.086   0.390
 6092TIP3   OH218239   6.991   4.846   4.543
 6092TIP3    H118240   7.065   4.877   4.594
 6092TIP3    H218241   7.030   4.798   4.471
 6093TIP3   OH218242   3.497   3.039   0.327
 6093TIP3    H118243   3.542   3.094   0.262
 6093TIP3    H218244   3.466   2.964   0.276
 6094TIP3   OH218245   5.675   2.095   0.189
 6094TIP3    H118246   5.585   2.063   0.189
 6094TIP3    H218247   5.702   2.090   0.281
 6095TIP3   OH218248   5.611   3.025   2.860
 6095TIP3    H118249   5.599   3.086   2.787
 6095TIP3    H218250   5.555   2.950   2.837
 6096TIP3   OH218251   3.920   6.074   0.644
 6096TIP3    H118252   4.014   6.092   0.645
 6096TIP3    H218253   3.886   6.119   0.721
 6097TIP3   OH218254   1.222   6.030   1.437
 6097TIP3    H118255   1.192   6.011   1.348
 6097TIP3    H218256   1.142   6.042   1.488
 6098TIP3   OH218257   2.413   1.316   1.420
 6098TIP3    H118258   2.370   1.244   1.466
 6098TIP3    H218259   2.506   1.307   1.443
 6099TIP3   OH218260   0.094   5.107   1.298
 6099TIP3    H118261   0.106   5.102   1.203
 6099TIP3    H218262   0.008   5.067   1.313
 6100TIP3   OH218263   1.608   6.671   3.763
 6100TIP3    H118264   1.544   6.714   3.820
 6100TIP3    H218265   1.607   6.722   3.682
 6101TIP3   OH218266   5.247   6.474   0.516
 6101TIP3    H118267   5.326   6.430   0.487
 6101TIP3    H218268   5.219   6.527   0.442
 6102TIP3   OH218269   0.523   0.788   0.721
 6102TIP3    H118270   0.591   0.854   0.708
 6102TIP3    H218271   0.481   0.779   0.635
 6103TIP3   OH218272   1.997   4.361   3.229
 6103TIP3    H118273   2.023   4.299   3.296
 6103TIP3    H218274   2.070   4.424   3.226
 6104TIP3   OH218275   0.163   3.314   2.700
 6104TIP3    H118276   0.099   3.244   2.716
 6104TIP3    H218277   0.167   3.361   2.783
 6105TIP3   OH218278   4.098   2.100   1.352
 6105TIP3    H118279   4.048   2.164   1.403
 6105TIP3    H218280   4.088   2.128   1.261
 6106TIP3   OH218281   1.005   3.421   5.849
 6106TIP3    H118282   0.933   3.401   5.908
 6106TIP3    H218283   1.069   3.351   5.864
 6107TIP3   OH218284   3.122   0.900   3.593
 6107TIP3    H118285   3.035   0.891   3.553
 6107TIP3    H218286   3.106   0.894   3.687
 6108TIP3   OH218287   4.481   2.632   3.867
 6108TIP3    H118288   4.551   2.615   3.804
 6108TIP3    H218289   4.458   2.546   3.902
 6109TIP3   OH218290   0.102   4.611   0.709
 6109TIP3    H118291   0.055   4.570   0.636
 6109TIP3    H218292   0.161   4.543   0.741
 6110TIP3   OH218293   3.033   4.666   2.811
 6110TIP3    H118294   2.987   4.668   2.727
 6110TIP3    H218295   3.058   4.574   2.822
 6111TIP3   OH218296   3.318   2.442   5.008
 6111TIP3    H118297   3.369   2.400   4.939
 6111TIP3    H218298   3.368   2.426   5.088
 6112TIP3   OH218299   2.114   1.871   3.512
 6112TIP3    H118300   2.073   1.955   3.490
 6112TIP3    H218301   2.200   1.875   3.470
 6113TIP3   OH218302   5.283   0.257   3.388
 6113TIP3    H118303   5.275   0.347   3.421
 6113TIP3    H218304   5.356   0.261   3.327
 6114TIP3   OH218305   7.153   0.655   4.561
 6114TIP3    H118306   7.189   0.649   4.472
 6114TIP3    H218307   7.160   0.749   4.582
 6115TIP3   OH218308   3.502   0.111   0.391
 6115TIP3    H118309   3.592   0.106   0.422
 6115TIP3    H218310   3.485   0.205   0.380
 6116TIP3   OH218311   4.650   4.938   4.296
 6116TIP3    H118312   4.632   4.853   4.337
 6116TIP3    H218313   4.639   5.001   4.368
 6117TIP3   OH218314   6.624   5.066   4.846
 6117TIP3    H118315   6.549   5.051   4.788
 6117TIP3    H218316   6.602   5.019   4.926
 6118TIP3   OH218317   2.893   3.186   1.131
 6118TIP3    H118318   2.856   3.273   1.143
 6118TIP3    H218319   2.818   3.130   1.114
 6119TIP3   OH218320   6.980   3.849   1.450
 6119TIP3    H118321   6.980   3.912   1.378
 6119TIP3    H218322   6.984   3.903   1.529
 6120TIP3   OH218323   0.222   3.924   2.681
 6120TIP3    H118324   0.303   3.967   2.652
 6120TIP3    H218325   0.244   3.831   2.682
 6121TIP3   OH218326   4.830   5.918   2.435
 6121TIP3    H118327   4.915   5.959   2.426
 6121TIP3    H218328   4.822   5.899   2.529
 6122TIP3   OH218329   3.370   3.726   2.506
 6122TIP3    H118330   3.294   3.669   2.518
 6122TIP3    H218331   3.444   3.675   2.539
 6123TIP3   OH218332   7.008   3.322   0.914
 6123TIP3    H118333   7.036   3.399   0.864
 6123TIP3    H218334   7.071   3.317   0.986
 6124TIP3   OH218335   2.623   6.612   2.879
 6124TIP3    H118336   2.608   6.626   2.972
 6124TIP3    H218337   2.692   6.675   2.856
 6125TIP3   OH218338   6.775   5.276   5.656
 6125TIP3    H118339   6.778   5.356   5.709
 6125TIP3    H218340   6.853   5.280   5.601
 6126TIP3   OH218341   7.142   2.256   5.692
 6126TIP3    H118342   7.163   2.241   5.785
 6126TIP3    H218343   7.182   2.340   5.672
 6127TIP3   OH218344   6.122   3.448   2.922
 6127TIP3    H118345   6.037   3.420   2.955
 6127TIP3    H218346   6.158   3.503   2.991
 6128TIP3   OH218347   2.779   2.493   5.863
 6128TIP3    H118348   2.818   2.450   5.787
 6128TIP3    H218349   2.756   2.581   5.831
 6129TIP3   OH218350   5.913   3.778   3.280
 6129TIP3    H118351   5.822   3.794   3.305
 6129TIP3    H218352   5.917   3.800   3.187
 6130TIP3   OH218353   3.649   2.043   4.249
 6130TIP3    H118354   3.729   1.998   4.277
 6130TIP3    H218355   3.680   2.128   4.217
 6131TIP3   OH218356   4.279   6.474   3.985
 6131TIP3    H118357   4.241   6.389   3.965
 6131TIP3    H218358   4.334   6.458   4.062
 6132TIP3   OH218359   6.034   1.630   5.478
 6132TIP3    H118360   6.032   1.608   5.571
 6132TIP3    H218361   6.119   1.672   5.464
 6133TIP3   OH218362   6.037   0.341   4.706
 6133TIP3    H118363   6.120   0.332   4.658
 6133TIP3    H218364   6.061   0.390   4.785
 6134TIP3   OH218365   2.639   6.009   5.096
 6134TIP3    H118366   2.725   6.050   5.099
 6134TIP3    H218367   2.617   6.006   5.002
 6135TIP3   OH218368   5.658   5.389   0.586
 6135TIP3    H118369   5.623   5.475   0.565
 6135TIP3    H218370   5.746   5.406   0.619
 6136TIP3   OH218371   6.578   6.621   0.654
 6136TIP3    H118372   6.523   6.580   0.587
 6136TIP3    H218373   6.649   6.662   0.604
 6137TIP3   OH218374   4.474   5.890   2.405
 6137TIP3    H118375   4.395   5.937   2.378
 6137TIP3    H218376   4.542   5.958   2.410
 6138TIP3   OH218377   2.850   6.675   2.091
 6138TIP3    H118378   2.889   6.591   2.117
 6138TIP3    H218379   2.915   6.715   2.034
 6139TIP3   OH218380   2.810   0.546   2.829
 6139TIP3    H118381   2.866   0.513   2.899
 6139TIP3    H218382   2.789   0.468   2.777
 6140TIP3   OH218383   1.085   3.812   3.827
 6140TIP3    H118384   1.006   3.864   3.815
 6140TIP3    H218385   1.091   3.799   3.921
 6141TIP3   OH218386   1.097   3.467   4.630
 6141TIP3    H118387   1.121   3.441   4.719
 6141TIP3    H218388   1.111   3.389   4.577
 6142TIP3   OH218389   2.053   1.111   0.340
 6142TIP3    H118390   2.074   1.197   0.376
 6142TIP3    H218391   1.985   1.077   0.399
 6143TIP3   OH218392   4.374   3.746   1.317
 6143TIP3    H118393   4.422   3.665   1.302
 6143TIP3    H218394   4.431   3.798   1.375
 6144TIP3   OH218395   6.087   0.062   4.352
 6144TIP3    H118396   6.062   0.145   4.314
 6144TIP3    H218397   6.040  -0.004   4.301
 6145TIP3   OH218398   6.483   2.075   5.169
 6145TIP3    H118399   6.559   2.118   5.131
 6145TIP3    H218400   6.409   2.109   5.120
 6146TIP3   OH218401   0.927   5.629   4.096
 6146TIP3    H118402   0.949   5.666   4.181
 6146TIP3    H218403   0.922   5.704   4.037
 6147TIP3   OH218404   3.134   6.268   4.681
 6147TIP3    H118405   3.059   6.266   4.742
 6147TIP3    H218406   3.133   6.357   4.646
 6148TIP3   OH218407   5.738   2.762   2.890
 6148TIP3    H118408   5.739   2.848   2.847
 6148TIP3    H218409   5.658   2.720   2.857
 6149TIP3   OH218410   1.559   4.805   5.716
 6149TIP3    H118411   1.538   4.768   5.802
 6149TIP3    H218412   1.477   4.798   5.667
 6150TIP3   OH218413   6.313   4.360   5.581
 6150TIP3    H118414   6.274   4.274   5.563
 6150TIP3    H218415   6.399   4.356   5.539
 6151TIP3   OH218416   6.830   3.916   3.084
 6151TIP3    H118417   6.762   3.975   3.052
 6151TIP3    H218418   6.794   3.878   3.163
 6152TIP3   OH218419   2.412   3.456   1.601
 6152TIP3    H118420   2.471   3.453   1.677
 6152TIP3    H218421   2.351   3.384   1.616
 6153TIP3   OH218422   0.235   5.989   2.880
 6153TIP3    H118423   0.209   5.925   2.947
 6153TIP3    H218424   0.328   5.972   2.866
 6154TIP3   OH218425   2.340   0.339   5.574
 6154TIP3    H118426   2.314   0.381   5.656
 6154TIP3    H218427   2.258   0.309   5.536
 6155TIP3   OH218428   6.047   1.932   5.655
 6155TIP3    H118429   5.968   1.892   5.689
 6155TIP3    H218430   6.041   2.024   5.682
 6156TIP3   OH218431   3.196   1.450   4.414
 6156TIP3    H118432   3.219   1.357   4.408
 6156TIP3    H218433   3.135   1.455   4.487
 6157TIP3   OH218434   6.030   6.545   3.344
 6157TIP3    H118435   5.945   6.546   3.389
 6157TIP3    H218436   6.008   6.531   3.252
 6158TIP3   OH218437   5.525   3.683   2.341
 6158TIP3    H118438   5.564   3.686   2.428
 6158TIP3    H218439   5.436   3.716   2.353
 6159TIP3   OH218440   4.154   0.022   4.078
 6159TIP3    H118441   4.223   0.085   4.055
 6159TIP3    H218442   4.178  -0.058   4.030
 6160TIP3   OH218443   7.073   4.711   2.321
 6160TIP3    H118444   7.157   4.669   2.337
 6160TIP3    H218445   7.085   4.758   2.238
 6161TIP3   OH218446   6.868   5.960   2.824
 6161TIP3    H118447   6.797   5.915   2.777
 6161TIP3    H218448   6.848   6.053   2.814
 6162TIP3   OH218449   1.437   0.230   2.623
 6162TIP3    H118450   1.466   0.300   2.565
 6162TIP3    H218451   1.501   0.230   2.695
 6163TIP3   OH218452   5.719   3.858   0.952
 6163TIP3    H118453   5.745   3.940   0.994
 6163TIP3    H218454   5.670   3.811   1.019
 6164TIP3   OH218455   3.892   5.867   5.079
 6164TIP3    H118456   3.813   5.870   5.133
 6164TIP3    H218457   3.863   5.897   4.992
 6165TIP3   OH218458   3.349   3.242   3.202
 6165TIP3    H118459   3.254   3.253   3.192
 6165TIP3    H218460   3.365   3.258   3.295
 6166TIP3   OH218461   1.878   6.329   4.588
 6166TIP3    H118462   1.796   6.291   4.558
 6166TIP3    H218463   1.852   6.414   4.625
 6167TIP3   OH218464   3.860   0.926   3.128
 6167TIP3    H118465   3.918   0.952   3.200
 6167TIP3    H218466   3.774   0.919   3.167
 6168TIP3   OH218467   4.714   5.981   3.196
 6168TIP3    H118468   4.678   6.024   3.118
 6168TIP3    H218469   4.790   6.035   3.219
 6169TIP3   OH218470   3.783   3.223   5.137
 6169TIP3    H118471   3.767   3.273   5.057
 6169TIP3    H218472   3.798   3.133   5.107
 6170TIP3   OH218473   5.333   0.179   2.347
 6170TIP3    H118474   5.251   0.186   2.396
 6170TIP3    H218475   5.315   0.222   2.264
 6171TIP3   OH218476   6.682   3.138   5.234
 6171TIP3    H118477   6.723   3.191   5.302
 6171TIP3    H218478   6.625   3.199   5.188
 6172TIP3   OH218479   1.694   0.414   2.226
 6172TIP3    H118480   1.707   0.490   2.283
 6172TIP3    H218481   1.669   0.343   2.286
 6173TIP3   OH218482   5.715   3.154   3.110
 6173TIP3    H118483   5.701   3.064   3.140
 6173TIP3    H218484   5.690   3.153   3.018
 6174TIP3   OH218485   6.899   5.422   4.296
 6174TIP3    H118486   6.841   5.423   4.219
 6174TIP3    H218487   6.896   5.331   4.327
 6175TIP3   OH218488   3.849   5.225   1.857
 6175TIP3    H118489   3.775   5.188   1.906
 6175TIP3    H218490   3.923   5.219   1.918
 6176TIP3   OH218491   5.482   4.637   1.036
 6176TIP3    H118492   5.404   4.586   1.057
 6176TIP3    H218493   5.554   4.588   1.074
 6177TIP3   OH218494   3.393   5.836   5.572
 6177TIP3    H118495   3.408   5.743   5.554
 6177TIP3    H218496   3.335   5.865   5.502
 6178TIP3   OH218497   1.118   0.809   0.338
 6178TIP3    H118498   1.148   0.733   0.287
 6178TIP3    H218499   1.057   0.773   0.402
 6179TIP3   OH218500   1.858   2.336   5.386
 6179TIP3    H118501   1.831   2.359   5.297
 6179TIP3    H218502   1.872   2.241   5.383
 6180TIP3   OH218503   4.491   3.208   5.731
 6180TIP3    H118504   4.416   3.229   5.786
 6180TIP3    H218505   4.499   3.283   5.672
 6181TIP3   OH218506   3.037   5.447   2.181
 6181TIP3    H118507   3.078   5.410   2.259
 6181TIP3    H218508   2.945   5.424   2.189
 6182TIP3   OH218509   1.385   0.631   2.558
 6182TIP3    H118510   1.289   0.637   2.561
 6182TIP3    H218511   1.415   0.721   2.566
 6183TIP3   OH218512   3.005   0.972   3.859
 6183TIP3    H118513   2.992   1.047   3.801
 6183TIP3    H218514   3.014   1.010   3.946
 6184TIP3   OH218515   0.879   4.250   4.582
 6184TIP3    H118516   0.833   4.233   4.665
 6184TIP3    H218517   0.845   4.183   4.523
 6185TIP3   OH218518   1.467   4.667   1.277
 6185TIP3    H118519   1.561   4.651   1.287
 6185TIP3    H218520   1.425   4.608   1.339
 6186TIP3   OH218521   3.469   1.608   1.340
 6186TIP3    H118522   3.562   1.596   1.359
 6186TIP3    H218523   3.453   1.552   1.264
 6187TIP3   OH218524   1.327   0.690   5.727
 6187TIP3    H118525   1.310   0.784   5.728
 6187TIP3    H218526   1.404   0.678   5.782
 6188TIP3   OH218527   5.044   5.293   5.483
 6188TIP3    H118528   5.125   5.280   5.432
 6188TIP3    H218529   5.000   5.209   5.479
 6189TIP3   OH218530   4.170   0.664   2.293
 6189TIP3    H118531   4.196   0.634   2.380
 6189TIP3    H218532   4.161   0.584   2.241
 6190TIP3   OH218533   4.653   0.818   0.145
 6190TIP3    H118534   4.668   0.777   0.060
 6190TIP3    H218535   4.690   0.906   0.136
 6191TIP3   OH218536   4.641   3.098   1.199
 6191TIP3    H118537   4.652   3.013   1.158
 6191TIP3    H218538   4.551   3.097   1.231
 6192TIP3   OH218539   7.206   4.934   2.408
 6192TIP3    H118540   7.204   5.003   2.342
 6192TIP3    H218541   7.153   4.863   2.370
 6193TIP3   OH218542   5.292   6.576   2.482
 6193TIP3    H118543   5.372   6.598   2.529
 6193TIP3    H218544   5.257   6.661   2.454
 6194TIP3   OH218545   4.999   5.147   0.872
 6194TIP3    H118546   4.937   5.214   0.899
 6194TIP3    H218547   5.024   5.103   0.953
 6195TIP3   OH218548   0.706   0.821   5.779
 6195TIP3    H118549   0.770   0.842   5.711
 6195TIP3    H218550   0.664   0.740   5.749
 6196TIP3   OH218551   0.053   6.297   1.582
 6196TIP3    H118552  -0.024   6.242   1.596
 6196TIP3    H218553   0.018   6.386   1.574
 6197TIP3   OH218554   2.406   3.867   4.236
 6197TIP3    H118555   2.477   3.922   4.203
 6197TIP3    H218556   2.429   3.851   4.327
 6198TIP3   OH218557   6.164   5.034   3.489
 6198TIP3    H118558   6.252   5.069   3.496
 6198TIP3    H218559   6.167   4.952   3.538
 6199TIP3   OH218560   4.146   2.289   0.681
 6199TIP3    H118561   4.200   2.224   0.634
 6199TIP3    H218562   4.067   2.241   0.706
 6200TIP3   OH218563   3.686   1.783   1.188
 6200TIP3    H118564   3.762   1.828   1.149
 6200TIP3    H218565   3.614   1.801   1.128
 6201TIP3   OH218566   0.919   1.873   3.161
 6201TIP3    H118567   0.900   1.924   3.082
 6201TIP3    H218568   0.834   1.839   3.189
 6202TIP3   OH218569   5.852   6.754   2.659
 6202TIP3    H118570   5.857   6.833   2.712
 6202TIP3    H218571   5.881   6.683   2.716
 6203TIP3   OH218572   1.920   2.795   5.658
 6203TIP3    H118573   1.865   2.863   5.696
 6203TIP3    H218574   1.898   2.796   5.564
 6204TIP3   OH218575   4.949   5.211   2.730
 6204TIP3    H118576   4.934   5.139   2.669
 6204TIP3    H218577   5.038   5.241   2.711
 6205TIP3   OH218578   6.433   4.110   1.972
 6205TIP3    H118579   6.454   4.203   1.981
 6205TIP3    H218580   6.489   4.066   2.037
 6206TIP3   OH218581  -0.021   3.100   4.345
 6206TIP3    H118582  -0.020   3.049   4.264
 6206TIP3    H218583   0.053   3.067   4.395
 6207TIP3   OH218584   0.467   5.053   5.599
 6207TIP3    H118585   0.390   5.019   5.644
 6207TIP3    H218586   0.509   4.976   5.561
 6208TIP3   OH218587   0.376   3.509   3.638
 6208TIP3    H118588   0.312   3.577   3.656
 6208TIP3    H218589   0.458   3.541   3.676
 6209TIP3   OH218590   0.193   5.409   3.991
 6209TIP3    H118591   0.210   5.316   4.011
 6209TIP3    H218592   0.154   5.443   4.072
 6210TIP3   OH218593   1.245   3.629   1.382
 6210TIP3    H118594   1.330   3.636   1.339
 6210TIP3    H218595   1.182   3.625   1.310
 6211TIP3   OH218596   5.003   1.828   4.716
 6211TIP3    H118597   5.030   1.876   4.794
 6211TIP3    H218598   4.909   1.844   4.708
 6212TIP3   OH218599   2.172   1.968   1.034
 6212TIP3    H118600   2.262   1.936   1.042
 6212TIP3    H218601   2.169   2.011   0.949
 6213TIP3   OH218602   2.980   2.991   0.250
 6213TIP3    H118603   2.968   2.897   0.236
 6213TIP3    H218604   2.986   3.028   0.162
 6214TIP3   OH218605   1.243   4.432   3.371
 6214TIP3    H118606   1.171   4.434   3.435
 6214TIP3    H218607   1.302   4.365   3.405
 6215TIP3   OH218608   4.107   5.692   5.786
 6215TIP3    H118609   4.175   5.740   5.834
 6215TIP3    H218610   4.127   5.706   5.694
 6216TIP3   OH218611   7.153   6.623   2.461
 6216TIP3    H118612   7.212   6.553   2.432
 6216TIP3    H218613   7.180   6.643   2.550
 6217TIP3   OH218614   5.039   3.611   5.011
 6217TIP3    H118615   5.032   3.541   5.076
 6217TIP3    H218616   5.111   3.583   4.954
 6218TIP3   OH218617   3.924   0.386   3.611
 6218TIP3    H118618   3.872   0.440   3.551
 6218TIP3    H218619   4.009   0.430   3.616
 6219TIP3   OH218620   5.988   5.993   4.474
 6219TIP3    H118621   6.021   6.071   4.429
 6219TIP3    H218622   5.994   5.923   4.409
 6220TIP3   OH218623   6.853   0.011   5.426
 6220TIP3    H118624   6.804  -0.071   5.418
 6220TIP3    H218625   6.941  -0.016   5.452
 6221TIP3   OH218626   2.534   4.161   1.047
 6221TIP3    H118627   2.549   4.076   1.088
 6221TIP3    H218628   2.447   4.188   1.077
 6222TIP3   OH218629   2.255   3.003   2.805
 6222TIP3    H118630   2.310   2.963   2.872
 6222TIP3    H218631   2.308   3.075   2.770
 6223TIP3   OH218632   5.827   3.796   4.116
 6223TIP3    H118633   5.815   3.778   4.023
 6223TIP3    H218634   5.738   3.796   4.152
 6224TIP3   OH218635   2.791   3.822   1.784
 6224TIP3    H118636   2.794   3.910   1.745
 6224TIP3    H218637   2.856   3.824   1.854
 6225TIP3   OH218638   4.530   6.219   1.099
 6225TIP3    H118639   4.587   6.290   1.073
 6225TIP3    H218640   4.560   6.194   1.187
 6226TIP3   OH218641   3.474   5.231   4.907
 6226TIP3    H118642   3.411   5.290   4.866
 6226TIP3    H218643   3.519   5.285   4.972
 6227TIP3   OH218644   0.081   2.051   2.562
 6227TIP3    H118645   0.101   2.133   2.517
 6227TIP3    H218646   0.004   2.017   2.517
 6228TIP3   OH218647   3.357   0.909   5.566
 6228TIP3    H118648   3.377   0.847   5.636
 6228TIP3    H218649   3.421   0.979   5.576
 6229TIP3   OH218650   7.137   4.754   3.492
 6229TIP3    H118651   7.183   4.743   3.574
 6229TIP3    H218652   7.059   4.806   3.514
 6230TIP3   OH218653   2.285   4.902   0.561
 6230TIP3    H118654   2.203   4.952   0.561
 6230TIP3    H218655   2.354   4.969   0.561
 6231TIP3   OH218656   3.352   4.946   5.267
 6231TIP3    H118657   3.401   4.863   5.269
 6231TIP3    H218658   3.268   4.925   5.309
 6232TIP3   OH218659   1.832   2.049   0.401
 6232TIP3    H118660   1.775   1.972   0.400
 6232TIP3    H218661   1.776   2.120   0.434
 6233TIP3   OH218662   1.761   4.099   4.079
 6233TIP3    H118663   1.672   4.083   4.047
 6233TIP3    H218664   1.780   4.025   4.137
 6234TIP3   OH218665   2.534   4.367   0.313
 6234TIP3    H118666   2.504   4.453   0.344
 6234TIP3    H218667   2.454   4.316   0.303
 6235TIP3   OH218668   6.601   6.809   4.276
 6235TIP3    H118669   6.590   6.753   4.199
 6235TIP3    H218670   6.655   6.756   4.336
 6236TIP3   OH218671   4.858   4.079   1.691
 6236TIP3    H118672   4.853   4.160   1.743
 6236TIP3    H218673   4.824   4.011   1.749
 6237TIP3   OH218674   6.723   5.935   0.066
 6237TIP3    H118675   6.819   5.937   0.069
 6237TIP3    H218676   6.703   5.912  -0.025
 6238TIP3   OH218677   2.178   6.740   0.499
 6238TIP3    H118678   2.212   6.726   0.587
 6238TIP3    H218679   2.086   6.716   0.504
 6239TIP3   OH218680   0.612   5.694   3.140
 6239TIP3    H118681   0.546   5.673   3.075
 6239TIP3    H218682   0.694   5.701   3.091
 6240TIP3   OH218683   0.576   1.573   2.215
 6240TIP3    H118684   0.533   1.519   2.148
 6240TIP3    H218685   0.517   1.647   2.228
 6241TIP3   OH218686   3.492   4.807   1.545
 6241TIP3    H118687   3.498   4.792   1.451
 6241TIP3    H218688   3.551   4.881   1.562
 6242TIP3   OH218689   5.360   4.759   3.685
 6242TIP3    H118690   5.291   4.745   3.620
 6242TIP3    H218691   5.332   4.707   3.760
 6243TIP3   OH218692   1.022   3.215   1.576
 6243TIP3    H118693   1.096   3.155   1.577
 6243TIP3    H218694   1.030   3.265   1.657
 6244TIP3   OH218695   6.570   2.625   5.166
 6244TIP3    H118696   6.503   2.591   5.225
 6244TIP3    H218697   6.567   2.720   5.177
 6245TIP3   OH218698   4.912   6.023   4.306
 6245TIP3    H118699   4.973   6.092   4.331
 6245TIP3    H218700   4.947   5.987   4.225
 6246TIP3   OH218701   5.914   6.744   2.005
 6246TIP3    H118702   5.983   6.730   2.070
 6246TIP3    H218703   5.954   6.801   1.940
 6247TIP3   OH218704   1.117   0.806   5.449
 6247TIP3    H118705   1.207   0.839   5.460
 6247TIP3    H218706   1.105   0.802   5.355
 6248TIP3   OH218707   2.999   1.038   4.521
 6248TIP3    H118708   2.966   0.981   4.450
 6248TIP3    H218709   2.923   1.053   4.577
 6249TIP3   OH218710   3.578   4.803   3.048
 6249TIP3    H118711   3.500   4.796   3.102
 6249TIP3    H218712   3.546   4.833   2.963
 6250TIP3   OH218713   0.497   1.922   1.872
 6250TIP3    H118714   0.491   2.014   1.897
 6250TIP3    H218715   0.591   1.902   1.875
 6251TIP3   OH218716   5.984   6.229   2.241
 6251TIP3    H118717   5.932   6.153   2.215
 6251TIP3    H218718   5.930   6.304   2.215
 6252TIP3   OH218719   0.642   5.046   2.338
 6252TIP3    H118720   0.648   5.141   2.336
 6252TIP3    H218721   0.715   5.016   2.284
 6253TIP3   OH218722   3.041   6.290   1.914
 6253TIP3    H118723   2.972   6.224   1.919
 6253TIP3    H218724   2.994   6.373   1.910
 6254TIP3   OH218725   0.370   2.690   4.145
 6254TIP3    H118726   0.361   2.680   4.239
 6254TIP3    H218727   0.329   2.611   4.109
 6255TIP3   OH218728   1.905   6.396   5.167
 6255TIP3    H118729   1.942   6.335   5.102
 6255TIP3    H218730   1.945   6.480   5.146
 6256TIP3   OH218731   1.418   5.132   5.313
 6256TIP3    H118732   1.338   5.161   5.357
 6256TIP3    H218733   1.455   5.212   5.275
 6257TIP3   OH218734   3.341   0.642   0.755
 6257TIP3    H118735   3.249   0.655   0.778
 6257TIP3    H218736   3.345   0.552   0.723
 6258TIP3   OH218737   4.682   4.794   0.066
 6258TIP3    H118738   4.624   4.761   0.134
 6258TIP3    H218739   4.693   4.887   0.086
 6259TIP3   OH218740   3.297   0.705   1.368
 6259TIP3    H118741   3.282   0.651   1.446
 6259TIP3    H218742   3.210   0.738   1.344
 6260TIP3   OH218743   1.678   5.229   4.441
 6260TIP3    H118744   1.737   5.205   4.513
 6260TIP3    H218745   1.594   5.188   4.465
 6261TIP3   OH218746   7.031   6.670   1.735
 6261TIP3    H118747   7.073   6.628   1.660
 6261TIP3    H218748   7.019   6.761   1.707
 6262TIP3   OH218749   3.545   4.182   3.446
 6262TIP3    H118750   3.492   4.261   3.441
 6262TIP3    H218751   3.508   4.133   3.519
 6263TIP3   OH218752   2.809   5.220   1.887
 6263TIP3    H118753   2.756   5.145   1.913
 6263TIP3    H218754   2.866   5.186   1.818
 6264TIP3   OH218755   5.758   6.242   2.785
 6264TIP3    H118756   5.705   6.164   2.770
 6264TIP3    H218757   5.848   6.214   2.768
 6265TIP3   OH218758   2.874   5.887   4.348
 6265TIP3    H118759   2.866   5.882   4.444
 6265TIP3    H218760   2.968   5.898   4.333
 6266TIP3   OH218761   3.338   0.691   5.291
 6266TIP3    H118762   3.279   0.712   5.363
 6266TIP3    H218763   3.349   0.773   5.243
 6267TIP3   OH218764   4.978   5.731   5.575
 6267TIP3    H118765   4.912   5.743   5.643
 6267TIP3    H218766   5.021   5.648   5.598
 6268TIP3   OH218767   5.606   6.569   0.162
 6268TIP3    H118768   5.665   6.505   0.122
 6268TIP3    H218769   5.600   6.640   0.098
 6269TIP3   OH218770   3.361   4.630   1.736
 6269TIP3    H118771   3.320   4.605   1.819
 6269TIP3    H218772   3.428   4.563   1.721
 6270TIP3   OH218773   1.978   5.775   3.651
 6270TIP3    H118774   2.012   5.857   3.687
 6270TIP3    H218775   1.899   5.757   3.702
 6271TIP3   OH218776   3.259   0.283   0.519
 6271TIP3    H118777   3.289   0.315   0.434
 6271TIP3    H218778   3.311   0.332   0.582
 6272TIP3   OH218779   2.537   1.027   5.729
 6272TIP3    H118780   2.491   1.052   5.810
 6272TIP3    H218781   2.550   1.111   5.684
 6273TIP3   OH218782   4.988   1.982   1.046
 6273TIP3    H118783   4.992   2.062   0.994
 6273TIP3    H218784   4.936   1.921   0.993
 6274TIP3   OH218785   1.301   0.685   2.841
 6274TIP3    H118786   1.354   0.605   2.845
 6274TIP3    H218787   1.349   0.748   2.895
 6275TIP3   OH218788   6.607   3.789   4.366
 6275TIP3    H118789   6.583   3.827   4.451
 6275TIP3    H218790   6.583   3.696   4.374
 6276TIP3   OH218791   6.137   2.397   0.217
 6276TIP3    H118792   6.197   2.392   0.142
 6276TIP3    H218793   6.180   2.346   0.285
 6277TIP3   OH218794   2.533   3.430   0.618
 6277TIP3    H118795   2.540   3.523   0.598
 6277TIP3    H218796   2.601   3.389   0.565
 6278TIP3   OH218797   3.170   0.565   5.714
 6278TIP3    H118798   3.251   0.531   5.676
 6278TIP3    H218799   3.112   0.489   5.717
 6279TIP3   OH218800   0.758   5.191   2.747
 6279TIP3    H118801   0.823   5.209   2.679
 6279TIP3    H218802   0.680   5.238   2.719
 6280TIP3   OH218803   4.166   4.818   3.782
 6280TIP3    H118804   4.144   4.777   3.866
 6280TIP3    H218805   4.253   4.855   3.795
 6281TIP3   OH218806   5.475   0.271   2.632
 6281TIP3    H118807   5.427   0.260   2.550
 6281TIP3    H218808   5.487   0.182   2.665
 6282TIP3   OH218809   0.076   6.075   0.279
 6282TIP3    H118810   0.014   6.028   0.336
 6282TIP3    H218811   0.022   6.134   0.227
 6283TIP3   OH218812   2.283   3.003   1.704
 6283TIP3    H118813   2.258   2.993   1.796
 6283TIP3    H218814   2.242   2.928   1.659
 6284TIP3   OH218815   4.679   6.430   5.169
 6284TIP3    H118816   4.598   6.440   5.218
 6284TIP3    H218817   4.714   6.345   5.196
 6285TIP3   OH218818   5.585   0.414   5.638
 6285TIP3    H118819   5.522   0.413   5.710
 6285TIP3    H218820   5.613   0.323   5.629
 6286TIP3   OH218821   2.880   5.090   3.097
 6286TIP3    H118822   2.946   5.102   3.166
 6286TIP3    H218823   2.872   5.176   3.056
 6287TIP3   OH218824   2.839   3.793   3.649
 6287TIP3    H118825   2.797   3.720   3.694
 6287TIP3    H218826   2.810   3.785   3.558
 6288TIP3   OH218827   5.499   4.903   0.987
 6288TIP3    H118828   5.499   4.807   0.991
 6288TIP3    H218829   5.455   4.923   0.904
 6289TIP3   OH218830   3.712   4.058   1.291
 6289TIP3    H118831   3.784   4.113   1.259
 6289TIP3    H218832   3.740   3.968   1.271
 6290TIP3   OH218833   0.545   0.104   0.054
 6290TIP3    H118834   0.462   0.121   0.097
 6290TIP3    H218835   0.554   0.008   0.055
 6291TIP3   OH218836   5.840   4.349   4.184
 6291TIP3    H118837   5.837   4.255   4.201
 6291TIP3    H218838   5.919   4.362   4.132
 6292TIP3   OH218839   6.164   4.740   2.545
 6292TIP3    H118840   6.128   4.750   2.633
 6292TIP3    H218841   6.207   4.655   2.546
 6293TIP3   OH218842   2.817   5.280   4.377
 6293TIP3    H118843   2.814   5.373   4.354
 6293TIP3    H218844   2.910   5.263   4.394
 6294TIP3   OH218845   2.555   5.150   5.365
 6294TIP3    H118846   2.514   5.236   5.376
 6294TIP3    H218847   2.569   5.142   5.270
 6295TIP3   OH218848   6.810   2.870   5.202
 6295TIP3    H118849   6.765   2.835   5.125
 6295TIP3    H218850   6.784   2.962   5.205
 6296TIP3   OH218851   6.634   0.335   4.753
 6296TIP3    H118852   6.716   0.303   4.791
 6296TIP3    H218853   6.574   0.342   4.827
 6297TIP3   OH218854   5.591   5.655   2.269
 6297TIP3    H118855   5.529   5.720   2.235
 6297TIP3    H218856   5.671   5.705   2.285
 6298TIP3   OH218857   0.222   4.307   2.966
 6298TIP3    H118858   0.225   4.401   2.984
 6298TIP3    H218859   0.307   4.288   2.925
 6299TIP3   OH218860   2.590   4.686   5.289
 6299TIP3    H118861   2.585   4.594   5.261
 6299TIP3    H218862   2.538   4.733   5.224
 6300TIP3   OH218863   6.458   6.584   1.261
 6300TIP3    H118864   6.434   6.523   1.331
 6300TIP3    H218865   6.522   6.537   1.208
 6301TIP3   OH218866   6.408   0.125   2.657
 6301TIP3    H118867   6.329   0.096   2.703
 6301TIP3    H218868   6.470   0.148   2.726
 6302TIP3   OH218869   2.282   2.322   0.437
 6302TIP3    H118870   2.221   2.394   0.419
 6302TIP3    H218871   2.345   2.358   0.499
 6303TIP3   OH218872   1.457   0.169   1.470
 6303TIP3    H118873   1.490   0.259   1.470
 6303TIP3    H218874   1.381   0.171   1.529
 6304TIP3   OH218875   2.278   1.972   2.982
 6304TIP3    H118876   2.261   2.040   3.047
 6304TIP3    H218877   2.294   2.020   2.901
 6305TIP3   OH218878   3.697   5.231   1.553
 6305TIP3    H118879   3.700   5.243   1.458
 6305TIP3    H218880   3.663   5.313   1.587
 6306TIP3   OH218881   4.913   2.886   2.018
 6306TIP3    H118882   4.831   2.915   2.057
 6306TIP3    H218883   4.955   2.967   1.989
 6307TIP3   OH218884   4.317   6.113   1.382
 6307TIP3    H118885   4.273   6.029   1.392
 6307TIP3    H218886   4.247   6.174   1.360
 6308TIP3   OH218887   3.302   0.507   3.263
 6308TIP3    H118888   3.215   0.523   3.227
 6308TIP3    H218889   3.331   0.592   3.296
 6309TIP3   OH218890   1.032   5.060   5.349
 6309TIP3    H118891   1.099   5.126   5.363
 6309TIP3    H218892   0.950   5.103   5.374
 6310TIP3   OH218893   5.159   0.022   3.355
 6310TIP3    H118894   5.217  -0.038   3.401
 6310TIP3    H218895   5.204   0.107   3.360
 6311TIP3   OH218896   4.393   5.020   4.944
 6311TIP3    H118897   4.409   4.983   5.031
 6311TIP3    H218898   4.434   5.106   4.947
 6312TIP3   OH218899   1.214   5.334   0.188
 6312TIP3    H118900   1.127   5.371   0.200
 6312TIP3    H218901   1.268   5.379   0.253
 6313TIP3   OH218902   4.555   2.195   5.495
 6313TIP3    H118903   4.472   2.242   5.481
 6313TIP3    H218904   4.612   2.227   5.425
 6314TIP3   OH218905   1.648   3.380   4.568
 6314TIP3    H118906   1.740   3.409   4.566
 6314TIP3    H218907   1.599   3.458   4.541
 6315TIP3   OH218908   1.486   5.829   2.895
 6315TIP3    H118909   1.430   5.796   2.825
 6315TIP3    H218910   1.507   5.751   2.947
 6316TIP3   OH218911   1.945   2.357   1.327
 6316TIP3    H118912   1.989   2.323   1.249
 6316TIP3    H218913   1.908   2.440   1.299
 6317TIP3   OH218914   3.585   1.462   2.826
 6317TIP3    H118915   3.521   1.444   2.758
 6317TIP3    H218916   3.650   1.519   2.785
 6318TIP3   OH218917   0.857   2.538   4.565
 6318TIP3    H118918   0.801   2.565   4.638
 6318TIP3    H218919   0.816   2.458   4.532
 6319TIP3   OH218920   2.614   4.679   1.237
 6319TIP3    H118921   2.561   4.741   1.186
 6319TIP3    H218922   2.553   4.642   1.300
 6320TIP3   OH218923   6.449   0.295   4.336
 6320TIP3    H118924   6.408   0.221   4.292
 6320TIP3    H218925   6.507   0.255   4.401
 6321TIP3   OH218926   3.418   3.959   3.934
 6321TIP3    H118927   3.482   3.895   3.965
 6321TIP3    H218928   3.381   3.997   4.014
 6322TIP3   OH218929   4.708   1.935   4.706
 6322TIP3    H118930   4.672   1.865   4.652
 6322TIP3    H218931   4.700   1.902   4.796
 6323TIP3   OH218932   6.559   0.890   3.265
 6323TIP3    H118933   6.607   0.903   3.183
 6323TIP3    H218934   6.615   0.830   3.316
 6324TIP3   OH218935   2.306   6.665   1.640
 6324TIP3    H118936   2.254   6.627   1.710
 6324TIP3    H218937   2.280   6.617   1.562
 6325TIP3   OH218938   1.662   1.339   1.159
 6325TIP3    H118939   1.683   1.430   1.138
 6325TIP3    H218940   1.743   1.303   1.193
 6326TIP3   OH218941   1.614   2.844   1.777
 6326TIP3    H118942   1.541   2.878   1.725
 6326TIP3    H218943   1.692   2.868   1.727
 6327TIP3   OH218944   6.510   4.540   5.302
 6327TIP3    H118945   6.483   4.454   5.333
 6327TIP3    H218946   6.536   4.588   5.381
 6328TIP3   OH218947   5.151   3.987   2.974
 6328TIP3    H118948   5.112   3.900   2.986
 6328TIP3    H218949   5.232   3.970   2.926
 6329TIP3   OH218950   1.778   4.152   2.761
 6329TIP3    H118951   1.874   4.149   2.755
 6329TIP3    H218952   1.751   4.206   2.687
 6330TIP3   OH218953   1.653   1.676   4.756
 6330TIP3    H118954   1.697   1.605   4.803
 6330TIP3    H218955   1.588   1.709   4.818
 6331TIP3   OH218956   0.375   0.802   0.474
 6331TIP3    H118957   0.297   0.857   0.471
 6331TIP3    H218958   0.346   0.722   0.518
 6332TIP3   OH218959   6.152   0.748   2.314
 6332TIP3    H118960   6.067   0.774   2.350
 6332TIP3    H218961   6.215   0.775   2.381
 6333TIP3   OH218962   5.106   5.620   1.601
 6333TIP3    H118963   5.138   5.604   1.512
 6333TIP3    H218964   5.123   5.713   1.616
 6334TIP3   OH218965   4.302   2.349   3.147
 6334TIP3    H118966   4.278   2.299   3.069
 6334TIP3    H218967   4.344   2.428   3.112
 6335TIP3   OH218968   2.990   4.618   1.814
 6335TIP3    H118969   3.065   4.604   1.871
 6335TIP3    H218970   2.942   4.536   1.817
 6336TIP3   OH218971   5.559   1.165   0.516
 6336TIP3    H118972   5.559   1.139   0.424
 6336TIP3    H218973   5.593   1.254   0.516
 6337TIP3   OH218974   5.733   6.735   4.773
 6337TIP3    H118975   5.683   6.786   4.709
 6337TIP3    H218976   5.762   6.658   4.725
 6338TIP3   OH218977   2.748   1.575   2.701
 6338TIP3    H118978   2.833   1.548   2.734
 6338TIP3    H218979   2.736   1.663   2.735
 6339TIP3   OH218980   6.566   1.293   4.613
 6339TIP3    H118981   6.512   1.352   4.665
 6339TIP3    H218982   6.655   1.327   4.622
 6340TIP3   OH218983   6.761   0.988   5.480
 6340TIP3    H118984   6.806   1.066   5.447
 6340TIP3    H218985   6.769   0.924   5.409
 6341TIP3   OH218986   2.892   3.637   0.685
 6341TIP3    H118987   2.946   3.621   0.763
 6341TIP3    H218988   2.848   3.720   0.703
 6342TIP3   OH218989   1.453   1.563   5.309
 6342TIP3    H118990   1.547   1.578   5.307
 6342TIP3    H218991   1.429   1.547   5.218
 6343TIP3   OH218992   7.148   2.598   2.752
 6343TIP3    H118993   7.217   2.544   2.712
 6343TIP3    H218994   7.090   2.535   2.794
 6344TIP3   OH218995   5.453   2.366   3.449
 6344TIP3    H118996   5.395   2.442   3.455
 6344TIP3    H218997   5.488   2.356   3.538
 6345TIP3   OH218998   5.240   3.332   3.347
 6345TIP3    H118999   5.330   3.302   3.335
 6345TIP3    H219000   5.244   3.393   3.421
 6346TIP3   OH219001   3.999   3.223   3.864
 6346TIP3    H119002   3.940   3.182   3.927
 6346TIP3    H219003   4.037   3.298   3.911
 6347TIP3   OH219004   5.330   4.501   4.320
 6347TIP3    H119005   5.341   4.410   4.292
 6347TIP3    H219006   5.323   4.551   4.238
 6348TIP3   OH219007   1.054   3.693   4.976
 6348TIP3    H119008   0.984   3.632   5.001
 6348TIP3    H219009   1.009   3.777   4.967
 6349TIP3   OH219010   4.195   0.665   1.120
 6349TIP3    H119011   4.163   0.616   1.044
 6349TIP3    H219012   4.135   0.641   1.191
 6350TIP3   OH219013   6.639   1.014   3.656
 6350TIP3    H119014   6.713   0.980   3.706
 6350TIP3    H219015   6.572   0.945   3.664
 6351TIP3   OH219016   4.420   1.332   2.151
 6351TIP3    H119017   4.459   1.293   2.229
 6351TIP3    H219018   4.368   1.262   2.112
 6352TIP3   OH219019   6.530   3.723   5.576
 6352TIP3    H119020   6.447   3.749   5.534
 6352TIP3    H219021   6.516   3.740   5.669
 6353TIP3   OH219022   2.281   4.060   4.703
 6353TIP3    H119023   2.304   4.033   4.792
 6353TIP3    H219024   2.309   3.988   4.648
 6354TIP3   OH219025   5.658   3.434   1.412
 6354TIP3    H119026   5.742   3.458   1.372
 6354TIP3    H219027   5.593   3.455   1.344
 6355TIP3   OH219028   1.262   4.773   0.141
 6355TIP3    H119029   1.353   4.752   0.122
 6355TIP3    H219030   1.261   4.867   0.156
 6356TIP3   OH219031   5.605   0.942   4.166
 6356TIP3    H119032   5.647   0.859   4.144
 6356TIP3    H219033   5.525   0.943   4.114
 6357TIP3   OH219034   3.619   6.663   4.182
 6357TIP3    H119035   3.583   6.704   4.104
 6357TIP3    H219036   3.700   6.622   4.152
 6358TIP3   OH219037   2.624   4.521   2.721
 6358TIP3    H119038   2.689   4.499   2.787
 6358TIP3    H219039   2.596   4.437   2.685
 6359TIP3   OH219040   5.261   0.813   1.551
 6359TIP3    H119041   5.202   0.871   1.599
 6359TIP3    H219042   5.237   0.825   1.459
 6360TIP3   OH219043   7.097   3.629   1.981
 6360TIP3    H119044   7.107   3.688   2.056
 6360TIP3    H219045   7.186   3.618   1.947
 6361TIP3   OH219046   3.773   4.762   3.921
 6361TIP3    H119047   3.784   4.768   3.827
 6361TIP3    H219048   3.718   4.838   3.944
 6362TIP3   OH219049   0.047   4.829   0.432
 6362TIP3    H119050   0.066   4.759   0.495
 6362TIP3    H219051  -0.037   4.803   0.392
 6363TIP3   OH219052   2.745   6.360   2.836
 6363TIP3    H119053   2.726   6.453   2.824
 6363TIP3    H219054   2.680   6.315   2.782
 6364TIP3   OH219055   0.965   2.946   0.397
 6364TIP3    H119056   0.971   3.029   0.350
 6364TIP3    H219057   0.946   2.881   0.330
 6365TIP3   OH219058   0.449   3.084   1.972
 6365TIP3    H119059   0.512   3.081   1.899
 6365TIP3    H219060   0.417   2.994   1.979
 6366TIP3   OH219061   6.305   6.112   1.285
 6366TIP3    H119062   6.322   6.181   1.220
 6366TIP3    H219063   6.291   6.159   1.367
 6367TIP3   OH219064   1.361   0.147   0.320
 6367TIP3    H119065   1.379   0.163   0.413
 6367TIP3    H219066   1.282   0.197   0.302
 6368TIP3   OH219067   2.016   4.752   0.787
 6368TIP3    H119068   1.926   4.742   0.754
 6368TIP3    H219069   2.066   4.684   0.742
 6369TIP3   OH219070   6.060   4.097   4.979
 6369TIP3    H119071   6.003   4.171   4.957
 6369TIP3    H219072   6.040   4.031   4.912
 6370TIP3   OH219073   6.808   5.872   4.026
 6370TIP3    H119074   6.741   5.938   4.008
 6370TIP3    H219075   6.857   5.865   3.944
 6371TIP3   OH219076   3.216   4.980   1.462
 6371TIP3    H119077   3.173   5.060   1.491
 6371TIP3    H219078   3.257   5.004   1.379
 6372TIP3   OH219079   2.975   1.714   5.425
 6372TIP3    H119080   3.054   1.720   5.478
 6372TIP3    H219081   2.979   1.626   5.385
 6373TIP3   OH219082   4.364   6.291   2.624
 6373TIP3    H119083   4.280   6.337   2.617
 6373TIP3    H219084   4.386   6.269   2.533
 6374TIP3   OH219085   1.159   0.438   2.805
 6374TIP3    H119086   1.105   0.435   2.726
 6374TIP3    H219087   1.190   0.528   2.811
 6375TIP3   OH219088   4.495   5.273   0.331
 6375TIP3    H119089   4.409   5.314   0.322
 6375TIP3    H219090   4.529   5.268   0.242
 6376TIP3   OH219091   5.416   1.685   3.322
 6376TIP3    H119092   5.389   1.608   3.372
 6376TIP3    H219093   5.507   1.667   3.298
 6377TIP3   OH219094   4.354   4.013   0.836
 6377TIP3    H119095   4.436   4.033   0.791
 6377TIP3    H219096   4.380   3.997   0.927
 6378TIP3   OH219097   6.217   3.605   3.119
 6378TIP3    H119098   6.169   3.654   3.186
 6378TIP3    H219099   6.305   3.642   3.121
 6379TIP3   OH219100   2.567   0.390   5.741
 6379TIP3    H119101   2.518   0.428   5.813
 6379TIP3    H219102   2.500   0.355   5.682
 6380TIP3   OH219103   6.701   0.919   4.046
 6380TIP3    H119104   6.712   0.839   4.096
 6380TIP3    H219105   6.630   0.900   3.984
 6381TIP3   OH219106   5.347   2.425   4.575
 6381TIP3    H119107   5.299   2.474   4.508
 6381TIP3    H219108   5.304   2.339   4.577
 6382TIP3   OH219109   4.562   1.553   1.708
 6382TIP3    H119110   4.499   1.594   1.768
 6382TIP3    H219111   4.602   1.482   1.758
 6383TIP3   OH219112   6.883   3.143   1.821
 6383TIP3    H119113   6.948   3.171   1.757
 6383TIP3    H219114   6.865   3.221   1.874
 6384TIP3   OH219115   3.875   5.763   5.883
 6384TIP3    H119116   3.942   5.715   5.834
 6384TIP3    H219117   3.923   5.803   5.956
 6385TIP3   OH219118   4.419   0.524   4.457
 6385TIP3    H119119   4.336   0.555   4.493
 6385TIP3    H219120   4.416   0.429   4.471
 6386TIP3   OH219121   1.291   1.562   2.169
 6386TIP3    H119122   1.261   1.647   2.204
 6386TIP3    H219123   1.305   1.578   2.076
 6387TIP3   OH219124  -0.029   2.355   5.143
 6387TIP3    H119125  -0.085   2.383   5.071
 6387TIP3    H219126   0.060   2.376   5.114
 6388TIP3   OH219127   1.198   2.539   1.026
 6388TIP3    H119128   1.232   2.515   0.940
 6388TIP3    H219129   1.268   2.517   1.087
 6389TIP3   OH219130   5.062   3.309   3.935
 6389TIP3    H119131   5.057   3.362   3.855
 6389TIP3    H219132   5.053   3.373   4.006
 6390TIP3   OH219133   5.418   0.054   0.773
 6390TIP3    H119134   5.419  -0.038   0.749
 6390TIP3    H219135   5.398   0.054   0.867
 6391TIP3   OH219136   2.855   2.595   3.415
 6391TIP3    H119137   2.825   2.681   3.447
 6391TIP3    H219138   2.789   2.534   3.447
 6392TIP3   OH219139   2.896   0.522   5.848
 6392TIP3    H119140   2.925   0.604   5.886
 6392TIP3    H219141   2.937   0.454   5.901
 6393TIP3   OH219142   5.978   5.157   4.672
 6393TIP3    H119143   6.038   5.230   4.681
 6393TIP3    H219144   5.982   5.111   4.756
 6394TIP3   OH219145   0.276   3.258   0.486
 6394TIP3    H119146   0.337   3.256   0.412
 6394TIP3    H219147   0.201   3.307   0.453
 6395TIP3   OH219148   1.327   2.336   3.882
 6395TIP3    H119149   1.293   2.425   3.870
 6395TIP3    H219150   1.398   2.347   3.945
 6396TIP3   OH219151   6.218   0.362   1.762
 6396TIP3    H119152   6.294   0.406   1.724
 6396TIP3    H219153   6.250   0.275   1.785
 6397TIP3   OH219154   4.330   5.949   4.582
 6397TIP3    H119155   4.363   6.037   4.564
 6397TIP3    H219156   4.391   5.912   4.645
 6398TIP3   OH219157   0.320   2.074   2.227
 6398TIP3    H119158   0.229   2.104   2.223
 6398TIP3    H219159   0.358   2.120   2.302
 6399TIP3   OH219160   5.572   0.389   2.284
 6399TIP3    H119161   5.617   0.350   2.359
 6399TIP3    H219162   5.600   0.336   2.209
 6400TIP3   OH219163   4.129   3.215   1.018
 6400TIP3    H119164   4.049   3.199   1.067
 6400TIP3    H219165   4.115   3.173   0.933
 6401TIP3   OH219166   0.674   3.830   3.581
 6401TIP3    H119167   0.686   3.768   3.509
 6401TIP3    H219168   0.585   3.863   3.569
 6402TIP3   OH219169   4.433   2.413   0.519
 6402TIP3    H119170   4.411   2.500   0.486
 6402TIP3    H219171   4.377   2.402   0.596
 6403TIP3   OH219172   6.926   2.810   5.813
 6403TIP3    H119173   6.937   2.836   5.904
 6403TIP3    H219174   6.861   2.872   5.778
 6404TIP3   OH219175   6.497   1.562   2.614
 6404TIP3    H119176   6.497   1.648   2.658
 6404TIP3    H219177   6.581   1.559   2.568
 6405TIP3   OH219178   6.474   1.369   2.886
 6405TIP3    H119179   6.413   1.313   2.838
 6405TIP3    H219180   6.552   1.372   2.831
 6406TIP3   OH219181   5.899   4.991   5.178
 6406TIP3    H119182   5.917   4.980   5.085
 6406TIP3    H219183   5.930   5.079   5.198
 6407TIP3   OH219184   5.335   5.460   2.332
 6407TIP3    H119185   5.419   5.442   2.291
 6407TIP3    H219186   5.276   5.393   2.297
 6408TIP3   OH219187   2.578   1.399   2.881
 6408TIP3    H119188   2.663   1.385   2.923
 6408TIP3    H219189   2.600   1.443   2.798
 6409TIP3   OH219190   3.101   1.172   4.740
 6409TIP3    H119191   3.078   1.113   4.668
 6409TIP3    H219192   3.192   1.196   4.723
 6410TIP3   OH219193   3.049   1.894   5.644
 6410TIP3    H119194   3.137   1.857   5.635
 6410TIP3    H219195   3.033   1.894   5.739
 6411TIP3   OH219196   0.439   6.676   2.085
 6411TIP3    H119197   0.366   6.727   2.122
 6411TIP3    H219198   0.468   6.620   2.157
 6412TIP3   OH219199   2.402   6.087   2.487
 6412TIP3    H119200   2.350   6.050   2.559
 6412TIP3    H219201   2.409   6.180   2.508
 6413TIP3   OH219202   6.599   5.473   3.378
 6413TIP3    H119203   6.528   5.503   3.321
 6413TIP3    H219204   6.670   5.451   3.317
 6414TIP3   OH219205   4.972   1.797   0.736
 6414TIP3    H119206   5.013   1.723   0.781
 6414TIP3    H219207   4.879   1.792   0.761
 6415TIP3   OH219208   1.609   4.869   2.415
 6415TIP3    H119209   1.529   4.909   2.450
 6415TIP3    H219210   1.584   4.780   2.392
 6416TIP3   OH219211   4.405   5.240   2.257
 6416TIP3    H119212   4.353   5.305   2.303
 6416TIP3    H219213   4.461   5.291   2.199
 6417TIP3   OH219214   3.658   6.055   4.663
 6417TIP3    H119215   3.704   6.028   4.583
 6417TIP3    H219216   3.565   6.048   4.640
 6418TIP3   OH219217   2.691   5.772   1.967
 6418TIP3    H119218   2.626   5.752   2.034
 6418TIP3    H219219   2.756   5.702   1.974
 6419TIP3   OH219220   5.152   5.826   2.295
 6419TIP3    H119221   5.244   5.829   2.320
 6419TIP3    H219222   5.109   5.779   2.367
 6420TIP3   OH219223   3.838   1.274   4.902
 6420TIP3    H119224   3.921   1.284   4.949
 6420TIP3    H219225   3.779   1.232   4.964
 6421TIP3   OH219226   1.282   1.950   3.142
 6421TIP3    H119227   1.331   1.973   3.221
 6421TIP3    H219228   1.221   2.023   3.130
 6422TIP3   OH219229   3.787   0.972   3.976
 6422TIP3    H119230   3.720   0.913   4.010
 6422TIP3    H219231   3.751   1.060   3.988
 6423TIP3   OH219232   2.414   1.977   5.063
 6423TIP3    H119233   2.467   1.973   4.983
 6423TIP3    H219234   2.462   2.036   5.120
 6424TIP3   OH219235   0.890   5.317   0.857
 6424TIP3    H119236   0.814   5.261   0.840
 6424TIP3    H219237   0.878   5.347   0.947
 6425TIP3   OH219238   3.246   3.459   0.073
 6425TIP3    H119239   3.317   3.397   0.058
 6425TIP3    H219240   3.182   3.439   0.005
 6426TIP3   OH219241   1.392   0.251   4.926
 6426TIP3    H119242   1.433   0.207   4.852
 6426TIP3    H219243   1.465   0.292   4.973
 6427TIP3   OH219244   5.061   5.665   2.518
 6427TIP3    H119245   5.013   5.736   2.562
 6427TIP3    H219246   5.076   5.600   2.586
 6428TIP3   OH219247   1.383   1.322   4.856
 6428TIP3    H119248   1.320   1.297   4.788
 6428TIP3    H219249   1.399   1.415   4.841
 6429TIP3   OH219250   1.304   4.782   3.096
 6429TIP3    H119251   1.359   4.704   3.097
 6429TIP3    H219252   1.222   4.753   3.056
 6430TIP3   OH219253   5.878   3.789   3.622
 6430TIP3    H119254   5.926   3.856   3.573
 6430TIP3    H219255   5.825   3.744   3.556
 6431TIP3   OH219256   6.404   6.357   5.264
 6431TIP3    H119257   6.422   6.279   5.212
 6431TIP3    H219258   6.377   6.423   5.200
 6432TIP3   OH219259   7.029   0.775   1.013
 6432TIP3    H119260   7.042   0.680   1.007
 6432TIP3    H219261   7.113   0.812   0.988
 6433TIP3   OH219262   1.980   3.918   0.818
 6433TIP3    H119263   1.901   3.865   0.821
 6433TIP3    H219264   2.028   3.894   0.898
 6434TIP3   OH219265   2.446   6.458   3.292
 6434TIP3    H119266   2.437   6.548   3.322
 6434TIP3    H219267   2.369   6.413   3.327
 6435TIP3   OH219268   0.583  -0.027   0.394
 6435TIP3    H119269   0.515  -0.084   0.356
 6435TIP3    H219270   0.538   0.020   0.464
 6436TIP3   OH219271   0.533   0.974   5.000
 6436TIP3    H119272   0.486   0.935   5.074
 6436TIP3    H219273   0.579   1.048   5.038
 6437TIP3   OH219274   4.959   3.388   5.158
 6437TIP3    H119275   4.891   3.372   5.092
 6437TIP3    H219276   4.920   3.359   5.240
 6438TIP3   OH219277   4.655   0.215   4.961
 6438TIP3    H119278   4.706   0.295   4.949
 6438TIP3    H219279   4.605   0.206   4.880
 6439TIP3   OH219280   6.443   3.186   5.875
 6439TIP3    H119281   6.362   3.234   5.858
 6439TIP3    H219282   6.495   3.198   5.795
 6440TIP3   OH219283   0.608   1.029   1.788
 6440TIP3    H119284   0.668   0.985   1.727
 6440TIP3    H219285   0.523   0.991   1.768
 6441TIP3   OH219286   4.875   4.328   2.321
 6441TIP3    H119287   4.962   4.363   2.337
 6441TIP3    H219288   4.825   4.350   2.399
 6442TIP3   OH219289   2.669   2.182   5.466
 6442TIP3    H119290   2.643   2.148   5.381
 6442TIP3    H219291   2.726   2.114   5.502
 6443TIP3   OH219292   4.504   0.601   2.498
 6443TIP3    H119293   4.534   0.676   2.551
 6443TIP3    H219294   4.530   0.623   2.409
 6444TIP3   OH219295   3.423   2.745   4.258
 6444TIP3    H119296   3.370   2.754   4.337
 6444TIP3    H219297   3.446   2.652   4.255
 6445TIP3   OH219298   5.130   2.676   3.271
 6445TIP3    H119299   5.088   2.591   3.257
 6445TIP3    H219300   5.199   2.681   3.206
 6446TIP3   OH219301   5.974   4.716   1.461
 6446TIP3    H119302   5.961   4.809   1.447
 6446TIP3    H219303   6.039   4.691   1.396
 6447TIP3   OH219304   5.946   4.971   3.327
 6447TIP3    H119305   5.902   4.916   3.392
 6447TIP3    H219306   6.016   5.014   3.377
 6448TIP3   OH219307   2.991   0.372   0.871
 6448TIP3    H119308   3.010   0.390   0.964
 6448TIP3    H219309   3.026   0.284   0.857
 6449TIP3   OH219310   5.497   5.572  -0.019
 6449TIP3    H119311   5.495   5.479   0.005
 6449TIP3    H219312   5.536   5.616   0.056
 6450TIP3   OH219313   5.853   4.822   3.577
 6450TIP3    H119314   5.856   4.726   3.580
 6450TIP3    H219315   5.899   4.850   3.656
 6451TIP3   OH219316   4.682   3.594   5.150
 6451TIP3    H119317   4.604   3.548   5.119
 6451TIP3    H219318   4.696   3.664   5.087
 6452TIP3   OH219319   2.255   6.641   5.396
 6452TIP3    H119320   2.206   6.573   5.442
 6452TIP3    H219321   2.202   6.663   5.320
 6453TIP3   OH219322   0.543   6.554   1.357
 6453TIP3    H119323   0.534   6.478   1.415
 6453TIP3    H219324   0.619   6.534   1.303
 6454TIP3   OH219325   0.588   5.026   0.406
 6454TIP3    H119326   0.569   5.100   0.348
 6454TIP3    H219327   0.502   4.994   0.434
 6455TIP3   OH219328   2.735   1.719   0.366
 6455TIP3    H119329   2.701   1.641   0.409
 6455TIP3    H219330   2.657   1.768   0.341
 6456TIP3   OH219331   5.662   4.196   5.413
 6456TIP3    H119332   5.654   4.177   5.506
 6456TIP3    H219333   5.572   4.203   5.382
 6457TIP3   OH219334   4.023   4.712   0.177
 6457TIP3    H119335   3.959   4.753   0.120
 6457TIP3    H219336   4.081   4.664   0.118
 6458TIP3   OH219337   3.935   4.079   0.019
 6458TIP3    H119338   3.962   3.992   0.051
 6458TIP3    H219339   3.884   4.115   0.091
 6459TIP3   OH219340   3.703   2.395   1.223
 6459TIP3    H119341   3.699   2.343   1.303
 6459TIP3    H219342   3.681   2.484   1.251
 6460TIP3   OH219343   3.758   4.888   5.587
 6460TIP3    H119344   3.808   4.874   5.506
 6460TIP3    H219345   3.676   4.928   5.558
 6461TIP3   OH219346   5.902   0.111   2.867
 6461TIP3    H119347   5.978   0.126   2.924
 6461TIP3    H219348   5.933   0.135   2.780
 6462TIP3   OH219349   4.112   4.840   1.486
 6462TIP3    H119350   4.016   4.836   1.487
 6462TIP3    H219351   4.133   4.919   1.535
 6463TIP3   OH219352   3.235   3.555   2.105
 6463TIP3    H119353   3.246   3.472   2.058
 6463TIP3    H219354   3.148   3.585   2.079
 6464TIP3   OH219355   4.739   4.282   1.826
 6464TIP3    H119356   4.757   4.356   1.884
 6464TIP3    H219357   4.692   4.219   1.881
 6465TIP3   OH219358   0.812   6.206   0.513
 6465TIP3    H119359   0.823   6.179   0.422
 6465TIP3    H219360   0.860   6.140   0.564
 6466TIP3   OH219361   3.875   3.854   2.965
 6466TIP3    H119362   3.794   3.861   3.016
 6466TIP3    H219363   3.847   3.868   2.875
 6467TIP3   OH219364   1.239   5.353   5.045
 6467TIP3    H119365   1.226   5.422   5.110
 6467TIP3    H219366   1.151   5.321   5.026
 6468TIP3   OH219367   5.221   0.534   3.371
 6468TIP3    H119368   5.162   0.556   3.299
 6468TIP3    H219369   5.251   0.618   3.405
 6469TIP3   OH219370   3.765   0.493   1.479
 6469TIP3    H119371   3.793   0.412   1.438
 6469TIP3    H219372   3.675   0.506   1.449
 6470TIP3   OH219373   3.059   6.086   0.701
 6470TIP3    H119374   3.044   6.179   0.717
 6470TIP3    H219375   2.992   6.042   0.753
 6471TIP3   OH219376   1.762   6.227   0.032
 6471TIP3    H119377   1.723   6.143   0.058
 6471TIP3    H219378   1.776   6.274   0.115
 6472TIP3   OH219379   5.965   6.339   1.388
 6472TIP3    H119380   6.050   6.305   1.416
 6472TIP3    H219381   5.937   6.396   1.459
 6473TIP3   OH219382   0.829   3.522   2.604
 6473TIP3    H119383   0.827   3.562   2.691
 6473TIP3    H219384   0.739   3.532   2.571
 6474TIP3   OH219385   6.392   1.763   1.200
 6474TIP3    H119386   6.480   1.738   1.231
 6474TIP3    H219387   6.370   1.697   1.135
 6475TIP3   OH219388   6.663   3.575   2.357
 6475TIP3    H119389   6.676   3.480   2.353
 6475TIP3    H219390   6.750   3.610   2.374
 6476TIP3   OH219391   6.099   0.250   2.067
 6476TIP3    H119392   6.122   0.264   2.159
 6476TIP3    H219393   6.067   0.335   2.037
 6477TIP3   OH219394   1.752   3.725   5.005
 6477TIP3    H119395   1.667   3.732   4.961
 6477TIP3    H219396   1.790   3.812   4.997
 6478TIP3   OH219397   2.542   3.370   4.908
 6478TIP3    H119398   2.497   3.356   4.991
 6478TIP3    H219399   2.635   3.357   4.929
 6479TIP3   OH219400   2.776   0.069   2.530
 6479TIP3    H119401   2.867   0.046   2.511
 6479TIP3    H219402   2.762   0.040   2.620
 6480TIP3   OH219403   2.651   2.958   0.507
 6480TIP3    H119404   2.677   3.014   0.434
 6480TIP3    H219405   2.644   2.870   0.470
 6481TIP3   OH219406   2.031   1.696   1.695
 6481TIP3    H119407   2.032   1.760   1.766
 6481TIP3    H219408   2.106   1.719   1.640
 6482TIP3   OH219409   1.404   2.350   5.196
 6482TIP3    H119410   1.417   2.397   5.114
 6482TIP3    H219411   1.319   2.381   5.228
 6483TIP3   OH219412   1.446   3.143   2.909
 6483TIP3    H119413   1.397   3.062   2.913
 6483TIP3    H219414   1.527   3.126   2.958
 6484TIP3   OH219415   6.436   1.837   4.300
 6484TIP3    H119416   6.481   1.772   4.247
 6484TIP3    H219417   6.345   1.832   4.272
 6485TIP3   OH219418   5.229   5.228   3.889
 6485TIP3    H119419   5.276   5.185   3.961
 6485TIP3    H219420   5.187   5.156   3.842
 6486TIP3   OH219421   0.394   1.244   0.931
 6486TIP3    H119422   0.460   1.178   0.911
 6486TIP3    H219423   0.310   1.197   0.924
 6487TIP3   OH219424   5.670   1.172   0.976
 6487TIP3    H119425   5.586   1.132   0.953
 6487TIP3    H219426   5.727   1.154   0.901
 6488TIP3   OH219427   3.175   6.648   1.156
 6488TIP3    H119428   3.126   6.650   1.238
 6488TIP3    H219429   3.172   6.556   1.129
 6489TIP3   OH219430   1.479   1.935   3.356
 6489TIP3    H119431   1.518   2.017   3.325
 6489TIP3    H219432   1.506   1.929   3.448
 6490TIP3   OH219433   3.229   4.849   2.683
 6490TIP3    H119434   3.151   4.810   2.722
 6490TIP3    H219435   3.208   4.853   2.589
 6491TIP3   OH219436   3.147   0.668   4.062
 6491TIP3    H119437   3.129   0.753   4.104
 6491TIP3    H219438   3.229   0.682   4.015
 6492TIP3   OH219439   5.187   1.713   1.920
 6492TIP3    H119440   5.123   1.668   1.975
 6492TIP3    H219441   5.252   1.646   1.898
 6493TIP3   OH219442   6.365   6.602   0.425
 6493TIP3    H119443   6.384   6.685   0.382
 6493TIP3    H219444   6.326   6.628   0.509
 6494TIP3   OH219445   6.891   4.245   3.390
 6494TIP3    H119446   6.899   4.253   3.294
 6494TIP3    H219447   6.814   4.297   3.412
 6495TIP3   OH219448   5.937   6.301   3.789
 6495TIP3    H119449   5.953   6.346   3.872
 6495TIP3    H219450   5.971   6.213   3.803
 6496TIP3   OH219451   6.056   3.664   5.148
 6496TIP3    H119452   6.150   3.648   5.139
 6496TIP3    H219453   6.023   3.662   5.058
 6497TIP3   OH219454   2.858   0.892   3.525
 6497TIP3    H119455   2.877   0.984   3.540
 6497TIP3    H219456   2.769   0.891   3.491
 6498TIP3   OH219457   5.224   3.282   0.953
 6498TIP3    H119458   5.221   3.195   0.913
 6498TIP3    H219459   5.246   3.341   0.881
 6499TIP3   OH219460   1.654   1.659   5.964
 6499TIP3    H119461   1.613   1.574   5.950
 6499TIP3    H219462   1.604   1.719   5.908
 6500TIP3   OH219463   5.811   6.641   1.231
 6500TIP3    H119464   5.875   6.665   1.298
 6500TIP3    H219465   5.861   6.638   1.149
 6501TIP3   OH219466   2.690   2.431   3.803
 6501TIP3    H119467   2.773   2.469   3.773
 6501TIP3    H219468   2.714   2.343   3.833
 6502TIP3   OH219469   4.100   5.935   1.099
 6502TIP3    H119470   4.055   5.938   1.184
 6502TIP3    H219471   4.181   5.887   1.116
 6503TIP3   OH219472   1.220   3.766   4.376
 6503TIP3    H119473   1.168   3.742   4.453
 6503TIP3    H219474   1.186   3.852   4.351
 6504TIP3   OH219475   5.387   1.671   5.443
 6504TIP3    H119476   5.323   1.701   5.379
 6504TIP3    H219477   5.453   1.741   5.445
 6505TIP3   OH219478   3.720   4.683   3.567
 6505TIP3    H119479   3.638   4.671   3.614
 6505TIP3    H219480   3.722   4.611   3.504
 6506TIP3   OH219481   3.587   1.264   0.914
 6506TIP3    H119482   3.647   1.189   0.916
 6506TIP3    H219483   3.566   1.280   1.006
 6507TIP3   OH219484   4.036   6.427   0.576
 6507TIP3    H119485   4.089   6.482   0.633
 6507TIP3    H219486   4.065   6.337   0.594
 6508TIP3   OH219487   7.073   3.256   4.547
 6508TIP3    H119488   7.110   3.208   4.473
 6508TIP3    H219489   7.147   3.303   4.585
 6509TIP3   OH219490   2.786   6.271   3.550
 6509TIP3    H119491   2.718   6.291   3.614
 6509TIP3    H219492   2.797   6.353   3.501
 6510TIP3   OH219493   1.091   0.510   1.662
 6510TIP3    H119494   1.120   0.518   1.571
 6510TIP3    H219495   1.017   0.571   1.668
 6511TIP3   OH219496   1.010   4.647   2.141
 6511TIP3    H119497   1.082   4.638   2.078
 6511TIP3    H219498   0.984   4.557   2.161
 6512TIP3   OH219499   6.553   5.266   0.524
 6512TIP3    H119500   6.531   5.319   0.447
 6512TIP3    H219501   6.543   5.325   0.598
 6513TIP3   OH219502   4.186   3.226   5.222
 6513TIP3    H119503   4.155   3.135   5.221
 6513TIP3    H219504   4.108   3.278   5.241
 6514TIP3   OH219505   3.351   3.514   4.939
 6514TIP3    H119506   3.268   3.530   4.895
 6514TIP3    H219507   3.329   3.513   5.032
 6515TIP3   OH219508   3.022   2.898   2.835
 6515TIP3    H119509   3.089   2.891   2.767
 6515TIP3    H219510   2.944   2.930   2.788
 6516TIP3   OH219511   7.194   1.607   1.141
 6516TIP3    H119512   7.287   1.627   1.142
 6516TIP3    H219513   7.169   1.610   1.049
 6517TIP3   OH219514   2.687   6.648   4.507
 6517TIP3    H119515   2.611   6.683   4.461
 6517TIP3    H219516   2.762   6.694   4.470
 6518TIP3   OH219517   1.742   0.730   4.224
 6518TIP3    H119518   1.745   0.640   4.258
 6518TIP3    H219519   1.651   0.744   4.200
 6519TIP3   OH219520   5.084   1.810   1.531
 6519TIP3    H119521   5.021   1.795   1.461
 6519TIP3    H219522   5.062   1.896   1.565
 6520TIP3   OH219523   2.730   6.226   2.508
 6520TIP3    H119524   2.715   6.316   2.537
 6520TIP3    H219525   2.690   6.221   2.422
 6521TIP3   OH219526   5.544   5.239   0.791
 6521TIP3    H119527   5.578   5.273   0.874
 6521TIP3    H219528   5.574   5.302   0.726
 6522TIP3   OH219529   2.432   3.220   2.821
 6522TIP3    H119530   2.360   3.249   2.876
 6522TIP3    H219531   2.412   3.254   2.734
 6523TIP3   OH219532   1.433   3.734   2.754
 6523TIP3    H119533   1.371   3.741   2.681
 6523TIP3    H219534   1.519   3.740   2.712
 6524TIP3   OH219535   3.246   3.679   4.017
 6524TIP3    H119536   3.229   3.756   4.072
 6524TIP3    H219537   3.213   3.704   3.931
 6525TIP3   OH219538   7.136   6.679   3.637
 6525TIP3    H119539   7.186   6.685   3.556
 6525TIP3    H219540   7.195   6.713   3.704
 6526TIP3   OH219541   5.486   1.121   1.573
 6526TIP3    H119542   5.414   1.149   1.630
 6526TIP3    H219543   5.563   1.164   1.609
 6527TIP3   OH219544   5.807   4.042   3.046
 6527TIP3    H119545   5.898   4.066   3.063
 6527TIP3    H219546   5.755   4.112   3.085
 6528TIP3   OH219547   3.513   5.099   0.807
 6528TIP3    H119548   3.561   5.019   0.787
 6528TIP3    H219549   3.545   5.163   0.744
 6529TIP3   OH219550   3.378   2.116   2.321
 6529TIP3    H119551   3.384   2.022   2.339
 6529TIP3    H219552   3.452   2.154   2.368
 6530TIP3   OH219553   3.409   2.200   2.858
 6530TIP3    H119554   3.355   2.279   2.846
 6530TIP3    H219555   3.374   2.137   2.794
 6531TIP3   OH219556   2.063   6.477   5.513
 6531TIP3    H119557   1.970   6.455   5.508
 6531TIP3    H219558   2.107   6.399   5.479
 6532TIP3   OH219559   2.178   5.314   1.159
 6532TIP3    H119560   2.261   5.267   1.153
 6532TIP3    H219561   2.123   5.258   1.214
 6533TIP3   OH219562   3.038   2.080   4.852
 6533TIP3    H119563   3.023   2.155   4.910
 6533TIP3    H219564   3.125   2.048   4.876
 6534TIP3   OH219565   1.909   6.311   0.379
 6534TIP3    H119566   1.873   6.364   0.308
 6534TIP3    H219567   1.837   6.254   0.406
 6535TIP3   OH219568   3.724   4.001   4.071
 6535TIP3    H119569   3.806   3.950   4.076
 6535TIP3    H219570   3.752   4.088   4.044
 6536TIP3   OH219571   5.302   1.273   2.814
 6536TIP3    H119572   5.305   1.364   2.844
 6536TIP3    H219573   5.393   1.243   2.821
 6537TIP3   OH219574   4.277   1.443   4.830
 6537TIP3    H119575   4.285   1.519   4.772
 6537TIP3    H219576   4.324   1.468   4.910
 6538TIP3   OH219577   2.968   6.312   0.266
 6538TIP3    H119578   2.959   6.403   0.293
 6538TIP3    H219579   2.879   6.279   0.263
 6539TIP3   OH219580   4.579   0.508   2.902
 6539TIP3    H119581   4.514   0.446   2.937
 6539TIP3    H219582   4.646   0.514   2.969
 6540TIP3   OH219583   6.224   3.958   3.140
 6540TIP3    H119584   6.292   4.013   3.103
 6540TIP3    H219585   6.142   3.998   3.111
 6541TIP3   OH219586   5.319   0.533   2.326
 6541TIP3    H119587   5.360   0.620   2.331
 6541TIP3    H219588   5.392   0.473   2.308
 6542TIP3   OH219589   5.692   5.395   1.011
 6542TIP3    H119590   5.742   5.434   1.083
 6542TIP3    H219591   5.627   5.462   0.987
 6543TIP3   OH219592   6.966   2.212   0.928
 6543TIP3    H119593   7.032   2.180   0.990
 6543TIP3    H219594   6.885   2.216   0.980
 6544TIP3   OH219595   0.996   2.828   3.183
 6544TIP3    H119596   1.011   2.840   3.089
 6544TIP3    H219597   0.901   2.826   3.193
 6545TIP3   OH219598   5.824   3.824   1.386
 6545TIP3    H119599   5.756   3.888   1.365
 6545TIP3    H219600   5.791   3.778   1.463
 6546TIP3   OH219601   6.244   2.429   5.779
 6546TIP3    H119602   6.207   2.386   5.701
 6546TIP3    H219603   6.235   2.365   5.849
 6547TIP3   OH219604   6.888   5.955   4.882
 6547TIP3    H119605   6.976   5.990   4.867
 6547TIP3    H219606   6.866   5.911   4.799
 6548TIP3   OH219607   2.857   6.677   0.089
 6548TIP3    H119608   2.777   6.627   0.106
 6548TIP3    H219609   2.842   6.718   0.004
 6549TIP3   OH219610   6.560   3.242   4.649
 6549TIP3    H119611   6.532   3.156   4.679
 6549TIP3    H219612   6.653   3.247   4.670
 6550TIP3   OH219613   6.012   6.061   4.759
 6550TIP3    H119614   6.008   6.022   4.672
 6550TIP3    H219615   6.002   6.155   4.744
 6551TIP3   OH219616   4.280   1.009   0.046
 6551TIP3    H119617   4.317   1.004   0.134
 6551TIP3    H219618   4.247   0.921   0.029
 6552TIP3   OH219619   1.951   0.821   2.032
 6552TIP3    H119620   2.021   0.765   2.000
 6552TIP3    H219621   1.994   0.881   2.093
 6553TIP3   OH219622   5.526   0.338   5.048
 6553TIP3    H119623   5.507   0.306   5.136
 6553TIP3    H219624   5.440   0.350   5.008
 6554TIP3   OH219625   4.618   5.636   5.516
 6554TIP3    H119626   4.652   5.556   5.475
 6554TIP3    H219627   4.692   5.669   5.567
 6555TIP3   OH219628   3.167   4.900   4.028
 6555TIP3    H119629   3.102   4.832   4.008
 6555TIP3    H219630   3.240   4.881   3.969
 6556TIP3   OH219631   0.904   5.121   1.281
 6556TIP3    H119632   0.966   5.162   1.221
 6556TIP3    H219633   0.873   5.192   1.337
 6557TIP3   OH219634   2.783   3.938   2.387
 6557TIP3    H119635   2.690   3.938   2.410
 6557TIP3    H219636   2.825   3.881   2.451
 6558TIP3   OH219637   3.029   6.701   3.831
 6558TIP3    H119638   2.950   6.653   3.856
 6558TIP3    H219639   2.999   6.767   3.769
 6559TIP3   OH219640   2.188   1.093   1.904
 6559TIP3    H119641   2.195   1.168   1.964
 6559TIP3    H219642   2.226   1.020   1.953
 6560TIP3   OH219643   1.261   3.318   1.015
 6560TIP3    H119644   1.218   3.386   1.067
 6560TIP3    H219645   1.223   3.327   0.928
 6561TIP3   OH219646   4.926   0.181   0.516
 6561TIP3    H119647   4.996   0.244   0.504
 6561TIP3    H219648   4.908   0.181   0.610
 6562TIP3   OH219649   0.021   4.797   2.883
 6562TIP3    H119650   0.000   4.754   2.966
 6562TIP3    H219651  -0.064   4.810   2.840
 6563TIP3   OH219652   3.768   6.414   0.646
 6563TIP3    H119653   3.703   6.442   0.582
 6563TIP3    H219654   3.852   6.424   0.600
 6564TIP3   OH219655   3.390   1.191   3.371
 6564TIP3    H119656   3.314   1.245   3.393
 6564TIP3    H219657   3.458   1.217   3.434
 6565TIP3   OH219658   1.256   1.438   1.745
 6565TIP3    H119659   1.346   1.407   1.758
 6565TIP3    H219660   1.209   1.408   1.823
 6566TIP3   OH219661   3.347   6.139   3.551
 6566TIP3    H119662   3.349   6.226   3.592
 6566TIP3    H219663   3.289   6.150   3.476
 6567TIP3   OH219664   1.457   5.164   3.756
 6567TIP3    H119665   1.537   5.203   3.792
 6567TIP3    H219666   1.480   5.143   3.665
 6568TIP3   OH219667   5.310   5.999   4.680
 6568TIP3    H119668   5.392   5.957   4.653
 6568TIP3    H219669   5.259   6.004   4.599
 6569TIP3   OH219670   2.419   0.312   3.571
 6569TIP3    H119671   2.360   0.385   3.549
 6569TIP3    H219672   2.418   0.309   3.667
 6570TIP3   OH219673   5.979   4.772   5.313
 6570TIP3    H119674   5.967   4.844   5.252
 6570TIP3    H219675   6.050   4.720   5.276
 6571TIP3   OH219676   2.072   5.753   2.942
 6571TIP3    H119677   2.014   5.807   2.888
 6571TIP3    H219678   2.099   5.682   2.884
 6572TIP3   OH219679   5.125   3.141   4.292
 6572TIP3    H119680   5.218   3.119   4.293
 6572TIP3    H219681   5.124   3.237   4.302
 6573TIP3   OH219682   2.260   5.948   3.928
 6573TIP3    H119683   2.328   5.950   3.861
 6573TIP3    H219684   2.182   5.982   3.886
 6574TIP3   OH219685   1.983   4.725   1.478
 6574TIP3    H119686   2.009   4.633   1.476
 6574TIP3    H219687   1.920   4.734   1.406
 6575TIP3   OH219688   6.205   5.778   1.221
 6575TIP3    H119689   6.212   5.689   1.256
 6575TIP3    H219690   6.291   5.797   1.185
 6576TIP3   OH219691   4.587   2.269   2.530
 6576TIP3    H119692   4.568   2.291   2.621
 6576TIP3    H219693   4.600   2.174   2.530
 6577TIP3   OH219694   1.329   2.313   2.837
 6577TIP3    H119695   1.401   2.350   2.786
 6577TIP3    H219696   1.372   2.259   2.903
 6578TIP3   OH219697   4.921   0.389   1.628
 6578TIP3    H119698   4.969   0.460   1.671
 6578TIP3    H219699   4.951   0.391   1.537
 6579TIP3   OH219700   4.869   2.283   2.052
 6579TIP3    H119701   4.857   2.315   2.141
 6579TIP3    H219702   4.927   2.207   2.062
 6580TIP3   OH219703   0.780   0.977   0.895
 6580TIP3    H119704   0.761   0.957   0.804
 6580TIP3    H219705   0.871   0.950   0.908
 6581TIP3   OH219706   6.683   0.862   2.659
 6581TIP3    H119707   6.685   0.957   2.649
 6581TIP3    H219708   6.616   0.833   2.597
 6582TIP3   OH219709   0.034   0.587   4.296
 6582TIP3    H119710   0.083   0.554   4.221
 6582TIP3    H219711   0.001   0.508   4.339
 6583TIP3   OH219712   5.914   5.377   0.697
 6583TIP3    H119713   5.949   5.288   0.689
 6583TIP3    H219714   5.898   5.388   0.791
 6584TIP3   OH219715   6.587   3.379   3.349
 6584TIP3    H119716   6.533   3.437   3.403
 6584TIP3    H219717   6.532   3.302   3.333
 6585TIP3   OH219718   4.735   1.393   4.920
 6585TIP3    H119719   4.803   1.426   4.979
 6585TIP3    H219720   4.763   1.305   4.897
 6586TIP3   OH219721   0.689   3.637   1.000
 6586TIP3    H119722   0.712   3.583   1.075
 6586TIP3    H219723   0.630   3.582   0.948
 6587TIP3   OH219724   0.330   6.670   5.146
 6587TIP3    H119725   0.412   6.627   5.119
 6587TIP3    H219726   0.299   6.714   5.067
 6588TIP3   OH219727   2.267   3.512   5.697
 6588TIP3    H119728   2.212   3.452   5.748
 6588TIP3    H219729   2.274   3.590   5.751
 6589TIP3   OH219730   0.328   0.662   5.473
 6589TIP3    H119731   0.274   0.735   5.500
 6589TIP3    H219732   0.389   0.699   5.409
 6590TIP3   OH219733   6.441   1.635   5.716
 6590TIP3    H119734   6.500   1.706   5.740
 6590TIP3    H219735   6.398   1.666   5.636
 6591TIP3   OH219736   0.219   5.309   0.681
 6591TIP3    H119737   0.165   5.362   0.740
 6591TIP3    H219738   0.177   5.317   0.595
 6592TIP3   OH219739   0.184   5.149   4.137
 6592TIP3    H119740   0.137   5.123   4.217
 6592TIP3    H219741   0.276   5.153   4.164
 6593TIP3   OH219742   6.399   4.235   2.464
 6593TIP3    H119743   6.342   4.236   2.387
 6593TIP3    H219744   6.488   4.239   2.428
 6594TIP3   OH219745   5.672   6.113   0.762
 6594TIP3    H119746   5.754   6.104   0.714
 6594TIP3    H219747   5.672   6.203   0.795
 6595TIP3   OH219748   3.298   4.644   5.597
 6595TIP3    H119749   3.211   4.673   5.625
 6595TIP3    H219750   3.352   4.649   5.675
 6596TIP3   OH219751   6.361   4.198   0.000
 6596TIP3    H119752   6.361   4.294   0.008
 6596TIP3    H219753   6.428   4.170   0.063
 6597TIP3   OH219754   4.918   0.724   1.667
 6597TIP3    H119755   4.882   0.734   1.579
 6597TIP3    H219756   4.981   0.796   1.676
 6598TIP3   OH219757   5.217   2.571   0.308
 6598TIP3    H119758   5.257   2.607   0.229
 6598TIP3    H219759   5.173   2.491   0.278
 6599TIP3   OH219760   0.581   0.457   2.716
 6599TIP3    H119761   0.559   0.528   2.776
 6599TIP3    H219762   0.617   0.502   2.639
 6600TIP3   OH219763   3.889   0.303   0.371
 6600TIP3    H119764   3.879   0.290   0.465
 6600TIP3    H219765   3.825   0.371   0.349
 6601TIP3   OH219766   3.736   3.902   0.420
 6601TIP3    H119767   3.822   3.944   0.431
 6601TIP3    H219768   3.749   3.836   0.353
 6602TIP3   OH219769   4.777   3.297   0.560
 6602TIP3    H119770   4.768   3.203   0.569
 6602TIP3    H219771   4.872   3.312   0.555
 6603TIP3   OH219772   1.006   6.269   3.734
 6603TIP3    H119773   0.991   6.268   3.639
 6603TIP3    H219774   0.939   6.327   3.768
 6604TIP3   OH219775   6.857   6.247   2.824
 6604TIP3    H119776   6.809   6.326   2.850
 6604TIP3    H219777   6.901   6.272   2.743
 6605TIP3   OH219778   6.469   3.528   2.871
 6605TIP3    H119779   6.506   3.488   2.792
 6605TIP3    H219780   6.393   3.578   2.839
 6606TIP3   OH219781   1.501   3.142   4.812
 6606TIP3    H119782   1.482   3.054   4.844
 6606TIP3    H219783   1.596   3.151   4.820
 6607TIP3   OH219784   6.992   5.300   5.190
 6607TIP3    H119785   6.921   5.236   5.182
 6607TIP3    H219786   6.961   5.377   5.143
 6608TIP3   OH219787   2.651   1.086   4.106
 6608TIP3    H119788   2.745   1.103   4.119
 6608TIP3    H219789   2.610   1.111   4.189
 6609TIP3   OH219790   3.893   0.339   4.092
 6609TIP3    H119791   3.965   0.301   4.143
 6609TIP3    H219792   3.920   0.328   4.001
 6610TIP3   OH219793   3.235   4.348   0.309
 6610TIP3    H119794   3.239   4.281   0.241
 6610TIP3    H219795   3.142   4.364   0.321
 6611TIP3   OH219796   0.383   4.555   4.522
 6611TIP3    H119797   0.376   4.642   4.484
 6611TIP3    H219798   0.370   4.568   4.616
 6612TIP3   OH219799   3.491   6.372   3.775
 6612TIP3    H119800   3.569   6.427   3.771
 6612TIP3    H219801   3.429   6.415   3.715
 6613TIP3   OH219802   2.813   0.149   4.697
 6613TIP3    H119803   2.858   0.230   4.721
 6613TIP3    H219804   2.884   0.088   4.675
 6614TIP3   OH219805   5.565   3.188   4.674
 6614TIP3    H119806   5.605   3.110   4.635
 6614TIP3    H219807   5.528   3.157   4.757
 6615TIP3   OH219808   2.960   4.598   3.136
 6615TIP3    H119809   3.014   4.528   3.175
 6615TIP3    H219810   3.019   4.673   3.131
 6616TIP3   OH219811   5.241   2.396   0.849
 6616TIP3    H119812   5.308   2.418   0.784
 6616TIP3    H219813   5.259   2.455   0.922
 6617TIP3   OH219814   1.064   5.752   0.391
 6617TIP3    H119815   1.023   5.694   0.456
 6617TIP3    H219816   0.992   5.802   0.355
 6618TIP3   OH219817   6.488   2.429   4.157
 6618TIP3    H119818   6.394   2.415   4.170
 6618TIP3    H219819   6.527   2.412   4.242
 6619TIP3   OH219820   4.091   1.970   3.087
 6619TIP3    H119821   4.134   1.982   3.172
 6619TIP3    H219822   4.038   2.049   3.076
 6620TIP3   OH219823   4.479   3.855   2.193
 6620TIP3    H119824   4.383   3.858   2.194
 6620TIP3    H219825   4.506   3.925   2.253
 6621TIP3   OH219826   6.188   6.631   2.820
 6621TIP3    H119827   6.182   6.720   2.856
 6621TIP3    H219828   6.260   6.636   2.757
 6622TIP3   OH219829   3.913   4.164   3.232
 6622TIP3    H119830   3.885   4.252   3.206
 6622TIP3    H219831   3.990   4.179   3.287
 6623TIP3   OH219832   2.309   3.939   0.410
 6623TIP3    H119833   2.295   4.004   0.341
 6623TIP3    H219834   2.225   3.894   0.418
 6624TIP3   OH219835   4.391   2.359   4.953
 6624TIP3    H119836   4.384   2.425   4.884
 6624TIP3    H219837   4.430   2.283   4.909
 6625TIP3   OH219838   2.495   4.725   3.775
 6625TIP3    H119839   2.558   4.786   3.813
 6625TIP3    H219840   2.435   4.781   3.725
 6626TIP3   OH219841   4.188   5.875   0.632
 6626TIP3    H119842   4.259   5.877   0.696
 6626TIP3    H219843   4.110   5.851   0.683
 6627TIP3   OH219844   6.359   4.803   0.539
 6627TIP3    H119845   6.405   4.729   0.578
 6627TIP3    H219846   6.311   4.843   0.612
 6628TIP3   OH219847   2.638   3.154   0.266
 6628TIP3    H119848   2.574   3.204   0.216
 6628TIP3    H219849   2.667   3.085   0.205
 6629TIP3   OH219850   6.721   4.891   0.694
 6629TIP3    H119851   6.744   4.816   0.747
 6629TIP3    H219852   6.787   4.894   0.625
 6630TIP3   OH219853   0.649   6.743   1.648
 6630TIP3    H119854   0.619   6.668   1.701
 6630TIP3    H219855   0.722   6.780   1.698
 6631TIP3   OH219856   6.641   5.993   0.777
 6631TIP3    H119857   6.626   5.913   0.726
 6631TIP3    H219858   6.713   5.971   0.836
 6632TIP3   OH219859   0.746   5.236   3.162
 6632TIP3    H119860   0.663   5.202   3.128
 6632TIP3    H219861   0.801   5.158   3.171
 6633TIP3   OH219862   2.048   1.644   5.741
 6633TIP3    H119863   2.013   1.565   5.784
 6633TIP3    H219864   2.130   1.662   5.787
 6634TIP3   OH219865   1.691   5.253   3.847
 6634TIP3    H119866   1.784   5.233   3.849
 6634TIP3    H219867   1.660   5.231   3.935
 6635TIP3   OH219868   6.707   1.124   2.627
 6635TIP3    H119869   6.719   1.150   2.536
 6635TIP3    H219870   6.716   1.205   2.677
 6636TIP3   OH219871   1.107   0.167   4.929
 6636TIP3    H119872   1.200   0.186   4.917
 6636TIP3    H219873   1.092   0.088   4.876
 6637TIP3   OH219874   0.857   0.685   0.956
 6637TIP3    H119875   0.900   0.602   0.936
 6637TIP3    H219876   0.925   0.751   0.941
 6638TIP3   OH219877   4.598   0.331   4.294
 6638TIP3    H119878   4.623   0.393   4.226
 6638TIP3    H219879   4.503   0.321   4.284
 6639TIP3   OH219880   5.605   6.726   4.238
 6639TIP3    H119881   5.698   6.707   4.226
 6639TIP3    H219882   5.602   6.820   4.257
 6640TIP3   OH219883   5.172   1.119   4.197
 6640TIP3    H119884   5.082   1.134   4.227
 6640TIP3    H219885   5.204   1.206   4.175
 6641TIP3   OH219886   0.927   5.494   5.270
 6641TIP3    H119887   0.854   5.551   5.295
 6641TIP3    H219888   0.925   5.423   5.334
 6642TIP3   OH219889   2.490   6.344   4.440
 6642TIP3    H119890   2.519   6.277   4.378
 6642TIP3    H219891   2.514   6.427   4.398
 6643TIP3   OH219892   4.458   1.575   5.832
 6643TIP3    H119893   4.526   1.515   5.801
 6643TIP3    H219894   4.416   1.607   5.753
 6644TIP3   OH219895   6.949   5.610   2.502
 6644TIP3    H119896   6.966   5.588   2.411
 6644TIP3    H219897   6.858   5.585   2.516
 6645TIP3   OH219898   6.942   6.381   2.343
 6645TIP3    H119899   6.948   6.399   2.250
 6645TIP3    H219900   6.872   6.316   2.351
 6646TIP3   OH219901   6.088   1.433   0.717
 6646TIP3    H119902   6.033   1.454   0.792
 6646TIP3    H219903   6.123   1.346   0.736
 6647TIP3   OH219904   0.419   3.685   4.885
 6647TIP3    H119905   0.426   3.673   4.980
 6647TIP3    H219906   0.379   3.771   4.874
 6648TIP3   OH219907   5.471   3.170   3.286
 6648TIP3    H119908   5.536   3.150   3.218
 6648TIP3    H219909   5.497   3.117   3.361
 6649TIP3   OH219910   3.671   2.315   4.195
 6649TIP3    H119911   3.597   2.376   4.193
 6649TIP3    H219912   3.720   2.336   4.115
 6650TIP3   OH219913   0.439   3.250   0.274
 6650TIP3    H119914   0.487   3.176   0.236
 6650TIP3    H219915   0.408   3.299   0.199
 6651TIP3   OH219916   5.967   2.583   0.527
 6651TIP3    H119917   6.043   2.640   0.541
 6651TIP3    H219918   5.892   2.641   0.536
 6652TIP3   OH219919   3.873   5.828   2.760
 6652TIP3    H119920   3.952   5.798   2.714
 6652TIP3    H219921   3.884   5.923   2.767
 6653TIP3   OH219922   1.661   1.371   0.016
 6653TIP3    H119923   1.727   1.329   0.072
 6653TIP3    H219924   1.578   1.353   0.059
 6654TIP3   OH219925   1.115   1.692   3.032
 6654TIP3    H119926   1.190   1.726   3.080
 6654TIP3    H219927   1.047   1.759   3.041
 6655TIP3   OH219928   7.022   0.050   3.247
 6655TIP3    H119929   7.059  -0.032   3.215
 6655TIP3    H219930   6.956   0.024   3.311
 6656TIP3   OH219931   6.723   1.002   5.842
 6656TIP3    H119932   6.814   0.973   5.842
 6656TIP3    H219933   6.725   1.090   5.803
 6657TIP3   OH219934   7.131   3.789   2.193
 6657TIP3    H119935   7.203   3.804   2.255
 6657TIP3    H219936   7.097   3.876   2.175
 6658TIP3   OH219937   5.191   2.117   1.405
 6658TIP3    H119938   5.190   2.175   1.481
 6658TIP3    H219939   5.277   2.130   1.365
 6659TIP3   OH219940   5.054   4.549   1.081
 6659TIP3    H119941   5.047   4.632   1.032
 6659TIP3    H219942   4.969   4.506   1.067
 6660TIP3   OH219943   1.447   0.140   4.125
 6660TIP3    H119944   1.529   0.180   4.155
 6660TIP3    H219945   1.474   0.059   4.081
 6661TIP3   OH219946   4.175   1.283   5.708
 6661TIP3    H119947   4.254   1.317   5.666
 6661TIP3    H219948   4.205   1.256   5.795
 6662TIP3   OH219949   1.653   3.190   4.039
 6662TIP3    H119950   1.682   3.244   4.113
 6662TIP3    H219951   1.589   3.130   4.076
 6663TIP3   OH219952   5.171   5.877   1.643
 6663TIP3    H119953   5.215   5.958   1.666
 6663TIP3    H219954   5.203   5.856   1.555
 6664TIP3   OH219955   1.062   1.352   1.131
 6664TIP3    H119956   1.094   1.263   1.119
 6664TIP3    H219957   1.006   1.368   1.054
 6665TIP3   OH219958   3.713   6.779   4.599
 6665TIP3    H119959   3.707   6.843   4.528
 6665TIP3    H219960   3.666   6.702   4.566
 6666TIP3   OH219961   2.698   3.747   2.198
 6666TIP3    H119962   2.756   3.822   2.208
 6666TIP3    H219963   2.673   3.724   2.288
 6667TIP3   OH219964   2.632   6.680   0.423
 6667TIP3    H119965   2.560   6.703   0.481
 6667TIP3    H219966   2.680   6.612   0.470
 6668TIP3   OH219967   4.636   6.115   2.946
 6668TIP3    H119968   4.572   6.184   2.961
 6668TIP3    H219969   4.586   6.045   2.905
 6669TIP3   OH219970   2.143   5.911   1.626
 6669TIP3    H119971   2.174   5.956   1.547
 6669TIP3    H219972   2.054   5.943   1.639
 6670TIP3   OH219973   2.254   3.451   1.290
 6670TIP3    H119974   2.203   3.371   1.301
 6670TIP3    H219975   2.228   3.507   1.363
 6671TIP3   OH219976   0.770   2.341   1.152
 6671TIP3    H119977   0.750   2.316   1.062
 6671TIP3    H219978   0.829   2.273   1.184
 6672TIP3   OH219979   4.862   4.667   0.343
 6672TIP3    H119980   4.941   4.716   0.369
 6672TIP3    H219981   4.802   4.734   0.312
 6673TIP3   OH219982   5.153   2.575   5.368
 6673TIP3    H119983   5.230   2.618   5.331
 6673TIP3    H219984   5.081   2.637   5.352
 6674TIP3   OH219985   0.594   5.336   5.309
 6674TIP3    H119986   0.621   5.422   5.277
 6674TIP3    H219987   0.561   5.352   5.397
 6675TIP3   OH219988   2.429   3.104   1.321
 6675TIP3    H119989   2.345   3.150   1.313
 6675TIP3    H219990   2.482   3.161   1.376
 6676TIP3   OH219991   2.982   2.792   2.281
 6676TIP3    H119992   2.912   2.763   2.222
 6676TIP3    H219993   3.061   2.788   2.228
 6677TIP3   OH219994   6.163   5.147   5.567
 6677TIP3    H119995   6.165   5.140   5.471
 6677TIP3    H219996   6.234   5.090   5.596
 6678TIP3   OH219997   5.407   5.994   2.549
 6678TIP3    H119998   5.398   5.915   2.496
 6678TIP3    H219999   5.379   6.065   2.492
 6679TIP3   OH220000   1.418   1.205   2.434
 6679TIP3    H120001   1.339   1.193   2.487
 6679TIP3    H220002   1.441   1.297   2.446
 6680TIP3   OH220003   1.403   6.723   4.399
 6680TIP3    H120004   1.465   6.707   4.470
 6680TIP3    H220005   1.391   6.818   4.398
 6681TIP3   OH220006   6.903   3.352   5.635
 6681TIP3    H120007   6.905   3.338   5.729
 6681TIP3    H220008   6.812   3.375   5.615
 6682TIP3   OH220009   4.107   0.543   2.778
 6682TIP3    H120010   4.077   0.536   2.869
 6682TIP3    H220011   4.084   0.632   2.752
 6683TIP3   OH220012   2.199   5.696   3.970
 6683TIP3    H120013   2.219   5.776   3.920
 6683TIP3    H220014   2.226   5.717   4.059
 6684TIP3   OH220015   2.437   5.229   3.742
 6684TIP3    H120016   2.518   5.225   3.793
 6684TIP3    H220017   2.368   5.237   3.808
 6685TIP3   OH220018   1.562   3.519   3.419
 6685TIP3    H120019   1.574   3.564   3.504
 6685TIP3    H220020   1.475   3.545   3.390
 6686TIP3   OH220021   1.786   3.536   0.139
 6686TIP3    H120022   1.766   3.474   0.069
 6686TIP3    H220023   1.785   3.483   0.219
 6687TIP3   OH220024   0.055   2.194   2.802
 6687TIP3    H120025   0.060   2.161   2.713
 6687TIP3    H220026   0.006   2.127   2.850
 6688TIP3   OH220027   5.995   2.452   2.783
 6688TIP3    H120028   5.915   2.495   2.813
 6688TIP3    H220029   6.059   2.523   2.776
 6689TIP3   OH220030   5.612   6.074   2.319
 6689TIP3    H120031   5.618   6.114   2.232
 6689TIP3    H220032   5.695   6.096   2.361
 6690TIP3   OH220033   4.021   3.163   4.468
 6690TIP3    H120034   3.956   3.099   4.438
 6690TIP3    H220035   4.092   3.158   4.404
 6691TIP3   OH220036   5.682   5.676   0.560
 6691TIP3    H120037   5.653   5.764   0.532
 6691TIP3    H220038   5.771   5.689   0.591
 6692TIP3   OH220039   3.406   0.212   2.317
 6692TIP3    H120040   3.446   0.237   2.233
 6692TIP3    H220041   3.478   0.216   2.379
 6693TIP3   OH220042   0.901   5.125   1.654
 6693TIP3    H120043   0.832   5.144   1.590
 6693TIP3    H220044   0.946   5.049   1.618
 6694TIP3   OH220045   1.943   0.174   2.564
 6694TIP3    H120046   1.973   0.116   2.633
 6694TIP3    H220047   1.980   0.260   2.587
 6695TIP3   OH220048   6.539   3.821   1.541
 6695TIP3    H120049   6.501   3.853   1.623
 6695TIP3    H220050   6.595   3.892   1.511
 6696TIP3   OH220051   5.399   3.415   1.316
 6696TIP3    H120052   5.327   3.422   1.254
 6696TIP3    H220053   5.363   3.369   1.391
 6697TIP3   OH220054   2.257   6.134   2.940
 6697TIP3    H120055   2.335   6.084   2.962
 6697TIP3    H220056   2.242   6.115   2.847
 6698TIP3   OH220057   3.734   1.989   3.776
 6698TIP3    H120058   3.685   2.031   3.847
 6698TIP3    H220059   3.666   1.947   3.722
 6699TIP3   OH220060   0.538   0.273   1.774
 6699TIP3    H120061   0.574   0.213   1.839
 6699TIP3    H220062   0.498   0.343   1.825
 6700TIP3   OH220063   6.353   6.068   5.189
 6700TIP3    H120064   6.310   6.019   5.259
 6700TIP3    H220065   6.292   6.064   5.115
 6701TIP3   OH220066   2.179   2.267   0.034
 6701TIP3    H120067   2.166   2.181   0.074
 6701TIP3    H220068   2.094   2.311   0.042
 6702TIP3   OH220069   3.146   5.391   2.407
 6702TIP3    H120070   3.220   5.377   2.466
 6702TIP3    H220071   3.084   5.445   2.457
 6703TIP3   OH220072   4.402   3.535   0.393
 6703TIP3    H120073   4.457   3.557   0.318
 6703TIP3    H220074   4.459   3.547   0.470
 6704TIP3   OH220075   7.127   6.159   1.176
 6704TIP3    H120076   7.220   6.147   1.195
 6704TIP3    H220077   7.118   6.131   1.085
 6705TIP3   OH220078   0.273   1.848   4.485
 6705TIP3    H120079   0.230   1.801   4.557
 6705TIP3    H220080   0.365   1.853   4.511
 6706TIP3   OH220081   4.187   2.060   3.331
 6706TIP3    H120082   4.111   2.113   3.355
 6706TIP3    H220083   4.214   2.018   3.413
 6707TIP3   OH220084   0.938   3.318   3.454
 6707TIP3    H120085   0.908   3.238   3.497
 6707TIP3    H220086   0.921   3.388   3.518
 6708TIP3   OH220087   2.875   1.852   1.796
 6708TIP3    H120088   2.969   1.836   1.801
 6708TIP3    H220089   2.856   1.908   1.872
 6709TIP3   OH220090   5.913   4.304   1.816
 6709TIP3    H120091   5.821   4.279   1.810
 6709TIP3    H220092   5.940   4.320   1.725
 6710TIP3   OH220093   2.169   3.178   0.588
 6710TIP3    H120094   2.252   3.141   0.558
 6710TIP3    H220095   2.179   3.187   0.683
 6711TIP3   OH220096   2.120   3.201   1.280
 6711TIP3    H120097   2.076   3.134   1.227
 6711TIP3    H220098   2.086   3.188   1.368
 6712TIP3   OH220099   6.600   2.661   2.295
 6712TIP3    H120100   6.523   2.604   2.290
 6712TIP3    H220101   6.581   2.733   2.236
 6713TIP3   OH220102   7.118   0.246   5.421
 6713TIP3    H120103   7.028   0.223   5.442
 6713TIP3    H220104   7.145   0.304   5.492
 6714TIP3   OH220105   5.852   1.192   2.972
 6714TIP3    H120106   5.833   1.282   2.946
 6714TIP3    H220107   5.928   1.167   2.919
 6715TIP3   OH220108   3.392   2.542   1.036
 6715TIP3    H120109   3.440   2.488   1.098
 6715TIP3    H220110   3.301   2.536   1.065
 6716TIP3   OH220111   4.818   3.931   4.702
 6716TIP3    H120112   4.834   3.994   4.631
 6716TIP3    H220113   4.729   3.952   4.732
 6717TIP3   OH220114   6.943   5.819   0.610
 6717TIP3    H120115   6.896   5.802   0.529
 6717TIP3    H220116   6.887   5.783   0.679
 6718TIP3   OH220117   2.120   4.663   4.965
 6718TIP3    H120118   2.057   4.657   5.037
 6718TIP3    H220119   2.090   4.598   4.901
 6719TIP3   OH220120   3.924   3.592   1.015
 6719TIP3    H120121   4.019   3.580   1.004
 6719TIP3    H220122   3.884   3.535   0.950
 6720TIP3   OH220123   4.607   6.135   2.526
 6720TIP3    H120124   4.555   6.159   2.603
 6720TIP3    H220125   4.698   6.143   2.555
 6721TIP3   OH220126   3.371   2.652   0.778
 6721TIP3    H120127   3.460   2.684   0.765
 6721TIP3    H220128   3.370   2.619   0.868
 6722TIP3   OH220129   0.860   2.537   0.071
 6722TIP3    H120130   0.921   2.543  -0.002
 6722TIP3    H220131   0.842   2.444   0.081
 6723TIP3   OH220132   6.291   0.363   3.226
 6723TIP3    H120133   6.211   0.409   3.200
 6723TIP3    H220134   6.357   0.392   3.163
 6724TIP3   OH220135   2.108   6.426   0.853
 6724TIP3    H120136   2.111   6.399   0.761
 6724TIP3    H220137   2.198   6.413   0.885
 6725TIP3   OH220138   6.622   0.843   0.732
 6725TIP3    H120139   6.600   0.886   0.815
 6725TIP3    H220140   6.706   0.881   0.707
 6726TIP3   OH220141   0.698   4.906   2.555
 6726TIP3    H120142   0.677   4.981   2.499
 6726TIP3    H220143   0.632   4.910   2.624
 6727TIP3   OH220144   5.849   6.011   5.422
 6727TIP3    H120145   5.911   6.062   5.474
 6727TIP3    H220146   5.792   5.970   5.486
 6728TIP3   OH220147   1.707   6.275   2.140
 6728TIP3    H120148   1.645   6.258   2.069
 6728TIP3    H220149   1.652   6.300   2.214
 6729TIP3   OH220150   6.999   2.828   3.842
 6729TIP3    H120151   6.916   2.815   3.887
 6729TIP3    H220152   7.044   2.895   3.894
 6730TIP3   OH220153   2.179   3.884   2.825
 6730TIP3    H120154   2.256   3.857   2.775
 6730TIP3    H220155   2.214   3.908   2.911
 6731TIP3   OH220156   3.184   1.610   2.518
 6731TIP3    H120157   3.274   1.599   2.550
 6731TIP3    H220158   3.166   1.530   2.469
 6732TIP3   OH220159   5.755   0.712   4.093
 6732TIP3    H120160   5.765   0.768   4.016
 6732TIP3    H220161   5.718   0.631   4.059
 6733TIP3   OH220162   7.030   1.842   1.213
 6733TIP3    H120163   7.053   1.750   1.201
 6733TIP3    H220164   7.081   1.870   1.289
 6734TIP3   OH220165   6.244   6.028   3.512
 6734TIP3    H120166   6.253   5.935   3.492
 6734TIP3    H220167   6.238   6.070   3.426
 6735TIP3   OH220168   2.347   3.207   1.913
 6735TIP3    H120169   2.262   3.227   1.874
 6735TIP3    H220170   2.336   3.229   2.006
 6736TIP3   OH220171   3.497   0.009   3.525
 6736TIP3    H120172   3.546  -0.044   3.462
 6736TIP3    H220173   3.503  -0.040   3.607
 6737TIP3   OH220174   1.247   6.279   2.945
 6737TIP3    H120175   1.334   6.283   2.906
 6737TIP3    H220176   1.209   6.198   2.911
 6738TIP3   OH220177   3.144   2.269   4.026
 6738TIP3    H120178   3.073   2.322   4.060
 6738TIP3    H220179   3.189   2.236   4.104
 6739TIP3   OH220180   5.637   2.774   0.342
 6739TIP3    H120181   5.582   2.848   0.317
 6739TIP3    H220182   5.656   2.730   0.259
 6740TIP3   OH220183   4.345   2.548   2.797
 6740TIP3    H120184   4.340   2.576   2.889
 6740TIP3    H220185   4.381   2.623   2.751
 6741TIP3   OH220186   2.713   5.909   1.591
 6741TIP3    H120187   2.659   5.974   1.547
 6741TIP3    H220188   2.780   5.885   1.527
 6742TIP3   OH220189   2.532   1.924   3.851
 6742TIP3    H120190   2.439   1.906   3.859
 6742TIP3    H220191   2.574   1.838   3.857
 6743TIP3   OH220192   4.938   1.723   2.383
 6743TIP3    H120193   5.010   1.786   2.387
 6743TIP3    H220194   4.976   1.646   2.340
 6744TIP3   OH220195   0.646   6.429   1.040
 6744TIP3    H120196   0.690   6.410   0.956
 6744TIP3    H220197   0.709   6.402   1.106
 6745TIP3   OH220198   4.039   6.220   0.959
 6745TIP3    H120199   4.119   6.270   0.942
 6745TIP3    H220200   4.070   6.136   0.993
 6746TIP3   OH220201   4.436   3.576   5.027
 6746TIP3    H120202   4.483   3.539   4.953
 6746TIP3    H220203   4.404   3.661   4.996
 6747TIP3   OH220204   3.480   6.350   0.925
 6747TIP3    H120205   3.465   6.441   0.898
 6747TIP3    H220206   3.558   6.354   0.980
 6748TIP3   OH220207   5.953   6.626   3.690
 6748TIP3    H120208   6.009   6.549   3.695
 6748TIP3    H220209   5.992   6.689   3.751
 6749TIP3   OH220210   0.889   0.654   2.838
 6749TIP3    H120211   0.895   0.574   2.786
 6749TIP3    H220212   0.880   0.724   2.774
 6750TIP3   OH220213   1.607   2.673   4.044
 6750TIP3    H120214   1.652   2.616   4.106
 6750TIP3    H220215   1.661   2.670   3.964
 6751TIP3   OH220216   2.962   3.278   4.034
 6751TIP3    H120217   3.003   3.326   3.963
 6751TIP3    H220218   2.992   3.322   4.114
 6752TIP3   OH220219   0.668   0.741   1.722
 6752TIP3    H120220   0.653   0.684   1.647
 6752TIP3    H220221   0.594   0.723   1.781
 6753TIP3   OH220222   6.655   4.085   2.897
 6753TIP3    H120223   6.693   4.138   2.967
 6753TIP3    H220224   6.660   4.141   2.819
 6754TIP3   OH220225   5.684   4.786   3.138
 6754TIP3    H120226   5.697   4.846   3.064
 6754TIP3    H220227   5.609   4.823   3.186
 6755TIP3   OH220228   4.962   6.175   4.817
 6755TIP3    H120229   4.896   6.211   4.876
 6755TIP3    H220230   4.991   6.094   4.859
 6756TIP3   OH220231   3.151   4.078   3.199
 6756TIP3    H120232   3.060   4.053   3.182
 6756TIP3    H220233   3.156   4.085   3.295
 6757TIP3   OH220234   4.945   3.134   0.331
 6757TIP3    H120235   4.996   3.094   0.402
 6757TIP3    H220236   5.002   3.202   0.296
 6758TIP3   OH220237   2.971   4.895   2.002
 6758TIP3    H120238   3.015   4.939   1.930
 6758TIP3    H220239   2.879   4.891   1.976
 6759TIP3   OH220240   1.715   0.092   3.259
 6759TIP3    H120241   1.736   0.156   3.191
 6759TIP3    H220242   1.645   0.039   3.220
 6760TIP3   OH220243   2.437   4.921   2.689
 6760TIP3    H120244   2.342   4.931   2.684
 6760TIP3    H220245   2.471   5.007   2.667
 6761TIP3   OH220246   5.714   3.828   1.683
 6761TIP3    H120247   5.769   3.749   1.688
 6761TIP3    H220248   5.641   3.810   1.742
 6762TIP3   OH220249   4.409   3.613   3.122
 6762TIP3    H120250   4.441   3.701   3.142
 6762TIP3    H220251   4.371   3.582   3.204
 6763TIP3   OH220252   1.922   5.721   4.049
 6763TIP3    H120253   1.963   5.788   4.105
 6763TIP3    H220254   1.993   5.689   3.994
 6764TIP3   OH220255   6.256   4.323   0.629
 6764TIP3    H120256   6.251   4.328   0.724
 6764TIP3    H220257   6.167   4.301   0.601
 6765TIP3   OH220258   5.557   2.670   3.337
 6765TIP3    H120259   5.521   2.659   3.249
 6765TIP3    H220260   5.613   2.592   3.350
 6766TIP3   OH220261   6.965   3.505   0.193
 6766TIP3    H120262   7.052   3.533   0.164
 6766TIP3    H220263   6.936   3.442   0.127
 6767TIP3   OH220264   4.432   2.110   3.201
 6767TIP3    H120265   4.402   2.156   3.123
 6767TIP3    H220266   4.356   2.058   3.230
 6768TIP3   OH220267   4.975   5.035   5.457
 6768TIP3    H120268   4.985   4.996   5.370
 6768TIP3    H220269   4.890   5.004   5.488
 6769TIP3   OH220270   4.196   5.085   3.617
 6769TIP3    H120271   4.283   5.103   3.653
 6769TIP3    H220272   4.212   5.021   3.547
 6770TIP3   OH220273   2.471   0.790   4.266
 6770TIP3    H120274   2.457   0.811   4.174
 6770TIP3    H220275   2.514   0.705   4.265
 6771TIP3   OH220276   4.389   3.559   5.756
 6771TIP3    H120277   4.424   3.521   5.675
 6771TIP3    H220278   4.354   3.485   5.805
 6772TIP3   OH220279   2.553   4.445   1.025
 6772TIP3    H120280   2.581   4.355   1.039
 6772TIP3    H220281   2.592   4.495   1.097
 6773TIP3   OH220282   3.814   0.860   2.842
 6773TIP3    H120283   3.729   0.817   2.830
 6773TIP3    H220284   3.825   0.867   2.936
 6774TIP3   OH220285   7.181   1.313   5.225
 6774TIP3    H120286   7.188   1.227   5.184
 6774TIP3    H220287   7.167   1.373   5.151
 6775TIP3   OH220288   6.081   0.041   1.847
 6775TIP3    H120289   6.155   0.060   1.789
 6775TIP3    H220290   6.097   0.095   1.924
 6776TIP3   OH220291   5.421   0.735   5.891
 6776TIP3    H120292   5.514   0.756   5.893
 6776TIP3    H220293   5.382   0.801   5.834
 6777TIP3   OH220294   1.936   2.551   4.506
 6777TIP3    H120295   1.897   2.533   4.421
 6777TIP3    H220296   1.993   2.475   4.523
 6778TIP3   OH220297   0.165   1.115   0.976
 6778TIP3    H120298   0.089   1.173   0.965
 6778TIP3    H220299   0.128   1.035   1.013
 6779TIP3   OH220300   3.464   4.431   4.304
 6779TIP3    H120301   3.432   4.403   4.218
 6779TIP3    H220302   3.471   4.527   4.297
 6780TIP3   OH220303   1.997   1.287   3.785
 6780TIP3    H120304   2.010   1.376   3.818
 6780TIP3    H220305   1.934   1.297   3.714
 6781TIP3   OH220306   0.895   0.914   4.376
 6781TIP3    H120307   0.909   0.916   4.281
 6781TIP3    H220308   0.848   0.833   4.392
 6782TIP3   OH220309   5.724   2.850   0.823
 6782TIP3    H120310   5.722   2.918   0.891
 6782TIP3    H220311   5.798   2.874   0.767
 6783TIP3   OH220312   6.024   3.965   1.013
 6783TIP3    H120313   6.035   3.878   0.974
 6783TIP3    H220314   5.972   4.013   0.949
 6784TIP3   OH220315   0.264   2.685   3.664
 6784TIP3    H120316   0.299   2.597   3.677
 6784TIP3    H220317   0.178   2.684   3.705
 6785TIP3   OH220318   4.679   6.267   0.798
 6785TIP3    H120319   4.699   6.302   0.884
 6785TIP3    H220320   4.614   6.327   0.762
 6786TIP3   OH220321   0.507   0.898   4.426
 6786TIP3    H120322   0.421   0.869   4.395
 6786TIP3    H220323   0.565   0.824   4.408
 6787TIP3   OH220324   0.986   2.216   5.066
 6787TIP3    H120325   1.068   2.190   5.023
 6787TIP3    H220326   0.927   2.142   5.053
 6788TIP3   OH220327   1.944   2.155   3.693
 6788TIP3    H120328   1.937   2.108   3.776
 6788TIP3    H220329   2.033   2.190   3.692
 6789TIP3   OH220330   6.045   3.968   1.290
 6789TIP3    H120331   5.967   3.925   1.324
 6789TIP3    H220332   6.031   3.972   1.195
 6790TIP3   OH220333   5.617   5.954   0.505
 6790TIP3    H120334   5.649   6.044   0.498
 6790TIP3    H220335   5.536   5.961   0.556
 6791TIP3   OH220336   0.884   6.648   1.366
 6791TIP3    H120337   0.807   6.702   1.386
 6791TIP3    H220338   0.922   6.626   1.451
 6792TIP3   OH220339   5.768   3.324   4.044
 6792TIP3    H120340   5.821   3.401   4.025
 6792TIP3    H220341   5.725   3.344   4.128
 6793TIP3   OH220342   0.566   3.807   5.722
 6793TIP3    H120343   0.477   3.820   5.688
 6793TIP3    H220344   0.567   3.856   5.804
 6794TIP3   OH220345   1.679   5.526   0.733
 6794TIP3    H120346   1.681   5.450   0.790
 6794TIP3    H220347   1.735   5.503   0.659
 6795TIP3   OH220348   4.751   0.967   2.864
 6795TIP3    H120349   4.716   0.925   2.943
 6795TIP3    H220350   4.844   0.980   2.884
 6796TIP3   OH220351   6.671   0.028   0.079
 6796TIP3    H120352   6.709   0.105   0.121
 6796TIP3    H220353   6.607   0.064   0.017
 6797TIP3   OH220354   4.060   4.779   5.622
 6797TIP3    H120355   4.064   4.874   5.607
 6797TIP3    H220356   4.076   4.769   5.715
 6798TIP3   OH220357   0.164   4.614   2.725
 6798TIP3    H120358   0.118   4.697   2.738
 6798TIP3    H220359   0.122   4.553   2.785
 6799TIP3   OH220360   0.297   2.364   4.431
 6799TIP3    H120361   0.244   2.323   4.500
 6799TIP3    H220362   0.234   2.392   4.366
 6800TIP3   OH220363   6.924   3.941   4.524
 6800TIP3    H120364   6.981   3.868   4.500
 6800TIP3    H220365   6.893   3.975   4.440
 6801TIP3   OH220366   6.740   1.357   2.773
 6801TIP3    H120367   6.754   1.452   2.769
 6801TIP3    H220368   6.765   1.333   2.862
 6802TIP3   OH220369   2.262   0.459   4.527
 6802TIP3    H120370   2.313   0.453   4.608
 6802TIP3    H220371   2.259   0.552   4.507
 6803TIP3   OH220372   0.082   5.324   2.550
 6803TIP3    H120373   0.140   5.369   2.489
 6803TIP3    H220374   0.138   5.260   2.594
 6804TIP3   OH220375   5.229   6.615   5.041
 6804TIP3    H120376   5.156   6.570   4.999
 6804TIP3    H220377   5.206   6.708   5.039
 6805TIP3   OH220378   5.398   4.461   2.842
 6805TIP3    H120379   5.487   4.482   2.871
 6805TIP3    H220380   5.343   4.528   2.883
 6806TIP3   OH220381   1.614   2.317   1.251
 6806TIP3    H120382   1.527   2.325   1.289
 6806TIP3    H220383   1.643   2.229   1.275
 6807TIP3   OH220384   4.654   4.010   0.792
 6807TIP3    H120385   4.681   4.098   0.764
 6807TIP3    H220386   4.682   4.005   0.884
 6808TIP3   OH220387   7.132   1.889   2.394
 6808TIP3    H120388   7.042   1.858   2.401
 6808TIP3    H220389   7.129   1.958   2.328
 6809TIP3   OH220390   0.991   2.262   4.418
 6809TIP3    H120391   0.933   2.201   4.372
 6809TIP3    H220392   0.967   2.253   4.510
 6810TIP3   OH220393   5.563   0.772   5.361
 6810TIP3    H120394   5.602   0.815   5.437
 6810TIP3    H220395   5.620   0.696   5.345
 6811TIP3   OH220396   1.338   0.544   3.997
 6811TIP3    H120397   1.324   0.459   3.956
 6811TIP3    H220398   1.327   0.608   3.926
 6812TIP3   OH220399   0.599   1.537   4.303
 6812TIP3    H120400   0.505   1.526   4.286
 6812TIP3    H220401   0.625   1.454   4.342
 6813TIP3   OH220402   2.093   6.091   2.283
 6813TIP3    H120403   2.183   6.115   2.305
 6813TIP3    H220404   2.082   6.004   2.320
 6814TIP3   OH220405   6.400   1.094   2.522
 6814TIP3    H120406   6.387   1.001   2.504
 6814TIP3    H220407   6.495   1.103   2.534
 6815TIP3   OH220408   5.036   0.090   1.055
 6815TIP3    H120409   5.107   0.027   1.065
 6815TIP3    H220410   5.062   0.165   1.109
 6816TIP3   OH220411   2.504   6.763   4.303
 6816TIP3    H120412   2.540   6.757   4.214
 6816TIP3    H220413   2.425   6.709   4.300
 6817TIP3   OH220414   1.271   3.146   3.947
 6817TIP3    H120415   1.343   3.089   3.920
 6817TIP3    H220416   1.252   3.198   3.869
 6818TIP3   OH220417   4.856   1.400   1.781
 6818TIP3    H120418   4.784   1.416   1.842
 6818TIP3    H220419   4.934   1.403   1.836
 6819TIP3   OH220420   4.533   4.703   0.287
 6819TIP3    H120421   4.528   4.662   0.374
 6819TIP3    H220422   4.449   4.746   0.276
 6820TIP3   OH220423   4.456   4.489   2.140
 6820TIP3    H120424   4.466   4.430   2.215
 6820TIP3    H220425   4.414   4.436   2.072
 6821TIP3   OH220426   5.776   4.210   3.604
 6821TIP3    H120427   5.761   4.302   3.582
 6821TIP3    H220428   5.772   4.207   3.699
 6822TIP3   OH220429   3.130   0.049   0.573
 6822TIP3    H120430   3.167   0.002   0.498
 6822TIP3    H220431   3.175   0.133   0.573
 6823TIP3   OH220432   2.877   5.462   1.751
 6823TIP3    H120433   2.887   5.439   1.843
 6823TIP3    H220434   2.892   5.556   1.748
 6824TIP3   OH220435   4.420   1.205   5.811
 6824TIP3    H120436   4.472   1.204   5.731
 6824TIP3    H220437   4.378   1.120   5.813
 6825TIP3   OH220438   4.406   1.091   1.351
 6825TIP3    H120439   4.385   1.179   1.382
 6825TIP3    H220440   4.323   1.058   1.315
 6826TIP3   OH220441   5.570   4.340   2.503
 6826TIP3    H120442   5.628   4.412   2.528
 6826TIP3    H220443   5.501   4.381   2.451
 6827TIP3   OH220444   1.408   6.473   0.508
 6827TIP3    H120445   1.455   6.396   0.475
 6827TIP3    H220446   1.408   6.462   0.603
 6828TIP3   OH220447   0.306   1.009   5.494
 6828TIP3    H120448   0.240   1.078   5.500
 6828TIP3    H220449   0.390   1.055   5.495
 6829TIP3   OH220450   5.132   4.312   0.808
 6829TIP3    H120451   5.182   4.232   0.796
 6829TIP3    H220452   5.197   4.378   0.832
 6830TIP3   OH220453   3.951   5.129   4.116
 6830TIP3    H120454   4.022   5.134   4.051
 6830TIP3    H220455   3.884   5.188   4.083
 6831TIP3   OH220456   0.826   1.414   3.269
 6831TIP3    H120457   0.764   1.447   3.203
 6831TIP3    H220458   0.787   1.332   3.300
 6832TIP3   OH220459   6.858   0.830   1.684
 6832TIP3    H120460   6.831   0.911   1.640
 6832TIP3    H220461   6.927   0.794   1.628
 6833TIP3   OH220462   0.218   3.284   0.742
 6833TIP3    H120463   0.246   3.272   0.651
 6833TIP3    H220464   0.229   3.377   0.759
 6834TIP3   OH220465   4.615   2.007   0.906
 6834TIP3    H120466   4.676   2.034   0.838
 6834TIP3    H220467   4.611   2.082   0.966
 6835TIP3   OH220468   6.723   5.467   4.079
 6835TIP3    H120469   6.668   5.544   4.066
 6835TIP3    H220470   6.684   5.400   4.024
 6836TIP3   OH220471   4.397   5.029   5.229
 6836TIP3    H120472   4.352   5.113   5.227
 6836TIP3    H220473   4.439   5.026   5.315
 6837TIP3   OH220474   4.451   2.406   0.845
 6837TIP3    H120475   4.519   2.392   0.779
 6837TIP3    H220476   4.498   2.432   0.924
 6838TIP3   OH220477   2.587   0.859   2.240
 6838TIP3    H120478   2.668   0.857   2.189
 6838TIP3    H220479   2.597   0.934   2.298
 6839TIP3   OH220480   6.064   3.745   0.849
 6839TIP3    H120481   6.112   3.809   0.797
 6839TIP3    H220482   6.073   3.663   0.800
 6840TIP3   OH220483   0.391   3.557   3.372
 6840TIP3    H120484   0.392   3.511   3.456
 6840TIP3    H220485   0.322   3.623   3.382
 6841TIP3   OH220486   4.259   4.677   4.088
 6841TIP3    H120487   4.167   4.704   4.093
 6841TIP3    H220488   4.255   4.581   4.083
 6842TIP3   OH220489   1.759   4.573   0.974
 6842TIP3    H120490   1.785   4.655   1.017
 6842TIP3    H220491   1.751   4.597   0.882
 6843TIP3   OH220492   0.774   0.158   4.925
 6843TIP3    H120493   0.706   0.130   4.987
 6843TIP3    H220494   0.845   0.095   4.938
 6844TIP3   OH220495   3.712   2.805   5.736
 6844TIP3    H120496   3.784   2.755   5.773
 6844TIP3    H220497   3.633   2.756   5.759
 6845TIP3   OH220498   3.974   3.237   4.745
 6845TIP3    H120499   3.878   3.234   4.738
 6845TIP3    H220500   4.005   3.182   4.673
 6846TIP3   OH220501   7.085   0.309   3.201
 6846TIP3    H120502   7.009   0.317   3.258
 6846TIP3    H220503   7.065   0.234   3.145
 6847TIP3   OH220504   0.211   3.324   1.164
 6847TIP3    H120505   0.161   3.404   1.149
 6847TIP3    H220506   0.278   3.350   1.228
 6848TIP3   OH220507   6.285   3.192   0.848
 6848TIP3    H120508   6.268   3.286   0.858
 6848TIP3    H220509   6.350   3.187   0.779
 6849TIP3   OH220510   6.396   1.603   2.999
 6849TIP3    H120511   6.474   1.659   3.008
 6849TIP3    H220512   6.429   1.522   2.960
 6850TIP3   OH220513   6.091   5.492   3.122
 6850TIP3    H120514   6.122   5.570   3.076
 6850TIP3    H220515   6.124   5.418   3.071
 6851TIP3   OH220516   1.394   1.276   3.929
 6851TIP3    H120517   1.314   1.245   3.888
 6851TIP3    H220518   1.448   1.198   3.938
 6852TIP3   OH220519   5.389   2.063   5.603
 6852TIP3    H120520   5.393   2.154   5.633
 6852TIP3    H220521   5.373   2.069   5.509
 6853TIP3   OH220522   5.275   3.508   5.692
 6853TIP3    H120523   5.345   3.572   5.678
 6853TIP3    H220524   5.261   3.468   5.606
 6854TIP3   OH220525   4.546   3.643   4.611
 6854TIP3    H120526   4.638   3.669   4.612
 6854TIP3    H220527   4.526   3.629   4.518
 6855TIP3   OH220528   5.344   5.768   0.671
 6855TIP3    H120529   5.383   5.717   0.600
 6855TIP3    H220530   5.328   5.703   0.741
 6856TIP3   OH220531   5.670   4.074   0.277
 6856TIP3    H120532   5.622   4.040   0.353
 6856TIP3    H220533   5.724   4.144   0.313
 6857TIP3   OH220534   6.128   5.437   0.309
 6857TIP3    H120535   6.208   5.447   0.257
 6857TIP3    H220536   6.138   5.350   0.349
 6858TIP3   OH220537   0.899   2.065   2.945
 6858TIP3    H120538   0.932   2.067   2.855
 6858TIP3    H220539   0.950   2.131   2.991
 6859TIP3   OH220540   2.371   4.648   5.465
 6859TIP3    H120541   2.395   4.717   5.402
 6859TIP3    H220542   2.357   4.695   5.547
 6860TIP3   OH220543   2.093   1.456   5.281
 6860TIP3    H120544   2.152   1.509   5.335
 6860TIP3    H220545   2.059   1.390   5.341
 6861TIP3   OH220546   7.121   4.627   2.598
 6861TIP3    H120547   7.125   4.534   2.579
 6861TIP3    H220548   7.112   4.668   2.512
 6862TIP3   OH220549   1.130   4.922   2.313
 6862TIP3    H120550   1.034   4.926   2.308
 6862TIP3    H220551   1.150   4.829   2.325
 6863TIP3   OH220552   3.961   0.640   1.605
 6863TIP3    H120553   3.910   0.561   1.588
 6863TIP3    H220554   3.903   0.712   1.581
 6864TIP3   OH220555   5.065   0.959   1.699
 6864TIP3    H120556   4.980   0.996   1.722
 6864TIP3    H220557   5.115   1.033   1.665
 6865TIP3   OH220558   2.128   3.872   5.848
 6865TIP3    H120559   2.176   3.794   5.875
 6865TIP3    H220560   2.094   3.909   5.930
 6866TIP3   OH220561   5.598   4.617   2.424
 6866TIP3    H120562   5.679   4.666   2.439
 6866TIP3    H220563   5.529   4.677   2.453
 6867TIP3   OH220564   6.883   0.142   2.106
 6867TIP3    H120565   6.881   0.059   2.154
 6867TIP3    H220566   6.976   0.164   2.099
 6868TIP3   OH220567   0.265   1.198   2.177
 6868TIP3    H120568   0.358   1.213   2.195
 6868TIP3    H220569   0.248   1.248   2.097
 6869TIP3   OH220570   2.649   2.132   0.153
 6869TIP3    H120571   2.694   2.117   0.236
 6869TIP3    H220572   2.589   2.204   0.172
 6870TIP3   OH220573   5.324   1.420   5.010
 6870TIP3    H120574   5.393   1.471   4.967
 6870TIP3    H220575   5.372   1.356   5.062
 6871TIP3   OH220576   3.742   6.196   4.310
 6871TIP3    H120577   3.648   6.214   4.305
 6871TIP3    H220578   3.773   6.209   4.220
 6872TIP3   OH220579   4.142   4.579   1.541
 6872TIP3    H120580   4.224   4.556   1.498
 6872TIP3    H220581   4.145   4.674   1.549
 6873TIP3   OH220582   0.627   4.824   0.614
 6873TIP3    H120583   0.549   4.815   0.668
 6873TIP3    H220584   0.597   4.870   0.535
 6874TIP3   OH220585   2.873   2.840   1.834
 6874TIP3    H120586   2.848   2.845   1.742
 6874TIP3    H220587   2.964   2.811   1.833
 6875TIP3   OH220588   5.647   0.358   4.410
 6875TIP3    H120589   5.587   0.426   4.379
 6875TIP3    H220590   5.590   0.282   4.428
 6876TIP3   OH220591   2.659   1.224   1.475
 6876TIP3    H120592   2.676   1.139   1.515
 6876TIP3    H220593   2.737   1.241   1.421
 6877TIP3   OH220594   6.503   1.193   5.431
 6877TIP3    H120595   6.509   1.275   5.480
 6877TIP3    H220596   6.544   1.128   5.488
 6878TIP3   OH220597   6.865   4.429   1.894
 6878TIP3    H120598   6.809   4.467   1.962
 6878TIP3    H220599   6.909   4.504   1.855
 6879TIP3   OH220600   0.778   0.195   4.291
 6879TIP3    H120601   0.854   0.205   4.235
 6879TIP3    H220602   0.729   0.276   4.281
 6880TIP3   OH220603   1.231   2.385   5.459
 6880TIP3    H120604   1.321   2.404   5.485
 6880TIP3    H220605   1.179   2.402   5.537
 6881TIP3   OH220606   0.745   2.535   1.537
 6881TIP3    H120607   0.690   2.464   1.504
 6881TIP3    H220608   0.690   2.613   1.533
 6882TIP3   OH220609   0.786   5.679   1.165
 6882TIP3    H120610   0.697   5.659   1.197
 6882TIP3    H220611   0.796   5.773   1.181
 6883TIP3   OH220612   3.985   1.297   3.707
 6883TIP3    H120613   4.057   1.314   3.646
 6883TIP3    H220614   3.949   1.213   3.680
 6884TIP3   OH220615   0.218   3.377   5.264
 6884TIP3    H120616   0.147   3.322   5.229
 6884TIP3    H220617   0.295   3.351   5.215
 6885TIP3   OH220618   2.636   6.530   0.977
 6885TIP3    H120619   2.685   6.449   0.967
 6885TIP3    H220620   2.702   6.597   0.993
 6886TIP3   OH220621   3.410   0.479   5.602
 6886TIP3    H120622   3.438   0.520   5.520
 6886TIP3    H220623   3.480   0.500   5.664
 6887TIP3   OH220624   3.959   3.449   5.257
 6887TIP3    H120625   3.896   3.456   5.185
 6887TIP3    H220626   3.988   3.539   5.272
 6888TIP3   OH220627   1.639   4.952   4.785
 6888TIP3    H120628   1.601   4.940   4.698
 6888TIP3    H220629   1.727   4.987   4.768
 6889TIP3   OH220630   6.748   0.127   5.640
 6889TIP3    H120631   6.780   0.102   5.553
 6889TIP3    H220632   6.764   0.050   5.694
 6890TIP3   OH220633   0.728   4.144   5.697
 6890TIP3    H120634   0.686   4.112   5.617
 6890TIP3    H220635   0.693   4.088   5.766
 6891TIP3   OH220636   1.170   1.429   4.191
 6891TIP3    H120637   1.249   1.386   4.224
 6891TIP3    H220638   1.155   1.501   4.253
 6892TIP3   OH220639   2.728   4.906   0.202
 6892TIP3    H120640   2.778   4.860   0.269
 6892TIP3    H220641   2.781   4.897   0.123
 6893TIP3   OH220642   0.542   0.142   3.934
 6893TIP3    H120643   0.531   0.091   3.853
 6893TIP3    H220644   0.623   0.109   3.972
 6894TIP3   OH220645   0.029   5.151   2.042
 6894TIP3    H120646   0.095   5.089   2.071
 6894TIP3    H220647  -0.041   5.144   2.107
 6895TIP3   OH220648   2.270   5.009   4.695
 6895TIP3    H120649   2.292   4.942   4.630
 6895TIP3    H220650   2.196   4.972   4.743
 6896TIP3   OH220651   6.258   1.034   4.173
 6896TIP3    H120652   6.229   1.011   4.261
 6896TIP3    H220653   6.260   0.951   4.126
 6897TIP3   OH220654   5.906   6.715   4.176
 6897TIP3    H120655   5.872   6.722   4.266
 6897TIP3    H220656   5.882   6.797   4.135
 6898TIP3   OH220657   3.717   4.449   5.587
 6898TIP3    H120658   3.624   4.448   5.564
 6898TIP3    H220659   3.755   4.379   5.534
 6899TIP3   OH220660   2.166   6.563   0.080
 6899TIP3    H120661   2.209   6.563   0.165
 6899TIP3    H220662   2.187   6.649   0.043
 6900TIP3   OH220663   4.744   3.544   2.831
 6900TIP3    H120664   4.775   3.510   2.915
 6900TIP3    H220665   4.766   3.476   2.767
 6901TIP3   OH220666   7.117   1.343   2.987
 6901TIP3    H120667   7.149   1.275   2.928
 6901TIP3    H220668   7.031   1.311   3.016
 6902TIP3   OH220669   2.929   0.396   3.657
 6902TIP3    H120670   2.898   0.309   3.685
 6902TIP3    H220671   3.010   0.409   3.705
 6903TIP3   OH220672   6.777   6.614   2.513
 6903TIP3    H120673   6.818   6.608   2.427
 6903TIP3    H220674   6.694   6.567   2.503
 6904TIP3   OH220675   2.860   6.679   1.078
 6904TIP3    H120676   2.888   6.689   0.987
 6904TIP3    H220677   2.940   6.654   1.125
 6905TIP3   OH220678   4.839   3.082   3.445
 6905TIP3    H120679   4.835   2.996   3.403
 6905TIP3    H220680   4.748   3.103   3.467
 6906TIP3   OH220681   0.111   3.759   4.615
 6906TIP3    H120682   0.163   3.807   4.550
 6906TIP3    H220683   0.090   3.824   4.681
 6907TIP3   OH220684   6.529   3.069   3.567
 6907TIP3    H120685   6.550   2.976   3.577
 6907TIP3    H220686   6.517   3.081   3.473
 6908TIP3   OH220687   5.402   4.348   5.738
 6908TIP3    H120688   5.369   4.334   5.827
 6908TIP3    H220689   5.329   4.386   5.691
 6909TIP3   OH220690   2.032   4.188   1.137
 6909TIP3    H120691   2.009   4.252   1.070
 6909TIP3    H220692   1.966   4.198   1.205
 6910TIP3   OH220693   6.621   4.145   5.829
 6910TIP3    H120694   6.575   4.062   5.836
 6910TIP3    H220695   6.663   4.142   5.743
 6911TIP3   OH220696   3.678   5.283   5.586
 6911TIP3    H120697   3.689   5.235   5.504
 6911TIP3    H220698   3.738   5.241   5.647
 6912TIP3   OH220699   5.543  -0.029   3.313
 6912TIP3    H120700   5.463  -0.059   3.357
 6912TIP3    H220701   5.512   0.008   3.231
 6913TIP3   OH220702   4.312   2.936   1.450
 6913TIP3    H120703   4.276   2.969   1.367
 6913TIP3    H220704   4.334   2.845   1.432
 6914TIP3   OH220705   0.702   3.374   2.826
 6914TIP3    H120706   0.752   3.332   2.755
 6914TIP3    H220707   0.746   3.345   2.906
 6915TIP3   OH220708   4.708   4.753   3.420
 6915TIP3    H120709   4.738   4.812   3.352
 6915TIP3    H220710   4.619   4.782   3.440
 6916TIP3   OH220711   0.607   6.606   0.664
 6916TIP3    H120712   0.652   6.684   0.631
 6916TIP3    H220713   0.541   6.586   0.598
 6917TIP3   OH220714   4.781   1.588   0.360
 6917TIP3    H120715   4.781   1.538   0.442
 6917TIP3    H220716   4.703   1.643   0.364
 6918TIP3   OH220717   3.272   4.024   5.448
 6918TIP3    H120718   3.345   4.079   5.418
 6918TIP3    H220719   3.264   3.957   5.380
 6919TIP3   OH220720   4.347   3.595   0.826
 6919TIP3    H120721   4.294   3.588   0.904
 6919TIP3    H220722   4.422   3.648   0.852
 6920TIP3   OH220723   3.590   4.976   1.053
 6920TIP3    H120724   3.565   5.051   0.999
 6920TIP3    H220725   3.667   4.940   1.011
 6921TIP3   OH220726   2.119   0.100   3.374
 6921TIP3    H120727   2.211   0.115   3.350
 6921TIP3    H220728   2.082   0.187   3.383
 6922TIP3   OH220729   3.464   6.273   5.500
 6922TIP3    H120730   3.517   6.234   5.431
 6922TIP3    H220731   3.524   6.332   5.546
 6923TIP3   OH220732   7.194   1.164   2.811
 6923TIP3    H120733   7.146   1.220   2.750
 6923TIP3    H220734   7.242   1.103   2.754
 6924TIP3   OH220735   6.598   6.306   2.079
 6924TIP3    H120736   6.590   6.211   2.066
 6924TIP3    H220737   6.647   6.315   2.160
 6925TIP3   OH220738   2.814   6.708   1.503
 6925TIP3    H120739   2.779   6.668   1.423
 6925TIP3    H220740   2.756   6.678   1.573
 6926TIP3   OH220741   3.630   0.624   1.815
 6926TIP3    H120742   3.671   0.637   1.901
 6926TIP3    H220743   3.637   0.530   1.800
 6927TIP3   OH220744   4.452   4.922   4.685
 6927TIP3    H120745   4.446   4.972   4.766
 6927TIP3    H220746   4.406   4.975   4.620
 6928TIP3   OH220747   1.764   3.606   0.509
 6928TIP3    H120748   1.747   3.547   0.435
 6928TIP3    H220749   1.818   3.676   0.472
 6929TIP3   OH220750   3.514   2.482   2.469
 6929TIP3    H120751   3.447   2.417   2.491
 6929TIP3    H220752   3.566   2.489   2.549
 6930TIP3   OH220753   4.774   4.187   4.090
 6930TIP3    H120754   4.732   4.110   4.130
 6930TIP3    H220755   4.866   4.162   4.080
 6931TIP3   OH220756   0.162   1.105   3.126
 6931TIP3    H120757   0.132   1.192   3.153
 6931TIP3    H220758   0.213   1.120   3.047
 6932TIP3   OH220759   6.493   2.808   3.797
 6932TIP3    H120760   6.512   2.801   3.703
 6932TIP3    H220761   6.524   2.895   3.821
 6933TIP3   OH220762   7.012   5.258   2.494
 6933TIP3    H120763   7.085   5.314   2.520
 6933TIP3    H220764   6.934   5.312   2.505
 6934TIP3   OH220765   0.149   0.792   2.615
 6934TIP3    H120766   0.104   0.876   2.608
 6934TIP3    H220767   0.237   0.814   2.645
 6935TIP3   OH220768   3.600   1.001   0.596
 6935TIP3    H120769   3.680   1.039   0.632
 6935TIP3    H220770   3.531   1.027   0.656
 6936TIP3   OH220771   4.119   6.752   0.708
 6936TIP3    H120772   4.076   6.720   0.628
 6936TIP3    H220773   4.212   6.747   0.687
 6937TIP3   OH220774   3.459   4.577   3.326
 6937TIP3    H120775   3.454   4.593   3.232
 6937TIP3    H220776   3.549   4.548   3.341
 6938TIP3   OH220777   0.973   0.572   5.510
 6938TIP3    H120778   1.010   0.660   5.510
 6938TIP3    H220779   0.953   0.554   5.418
 6939TIP3   OH220780   1.781   6.110   2.451
 6939TIP3    H120781   1.798   6.073   2.538
 6939TIP3    H220782   1.825   6.051   2.390
 6940TIP3   OH220783   5.638   4.988   3.533
 6940TIP3    H120784   5.706   4.922   3.537
 6940TIP3    H220785   5.594   4.983   3.618
 6941TIP3   OH220786   1.245   5.221   4.703
 6941TIP3    H120787   1.197   5.165   4.763
 6941TIP3    H220788   1.199   5.305   4.707
 6942TIP3   OH220789   4.633   6.009   4.777
 6942TIP3    H120790   4.705   6.023   4.715
 6942TIP3    H220791   4.574   6.083   4.763
 6943TIP3   OH220792   4.879   2.615   3.494
 6943TIP3    H120793   4.884   2.615   3.590
 6943TIP3    H220794   4.920   2.533   3.468
 6944TIP3   OH220795   1.048   1.116   0.614
 6944TIP3    H120796   1.050   1.023   0.637
 6944TIP3    H220797   1.128   1.130   0.562
 6945TIP3   OH220798   6.462   6.629   5.012
 6945TIP3    H120799   6.460   6.719   5.044
 6945TIP3    H220800   6.538   6.626   4.954
 6946TIP3   OH220801   3.144   1.126   5.672
 6946TIP3    H120802   3.198   1.053   5.640
 6946TIP3    H220803   3.093   1.087   5.743
 6947TIP3   OH220804   5.823   1.806   4.941
 6947TIP3    H120805   5.846   1.721   4.980
 6947TIP3    H220806   5.831   1.792   4.847
 6948TIP3   OH220807   2.389   5.867   1.235
 6948TIP3    H120808   2.305   5.898   1.201
 6948TIP3    H220809   2.366   5.802   1.301
 6949TIP3   OH220810   3.609   1.080   2.795
 6949TIP3    H120811   3.614   1.089   2.699
 6949TIP3    H220812   3.697   1.054   2.821
 6950TIP3   OH220813   6.085   2.643   4.944
 6950TIP3    H120814   6.137   2.694   5.007
 6950TIP3    H220815   6.094   2.691   4.862
 6951TIP3   OH220816   5.627   3.806   4.958
 6951TIP3    H120817   5.568   3.731   4.943
 6951TIP3    H220818   5.596   3.872   4.896
 6952TIP3   OH220819   7.144   5.538   4.429
 6952TIP3    H120820   7.181   5.613   4.476
 6952TIP3    H220821   7.049   5.550   4.436
 6953TIP3   OH220822   0.156   2.260   3.631
 6953TIP3    H120823   0.181   2.169   3.614
 6953TIP3    H220824   0.232   2.297   3.677
 6954TIP3   OH220825   2.554   4.361   1.428
 6954TIP3    H120826   2.474   4.313   1.409
 6954TIP3    H220827   2.589   4.319   1.507
 6955TIP3   OH220828   6.054   4.158   3.059
 6955TIP3    H120829   6.118   4.200   3.002
 6955TIP3    H220830   6.037   4.222   3.128
 6956TIP3   OH220831   3.849   3.456   3.229
 6956TIP3    H120832   3.864   3.513   3.304
 6956TIP3    H220833   3.898   3.376   3.248
 6957TIP3   OH220834   1.544   3.808   4.844
 6957TIP3    H120835   1.464   3.766   4.812
 6957TIP3    H220836   1.521   3.900   4.852
 6958TIP3   OH220837   0.582   6.070   2.677
 6958TIP3    H120838   0.518   6.101   2.613
 6958TIP3    H220839   0.637   6.008   2.629
 6959TIP3   OH220840   3.276   1.482   3.956
 6959TIP3    H120841   3.351   1.528   3.920
 6959TIP3    H220842   3.268   1.403   3.904
 6960TIP3   OH220843   0.424   3.040   3.911
 6960TIP3    H120844   0.475   3.057   3.832
 6960TIP3    H220845   0.463   2.962   3.949
 6961TIP3   OH220846   6.255   1.619   4.444
 6961TIP3    H120847   6.201   1.540   4.447
 6961TIP3    H220848   6.207   1.679   4.387
 6962TIP3   OH220849   3.316   4.784   3.120
 6962TIP3    H120850   3.229   4.800   3.084
 6962TIP3    H220851   3.336   4.694   3.095
 6963TIP3   OH220852   0.871   3.642   0.156
 6963TIP3    H120853   0.800   3.606   0.103
 6963TIP3    H220854   0.918   3.701   0.098
 6964TIP3   OH220855   6.240   0.297   3.487
 6964TIP3    H120856   6.252   0.202   3.493
 6964TIP3    H220857   6.245   0.316   3.393
 6965TIP3   OH220858   0.307   2.354   0.254
 6965TIP3    H120859   0.397   2.327   0.271
 6965TIP3    H220860   0.254   2.281   0.285
 6966TIP3   OH220861   5.726   3.673   0.746
 6966TIP3    H120862   5.743   3.757   0.789
 6966TIP3    H220863   5.805   3.654   0.696
 6967TIP3   OH220864   3.352   4.408   3.516
 6967TIP3    H120865   3.382   4.479   3.460
 6967TIP3    H220866   3.258   4.424   3.527
 6968TIP3   OH220867   2.855   5.165   1.337
 6968TIP3    H120868   2.797   5.089   1.335
 6968TIP3    H220869   2.821   5.219   1.409
 6969TIP3   OH220870   2.542   3.346   5.494
 6969TIP3    H120871   2.483   3.349   5.569
 6969TIP3    H220872   2.593   3.427   5.501
 6970TIP3   OH220873   0.703   2.934   2.196
 6970TIP3    H120874   0.659   3.013   2.227
 6970TIP3    H220875   0.667   2.864   2.250
 6971TIP3   OH220876   4.443   6.719   1.694
 6971TIP3    H120877   4.498   6.797   1.701
 6971TIP3    H220878   4.454   6.691   1.603
 6972TIP3   OH220879   6.657   6.747   5.549
 6972TIP3    H120880   6.667   6.843   5.553
 6972TIP3    H220881   6.642   6.728   5.456
 6973TIP3   OH220882   0.335   1.140   2.905
 6973TIP3    H120883   0.305   1.225   2.871
 6973TIP3    H220884   0.401   1.112   2.842
 6974TIP3   OH220885   2.528   3.466   5.785
 6974TIP3    H120886   2.437   3.493   5.772
 6974TIP3    H220887   2.535   3.449   5.879
 6975TIP3   OH220888   1.373   6.150   4.676
 6975TIP3    H120889   1.415   6.103   4.604
 6975TIP3    H220890   1.337   6.081   4.732
 6976TIP3   OH220891   1.330   1.660   1.890
 6976TIP3    H120892   1.345   1.615   1.806
 6976TIP3    H220893   1.249   1.708   1.877
 6977TIP3   OH220894   2.330   1.139   0.924
 6977TIP3    H120895   2.333   1.091   1.006
 6977TIP3    H220896   2.385   1.215   0.938
 6978TIP3   OH220897   0.815   3.112   0.826
 6978TIP3    H120898   0.721   3.093   0.831
 6978TIP3    H220899   0.847   3.060   0.753
 6979TIP3   OH220900   4.542   2.083   0.189
 6979TIP3    H120901   4.573   2.142   0.257
 6979TIP3    H220902   4.621   2.060   0.139
 6980TIP3   OH220903   0.413   1.319   3.244
 6980TIP3    H120904   0.425   1.225   3.246
 6980TIP3    H220905   0.472   1.350   3.176
 6981TIP3   OH220906   1.280   3.327   3.159
 6981TIP3    H120907   1.239   3.281   3.232
 6981TIP3    H220908   1.291   3.261   3.092
 6982TIP3   OH220909   6.716   5.255   2.663
 6982TIP3    H120910   6.625   5.225   2.673
 6982TIP3    H220911   6.768   5.176   2.670
 6983TIP3   OH220912   1.041   2.768   4.379
 6983TIP3    H120913   1.055   2.855   4.343
 6983TIP3    H220914   0.974   2.729   4.323
 6984TIP3   OH220915   6.867   5.921   2.087
 6984TIP3    H120916   6.954   5.952   2.112
 6984TIP3    H220917   6.883   5.865   2.010
 6985TIP3   OH220918   5.084   0.948   5.831
 6985TIP3    H120919   5.031   0.889   5.885
 6985TIP3    H220920   5.069   0.918   5.741
 6986TIP3   OH220921   1.430   1.532   2.397
 6986TIP3    H120922   1.396   1.541   2.309
 6986TIP3    H220923   1.358   1.560   2.454
 6987TIP3   OH220924   1.695   5.892   4.751
 6987TIP3    H120925   1.724   5.979   4.723
 6987TIP3    H220926   1.766   5.860   4.806
 6988TIP3   OH220927   4.061   1.050   4.007
 6988TIP3    H120928   4.099   0.977   4.056
 6988TIP3    H220929   3.975   1.018   3.979
 6989TIP3   OH220930   4.095   3.878   3.948
 6989TIP3    H120931   4.026   3.815   3.925
 6989TIP3    H220932   4.057   3.964   3.930
 6990TIP3   OH220933   0.163   2.351   0.927
 6990TIP3    H120934   0.197   2.273   0.882
 6990TIP3    H220935   0.198   2.344   1.016
 6991TIP3   OH220936   7.104   2.112   5.253
 6991TIP3    H120937   7.098   2.125   5.348
 6991TIP3    H220938   7.144   2.192   5.220
 6992TIP3   OH220939   4.341   0.910   5.212
 6992TIP3    H120940   4.369   0.827   5.251
 6992TIP3    H220941   4.421   0.962   5.207
 6993TIP3   OH220942   6.279   0.503   0.969
 6993TIP3    H120943   6.283   0.502   1.065
 6993TIP3    H220944   6.186   0.492   0.949
 6994TIP3   OH220945   4.390   1.042   3.158
 6994TIP3    H120946   4.456   1.107   3.131
 6994TIP3    H220947   4.330   1.038   3.084
 6995TIP3   OH220948   6.512   4.857   3.167
 6995TIP3    H120949   6.490   4.812   3.248
 6995TIP3    H220950   6.554   4.938   3.195
 6996TIP3   OH220951   1.741   4.446   3.155
 6996TIP3    H120952   1.715   4.364   3.198
 6996TIP3    H220953   1.834   4.456   3.177
 6997TIP3   OH220954   5.611   4.800   4.601
 6997TIP3    H120955   5.651   4.886   4.614
 6997TIP3    H220956   5.517   4.815   4.606
 6998TIP3   OH220957   3.077   1.754   2.235
 6998TIP3    H120958   3.145   1.686   2.238
 6998TIP3    H220959   3.007   1.721   2.291
 6999TIP3   OH220960   3.890   0.181   2.990
 6999TIP3    H120961   3.843   0.162   2.909
 6999TIP3    H220962   3.863   0.269   3.014
 7000TIP3   OH220963   0.861   3.659   2.834
 7000TIP3    H120964   0.914   3.618   2.904
 7000TIP3    H220965   0.881   3.752   2.841
 7001TIP3   OH220966   0.474   3.280   1.637
 7001TIP3    H120967   0.527   3.358   1.621
 7001TIP3    H220968   0.486   3.227   1.558
 7002TIP3   OH220969   1.461   4.066   4.864
 7002TIP3    H120970   1.375   4.107   4.867
 7002TIP3    H220971   1.512   4.112   4.931
 7003TIP3   OH220972   3.255   1.728   0.299
 7003TIP3    H120973   3.164   1.731   0.329
 7003TIP3    H220974   3.251   1.689   0.212
 7004TIP3   OH220975   2.176   2.124   1.862
 7004TIP3    H120976   2.125   2.098   1.785
 7004TIP3    H220977   2.204   2.041   1.900
 7005TIP3   OH220978   6.068   1.939   1.845
 7005TIP3    H120979   6.077   1.844   1.855
 7005TIP3    H220980   6.100   1.956   1.756
 7006TIP3   OH220981   4.555   0.154   2.916
 7006TIP3    H120982   4.507   0.211   2.976
 7006TIP3    H220983   4.647   0.166   2.940
 7007TIP3   OH220984   0.004   2.130   3.859
 7007TIP3    H120985   0.063   2.057   3.877
 7007TIP3    H220986   0.054   2.208   3.885
 7008TIP3   OH220987   5.700   0.710   4.756
 7008TIP3    H120988   5.790   0.729   4.728
 7008TIP3    H220989   5.653   0.793   4.744
 7009TIP3   OH220990   0.298   4.942   0.456
 7009TIP3    H120991   0.215   4.915   0.416
 7009TIP3    H220992   0.273   4.974   0.543
 7010TIP3   OH220993   2.276   6.228   1.171
 7010TIP3    H120994   2.197   6.282   1.173
 7010TIP3    H220995   2.268   6.177   1.090
 7011TIP3   OH220996   4.082   3.643   3.254
 7011TIP3    H120997   4.018   3.662   3.322
 7011TIP3    H220998   4.047   3.567   3.208
 7012TIP3   OH220999   5.594   1.843   5.071
 7012TIP3    H121000   5.536   1.775   5.035
 7012TIP3    H221001   5.678   1.830   5.027
 7013TIP3   OH221002   4.340   5.104   4.509
 7013TIP3    H121003   4.299   5.101   4.422
 7013TIP3    H221004   4.388   5.187   4.511
 7014TIP3   OH221005   5.420   6.585   1.475
 7014TIP3    H121006   5.456   6.573   1.387
 7014TIP3    H221007   5.354   6.654   1.465
 7015TIP3   OH221008   1.814   1.234   2.297
 7015TIP3    H121009   1.902   1.265   2.318
 7015TIP3    H221010   1.755   1.302   2.331
 7016TIP3   OH221011   6.480   0.800   4.826
 7016TIP3    H121012   6.469   0.895   4.823
 7016TIP3    H221013   6.547   0.781   4.761
 7017TIP3   OH221014   2.211   1.094   1.437
 7017TIP3    H121015   2.135   1.040   1.461
 7017TIP3    H221016   2.268   1.090   1.514
 7018TIP3   OH221017   1.833   0.429   3.233
 7018TIP3    H121018   1.851   0.375   3.155
 7018TIP3    H221019   1.869   0.378   3.306
 7019TIP3   OH221020   6.905   3.957   3.475
 7019TIP3    H121021   6.818   3.937   3.508
 7019TIP3    H221022   6.901   4.050   3.451
 7020TIP3   OH221023   4.810   4.279   3.244
 7020TIP3    H121024   4.861   4.233   3.310
 7020TIP3    H221025   4.781   4.210   3.184
 7021TIP3   OH221026   4.146   0.445   2.126
 7021TIP3    H121027   4.237   0.422   2.110
 7021TIP3    H221028   4.123   0.505   2.055
 7022TIP3   OH221029   4.335   4.409   3.273
 7022TIP3    H121030   4.415   4.420   3.324
 7022TIP3    H221031   4.362   4.361   3.195
 7023TIP3   OH221032   3.659   4.507   1.219
 7023TIP3    H121033   3.657   4.513   1.124
 7023TIP3    H221034   3.751   4.521   1.242
 7024TIP3   OH221035   3.281   6.709   3.940
 7024TIP3    H121036   3.248   6.723   4.029
 7024TIP3    H221037   3.202   6.691   3.888
 7025TIP3   OH221038   1.427   1.519   3.802
 7025TIP3    H121039   1.359   1.554   3.860
 7025TIP3    H221040   1.440   1.429   3.830
 7026TIP3   OH221041   5.603   5.235   0.362
 7026TIP3    H121042   5.662   5.160   0.357
 7026TIP3    H221043   5.625   5.278   0.445
 7027TIP3   OH221044   0.149   5.856   0.949
 7027TIP3    H121045   0.216   5.810   1.000
 7027TIP3    H221046   0.066   5.832   0.991
 7028TIP3   OH221047   3.304   1.780   5.805
 7028TIP3    H121048   3.305   1.722   5.881
 7028TIP3    H221049   3.383   1.834   5.815
 7029TIP3   OH221050   5.972   2.235   5.736
 7029TIP3    H121051   5.971   2.228   5.831
 7029TIP3    H221052   5.880   2.242   5.711
 7030TIP3   OH221053   1.488   1.196   0.125
 7030TIP3    H121054   1.454   1.201   0.036
 7030TIP3    H221055   1.499   1.103   0.142
 7031TIP3   OH221056   3.233   2.778   0.336
 7031TIP3    H121057   3.162   2.746   0.281
 7031TIP3    H221058   3.313   2.754   0.290
 7032TIP3   OH221059   3.886   3.631   0.621
 7032TIP3    H121060   3.947   3.559   0.602
 7032TIP3    H221061   3.799   3.591   0.615
 7033TIP3   OH221062   1.193   0.763   1.881
 7033TIP3    H121063   1.154   0.728   1.801
 7033TIP3    H221064   1.137   0.730   1.951
 7034TIP3   OH221065   4.329   5.858   2.043
 7034TIP3    H121066   4.342   5.863   1.948
 7034TIP3    H221067   4.408   5.813   2.074
 7035TIP3   OH221068   1.889   0.596   4.927
 7035TIP3    H121069   1.958   0.539   4.961
 7035TIP3    H221070   1.811   0.540   4.924
 7036TIP3   OH221071   3.915   6.496   3.570
 7036TIP3    H121072   3.990   6.507   3.629
 7036TIP3    H221073   3.952   6.456   3.491
 7037TIP3   OH221074   6.393   5.522   2.797
 7037TIP3    H121075   6.449   5.522   2.874
 7037TIP3    H221076   6.380   5.430   2.776
 7038TIP3   OH221077   0.843   5.137   0.480
 7038TIP3    H121078   0.814   5.210   0.535
 7038TIP3    H221079   0.765   5.081   0.471
 7039TIP3   OH221080   5.701   5.143   2.724
 7039TIP3    H121081   5.775   5.173   2.672
 7039TIP3    H221082   5.703   5.048   2.716
 7040TIP3   OH221083   1.419   4.221   3.462
 7040TIP3    H121084   1.396   4.132   3.435
 7040TIP3    H221085   1.497   4.242   3.411
 7041TIP3   OH221086   5.502   5.867   3.598
 7041TIP3    H121087   5.513   5.961   3.614
 7041TIP3    H221088   5.571   5.846   3.535
 7042TIP3   OH221089   0.165   0.509   5.048
 7042TIP3    H121090   0.204   0.438   4.997
 7042TIP3    H221091   0.135   0.572   4.982
 7043TIP3   OH221092   1.256   1.604   3.595
 7043TIP3    H121093   1.329   1.592   3.655
 7043TIP3    H221094   1.186   1.640   3.649
 7044TIP3   OH221095   5.728   5.366   4.221
 7044TIP3    H121096   5.810   5.316   4.215
 7044TIP3    H221097   5.669   5.308   4.269
 7045TIP3   OH221098   5.897   5.325   3.238
 7045TIP3    H121099   5.969   5.371   3.197
 7045TIP3    H221100   5.921   5.319   3.331
 7046TIP3   OH221101   7.028   4.019   4.266
 7046TIP3    H121102   7.091   4.090   4.277
 7046TIP3    H221103   7.076   3.952   4.217
 7047TIP3   OH221104   2.333   2.268   3.126
 7047TIP3    H121105   2.259   2.280   3.185
 7047TIP3    H221106   2.408   2.256   3.184
 7048TIP3   OH221107   6.036   3.272   1.791
 7048TIP3    H121108   6.033   3.281   1.696
 7048TIP3    H221109   6.036   3.362   1.824
 7049TIP3   OH221110   0.429   2.106   5.732
 7049TIP3    H121111   0.358   2.145   5.680
 7049TIP3    H221112   0.384   2.050   5.795
 7050TIP3   OH221113   2.772   6.442   1.730
 7050TIP3    H121114   2.706   6.501   1.693
 7050TIP3    H221115   2.725   6.361   1.749
 7051TIP3   OH221116   4.908   2.737   5.338
 7051TIP3    H121117   4.883   2.819   5.295
 7051TIP3    H221118   4.878   2.747   5.428
 7052TIP3   OH221119   3.045   4.166   2.638
 7052TIP3    H121120   2.960   4.192   2.601
 7052TIP3    H221121   3.035   4.073   2.657
 7053TIP3   OH221122   7.155   0.508   3.036
 7053TIP3    H121123   7.085   0.561   2.998
 7053TIP3    H221124   7.113   0.464   3.110
 7054TIP3   OH221125   2.385   0.344   3.087
 7054TIP3    H121126   2.293   0.368   3.097
 7054TIP3    H221127   2.433   0.424   3.108
 7055TIP3   OH221128   3.916   6.297   5.851
 7055TIP3    H121129   3.845   6.276   5.911
 7055TIP3    H221130   3.933   6.216   5.804
 7056TIP3   OH221131   4.025   3.325   0.465
 7056TIP3    H121132   4.107   3.296   0.504
 7056TIP3    H221133   4.046   3.408   0.422
 7057TIP3   OH221134   0.670   5.554   3.365
 7057TIP3    H121135   0.637   5.609   3.293
 7057TIP3    H221136   0.759   5.586   3.380
 7058TIP3   OH221137   0.251   6.350   5.066
 7058TIP3    H121138   0.331   6.299   5.049
 7058TIP3    H221139   0.227   6.328   5.156
 7059TIP3   OH221140   6.884   0.750   0.446
 7059TIP3    H121141   6.913   0.778   0.359
 7059TIP3    H221142   6.789   0.760   0.445
 7060TIP3   OH221143   0.200   0.072   2.160
 7060TIP3    H121144   0.125   0.025   2.195
 7060TIP3    H221145   0.234   0.122   2.234
 7061TIP3   OH221146   0.374   5.019   3.223
 7061TIP3    H121147   0.384   5.048   3.313
 7061TIP3    H221148   0.386   5.099   3.171
 7062TIP3   OH221149   6.288   4.157   4.243
 7062TIP3    H121150   6.274   4.063   4.259
 7062TIP3    H221151   6.303   4.163   4.149
 7063TIP3   OH221152   3.512   2.526   4.137
 7063TIP3    H121153   3.563   2.531   4.056
 7063TIP3    H221154   3.427   2.563   4.114
 7064TIP3   OH221155   0.631   5.843   5.097
 7064TIP3    H121156   0.579   5.889   5.031
 7064TIP3    H221157   0.655   5.911   5.160
 7065TIP3   OH221158   4.560   0.831   4.514
 7065TIP3    H121159   4.498   0.773   4.559
 7065TIP3    H221160   4.512   0.912   4.502
 7066TIP3   OH221161   6.818   5.099   5.174
 7066TIP3    H121162   6.827   5.005   5.159
 7066TIP3    H221163   6.723   5.114   5.180
 7067TIP3   OH221164   3.175   1.251   5.421
 7067TIP3    H121165   3.131   1.167   5.408
 7067TIP3    H221166   3.170   1.267   5.515
 7068TIP3   OH221167   2.666   6.381   1.227
 7068TIP3    H121168   2.633   6.369   1.316
 7068TIP3    H221169   2.606   6.445   1.188
 7069TIP3   OH221170   0.715   5.286   3.426
 7069TIP3    H121171   0.727   5.283   3.331
 7069TIP3    H221172   0.684   5.375   3.444
 7070TIP3   OH221173   4.043   6.413   0.115
 7070TIP3    H121174   3.975   6.406   0.181
 7070TIP3    H221175   3.999   6.392   0.032
 7071TIP3   OH221176   6.281   6.320   3.783
 7071TIP3    H121177   6.270   6.407   3.820
 7071TIP3    H221178   6.224   6.320   3.706
 7072TIP3   OH221179   5.051   6.314   3.749
 7072TIP3    H121180   4.996   6.371   3.803
 7072TIP3    H221181   5.138   6.356   3.751
 7073TIP3   OH221182   4.702   5.477   2.575
 7073TIP3    H121183   4.733   5.420   2.505
 7073TIP3    H221184   4.625   5.521   2.539
 7074TIP3   OH221185   6.507   6.524   2.444
 7074TIP3    H121186   6.490   6.618   2.434
 7074TIP3    H221187   6.422   6.483   2.428
 7075TIP3   OH221188   6.359   3.585   0.132
 7075TIP3    H121189   6.324   3.673   0.148
 7075TIP3    H221190   6.453   3.594   0.146
 7076TIP3   OH221191   2.962   4.889   5.428
 7076TIP3    H121192   2.986   4.953   5.362
 7076TIP3    H221193   2.911   4.824   5.380
 7077TIP3   OH221194   3.243   5.429   2.840
 7077TIP3    H121195   3.299   5.503   2.862
 7077TIP3    H221196   3.225   5.386   2.923
 7078TIP3   OH221197   3.562   1.715   0.315
 7078TIP3    H121198   3.608   1.654   0.373
 7078TIP3    H221199   3.488   1.664   0.282
 7079TIP3   OH221200   5.361   5.941   4.091
 7079TIP3    H121201   5.402   5.982   4.167
 7079TIP3    H221202   5.321   6.013   4.042
 7080TIP3   OH221203   3.444   1.538   4.152
 7080TIP3    H121204   3.366   1.543   4.096
 7080TIP3    H221205   3.438   1.451   4.193
 7081TIP3   OH221206   1.969   1.684   3.372
 7081TIP3    H121207   2.063   1.694   3.381
 7081TIP3    H221208   1.934   1.773   3.381
 7082TIP3   OH221209   2.513   0.202   5.415
 7082TIP3    H121210   2.445   0.252   5.461
 7082TIP3    H221211   2.573   0.174   5.484
 7083TIP3   OH221212   2.189   2.386   0.711
 7083TIP3    H121213   2.195   2.474   0.673
 7083TIP3    H221214   2.127   2.340   0.655
 7084TIP3   OH221215   0.447   4.589   2.795
 7084TIP3    H121216   0.378   4.654   2.788
 7084TIP3    H221217   0.402   4.504   2.793
 7085TIP3   OH221218   4.591   5.910   4.362
 7085TIP3    H121219   4.673   5.883   4.319
 7085TIP3    H221220   4.600   5.879   4.452
 7086TIP3   OH221221   4.134   1.968   1.975
 7086TIP3    H121222   4.158   2.020   2.051
 7086TIP3    H221223   4.154   1.878   2.001
 7087TIP3   OH221224   2.191   4.224   2.943
 7087TIP3    H121225   2.239   4.173   3.008
 7087TIP3    H221226   2.231   4.311   2.945
 7088TIP3   OH221227   3.844   5.488   3.580
 7088TIP3    H121228   3.827   5.563   3.523
 7088TIP3    H221229   3.931   5.457   3.555
 7089TIP3   OH221230   0.736   1.988   2.358
 7089TIP3    H121231   0.679   1.912   2.371
 7089TIP3    H221232   0.748   2.025   2.445
 7090TIP3   OH221233   0.190   0.316   4.722
 7090TIP3    H121234   0.239   0.313   4.640
 7090TIP3    H221235   0.247   0.361   4.783
 7091TIP3   OH221236   0.185   2.318   2.439
 7091TIP3    H121237   0.150   2.275   2.361
 7091TIP3    H221238   0.275   2.342   2.415
 7092TIP3   OH221239   3.361   5.644   4.605
 7092TIP3    H121240   3.450   5.649   4.569
 7092TIP3    H221241   3.305   5.674   4.533
 7093TIP3   OH221242   3.129   4.315   4.580
 7093TIP3    H121243   3.173   4.300   4.496
 7093TIP3    H221244   3.073   4.238   4.591
 7094TIP3   OH221245   1.184   5.923   1.191
 7094TIP3    H121246   1.238   5.932   1.113
 7094TIP3    H221247   1.171   5.829   1.201
 7095TIP3   OH221248   4.998   0.318   5.754
 7095TIP3    H121249   4.961   0.366   5.827
 7095TIP3    H221250   4.940   0.243   5.742
 7096TIP3   OH221251   4.762   0.254   5.900
 7096TIP3    H121252   4.826   0.202   5.949
 7096TIP3    H221253   4.776   0.229   5.808
 7097TIP3   OH221254   5.129   6.180   2.024
 7097TIP3    H121255   5.096   6.210   1.939
 7097TIP3    H221256   5.066   6.113   2.051
 7098TIP3   OH221257   4.688   5.964   3.678
 7098TIP3    H121258   4.624   5.955   3.607
 7098TIP3    H221259   4.761   5.908   3.651
 7099TIP3   OH221260   7.066   0.769   4.207
 7099TIP3    H121261   7.130   0.711   4.249
 7099TIP3    H221262   7.119   0.836   4.165
 7100TIP3   OH221263   0.146   4.103   5.727
 7100TIP3    H121264   0.052   4.121   5.734
 7100TIP3    H221265   0.183   4.184   5.690
 7101TIP3   OH221266   6.320   3.269   3.553
 7101TIP3    H121267   6.390   3.215   3.589
 7101TIP3    H221268   6.342   3.358   3.579
 7102TIP3   OH221269   4.360   0.447   4.844
 7102TIP3    H121270   4.338   0.391   4.770
 7102TIP3    H221271   4.433   0.501   4.813
 7103TIP3   OH221272   4.609   5.358   1.836
 7103TIP3    H121273   4.686   5.389   1.789
 7103TIP3    H221274   4.543   5.425   1.820
 7104TIP3   OH221275   1.115   1.832   5.061
 7104TIP3    H121276   1.185   1.856   5.121
 7104TIP3    H221277   1.137   1.743   5.032
 7105TIP3   OH221278   6.795   4.191   1.662
 7105TIP3    H121279   6.808   4.240   1.744
 7105TIP3    H221280   6.856   4.118   1.668
 7106TIP3   OH221281   1.779   6.736   5.803
 7106TIP3    H121282   1.755   6.645   5.790
 7106TIP3    H221283   1.733   6.784   5.734
 7107TIP3   OH221284   4.085   6.051   4.900
 7107TIP3    H121285   4.083   5.990   4.974
 7107TIP3    H221286   4.080   5.995   4.823
 7108TIP3   OH221287   3.108   6.803   2.685
 7108TIP3    H121288   3.109   6.788   2.591
 7108TIP3    H221289   3.184   6.754   2.718
 7109TIP3   OH221290   1.602   0.714   2.922
 7109TIP3    H121291   1.640   0.755   3.000
 7109TIP3    H221292   1.599   0.784   2.858
 7110TIP3   OH221293   0.594   5.879   0.936
 7110TIP3    H121294   0.578   5.891   0.843
 7110TIP3    H221295   0.611   5.786   0.947
 7111TIP3   OH221296   6.274   1.745   0.162
 7111TIP3    H121297   6.234   1.815   0.214
 7111TIP3    H221298   6.309   1.683   0.226
 7112TIP3   OH221299   4.423   1.480   5.047
 7112TIP3    H121300   4.484   1.419   5.088
 7112TIP3    H221301   4.378   1.523   5.119
 7113TIP3   OH221302   1.551   5.837   2.466
 7113TIP3    H121303   1.483   5.848   2.532
 7113TIP3    H221304   1.503   5.822   2.385
 7114TIP3   OH221305   1.543   3.054   5.320
 7114TIP3    H121306   1.592   3.126   5.361
 7114TIP3    H221307   1.518   2.998   5.394
 7115TIP3   OH221308   1.598   2.434   2.659
 7115TIP3    H121309   1.661   2.487   2.707
 7115TIP3    H221310   1.555   2.495   2.599
 7116TIP3   OH221311   1.134   5.408   3.927
 7116TIP3    H121312   1.118   5.500   3.947
 7116TIP3    H221313   1.117   5.362   4.010
 7117TIP3   OH221314   2.641   4.557   3.203
 7117TIP3    H121315   2.673   4.635   3.157
 7117TIP3    H221316   2.694   4.554   3.283
 7118TIP3   OH221317   3.559   3.981   5.292
 7118TIP3    H121318   3.502   3.904   5.298
 7118TIP3    H221319   3.624   3.968   5.361
 7119TIP3   OH221320   0.469   5.778   1.621
 7119TIP3    H121321   0.560   5.754   1.601
 7119TIP3    H221322   0.477   5.853   1.680
 7120TIP3   OH221323   3.779   4.399   0.133
 7120TIP3    H121324   3.710   4.407   0.199
 7120TIP3    H221325   3.807   4.308   0.139
 7121TIP3   OH221326   0.574   5.679   3.623
 7121TIP3    H121327   0.531   5.658   3.540
 7121TIP3    H221328   0.664   5.650   3.612
 7122TIP3   OH221329   2.947   2.456   1.576
 7122TIP3    H121330   2.924   2.367   1.549
 7122TIP3    H221331   2.917   2.512   1.505
 7123TIP3   OH221332   7.172   0.442   0.650
 7123TIP3    H121333   7.103   0.377   0.661
 7123TIP3    H221334   7.242   0.395   0.605
 7124TIP3   OH221335   2.010   3.019   4.852
 7124TIP3    H121336   2.004   2.944   4.794
 7124TIP3    H221337   2.056   3.086   4.801
 7125TIP3   OH221338   2.277   3.187   5.598
 7125TIP3    H121339   2.255   3.268   5.646
 7125TIP3    H221340   2.222   3.120   5.639
 7126TIP3   OH221341   1.444   6.001   4.418
 7126TIP3    H121342   1.422   5.969   4.330
 7126TIP3    H221343   1.468   5.923   4.467
 7127TIP3   OH221344   5.167   6.141   5.433
 7127TIP3    H121345   5.223   6.187   5.371
 7127TIP3    H221346   5.201   6.052   5.437
 7128TIP3   OH221347   2.942   1.867   3.366
 7128TIP3    H121348   2.941   1.934   3.434
 7128TIP3    H221349   2.994   1.796   3.404
 7129TIP3   OH221350   0.201   6.759   4.572
 7129TIP3    H121351   0.257   6.832   4.600
 7129TIP3    H221352   0.227   6.742   4.481
 7130TIP3   OH221353   0.274   0.093   3.962
 7130TIP3    H121354   0.225   0.171   3.935
 7130TIP3    H221355   0.366   0.120   3.957
 7131TIP3   OH221356   2.647   4.038   4.155
 7131TIP3    H121357   2.732   4.050   4.198
 7131TIP3    H221358   2.660   3.965   4.095
 7132TIP3   OH221359   2.043   4.048   2.163
 7132TIP3    H121360   2.078   4.124   2.117
 7132TIP3    H221361   2.061   3.974   2.105
 7133TIP3   OH221362   6.320   2.377   4.494
 7133TIP3    H121363   6.253   2.414   4.436
 7133TIP3    H221364   6.326   2.440   4.566
 7134TIP3   OH221365   4.704   2.981   4.182
 7134TIP3    H121366   4.785   2.945   4.218
 7134TIP3    H221367   4.732   3.061   4.137
 7135TIP3   OH221368   3.817   2.919   1.090
 7135TIP3    H121369   3.798   3.010   1.072
 7135TIP3    H221370   3.851   2.919   1.180
 7136TIP3   OH221371   3.539   6.763   3.113
 7136TIP3    H121372   3.478   6.705   3.159
 7136TIP3    H221373   3.539   6.732   3.023
 7137TIP3   OH221374   2.354   0.019   5.246
 7137TIP3    H121375   2.409  -0.035   5.302
 7137TIP3    H221376   2.387   0.108   5.259
 7138TIP3   OH221377   5.606   5.481   2.871
 7138TIP3    H121378   5.565   5.427   2.804
 7138TIP3    H221379   5.561   5.565   2.865
 7139TIP3   OH221380   6.547   6.036   3.490
 7139TIP3    H121381   6.515   6.068   3.574
 7139TIP3    H221382   6.559   5.942   3.503
 7140TIP3   OH221383   6.825   1.823   4.598
 7140TIP3    H121384   6.777   1.795   4.520
 7140TIP3    H221385   6.885   1.891   4.565
 7141TIP3   OH221386   5.889   4.007   4.691
 7141TIP3    H121387   5.982   4.008   4.669
 7141TIP3    H221388   5.848   3.958   4.619
 7142TIP3   OH221389   1.889   6.108   1.350
 7142TIP3    H121390   1.885   6.016   1.325
 7142TIP3    H221391   1.861   6.109   1.442
 7143TIP3   OH221392   1.663   3.119   1.466
 7143TIP3    H121393   1.614   3.191   1.505
 7143TIP3    H221394   1.681   3.060   1.539
 7144TIP3   OH221395   4.906   5.275   0.068
 7144TIP3    H121396   4.998   5.277   0.040
 7144TIP3    H221397   4.908   5.235   0.155
 7145TIP3   OH221398   5.481   2.127   1.553
 7145TIP3    H121399   5.447   2.038   1.566
 7145TIP3    H221400   5.465   2.145   1.461
 7146TIP3   OH221401   4.689   5.052   0.174
 7146TIP3    H121402   4.603   5.062   0.215
 7146TIP3    H221403   4.751   5.085   0.239
 7147TIP3   OH221404   2.098   3.204   2.746
 7147TIP3    H121405   2.122   3.117   2.779
 7147TIP3    H221406   2.103   3.195   2.650
 7148TIP3   OH221407   1.900   4.619   5.116
 7148TIP3    H121408   1.840   4.679   5.073
 7148TIP3    H221409   1.896   4.644   5.209
 7149TIP3   OH221410   5.287   3.292   5.422
 7149TIP3    H121411   5.369   3.342   5.419
 7149TIP3    H221412   5.221   3.352   5.387
 7150TIP3   OH221413   0.735   4.122   2.950
 7150TIP3    H121414   0.729   4.217   2.936
 7150TIP3    H221415   0.734   4.112   3.045
 7151TIP3   OH221416   5.297   6.744   4.466
 7151TIP3    H121417   5.323   6.697   4.545
 7151TIP3    H221418   5.329   6.833   4.479
 7152TIP3   OH221419   0.462   4.926   4.917
 7152TIP3    H121420   0.510   4.851   4.954
 7152TIP3    H221421   0.500   4.937   4.830
 7153TIP3   OH221422   2.382   6.645   1.153
 7153TIP3    H121423   2.415   6.731   1.127
 7153TIP3    H221424   2.367   6.599   1.071
 7154TIP3   OH221425   5.582   2.761   2.417
 7154TIP3    H121426   5.531   2.687   2.384
 7154TIP3    H221427   5.668   2.724   2.436
 7155TIP3   OH221428   0.624   1.542   2.539
 7155TIP3    H121429   0.561   1.506   2.602
 7155TIP3    H221430   0.581   1.530   2.454
 7156TIP3   OH221431   1.996   5.048   1.052
 7156TIP3    H121432   1.930   5.081   0.991
 7156TIP3    H221433   2.062   5.008   0.995
 7157TIP3   OH221434   3.927   0.787   5.635
 7157TIP3    H121435   3.995   0.855   5.633
 7157TIP3    H221436   3.929   0.755   5.725
 7158TIP3   OH221437   6.109   5.520   2.603
 7158TIP3    H121438   6.192   5.563   2.625
 7158TIP3    H221439   6.058   5.525   2.684
 7159TIP3   OH221440   4.469   4.726   3.815
 7159TIP3    H121441   4.442   4.791   3.880
 7159TIP3    H221442   4.396   4.664   3.811
 7160TIP3   OH221443   2.411   0.844   3.993
 7160TIP3    H121444   2.491   0.893   3.974
 7160TIP3    H221445   2.430   0.755   3.964
 7161TIP3   OH221446   4.229   5.096   0.601
 7161TIP3    H121447   4.295   5.045   0.554
 7161TIP3    H221448   4.251   5.187   0.581
 7162TIP3   OH221449   2.094   1.767   2.880
 7162TIP3    H121450   2.132   1.688   2.918
 7162TIP3    H221451   2.155   1.837   2.903
 7163TIP3   OH221452   6.499   6.128   4.256
 7163TIP3    H121453   6.588   6.154   4.235
 7163TIP3    H221454   6.443   6.189   4.208
 7164TIP3   OH221455   3.398   1.953   4.380
 7164TIP3    H121456   3.402   1.869   4.425
 7164TIP3    H221457   3.488   1.969   4.351
 7165TIP3   OH221458   3.667   2.088   2.295
 7165TIP3    H121459   3.760   2.077   2.277
 7165TIP3    H221460   3.639   2.156   2.234
 7166TIP3   OH221461   5.042   6.326   0.833
 7166TIP3    H121462   5.045   6.290   0.745
 7166TIP3    H221463   5.057   6.250   0.890
 7167TIP3   OH221464   0.997   2.281   0.979
 7167TIP3    H121465   1.062   2.288   1.049
 7167TIP3    H221466   0.964   2.191   0.986
 7168TIP3   OH221467   2.601   1.625   3.919
 7168TIP3    H121468   2.680   1.634   3.973
 7168TIP3    H221469   2.549   1.558   3.964
 7169TIP3   OH221470   0.598   0.355   4.808
 7169TIP3    H121471   0.659   0.293   4.847
 7169TIP3    H221472   0.652   0.416   4.758
 7170TIP3   OH221473   1.788   0.187   1.908
 7170TIP3    H121474   1.837   0.208   1.828
 7170TIP3    H221475   1.711   0.243   1.904
 7171TIP3   OH221476   7.144   2.803   2.586
 7171TIP3    H121477   7.145   2.728   2.645
 7171TIP3    H221478   7.200   2.776   2.513
 7172TIP3   OH221479   5.089   0.191   3.840
 7172TIP3    H121480   5.075   0.215   3.932
 7172TIP3    H221481   5.085   0.275   3.793
 7173TIP3   OH221482   1.751   0.019   2.142
 7173TIP3    H121483   1.762   0.083   2.072
 7173TIP3    H221484   1.830   0.025   2.194
 7174TIP3   OH221485   6.291   4.511   4.126
 7174TIP3    H121486   6.328   4.493   4.213
 7174TIP3    H221487   6.264   4.603   4.131
 7175TIP3   OH221488   6.022   6.716   0.339
 7175TIP3    H121489   6.079   6.708   0.415
 7175TIP3    H221490   6.008   6.810   0.330
 7176TIP3   OH221491   1.126   2.469   2.760
 7176TIP3    H121492   1.065   2.469   2.834
 7176TIP3    H221493   1.185   2.396   2.777
 7177TIP3   OH221494   2.029   5.163   1.310
 7177TIP3    H121495   2.026   5.101   1.237
 7177TIP3    H221496   2.096   5.128   1.369
 7178TIP3   OH221497   6.457   1.826   2.708
 7178TIP3    H121498   6.454   1.865   2.795
 7178TIP3    H221499   6.435   1.898   2.649
 7179TIP3   OH221500   6.176   4.554   3.733
 7179TIP3    H121501   6.133   4.473   3.703
 7179TIP3    H221502   6.248   4.523   3.788
 7180TIP3   OH221503   5.071   6.209   1.521
 7180TIP3    H121504   5.067   6.186   1.614
 7180TIP3    H221505   5.131   6.283   1.517
 7181TIP3   OH221506   0.220   6.062   4.354
 7181TIP3    H121507   0.210   6.000   4.281
 7181TIP3    H221508   0.312   6.057   4.378
 7182TIP3   OH221509   1.056   4.460   4.510
 7182TIP3    H121510   0.984   4.410   4.549
 7182TIP3    H221511   1.105   4.395   4.459
 7183TIP3   OH221512   6.279   2.656   2.924
 7183TIP3    H121513   6.323   2.574   2.945
 7183TIP3    H221514   6.265   2.698   3.008
 7184TIP3   OH221515   1.308   0.769   3.806
 7184TIP3    H121516   1.253   0.697   3.775
 7184TIP3    H221517   1.250   0.822   3.860
 7185TIP3   OH221518   3.765   0.667   3.751
 7185TIP3    H121519   3.804   0.624   3.827
 7185TIP3    H221520   3.817   0.747   3.740
 7186TIP3   OH221521   3.576   5.427   3.630
 7186TIP3    H121522   3.668   5.428   3.604
 7186TIP3    H221523   3.530   5.469   3.557
 7187TIP3   OH221524   0.816   5.661   4.944
 7187TIP3    H121525   0.762   5.710   5.006
 7187TIP3    H221526   0.789   5.692   4.858
 7188TIP3   OH221527   2.783   3.470   5.698
 7188TIP3    H121528   2.694   3.476   5.733
 7188TIP3    H221529   2.839   3.493   5.773
 7189TIP3   OH221530   2.649   5.011   3.307
 7189TIP3    H121531   2.732   4.967   3.289
 7189TIP3    H221532   2.611   4.961   3.379
 7190TIP3   OH221533   0.208   5.502   3.245
 7190TIP3    H121534   0.158   5.490   3.165
 7190TIP3    H221535   0.178   5.587   3.279
 7191TIP3   OH221536   0.688   3.902   4.699
 7191TIP3    H121537   0.721   3.813   4.693
 7191TIP3    H221538   0.645   3.906   4.785
 7192TIP3   OH221539   4.818   2.216   1.149
 7192TIP3    H121540   4.746   2.154   1.139
 7192TIP3    H221541   4.779   2.292   1.191
 7193TIP3   OH221542   4.553   1.764   5.289
 7193TIP3    H121543   4.591   1.696   5.234
 7193TIP3    H221544   4.614   1.773   5.362
 7194TIP3   OH221545   1.582   1.303   3.466
 7194TIP3    H121546   1.642   1.374   3.486
 7194TIP3    H221547   1.508   1.346   3.424
 7195TIP3   OH221548   6.397   3.339   5.167
 7195TIP3    H121549   6.453   3.392   5.110
 7195TIP3    H221550   6.361   3.401   5.231
 7196TIP3   OH221551   5.499   0.594   3.095
 7196TIP3    H121552   5.515   0.512   3.142
 7196TIP3    H221553   5.584   0.639   3.094
 7197TIP3   OH221554   5.802   5.002   0.077
 7197TIP3    H121555   5.796   4.908   0.057
 7197TIP3    H221556   5.790   5.006   0.172
 7198TIP3   OH221557   1.968   4.636   0.127
 7198TIP3    H121558   1.933   4.671   0.045
 7198TIP3    H221559   2.044   4.584   0.101
 7199TIP3   OH221560   5.991   1.830   3.829
 7199TIP3    H121561   6.021   1.767   3.895
 7199TIP3    H221562   6.045   1.908   3.845
 7200TIP3   OH221563   0.617   4.742   4.141
 7200TIP3    H121564   0.589   4.801   4.071
 7200TIP3    H221565   0.704   4.772   4.164
 7201TIP3   OH221566   7.071   4.078   4.683
 7201TIP3    H121567   7.020   4.042   4.611
 7201TIP3    H221568   7.006   4.123   4.737
 7202TIP3   OH221569   5.512   3.596   1.603
 7202TIP3    H121570   5.571   3.542   1.551
 7202TIP3    H221571   5.542   3.585   1.693
 7203TIP3   OH221572   1.162   3.880   1.726
 7203TIP3    H121573   1.087   3.882   1.786
 7203TIP3    H221574   1.238   3.895   1.782
 7204TIP3   OH221575   6.423   2.319   0.596
 7204TIP3    H121576   6.401   2.404   0.634
 7204TIP3    H221577   6.513   2.330   0.564
 7205TIP3   OH221578   3.710   1.685   5.533
 7205TIP3    H121579   3.682   1.635   5.456
 7205TIP3    H221580   3.636   1.679   5.594
 7206TIP3   OH221581   1.852   2.583   1.668
 7206TIP3    H121582   1.912   2.508   1.670
 7206TIP3    H221583   1.769   2.547   1.639
 7207TIP3   OH221584   3.752   0.412   5.067
 7207TIP3    H121585   3.770   0.506   5.067
 7207TIP3    H221586   3.755   0.387   5.159
 7208TIP3   OH221587   2.906   0.623   1.522
 7208TIP3    H121588   2.964   0.699   1.524
 7208TIP3    H221589   2.883   0.608   1.614
 7209TIP3   OH221590   3.521   6.063   2.954
 7209TIP3    H121591   3.455   6.035   3.016
 7209TIP3    H221592   3.473   6.110   2.886
 7210TIP3   OH221593   6.636   0.838   0.367
 7210TIP3    H121594   6.634   0.780   0.290
 7210TIP3    H221595   6.544   0.853   0.388
 7211TIP3   OH221596   0.678   2.566   3.675
 7211TIP3    H121597   0.744   2.520   3.727
 7211TIP3    H221598   0.629   2.618   3.739
 7212TIP3   OH221599   6.995   6.434   4.245
 7212TIP3    H121600   7.034   6.351   4.272
 7212TIP3    H221601   7.060   6.474   4.189
 7213TIP3   OH221602   6.710   2.541   1.267
 7213TIP3    H121603   6.735   2.450   1.281
 7213TIP3    H221604   6.715   2.580   1.354
 7214TIP3   OH221605   1.662   0.834   0.852
 7214TIP3    H121606   1.609   0.898   0.804
 7214TIP3    H221607   1.675   0.874   0.938
 7215TIP3   OH221608   1.779   2.329   1.969
 7215TIP3    H121609   1.799   2.237   1.947
 7215TIP3    H221610   1.798   2.336   2.062
 7216TIP3   OH221611   5.677   2.370   1.068
 7216TIP3    H121612   5.759   2.346   1.112
 7216TIP3    H221613   5.668   2.307   0.997
 7217TIP3   OH221614   0.299   6.495   4.413
 7217TIP3    H121615   0.290   6.582   4.375
 7217TIP3    H221616   0.373   6.502   4.473
 7218TIP3   OH221617   2.692   6.439   0.537
 7218TIP3    H121618   2.783   6.426   0.565
 7218TIP3    H221619   2.644   6.366   0.576
 7219TIP3   OH221620   4.671   0.499   0.850
 7219TIP3    H121621   4.696   0.584   0.884
 7219TIP3    H221622   4.577   0.506   0.832
 7220TIP3   OH221623   2.765   1.856   5.864
 7220TIP3    H121624   2.823   1.908   5.809
 7220TIP3    H221625   2.818   1.779   5.888
 7221TIP3   OH221626   1.877   5.839   5.818
 7221TIP3    H121627   1.838   5.764   5.865
 7221TIP3    H221628   1.938   5.799   5.756
 7222TIP3   OH221629   1.184   4.084   3.702
 7222TIP3    H121630   1.115   4.066   3.766
 7222TIP3    H221631   1.138   4.086   3.618
 7223TIP3   OH221632   3.434   3.335   4.197
 7223TIP3    H121633   3.464   3.426   4.192
 7223TIP3    H221634   3.339   3.341   4.192
 7224TIP3   OH221635   1.823   4.319   5.773
 7224TIP3    H121636   1.850   4.363   5.693
 7224TIP3    H221637   1.884   4.351   5.840
 7225TIP3   OH221638   4.031   0.251   4.808
 7225TIP3    H121639   4.040   0.276   4.900
 7225TIP3    H221640   3.955   0.299   4.777
 7226TIP3   OH221641   7.199   3.088   2.778
 7226TIP3    H121642   7.230   3.008   2.735
 7226TIP3    H221643   7.104   3.079   2.781
 7227TIP3   OH221644   3.951   2.570   3.230
 7227TIP3    H121645   4.043   2.555   3.252
 7227TIP3    H221646   3.941   2.532   3.143
 7228TIP3   OH221647   4.900   0.882   5.429
 7228TIP3    H121648   4.984   0.866   5.473
 7228TIP3    H221649   4.838   0.829   5.479
 7229TIP3   OH221650   1.843   4.674   4.093
 7229TIP3    H121651   1.762   4.623   4.098
 7229TIP3    H221652   1.907   4.622   4.142
 7230TIP3   OH221653   2.170   5.445   4.076
 7230TIP3    H121654   2.237   5.464   4.141
 7230TIP3    H221655   2.170   5.522   4.019
 7231TIP3   OH221656   5.774   6.350   0.880
 7231TIP3    H121657   5.796   6.337   0.972
 7231TIP3    H221658   5.847   6.403   0.845
 7232TIP3   OH221659   1.582   5.316   3.450
 7232TIP3    H121660   1.641   5.298   3.377
 7232TIP3    H221661   1.631   5.376   3.506
 7233TIP3   OH221662   5.162   5.137   1.961
 7233TIP3    H121663   5.154   5.095   2.047
 7233TIP3    H221664   5.155   5.230   1.978
 7234TIP3   OH221665   1.180   1.209   4.692
 7234TIP3    H121666   1.194   1.150   4.617
 7234TIP3    H221667   1.183   1.152   4.768
 7235TIP3   OH221668   5.678   4.164   3.867
 7235TIP3    H121669   5.607   4.221   3.898
 7235TIP3    H221670   5.754   4.192   3.917
 7236TIP3   OH221671   0.891   2.798   2.058
 7236TIP3    H121672   0.968   2.854   2.066
 7236TIP3    H221673   0.818   2.854   2.083
 7237TIP3   OH221674   0.808   0.416   3.226
 7237TIP3    H121675   0.885   0.459   3.262
 7237TIP3    H221676   0.777   0.476   3.157
 7238TIP3   OH221677   5.698   6.679   0.804
 7238TIP3    H121678   5.716   6.763   0.846
 7238TIP3    H221679   5.746   6.683   0.721
 7239TIP3   OH221680   0.172   4.987   0.005
 7239TIP3    H121681   0.267   4.971   0.008
 7239TIP3    H221682   0.165   5.078  -0.023
 7240TIP3   OH221683   4.748   0.552   5.786
 7240TIP3    H121684   4.698   0.472   5.772
 7240TIP3    H221685   4.752   0.562   5.881
 7241TIP3   OH221686   5.583   3.046   3.505
 7241TIP3    H121687   5.647   2.985   3.466
 7241TIP3    H221688   5.637   3.116   3.542
 7242TIP3   OH221689   2.073   2.350   5.764
 7242TIP3    H121690   1.996   2.407   5.765
 7242TIP3    H221691   2.038   2.262   5.757
 7243TIP3   OH221692   4.649   0.280   3.898
 7243TIP3    H121693   4.648   0.186   3.914
 7243TIP3    H221694   4.711   0.292   3.826
 7244TIP3   OH221695   3.352   3.891   5.033
 7244TIP3    H121696   3.372   3.903   4.940
 7244TIP3    H221697   3.364   3.978   5.071
 7245TIP3   OH221698   4.874   5.399   0.579
 7245TIP3    H121699   4.838   5.439   0.499
 7245TIP3    H221700   4.821   5.321   0.592
 7246TIP3   OH221701   0.070   0.525   2.687
 7246TIP3    H121702   0.085   0.442   2.643
 7246TIP3    H221703   0.134   0.585   2.650
 7247TIP3   OH221704   3.081   5.209   1.552
 7247TIP3    H121705   3.103   5.243   1.465
 7247TIP3    H221706   2.985   5.210   1.554
 7248TIP3   OH221707   3.078   0.060   3.488
 7248TIP3    H121708   3.100   0.094   3.575
 7248TIP3    H221709   3.154   0.007   3.464
 7249TIP3   OH221710   6.191   0.093   1.252
 7249TIP3    H121711   6.283   0.066   1.250
 7249TIP3    H221712   6.185   0.162   1.186
 7250TIP3   OH221713   0.194   0.045   0.695
 7250TIP3    H121714   0.105   0.029   0.725
 7250TIP3    H221715   0.195   0.014   0.605
 7251TIP3   OH221716   2.905   3.920   3.879
 7251TIP3    H121717   2.892   3.873   3.797
 7251TIP3    H221718   2.831   3.895   3.934
 7252TIP3   OH221719   5.441   3.612   4.306
 7252TIP3    H121720   5.366   3.552   4.297
 7252TIP3    H221721   5.517   3.559   4.280
 7253TIP3   OH221722   6.808   4.708   4.828
 7253TIP3    H121723   6.813   4.762   4.907
 7253TIP3    H221724   6.873   4.639   4.842
 7254TIP3   OH221725   0.106   2.967   5.261
 7254TIP3    H121726   0.029   2.982   5.316
 7254TIP3    H221727   0.173   2.938   5.322
 7255TIP3   OH221728   3.530   4.441   0.309
 7255TIP3    H121729   3.563   4.519   0.354
 7255TIP3    H221730   3.535   4.372   0.375
 7256TIP3   OH221731   0.137   3.562   0.199
 7256TIP3    H121732   0.138   3.527   0.288
 7256TIP3    H221733   0.176   3.649   0.207
 7257TIP3   OH221734   5.849   5.964   4.953
 7257TIP3    H121735   5.907   5.972   4.877
 7257TIP3    H221736   5.902   5.996   5.026
 7258TIP3   OH221737   5.587   6.628   5.544
 7258TIP3    H121738   5.647   6.585   5.482
 7258TIP3    H221739   5.591   6.721   5.520
 7259TIP3   OH221740   0.857   3.348   5.424
 7259TIP3    H121741   0.868   3.274   5.365
 7259TIP3    H221742   0.943   3.389   5.427
 7260TIP3   OH221743   5.031   1.880   5.878
 7260TIP3    H121744   5.095   1.855   5.812
 7260TIP3    H221745   5.082   1.929   5.943
 7261TIP3   OH221746   4.682   3.052   2.037
 7261TIP3    H121747   4.744   3.125   2.043
 7261TIP3    H221748   4.678   3.032   1.944
 7262TIP3   OH221749   3.213   1.479   4.939
 7262TIP3    H121750   3.207   1.453   4.847
 7262TIP3    H221751   3.239   1.399   4.985
 7263TIP3   OH221752   0.763   3.762   0.414
 7263TIP3    H121753   0.768   3.708   0.336
 7263TIP3    H221754   0.844   3.812   0.414
 7264TIP3   OH221755   7.081   2.985   2.284
 7264TIP3    H121756   7.144   2.917   2.260
 7264TIP3    H221757   6.999   2.958   2.243
 7265TIP3   OH221758   3.033   3.318   4.664
 7265TIP3    H121759   2.983   3.261   4.723
 7265TIP3    H221760   3.024   3.276   4.579
 7266TIP3   OH221761   3.817   0.022   3.953
 7266TIP3    H121762   3.870   0.102   3.955
 7266TIP3    H221763   3.737   0.048   3.907
 7267TIP3   OH221764   5.359   6.267   2.819
 7267TIP3    H121765   5.423   6.298   2.883
 7267TIP3    H221766   5.398   6.288   2.734
 7268TIP3   OH221767   0.335   1.856   5.842
 7268TIP3    H121768   0.282   1.834   5.919
 7268TIP3    H221769   0.274   1.849   5.769
 7269TIP3   OH221770   1.504   3.677   1.274
 7269TIP3    H121771   1.492   3.765   1.239
 7269TIP3    H221772   1.549   3.629   1.205
 7270TIP3   OH221773   3.201   0.278   5.293
 7270TIP3    H121774   3.126   0.267   5.351
 7270TIP3    H221775   3.277   0.260   5.348
 7271TIP3   OH221776   4.249   2.232   0.930
 7271TIP3    H121777   4.184   2.260   0.865
 7271TIP3    H221778   4.316   2.300   0.927
 7272TIP3   OH221779   4.736   4.395   2.084
 7272TIP3    H121780   4.658   4.404   2.138
 7272TIP3    H221781   4.808   4.381   2.146
 7273TIP3   OH221782   4.810   0.670   0.300
 7273TIP3    H121783   4.765   0.747   0.266
 7273TIP3    H221784   4.755   0.639   0.371
 7274TIP3   OH221785   4.389   6.787   2.665
 7274TIP3    H121786   4.407   6.741   2.747
 7274TIP3    H221787   4.449   6.747   2.602
 7275TIP3   OH221788   1.028   0.695   4.101
 7275TIP3    H121789   1.040   0.664   4.191
 7275TIP3    H221790   1.100   0.756   4.087
 7276TIP3   OH221791   4.548   1.954   3.407
 7276TIP3    H121792   4.494   1.878   3.427
 7276TIP3    H221793   4.493   2.009   3.351
 7277TIP3   OH221794   0.248   4.397   0.806
 7277TIP3    H121795   0.307   4.456   0.854
 7277TIP3    H221796   0.306   4.343   0.753
 7278TIP3   OH221797   2.806   0.876   5.733
 7278TIP3    H121798   2.782   0.802   5.677
 7278TIP3    H221799   2.732   0.936   5.727
 7279TIP3   OH221800   4.358   1.112   4.262
 7279TIP3    H121801   4.390   1.114   4.352
 7279TIP3    H221802   4.438   1.107   4.209
 7280TIP3   OH221803   4.533   2.490   0.233
 7280TIP3    H121804   4.489   2.440   0.302
 7280TIP3    H221805   4.599   2.542   0.280
 7281TIP3   OH221806   0.658   4.696   2.116
 7281TIP3    H121807   0.727   4.684   2.182
 7281TIP3    H221808   0.579   4.713   2.167
 7282TIP3   OH221809   3.503   2.169   3.789
 7282TIP3    H121810   3.458   2.249   3.816
 7282TIP3    H221811   3.507   2.116   3.869
 7283TIP3   OH221812   5.482   2.182   3.044
 7283TIP3    H121813   5.458   2.271   3.021
 7283TIP3    H221814   5.464   2.131   2.964
 7284TIP3   OH221815   5.175   0.524   0.247
 7284TIP3    H121816   5.216   0.609   0.228
 7284TIP3    H221817   5.109   0.513   0.179
 7285TIP3   OH221818   0.135   4.436   1.890
 7285TIP3    H121819   0.198   4.395   1.831
 7285TIP3    H221820   0.165   4.411   1.978
 7286TIP3   OH221821   3.934   0.059   0.276
 7286TIP3    H121822   3.915   0.142   0.321
 7286TIP3    H221823   3.848   0.022   0.257
 7287TIP3   OH221824   1.502   0.459   4.359
 7287TIP3    H121825   1.477   0.478   4.449
 7287TIP3    H221826   1.477   0.538   4.310
 7288TIP3   OH221827   0.481   1.408   2.754
 7288TIP3    H121828   0.518   1.440   2.836
 7288TIP3    H221829   0.393   1.379   2.778
 7289TIP3   OH221830   5.068   0.356   5.482
 7289TIP3    H121831   5.062   0.262   5.468
 7289TIP3    H221832   5.066   0.366   5.578
 7290TIP3   OH221833   4.486   3.582   2.690
 7290TIP3    H121834   4.507   3.609   2.601
 7290TIP3    H221835   4.569   3.554   2.728
 7291TIP3   OH221836   6.913   4.289   2.475
 7291TIP3    H121837   6.944   4.199   2.464
 7291TIP3    H221838   6.992   4.340   2.493
 7292TIP3   OH221839   1.349   6.067   1.698
 7292TIP3    H121840   1.404   6.137   1.664
 7292TIP3    H221841   1.315   6.023   1.621
 7293TIP3   OH221842   4.859   4.050   1.294
 7293TIP3    H121843   4.949   4.083   1.291
 7293TIP3    H221844   4.865   3.968   1.343
 7294TIP3   OH221845   4.330   0.720   3.967
 7294TIP3    H121846   4.360   0.708   4.058
 7294TIP3    H221847   4.397   0.677   3.914
 7295TIP3   OH221848   0.192   1.145   4.934
 7295TIP3    H121849   0.244   1.217   4.971
 7295TIP3    H221850   0.117   1.137   4.993
 7296TIP3   OH221851   6.472   0.028   1.172
 7296TIP3    H121852   6.489   0.111   1.129
 7296TIP3    H221853   6.529   0.029   1.250
 7297TIP3   OH221854   1.275   5.290   0.575
 7297TIP3    H121855   1.242   5.378   0.555
 7297TIP3    H221856   1.212   5.231   0.536
 7298TIP3   OH221857   1.035   4.921   0.497
 7298TIP3    H121858   1.092   4.926   0.420
 7298TIP3    H221859   0.996   5.008   0.504
 7299TIP3   OH221860   3.104   2.907   0.950
 7299TIP3    H121861   3.072   2.971   0.886
 7299TIP3    H221862   3.189   2.941   0.977
 7300TIP3   OH221863   5.496   5.766   4.760
 7300TIP3    H121864   5.555   5.762   4.835
 7300TIP3    H221865   5.408   5.757   4.798
 7301TIP3   OH221866   4.503   0.661   1.362
 7301TIP3    H121867   4.417   0.683   1.396
 7301TIP3    H221868   4.517   0.570   1.389
 7302TIP3   OH221869   7.233   5.536   0.236
 7302TIP3    H121870   7.203   5.461   0.184
 7302TIP3    H221871   7.196   5.612   0.191
 7303TIP3   OH221872   0.168   5.428   0.927
 7303TIP3    H121873   0.088   5.407   0.975
 7303TIP3    H221874   0.165   5.522   0.914
 7304TIP3   OH221875   0.196   3.540   2.142
 7304TIP3    H121876   0.130   3.471   2.148
 7304TIP3    H221877   0.220   3.559   2.233
 7305TIP3   OH221878   5.829   6.718   0.582
 7305TIP3    H121879   5.920   6.715   0.553
 7305TIP3    H221880   5.781   6.754   0.507
 7306TIP3   OH221881   5.430   2.684   3.091
 7306TIP3    H121882   5.437   2.721   3.003
 7306TIP3    H221883   5.371   2.609   3.080
 7307TIP3   OH221884   4.821   3.544   2.440
 7307TIP3    H121885   4.906   3.502   2.422
 7307TIP3    H221886   4.826   3.627   2.394
 7308TIP3   OH221887   5.972   0.496   1.777
 7308TIP3    H121888   5.918   0.442   1.720
 7308TIP3    H221889   6.056   0.451   1.781
 7309TIP3   OH221890   3.868   5.522   4.875
 7309TIP3    H121891   3.895   5.590   4.813
 7309TIP3    H221892   3.866   5.442   4.823
 7310TIP3   OH221893   3.662   6.752   5.745
 7310TIP3    H121894   3.750   6.729   5.718
 7310TIP3    H221895   3.636   6.683   5.806
 7311TIP3   OH221896   0.937   6.645   0.736
 7311TIP3    H121897   1.013   6.625   0.790
 7311TIP3    H221898   0.948   6.737   0.711
 7312TIP3   OH221899   0.199   2.253   3.332
 7312TIP3    H121900   0.187   2.275   3.424
 7312TIP3    H221901   0.174   2.332   3.285
 7313TIP3   OH221902   2.554   2.214   4.844
 7313TIP3    H121903   2.551   2.268   4.923
 7313TIP3    H221904   2.614   2.260   4.786
 7314TIP3   OH221905   2.899   2.398   0.738
 7314TIP3    H121906   2.924   2.315   0.778
 7314TIP3    H221907   2.979   2.451   0.743
 7315TIP3   OH221908   2.369   0.127   4.558
 7315TIP3    H121909   2.401   0.204   4.510
 7315TIP3    H221910   2.435   0.060   4.542
 7316TIP3   OH221911   1.439   1.602   1.181
 7316TIP3    H121912   1.520   1.626   1.225
 7316TIP3    H221913   1.395   1.543   1.242
 7317TIP3   OH221914   1.913   1.864   0.924
 7317TIP3    H121915   1.992   1.879   0.976
 7317TIP3    H221916   1.946   1.845   0.836
 7318TIP3   OH221917   1.831   0.218   5.554
 7318TIP3    H121918   1.765   0.266   5.603
 7318TIP3    H221919   1.911   0.271   5.562
 7319TIP3   OH221920   4.032   4.686   3.578
 7319TIP3    H121921   4.034   4.593   3.598
 7319TIP3    H221922   4.078   4.727   3.651
 7320TIP3   OH221923   5.123   1.120   5.151
 7320TIP3    H121924   5.208   1.162   5.135
 7320TIP3    H221925   5.129   1.035   5.107
 7321TIP3   OH221926   3.885   2.246   1.468
 7321TIP3    H121927   3.828   2.171   1.454
 7321TIP3    H221928   3.908   2.243   1.561
 7322TIP3   OH221929   3.717   1.615   4.255
 7322TIP3    H121930   3.625   1.597   4.237
 7322TIP3    H221931   3.749   1.662   4.178
 7323TIP3   OH221932   5.094   2.872   5.058
 7323TIP3    H121933   5.126   2.916   5.136
 7323TIP3    H221934   5.172   2.834   5.017
 7324TIP3   OH221935   6.154   2.640   1.190
 7324TIP3    H121936   6.247   2.620   1.181
 7324TIP3    H221937   6.130   2.685   1.109
 7325TIP3   OH221938   6.983   3.941   0.847
 7325TIP3    H121939   7.034   4.008   0.893
 7325TIP3    H221940   7.044   3.905   0.782
 7326TIP3   OH221941   2.162   1.078   3.211
 7326TIP3    H121942   2.222   1.038   3.148
 7326TIP3    H221943   2.186   1.039   3.295
 7327TIP3   OH221944   3.246   5.043   0.815
 7327TIP3    H121945   3.221   5.109   0.751
 7327TIP3    H221946   3.342   5.048   0.819
 7328TIP3   OH221947   1.639   4.049   4.662
 7328TIP3    H121948   1.570   4.052   4.729
 7328TIP3    H221949   1.602   3.995   4.593
 7329TIP3   OH221950   2.722   0.789   1.785
 7329TIP3    H121951   2.637   0.822   1.813
 7329TIP3    H221952   2.761   0.751   1.864
 7330TIP3   OH221953   1.241   3.214   0.559
 7330TIP3    H121954   1.334   3.198   0.545
 7330TIP3    H221955   1.232   3.309   0.554
 7331TIP3   OH221956   0.128   1.336   3.789
 7331TIP3    H121957   0.118   1.419   3.744
 7331TIP3    H221958   0.173   1.280   3.726
 7332TIP3   OH221959   5.987   3.901   2.716
 7332TIP3    H121960   5.961   3.907   2.624
 7332TIP3    H221961   5.954   3.982   2.755
 7333TIP3   OH221962   0.356   4.726   3.947
 7333TIP3    H121963   0.324   4.668   3.878
 7333TIP3    H221964   0.450   4.731   3.933
 7334TIP3   OH221965   2.416   2.760   4.274
 7334TIP3    H121966   2.352   2.725   4.212
 7334TIP3    H221967   2.442   2.844   4.237
 7335TIP3   OH221968   0.529   3.421   0.920
 7335TIP3    H121969   0.438   3.442   0.943
 7335TIP3    H221970   0.531   3.427   0.824
 7336TIP3   OH221971   4.294   4.462   2.542
 7336TIP3    H121972   4.221   4.521   2.563
 7336TIP3    H221973   4.278   4.385   2.597
 7337TIP3   OH221974   3.152   4.426   3.275
 7337TIP3    H121975   3.135   4.337   3.246
 7337TIP3    H221976   3.247   4.435   3.274
 7338TIP3   OH221977   6.762   6.178   4.670
 7338TIP3    H121978   6.796   6.146   4.587
 7338TIP3    H221979   6.782   6.272   4.669
 7339TIP3   OH221980   0.078   3.308   2.159
 7339TIP3    H121981   0.117   3.270   2.238
 7339TIP3    H221982   0.069   3.234   2.099
 7340TIP3   OH221983   1.042   1.484   5.737
 7340TIP3    H121984   0.972   1.432   5.696
 7340TIP3    H221985   1.001   1.520   5.816
 7341TIP3   OH221986   7.181   6.271   1.914
 7341TIP3    H121987   7.144   6.234   1.833
 7341TIP3    H221988   7.165   6.204   1.980
 7342TIP3   OH221989   2.575   5.039   1.647
 7342TIP3    H121990   2.510   5.038   1.717
 7342TIP3    H221991   2.525   5.018   1.568
 7343TIP3   OH221992   4.911   0.535   5.317
 7343TIP3    H121993   4.969   0.484   5.373
 7343TIP3    H221994   4.959   0.617   5.301
 7344TIP3   OH221995   1.337   2.408   0.389
 7344TIP3    H121996   1.399   2.410   0.316
 7344TIP3    H221997   1.339   2.316   0.418
 7345TIP3   OH221998   1.239   0.327   4.148
 7345TIP3    H121999   1.324   0.283   4.140
 7345TIP3    H222000   1.250   0.409   4.099
 7346TIP3   OH222001   6.431   5.392   1.205
 7346TIP3    H122002   6.431   5.357   1.116
 7346TIP3    H222003   6.453   5.484   1.195
 7347TIP3   OH222004   3.736   3.740   0.826
 7347TIP3    H122005   3.810   3.697   0.783
 7347TIP3    H222006   3.774   3.817   0.867
 7348TIP3   OH222007   4.162   6.171   0.661
 7348TIP3    H122008   4.231   6.143   0.600
 7348TIP3    H222009   4.193   6.141   0.747
 7349TIP3   OH222010   0.874   3.388   4.064
 7349TIP3    H122011   0.919   3.310   4.031
 7349TIP3    H222012   0.816   3.355   4.132
 7350TIP3   OH222013   3.894   1.818   0.893
 7350TIP3    H122014   3.910   1.824   0.987
 7350TIP3    H222015   3.829   1.748   0.885
 7351TIP3   OH222016   0.437   5.065   4.488
 7351TIP3    H122017   0.441   5.150   4.443
 7351TIP3    H222018   0.517   5.063   4.542
 7352TIP3   OH222019   3.511   1.138   3.031
 7352TIP3    H122020   3.482   1.219   2.988
 7352TIP3    H222021   3.534   1.079   2.959
 7353TIP3   OH222022   4.873   2.751   0.037
 7353TIP3    H122023   4.919   2.751  -0.047
 7353TIP3    H222024   4.793   2.703   0.020
 7354TIP3   OH222025   5.176   3.864   1.578
 7354TIP3    H122026   5.242   3.916   1.533
 7354TIP3    H222027   5.179   3.895   1.669
 7355TIP3   OH222028   4.010   6.133   1.640
 7355TIP3    H122029   3.930   6.082   1.634
 7355TIP3    H222030   4.070   6.092   1.578
 7356TIP3   OH222031   7.134   2.846   1.929
 7356TIP3    H122032   7.205   2.847   1.865
 7356TIP3    H222033   7.172   2.806   2.006
 7357TIP3   OH222034   5.281   5.682   5.193
 7357TIP3    H122035   5.336   5.655   5.266
 7357TIP3    H222036   5.277   5.777   5.199
 7358TIP3   OH222037   0.595   1.383   5.168
 7358TIP3    H122038   0.627   1.362   5.080
 7358TIP3    H222039   0.506   1.346   5.170
 7359TIP3   OH222040   0.526   0.130   3.366
 7359TIP3    H122041   0.501   0.221   3.349
 7359TIP3    H222042   0.469   0.078   3.309
 7360TIP3   OH222043   6.703   0.435   1.783
 7360TIP3    H122044   6.797   0.424   1.771
 7360TIP3    H222045   6.685   0.396   1.869
 7361TIP3   OH222046   5.548   5.566   0.810
 7361TIP3    H122047   5.591   5.625   0.872
 7361TIP3    H222048   5.591   5.583   0.726
 7362TIP3   OH222049   4.800   2.313   1.790
 7362TIP3    H122050   4.795   2.331   1.884
 7362TIP3    H222051   4.894   2.306   1.772
 7363TIP3   OH222052   4.521   2.637   5.731
 7363TIP3    H122053   4.448   2.593   5.688
 7363TIP3    H222054   4.600   2.597   5.693
 7364TIP3   OH222055   6.671   2.995   1.942
 7364TIP3    H122056   6.642   2.934   1.874
 7364TIP3    H222057   6.732   3.053   1.897
 7365TIP3   OH222058   6.031   2.188   4.237
 7365TIP3    H122059   5.981   2.246   4.180
 7365TIP3    H222060   5.967   2.123   4.267
 7366TIP3   OH222061   5.547   4.864   5.394
 7366TIP3    H122062   5.621   4.855   5.453
 7366TIP3    H222063   5.565   4.944   5.344
 7367TIP3   OH222064   2.453   2.310   0.211
 7367TIP3    H122065   2.390   2.251   0.170
 7367TIP3    H222066   2.420   2.322   0.300
 7368TIP3   OH222067   1.591   1.077   2.212
 7368TIP3    H122068   1.582   1.067   2.307
 7368TIP3    H222069   1.680   1.108   2.199
 7369TIP3   OH222070   2.041   6.254   4.961
 7369TIP3    H122071   2.073   6.284   4.876
 7369TIP3    H222072   2.111   6.198   4.994
 7370TIP3   OH222073   2.604   6.581   4.760
 7370TIP3    H122074   2.630   6.610   4.672
 7370TIP3    H222075   2.571   6.660   4.802
 7371TIP3   OH222076   1.556   2.810   4.602
 7371TIP3    H122077   1.644   2.848   4.609
 7371TIP3    H222078   1.535   2.815   4.509
 7372TIP3   OH222079   5.986   1.853   0.822
 7372TIP3    H122080   5.947   1.798   0.891
 7372TIP3    H222081   6.078   1.828   0.821
 7373TIP3   OH222082   4.446   6.630   1.431
 7373TIP3    H122083   4.394   6.561   1.390
 7373TIP3    H222084   4.534   6.592   1.439
 7374TIP3   OH222085   0.127   0.977   2.113
 7374TIP3    H122086   0.132   1.069   2.138
 7374TIP3    H222087   0.217   0.946   2.119
 7375TIP3   OH222088   0.165   2.986   2.356
 7375TIP3    H122089   0.182   3.074   2.391
 7375TIP3    H222090   0.096   2.999   2.291
 7376TIP3   OH222091   2.354   6.439   0.958
 7376TIP3    H122092   2.366   6.367   1.020
 7376TIP3    H222093   2.442   6.464   0.932
 7377TIP3   OH222094   7.018   3.028   0.950
 7377TIP3    H122095   7.024   2.949   1.003
 7377TIP3    H222096   7.109   3.053   0.932
 7378TIP3   OH222097   3.974   1.468   3.377
 7378TIP3    H122098   4.023   1.527   3.320
 7378TIP3    H222099   4.010   1.485   3.465
 7379TIP3   OH222100   0.711   1.330   4.936
 7379TIP3    H122101   0.800   1.298   4.943
 7379TIP3    H222102   0.704   1.364   4.847
 7380TIP3   OH222103   6.554   1.448   5.876
 7380TIP3    H122104   6.643   1.477   5.856
 7380TIP3    H222105   6.498   1.502   5.820
 7381TIP3   OH222106   7.139   1.479   1.994
 7381TIP3    H122107   7.091   1.551   2.035
 7381TIP3    H222108   7.086   1.402   2.013
 7382TIP3   OH222109   5.349   3.465   0.805
 7382TIP3    H122110   5.442   3.468   0.786
 7382TIP3    H222111   5.324   3.556   0.818
 7383TIP3   OH222112   3.182   3.940   2.295
 7383TIP3    H122113   3.238   3.990   2.354
 7383TIP3    H222114   3.140   3.875   2.352
 7384TIP3   OH222115   2.113   0.482   3.071
 7384TIP3    H122116   2.151   0.547   3.130
 7384TIP3    H222117   2.035   0.525   3.036
 7385TIP3   OH222118   5.577   1.864   5.537
 7385TIP3    H122119   5.526   1.931   5.582
 7385TIP3    H222120   5.605   1.805   5.607
 7386TIP3   OH222121   1.511   3.216   3.791
 7386TIP3    H122122   1.585   3.237   3.733
 7386TIP3    H222123   1.545   3.233   3.879
 7387TIP3   OH222124   5.253   5.075   2.694
 7387TIP3    H122125   5.314   5.148   2.690
 7387TIP3    H222126   5.249   5.052   2.787
 7388TIP3   OH222127   2.406   2.753   0.169
 7388TIP3    H122128   2.325   2.792   0.202
 7388TIP3    H222129   2.454   2.826   0.130
 7389TIP3   OH222130   2.992   1.869   0.092
 7389TIP3    H122131   2.973   1.785   0.132
 7389TIP3    H222132   2.999   1.850  -0.002
 7390TIP3   OH222133   6.837   2.075   4.264
 7390TIP3    H122134   6.895   2.075   4.188
 7390TIP3    H222135   6.761   2.025   4.236
 7391TIP3   OH222136   6.216   6.548   4.801
 7391TIP3    H122137   6.307   6.520   4.793
 7391TIP3    H222138   6.181   6.495   4.873
 7392TIP3   OH222139   4.851   6.654   2.316
 7392TIP3    H122140   4.894   6.573   2.342
 7392TIP3    H222141   4.854   6.709   2.395
 7393TIP3   OH222142   6.798   5.274   2.933
 7393TIP3    H122143   6.892   5.254   2.932
 7393TIP3    H222144   6.766   5.241   2.849
 7394TIP3   OH222145   5.545   4.125   1.555
 7394TIP3    H122146   5.473   4.184   1.533
 7394TIP3    H222147   5.509   4.037   1.542
 7395TIP3   OH222148   4.716   0.446   2.667
 7395TIP3    H122149   4.660   0.489   2.602
 7395TIP3    H222150   4.671   0.459   2.750
 7396TIP3   OH222151   5.179   5.234   0.372
 7396TIP3    H122152   5.176   5.328   0.355
 7396TIP3    H222153   5.189   5.227   0.467
 7397TIP3   OH222154   1.926   3.193   5.702
 7397TIP3    H122155   1.847   3.144   5.678
 7397TIP3    H222156   1.916   3.277   5.657
 7398TIP3   OH222157   0.622   0.661   3.924
 7398TIP3    H122158   0.547   0.694   3.972
 7398TIP3    H222159   0.584   0.608   3.853
 7399TIP3   OH222160   5.367   3.245   4.145
 7399TIP3    H122161   5.456   3.218   4.169
 7399TIP3    H222162   5.368   3.249   4.050
 7400TIP3   OH222163   3.627   0.393   4.158
 7400TIP3    H122164   3.714   0.381   4.121
 7400TIP3    H222165   3.643   0.422   4.248
 7401TIP3   OH222166   2.007   5.920   4.225
 7401TIP3    H122167   2.014   5.994   4.165
 7401TIP3    H222168   1.949   5.951   4.295
 7402TIP3   OH222169   2.090   2.337   2.301
 7402TIP3    H122170   2.170   2.334   2.249
 7402TIP3    H222171   2.045   2.415   2.270
 7403TIP3   OH222172   6.516   1.556   4.362
 7403TIP3    H122173   6.524   1.579   4.455
 7403TIP3    H222174   6.422   1.551   4.347
 7404TIP3   OH222175   4.728   0.194   1.415
 7404TIP3    H122176   4.812   0.239   1.409
 7404TIP3    H222177   4.698   0.185   1.324
 7405TIP3   OH222178   6.631   5.415   0.306
 7405TIP3    H122179   6.655   5.392   0.216
 7405TIP3    H222180   6.707   5.463   0.339
 7406TIP3   OH222181   3.431   0.825   0.942
 7406TIP3    H122182   3.398   0.748   0.896
 7406TIP3    H222183   3.366   0.893   0.925
 7407TIP3   OH222184   6.616   4.041   2.188
 7407TIP3    H122185   6.664   4.123   2.195
 7407TIP3    H222186   6.666   3.979   2.242
 7408TIP3   OH222187   5.598   1.054   4.428
 7408TIP3    H122188   5.606   1.010   4.344
 7408TIP3    H222189   5.682   1.096   4.442
 7409TIP3   OH222190   4.781   2.629   2.535
 7409TIP3    H122191   4.771   2.700   2.598
 7409TIP3    H222192   4.797   2.672   2.452
 7410TIP3   OH222193   1.664   3.590   2.319
 7410TIP3    H122194   1.681   3.578   2.413
 7410TIP3    H222195   1.750   3.583   2.278
 7411TIP3   OH222196   3.282   5.897   0.338
 7411TIP3    H122197   3.370   5.862   0.325
 7411TIP3    H222198   3.293   5.992   0.334
 7412TIP3   OH222199   3.125   0.018   3.846
 7412TIP3    H122200   3.216   0.031   3.873
 7412TIP3    H222201   3.074   0.065   3.912
 7413TIP3   OH222202   3.143   6.634   3.023
 7413TIP3    H122203   3.054   6.651   2.993
 7413TIP3    H222204   3.166   6.550   2.984
 7414TIP3   OH222205   5.228   1.310   3.717
 7414TIP3    H122206   5.171   1.378   3.680
 7414TIP3    H222207   5.257   1.346   3.801
 7415TIP3   OH222208   5.328   3.087   1.172
 7415TIP3    H122209   5.260   3.146   1.138
 7415TIP3    H222210   5.375   3.058   1.094
 7416TIP3   OH222211   2.753   2.183   3.197
 7416TIP3    H122212   2.724   2.093   3.182
 7416TIP3    H222213   2.848   2.176   3.210
 7417TIP3   OH222214   0.861   1.642   3.405
 7417TIP3    H122215   0.781   1.691   3.386
 7417TIP3    H222216   0.860   1.568   3.345
 7418TIP3   OH222217   1.830   5.980   1.625
 7418TIP3    H122218   1.864   6.049   1.682
 7418TIP3    H222219   1.831   5.902   1.680
 7419TIP3   OH222220   4.651   3.974   3.676
 7419TIP3    H122221   4.580   3.943   3.619
 7419TIP3    H222222   4.626   4.064   3.698
 7420TIP3   OH222223   2.180   3.323   0.194
 7420TIP3    H122224   2.244   3.328   0.265
 7420TIP3    H222225   2.112   3.385   0.219
 7421TIP3   OH222226   2.111   6.639   4.078
 7421TIP3    H122227   2.089   6.659   4.169
 7421TIP3    H222228   2.027   6.616   4.038
 7422TIP3   OH222229   0.211   4.745   4.174
 7422TIP3    H122230   0.289   4.724   4.122
 7422TIP3    H222231   0.139   4.706   4.124
 7423TIP3   OH222232   0.714   5.967   3.686
 7423TIP3    H122233   0.788   5.942   3.630
 7423TIP3    H222234   0.636   5.946   3.635
 7424TIP3   OH222235   4.814   5.651   4.355
 7424TIP3    H122236   4.907   5.671   4.363
 7424TIP3    H222237   4.773   5.698   4.428
 7425TIP3   OH222238   0.684   4.895   5.210
 7425TIP3    H122239   0.690   4.888   5.115
 7425TIP3    H222240   0.621   4.965   5.225
 7426TIP3   OH222241   0.810   4.842   4.779
 7426TIP3    H122242   0.774   4.896   4.849
 7426TIP3    H222243   0.817   4.755   4.817
 7427TIP3   OH222244   2.637   4.796   4.774
 7427TIP3    H122245   2.616   4.809   4.681
 7427TIP3    H222246   2.555   4.765   4.812
 7428TIP3   OH222247   2.407   4.157   3.242
 7428TIP3    H122248   2.428   4.245   3.212
 7428TIP3    H222249   2.449   4.150   3.328
 7429TIP3   OH222250   5.445  -0.040   1.671
 7429TIP3    H122251   5.423   0.019   1.743
 7429TIP3    H222252   5.362  -0.052   1.624
 7430TIP3   OH222253   6.642   3.475   5.646
 7430TIP3    H122254   6.618   3.553   5.596
 7430TIP3    H222255   6.581   3.474   5.720
 7431TIP3   OH222256   3.715   5.255   2.873
 7431TIP3    H122257   3.760   5.249   2.957
 7431TIP3    H222258   3.731   5.345   2.843
 7432TIP3   OH222259   2.515   4.717   2.538
 7432TIP3    H122260   2.491   4.806   2.565
 7432TIP3    H222261   2.540   4.673   2.619
 7433TIP3   OH222262   4.480   2.555   1.524
 7433TIP3    H122263   4.402   2.610   1.516
 7433TIP3    H222264   4.548   2.615   1.555
 7434TIP3   OH222265   1.324   0.975   5.711
 7434TIP3    H122266   1.311   1.023   5.630
 7434TIP3    H222267   1.383   1.030   5.762
 7435TIP3   OH222268   4.684   2.555   5.017
 7435TIP3    H122269   4.656   2.634   4.972
 7435TIP3    H222270   4.614   2.537   5.080
 7436TIP3   OH222271   6.050   2.809   1.005
 7436TIP3    H122272   6.075   2.865   0.931
 7436TIP3    H222273   6.040   2.869   1.078
 7437TIP3   OH222274   3.105   3.627   4.878
 7437TIP3    H122275   3.027   3.610   4.930
 7437TIP3    H222276   3.072   3.644   4.789
 7438TIP3   OH222277   2.260   2.405   3.375
 7438TIP3    H122278   2.344   2.365   3.354
 7438TIP3    H222279   2.278   2.500   3.371
 7439TIP3   OH222280   2.849   5.096   5.093
 7439TIP3    H122281   2.755   5.115   5.091
 7439TIP3    H222282   2.862   5.032   5.023
 7440TIP3   OH222283   1.253   0.386   1.035
 7440TIP3    H122284   1.251   0.316   1.100
 7440TIP3    H222285   1.258   0.341   0.950
 7441TIP3   OH222286   0.525   1.233   2.222
 7441TIP3    H122287   0.578   1.163   2.183
 7441TIP3    H222288   0.584   1.308   2.226
 7442TIP3   OH222289   6.372   1.412   1.205
 7442TIP3    H122290   6.294   1.462   1.230
 7442TIP3    H222291   6.391   1.441   1.116
 7443TIP3   OH222292   1.311   3.917   3.384
 7443TIP3    H122293   1.307   3.923   3.288
 7443TIP3    H222294   1.290   3.826   3.403
 7444TIP3   OH222295   2.430   6.317   1.707
 7444TIP3    H122296   2.514   6.313   1.753
 7444TIP3    H222297   2.388   6.233   1.727
 7445TIP3   OH222298   0.853   1.293   0.553
 7445TIP3    H122299   0.923   1.232   0.576
 7445TIP3    H222300   0.812   1.253   0.476
 7446TIP3   OH222301   1.238   4.939   5.924
 7446TIP3    H122302   1.293   4.982   5.989
 7446TIP3    H222303   1.277   4.964   5.840
 7447TIP3   OH222304   6.380   4.006   1.341
 7447TIP3    H122305   6.321   3.939   1.375
 7447TIP3    H222306   6.452   4.010   1.404
 7448TIP3   OH222307   4.819   6.684   3.512
 7448TIP3    H122308   4.808   6.708   3.604
 7448TIP3    H222309   4.742   6.721   3.468
 7449TIP3   OH222310   1.611   4.232   5.027
 7449TIP3    H122311   1.682   4.284   4.989
 7449TIP3    H222312   1.650   4.192   5.104
 7450TIP3   OH222313   0.421   5.138   3.459
 7450TIP3    H122314   0.459   5.226   3.461
 7450TIP3    H222315   0.334   5.148   3.497
 7451TIP3   OH222316   4.987   4.654   2.191
 7451TIP3    H122317   4.909   4.705   2.211
 7451TIP3    H222318   5.000   4.599   2.269
 7452TIP3   OH222319   3.488   2.765   5.005
 7452TIP3    H122320   3.548   2.710   4.955
 7452TIP3    H222321   3.545   2.816   5.063
 7453TIP3   OH222322   3.525   2.652   5.368
 7453TIP3    H122323   3.469   2.606   5.306
 7453TIP3    H222324   3.494   2.624   5.454
 7454TIP3   OH222325   2.838   1.968   0.665
 7454TIP3    H122326   2.778   2.015   0.607
 7454TIP3    H222327   2.860   2.031   0.733
 7455TIP3   OH222328   0.508   1.633   1.802
 7455TIP3    H122329   0.480   1.553   1.846
 7455TIP3    H222330   0.499   1.702   1.867
 7456TIP3   OH222331   2.127   5.448   4.856
 7456TIP3    H122332   2.211   5.491   4.875
 7456TIP3    H222333   2.067   5.520   4.837
 7457TIP3   OH222334   0.652   3.591   4.086
 7457TIP3    H122335   0.697   3.564   4.006
 7457TIP3    H222336   0.706   3.556   4.157
 7458TIP3   OH222337   5.748   3.249   3.530
 7458TIP3    H122338   5.809   3.183   3.498
 7458TIP3    H222339   5.752   3.319   3.465
 7459TIP3   OH222340   1.854   3.066   2.153
 7459TIP3    H122341   1.763   3.039   2.140
 7459TIP3    H222342   1.895   3.056   2.067
 7460TIP3   OH222343   2.607   1.267   4.341
 7460TIP3    H122344   2.688   1.309   4.370
 7460TIP3    H222345   2.547   1.339   4.326
 7461TIP3   OH222346   3.183   0.414   4.408
 7461TIP3    H122347   3.259   0.448   4.360
 7461TIP3    H222348   3.139   0.492   4.441
 7462TIP3   OH222349   1.626   3.956   5.457
 7462TIP3    H122350   1.684   3.969   5.533
 7462TIP3    H222351   1.574   3.879   5.481
 7463TIP3   OH222352   4.956   5.451   1.104
 7463TIP3    H122353   4.939   5.487   1.016
 7463TIP3    H222354   4.869   5.428   1.137
 7464TIP3   OH222355   5.747   1.416   0.320
 7464TIP3    H122356   5.744   1.509   0.296
 7464TIP3    H222357   5.661   1.382   0.296
 7465TIP3   OH222358   2.200   4.470   5.780
 7465TIP3    H122359   2.228   4.562   5.786
 7465TIP3    H222360   2.265   4.429   5.724
 7466TIP3   OH222361   0.236   5.878   4.144
 7466TIP3    H122362   0.295   5.806   4.123
 7466TIP3    H222363   0.151   5.852   4.107
 7467TIP3   OH222364   2.665   2.409   3.022
 7467TIP3    H122365   2.703   2.337   3.072
 7467TIP3    H222366   2.717   2.486   3.046
 7468TIP3   OH222367   6.225   0.789   0.951
 7468TIP3    H122368   6.265   0.855   0.894
 7468TIP3    H222369   6.172   0.736   0.893
 7469TIP3   OH222370   0.775   5.960   3.042
 7469TIP3    H122371   0.837   6.032   3.032
 7469TIP3    H222372   0.828   5.881   3.030
 7470TIP3   OH222373   5.689   0.966   2.941
 7470TIP3    H122374   5.753   1.033   2.965
 7470TIP3    H222375   5.742   0.889   2.920
 7471TIP3   OH222376   0.203   3.127   0.976
 7471TIP3    H122377   0.223   3.200   1.035
 7471TIP3    H222378   0.194   3.167   0.890
 7472TIP3   OH222379   5.214   4.016   5.513
 7472TIP3    H122380   5.119   4.015   5.501
 7472TIP3    H222381   5.243   4.092   5.463
 7473TIP3   OH222382   0.324   2.894   0.723
 7473TIP3    H122383   0.304   2.823   0.663
 7473TIP3    H222384   0.241   2.911   0.769
 7474TIP3   OH222385   0.071   1.398   0.894
 7474TIP3    H122386   0.148   1.403   0.837
 7474TIP3    H222387   0.106   1.394   0.983
 7475TIP3   OH222388   2.012   5.990   3.812
 7475TIP3    H122389   2.031   6.065   3.755
 7475TIP3    H222390   1.933   6.015   3.860
 7476TIP3   OH222391   1.288   2.813   0.163
 7476TIP3    H122392   1.235   2.824   0.084
 7476TIP3    H222393   1.257   2.731   0.201
 7477TIP3   OH222394   5.765   1.839   3.289
 7477TIP3    H122395   5.858   1.848   3.307
 7477TIP3    H222396   5.759   1.839   3.193
 7478TIP3   OH222397   1.477   1.396   3.019
 7478TIP3    H122398   1.460   1.326   3.082
 7478TIP3    H222399   1.404   1.391   2.958
 7479TIP3   OH222400   5.141   4.969   2.443
 7479TIP3    H122401   5.187   5.029   2.501
 7479TIP3    H222402   5.057   4.953   2.485
 7480TIP3   OH222403   3.263   1.859   4.673
 7480TIP3    H122404   3.342   1.808   4.655
 7480TIP3    H222405   3.262   1.869   4.768
 7481TIP3   OH222406   3.820   4.666   3.072
 7481TIP3    H122407   3.833   4.703   3.159
 7481TIP3    H222408   3.739   4.705   3.040
 7482TIP3   OH222409   5.879   0.850   3.482
 7482TIP3    H122410   5.914   0.936   3.508
 7482TIP3    H222411   5.785   0.856   3.499
 7483TIP3   OH222412   6.059   2.783   3.580
 7483TIP3    H122413   6.028   2.772   3.490
 7483TIP3    H222414   6.070   2.877   3.590
 7484TIP3   OH222415   6.528   1.364   1.748
 7484TIP3    H122416   6.566   1.293   1.799
 7484TIP3    H222417   6.473   1.320   1.682
 7485TIP3   OH222418   2.785   0.618   3.546
 7485TIP3    H122419   2.842   0.590   3.618
 7485TIP3    H222420   2.831   0.692   3.507
 7486TIP3   OH222421   6.571   6.643   1.560
 7486TIP3    H122422   6.539   6.730   1.584
 7486TIP3    H222423   6.577   6.596   1.644
 7487TIP3   OH222424   6.054   1.565   5.748
 7487TIP3    H122425   5.966   1.600   5.762
 7487TIP3    H222426   6.112   1.628   5.792
 7488TIP3   OH222427   3.526   0.052   1.948
 7488TIP3    H122428   3.586   0.033   2.020
 7488TIP3    H222429   3.504   0.144   1.958
 7489TIP3   OH222430   5.282   3.659   4.009
 7489TIP3    H122431   5.361   3.620   4.047
 7489TIP3    H222432   5.315   3.718   3.942
 7490TIP3   OH222433   2.034   2.306   3.227
 7490TIP3    H122434   2.033   2.361   3.149
 7490TIP3    H222435   2.083   2.358   3.291
 7491TIP3   OH222436   4.605   6.619   4.969
 7491TIP3    H122437   4.583   6.581   4.884
 7491TIP3    H222438   4.648   6.548   5.017
 7492TIP3   OH222439   4.965   1.126   0.504
 7492TIP3    H122440   4.930   1.067   0.436
 7492TIP3    H222441   4.995   1.067   0.573
 7493TIP3   OH222442   4.823   2.362   2.314
 7493TIP3    H122443   4.857   2.359   2.403
 7493TIP3    H222444   4.736   2.402   2.323
 7494TIP3   OH222445   5.371   6.052   2.025
 7494TIP3    H122446   5.283   6.088   2.031
 7494TIP3    H222447   5.416   6.108   1.961
 7495TIP3   OH222448   0.257   6.372   0.545
 7495TIP3    H122449   0.299   6.316   0.480
 7495TIP3    H222450   0.164   6.371   0.522
 7496TIP3   OH222451   0.102   1.205   5.516
 7496TIP3    H122452   0.085   1.210   5.610
 7496TIP3    H222453   0.031   1.151   5.481
 7497TIP3   OH222454   1.974   4.905   4.104
 7497TIP3    H122455   2.051   4.884   4.052
 7497TIP3    H222456   1.919   4.826   4.099
 7498TIP3   OH222457   5.662   6.439   1.361
 7498TIP3    H122458   5.717   6.440   1.439
 7498TIP3    H222459   5.709   6.494   1.298
 7499TIP3   OH222460   5.185   0.892   2.684
 7499TIP3    H122461   5.185   0.796   2.683
 7499TIP3    H222462   5.257   0.915   2.743
 7500TIP3   OH222463   3.182   3.922   3.747
 7500TIP3    H122464   3.106   3.932   3.805
 7500TIP3    H222465   3.257   3.926   3.806
 7501TIP3   OH222466   5.991   1.277   5.784
 7501TIP3    H122467   5.999   1.368   5.755
 7501TIP3    H222468   6.009   1.281   5.878
 7502TIP3   OH222469   6.545   1.523   0.002
 7502TIP3    H122470   6.638   1.498   0.007
 7502TIP3    H222471   6.513   1.480  -0.077
 7503TIP3   OH222472   2.573   5.804   0.944
 7503TIP3    H122473   2.542   5.763   1.024
 7503TIP3    H222474   2.565   5.898   0.960
 7504TIP3   OH222475   2.589   2.737   4.710
 7504TIP3    H122476   2.653   2.739   4.638
 7504TIP3    H222477   2.581   2.828   4.737
 7505TIP3   OH222478   1.056   1.831   3.406
 7505TIP3    H122479   1.000   1.755   3.422
 7505TIP3    H222480   1.045   1.851   3.313
 7506TIP3   OH222481   5.006   0.814   2.290
 7506TIP3    H122482   5.066   0.886   2.311
 7506TIP3    H222483   4.992   0.769   2.374
 7507TIP3   OH222484   0.765   5.074   4.952
 7507TIP3    H122485   0.734   5.164   4.965
 7507TIP3    H222486   0.831   5.061   5.020
 7508TIP3   OH222487   4.443   4.932   2.440
 7508TIP3    H122488   4.514   4.883   2.398
 7508TIP3    H222489   4.368   4.921   2.381
 7509TIP3   OH222490   2.848   5.341   3.630
 7509TIP3    H122491   2.890   5.266   3.673
 7509TIP3    H222492   2.812   5.305   3.549
 7510TIP3   OH222493   2.859   0.646   4.505
 7510TIP3    H122494   2.783   0.595   4.477
 7510TIP3    H222495   2.849   0.730   4.461
 7511TIP3   OH222496   7.144   0.874   2.273
 7511TIP3    H122497   7.176   0.907   2.188
 7511TIP3    H222498   7.095   0.795   2.252
 7512TIP3   OH222499   6.939   3.139   0.647
 7512TIP3    H122500   6.941   3.219   0.699
 7512TIP3    H222501   7.029   3.107   0.648
 7513TIP3   OH222502   0.992   2.211   5.400
 7513TIP3    H122503   1.076   2.251   5.422
 7513TIP3    H222504   0.952   2.272   5.338
 7514TIP3   OH222505   4.428   3.365   0.178
 7514TIP3    H122506   4.489   3.300   0.214
 7514TIP3    H222507   4.470   3.396   0.098
 7515TIP3   OH222508   1.321   1.174   3.499
 7515TIP3    H122509   1.392   1.237   3.509
 7515TIP3    H222510   1.258   1.197   3.567
 7516TIP3   OH222511   6.579   3.490   5.002
 7516TIP3    H122512   6.575   3.519   4.911
 7516TIP3    H222513   6.672   3.475   5.018
 7517TIP3   OH222514   1.494   6.295   1.644
 7517TIP3    H122515   1.443   6.367   1.606
 7517TIP3    H222516   1.585   6.315   1.620
 7518TIP3   OH222517   1.202   3.791   5.599
 7518TIP3    H122518   1.220   3.697   5.601
 7518TIP3    H222519   1.121   3.802   5.649
 7519TIP3   OH222520   0.085   5.093   0.276
 7519TIP3    H122521   0.157   5.052   0.227
 7519TIP3    H222522   0.046   5.021   0.326
 7520TIP3   OH222523   4.748   4.939   3.651
 7520TIP3    H122524   4.716   4.867   3.597
 7520TIP3    H222525   4.842   4.924   3.659
 7521TIP3   OH222526   2.198   4.634   4.245
 7521TIP3    H122527   2.119   4.637   4.299
 7521TIP3    H222528   2.267   4.604   4.304
 7522TIP3   OH222529   1.452   3.823   5.690
 7522TIP3    H122530   1.366   3.823   5.647
 7522TIP3    H222531   1.502   3.757   5.641
 7523TIP3   OH222532   3.965   3.148   2.197
 7523TIP3    H122533   3.978   3.058   2.225
 7523TIP3    H222534   3.877   3.150   2.161
 7524TIP3   OH222535   5.746   3.420   4.930
 7524TIP3    H122536   5.733   3.396   5.021
 7524TIP3    H222537   5.835   3.390   4.910
 7525TIP3   OH222538   3.628   6.173   2.565
 7525TIP3    H122539   3.627   6.090   2.517
 7525TIP3    H222540   3.667   6.236   2.504
 7526TIP3   OH222541   3.081   4.857   0.152
 7526TIP3    H122542   3.101   4.852   0.245
 7526TIP3    H222543   3.053   4.947   0.138
 7527TIP3   OH222544   3.994   2.642   1.254
 7527TIP3    H122545   3.935   2.694   1.199
 7527TIP3    H222546   4.040   2.585   1.192
 7528TIP3   OH222547   1.594   3.221   1.190
 7528TIP3    H122548   1.589   3.232   1.285
 7528TIP3    H222549   1.560   3.132   1.175
 7529TIP3   OH222550   6.131   6.115   2.445
 7529TIP3    H122551   6.089   6.166   2.376
 7529TIP3    H222552   6.225   6.122   2.426
 7530TIP3   OH222553   5.864   6.514   1.578
 7530TIP3    H122554   5.776   6.528   1.611
 7530TIP3    H222555   5.919   6.573   1.629
 7531TIP3   OH222556   3.072   2.712   0.131
 7531TIP3    H122557   3.080   2.777   0.061
 7531TIP3    H222558   3.034   2.636   0.087
 7532TIP3   OH222559   3.398   6.358   2.428
 7532TIP3    H122560   3.318   6.310   2.450
 7532TIP3    H222561   3.377   6.449   2.450
 7533TIP3   OH222562   3.110   1.154   2.069
 7533TIP3    H122563   3.198   1.190   2.082
 7533TIP3    H222564   3.063   1.222   2.020
 7534TIP3   OH222565   6.014   5.487   0.937
 7534TIP3    H122566   5.957   5.452   1.006
 7534TIP3    H222567   6.072   5.414   0.915
 7535TIP3   OH222568   6.789   0.041   0.655
 7535TIP3    H122569   6.758   0.131   0.667
 7535TIP3    H222570   6.803   0.008   0.744
 7536TIP3   OH222571   0.340   0.546   5.806
 7536TIP3    H122572   0.366   0.594   5.727
 7536TIP3    H222573   0.251   0.575   5.823
 7537TIP3   OH222574   4.791   4.434   0.482
 7537TIP3    H122575   4.802   4.507   0.421
 7537TIP3    H222576   4.879   4.396   0.490
 7538TIP3   OH222577   0.916   3.926   5.114
 7538TIP3    H122578   0.897   3.893   5.202
 7538TIP3    H222579   0.977   3.998   5.128
 7539TIP3   OH222580   0.757   3.069   1.694
 7539TIP3    H122581   0.769   3.142   1.632
 7539TIP3    H222582   0.707   3.107   1.766
 7540TIP3   OH222583   5.433   4.432   4.791
 7540TIP3    H122584   5.368   4.476   4.736
 7540TIP3    H222585   5.456   4.353   4.741
 7541TIP3   OH222586   4.209   6.206   1.842
 7541TIP3    H122587   4.259   6.241   1.768
 7541TIP3    H222588   4.135   6.159   1.801
 7542TIP3   OH222589   3.317   5.603   1.914
 7542TIP3    H122590   3.266   5.589   1.994
 7542TIP3    H222591   3.296   5.528   1.858
 7543TIP3   OH222592   2.210   3.272   2.145
 7543TIP3    H122593   2.218   3.342   2.210
 7543TIP3    H222594   2.206   3.192   2.197
 7544TIP3   OH222595   6.981   0.439   1.747
 7544TIP3    H122596   7.002   0.476   1.661
 7544TIP3    H222597   7.066   0.415   1.783
 7545TIP3   OH222598   4.181   3.042   3.813
 7545TIP3    H122599   4.148   2.954   3.833
 7545TIP3    H222600   4.105   3.099   3.819
 7546TIP3   OH222601   3.155   5.675   4.414
 7546TIP3    H122602   3.150   5.751   4.355
 7546TIP3    H222603   3.118   5.707   4.497
 7547TIP3   OH222604   0.772   4.808   3.759
 7547TIP3    H122605   0.866   4.826   3.766
 7547TIP3    H222606   0.742   4.866   3.689
 7548TIP3   OH222607   2.524   4.627   1.502
 7548TIP3    H122608   2.613   4.656   1.522
 7548TIP3    H222609   2.530   4.532   1.496
 7549TIP3   OH222610   5.218   3.819   3.478
 7549TIP3    H122611   5.233   3.913   3.472
 7549TIP3    H222612   5.127   3.807   3.450
 7550TIP3   OH222613   3.492   4.775   1.226
 7550TIP3    H122614   3.501   4.846   1.164
 7550TIP3    H222615   3.562   4.713   1.203
 7551TIP3   OH222616   1.117   4.458   3.121
 7551TIP3    H122617   1.172   4.406   3.062
 7551TIP3    H222618   1.158   4.447   3.207
 7552TIP3   OH222619   4.384   5.294   1.390
 7552TIP3    H122620   4.479   5.306   1.392
 7552TIP3    H222621   4.350   5.373   1.434
 7553TIP3   OH222622   2.287   0.995   5.647
 7553TIP3    H122623   2.380   0.978   5.662
 7553TIP3    H222624   2.277   1.088   5.669
 7554TIP3   OH222625   1.343   6.658   5.333
 7554TIP3    H122626   1.385   6.736   5.370
 7554TIP3    H222627   1.304   6.688   5.251
 7555TIP3   OH222628   5.046   5.507   4.919
 7555TIP3    H122629   5.090   5.464   4.992
 7555TIP3    H222630   4.984   5.442   4.887
 7556TIP3   OH222631   4.418   5.508   2.925
 7556TIP3    H122632   4.388   5.556   2.848
 7556TIP3    H222633   4.393   5.417   2.908
 7557TIP3   OH222634   4.301   1.233   0.489
 7557TIP3    H122635   4.391   1.264   0.484
 7557TIP3    H222636   4.260   1.266   0.408
 7558TIP3   OH222637   6.732   1.045   4.896
 7558TIP3    H122638   6.789   0.968   4.889
 7558TIP3    H222639   6.686   1.048   4.813
 7559TIP3   OH222640   4.177   3.299   4.927
 7559TIP3    H122641   4.127   3.271   4.850
 7559TIP3    H222642   4.116   3.289   5.000
 7560TIP3   OH222643   6.188   6.321   1.571
 7560TIP3    H122644   6.243   6.246   1.595
 7560TIP3    H222645   6.157   6.356   1.654
 7561TIP3   OH222646   1.085   0.570   0.194
 7561TIP3    H122647   1.053   0.637   0.134
 7561TIP3    H222648   1.066   0.487   0.149
 7562TIP3   OH222649   5.474   2.266   2.615
 7562TIP3    H122650   5.393   2.304   2.583
 7562TIP3    H222651   5.470   2.174   2.589
 7563TIP3   OH222652   1.982   6.575   2.699
 7563TIP3    H122653   2.068   6.616   2.693
 7563TIP3    H222654   1.946   6.605   2.782
 7564TIP3   OH222655   4.314   4.660   0.975
 7564TIP3    H122656   4.313   4.747   1.015
 7564TIP3    H222657   4.241   4.661   0.913
 7565TIP3   OH222658   7.062   4.938   5.748
 7565TIP3    H122659   7.035   4.911   5.835
 7565TIP3    H222660   7.064   5.034   5.752
 7566TIP3   OH222661   1.254   4.442   0.944
 7566TIP3    H122662   1.166   4.480   0.935
 7566TIP3    H222663   1.278   4.418   0.854
 7567TIP3   OH222664   2.841   2.851   5.542
 7567TIP3    H122665   2.796   2.924   5.500
 7567TIP3    H222666   2.934   2.873   5.536
 7568TIP3   OH222667   3.407   4.923   3.861
 7568TIP3    H122668   3.443   4.844   3.822
 7568TIP3    H222669   3.469   4.992   3.838
 7569TIP3   OH222670   0.275   2.000   3.614
 7569TIP3    H122671   0.246   2.003   3.522
 7569TIP3    H222672   0.340   1.930   3.616
 7570TIP3   OH222673   2.599   1.708   1.779
 7570TIP3    H122674   2.541   1.634   1.759
 7570TIP3    H222675   2.684   1.683   1.743
 7571TIP3   OH222676   5.945   5.610   5.532
 7571TIP3    H122677   5.962   5.575   5.620
 7571TIP3    H222678   6.016   5.673   5.518
 7572TIP3   OH222679   5.103   1.862   5.412
 7572TIP3    H122680   5.112   1.788   5.472
 7572TIP3    H222681   5.074   1.935   5.466
 7573TIP3   OH222682   5.700   6.163   1.279
 7573TIP3    H122683   5.693   6.143   1.372
 7573TIP3    H222684   5.721   6.256   1.276
 7574TIP3   OH222685   3.560   0.813   2.580
 7574TIP3    H122686   3.594   0.783   2.665
 7574TIP3    H222687   3.622   0.881   2.553
 7575TIP3   OH222688   0.031   5.331   5.612
 7575TIP3    H122689  -0.056   5.294   5.628
 7575TIP3    H222690   0.025   5.370   5.525
 7576TIP3   OH222691   1.243   3.963   4.646
 7576TIP3    H122692   1.267   3.886   4.697
 7576TIP3    H222693   1.153   3.983   4.673
 7577TIP3   OH222694   2.569   0.606   1.609
 7577TIP3    H122695   2.657   0.640   1.617
 7577TIP3    H222696   2.558   0.589   1.515
 7578TIP3   OH222697   0.316   4.465   1.650
 7578TIP3    H122698   0.391   4.410   1.626
 7578TIP3    H222699   0.350   4.522   1.719
 7579TIP3   OH222700   4.180   0.942   2.240
 7579TIP3    H122701   4.185   0.850   2.267
 7579TIP3    H222702   4.201   0.940   2.147
 7580TIP3   OH222703   6.779   2.752   0.911
 7580TIP3    H122704   6.864   2.724   0.876
 7580TIP3    H222705   6.744   2.812   0.845
 7581TIP3   OH222706   7.176   4.916   3.239
 7581TIP3    H122707   7.168   4.858   3.316
 7581TIP3    H222708   7.219   4.994   3.272
 7582TIP3   OH222709   0.684   5.789   0.111
 7582TIP3    H122710   0.724   5.875   0.127
 7582TIP3    H222711   0.653   5.760   0.197
 7583TIP3   OH222712   4.232   4.899   4.257
 7583TIP3    H122713   4.144   4.934   4.247
 7583TIP3    H222714   4.281   4.933   4.182
 7584TIP3   OH222715   3.293   3.458   2.960
 7584TIP3    H122716   3.299   3.405   3.040
 7584TIP3    H222717   3.199   3.470   2.947
 7585TIP3   OH222718   5.098   3.221  -0.039
 7585TIP3    H122719   5.049   3.153   0.008
 7585TIP3    H222720   5.079   3.203  -0.132
 7586TIP3   OH222721   0.972   0.033   5.186
 7586TIP3    H122722   1.011   0.102   5.132
 7586TIP3    H222723   0.958   0.074   5.271
 7587TIP3   OH222724   4.905   3.219   2.135
 7587TIP3    H122725   4.970   3.212   2.204
 7587TIP3    H222726   4.950   3.265   2.063
 7588TIP3   OH222727   0.632   4.389   2.263
 7588TIP3    H122728   0.711   4.429   2.301
 7588TIP3    H222729   0.560   4.445   2.294
 7589TIP3   OH222730   0.212   4.394   4.145
 7589TIP3    H122731   0.287   4.441   4.183
 7589TIP3    H222732   0.148   4.463   4.127
 7590TIP3   OH222733   5.663   3.484   0.947
 7590TIP3    H122734   5.673   3.566   0.897
 7590TIP3    H222735   5.737   3.484   1.007
 7591TIP3   OH222736   5.097   4.927   2.147
 7591TIP3    H122737   5.094   4.834   2.124
 7591TIP3    H222738   5.087   4.929   2.242
 7592TIP3   OH222739   5.821   0.581   0.069
 7592TIP3    H122740   5.761   0.568   0.142
 7592TIP3    H222741   5.864   0.665   0.088
 7593TIP3   OH222742   5.086   3.581   4.471
 7593TIP3    H122743   5.144   3.525   4.419
 7593TIP3    H222744   5.143   3.615   4.540
 7594TIP3   OH222745   6.501   5.743   2.293
 7594TIP3    H122746   6.487   5.744   2.199
 7594TIP3    H222747   6.592   5.773   2.304
 7595TIP3   OH222748   0.299   3.945   3.902
 7595TIP3    H122749   0.385   3.954   3.943
 7595TIP3    H222750   0.250   3.889   3.962
 7596TIP3   OH222751   7.080   4.423   4.933
 7596TIP3    H122752   6.996   4.378   4.935
 7596TIP3    H222753   7.118   4.399   4.848
 7597TIP3   OH222754   4.905   5.933   1.683
 7597TIP3    H122755   4.999   5.919   1.675
 7597TIP3    H222756   4.894   6.027   1.678
 7598TIP3   OH222757   1.293   4.752   1.686
 7598TIP3    H122758   1.244   4.822   1.644
 7598TIP3    H222759   1.381   4.787   1.697
 7599TIP3   OH222760   6.320   2.551   0.666
 7599TIP3    H122761   6.334   2.597   0.749
 7599TIP3    H222762   6.281   2.617   0.608
 7600TIP3   OH222763   1.547   0.211   0.983
 7600TIP3    H122764   1.614   0.245   0.923
 7600TIP3    H222765   1.572   0.245   1.069
 7601TIP3   OH222766   5.491   3.936   5.560
 7601TIP3    H122767   5.408   3.980   5.538
 7601TIP3    H222768   5.501   3.868   5.494
 7602TIP3   OH222769   0.338   4.255   1.155
 7602TIP3    H122770   0.407   4.255   1.221
 7602TIP3    H222771   0.377   4.211   1.079
 7603TIP3   OH222772   5.687   6.510   2.832
 7603TIP3    H122773   5.779   6.489   2.812
 7603TIP3    H222774   5.637   6.459   2.770
 7604TIP3   OH222775   0.153   1.642   0.179
 7604TIP3    H122776   0.094   1.684   0.241
 7604TIP3    H222777   0.098   1.621   0.103
 7605TIP3   OH222778   4.573   5.306   0.082
 7605TIP3    H122779   4.663   5.287   0.056
 7605TIP3    H222780   4.536   5.354   0.007
 7606TIP3   OH222781   5.596   3.679   2.616
 7606TIP3    H122782   5.613   3.759   2.666
 7606TIP3    H222783   5.647   3.611   2.661
 7607TIP3   OH222784   6.997   0.382   5.787
 7607TIP3    H122785   7.050   0.330   5.846
 7607TIP3    H222786   6.907   0.355   5.806
 7608TIP3   OH222787   0.294   1.396   0.727
 7608TIP3    H122788   0.279   1.318   0.674
 7608TIP3    H222789   0.358   1.368   0.793
 7609TIP3   OH222790   0.397   3.922   3.548
 7609TIP3    H122791   0.386   3.997   3.489
 7609TIP3    H222792   0.335   3.938   3.619
 7610TIP3   OH222793   3.313   3.364   4.498
 7610TIP3    H122794   3.342   3.363   4.589
 7610TIP3    H222795   3.383   3.320   4.450
 7611TIP3   OH222796   0.385   0.892   2.079
 7611TIP3    H122797   0.435   0.828   2.128
 7611TIP3    H222798   0.437   0.972   2.084
 7612TIP3   OH222799   0.977   2.470   1.438
 7612TIP3    H122800   0.965   2.383   1.475
 7612TIP3    H222801   0.898   2.517   1.464
 7613TIP3   OH222802   5.659   0.647   2.251
 7613TIP3    H122803   5.620   0.560   2.261
 7613TIP3    H222804   5.686   0.651   2.159
 7614TIP3   OH222805   5.414   0.197   1.061
 7614TIP3    H122806   5.436   0.287   1.034
 7614TIP3    H222807   5.470   0.181   1.136
 7615TIP3   OH222808   6.496   6.555   2.977
 7615TIP3    H122809   6.466   6.466   2.958
 7615TIP3    H222810   6.489   6.601   2.894
 7616TIP3   OH222811   3.193   5.867   2.065
 7616TIP3    H122812   3.280   5.853   2.027
 7616TIP3    H222813   3.188   5.805   2.137
 7617TIP3   OH222814   4.940   2.693   1.010
 7617TIP3    H122815   4.985   2.778   1.005
 7617TIP3    H222816   5.009   2.631   1.032
 7618TIP3   OH222817   2.221   5.833   3.131
 7618TIP3    H122818   2.179   5.791   3.056
 7618TIP3    H222819   2.168   5.911   3.147
 7619TIP3   OH222820   3.935   1.227   0.550
 7619TIP3    H122821   3.885   1.200   0.627
 7619TIP3    H222822   3.868   1.254   0.487
 7620TIP3   OH222823   3.013   4.946   4.259
 7620TIP3    H122824   3.054   4.895   4.329
 7620TIP3    H222825   3.084   4.966   4.199
 7621TIP3   OH222826   5.502   1.145   3.274
 7621TIP3    H122827   5.512   1.210   3.205
 7621TIP3    H222828   5.422   1.097   3.250
 7622TIP3   OH222829   5.239   6.020   2.754
 7622TIP3    H122830   5.297   5.991   2.684
 7622TIP3    H222831   5.283   6.096   2.792
 7623TIP3   OH222832   0.325   2.564   0.066
 7623TIP3    H122833   0.381   2.509   0.011
 7623TIP3    H222834   0.308   2.511   0.144
 7624TIP3   OH222835   7.105   2.893   4.565
 7624TIP3    H122836   7.125   2.986   4.553
 7624TIP3    H222837   7.157   2.849   4.498
 7625TIP3   OH222838   4.090   5.918   4.684
 7625TIP3    H122839   4.021   5.940   4.622
 7625TIP3    H222840   4.171   5.941   4.639
 7626TIP3   OH222841   4.411   6.780   0.919
 7626TIP3    H122842   4.405   6.861   0.970
 7626TIP3    H222843   4.433   6.713   0.984
 7627TIP3   OH222844   3.903   5.703   1.496
 7627TIP3    H122845   3.814   5.736   1.499
 7627TIP3    H222846   3.928   5.694   1.588
 7628TIP3   OH222847   4.223   0.681   5.436
 7628TIP3    H122848   4.146   0.626   5.419
 7628TIP3    H222849   4.297   0.621   5.425
 7629TIP3   OH222850   7.032   6.157   1.714
 7629TIP3    H122851   7.104   6.094   1.706
 7629TIP3    H222852   6.969   6.114   1.772
 7630TIP3   OH222853   5.506   4.226   2.744
 7630TIP3    H122854   5.444   4.294   2.769
 7630TIP3    H222855   5.521   4.242   2.650
 7631TIP3   OH222856   3.746   5.895   1.998
 7631TIP3    H122857   3.829   5.891   1.950
 7631TIP3    H222858   3.757   5.834   2.071
 7632TIP3   OH222859   1.812   1.323   5.404
 7632TIP3    H122860   1.882   1.305   5.466
 7632TIP3    H222861   1.734   1.283   5.442
 7633TIP3   OH222862   3.339   2.848   4.024
 7633TIP3    H122863   3.369   2.813   4.107
 7633TIP3    H222864   3.278   2.918   4.047
 7634TIP3   OH222865   5.272   5.974   5.210
 7634TIP3    H122866   5.288   5.971   5.116
 7634TIP3    H222867   5.291   6.065   5.234
 7635TIP3   OH222868   4.994   0.682   0.526
 7635TIP3    H122869   5.066   0.674   0.463
 7635TIP3    H222870   4.915   0.666   0.474
 7636TIP3   OH222871   1.433   0.896   2.547
 7636TIP3    H122872   1.344   0.927   2.560
 7636TIP3    H222873   1.486   0.975   2.540
 7637TIP3   OH222874   2.686   5.841   4.130
 7637TIP3    H122875   2.608   5.804   4.172
 7637TIP3    H222876   2.757   5.823   4.192
 7638TIP3   OH222877   4.339   6.299   1.626
 7638TIP3    H122878   4.382   6.231   1.574
 7638TIP3    H222879   4.314   6.365   1.561
 7639TIP3   OH222880   4.557   1.700   4.581
 7639TIP3    H122881   4.485   1.690   4.519
 7639TIP3    H222882   4.517   1.683   4.666
 7640TIP3   OH222883   2.062   1.457   5.018
 7640TIP3    H122884   2.083   1.365   4.999
 7640TIP3    H222885   2.077   1.465   5.112
 7641TIP3   OH222886   3.450   6.222   4.526
 7641TIP3    H122887   3.380   6.160   4.545
 7641TIP3    H222888   3.425   6.261   4.443
 7642TIP3   OH222889   0.521   2.270   1.430
 7642TIP3    H122890   0.476   2.294   1.511
 7642TIP3    H222891   0.491   2.181   1.412
 7643TIP3   OH222892   4.557   1.405   0.084
 7643TIP3    H122893   4.509   1.488   0.089
 7643TIP3    H222894   4.504   1.350   0.027
 7644TIP3   OH222895   1.185   5.251   1.123
 7644TIP3    H122896   1.260   5.195   1.104
 7644TIP3    H222897   1.210   5.337   1.088
 7645TIP3   OH222898   1.956   1.396   1.834
 7645TIP3    H122899   1.952   1.480   1.790
 7645TIP3    H222900   2.050   1.377   1.841
 7646TIP3   OH222901   5.200   5.472   4.544
 7646TIP3    H122902   5.167   5.383   4.557
 7646TIP3    H222903   5.295   5.462   4.544
 7647TIP3   OH222904   5.604   4.221   3.012
 7647TIP3    H122905   5.578   4.225   2.920
 7647TIP3    H222906   5.609   4.313   3.039
 7648TIP3   OH222907   0.769   5.830   1.553
 7648TIP3    H122908   0.785   5.894   1.484
 7648TIP3    H222909   0.738   5.883   1.627
 7649TIP3   OH222910   5.687   0.453   4.009
 7649TIP3    H122911   5.710   0.361   3.996
 7649TIP3    H222912   5.612   0.450   4.068
 7650TIP3   OH222913   0.298   3.785   5.625
 7650TIP3    H122914   0.286   3.732   5.547
 7650TIP3    H222915   0.229   3.756   5.685
 7651TIP3   OH222916   3.083   0.964   0.147
 7651TIP3    H122917   3.086   0.901   0.220
 7651TIP3    H222918   3.016   0.928   0.088
 7652TIP3   OH222919   6.409   2.637   3.444
 7652TIP3    H122920   6.396   2.582   3.367
 7652TIP3    H222921   6.354   2.598   3.511
 7653TIP3   OH222922   1.135   2.903   0.868
 7653TIP3    H122923   1.099   2.961   0.800
 7653TIP3    H222924   1.140   2.817   0.826
 7654TIP3   OH222925   2.969   1.670   0.708
 7654TIP3    H122926   2.911   1.744   0.692
 7654TIP3    H222927   3.013   1.691   0.791
 7655TIP3   OH222928   1.456   4.873   5.444
 7655TIP3    H122929   1.383   4.829   5.487
 7655TIP3    H222930   1.417   4.950   5.402
 7656TIP3   OH222931   0.888   5.008   3.124
 7656TIP3    H122932   0.804   4.971   3.099
 7656TIP3    H222933   0.914   4.959   3.202
 7657TIP3   OH222934   5.774   4.537   4.630
 7657TIP3    H122935   5.846   4.588   4.667
 7657TIP3    H222936   5.702   4.599   4.623
 7658TIP3   OH222937   5.025   5.520   3.514
 7658TIP3    H122938   5.109   5.532   3.471
 7658TIP3    H222939   4.962   5.513   3.441
 7659TIP3   OH222940   1.253   3.111   4.947
 7659TIP3    H122941   1.170   3.089   4.988
 7659TIP3    H222942   1.307   3.145   5.018
 7660TIP3   OH222943   1.841   3.047   1.270
 7660TIP3    H122944   1.798   3.002   1.197
 7660TIP3    H222945   1.768   3.087   1.319
 7661TIP3   OH222946   6.958   6.526   3.023
 7661TIP3    H122947   7.012   6.458   2.984
 7661TIP3    H222948   6.893   6.546   2.955
 7662TIP3   OH222949   3.596   2.402   1.847
 7662TIP3    H122950   3.689   2.416   1.831
 7662TIP3    H222951   3.558   2.392   1.760
 7663TIP3   OH222952   5.851   2.274   3.526
 7663TIP3    H122953   5.834   2.213   3.598
 7663TIP3    H222954   5.915   2.229   3.471
 7664TIP3   OH222955   2.009   4.538   2.524
 7664TIP3    H122956   2.021   4.633   2.526
 7664TIP3    H222957   2.047   4.507   2.606
 7665TIP3   OH222958   5.240   3.412   4.327
 7665TIP3    H122959   5.278   3.357   4.396
 7665TIP3    H222960   5.269   3.371   4.245
 7666TIP3   OH222961   3.182   6.817   0.463
 7666TIP3    H122962   3.267   6.862   0.463
 7666TIP3    H222963   3.200   6.730   0.497
 7667TIP3   OH222964   5.433   3.413   2.421
 7667TIP3    H122965   5.508   3.380   2.372
 7667TIP3    H222966   5.420   3.502   2.389
 7668TIP3   OH222967   1.491   1.269   0.771
 7668TIP3    H122968   1.564   1.322   0.739
 7668TIP3    H222969   1.414   1.301   0.724
 7669TIP3   OH222970   2.955   5.585   0.304
 7669TIP3    H122971   2.929   5.600   0.395
 7669TIP3    H222972   2.910   5.504   0.279
 7670TIP3   OH222973   5.854   5.737   1.926
 7670TIP3    H122974   5.776   5.714   1.977
 7670TIP3    H222975   5.923   5.681   1.962
 7671TIP3   OH222976   0.462   3.601   1.281
 7671TIP3    H122977   0.400   3.568   1.346
 7671TIP3    H222978   0.498   3.522   1.241
 7672TIP3   OH222979   0.187   2.103   3.113
 7672TIP3    H122980   0.253   2.147   3.060
 7672TIP3    H222981   0.169   2.163   3.185
 7673TIP3   OH222982   2.667   5.298   1.107
 7673TIP3    H122983   2.753   5.276   1.142
 7673TIP3    H222984   2.685   5.331   1.019
 7674TIP3   OH222985   4.458   2.788   2.701
 7674TIP3    H122986   4.462   2.810   2.608
 7674TIP3    H222987   4.545   2.812   2.734
 7675TIP3   OH222988   6.217   5.987   4.969
 7675TIP3    H122989   6.281   5.922   4.941
 7675TIP3    H222990   6.154   5.991   4.897
 7676TIP3   OH222991   0.271   4.122   3.717
 7676TIP3    H122992   0.274   4.206   3.763
 7676TIP3    H222993   0.302   4.059   3.782
 7677TIP3   OH222994   0.715   2.348   3.494
 7677TIP3    H122995   0.625   2.317   3.511
 7677TIP3    H222996   0.742   2.386   3.578
 7678TIP3   OH222997   6.107   4.456   5.201
 7678TIP3    H122998   6.015   4.447   5.176
 7678TIP3    H222999   6.135   4.537   5.157
 7679TIP3   OH223000   2.834   4.418   2.954
 7679TIP3    H123001   2.916   4.465   2.938
 7679TIP3    H223002   2.806   4.448   3.040
 7680TIP3   OH223003   3.014   2.714   0.486
 7680TIP3    H123004   2.941   2.742   0.432
 7680TIP3    H223005   3.091   2.756   0.448
 7681TIP3   OH223006   5.159   2.646   2.277
 7681TIP3    H123007   5.150   2.557   2.245
 7681TIP3    H223008   5.142   2.701   2.200
 7682TIP3   OH223009   0.999   6.162   0.986
 7682TIP3    H123010   1.063   6.203   0.927
 7682TIP3    H223011   1.052   6.104   1.041
 7683TIP3   OH223012   5.829   3.841   2.012
 7683TIP3    H123013   5.811   3.929   2.046
 7683TIP3    H223014   5.903   3.853   1.952
 7684TIP3   OH223015   5.128   3.650   1.848
 7684TIP3    H123016   5.160   3.655   1.938
 7684TIP3    H223017   5.193   3.597   1.802
 7685TIP3   OH223018   3.556   5.479   4.139
 7685TIP3    H123019   3.569   5.384   4.145
 7685TIP3    H223020   3.462   5.491   4.144
 7686TIP3   OH223021   2.940   5.987   1.956
 7686TIP3    H123022   3.004   5.935   2.005
 7686TIP3    H223023   2.887   6.030   2.023
 7687TIP3   OH223024   3.753   5.264   3.933
 7687TIP3    H123025   3.793   5.235   3.850
 7687TIP3    H223026   3.802   5.342   3.957
 7688TIP3   OH223027   6.903   0.867   4.506
 7688TIP3    H123028   6.934   0.922   4.434
 7688TIP3    H223029   6.836   0.811   4.465
 7689TIP3   OH223030   6.245   4.768   1.671
 7689TIP3    H123031   6.261   4.740   1.581
 7689TIP3    H223032   6.260   4.690   1.724
 7690TIP3   OH223033   4.799   2.203   5.631
 7690TIP3    H123034   4.708   2.198   5.600
 7690TIP3    H223035   4.845   2.249   5.561
 7691TIP3   OH223036   6.343   1.690   3.292
 7691TIP3    H123037   6.367   1.782   3.276
 7691TIP3    H223038   6.356   1.647   3.208
 7692TIP3   OH223039   6.939   1.814   5.708
 7692TIP3    H123040   6.921   1.760   5.631
 7692TIP3    H223041   7.000   1.762   5.760
 7693TIP3   OH223042   5.218   3.459   4.872
 7693TIP3    H123043   5.173   3.424   4.795
 7693TIP3    H223044   5.311   3.459   4.848
 7694TIP3   OH223045   3.702   2.356   2.783
 7694TIP3    H123046   3.677   2.448   2.784
 7694TIP3    H223047   3.754   2.347   2.703
 7695TIP3   OH223048   1.695   0.347   4.193
 7695TIP3    H123049   1.751   0.321   4.267
 7695TIP3    H223050   1.617   0.384   4.234
 7696TIP3   OH223051   6.626   1.752   5.912
 7696TIP3    H123052   6.632   1.810   5.835
 7696TIP3    H223053   6.697   1.689   5.900
 7697TIP3   OH223054   2.851   4.653   2.610
 7697TIP3    H123055   2.764   4.623   2.633
 7697TIP3    H223056   2.837   4.726   2.550
 7698TIP3   OH223057   3.713   4.160   0.782
 7698TIP3    H123058   3.767   4.152   0.860
 7698TIP3    H223059   3.643   4.096   0.795
 7699TIP3   OH223060   1.069   4.282   0.473
 7699TIP3    H123061   1.142   4.238   0.515
 7699TIP3    H223062   1.099   4.371   0.457
 7700TIP3   OH223063   5.339   3.126   1.761
 7700TIP3    H123064   5.306   3.148   1.848
 7700TIP3    H223065   5.369   3.036   1.770
 7701TIP3   OH223066   0.224   4.994   2.161
 7701TIP3    H123067   0.237   4.904   2.133
 7701TIP3    H223068   0.262   4.998   2.249
 7702TIP3   OH223069   5.979   1.164   0.386
 7702TIP3    H123070   5.948   1.082   0.349
 7702TIP3    H223071   5.921   1.181   0.461
 7703TIP3   OH223072   0.305   5.484   4.306
 7703TIP3    H123073   0.238   5.450   4.366
 7703TIP3    H223074   0.257   5.541   4.246
 7704TIP3   OH223075   3.507   3.643   4.760
 7704TIP3    H123076   3.460   3.584   4.820
 7704TIP3    H223077   3.529   3.587   4.685
 7705TIP3   OH223078   6.339   2.846   1.649
 7705TIP3    H123079   6.401   2.825   1.580
 7705TIP3    H223080   6.266   2.888   1.604
 7706TIP3   OH223081   0.012   1.646   0.804
 7706TIP3    H123082   0.011   1.637   0.709
 7706TIP3    H223083   0.031   1.558   0.836
 7707TIP3   OH223084   0.311   0.446   1.897
 7707TIP3    H123085   0.257   0.520   1.926
 7707TIP3    H223086   0.351   0.412   1.977
 7708TIP3   OH223087   2.705   6.518   3.434
 7708TIP3    H123088   2.665   6.471   3.360
 7708TIP3    H223089   2.634   6.531   3.496
 7709TIP3   OH223090   0.520   2.817   1.616
 7709TIP3    H123091   0.557   2.813   1.528
 7709TIP3    H223092   0.425   2.821   1.602
 7710TIP3   OH223093   3.984   5.329   5.363
 7710TIP3    H123094   4.008   5.244   5.327
 7710TIP3    H223095   3.970   5.385   5.287
 7711TIP3   OH223096   2.102   6.017   5.737
 7711TIP3    H123097   2.077   5.947   5.677
 7711TIP3    H223098   2.183   5.986   5.777
 7712TIP3   OH223099   4.904   2.405   5.454
 7712TIP3    H123100   4.991   2.415   5.416
 7712TIP3    H223101   4.846   2.388   5.379
 7713TIP3   OH223102   6.929   1.119   4.647
 7713TIP3    H123103   7.023   1.120   4.666
 7713TIP3    H223104   6.911   1.028   4.624
 7714TIP3   OH223105   7.226   5.351   1.145
 7714TIP3    H123106   7.162   5.285   1.118
 7714TIP3    H223107   7.177   5.410   1.201
 7715TIP3   OH223108   2.711   3.968   1.302
 7715TIP3    H123109   2.712   3.963   1.397
 7715TIP3    H223110   2.787   4.022   1.280
 7716TIP3   OH223111   3.385   6.043   1.129
 7716TIP3    H123112   3.317   6.047   1.196
 7716TIP3    H223113   3.338   6.032   1.047
 7717TIP3   OH223114   2.929   2.014   4.089
 7717TIP3    H123115   2.910   1.927   4.055
 7717TIP3    H223116   3.001   2.001   4.151
 7718TIP3   OH223117   3.905   1.692   4.434
 7718TIP3    H123118   3.933   1.616   4.484
 7718TIP3    H223119   3.869   1.656   4.353
 7719TIP3   OH223120   5.542   3.345   5.832
 7719TIP3    H123121   5.576   3.349   5.743
 7719TIP3    H223122   5.571   3.260   5.865
 7720TIP3   OH223123   3.777   5.724   2.210
 7720TIP3    H123124   3.694   5.759   2.242
 7720TIP3    H223125   3.817   5.685   2.288
 7721TIP3   OH223126   0.632   4.371   3.196
 7721TIP3    H123127   0.665   4.433   3.130
 7721TIP3    H223128   0.536   4.379   3.190
 7722TIP3   OH223129   5.369   0.912   4.033
 7722TIP3    H123130   5.299   0.912   3.967
 7722TIP3    H223131   5.386   1.005   4.049
 7723TIP3   OH223132   0.651   3.481   5.517
 7723TIP3    H123133   0.716   3.449   5.455
 7723TIP3    H223134   0.642   3.574   5.497
 7724TIP3   OH223135   1.696   0.959   1.102
 7724TIP3    H123136   1.685   0.994   1.190
 7724TIP3    H223137   1.773   1.004   1.068
 7725TIP3   OH223138   1.362   2.758   1.358
 7725TIP3    H123139   1.300   2.698   1.399
 7725TIP3    H223140   1.368   2.728   1.267
 7726TIP3   OH223141   2.236   1.328   1.759
 7726TIP3    H123142   2.197   1.335   1.672
 7726TIP3    H223143   2.249   1.234   1.773
 7727TIP3   OH223144   2.234   2.268   3.647
 7727TIP3    H123145   2.227   2.316   3.564
 7727TIP3    H223146   2.317   2.223   3.641
 7728TIP3   OH223147   1.189   2.552   5.161
 7728TIP3    H123148   1.171   2.596   5.078
 7728TIP3    H223149   1.103   2.525   5.193
 7729TIP3   OH223150   6.365   3.931   3.728
 7729TIP3    H123151   6.366   3.967   3.639
 7729TIP3    H223152   6.340   3.840   3.717
 7730TIP3   OH223153   0.499   2.757   5.676
 7730TIP3    H123154   0.532   2.844   5.652
 7730TIP3    H223155   0.535   2.742   5.764
 7731TIP3   OH223156   0.429   1.235   1.888
 7731TIP3    H123157   0.358   1.209   1.830
 7731TIP3    H223158   0.486   1.159   1.891
 7732TIP3   OH223159   4.632   5.514   0.443
 7732TIP3    H123160   4.610   5.577   0.374
 7732TIP3    H223161   4.606   5.429   0.407
 7733TIP3   OH223162   3.692   3.992   3.323
 7733TIP3    H123163   3.773   4.029   3.287
 7733TIP3    H223164   3.642   4.068   3.352
 7734TIP3   OH223165   5.628   6.368   0.599
 7734TIP3    H123166   5.590   6.387   0.514
 7734TIP3    H223167   5.704   6.313   0.580
 7735TIP3   OH223168   2.866   4.486   5.620
 7735TIP3    H123169   2.809   4.555   5.587
 7735TIP3    H223170   2.830   4.465   5.707
 7736TIP3   OH223171   4.424   0.467   1.100
 7736TIP3    H123172   4.395   0.452   1.010
 7736TIP3    H223173   4.374   0.544   1.128
 7737TIP3   OH223174   6.836   1.787   0.732
 7737TIP3    H123175   6.759   1.824   0.689
 7737TIP3    H223176   6.898   1.860   0.737
 7738TIP3   OH223177   1.071   1.642   4.338
 7738TIP3    H123178   1.098   1.734   4.347
 7738TIP3    H223179   0.976   1.646   4.327
 7739TIP3   OH223180   4.476   3.098   3.163
 7739TIP3    H123181   4.451   3.190   3.160
 7739TIP3    H223182   4.470   3.075   3.256
 7740TIP3   OH223183   3.638   3.895   5.665
 7740TIP3    H123184   3.686   3.849   5.734
 7740TIP3    H223185   3.688   3.877   5.586
 7741TIP3   OH223186   0.760   2.465   5.542
 7741TIP3    H123187   0.767   2.421   5.626
 7741TIP3    H223188   0.762   2.394   5.478
 7742TIP3   OH223189   4.359   4.921   2.739
 7742TIP3    H123190   4.336   4.850   2.678
 7742TIP3    H223191   4.365   4.879   2.824
 7743TIP3   OH223192   5.988   4.658   4.736
 7743TIP3    H123193   6.066   4.670   4.681
 7743TIP3    H223194   6.003   4.715   4.811
 7744TIP3   OH223195   4.399   0.738   4.257
 7744TIP3    H123196   4.414   0.671   4.324
 7744TIP3    H223197   4.446   0.815   4.289
 7745TIP3   OH223198   2.192   1.356   1.144
 7745TIP3    H123199   2.216   1.267   1.171
 7745TIP3    H223200   2.130   1.385   1.211
 7746TIP3   OH223201   2.068   4.498   3.714
 7746TIP3    H123202   2.149   4.519   3.667
 7746TIP3    H223203   2.090   4.512   3.807
 7747TIP3   OH223204   1.264   4.842   2.761
 7747TIP3    H123205   1.247   4.855   2.854
 7747TIP3    H223206   1.183   4.869   2.718
 7748TIP3   OH223207   7.119   1.452   4.715
 7748TIP3    H123208   7.069   1.463   4.634
 7748TIP3    H223209   7.172   1.374   4.701
 7749TIP3   OH223210   3.410   5.743   1.692
 7749TIP3    H123211   3.505   5.756   1.696
 7749TIP3    H223212   3.392   5.678   1.760
 7750TIP3   OH223213   0.031   1.927   0.584
 7750TIP3    H123214  -0.007   2.013   0.566
 7750TIP3    H223215   0.045   1.927   0.679
 7751TIP3   OH223216   4.583   4.082   1.967
 7751TIP3    H123217   4.532   4.124   2.037
 7751TIP3    H223218   4.517   4.056   1.903
 7752TIP3   OH223219   4.557   5.330   3.428
 7752TIP3    H123220   4.623   5.381   3.381
 7752TIP3    H223221   4.605   5.289   3.500
 7753TIP3   OH223222   6.377   4.457   3.872
 7753TIP3    H123223   6.449   4.395   3.866
 7753TIP3    H223224   6.349   4.452   3.964
 7754TIP3   OH223225   3.625   5.738   4.059
 7754TIP3    H123226   3.682   5.743   3.982
 7754TIP3    H223227   3.584   5.652   4.053
 7755TIP3   OH223228   5.417   1.479   3.517
 7755TIP3    H123229   5.379   1.440   3.596
 7755TIP3    H223230   5.502   1.513   3.547
 7756TIP3   OH223231   6.266   0.281   0.222
 7756TIP3    H123232   6.176   0.280   0.190
 7756TIP3    H223233   6.319   0.266   0.144
 7757TIP3   OH223234   3.440   6.440   2.137
 7757TIP3    H123235   3.449   6.391   2.220
 7757TIP3    H223236   3.347   6.459   2.131
 7758TIP3   OH223237   1.725   0.090   3.537
 7758TIP3    H123238   1.721   0.073   3.442
 7758TIP3    H223239   1.729   0.185   3.543
 7759TIP3   OH223240   3.244   0.548   1.682
 7759TIP3    H123241   3.306   0.532   1.753
 7759TIP3    H223242   3.235   0.644   1.680
 7760TIP3   OH223243   4.126   0.559   0.145
 7760TIP3    H123244   4.042   0.602   0.154
 7760TIP3    H223245   4.189   0.630   0.133
 7761TIP3   OH223246   4.342   3.078   1.145
 7761TIP3    H123247   4.273   3.139   1.116
 7761TIP3    H223248   4.344   3.010   1.078
 7762TIP3   OH223249   1.593   0.623   5.594
 7762TIP3    H123250   1.577   0.583   5.508
 7762TIP3    H223251   1.523   0.686   5.605
 7763TIP3   OH223252   2.854   6.452   4.619
 7763TIP3    H123253   2.775   6.493   4.584
 7763TIP3    H223254   2.882   6.511   4.690
 7764TIP3   OH223255   3.256   5.043   0.353
 7764TIP3    H123256   3.176   5.000   0.384
 7764TIP3    H223257   3.321   4.973   0.353
 7765TIP3   OH223258   6.867   2.064   1.599
 7765TIP3    H123259   6.788   2.028   1.559
 7765TIP3    H223260   6.926   2.080   1.525
 7766TIP3   OH223261   1.994   4.513   0.583
 7766TIP3    H123262   1.907   4.548   0.569
 7766TIP3    H223263   2.044   4.538   0.505
 7767TIP3   OH223264   3.899   1.704   0.388
 7767TIP3    H123265   3.821   1.695   0.334
 7767TIP3    H223266   3.877   1.774   0.450
 7768TIP3   OH223267   3.106   1.444   1.452
 7768TIP3    H123268   3.164   1.500   1.503
 7768TIP3    H223269   3.160   1.369   1.428
 7769TIP3   OH223270   5.631   2.008   2.819
 7769TIP3    H123271   5.592   2.046   2.740
 7769TIP3    H223272   5.709   2.061   2.835
 7770TIP3   OH223273   3.255   3.546   1.605
 7770TIP3    H123274   3.309   3.511   1.677
 7770TIP3    H223275   3.264   3.641   1.613
 7771TIP3   OH223276   1.218   4.065   0.927
 7771TIP3    H123277   1.297   4.082   0.875
 7771TIP3    H223278   1.196   3.974   0.906
 7772TIP3   OH223279   2.223   6.441   2.394
 7772TIP3    H123280   2.192   6.531   2.394
 7772TIP3    H223281   2.175   6.399   2.322
 7773TIP3   OH223282   2.335   5.609   4.903
 7773TIP3    H123283   2.377   5.688   4.869
 7773TIP3    H223284   2.399   5.570   4.962
 7774TIP3   OH223285   6.596   1.325   3.754
 7774TIP3    H123286   6.514   1.369   3.731
 7774TIP3    H223287   6.596   1.245   3.700
 7775TIP3   OH223288   4.243   6.605   5.386
 7775TIP3    H123289   4.222   6.607   5.293
 7775TIP3    H223290   4.158   6.599   5.429
 7776TIP3   OH223291   6.078   6.366   0.224
 7776TIP3    H123292   6.055   6.392   0.135
 7776TIP3    H223293   6.013   6.410   0.279
 7777TIP3   OH223294   6.996   1.132   3.196
 7777TIP3    H123295   6.951   1.098   3.273
 7777TIP3    H223296   7.058   1.196   3.231
 7778TIP3   OH223297   4.787   4.825   2.249
 7778TIP3    H123298   4.693   4.811   2.240
 7778TIP3    H223299   4.802   4.912   2.210
 7779TIP3   OH223300   2.994   3.288   2.211
 7779TIP3    H123301   3.090   3.285   2.208
 7779TIP3    H223302   2.972   3.380   2.195
 7780TIP3   OH223303   6.409   2.406   2.969
 7780TIP3    H123304   6.495   2.366   2.977
 7780TIP3    H223305   6.395   2.414   2.874
 7781TIP3   OH223306   1.605   5.402   5.199
 7781TIP3    H123307   1.622   5.332   5.136
 7781TIP3    H223308   1.689   5.416   5.243
 7782TIP3   OH223309   1.427   4.494   3.146
 7782TIP3    H123310   1.397   4.407   3.174
 7782TIP3    H223311   1.494   4.517   3.211
 7783TIP3   OH223312   1.767   6.328   1.636
 7783TIP3    H123313   1.821   6.408   1.639
 7783TIP3    H223314   1.807   6.271   1.702
 7784TIP3   OH223315   3.514   0.363   0.289
 7784TIP3    H123316   3.436   0.417   0.272
 7784TIP3    H223317   3.574   0.422   0.334
 7785TIP3   OH223318   3.156   4.563   4.675
 7785TIP3    H123319   3.165   4.473   4.646
 7785TIP3    H223320   3.064   4.585   4.661
 7786TIP3   OH223321   0.049   4.079   3.547
 7786TIP3    H123322   0.121   4.100   3.606
 7786TIP3    H223323   0.078   3.999   3.502
 7787TIP3   OH223324   6.130   0.295   0.633
 7787TIP3    H123325   6.114   0.239   0.557
 7787TIP3    H223326   6.132   0.236   0.707
 7788TIP3   OH223327   4.123   4.635   2.892
 7788TIP3    H123328   4.156   4.641   2.803
 7788TIP3    H223329   4.064   4.710   2.901
 7789TIP3   OH223330   5.568   1.457   3.817
 7789TIP3    H123331   5.587   1.368   3.788
 7789TIP3    H223332   5.604   1.513   3.748
 7790TIP3   OH223333   5.359   5.123   1.081
 7790TIP3    H123334   5.388   5.034   1.062
 7790TIP3    H223335   5.395   5.176   1.010
 7791TIP3   OH223336   5.577   1.382   5.204
 7791TIP3    H123337   5.637   1.455   5.186
 7791TIP3    H223338   5.633   1.304   5.201
 7792TIP3   OH223339   4.519  -0.010   3.710
 7792TIP3    H123340   4.478   0.076   3.713
 7792TIP3    H223341   4.599   0.000   3.762
 7793TIP3   OH223342   7.176   1.970   5.860
 7793TIP3    H123343   7.147   1.879   5.864
 7793TIP3    H223344   7.224   1.976   5.777
 7794TIP3   OH223345   0.715   4.055   4.410
 7794TIP3    H123346   0.658   4.063   4.486
 7794TIP3    H223347   0.670   3.994   4.352
 7795TIP3   OH223348   5.369   4.146   1.849
 7795TIP3    H123349   5.317   4.111   1.922
 7795TIP3    H223350   5.359   4.241   1.856
 7796TIP3   OH223351   3.675   4.640   4.246
 7796TIP3    H123352   3.752   4.583   4.238
 7796TIP3    H223353   3.711   4.724   4.275
 7797TIP3   OH223354   0.499   6.100   4.407
 7797TIP3    H123355   0.532   6.064   4.324
 7797TIP3    H223356   0.545   6.183   4.418
 7798TIP3   OH223357   6.767   1.454   2.260
 7798TIP3    H123358   6.822   1.485   2.187
 7798TIP3    H223359   6.757   1.531   2.317
 7799TIP3   OH223360   0.129   5.982   1.520
 7799TIP3    H123361   0.117   5.989   1.615
 7799TIP3    H223362   0.046   5.945   1.488
 7800TIP3   OH223363   5.707   5.047   4.317
 7800TIP3    H123364   5.801   5.044   4.335
 7800TIP3    H223365   5.695   4.991   4.241
 7801TIP3   OH223366   0.145   4.516   5.470
 7801TIP3    H123367   0.206   4.586   5.492
 7801TIP3    H223368   0.100   4.547   5.392
 7802TIP3   OH223369   4.945   6.611   5.549
 7802TIP3    H123370   4.973   6.537   5.495
 7802TIP3    H223371   4.993   6.686   5.514
 7803TIP3   OH223372   1.808   1.626   1.004
 7803TIP3    H123373   1.843   1.703   0.959
 7803TIP3    H223374   1.884   1.583   1.042
 7804TIP3   OH223375   4.219   1.360   1.060
 7804TIP3    H123376   4.191   1.274   1.030
 7804TIP3    H223377   4.182   1.422   0.997
 7805TIP3   OH223378   2.797   0.154   2.010
 7805TIP3    H123379   2.820   0.073   1.966
 7805TIP3    H223380   2.842   0.150   2.094
 7806TIP3   OH223381   0.905   5.102   4.007
 7806TIP3    H123382   0.826   5.117   4.058
 7806TIP3    H223383   0.877   5.106   3.916
 7807TIP3   OH223384   2.242   3.018   3.613
 7807TIP3    H123385   2.306   3.028   3.543
 7807TIP3    H223386   2.177   3.086   3.596
 7808TIP3   OH223387   1.493   6.653   2.378
 7808TIP3    H123388   1.543   6.609   2.309
 7808TIP3    H223389   1.529   6.741   2.381
 7809TIP3   OH223390   0.812   1.222   0.989
 7809TIP3    H123391   0.789   1.293   0.930
 7809TIP3    H223392   0.801   1.143   0.937
 7810TIP3   OH223393   3.888   1.886   2.594
 7810TIP3    H123394   3.960   1.875   2.656
 7810TIP3    H223395   3.830   1.949   2.636
 7811TIP3   OH223396   2.039   5.645   1.636
 7811TIP3    H123397   2.065   5.737   1.626
 7811TIP3    H223398   2.119   5.596   1.615
 7812TIP3   OH223399   5.957  -0.014   0.662
 7812TIP3    H123400   5.902  -0.033   0.585
 7812TIP3    H223401   6.040   0.017   0.625
 7813TIP3   OH223402   5.928   2.791   4.327
 7813TIP3    H123403   5.937   2.861   4.391
 7813TIP3    H223404   5.901   2.714   4.378
 7814TIP3   OH223405   0.237   4.248   4.848
 7814TIP3    H123406   0.206   4.181   4.909
 7814TIP3    H223407   0.214   4.331   4.889
 7815TIP3   OH223408   0.103   1.256   2.387
 7815TIP3    H123409   0.139   1.335   2.427
 7815TIP3    H223410   0.170   1.228   2.325
 7816TIP3   OH223411   1.737   3.843   1.874
 7816TIP3    H123412   1.688   3.842   1.791
 7816TIP3    H223413   1.757   3.750   1.890
 7817TIP3   OH223414   6.282   0.381   3.916
 7817TIP3    H123415   6.231   0.307   3.947
 7817TIP3    H223416   6.266   0.450   3.980
 7818TIP3   OH223417   5.163   3.641   0.286
 7818TIP3    H123418   5.222   3.583   0.238
 7818TIP3    H223419   5.216   3.677   0.357
 7819TIP3   OH223420   5.804   1.729   2.772
 7819TIP3    H123421   5.761   1.794   2.828
 7819TIP3    H223422   5.783   1.756   2.683
 7820TIP3   OH223423   6.016   5.531   2.021
 7820TIP3    H123424   6.105   5.499   2.036
 7820TIP3    H223425   5.961   5.454   2.032
 7821TIP3   OH223426   0.905   4.547   3.442
 7821TIP3    H123427   0.966   4.475   3.455
 7821TIP3    H223428   0.961   4.621   3.416
 7822TIP3   OH223429   5.415   3.303   2.916
 7822TIP3    H123430   5.375   3.226   2.955
 7822TIP3    H223431   5.403   3.291   2.821
 7823TIP3   OH223432   4.050   3.316   4.150
 7823TIP3    H123433   4.067   3.231   4.191
 7823TIP3    H223434   3.955   3.319   4.139
 7824TIP3   OH223435   2.939   3.849   0.121
 7824TIP3    H123436   2.877   3.809   0.183
 7824TIP3    H223437   2.890   3.853   0.039
 7825TIP3   OH223438   3.375   6.225   5.026
 7825TIP3    H123439   3.464   6.223   4.992
 7825TIP3    H223440   3.382   6.190   5.115
 7826TIP3   OH223441   0.848   5.248   5.423
 7826TIP3    H123442   0.838   5.211   5.511
 7826TIP3    H223443   0.759   5.263   5.393
 7827TIP3   OH223444   0.465   6.721   4.138
 7827TIP3    H123445   0.523   6.788   4.101
 7827TIP3    H223446   0.416   6.688   4.063
 7828TIP3   OH223447   2.761   2.585   5.524
 7828TIP3    H123448   2.826   2.519   5.501
 7828TIP3    H223449   2.804   2.668   5.507
 7829TIP3   OH223450   3.739   1.420   3.748
 7829TIP3    H123451   3.773   1.505   3.775
 7829TIP3    H223452   3.817   1.366   3.734
 7830TIP3   OH223453   3.092   3.761   3.556
 7830TIP3    H123454   3.051   3.823   3.497
 7830TIP3    H223455   3.117   3.813   3.632
 7831TIP3   OH223456   6.628   0.320   2.028
 7831TIP3    H123457   6.693   0.254   2.052
 7831TIP3    H223458   6.552   0.271   1.998
 7832TIP3   OH223459   5.855   2.544   5.448
 7832TIP3    H123460   5.864   2.449   5.457
 7832TIP3    H223461   5.764   2.558   5.423
 7833TIP3   OH223462   0.566   3.212   5.471
 7833TIP3    H123463   0.628   3.278   5.501
 7833TIP3    H223464   0.533   3.172   5.552
 7834TIP3   OH223465   1.578   0.429   5.108
 7834TIP3    H123466   1.661   0.477   5.103
 7834TIP3    H223467   1.513   0.496   5.130
 7835TIP3   OH223468   1.144   1.792   3.809
 7835TIP3    H123469   1.213   1.787   3.875
 7835TIP3    H223470   1.123   1.885   3.805
 7836TIP3   OH223471   6.400   5.926   3.733
 7836TIP3    H123472   6.365   5.941   3.821
 7836TIP3    H223473   6.346   5.980   3.676
 7837TIP3   OH223474   1.312   2.066   1.173
 7837TIP3    H123475   1.269   2.003   1.115
 7837TIP3    H223476   1.247   2.084   1.241
 7838TIP3   OH223477   6.518   1.663   4.061
 7838TIP3    H123478   6.509   1.713   3.980
 7838TIP3    H223479   6.611   1.672   4.084
 7839TIP3   OH223480   3.400   3.730   1.858
 7839TIP3    H123481   3.340   3.774   1.797
 7839TIP3    H223482   3.391   3.779   1.940
 7840TIP3   OH223483   6.203   1.441   5.095
 7840TIP3    H123484   6.268   1.510   5.106
 7840TIP3    H223485   6.235   1.369   5.151
 7841TIP3   OH223486   2.039   4.453   1.487
 7841TIP3    H123487   2.108   4.397   1.451
 7841TIP3    H223488   1.969   4.451   1.421
 7842TIP3   OH223489   0.181   2.672   0.939
 7842TIP3    H123490   0.165   2.579   0.954
 7842TIP3    H223491   0.230   2.675   0.857
 7843TIP3   OH223492   1.996   6.523   1.418
 7843TIP3    H123493   2.085   6.536   1.386
 7843TIP3    H223494   1.952   6.475   1.347
 7844TIP3   OH223495   4.435   4.210   5.189
 7844TIP3    H123496   4.373   4.137   5.189
 7844TIP3    H223497   4.450   4.228   5.282
 7845TIP3   OH223498   6.272   4.802   1.396
 7845TIP3    H123499   6.241   4.890   1.415
 7845TIP3    H223500   6.273   4.797   1.300
 7846TIP3   OH223501   3.934   6.701   1.482
 7846TIP3    H123502   3.842   6.718   1.501
 7846TIP3    H223503   3.936   6.613   1.445
 7847TIP3   OH223504   5.995   6.098   5.134
 7847TIP3    H123505   6.053   6.139   5.069
 7847TIP3    H223506   5.944   6.171   5.169
 7848TIP3   OH223507   6.674   2.437   3.607
 7848TIP3    H123508   6.643   2.357   3.564
 7848TIP3    H223509   6.733   2.476   3.543
 7849TIP3   OH223510   0.743   5.298   2.381
 7849TIP3    H123511   0.811   5.315   2.315
 7849TIP3    H223512   0.790   5.300   2.464
 7850TIP3   OH223513   1.772   2.032   1.942
 7850TIP3    H123514   1.864   2.008   1.937
 7850TIP3    H223515   1.743   2.000   2.028
 7851TIP3   OH223516   6.947   0.562   1.282
 7851TIP3    H123517   6.956   0.470   1.306
 7851TIP3    H223518   6.861   0.568   1.241
 7852TIP3   OH223519   6.794   0.556   2.493
 7852TIP3    H123520   6.700   0.536   2.494
 7852TIP3    H223521   6.809   0.597   2.408
 7853TIP3   OH223522   6.983   4.051   2.371
 7853TIP3    H123523   6.897   4.027   2.337
 7853TIP3    H223524   7.006   3.980   2.432
 7854TIP3   OH223525   1.089   1.345   2.628
 7854TIP3    H123526   1.053   1.405   2.694
 7854TIP3    H223527   1.098   1.399   2.550
 7855TIP3   OH223528   4.598   6.117   1.357
 7855TIP3    H123529   4.639   6.062   1.424
 7855TIP3    H223530   4.504   6.103   1.368
 7856TIP3   OH223531   6.929   1.001   3.929
 7856TIP3    H123532   6.930   0.948   3.849
 7856TIP3    H223533   6.861   0.961   3.984
 7857TIP3   OH223534   6.420   3.445   0.903
 7857TIP3    H123535   6.499   3.499   0.909
 7857TIP3    H223536   6.422   3.389   0.980
 7858TIP3   OH223537   3.862   4.543   5.298
 7858TIP3    H123538   3.948   4.582   5.286
 7858TIP3    H223539   3.877   4.471   5.359
 7859TIP3   OH223540   5.886   4.483   1.137
 7859TIP3    H123541   5.928   4.554   1.187
 7859TIP3    H223542   5.797   4.480   1.170
 7860TIP3   OH223543   3.414   5.322   0.989
 7860TIP3    H123544   3.447   5.409   0.966
 7860TIP3    H223545   3.477   5.262   0.949
 7861TIP3   OH223546   3.478   3.920   2.349
 7861TIP3    H123547   3.447   3.848   2.404
 7861TIP3    H223548   3.573   3.922   2.364
 7862TIP3   OH223549   3.137   6.454   0.083
 7862TIP3    H123550   3.172   6.378   0.036
 7862TIP3    H223551   3.048   6.428   0.108
 7863TIP3   OH223552   0.964   3.682   1.651
 7863TIP3    H123553   1.055   3.697   1.678
 7863TIP3    H223554   0.922   3.645   1.728
 7864TIP3   OH223555   3.110   5.738   1.522
 7864TIP3    H123556   3.051   5.733   1.597
 7864TIP3    H223557   3.166   5.813   1.541
 7865TIP3   OH223558   6.162   2.396   5.255
 7865TIP3    H123559   6.081   2.367   5.213
 7865TIP3    H223560   6.205   2.314   5.282
 7866TIP3   OH223561   5.608   3.252   1.608
 7866TIP3    H123562   5.608   3.315   1.536
 7866TIP3    H223563   5.583   3.169   1.568
 7867TIP3   OH223564   0.898   2.061   1.898
 7867TIP3    H123565   0.835   2.010   1.848
 7867TIP3    H223566   0.851   2.087   1.977
 7868TIP3   OH223567   3.427   2.942   0.060
 7868TIP3    H123568   3.420   2.853   0.096
 7868TIP3    H223569   3.516   2.945   0.022
 7869TIP3   OH223570   1.645   6.329   1.372
 7869TIP3    H123571   1.570   6.269   1.369
 7869TIP3    H223572   1.695   6.302   1.448
 7870TIP3   OH223573   4.447   6.447   3.088
 7870TIP3    H123574   4.352   6.440   3.094
 7870TIP3    H223575   4.463   6.500   3.010
 7871TIP3   OH223576   4.730   0.074   1.056
 7871TIP3    H123577   4.804   0.134   1.049
 7871TIP3    H223578   4.658   0.129   1.087
 7872TIP3   OH223579   0.934   5.269   2.573
 7872TIP3    H123580   0.984   5.334   2.623
 7872TIP3    H223581   0.999   5.204   2.547
 7873TIP3   OH223582   4.944   1.009   2.625
 7873TIP3    H123583   5.034   0.988   2.649
 7873TIP3    H223584   4.891   0.941   2.667
 7874TIP3   OH223585   2.437   1.858   3.479
 7874TIP3    H123586   2.471   1.829   3.395
 7874TIP3    H223587   2.492   1.813   3.544
 7875TIP3   OH223588   4.757   2.469   1.260
 7875TIP3    H123589   4.694   2.444   1.328
 7875TIP3    H223590   4.801   2.546   1.296
 7876TIP3   OH223591   0.436   2.174   3.014
 7876TIP3    H123592   0.417   2.244   2.952
 7876TIP3    H223593   0.524   2.193   3.046
 7877TIP3   OH223594   1.983   2.584   2.161
 7877TIP3    H123595   2.009   2.676   2.156
 7877TIP3    H223596   1.887   2.588   2.170
 7878TIP3   OH223597   4.196   2.974   4.680
 7878TIP3    H123598   4.251   3.016   4.614
 7878TIP3    H223599   4.153   3.048   4.725
 7879TIP3   OH223600   5.479   5.298   0.044
 7879TIP3    H123601   5.408   5.260   0.097
 7879TIP3    H223602   5.533   5.223   0.020
 7880TIP3   OH223603   6.800   3.046   3.064
 7880TIP3    H123604   6.817   3.130   3.107
 7880TIP3    H223605   6.856   3.047   2.986
 7881TIP3   OH223606   2.404   3.922   5.419
 7881TIP3    H123607   2.336   3.948   5.357
 7881TIP3    H223608   2.380   3.834   5.446
 7882TIP3   OH223609   1.566   0.951   0.221
 7882TIP3    H123610   1.513   0.926   0.297
 7882TIP3    H223611   1.541   0.889   0.153
 7883TIP3   OH223612   3.695   4.451   4.516
 7883TIP3    H123613   3.642   4.428   4.440
 7883TIP3    H223614   3.705   4.546   4.511
 7884TIP3   OH223615   5.399   1.221   2.406
 7884TIP3    H123616   5.392   1.126   2.418
 7884TIP3    H223617   5.324   1.257   2.453
 7885TIP3   OH223618   4.290   2.212   4.113
 7885TIP3    H123619   4.222   2.154   4.079
 7885TIP3    H223620   4.264   2.299   4.084
 7886TIP3   OH223621   4.972   5.078   3.001
 7886TIP3    H123622   5.019   5.150   3.043
 7886TIP3    H223623   4.934   5.117   2.922
 7887TIP3   OH223624   2.786   4.481   0.327
 7887TIP3    H123625   2.844   4.411   0.355
 7887TIP3    H223626   2.703   4.438   0.308
 7888TIP3   OH223627   4.568   5.840   2.675
 7888TIP3    H123628   4.493   5.878   2.720
 7888TIP3    H223629   4.544   5.840   2.583
 7889TIP3   OH223630   3.583   1.918   1.413
 7889TIP3    H123631   3.616   1.864   1.341
 7889TIP3    H223632   3.656   1.923   1.474
 7890TIP3   OH223633   2.826   3.381   3.708
 7890TIP3    H123634   2.887   3.406   3.639
 7890TIP3    H223635   2.803   3.463   3.751
 7891TIP3   OH223636   6.726   2.582   4.836
 7891TIP3    H123637   6.802   2.623   4.795
 7891TIP3    H223638   6.703   2.509   4.778
 7892TIP3   OH223639   0.228   1.809   2.887
 7892TIP3    H123640   0.279   1.739   2.928
 7892TIP3    H223641   0.232   1.881   2.949
 7893TIP3   OH223642   0.584   4.110   1.230
 7893TIP3    H123643   0.573   4.029   1.179
 7893TIP3    H223644   0.586   4.081   1.321
 7894TIP3   OH223645   6.768   4.153   0.815
 7894TIP3    H123646   6.764   4.076   0.873
 7894TIP3    H223647   6.770   4.228   0.875
 7895TIP3   OH223648   1.711   3.615   3.871
 7895TIP3    H123649   1.728   3.567   3.953
 7895TIP3    H223650   1.798   3.636   3.838
 7896TIP3   OH223651   1.308   2.177   4.486
 7896TIP3    H123652   1.220   2.213   4.477
 7896TIP3    H223653   1.366   2.254   4.486
 7897TIP3   OH223654   2.213   3.308   2.970
 7897TIP3    H123655   2.140   3.322   3.031
 7897TIP3    H223656   2.170   3.294   2.886
 7898TIP3   OH223657   5.634   4.539   2.956
 7898TIP3    H123658   5.716   4.493   2.937
 7898TIP3    H223659   5.654   4.593   3.033
 7899TIP3   OH223660   7.105   0.225   0.821
 7899TIP3    H123661   7.015   0.209   0.794
 7899TIP3    H223662   7.138   0.138   0.845
 7900TIP3   OH223663   2.942   0.325   5.364
 7900TIP3    H123664   2.875   0.268   5.326
 7900TIP3    H223665   2.954   0.394   5.299
 7901TIP3   OH223666   0.736   6.419   0.790
 7901TIP3    H123667   0.813   6.476   0.799
 7901TIP3    H223668   0.673   6.473   0.743
 7902TIP3   OH223669   3.645   2.413   4.664
 7902TIP3    H123670   3.637   2.401   4.569
 7902TIP3    H223671   3.725   2.365   4.686
 7903TIP3   OH223672   0.209   6.063   3.900
 7903TIP3    H123673   0.235   6.014   3.978
 7903TIP3    H223674   0.259   6.024   3.829
 7904TIP3   OH223675   5.549   3.167   1.318
 7904TIP3    H123676   5.504   3.160   1.234
 7904TIP3    H223677   5.548   3.261   1.338
 7905TIP3   OH223678   3.212   1.660   1.637
 7905TIP3    H123679   3.278   1.714   1.595
 7905TIP3    H223680   3.135   1.716   1.644
 7906TIP3   OH223681   7.070   3.811   4.035
 7906TIP3    H123682   7.083   3.866   3.958
 7906TIP3    H223683   7.150   3.760   4.042
 7907TIP3   OH223684   3.998   0.041   3.213
 7907TIP3    H123685   3.988   0.094   3.133
 7907TIP3    H223686   3.921   0.063   3.266
 7908TIP3   OH223687   1.063   3.634   0.444
 7908TIP3    H123688   1.157   3.614   0.452
 7908TIP3    H223689   1.041   3.612   0.353
 7909TIP3   OH223690   5.382   6.831   0.934
 7909TIP3    H123691   5.385   6.802   0.842
 7909TIP3    H223692   5.448   6.777   0.978
 7910TIP3   OH223693   5.888   2.004   3.640
 7910TIP3    H123694   5.962   1.988   3.582
 7910TIP3    H223695   5.901   1.944   3.714
 7911TIP3   OH223696   3.612   3.104   5.849
 7911TIP3    H123697   3.650   3.181   5.892
 7911TIP3    H223698   3.609   3.128   5.756
 7912TIP3   OH223699   4.953   3.790   3.493
 7912TIP3    H123700   4.987   3.789   3.582
 7912TIP3    H223701   4.893   3.716   3.489
 7913TIP3   OH223702   2.235   1.681   3.981
 7913TIP3    H123703   2.296   1.690   4.054
 7913TIP3    H223704   2.240   1.766   3.936
 7914TIP3   OH223705   2.171   1.460   2.268
 7914TIP3    H123706   2.249   1.444   2.321
 7914TIP3    H223707   2.106   1.495   2.329
 7915TIP3   OH223708   1.228   3.372   0.242
 7915TIP3    H123709   1.312   3.381   0.288
 7915TIP3    H223710   1.230   3.441   0.175
 7916TIP3   OH223711   6.913   0.893   0.762
 7916TIP3    H123712   6.932   0.859   0.850
 7916TIP3    H223713   6.953   0.830   0.702
 7917TIP3   OH223714   0.728   0.384   1.244
 7917TIP3    H123715   0.634   0.399   1.232
 7917TIP3    H223716   0.760   0.462   1.289
 7918TIP3   OH223717   2.990   2.311   0.365
 7918TIP3    H123718   3.042   2.299   0.445
 7918TIP3    H223719   2.995   2.227   0.320
 7919TIP3   OH223720   3.189   1.361   0.903
 7919TIP3    H123721   3.097   1.368   0.879
 7919TIP3    H223722   3.197   1.274   0.941
 7920TIP3   OH223723   0.297   0.264   5.844
 7920TIP3    H123724   0.311   0.357   5.824
 7920TIP3    H223725   0.377   0.238   5.891
 7921TIP3   OH223726   4.578   3.347   1.587
 7921TIP3    H123727   4.522   3.420   1.612
 7921TIP3    H223728   4.540   3.316   1.504
 7922TIP3   OH223729   5.608   0.096   5.285
 7922TIP3    H123730   5.620   0.184   5.321
 7922TIP3    H223731   5.697   0.064   5.270
 7923TIP3   OH223732   5.633   1.114   0.169
 7923TIP3    H123733   5.557   1.171   0.179
 7923TIP3    H223734   5.624   1.075   0.083
 7924TIP3   OH223735   0.103   5.160   1.765
 7924TIP3    H123736   0.181   5.111   1.792
 7924TIP3    H223737   0.063   5.189   1.847
 7925TIP3   OH223738   6.232   2.655   3.754
 7925TIP3    H123739   6.312   2.708   3.754
 7925TIP3    H223740   6.168   2.709   3.708
 7926TIP3   OH223741   0.248   1.525   1.176
 7926TIP3    H123742   0.261   1.482   1.261
 7926TIP3    H223743   0.272   1.616   1.191
 7927TIP3   OH223744   2.400   0.784   0.132
 7927TIP3    H123745   2.397   0.871   0.172
 7927TIP3    H223746   2.315   0.773   0.092
 7928TIP3   OH223747   6.247   0.168   4.909
 7928TIP3    H123748   6.162   0.172   4.865
 7928TIP3    H223749   6.297   0.103   4.859
 7929TIP3   OH223750   0.850   6.495   0.037
 7929TIP3    H123751   0.776   6.456   0.083
 7929TIP3    H223752   0.925   6.481   0.095
 7930TIP3   OH223753   1.866   3.109   1.696
 7930TIP3    H123754   1.864   3.025   1.651
 7930TIP3    H223755   1.899   3.090   1.783
 7931TIP3   OH223756   3.812   3.306   3.650
 7931TIP3    H123757   3.884   3.283   3.710
 7931TIP3    H223758   3.820   3.244   3.578
 7932TIP3   OH223759   7.164   1.633   1.760
 7932TIP3    H123760   7.138   1.575   1.832
 7932TIP3    H223761   7.115   1.714   1.775
 7933TIP3   OH223762   7.012   1.237   1.629
 7933TIP3    H123763   6.970   1.191   1.702
 7933TIP3    H223764   6.961   1.210   1.552
 7934TIP3   OH223765   3.426   4.808   3.470
 7934TIP3    H123766   3.405   4.724   3.428
 7934TIP3    H223767   3.499   4.843   3.418
 7935TIP3   OH223768   4.555   5.652   3.705
 7935TIP3    H123769   4.559   5.575   3.761
 7935TIP3    H223770   4.479   5.701   3.737
 7936TIP3   OH223771   5.209   2.295   2.509
 7936TIP3    H123772   5.137   2.235   2.487
 7936TIP3    H223773   5.201   2.365   2.445
 7937TIP3   OH223774   2.922   0.910   2.762
 7937TIP3    H123775   2.879   0.896   2.846
 7937TIP3    H223776   2.957   0.999   2.768
 7938TIP3   OH223777   4.381   6.247   2.904
 7938TIP3    H123778   4.413   6.331   2.938
 7938TIP3    H223779   4.358   6.265   2.813
 7939TIP3   OH223780   5.241   1.155   0.037
 7939TIP3    H123781   5.300   1.222   0.072
 7939TIP3    H223782   5.275   1.137  -0.051
 7940TIP3   OH223783   0.148   3.648   3.516
 7940TIP3    H123784   0.087   3.593   3.466
 7940TIP3    H223785   0.126   3.737   3.491
 7941TIP3   OH223786   2.408   0.126   4.860
 7941TIP3    H123787   2.376   0.173   4.784
 7941TIP3    H223788   2.369   0.038   4.853
 7942TIP3   OH223789   2.975   3.446   0.423
 7942TIP3    H123790   3.006   3.499   0.495
 7942TIP3    H223791   3.005   3.357   0.443
 7943TIP3   OH223792   6.341   6.395   0.274
 7943TIP3    H123793   6.258   6.381   0.228
 7943TIP3    H223794   6.327   6.475   0.324
 7944TIP3   OH223795   0.896   2.977   4.993
 7944TIP3    H123796   0.935   2.907   5.045
 7944TIP3    H223797   0.838   2.931   4.932
 7945TIP3   OH223798   1.292   1.639   4.031
 7945TIP3    H123799   1.232   1.567   4.053
 7945TIP3    H223800   1.311   1.681   4.114
 7946TIP3   OH223801   7.144   5.709   1.057
 7946TIP3    H123802   7.205   5.663   1.115
 7946TIP3    H223803   7.058   5.690   1.094
 7947TIP3   OH223804   4.203   5.973   2.423
 7947TIP3    H123805   4.230   6.054   2.380
 7947TIP3    H223806   4.149   5.929   2.357
 7948TIP3   OH223807   2.496   1.152   5.382
 7948TIP3    H123808   2.403   1.169   5.399
 7948TIP3    H223809   2.538   1.238   5.390
 7949TIP3   OH223810   6.567   2.378   4.958
 7949TIP3    H123811   6.475   2.401   4.976
 7949TIP3    H223812   6.611   2.462   4.950
 7950TIP3   OH223813   0.328   5.106   1.885
 7950TIP3    H123814   0.384   5.034   1.913
 7950TIP3    H223815   0.386   5.181   1.879
 7951TIP3   OH223816   5.576   6.809   1.833
 7951TIP3    H123817   5.580   6.720   1.867
 7951TIP3    H223818   5.601   6.864   1.907
 7952TIP3   OH223819   2.749   5.352   2.112
 7952TIP3    H123820   2.676   5.401   2.073
 7952TIP3    H223821   2.805   5.329   2.038
 7953TIP3   OH223822   6.230   3.764   1.415
 7953TIP3    H123823   6.239   3.725   1.502
 7953TIP3    H223824   6.154   3.821   1.422
 7954TIP3   OH223825   1.916   5.731   0.555
 7954TIP3    H123826   1.945   5.769   0.472
 7954TIP3    H223827   1.874   5.649   0.531
 7955TIP3   OH223828   1.006   1.229  -0.038
 7955TIP3    H123829   0.932   1.275   0.002
 7955TIP3    H223830   1.017   1.151   0.015
 7956TIP3   OH223831   6.529   1.622   5.252
 7956TIP3    H123832   6.576   1.700   5.283
 7956TIP3    H223833   6.457   1.657   5.200
 7957TIP3   OH223834   1.529   6.018   3.091
 7957TIP3    H123835   1.491   5.945   3.042
 7957TIP3    H223836   1.505   6.096   3.041
 7958TIP3   OH223837   6.969   5.456   5.753
 7958TIP3    H123838   6.935   5.484   5.668
 7958TIP3    H223839   6.932   5.517   5.816
 7959TIP3   OH223840   6.999   3.499   1.412
 7959TIP3    H123841   6.972   3.524   1.324
 7959TIP3    H223842   7.050   3.574   1.444
 7960TIP3   OH223843   4.982   5.521   2.288
 7960TIP3    H123844   5.002   5.559   2.374
 7960TIP3    H223845   5.056   5.547   2.233
 7961TIP3   OH223846   3.627   5.406   4.616
 7961TIP3    H123847   3.710   5.368   4.643
 7961TIP3    H223848   3.651   5.483   4.564
 7962TIP3   OH223849   2.939   3.090   0.011
 7962TIP3    H123850   3.027   3.088  -0.027
 7962TIP3    H223851   2.897   3.166  -0.029
 7963TIP3   OH223852   5.868   2.920  -0.005
 7963TIP3    H123853   5.875   2.825   0.005
 7963TIP3    H223854   5.958   2.951  -0.011
 7964TIP3   OH223855   5.232   0.089   4.143
 7964TIP3    H123856   5.184   0.167   4.173
 7964TIP3    H223857   5.264   0.049   4.223
 7965TIP3   OH223858   6.929   1.413   4.140
 7965TIP3    H123859   6.856   1.383   4.085
 7965TIP3    H223860   6.943   1.342   4.202
 7966TIP3   OH223861   1.422   5.922   4.176
 7966TIP3    H123862   1.374   5.867   4.113
 7966TIP3    H223863   1.477   5.978   4.122
 7967TIP3   OH223864   0.168   3.055   4.593
 7967TIP3    H123865   0.193   3.024   4.680
 7967TIP3    H223866   0.228   3.127   4.575
 7968TIP3   OH223867   0.695   0.530   2.490
 7968TIP3    H123868   0.629   0.494   2.431
 7968TIP3    H223869   0.748   0.587   2.435
 7969TIP3   OH223870   1.910   3.475   4.560
 7969TIP3    H123871   1.948   3.512   4.480
 7969TIP3    H223872   1.917   3.546   4.624
 7970TIP3   OH223873   0.928   6.500   5.613
 7970TIP3    H123874   0.919   6.405   5.608
 7970TIP3    H223875   0.840   6.532   5.630
 7971TIP3   OH223876   4.689   1.570   5.165
 7971TIP3    H123877   4.682   1.476   5.145
 7971TIP3    H223878   4.767   1.576   5.221
 7972TIP3   OH223879   6.728   4.159   5.586
 7972TIP3    H123880   6.804   4.213   5.563
 7972TIP3    H223881   6.749   4.073   5.551
 7973TIP3   OH223882   2.870   3.189   4.850
 7973TIP3    H123883   2.866   3.259   4.916
 7973TIP3    H223884   2.887   3.110   4.900
 7974TIP3   OH223885   3.719   0.645   4.694
 7974TIP3    H123886   3.760   0.613   4.774
 7974TIP3    H223887   3.729   0.740   4.699
 7975TIP3   OH223888   1.404   1.624   0.526
 7975TIP3    H123889   1.342   1.640   0.454
 7975TIP3    H223890   1.420   1.530   0.523
 7976TIP3   OH223891   1.537   1.685   3.263
 7976TIP3    H123892   1.482   1.622   3.310
 7976TIP3    H223893   1.519   1.769   3.306
 7977TIP3   OH223894   4.453   3.235   2.440
 7977TIP3    H123895   4.391   3.170   2.406
 7977TIP3    H223896   4.534   3.217   2.392
 7978TIP3   OH223897   6.767   0.916   3.070
 7978TIP3    H123898   6.724   0.843   3.026
 7978TIP3    H223899   6.858   0.912   3.041
 7979TIP3   OH223900   2.324   6.069   1.749
 7979TIP3    H123901   2.280   6.019   1.680
 7979TIP3    H223902   2.364   6.003   1.805
 7980TIP3   OH223903   2.348   4.698   3.385
 7980TIP3    H123904   2.435   4.673   3.415
 7980TIP3    H223905   2.296   4.704   3.466
 7981TIP3   OH223906   2.452   1.105   5.088
 7981TIP3    H123907   2.509   1.180   5.076
 7981TIP3    H223908   2.449   1.093   5.183
 7982TIP3   OH223909   2.665   4.454   5.831
 7982TIP3    H123910   2.654   4.523   5.897
 7982TIP3    H223911   2.600   4.475   5.764
 7983TIP3   OH223912   2.299   6.804   3.943
 7983TIP3    H123913   2.388   6.772   3.960
 7983TIP3    H223914   2.242   6.731   3.968
 7984TIP3   OH223915   0.877   2.479   3.830
 7984TIP3    H123916   0.952   2.522   3.870
 7984TIP3    H223917   0.912   2.400   3.790
 7985TIP3   OH223918   2.949   3.240   5.907
 7985TIP3    H123919   2.956   3.157   5.953
 7985TIP3    H223920   2.987   3.222   5.820
 7986TIP3   OH223921   6.690   5.690   1.828
 7986TIP3    H123922   6.742   5.610   1.838
 7986TIP3    H223923   6.744   5.746   1.772
 7987TIP3   OH223924   2.657   2.422   3.520
 7987TIP3    H123925   2.608   2.504   3.527
 7987TIP3    H223926   2.667   2.392   3.610
 7988TIP3   OH223927   5.801   2.862   2.202
 7988TIP3    H123928   5.805   2.811   2.283
 7988TIP3    H223929   5.859   2.936   2.218
 7989TIP3   OH223930   1.919   3.493   3.585
 7989TIP3    H123931   1.941   3.561   3.649
 7989TIP3    H223932   1.900   3.541   3.504
 7990TIP3   OH223933   3.969   4.059   3.799
 7990TIP3    H123934   3.918   4.023   3.728
 7990TIP3    H223935   3.911   4.123   3.841
 7991TIP3   OH223936   4.086   1.229   4.244
 7991TIP3    H123937   4.180   1.212   4.239
 7991TIP3    H223938   4.048   1.172   4.177
 7992TIP3   OH223939   4.093   6.265   3.590
 7992TIP3    H123940   4.103   6.280   3.496
 7992TIP3    H223941   4.180   6.281   3.626
 7993TIP3   OH223942   5.904   0.134   1.331
 7993TIP3    H123943   5.940   0.219   1.307
 7993TIP3    H223944   5.926   0.124   1.423
 7994TIP3   OH223945   2.770   0.708   3.174
 7994TIP3    H123946   2.859   0.741   3.180
 7994TIP3    H223947   2.723   0.776   3.126
 7995TIP3   OH223948   1.198   6.613   2.680
 7995TIP3    H123949   1.144   6.588   2.754
 7995TIP3    H223950   1.154   6.690   2.643
 7996TIP3   OH223951   4.414   2.788   4.510
 7996TIP3    H123952   4.499   2.749   4.493
 7996TIP3    H223953   4.402   2.851   4.439
 7997TIP3   OH223954   4.463   4.973   5.481
 7997TIP3    H123955   4.422   4.889   5.500
 7997TIP3    H223956   4.542   4.974   5.534
 7998TIP3   OH223957   6.011   3.493   4.082
 7998TIP3    H123958   6.025   3.564   4.020
 7998TIP3    H223959   6.085   3.433   4.068
 7999TIP3   OH223960   4.721   4.805   3.965
 7999TIP3    H123961   4.666   4.876   3.933
 7999TIP3    H223962   4.672   4.767   4.038
 8000TIP3   OH223963   4.278   5.267   3.228
 8000TIP3    H123964   4.355   5.289   3.279
 8000TIP3    H223965   4.303   5.189   3.178
 8001TIP3   OH223966   5.106   5.508   0.384
 8001TIP3    H123967   5.175   5.569   0.412
 8001TIP3    H223968   5.024   5.555   0.401
 8002TIP3   OH223969   0.109   3.454   2.952
 8002TIP3    H123970   0.129   3.544   2.978
 8002TIP3    H223971   0.117   3.403   3.032
 8003TIP3   OH223972   2.278   3.288   5.340
 8003TIP3    H123973   2.355   3.315   5.290
 8003TIP3    H223974   2.309   3.283   5.431
 8004TIP3   OH223975   3.640   0.106   0.851
 8004TIP3    H123976   3.705   0.059   0.798
 8004TIP3    H223977   3.692   0.162   0.909
 8005TIP3   OH223978   2.877   5.810   5.424
 8005TIP3    H123979   2.880   5.821   5.519
 8005TIP3    H223980   2.815   5.876   5.394
 8006TIP3   OH223981   1.786   2.390   2.428
 8006TIP3    H123982   1.713   2.365   2.485
 8006TIP3    H223983   1.745   2.417   2.346
 8007TIP3   OH223984   4.830   6.700   3.771
 8007TIP3    H123985   4.832   6.794   3.789
 8007TIP3    H223986   4.887   6.662   3.838
 8008TIP3   OH223987   6.035   2.302   4.503
 8008TIP3    H123988   6.091   2.282   4.578
 8008TIP3    H223989   6.084   2.270   4.428
 8009TIP3   OH223990   5.816   3.057   4.884
 8009TIP3    H123991   5.823   3.105   4.801
 8009TIP3    H223992   5.892   3.085   4.934
 8010TIP3   OH223993   0.183   6.449   1.256
 8010TIP3    H123994   0.112   6.395   1.222
 8010TIP3    H223995   0.259   6.425   1.204
 8011TIP3   OH223996   0.244   1.813   1.159
 8011TIP3    H123997   0.172   1.876   1.159
 8011TIP3    H223998   0.321   1.866   1.139
 8012TIP3   OH223999   6.980   4.273   5.578
 8012TIP3    H124000   7.038   4.246   5.508
 8012TIP3    H224001   6.982   4.368   5.576
 8013TIP3   OH224002   6.534   2.752   1.467
 8013TIP3    H124003   6.603   2.722   1.527
 8013TIP3    H224004   6.500   2.672   1.427
 8014TIP3   OH224005   3.800   5.000   4.582
 8014TIP3    H124006   3.705   5.014   4.579
 8014TIP3    H224007   3.834   5.050   4.508
 8015TIP3   OH224008   5.779   1.598  -0.011
 8015TIP3    H124009   5.751   1.608   0.079
 8015TIP3    H224010   5.874   1.583  -0.005
 8016TIP3   OH224011   2.999   1.081   1.680
 8016TIP3    H124012   2.943   1.134   1.736
 8016TIP3    H224013   2.951   0.998   1.671
 8017TIP3   OH224014   5.489   3.883   1.835
 8017TIP3    H124015   5.492   3.882   1.931
 8017TIP3    H224016   5.436   3.960   1.814
 8018TIP3   OH224017   2.653   4.164   5.274
 8018TIP3    H124018   2.614   4.251   5.279
 8018TIP3    H224019   2.741   4.179   5.239
 8019TIP3   OH224020   4.927   1.638   1.277
 8019TIP3    H124021   4.894   1.607   1.192
 8019TIP3    H224022   4.895   1.574   1.340
 8020TIP3   OH224023   5.448   4.456   5.216
 8020TIP3    H124024   5.446   4.481   5.124
 8020TIP3    H224025   5.508   4.518   5.257
 8021TIP3   OH224026   7.007   4.221   3.145
 8021TIP3    H124027   6.953   4.162   3.092
 8021TIP3    H224028   7.074   4.254   3.085
 8022TIP3   OH224029  -0.025   2.456   0.339
 8022TIP3    H124030   0.045   2.520   0.329
 8022TIP3    H224031   0.009   2.376   0.298
 8023TIP3   OH224032   4.356   2.837   0.298
 8023TIP3    H124033   4.321   2.767   0.353
 8023TIP3    H224034   4.298   2.839   0.222
 8024TIP3   OH224035   0.728  -0.021   2.889
 8024TIP3    H124036   0.755  -0.097   2.837
 8024TIP3    H224037   0.694   0.041   2.824
 8025TIP3   OH224038   6.099   5.933   1.742
 8025TIP3    H124039   6.086   5.936   1.837
 8025TIP3    H224040   6.012   5.915   1.706
 8026TIP3   OH224041   3.146   0.491   1.116
 8026TIP3    H124042   3.221   0.450   1.158
 8026TIP3    H224043   3.079   0.495   1.185
 8027TIP3   OH224044   2.245   5.886   4.383
 8027TIP3    H124045   2.164   5.880   4.332
 8027TIP3    H224046   2.224   5.949   4.452
 8028TIP3   OH224047   5.966   2.256   2.596
 8028TIP3    H124048   5.982   2.329   2.657
 8028TIP3    H224049   6.033   2.268   2.528
 8029TIP3   OH224050   3.424   1.660   3.427
 8029TIP3    H124051   3.466   1.732   3.380
 8029TIP3    H224052   3.465   1.581   3.392
 8030TIP3   OH224053   1.393   6.712   0.718
 8030TIP3    H124054   1.487   6.703   0.733
 8030TIP3    H224055   1.353   6.645   0.773
 8031TIP3   OH224056   1.123   5.334   3.424
 8031TIP3    H124057   1.092   5.402   3.483
 8031TIP3    H224058   1.059   5.263   3.432
 8032TIP3   OH224059   0.966   1.031   1.833
 8032TIP3    H124060   0.925   0.975   1.898
 8032TIP3    H224061   1.058   1.034   1.859
 8033TIP3   OH224062   0.635   0.744   5.377
 8033TIP3    H124063   0.707   0.739   5.314
 8033TIP3    H224064   0.635   0.834   5.407
 8034TIP3   OH224065   0.641   1.314   5.803
 8034TIP3    H124066   0.564   1.260   5.820
 8034TIP3    H224067   0.667   1.347   5.889
 8035TIP3   OH224068   0.434   1.772   5.498
 8035TIP3    H124069   0.494   1.816   5.437
 8035TIP3    H224070   0.486   1.762   5.578
 8036TIP3   OH224071   6.720   1.451   1.598
 8036TIP3    H124072   6.656   1.454   1.527
 8036TIP3    H224073   6.673   1.411   1.671
 8037TIP3   OH224074   1.789   4.905   3.555
 8037TIP3    H124075   1.722   4.887   3.489
 8037TIP3    H224076   1.742   4.902   3.638
 8038TIP3   OH224077   6.585   4.662   0.617
 8038TIP3    H124078   6.617   4.605   0.687
 8038TIP3    H224079   6.631   4.744   0.631
 8039TIP3   OH224080   2.760   6.123   5.360
 8039TIP3    H124081   2.834   6.146   5.416
 8039TIP3    H224082   2.798   6.111   5.273
 8040TIP3   OH224083   6.630   0.699   1.735
 8040TIP3    H124084   6.645   0.611   1.770
 8040TIP3    H224085   6.716   0.741   1.737
 8041TIP3   OH224086   5.599   2.384   4.675
 8041TIP3    H124087   5.644   2.409   4.595
 8041TIP3    H224088   5.507   2.408   4.659
 8042TIP3   OH224089   4.601   4.146   2.714
 8042TIP3    H124090   4.632   4.103   2.633
 8042TIP3    H224091   4.649   4.101   2.784
 8043TIP3   OH224092   3.870   2.409   5.679
 8043TIP3    H124093   3.856   2.489   5.628
 8043TIP3    H224094   3.825   2.426   5.762
 8044TIP3   OH224095   4.484   2.088   4.374
 8044TIP3    H124096   4.466   2.019   4.437
 8044TIP3    H224097   4.568   2.064   4.335
 8045TIP3   OH224098   2.509   5.027   3.560
 8045TIP3    H124099   2.482   5.090   3.626
 8045TIP3    H224100   2.601   5.010   3.579
 8046TIP3   OH224101   1.154   1.237   3.712
 8046TIP3    H124102   1.087   1.170   3.698
 8046TIP3    H224103   1.124   1.285   3.788
 8047TIP3   OH224104   2.941   1.133   4.074
 8047TIP3    H124105   3.017   1.177   4.112
 8047TIP3    H224106   2.898   1.200   4.022
 8048TIP3   OH224107   5.243   1.752   5.016
 8048TIP3    H124108   5.176   1.686   5.003
 8048TIP3    H224109   5.326   1.707   5.000
 8049TIP3   OH224110   1.114   0.582   3.731
 8049TIP3    H124111   1.044   0.606   3.793
 8049TIP3    H224112   1.101   0.488   3.718
 8050TIP3   OH224113   5.024   1.777   2.801
 8050TIP3    H124114   4.970   1.707   2.838
 8050TIP3    H224115   5.015   1.850   2.862
 8051TIP3   OH224116   1.762   2.754   2.219
 8051TIP3    H124117   1.733   2.809   2.146
 8051TIP3    H224118   1.726   2.798   2.297
 8052TIP3   OH224119   5.053   1.487   3.594
 8052TIP3    H124120   5.094   1.488   3.507
 8052TIP3    H224121   4.964   1.517   3.578
 8053TIP3   OH224122   2.675   6.678   4.060
 8053TIP3    H124123   2.725   6.756   4.082
 8053TIP3    H224124   2.740   6.607   4.061
 8054TIP3   OH224125   1.880   3.841   1.226
 8054TIP3    H124126   1.918   3.753   1.222
 8054TIP3    H224127   1.912   3.876   1.309
 8055TIP3   OH224128   6.702   5.351   2.303
 8055TIP3    H124129   6.621   5.387   2.339
 8055TIP3    H224130   6.698   5.257   2.322
 8056TIP3   OH224131   7.122   1.398   0.268
 8056TIP3    H124132   7.056   1.329   0.263
 8056TIP3    H224133   7.077   1.477   0.239
 8057TIP3   OH224134   1.060   1.608   1.150
 8057TIP3    H124135   0.978   1.618   1.101
 8057TIP3    H224136   1.077   1.514   1.148
 8058TIP3   OH224137   2.125   4.494   5.447
 8058TIP3    H124138   2.165   4.408   5.432
 8058TIP3    H224139   2.198   4.556   5.440
 8059TIP3   OH224140   0.707   1.279   1.530
 8059TIP3    H124141   0.698   1.256   1.437
 8059TIP3    H224142   0.699   1.196   1.576
 8060TIP3   OH224143   5.226   5.886   5.520
 8060TIP3    H124144   5.158   5.821   5.536
 8060TIP3    H224145   5.297   5.863   5.580
 8061TIP3   OH224146   3.273   1.796   3.708
 8061TIP3    H124147   3.209   1.762   3.646
 8061TIP3    H224148   3.353   1.806   3.657
 8062TIP3   OH224149   2.150   0.124   5.490
 8062TIP3    H124150   2.153   0.037   5.528
 8062TIP3    H224151   2.104   0.112   5.406
 8063TIP3   OH224152   2.000   1.418   1.338
 8063TIP3    H124153   2.066   1.412   1.407
 8063TIP3    H224154   1.931   1.357   1.365
 8064TIP3   OH224155   3.546   4.263   0.529
 8064TIP3    H124156   3.619   4.221   0.575
 8064TIP3    H224157   3.481   4.194   0.518
 8065TIP3   OH224158   4.652   3.648   5.397
 8065TIP3    H124159   4.679   3.629   5.307
 8065TIP3    H224160   4.732   3.640   5.448
 8066TIP3   OH224161   1.540   5.331   0.122
 8066TIP3    H124162   1.470   5.393   0.141
 8066TIP3    H224163   1.593   5.373   0.054
 8067TIP3   OH224164   1.879   1.264   0.819
 8067TIP3    H124165   1.804   1.322   0.829
 8067TIP3    H224166   1.890   1.223   0.904
 8068TIP3   OH224167   6.769   3.541   3.200
 8068TIP3    H124168   6.715   3.467   3.229
 8068TIP3    H224169   6.796   3.584   3.281
 8069TIP3   OH224170   6.029   1.670   1.783
 8069TIP3    H124171   5.981   1.679   1.701
 8069TIP3    H224172   6.093   1.602   1.766
 8070TIP3   OH224173   2.265   4.518   0.631
 8070TIP3    H124174   2.288   4.482   0.717
 8070TIP3    H224175   2.195   4.462   0.599
 8071TIP3   OH224176   0.056   1.701   3.191
 8071TIP3    H124177   0.007   1.648   3.254
 8071TIP3    H224178   0.072   1.642   3.118
 8072TIP3   OH224179   0.175   2.072   1.360
 8072TIP3    H124180   0.164   2.158   1.400
 8072TIP3    H224181   0.266   2.070   1.332
 8073TIP3   OH224182   0.615   4.304   4.247
 8073TIP3    H124183   0.554   4.378   4.240
 8073TIP3    H224184   0.577   4.248   4.315
 8074TIP3   OH224185   0.297   6.379   4.146
 8074TIP3    H124186   0.384   6.339   4.138
 8074TIP3    H224187   0.290   6.403   4.239
 8075TIP3   OH224188   0.168   3.208   4.946
 8075TIP3    H124189   0.179   3.264   4.869
 8075TIP3    H224190   0.242   3.148   4.943
 8076TIP3   OH224191   0.362   5.619   2.627
 8076TIP3    H124192   0.325   5.705   2.607
 8076TIP3    H224193   0.406   5.592   2.546
 8077TIP3   OH224194   1.146   3.758   5.274
 8077TIP3    H124195   1.065   3.749   5.326
 8077TIP3    H224196   1.121   3.729   5.186
 8078TIP3   OH224197   6.629   3.683   4.033
 8078TIP3    H124198   6.696   3.737   4.075
 8078TIP3    H224199   6.551   3.696   4.086
 8079TIP3   OH224200   7.042   1.601   4.303
 8079TIP3    H124201   6.993   1.540   4.248
 8079TIP3    H224202   7.030   1.686   4.262
 8080TIP3   OH224203   4.536   3.374   1.045
 8080TIP3    H124204   4.589   3.295   1.058
 8080TIP3    H224205   4.511   3.371   0.952
 8081TIP3   OH224206   3.780   3.789   1.204
 8081TIP3    H124207   3.706   3.730   1.186
 8081TIP3    H224208   3.845   3.733   1.247
 8082TIP3   OH224209   0.405   6.322   1.131
 8082TIP3    H124210   0.495   6.337   1.102
 8082TIP3    H224211   0.392   6.228   1.121
 8083TIP3   OH224212   0.005   5.866   2.697
 8083TIP3    H124213   0.065   5.930   2.738
 8083TIP3    H224214   0.006   5.889   2.604
 8084TIP3   OH224215   4.612   4.455   3.377
 8084TIP3    H124216   4.674   4.518   3.415
 8084TIP3    H224217   4.667   4.387   3.339
 8085TIP3   OH224218   5.462   2.037   1.887
 8085TIP3    H124219   5.473   2.007   1.797
 8085TIP3    H224220   5.526   1.987   1.937
 8086TIP3   OH224221   4.323   0.057   2.280
 8086TIP3    H124222   4.331  -0.016   2.341
 8086TIP3    H224223   4.324   0.135   2.335
 8087TIP3   OH224224   1.173   4.038   2.811
 8087TIP3    H124225   1.235   4.063   2.743
 8087TIP3    H224226   1.227   4.024   2.889
 8088TIP3   OH224227   1.587   0.766   4.691
 8088TIP3    H124228   1.588   0.847   4.743
 8088TIP3    H224229   1.513   0.716   4.725
 8089TIP3   OH224230   0.303   5.330   5.544
 8089TIP3    H124231   0.219   5.327   5.588
 8089TIP3    H224232   0.351   5.255   5.579
 8090TIP3   OH224233   6.569   6.442   1.856
 8090TIP3    H124234   6.591   6.394   1.936
 8090TIP3    H224235   6.638   6.509   1.848
 8091TIP3   OH224236   4.211   2.627   3.319
 8091TIP3    H124237   4.253   2.685   3.383
 8091TIP3    H224238   4.234   2.539   3.347
 8092TIP3   OH224239   7.013   6.301   5.871
 8092TIP3    H124240   7.077   6.363   5.908
 8092TIP3    H224241   7.035   6.217   5.911
 8093TIP3   OH224242   5.881   1.965   2.990
 8093TIP3    H124243   5.890   2.051   2.950
 8093TIP3    H224244   5.952   1.913   2.952
 8094TIP3   OH224245   3.699   5.702   0.135
 8094TIP3    H124246   3.703   5.635   0.066
 8094TIP3    H224247   3.777   5.687   0.188
 8095TIP3   OH224248   6.337   6.717   3.158
 8095TIP3    H124249   6.283   6.775   3.104
 8095TIP3    H224250   6.390   6.668   3.095
 8096TIP3   OH224251   6.349   0.025   4.295
 8096TIP3    H124252   6.256   0.017   4.314
 8096TIP3    H224253   6.392  -0.017   4.370
 8097TIP3   OH224254   3.486   2.049   4.628
 8097TIP3    H124255   3.473   2.143   4.642
 8097TIP3    H224256   3.428   2.027   4.555
 8098TIP3   OH224257   3.988   0.270   3.859
 8098TIP3    H124258   4.073   0.229   3.844
 8098TIP3    H224259   3.946   0.272   3.773
 8099TIP3   OH224260   5.272   6.259   2.460
 8099TIP3    H124261   5.327   6.313   2.403
 8099TIP3    H224262   5.245   6.319   2.530
 8100TIP3   OH224263   2.820   2.972   2.670
 8100TIP3    H124264   2.875   3.014   2.603
 8100TIP3    H224265   2.780   2.898   2.625
 8101TIP3   OH224266   1.370   5.216   1.399
 8101TIP3    H124267   1.457   5.240   1.430
 8101TIP3    H224268   1.383   5.130   1.359
 8102TIP3   OH224269   1.021   5.787   3.541
 8102TIP3    H124270   1.084   5.859   3.551
 8102TIP3    H224271   1.055   5.736   3.468
 8103TIP3   OH224272   2.082   6.706   3.255
 8103TIP3    H124273   2.065   6.800   3.264
 8103TIP3    H224274   2.109   6.678   3.343
 8104TIP3   OH224275   1.416   3.910   3.631
 8104TIP3    H124276   1.391   3.906   3.538
 8104TIP3    H224277   1.346   3.962   3.672
 8105TIP3   OH224278   4.366   3.416   5.256
 8105TIP3    H124279   4.361   3.477   5.182
 8105TIP3    H224280   4.303   3.347   5.234
 8106TIP3   OH224281   3.169   5.894   3.688
 8106TIP3    H124282   3.226   5.883   3.612
 8106TIP3    H224283   3.088   5.929   3.652
 8107TIP3   OH224284   2.191   4.562   3.971
 8107TIP3    H124285   2.194   4.572   4.066
 8107TIP3    H224286   2.148   4.641   3.940
 8108TIP3   OH224287   2.179   3.704   1.374
 8108TIP3    H124288   2.274   3.710   1.381
 8108TIP3    H224289   2.148   3.789   1.406
 8109TIP3   OH224290   4.690   5.175   0.683
 8109TIP3    H124291   4.755   5.106   0.669
 8109TIP3    H224292   4.732   5.236   0.743
 8110TIP3   OH224293   0.713   5.372   4.979
 8110TIP3    H124294   0.746   5.458   4.953
 8110TIP3    H224295   0.651   5.391   5.049
 8111TIP3   OH224296   5.896   5.346   5.004
 8111TIP3    H124297   5.892   5.438   4.979
 8111TIP3    H224298   5.809   5.326   5.038
 8112TIP3   OH224299   1.965   6.153   1.772
 8112TIP3    H124300   2.039   6.205   1.739
 8112TIP3    H224301   1.993   6.123   1.858
 8113TIP3   OH224302   1.948   2.217   4.180
 8113TIP3    H124303   2.041   2.231   4.200
 8113TIP3    H224304   1.930   2.128   4.209
 8114TIP3   OH224305   3.572   3.390   5.239
 8114TIP3    H124306   3.550   3.326   5.306
 8114TIP3    H224307   3.653   3.358   5.200
 8115TIP3   OH224308   1.526   4.418   4.831
 8115TIP3    H124309   1.496   4.509   4.841
 8115TIP3    H224310   1.540   4.387   4.920
 8116TIP3   OH224311   3.588   6.604   4.908
 8116TIP3    H124312   3.511   6.554   4.935
 8116TIP3    H224313   3.558   6.695   4.903
 8117TIP3   OH224314   3.492   3.353   2.809
 8117TIP3    H124315   3.426   3.404   2.858
 8117TIP3    H224316   3.441   3.305   2.744
 8118TIP3   OH224317   3.285   1.403   3.689
 8118TIP3    H124318   3.351   1.471   3.683
 8118TIP3    H224319   3.334   1.324   3.714
 8119TIP3   OH224320   5.159   4.378   2.682
 8119TIP3    H124321   5.246   4.379   2.722
 8119TIP3    H224322   5.126   4.290   2.698
 8120TIP3   OH224323   1.679   0.062   0.383
 8120TIP3    H124324   1.637   0.127   0.439
 8120TIP3    H224325   1.773   0.075   0.398
 8121TIP3   OH224326   1.835   6.690   2.941
 8121TIP3    H124327   1.852   6.667   3.033
 8121TIP3    H224328   1.859   6.782   2.935
 8122TIP3   OH224329   1.514   4.748   0.117
 8122TIP3    H124330   1.565   4.667   0.111
 8122TIP3    H224331   1.572   4.816   0.083
 8123TIP3   OH224332   0.101   0.021   2.517
 8123TIP3    H124333   0.006   0.029   2.522
 8123TIP3    H224334   0.135   0.099   2.560
 8124TIP3   OH224335   3.664   1.529   0.481
 8124TIP3    H124336   3.687   1.445   0.442
 8124TIP3    H224337   3.610   1.506   0.557
 8125TIP3   OH224338   2.218   0.271   2.434
 8125TIP3    H124339   2.285   0.256   2.501
 8125TIP3    H224340   2.222   0.192   2.379
 8126TIP3   OH224341   0.929   1.995   0.925
 8126TIP3    H124342   0.913   2.007   0.832
 8126TIP3    H224343   1.021   1.970   0.932
 8127TIP3   OH224344   6.429   0.572   4.543
 8127TIP3    H124345   6.387   0.487   4.551
 8127TIP3    H224346   6.514   0.561   4.587
 8128TIP3   OH224347   0.403   2.561   4.916
 8128TIP3    H124348   0.440   2.642   4.883
 8128TIP3    H224349   0.333   2.539   4.855
 8129TIP3   OH224350   2.234   5.192   2.771
 8129TIP3    H124351   2.203   5.120   2.825
 8129TIP3    H224352   2.180   5.188   2.692
 8130TIP3   OH224353   1.064   3.150   0.218
 8130TIP3    H124354   1.113   3.229   0.242
 8130TIP3    H224355   1.129   3.093   0.178
 8131TIP3   OH224356   1.759   4.657   1.300
 8131TIP3    H124357   1.782   4.748   1.283
 8131TIP3    H224358   1.789   4.609   1.222
 8132TIP3   OH224359   2.331   0.882   2.034
 8132TIP3    H124360   2.423   0.865   2.053
 8132TIP3    H224361   2.295   0.796   2.011
 8133TIP3   OH224362   0.971   1.792   1.336
 8133TIP3    H124363   0.988   1.722   1.273
 8133TIP3    H224364   1.044   1.787   1.398
 8134TIP3   OH224365   1.837   6.104   4.022
 8134TIP3    H124366   1.834   6.139   4.111
 8134TIP3    H224367   1.746   6.089   3.999
 8135TIP3   OH224368   3.381   0.095   3.906
 8135TIP3    H124369   3.408   0.013   3.950
 8135TIP3    H224370   3.454   0.115   3.847
 8136TIP3   OH224371   4.173   2.907   2.727
 8136TIP3    H124372   4.078   2.898   2.739
 8136TIP3    H224373   4.191   3.000   2.742
 8137TIP3   OH224374   0.510   6.581   2.365
 8137TIP3    H124375   0.515   6.672   2.393
 8137TIP3    H224376   0.521   6.530   2.445
 8138TIP3   OH224377   0.606   3.147   4.584
 8138TIP3    H124378   0.642   3.229   4.616
 8138TIP3    H224379   0.522   3.139   4.630
 8139TIP3   OH224380   2.821   3.607   4.909
 8139TIP3    H124381   2.792   3.650   4.829
 8139TIP3    H224382   2.769   3.648   4.979
 8140TIP3   OH224383   4.988   4.725   2.532
 8140TIP3    H124384   4.996   4.631   2.549
 8140TIP3    H224385   4.896   4.746   2.550
 8141TIP3   OH224386   5.051   1.169   2.872
 8141TIP3    H124387   5.142   1.198   2.871
 8141TIP3    H224388   5.056   1.075   2.889
 8142TIP3   OH224389   0.784   0.986   1.569
 8142TIP3    H124390   0.811   0.969   1.478
 8142TIP3    H224391   0.866   1.000   1.616
 8143TIP3   OH224392   4.673   6.462   2.524
 8143TIP3    H124393   4.766   6.477   2.507
 8143TIP3    H224394   4.635   6.448   2.438
 8144TIP3   OH224395   6.201   0.205   5.237
 8144TIP3    H124396   6.109   0.216   5.212
 8144TIP3    H224397   6.200   0.140   5.307
 8145TIP3   OH224398   3.898   2.790   1.559
 8145TIP3    H124399   3.884   2.844   1.481
 8145TIP3    H224400   3.819   2.738   1.567
 8146TIP3   OH224401   2.843   1.386   3.997
 8146TIP3    H124402   2.753   1.415   4.009
 8146TIP3    H224403   2.893   1.432   4.065
 8147TIP3   OH224404   2.867   4.931   1.592
 8147TIP3    H124405   2.834   4.988   1.521
 8147TIP3    H224406   2.790   4.884   1.622
 8148TIP3   OH224407   3.417   3.063   4.546
 8148TIP3    H124408   3.354   2.993   4.527
 8148TIP3    H224409   3.424   3.065   4.641
 8149TIP3   OH224410   2.389   6.264   4.079
 8149TIP3    H124411   2.297   6.255   4.102
 8149TIP3    H224412   2.419   6.174   4.065
 8150TIP3   OH224413   3.033   0.420   4.081
 8150TIP3    H124414   2.948   0.438   4.122
 8150TIP3    H224415   3.074   0.506   4.074
 8151TIP3   OH224416   5.413   4.577   1.412
 8151TIP3    H124417   5.417   4.517   1.487
 8151TIP3    H224418   5.320   4.586   1.393
 8152TIP3   OH224419   6.856   4.283   1.046
 8152TIP3    H124420   6.775   4.323   1.077
 8152TIP3    H224421   6.926   4.335   1.086
 8153TIP3   OH224422   4.510   1.155   3.781
 8153TIP3    H124423   4.462   1.072   3.783
 8153TIP3    H224424   4.459   1.213   3.837
 8154TIP3   OH224425   2.145   0.923   0.691
 8154TIP3    H124426   2.216   0.986   0.682
 8154TIP3    H224427   2.065   0.975   0.691
 8155TIP3   OH224428   1.911   1.139   3.074
 8155TIP3    H124429   1.887   1.073   3.009
 8155TIP3    H224430   1.987   1.101   3.118
 8156TIP3   OH224431   2.015   4.824   2.662
 8156TIP3    H124432   2.022   4.767   2.740
 8156TIP3    H224433   1.927   4.859   2.666
 8157TIP3   OH224434   1.998   3.487   2.664
 8157TIP3    H124435   2.025   3.405   2.705
 8157TIP3    H224436   2.017   3.554   2.730
 8158TIP3   OH224437   4.620   1.682   3.873
 8158TIP3    H124438   4.543   1.666   3.928
 8158TIP3    H224439   4.650   1.595   3.848
 8159TIP3   OH224440   1.114   5.512   4.768
 8159TIP3    H124441   1.082   5.540   4.854
 8159TIP3    H224442   1.161   5.588   4.733
 8160TIP3   OH224443   5.473   6.319   4.089
 8160TIP3    H124444   5.514   6.359   4.165
 8160TIP3    H224445   5.546   6.295   4.032
 8161TIP3   OH224446   4.999   0.068   4.872
 8161TIP3    H124447   5.089   0.079   4.903
 8161TIP3    H224448   4.957   0.016   4.940
 8162TIP3   OH224449   1.485   4.662   3.397
 8162TIP3    H124450   1.484   4.607   3.475
 8162TIP3    H224451   1.393   4.683   3.381
 8163TIP3   OH224452   4.689   6.436   4.459
 8163TIP3    H124453   4.685   6.477   4.373
 8163TIP3    H224454   4.777   6.455   4.492
 8164TIP3   OH224455   2.446   0.602   2.099
 8164TIP3    H124456   2.478   0.528   2.047
 8164TIP3    H224457   2.353   0.584   2.112
 8165TIP3   OH224458   0.818   4.903   2.850
 8165TIP3    H124459   0.774   4.984   2.828
 8165TIP3    H224460   0.895   4.931   2.901
 8166TIP3   OH224461   3.286   4.188   0.117
 8166TIP3    H124462   3.233   4.154   0.045
 8166TIP3    H224463   3.366   4.135   0.114
 8167TIP3   OH224464   6.345   1.328   3.537
 8167TIP3    H124465   6.379   1.394   3.477
 8167TIP3    H224466   6.362   1.245   3.492
 8168TIP3   OH224467   6.258   1.754   5.545
 8168TIP3    H124468   6.221   1.825   5.598
 8168TIP3    H224469   6.326   1.796   5.492
 8169TIP3   OH224470   1.408   0.143   3.628
 8169TIP3    H124471   1.338   0.143   3.563
 8169TIP3    H224472   1.440   0.053   3.629
 8170TIP3   OH224473   6.164   1.404   0.365
 8170TIP3    H124474   6.137   1.426   0.454
 8170TIP3    H224475   6.256   1.428   0.360
 8171TIP3   OH224476   4.605   2.545   1.800
 8171TIP3    H124477   4.511   2.559   1.805
 8171TIP3    H224478   4.616   2.470   1.741
 8172TIP3   OH224479   3.710   4.005   3.611
 8172TIP3    H124480   3.729   3.996   3.517
 8172TIP3    H224481   3.644   4.074   3.615
 8173TIP3   OH224482   6.973   4.045   1.260
 8173TIP3    H124483   7.045   4.094   1.298
 8173TIP3    H224484   6.988   4.050   1.165
 8174TIP3   OH224485   1.720   5.250   1.304
 8174TIP3    H124486   1.687   5.306   1.375
 8174TIP3    H224487   1.810   5.229   1.330
 8175TIP3   OH224488   3.764   6.195   3.365
 8175TIP3    H124489   3.752   6.173   3.458
 8175TIP3    H224490   3.741   6.288   3.360
 8176TIP3   OH224491   4.340   5.593   2.680
 8176TIP3    H124492   4.407   5.634   2.625
 8176TIP3    H224493   4.272   5.565   2.619
 8177TIP3   OH224494   2.727   6.321  -0.010
 8177TIP3    H124495   2.658   6.346   0.051
 8177TIP3    H224496   2.776   6.253   0.037
 8178TIP3   OH224497   3.529   4.423   2.784
 8178TIP3    H124498   3.490   4.475   2.854
 8178TIP3    H224499   3.523   4.478   2.707
 8179TIP3   OH224500   4.096   2.386   2.609
 8179TIP3    H124501   4.131   2.463   2.652
 8179TIP3    H224502   4.073   2.327   2.681
 8180TIP3   OH224503   6.338   5.644   5.693
 8180TIP3    H124504   6.379   5.637   5.780
 8180TIP3    H224505   6.305   5.556   5.676
 8181TIP3   OH224506   5.142   4.166   5.186
 8181TIP3    H124507   5.063   4.219   5.199
 8181TIP3    H224508   5.175   4.193   5.101
 8182TIP3   OH224509   1.924   5.648   4.830
 8182TIP3    H124510   1.921   5.674   4.738
 8182TIP3    H224511   1.832   5.643   4.857
 8183TIP3   OH224512   6.805   2.019   0.307
 8183TIP3    H124513   6.793   2.085   0.375
 8183TIP3    H224514   6.875   2.054   0.252
 8184TIP3   OH224515   3.953   6.398   1.655
 8184TIP3    H124516   3.979   6.306   1.643
 8184TIP3    H224517   3.862   6.401   1.626
 8185TIP3   OH224518   6.963   6.221   3.803
 8185TIP3    H124519   7.036   6.247   3.860
 8185TIP3    H224520   6.886   6.226   3.859
 8186TIP3   OH224521   5.209   5.794   1.381
 8186TIP3    H124522   5.167   5.844   1.311
 8186TIP3    H224523   5.174   5.705   1.372
 8187TIP3   OH224524   6.950   0.382   5.109
 8187TIP3    H124525   7.027   0.364   5.162
 8187TIP3    H224526   6.897   0.303   5.115
 8188TIP3   OH224527   3.052   0.525   0.443
 8188TIP3    H124528   2.969   0.492   0.409
 8188TIP3    H224529   3.093   0.449   0.484
 8189TIP3   OH224530   4.563   2.973   2.281
 8189TIP3    H124531   4.589   3.036   2.213
 8189TIP3    H224532   4.633   2.909   2.283
 8190TIP3   OH224533   4.660   2.770   1.497
 8190TIP3    H124534   4.712   2.729   1.427
 8190TIP3    H224535   4.657   2.862   1.473
 8191TIP3   OH224536   3.152   2.278   2.259
 8191TIP3    H124537   3.112   2.272   2.345
 8191TIP3    H224538   3.241   2.243   2.271
 8192TIP3   OH224539   4.376   0.139   1.355
 8192TIP3    H124540   4.395   0.091   1.435
 8192TIP3    H224541   4.318   0.082   1.305
 8193TIP3   OH224542   4.351   3.338   3.066
 8193TIP3    H124543   4.412   3.313   2.997
 8193TIP3    H224544   4.371   3.431   3.083
 8194TIP3   OH224545   2.193   0.901   3.805
 8194TIP3    H124546   2.138   0.958   3.859
 8194TIP3    H224547   2.274   0.892   3.854
 8195TIP3   OH224548   0.797   0.417   0.424
 8195TIP3    H124549   0.784   0.360   0.348
 8195TIP3    H224550   0.709   0.438   0.454
 8196TIP3   OH224551   2.301   6.312   2.633
 8196TIP3    H124552   2.265   6.350   2.553
 8196TIP3    H224553   2.230   6.321   2.697
 8197TIP3   OH224554   1.926   2.238   4.995
 8197TIP3    H124555   2.017   2.224   4.969
 8197TIP3    H224556   1.929   2.313   5.055
 8198TIP3   OH224557   3.135   2.238   0.829
 8198TIP3    H124558   3.071   2.167   0.833
 8198TIP3    H224559   3.171   2.232   0.741
 8199TIP3   OH224560   5.628   1.121   1.818
 8199TIP3    H124561   5.551   1.068   1.837
 8199TIP3    H224562   5.694   1.090   1.880
 8200TIP3   OH224563   4.719   3.260   2.328
 8200TIP3    H124564   4.761   3.344   2.349
 8200TIP3    H224565   4.765   3.230   2.249
 8201TIP3   OH224566   4.646   4.505   3.811
 8201TIP3    H124567   4.610   4.486   3.897
 8201TIP3    H224568   4.597   4.582   3.781
 8202TIP3   OH224569   0.964   1.453   4.532
 8202TIP3    H124570   1.023   1.509   4.480
 8202TIP3    H224571   0.953   1.374   4.479
 8203TIP3   OH224572   0.560   4.765   3.427
 8203TIP3    H124573   0.583   4.674   3.443
 8203TIP3    H224574   0.467   4.771   3.447
 8204TIP3   OH224575   2.632   2.949   2.355
 8204TIP3    H124576   2.625   2.996   2.438
 8204TIP3    H224577   2.669   3.014   2.294
 8205TIP3   OH224578   2.055   6.327   2.789
 8205TIP3    H124579   1.980   6.267   2.785
 8205TIP3    H224580   2.025   6.405   2.742
 8206TIP3   OH224581   7.092   3.269   3.509
 8206TIP3    H124582   7.166   3.231   3.556
 8206TIP3    H224583   7.066   3.203   3.446
 8207TIP3   OH224584   5.998   2.642   1.596
 8207TIP3    H124585   6.047   2.719   1.568
 8207TIP3    H224586   5.945   2.619   1.519
 8208TIP3   OH224587   5.506   5.143   5.547
 8208TIP3    H124588   5.597   5.173   5.539
 8208TIP3    H224589   5.455   5.224   5.553
 8209TIP3   OH224590   5.469   6.403   0.367
 8209TIP3    H124591   5.516   6.458   0.303
 8209TIP3    H224592   5.436   6.330   0.315
 8210TIP3   OH224593   4.043   5.818   0.877
 8210TIP3    H124594   4.067   5.727   0.898
 8210TIP3    H224595   4.063   5.867   0.957
 8211TIP3   OH224596   4.184   5.052   1.162
 8211TIP3    H124597   4.204   4.963   1.192
 8211TIP3    H224598   4.178   5.104   1.242
 8212TIP3   OH224599   2.088   4.091   1.825
 8212TIP3    H124600   2.131   4.155   1.881
 8212TIP3    H224601   2.112   4.006   1.861
 8213TIP3   OH224602   5.533   1.750   4.702
 8213TIP3    H124603   5.532   1.844   4.718
 8213TIP3    H224604   5.492   1.740   4.616
 8214TIP3   OH224605   4.585   4.298   4.785
 8214TIP3    H124606   4.680   4.303   4.799
 8214TIP3    H224607   4.548   4.354   4.854
 8215TIP3   OH224608   5.276   4.695   2.453
 8215TIP3    H124609   5.191   4.730   2.479
 8215TIP3    H224610   5.339   4.746   2.503
 8216TIP3   OH224611   6.327   0.420   2.956
 8216TIP3    H124612   6.392   0.425   2.886
 8216TIP3    H224613   6.266   0.491   2.938
 8217TIP3   OH224614   6.942   6.433   2.634
 8217TIP3    H124615   6.959   6.431   2.540
 8217TIP3    H224616   6.879   6.505   2.645
 8218TIP3   OH224617   0.723   0.277   0.201
 8218TIP3    H124618   0.692   0.203   0.150
 8218TIP3    H224619   0.691   0.354   0.154
 8219TIP3   OH224620   5.455   2.014   2.534
 8219TIP3    H124621   5.416   1.995   2.448
 8219TIP3    H224622   5.392   1.979   2.597
 8220TIP3   OH224623   5.383   4.221   5.347
 8220TIP3    H124624   5.383   4.311   5.314
 8220TIP3    H224625   5.321   4.175   5.290
 8221TIP3   OH224626   0.883   1.013   2.845
 8221TIP3    H124627   0.810   0.976   2.895
 8221TIP3    H224628   0.874   1.108   2.856
 8222TIP3   OH224629   0.657   0.213   5.436
 8222TIP3    H124630   0.663   0.266   5.356
 8222TIP3    H224631   0.568   0.229   5.467
 8223TIP3   OH224632   3.782   3.662   4.847
 8223TIP3    H124633   3.844   3.721   4.804
 8223TIP3    H224634   3.717   3.642   4.779
 8224TIP3   OH224635   4.917   2.013   0.018
 8224TIP3    H124636   4.892   1.983  -0.069
 8224TIP3    H224637   4.876   1.951   0.078
 8225TIP3   OH224638   6.538   0.880   1.955
 8225TIP3    H124639   6.460   0.852   2.003
 8225TIP3    H224640   6.528   0.841   1.869
 8226TIP3   OH224641   4.014   1.047   5.625
 8226TIP3    H124642   4.082   1.075   5.564
 8226TIP3    H224643   4.051   1.065   5.712
 8227TIP3   OH224644   0.223   4.376   2.163
 8227TIP3    H124645   0.168   4.303   2.190
 8227TIP3    H224646   0.233   4.429   2.242
 8228TIP3   OH224647   0.804   4.809   5.729
 8228TIP3    H124648   0.842   4.826   5.642
 8228TIP3    H224649   0.869   4.842   5.790
 8229TIP3   OH224650   1.536   3.599   5.875
 8229TIP3    H124651   1.462   3.632   5.823
 8229TIP3    H224652   1.607   3.587   5.812
 8230TIP3   OH224653   3.379   2.965   3.209
 8230TIP3    H124654   3.351   3.055   3.194
 8230TIP3    H224655   3.301   2.920   3.238
 8231TIP3   OH224656   6.764   0.280   4.239
 8231TIP3    H124657   6.734   0.343   4.304
 8231TIP3    H224658   6.830   0.328   4.189
 8232TIP3   OH224659   6.123   2.283   3.742
 8232TIP3    H124660   6.137   2.265   3.649
 8232TIP3    H224661   6.143   2.376   3.751
 8233TIP3   OH224662   3.430   6.298   3.283
 8233TIP3    H124663   3.411   6.382   3.242
 8233TIP3    H224664   3.415   6.313   3.376
 8234TIP3   OH224665   5.328   0.092   3.697
 8234TIP3    H124666   5.332   0.067   3.605
 8234TIP3    H224667   5.237   0.120   3.710
 8235TIP3   OH224668   7.150   5.920   0.466
 8235TIP3    H124669   7.187   5.833   0.448
 8235TIP3    H224670   7.059   5.903   0.491
 8236TIP3   OH224671   1.246   5.617   3.425
 8236TIP3    H124672   1.210   5.536   3.388
 8236TIP3    H224673   1.337   5.618   3.395
 8237TIP3   OH224674   1.005   5.349   4.211
 8237TIP3    H124675   1.040   5.276   4.262
 8237TIP3    H224676   0.911   5.335   4.210
 8238TIP3   OH224677   6.684   1.742   1.235
 8238TIP3    H124678   6.696   1.821   1.182
 8238TIP3    H224679   6.755   1.684   1.209
 8239TIP3   OH224680   0.995   5.054   0.951
 8239TIP3    H124681   0.984   5.137   0.907
 8239TIP3    H224682   1.089   5.036   0.947
 8240TIP3   OH224683   4.730   2.062   2.942
 8240TIP3    H124684   4.726   1.970   2.969
 8240TIP3    H224685   4.718   2.112   3.023
 8241TIP3   OH224686   7.019   1.588   1.496
 8241TIP3    H124687   7.054   1.675   1.476
 8241TIP3    H224688   7.030   1.579   1.591
 8242TIP3   OH224689   1.035   1.314   3.968
 8242TIP3    H124690   1.072   1.365   4.039
 8242TIP3    H224691   0.968   1.371   3.929
 8243TIP3   OH224692   4.179   1.522   2.593
 8243TIP3    H124693   4.240   1.592   2.572
 8243TIP3    H224694   4.128   1.509   2.513
 8244TIP3   OH224695   3.243   5.391   0.138
 8244TIP3    H124696   3.281   5.389   0.050
 8244TIP3    H224697   3.171   5.453   0.132
 8245TIP3   OH224698   1.415   0.185   0.596
 8245TIP3    H124699   1.364   0.225   0.666
 8245TIP3    H224700   1.500   0.228   0.601
 8246TIP3   OH224701   4.409   0.735   3.223
 8246TIP3    H124702   4.412   0.817   3.272
 8246TIP3    H224703   4.319   0.728   3.192
 8247TIP3   OH224704   0.572   1.104   4.598
 8247TIP3    H124705   0.565   1.017   4.558
 8247TIP3    H224706   0.486   1.120   4.637
 8248TIP3   OH224707   4.023   6.666   4.502
 8248TIP3    H124708   4.077   6.600   4.545
 8248TIP3    H224709   3.944   6.619   4.476
 8249TIP3   OH224710   4.199   0.296   1.544
 8249TIP3    H124711   4.263   0.235   1.508
 8249TIP3    H224712   4.239   0.328   1.625
 8250TIP3   OH224713   2.553   6.040   1.088
 8250TIP3    H124714   2.514   5.966   1.134
 8250TIP3    H224715   2.492   6.112   1.103
 8251TIP3   OH224716   6.164   5.121   5.296
 8251TIP3    H124717   6.217   5.066   5.238
 8251TIP3    H224718   6.195   5.210   5.279
 8252TIP3   OH224719   5.690   0.510   3.728
 8252TIP3    H124720   5.723   0.443   3.668
 8252TIP3    H224721   5.720   0.482   3.814
 8253TIP3   OH224722   6.513   3.238   1.394
 8253TIP3    H124723   6.441   3.229   1.456
 8253TIP3    H224724   6.540   3.148   1.375
 8254TIP3   OH224725   2.720   1.853   1.078
 8254TIP3    H124726   2.781   1.786   1.110
 8254TIP3    H224727   2.753   1.935   1.115
 8255TIP3   OH224728   2.011   0.658   5.903
 8255TIP3    H124729   1.994   0.731   5.963
 8255TIP3    H224730   2.070   0.601   5.952
 8256TIP3   OH224731   5.795   2.028   4.342
 8256TIP3    H124732   5.847   1.977   4.404
 8256TIP3    H224733   5.721   2.060   4.393
 8257TIP3   OH224734   6.248   0.664   0.432
 8257TIP3    H124735   6.301   0.741   0.453
 8257TIP3    H224736   6.306   0.590   0.445
 8258TIP3   OH224737   4.431   4.971   0.482
 8258TIP3    H124738   4.456   4.889   0.526
 8258TIP3    H224739   4.436   4.950   0.388
 8259TIP3   OH224740   4.170   5.388   2.603
 8259TIP3    H124741   4.222   5.309   2.616
 8259TIP3    H224742   4.151   5.418   2.692
 8260TIP3   OH224743   3.273   0.146   0.230
 8260TIP3    H124744   3.345   0.168   0.290
 8260TIP3    H224745   3.258   0.053   0.246
 8261TIP3   OH224746   0.132   4.904   1.692
 8261TIP3    H124747   0.226   4.894   1.677
 8261TIP3    H224748   0.116   4.998   1.688
 8262TIP3   OH224749   0.339   1.550   5.755
 8262TIP3    H124750   0.281   1.569   5.682
 8262TIP3    H224751   0.427   1.555   5.718
 8263TIP3   OH224752   0.365   1.456   0.005
 8263TIP3    H124753   0.340   1.548  -0.001
 8263TIP3    H224754   0.371   1.427  -0.086
 8264TIP3   OH224755   0.512   5.330   4.402
 8264TIP3    H124756   0.455   5.384   4.347
 8264TIP3    H224757   0.560   5.392   4.457
 8265TIP3   OH224758   0.609   4.304   3.871
 8265TIP3    H124759   0.603   4.391   3.832
 8265TIP3    H224760   0.676   4.259   3.818
 8266TIP3   OH224761   3.273   5.240   3.640
 8266TIP3    H124762   3.350   5.295   3.624
 8266TIP3    H224763   3.284   5.166   3.580
 8267TIP3   OH224764   2.287   4.241   0.521
 8267TIP3    H124765   2.251   4.231   0.433
 8267TIP3    H224766   2.230   4.188   0.577
 8268TIP3   OH224767   1.167   3.186   5.876
 8268TIP3    H124768   1.124   3.108   5.841
 8268TIP3    H224769   1.242   3.200   5.819
 8269TIP3   OH224770   1.351   2.589   3.675
 8269TIP3    H124771   1.416   2.642   3.721
 8269TIP3    H224772   1.332   2.638   3.595
 8270TIP3   OH224773   0.502   4.282   4.678
 8270TIP3    H124774   0.419   4.322   4.701
 8270TIP3    H224775   0.478   4.203   4.630
 8271TIP3   OH224776   3.635   6.462   3.349
 8271TIP3    H124777   3.697   6.534   3.339
 8271TIP3    H224778   3.551   6.506   3.367
 8272TIP3   OH224779   6.312   4.528   1.781
 8272TIP3    H124780   6.290   4.480   1.861
 8272TIP3    H224781   6.342   4.461   1.720
 8273TIP3   OH224782   5.836   6.826   3.529
 8273TIP3    H124783   5.883   6.838   3.446
 8273TIP3    H224784   5.876   6.748   3.568
 8274TIP3   OH224785   1.252   4.841   0.661
 8274TIP3    H124786   1.290   4.777   0.601
 8274TIP3    H224787   1.166   4.862   0.623
 8275TIP3   OH224788   4.539   0.369   5.807
 8275TIP3    H124789   4.465   0.308   5.801
 8275TIP3    H224790   4.612   0.315   5.838
 8276TIP3   OH224791   0.266   3.294   1.816
 8276TIP3    H124792   0.327   3.277   1.743
 8276TIP3    H224793   0.293   3.232   1.884
 8277TIP3   OH224794   5.324   4.640   0.328
 8277TIP3    H124795   5.317   4.732   0.304
 8277TIP3    H224796   5.361   4.641   0.417
 8278TIP3   OH224797   1.220   5.246   2.079
 8278TIP3    H124798   1.236   5.151   2.076
 8278TIP3    H224799   1.224   5.274   1.988
 8279TIP3   OH224800   4.371   6.290   3.611
 8279TIP3    H124801   4.412   6.209   3.643
 8279TIP3    H224802   4.425   6.316   3.536
 8280TIP3   OH224803   1.119   6.234   0.747
 8280TIP3    H124804   1.053   6.185   0.699
 8280TIP3    H224805   1.172   6.276   0.679
 8281TIP3   OH224806   7.108   3.400   1.165
 8281TIP3    H124807   7.065   3.484   1.148
 8281TIP3    H224808   7.187   3.425   1.215
 8282TIP3   OH224809   2.619   1.275   0.199
 8282TIP3    H124810   2.635   1.316   0.113
 8282TIP3    H224811   2.705   1.241   0.225
 8283TIP3   OH224812   3.523   1.038   1.854
 8283TIP3    H124813   3.560   0.968   1.907
 8283TIP3    H224814   3.428   1.030   1.867
 8284TIP3   OH224815   1.190   5.606   2.851
 8284TIP3    H124816   1.131   5.677   2.874
 8284TIP3    H224817   1.239   5.589   2.932
 8285TIP3   OH224818   5.048   4.187   3.898
 8285TIP3    H124819   5.089   4.114   3.944
 8285TIP3    H224820   4.992   4.145   3.833
 8286TIP3   OH224821   6.815   0.585   0.182
 8286TIP3    H124822   6.847   0.672   0.205
 8286TIP3    H224823   6.736   0.573   0.234
 8287TIP3   OH224824   0.599   6.439   3.250
 8287TIP3    H124825   0.551   6.374   3.199
 8287TIP3    H224826   0.614   6.397   3.334
 8288TIP3   OH224827   4.014   1.415   3.965
 8288TIP3    H124828   4.007   1.381   3.876
 8288TIP3    H224829   3.948   1.366   4.014
 8289TIP3   OH224830   4.905   1.569   3.196
 8289TIP3    H124831   4.957   1.490   3.181
 8289TIP3    H224832   4.832   1.540   3.249
 8290TIP3   OH224833   6.579   2.983   1.331
 8290TIP3    H124834   6.602   2.963   1.240
 8290TIP3    H224835   6.573   2.897   1.372
 8291TIP3   OH224836   2.038   2.840   2.199
 8291TIP3    H124837   2.065   2.839   2.291
 8291TIP3    H224838   1.945   2.863   2.201
 8292TIP3   OH224839   1.628   0.403   1.573
 8292TIP3    H124840   1.606   0.445   1.490
 8292TIP3    H224841   1.724   0.399   1.574
 8293TIP3   OH224842   4.381   1.260   2.534
 8293TIP3    H124843   4.292   1.257   2.568
 8293TIP3    H224844   4.380   1.202   2.458
 8294TIP3   OH224845   1.810   2.519   3.858
 8294TIP3    H124846   1.819   2.423   3.861
 8294TIP3    H224847   1.774   2.537   3.771
 8295TIP3   OH224848   4.800   6.333   0.079
 8295TIP3    H124849   4.758   6.380   0.151
 8295TIP3    H224850   4.888   6.370   0.075
 8296TIP3   OH224851   6.666   3.484   2.008
 8296TIP3    H124852   6.757   3.465   1.986
 8296TIP3    H224853   6.643   3.418   2.074
 8297TIP3   OH224854   2.705   0.435   0.875
 8297TIP3    H124855   2.798   0.440   0.851
 8297TIP3    H224856   2.692   0.343   0.899
 8298TIP3   OH224857   4.394   6.491   1.821
 8298TIP3    H124858   4.409   6.575   1.779
 8298TIP3    H224859   4.386   6.429   1.749
 8299TIP3   OH224860   4.307   2.566   0.034
 8299TIP3    H124861   4.220   2.588   0.068
 8299TIP3    H224862   4.360   2.555   0.113
 8300TIP3   OH224863   0.834   4.856   3.358
 8300TIP3    H124864   0.757   4.874   3.411
 8300TIP3    H224865   0.814   4.776   3.311
 8301TIP3   OH224866   1.647   4.907   0.802
 8301TIP3    H124867   1.701   4.985   0.815
 8301TIP3    H224868   1.565   4.942   0.767
 8302TIP3   OH224869   3.685   6.487   1.160
 8302TIP3    H124870   3.642   6.569   1.184
 8302TIP3    H224871   3.708   6.498   1.068
 8303TIP3   OH224872   5.916   2.243   3.962
 8303TIP3    H124873   5.881   2.158   3.991
 8303TIP3    H224874   5.959   2.223   3.879
 8304TIP3   OH224875   6.281   0.870   3.291
 8304TIP3    H124876   6.239   0.956   3.294
 8304TIP3    H224877   6.374   0.889   3.280
 8305TIP3   OH224878   2.205   6.103   1.458
 8305TIP3    H124879   2.170   6.116   1.370
 8305TIP3    H224880   2.170   6.176   1.509
 8306TIP3   OH224881   6.660   6.465   3.192
 8306TIP3    H124882   6.590   6.451   3.255
 8306TIP3    H224883   6.622   6.522   3.125
 8307TIP3   OH224884   5.921   2.755   3.352
 8307TIP3    H124885   5.868   2.677   3.368
 8307TIP3    H224886   5.931   2.758   3.257
 8308TIP3   OH224887   4.507   3.707   3.931
 8308TIP3    H124888   4.470   3.622   3.956
 8308TIP3    H224889   4.433   3.756   3.895
 8309TIP3   OH224890   1.836   3.491   3.296
 8309TIP3    H124891   1.811   3.534   3.215
 8309TIP3    H224892   1.755   3.486   3.347
 8310TIP3   OH224893   1.860   2.967   2.745
 8310TIP3    H124894   1.874   3.029   2.673
 8310TIP3    H224895   1.832   3.022   2.818
 8311TIP3   OH224896   5.966   1.193   2.713
 8311TIP3    H124897   5.981   1.130   2.644
 8311TIP3    H224898   6.026   1.265   2.694
 8312TIP3   OH224899   4.107   6.344   4.409
 8312TIP3    H124900   4.127   6.414   4.346
 8312TIP3    H224901   4.017   6.360   4.435
 8313TIP3   OH224902   1.910   3.834   0.373
 8313TIP3    H124903   1.947   3.845   0.286
 8313TIP3    H224904   1.985   3.848   0.432
 8314TIP3   OH224905   4.990   2.126   2.482
 8314TIP3    H124906   4.955   2.201   2.530
 8314TIP3    H224907   4.913   2.085   2.443
 8315TIP3   OH224908   1.065   3.406   1.818
 8315TIP3    H124909   1.129   3.452   1.764
 8315TIP3    H224910   1.114   3.382   1.897
 8316TIP3   OH224911   5.499   2.684   0.810
 8316TIP3    H124912   5.540   2.770   0.802
 8316TIP3    H224913   5.527   2.636   0.732
 8317TIP3   OH224914   5.951   4.396   5.524
 8317TIP3    H124915   6.022   4.458   5.510
 8317TIP3    H224916   5.938   4.355   5.438
 8318TIP3   OH224917   1.964   5.843   1.916
 8318TIP3    H124918   2.049   5.821   1.876
 8318TIP3    H224919   1.985   5.913   1.978
 8319TIP3   OH224920   3.306   4.035   4.562
 8319TIP3    H124921   3.314   3.986   4.644
 8319TIP3    H224922   3.336   4.123   4.584
 8320TIP3   OH224923   0.680   6.685   4.294
 8320TIP3    H124924   0.604   6.678   4.236
 8320TIP3    H224925   0.732   6.755   4.256
 8321TIP3   OH224926   1.227   6.355   4.209
 8321TIP3    H124927   1.212   6.284   4.271
 8321TIP3    H224928   1.141   6.395   4.197
 8322TIP3   OH224929   1.875   0.453   0.489
 8322TIP3    H124930   1.863   0.476   0.397
 8322TIP3    H224931   1.879   0.537   0.534
 8323TIP3   OH224932   0.344   5.867   5.205
 8323TIP3    H124933   0.264   5.852   5.154
 8323TIP3    H224934   0.415   5.854   5.143
 8324TIP3   OH224935   2.260   0.205   3.942
 8324TIP3    H124936   2.209   0.253   4.007
 8324TIP3    H224937   2.197   0.145   3.902
 8325TIP3   OH224938   5.980   4.071   0.691
 8325TIP3    H124939   5.997   4.163   0.711
 8325TIP3    H224940   6.067   4.032   0.687
 8326TIP3   OH224941   1.187   6.243   1.852
 8326TIP3    H124942   1.180   6.316   1.791
 8326TIP3    H224943   1.249   6.183   1.810
 8327TIP3   OH224944   0.944   2.687   5.086
 8327TIP3    H124945   0.849   2.682   5.078
 8327TIP3    H224946   0.960   2.727   5.172
 8328TIP3   OH224947   2.409   3.481   2.287
 8328TIP3    H124948   2.413   3.576   2.298
 8328TIP3    H224949   2.341   3.453   2.348
 8329TIP3   OH224950   6.401   2.315   1.333
 8329TIP3    H124951   6.486   2.322   1.376
 8329TIP3    H224952   6.390   2.221   1.317
 8330TIP3   OH224953   4.912   4.616   3.861
 8330TIP3    H124954   4.835   4.591   3.810
 8330TIP3    H224955   4.879   4.674   3.929
 8331TIP3   OH224956   3.190   5.365   5.806
 8331TIP3    H124957   3.284   5.351   5.791
 8331TIP3    H224958   3.177   5.342   5.898
 8332TIP3   OH224959   3.409   5.163   5.513
 8332TIP3    H124960   3.422   5.070   5.528
 8332TIP3    H224961   3.481   5.205   5.561
 8333TIP3   OH224962   6.130   1.570   3.389
 8333TIP3    H124963   6.204   1.628   3.367
 8333TIP3    H224964   6.084   1.616   3.459
 8334TIP3   OH224965   1.314   4.266   3.002
 8334TIP3    H124966   1.270   4.306   2.927
 8334TIP3    H224967   1.405   4.256   2.973
 8335TIP3   OH224968   1.465   2.965   0.379
 8335TIP3    H124969   1.388   2.926   0.337
 8335TIP3    H224970   1.458   2.941   0.471
 8336TIP3   OH224971   4.241   5.223   5.720
 8336TIP3    H124972   4.256   5.128   5.725
 8336TIP3    H224973   4.329   5.261   5.724
 8337TIP3   OH224974   6.393   6.038   5.821
 8337TIP3    H124975   6.432   6.015   5.737
 8337TIP3    H224976   6.369   6.130   5.811
 8338TIP3   OH224977   3.110   3.398   1.091
 8338TIP3    H124978   3.066   3.481   1.076
 8338TIP3    H224979   3.067   3.336   1.033
 8339TIP3   OH224980   2.781   2.461   2.128
 8339TIP3    H124981   2.858   2.510   2.157
 8339TIP3    H224982   2.728   2.450   2.207
 8340TIP3   OH224983   2.897   6.502   4.102
 8340TIP3    H124984   2.839   6.429   4.122
 8340TIP3    H224985   2.960   6.503   4.174
 8341TIP3   OH224986   2.521   0.921   3.182
 8341TIP3    H124987   2.546   1.005   3.143
 8341TIP3    H224988   2.558   0.924   3.270
 8342TIP3   OH224989   1.457   4.181   5.462
 8342TIP3    H124990   1.438   4.088   5.474
 8342TIP3    H224991   1.399   4.208   5.390
 8343TIP3   OH224992   4.408   0.396   2.061
 8343TIP3    H124993   4.459   0.315   2.058
 8343TIP3    H224994   4.472   0.465   2.050
 8344TIP3   OH224995   6.029   4.751   2.790
 8344TIP3    H124996   5.944   4.736   2.830
 8344TIP3    H224997   6.058   4.835   2.826
 8345TIP3   OH224998   6.264   3.872   4.056
 8345TIP3    H124999   6.281   3.813   4.129
 8345TIP3    H225000   6.185   3.837   4.015
 8346TIP3   OH225001   6.347   5.149   4.115
 8346TIP3    H125002   6.325   5.091   4.043
 8346TIP3    H225003   6.438   5.173   4.100
 8347TIP3   OH225004   5.200   5.957   3.411
 8347TIP3    H125005   5.244   6.042   3.404
 8347TIP3    H225006   5.225   5.910   3.332
 8348TIP3   OH225007   2.839   5.772   3.874
 8348TIP3    H125008   2.811   5.752   3.785
 8348TIP3    H225009   2.773   5.730   3.930
 8349TIP3   OH225010   1.689   2.082   2.417
 8349TIP3    H125011   1.599   2.096   2.388
 8349TIP3    H225012   1.743   2.123   2.350
 8350TIP3   OH225013   2.648   0.127   0.053
 8350TIP3    H125014   2.666   0.132  -0.041
 8350TIP3    H225015   2.727   0.160   0.094
 8351TIP3   OH225016   5.608   5.571   1.398
 8351TIP3    H125017   5.651   5.641   1.350
 8351TIP3    H225018   5.539   5.539   1.340
 8352TIP3   OH225019   6.383   3.436   4.646
 8352TIP3    H125020   6.455   3.375   4.629
 8352TIP3    H225021   6.367   3.429   4.740
 8353TIP3   OH225022   6.852   2.359   5.509
 8353TIP3    H125023   6.796   2.422   5.555
 8353TIP3    H225024   6.871   2.292   5.574
 8354TIP3   OH225025   0.974   5.458   0.200
 8354TIP3    H125026   0.916   5.453   0.276
 8354TIP3    H225027   0.934   5.399   0.135
 8355TIP3   OH225028   0.984   3.789   5.775
 8355TIP3    H125029   0.914   3.725   5.790
 8355TIP3    H225030   0.965   3.860   5.835
 8356TIP3   OH225031   2.222   3.719   4.355
 8356TIP3    H125032   2.273   3.787   4.311
 8356TIP3    H225033   2.283   3.680   4.418
 8357TIP3   OH225034   4.447   5.253   0.593
 8357TIP3    H125035   4.524   5.206   0.626
 8357TIP3    H225036   4.454   5.248   0.498
 8358TIP3   OH225037   4.373   4.996   1.513
 8358TIP3    H125038   4.428   5.047   1.453
 8358TIP3    H225039   4.432   4.930   1.549
 8359TIP3   OH225040   0.017   1.070   0.252
 8359TIP3    H125041  -0.073   1.083   0.283
 8359TIP3    H225042   0.051   1.159   0.242
 8360TIP3   OH225043   3.722   5.720   3.111
 8360TIP3    H125044   3.759   5.809   3.107
 8360TIP3    H225045   3.770   5.672   3.044
 8361TIP3   OH225046   3.918   2.995   1.349
 8361TIP3    H125047   3.877   3.047   1.418
 8361TIP3    H225048   4.005   3.034   1.337
 8362TIP3   OH225049   4.329   3.776   5.290
 8362TIP3    H125050   4.236   3.757   5.286
 8362TIP3    H225051   4.372   3.692   5.274
 8363TIP3   OH225052   0.472   1.968   3.317
 8363TIP3    H125053   0.503   2.055   3.343
 8363TIP3    H225054   0.447   1.977   3.225
 8364TIP3   OH225055   1.432   1.299   4.304
 8364TIP3    H125056   1.445   1.234   4.373
 8364TIP3    H225057   1.493   1.369   4.326
 8365TIP3   OH225058   0.452   0.332   4.122
 8365TIP3    H125059   0.504   0.277   4.064
 8365TIP3    H225060   0.401   0.270   4.175
 8366TIP3   OH225061   6.158   2.770   0.578
 8366TIP3    H125062   6.227   2.801   0.519
 8366TIP3    H225063   6.134   2.848   0.629
 8367TIP3   OH225064   2.924   2.498   1.127
 8367TIP3    H125065   3.003   2.444   1.130
 8367TIP3    H225066   2.932   2.546   1.045
 8368TIP3   OH225067   0.660   4.823   1.607
 8368TIP3    H125068   0.701   4.765   1.543
 8368TIP3    H225069   0.675   4.781   1.692
 8369TIP3   OH225070   2.666   0.348   0.530
 8369TIP3    H125071   2.733   0.387   0.474
 8369TIP3    H225072   2.694   0.257   0.541
 8370TIP3   OH225073   1.148   3.767   4.105
 8370TIP3    H125074   1.189   3.739   4.187
 8370TIP3    H225075   1.054   3.763   4.122
 8371TIP3   OH225076   2.070   6.091   3.150
 8371TIP3    H125077   2.017   6.171   3.145
 8371TIP3    H225078   2.143   6.108   3.090
 8372TIP3   OH225079   6.923   3.282   3.144
 8372TIP3    H125080   6.977   3.293   3.066
 8372TIP3    H225081   6.924   3.368   3.186
 8373TIP3   OH225082   6.195   6.396   2.987
 8373TIP3    H125083   6.277   6.365   2.948
 8373TIP3    H225084   6.182   6.482   2.947
 8374TIP3   OH225085   3.909   2.633   3.502
 8374TIP3    H125086   3.866   2.718   3.495
 8374TIP3    H225087   3.957   2.623   3.420
 8375TIP3   OH225088   4.668   1.316   2.429
 8375TIP3    H125089   4.608   1.270   2.487
 8375TIP3    H225090   4.713   1.247   2.380
 8376TIP3   OH225091   3.428   6.683   1.311
 8376TIP3    H125092   3.371   6.669   1.235
 8376TIP3    H225093   3.457   6.774   1.303
 8377TIP3   OH225094   4.334   4.192   4.204
 8377TIP3    H125095   4.282   4.154   4.274
 8377TIP3    H225096   4.355   4.280   4.235
 8378TIP3   OH225097   2.835   0.737   0.612
 8378TIP3    H125098   2.751   0.723   0.568
 8378TIP3    H225099   2.855   0.830   0.598
 8379TIP3   OH225100   1.751   3.296   3.677
 8379TIP3    H125101   1.807   3.278   3.752
 8379TIP3    H225102   1.774   3.386   3.651
 8380TIP3   OH225103   2.148   2.019   2.649
 8380TIP3    H125104   2.159   2.113   2.635
 8380TIP3    H225105   2.059   2.001   2.622
 8381TIP3   OH225106   5.423   5.612   5.456
 8381TIP3    H125107   5.517   5.627   5.447
 8381TIP3    H225108   5.399   5.657   5.537
 8382TIP3   OH225109   4.830   1.440   1.489
 8382TIP3    H125110   4.844   1.346   1.478
 8382TIP3    H225111   4.857   1.457   1.580
 8383TIP3   OH225112   5.793   1.230   5.089
 8383TIP3    H125113   5.799   1.217   4.995
 8383TIP3    H225114   5.817   1.146   5.127
 8384TIP3   OH225115   6.694   2.136   5.009
 8384TIP3    H125116   6.768   2.128   4.949
 8384TIP3    H225117   6.662   2.225   4.995
 8385TIP3   OH225118   2.766   0.909   2.528
 8385TIP3    H125119   2.791   1.000   2.514
 8385TIP3    H225120   2.808   0.885   2.611
 8386TIP3   OH225121   5.946   0.661   0.854
 8386TIP3    H125122   6.003   0.616   0.791
 8386TIP3    H225123   5.899   0.726   0.801
 8387TIP3   OH225124   3.439   0.510   3.782
 8387TIP3    H125125   3.382   0.531   3.857
 8387TIP3    H225126   3.416   0.575   3.716
 8388TIP3   OH225127   5.483   0.422   4.695
 8388TIP3    H125128   5.391   0.444   4.713
 8388TIP3    H225129   5.485   0.327   4.695
 8389TIP3   OH225130   4.842   0.117   4.650
 8389TIP3    H125131   4.878   0.118   4.739
 8389TIP3    H225132   4.897   0.179   4.602
 8390TIP3   OH225133   5.286   0.462   5.286
 8390TIP3    H125134   5.357   0.526   5.294
 8390TIP3    H225135   5.221   0.491   5.350
 8391TIP3   OH225136   4.085   2.339   5.013
 8391TIP3    H125137   4.065   2.316   5.104
 8391TIP3    H225138   4.181   2.334   5.008
 8392TIP3   OH225139   4.010   6.496   1.895
 8392TIP3    H125140   3.931   6.463   1.939
 8392TIP3    H225141   4.005   6.461   1.806
 8393TIP3   OH225142   5.267   3.105   3.732
 8393TIP3    H125143   5.268   3.187   3.782
 8393TIP3    H225144   5.181   3.104   3.690
 8394TIP3   OH225145   3.092   3.293   5.330
 8394TIP3    H125146   3.173   3.329   5.295
 8394TIP3    H225147   3.050   3.250   5.256
 8395TIP3   OH225148   1.454   1.598   4.536
 8395TIP3    H125149   1.389   1.544   4.580
 8395TIP3    H225150   1.486   1.657   4.604
 8396TIP3   OH225151   5.525   5.196   3.123
 8396TIP3    H125152   5.611   5.155   3.129
 8396TIP3    H225153   5.542   5.289   3.140
 8397TIP3   OH225154   6.073   1.873   2.346
 8397TIP3    H125155   6.012   1.800   2.336
 8397TIP3    H225156   6.049   1.911   2.431
 8398TIP3   OH225157   6.159   2.819   1.437
 8398TIP3    H125158   6.085   2.856   1.389
 8398TIP3    H225159   6.194   2.752   1.378
 8399TIP3   OH225160   3.643   6.424   5.647
 8399TIP3    H125161   3.608   6.440   5.734
 8399TIP3    H225162   3.700   6.499   5.629
 8400TIP3   OH225163   2.238   6.361   5.243
 8400TIP3    H125164   2.237   6.391   5.152
 8400TIP3    H225165   2.330   6.341   5.260
 8401TIP3   OH225166   0.580   4.315   0.349
 8401TIP3    H125167   0.529   4.383   0.304
 8401TIP3    H225168   0.516   4.247   0.369
 8402TIP3   OH225169   2.047   1.466   0.684
 8402TIP3    H125170   2.139   1.448   0.662
 8402TIP3    H225171   2.033   1.420   0.767
 8403TIP3   OH225172   6.922   2.469   0.154
 8403TIP3    H125173   6.974   2.490   0.232
 8403TIP3    H225174   6.898   2.377   0.166
 8404TIP3   OH225175   0.457   1.574   1.030
 8404TIP3    H125176   0.387   1.535   1.083
 8404TIP3    H225177   0.493   1.643   1.086
 8405TIP3   OH225178   1.118   0.882   1.259
 8405TIP3    H125179   1.172   0.804   1.265
 8405TIP3    H225180   1.178   0.952   1.233
 8406TIP3   OH225181   1.450   3.960   2.931
 8406TIP3    H125182   1.460   3.887   2.870
 8406TIP3    H225183   1.539   3.996   2.939
 8407TIP3   OH225184   5.538   5.836   2.940
 8407TIP3    H125185   5.500   5.755   2.906
 8407TIP3    H225186   5.540   5.823   3.035
 8408TIP3   OH225187   2.535   1.258   1.905
 8408TIP3    H125188   2.576   1.314   1.840
 8408TIP3    H225189   2.469   1.314   1.947
 8409TIP3   OH225190   1.477   6.623   3.172
 8409TIP3    H125191   1.540   6.688   3.204
 8409TIP3    H225192   1.504   6.608   3.081
 8410TIP3   OH225193   3.990   3.886   0.635
 8410TIP3    H125194   4.029   3.872   0.722
 8410TIP3    H225195   3.945   3.804   0.616
 8411TIP3   OH225196   2.313   6.694   4.541
 8411TIP3    H125197   2.358   6.771   4.576
 8411TIP3    H225198   2.328   6.625   4.606
 8412TIP3   OH225199   2.244   1.648   3.344
 8412TIP3    H125200   2.266   1.585   3.411
 8412TIP3    H225201   2.326   1.664   3.297
 8413TIP3   OH225202   4.325   4.372   0.442
 8413TIP3    H125203   4.303   4.309   0.511
 8413TIP3    H225204   4.361   4.318   0.372
 8414TIP3   OH225205   0.158   5.239   3.751
 8414TIP3    H125206   0.188   5.319   3.793
 8414TIP3    H225207   0.062   5.244   3.755
 8415TIP3   OH225208   0.937   5.411   5.832
 8415TIP3    H125209   0.895   5.328   5.810
 8415TIP3    H225210   0.879   5.452   5.897
 8416TIP3   OH225211   6.124   6.290   2.653
 8416TIP3    H125212   6.207   6.248   2.672
 8416TIP3    H225213   6.091   6.245   2.575
 8417TIP3   OH225214   7.141   0.325   4.366
 8417TIP3    H125215   7.101   0.259   4.311
 8417TIP3    H225216   7.098   0.315   4.451
 8418TIP3   OH225217   3.646   2.166   5.225
 8418TIP3    H125218   3.703   2.192   5.298
 8418TIP3    H225219   3.656   2.071   5.221
 8419TIP3   OH225220   0.979   3.392  -0.018
 8419TIP3    H125221   0.903   3.436  -0.056
 8419TIP3    H225222   0.959   3.384   0.075
 8420TIP3   OH225223   5.778   1.190   4.814
 8420TIP3    H125224   5.815   1.220   4.731
 8420TIP3    H225225   5.718   1.120   4.789
 8421TIP3   OH225226   7.040   5.470   0.687
 8421TIP3    H125227   7.099   5.539   0.717
 8421TIP3    H225228   7.004   5.433   0.767
 8422TIP3   OH225229   1.539   2.221   3.707
 8422TIP3    H125230   1.507   2.213   3.618
 8422TIP3    H225231   1.471   2.269   3.754
 8423TIP3   OH225232   6.532   2.565   0.377
 8423TIP3    H125233   6.620   2.529   0.385
 8423TIP3    H225234   6.492   2.553   0.463
 8424TIP3   OH225235   0.310   0.306   4.488
 8424TIP3    H125236   0.272   0.260   4.412
 8424TIP3    H225237   0.307   0.398   4.464
 8425TIP3   OH225238   0.155   0.356   1.606
 8425TIP3    H125239   0.107   0.285   1.563
 8425TIP3    H225240   0.118   0.361   1.694
 8426TIP3   OH225241   5.073   1.621   3.980
 8426TIP3    H125242   5.147   1.561   3.974
 8426TIP3    H225243   5.089   1.687   3.912
 8427TIP3   OH225244   1.591   5.152   5.803
 8427TIP3    H125245   1.647   5.074   5.812
 8427TIP3    H225246   1.531   5.147   5.877
 8428TIP3   OH225247   5.360   3.937   4.902
 8428TIP3    H125248   5.408   4.018   4.918
 8428TIP3    H225249   5.343   3.901   4.989
 8429TIP3   OH225250   2.426   2.893   2.977
 8429TIP3    H125251   2.455   2.806   3.002
 8429TIP3    H225252   2.504   2.948   2.982
 8430TIP3   OH225253   4.095   2.647   1.679
 8430TIP3    H125254   4.033   2.715   1.653
 8430TIP3    H225255   4.088   2.643   1.774
 8431TIP3   OH225256   7.093  -0.028   1.294
 8431TIP3    H125257   7.182   0.002   1.278
 8431TIP3    H225258   7.070   0.010   1.379
 8432TIP3   OH225259   3.839   1.943   1.541
 8432TIP3    H125260   3.881   1.880   1.482
 8432TIP3    H225261   3.831   1.897   1.624
 8433TIP3   OH225262   1.847   5.177   0.851
 8433TIP3    H125263   1.912   5.174   0.781
 8433TIP3    H225264   1.767   5.208   0.808
 8434TIP3   OH225265   1.293   6.480   1.574
 8434TIP3    H125266   1.282   6.559   1.626
 8434TIP3    H225267   1.332   6.511   1.492
 8435TIP3   OH225268   0.294   0.570   4.540
 8435TIP3    H125269   0.242   0.570   4.620
 8435TIP3    H225270   0.277   0.656   4.501
 8436TIP3   OH225271   6.839   5.835   3.500
 8436TIP3    H125272   6.934   5.834   3.505
 8436TIP3    H225273   6.819   5.889   3.424
 8437TIP3   OH225274   4.801   1.599   4.510
 8437TIP3    H125275   4.736   1.654   4.553
 8437TIP3    H225276   4.776   1.598   4.418
 8438TIP3   OH225277   6.428   1.583   1.853
 8438TIP3    H125278   6.335   1.562   1.857
 8438TIP3    H225279   6.471   1.499   1.835
 8439TIP3   OH225280   3.659   3.505   0.339
 8439TIP3    H125281   3.612   3.480   0.259
 8439TIP3    H225282   3.732   3.443   0.344
 8440TIP3   OH225283   3.291   1.586   2.232
 8440TIP3    H125284   3.353   1.608   2.301
 8440TIP3    H225285   3.326   1.630   2.154
 8441TIP3   OH225286   1.307   4.679   0.458
 8441TIP3    H125287   1.351   4.632   0.388
 8441TIP3    H225288   1.221   4.636   0.466
 8442TIP3   OH225289   6.587   5.085   2.356
 8442TIP3    H125290   6.618   4.994   2.362
 8442TIP3    H225291   6.515   5.082   2.293
 8443TIP3   OH225292   1.214   5.320   1.587
 8443TIP3    H125293   1.260   5.277   1.515
 8443TIP3    H225294   1.244   5.274   1.666
 8444TIP3   OH225295   3.218   4.098   1.781
 8444TIP3    H125296   3.227   4.063   1.869
 8444TIP3    H225297   3.295   4.154   1.769
 8445TIP3   OH225298   4.766   3.981   2.547
 8445TIP3    H125299   4.713   3.942   2.477
 8445TIP3    H225300   4.776   3.911   2.611
 8446TIP3   OH225301   2.678   6.211   1.802
 8446TIP3    H125302   2.757   6.171   1.765
 8446TIP3    H225303   2.653   6.151   1.873
 8447TIP3   OH225304   2.227   0.431   1.728
 8447TIP3    H125305   2.232   0.505   1.667
 8447TIP3    H225306   2.298   0.446   1.789
 8448TIP3   OH225307   5.898   4.995   1.380
 8448TIP3    H125308   5.871   5.086   1.386
 8448TIP3    H225309   5.839   4.955   1.317
 8449TIP3   OH225310   3.361   1.883   1.576
 8449TIP3    H125311   3.426   1.869   1.507
 8449TIP3    H225312   3.411   1.910   1.652
 8450TIP3   OH225313   4.717   3.150   0.176
 8450TIP3    H125314   4.732   3.221   0.114
 8450TIP3    H225315   4.793   3.151   0.233
 8451TIP3   OH225316   0.672   3.734   1.396
 8451TIP3    H125317   0.602   3.680   1.360
 8451TIP3    H225318   0.630   3.788   1.462
 8452TIP3   OH225319   0.147   6.683   1.397
 8452TIP3    H125320   0.228   6.711   1.439
 8452TIP3    H225321   0.173   6.608   1.342
 8453TIP3   OH225322   1.060   6.212   5.483
 8453TIP3    H125323   1.104   6.291   5.450
 8453TIP3    H225324   1.130   6.149   5.498
 8454TIP3   OH225325   0.524   6.566   1.847
 8454TIP3    H125326   0.490   6.615   1.921
 8454TIP3    H225327   0.611   6.536   1.874
 8455TIP3   OH225328   1.271   3.364   4.104
 8455TIP3    H125329   1.264   3.286   4.047
 8455TIP3    H225330   1.250   3.437   4.046
 8456TIP3   OH225331   5.140   0.579   3.968
 8456TIP3    H125332   5.220   0.560   3.918
 8456TIP3    H225333   5.156   0.540   4.054
 8457TIP3   OH225334   0.304   6.217   0.331
 8457TIP3    H125335   0.379   6.187   0.281
 8457TIP3    H225336   0.230   6.169   0.295
 8458TIP3   OH225337   6.862   1.499   1.931
 8458TIP3    H125338   6.877   1.411   1.967
 8458TIP3    H225339   6.829   1.483   1.842
 8459TIP3   OH225340   4.094   4.648   5.186
 8459TIP3    H125341   4.101   4.727   5.132
 8459TIP3    H225342   4.139   4.580   5.136
 8460TIP3   OH225343   2.010   1.882   1.914
 8460TIP3    H125344   2.069   1.895   1.989
 8460TIP3    H225345   1.943   1.823   1.948
 8461TIP3   OH225346   0.769   4.145   3.283
 8461TIP3    H125347   0.734   4.148   3.372
 8461TIP3    H225348   0.736   4.224   3.241
 8462TIP3   OH225349   5.742   6.502   4.619
 8462TIP3    H125350   5.821   6.453   4.642
 8462TIP3    H225351   5.705   6.453   4.545
 8463TIP3   OH225352   1.161   3.888   1.447
 8463TIP3    H125353   1.169   3.794   1.432
 8463TIP3    H225354   1.179   3.900   1.540
 8464TIP3   OH225355   7.158   5.168   1.536
 8464TIP3    H125356   7.212   5.184   1.459
 8464TIP3    H225357   7.220   5.163   1.608
 8465TIP3   OH225358   4.663   6.810   4.622
 8465TIP3    H125359   4.698   6.810   4.533
 8465TIP3    H225360   4.654   6.717   4.644
 8466TIP3   OH225361   4.466   2.365   3.897
 8466TIP3    H125362   4.479   2.296   3.963
 8466TIP3    H225363   4.474   2.320   3.813
 8467TIP3   OH225364   3.881   0.149   2.442
 8467TIP3    H125365   3.894   0.158   2.347
 8467TIP3    H225366   3.905   0.235   2.477
 8468TIP3   OH225367   2.702   4.728   1.955
 8468TIP3    H125368   2.635   4.690   2.013
 8468TIP3    H225369   2.727   4.656   1.898
 8469TIP3   OH225370   1.362   5.575   5.598
 8469TIP3    H125371   1.355   5.551   5.691
 8469TIP3    H225372   1.276   5.610   5.576
 8470TIP3   OH225373   2.589   1.924   1.996
 8470TIP3    H125374   2.587   1.843   1.945
 8470TIP3    H225375   2.618   1.897   2.083
 8471TIP3   OH225376   3.910   6.265   5.316
 8471TIP3    H125377   3.961   6.252   5.396
 8471TIP3    H225378   3.845   6.195   5.318
 8472TIP3   OH225379   2.670   2.720   3.800
 8472TIP3    H125380   2.675   2.630   3.770
 8472TIP3    H225381   2.747   2.763   3.764
 8473TIP3   OH225382   6.802   4.607   3.037
 8473TIP3    H125383   6.709   4.583   3.039
 8473TIP3    H225384   6.804   4.699   3.062
 8474TIP3   OH225385   6.863   1.672   2.728
 8474TIP3    H125386   6.886   1.613   2.800
 8474TIP3    H225387   6.849   1.757   2.770
 8475TIP3   OH225388   2.678   5.015   2.084
 8475TIP3    H125389   2.597   5.066   2.089
 8475TIP3    H225390   2.649   4.924   2.078
 8476TIP3   OH225391   0.797   4.562   4.831
 8476TIP3    H125392   0.865   4.502   4.862
 8476TIP3    H225393   0.778   4.533   4.742
 8477TIP3   OH225394   5.359   5.161   3.546
 8477TIP3    H125395   5.392   5.250   3.552
 8477TIP3    H225396   5.410   5.112   3.611
 8478TIP3   OH225397   2.688   5.208   3.926
 8478TIP3    H125398   2.680   5.292   3.972
 8478TIP3    H225399   2.780   5.203   3.901
 8479TIP3   OH225400   3.011   0.955   5.875
 8479TIP3    H125401   3.010   0.882   5.937
 8479TIP3    H225402   2.936   0.939   5.818
 8480TIP3   OH225403   2.166   6.280   0.224
 8480TIP3    H125404   2.094   6.256   0.282
 8480TIP3    H225405   2.180   6.373   0.240
 8481TIP3   OH225406   4.183   1.817   4.746
 8481TIP3    H125407   4.237   1.878   4.797
 8481TIP3    H225408   4.099   1.862   4.736
 8482TIP3   OH225409   2.452   6.263   5.478
 8482TIP3    H125410   2.363   6.261   5.512
 8482TIP3    H225411   2.493   6.337   5.523
 8483TIP3   OH225412   1.738   3.562   2.581
 8483TIP3    H125413   1.672   3.522   2.638
 8483TIP3    H225414   1.816   3.568   2.636
 8484TIP3   OH225415   5.830   1.796   4.652
 8484TIP3    H125416   5.739   1.769   4.663
 8484TIP3    H225417   5.859   1.753   4.572
 8485TIP3   OH225418   3.078   3.963   4.944
 8485TIP3    H125419   3.131   3.925   4.874
 8485TIP3    H225420   3.137   3.965   5.020
 8486TIP3   OH225421   0.594   4.683   5.002
 8486TIP3    H125422   0.652   4.622   4.957
 8486TIP3    H225423   0.570   4.639   5.084
 8487TIP3   OH225424   6.838   5.480   4.620
 8487TIP3    H125425   6.857   5.433   4.538
 8487TIP3    H225426   6.745   5.463   4.636
 8488TIP3   OH225427   0.025   5.826   2.386
 8488TIP3    H125428   0.067   5.749   2.348
 8488TIP3    H225429  -0.069   5.805   2.384
 8489TIP3   OH225430   4.276   5.406   0.261
 8489TIP3    H125431   4.195   5.371   0.299
 8489TIP3    H225432   4.251   5.491   0.224
 8490TIP3   OH225433   4.312   1.661   2.823
 8490TIP3    H125434   4.249   1.607   2.776
 8490TIP3    H225435   4.388   1.604   2.835
 8491TIP3   OH225436   5.828   1.972   4.084
 8491TIP3    H125437   5.765   1.919   4.035
 8491TIP3    H225438   5.806   1.957   4.176
 8492TIP3   OH225439   6.052   3.243   2.570
 8492TIP3    H125440   6.128   3.289   2.606
 8492TIP3    H225441   6.083   3.154   2.554
 8493TIP3   OH225442   5.350   2.872   2.876
 8493TIP3    H125443   5.265   2.831   2.861
 8493TIP3    H225444   5.330   2.959   2.909
 8494TIP3   OH225445   3.391   1.323   5.152
 8494TIP3    H125446   3.448   1.275   5.213
 8494TIP3    H225447   3.323   1.260   5.129
 8495TIP3   OH225448   1.169   4.395   5.723
 8495TIP3    H125449   1.114   4.470   5.745
 8495TIP3    H225450   1.178   4.398   5.628
 8496TIP3   OH225451   1.294   4.612   4.136
 8496TIP3    H125452   1.249   4.667   4.071
 8496TIP3    H225453   1.384   4.644   4.136
 8497TIP3   OH225454   6.318   1.072   0.282
 8497TIP3    H125455   6.389   1.052   0.221
 8497TIP3    H225456   6.271   0.990   0.292
 8498TIP3   OH225457   0.229   2.097   0.366
 8498TIP3    H125458   0.324   2.106   0.377
 8498TIP3    H225459   0.209   2.010   0.402
 8499TIP3   OH225460   6.884   5.238   3.913
 8499TIP3    H125461   6.852   5.160   3.958
 8499TIP3    H225462   6.975   5.246   3.940
 8500TIP3   OH225463   5.109   1.414   1.908
 8500TIP3    H125464   5.197   1.447   1.891
 8500TIP3    H225465   5.120   1.353   1.982
 8501TIP3   OH225466   3.770   5.807   1.144
 8501TIP3    H125467   3.814   5.726   1.118
 8501TIP3    H225468   3.714   5.829   1.070
 8502TIP3   OH225469   1.242   0.136   1.208
 8502TIP3    H125470   1.151   0.162   1.217
 8502TIP3    H225471   1.265   0.099   1.294
 8503TIP3   OH225472   0.733   6.426   2.247
 8503TIP3    H125473   0.667   6.458   2.309
 8503TIP3    H225474   0.811   6.479   2.266
 8504TIP3   OH225475   6.928   4.009   0.175
 8504TIP3    H125476   6.905   4.050   0.258
 8504TIP3    H225477   6.925   3.915   0.194
 8505TIP3   OH225478   5.698   3.166   5.611
 8505TIP3    H125479   5.706   3.139   5.703
 8505TIP3    H225480   5.732   3.092   5.561
 8506TIP3   OH225481   3.560   1.810   4.719
 8506TIP3    H125482   3.522   1.883   4.671
 8506TIP3    H225483   3.575   1.844   4.807
 8507TIP3   OH225484   3.082   6.619   1.415
 8507TIP3    H125485   3.103   6.544   1.469
 8507TIP3    H225486   3.008   6.661   1.458
 8508TIP3   OH225487   0.166   4.333   4.516
 8508TIP3    H125488   0.221   4.359   4.590
 8508TIP3    H225489   0.167   4.409   4.458
 8509TIP3   OH225490   1.357   2.250   0.933
 8509TIP3    H125491   1.396   2.243   1.021
 8509TIP3    H225492   1.317   2.164   0.918
 8510TIP3   OH225493   1.778   4.620   3.770
 8510TIP3    H125494   1.711   4.687   3.756
 8510TIP3    H225495   1.734   4.555   3.825
 8511TIP3   OH225496   2.922   6.163   2.719
 8511TIP3    H125497   2.878   6.228   2.774
 8511TIP3    H225498   2.858   6.141   2.652
 8512TIP3   OH225499   5.317   5.355   1.569
 8512TIP3    H125500   5.354   5.279   1.614
 8512TIP3    H225501   5.288   5.320   1.484
 8513TIP3   OH225502   1.578   5.205   5.535
 8513TIP3    H125503   1.576   5.209   5.631
 8513TIP3    H225504   1.490   5.175   5.511
 8514TIP3   OH225505   2.004   3.067   0.061
 8514TIP3    H125506   2.054   3.039   0.137
 8514TIP3    H225507   1.912   3.064   0.089
 8515TIP3   OH225508   6.520   4.087   3.367
 8515TIP3    H125509   6.426   4.080   3.379
 8515TIP3    H225510   6.554   4.113   3.452
 8516TIP3   OH225511   2.834   3.301   1.579
 8516TIP3    H125512   2.903   3.349   1.533
 8516TIP3    H225513   2.832   3.341   1.666
 8517TIP3   OH225514   1.288   2.622   2.993
 8517TIP3    H125515   1.329   2.589   2.912
 8517TIP3    H225516   1.328   2.570   3.063
 8518TIP3   OH225517   5.549   6.019   3.247
 8518TIP3    H125518   5.559   6.075   3.324
 8518TIP3    H225519   5.537   5.931   3.282
 8519TIP3   OH225520   5.329   3.062   2.086
 8519TIP3    H125521   5.393   3.029   2.148
 8519TIP3    H225522   5.284   2.983   2.054
 8520TIP3   OH225523   3.705   3.510   5.602
 8520TIP3    H125524   3.661   3.545   5.525
 8520TIP3    H225525   3.679   3.568   5.673
 8521TIP3   OH225526   2.951   3.113   3.168
 8521TIP3    H125527   2.978   3.190   3.219
 8521TIP3    H225528   3.030   3.087   3.121
 8522TIP3   OH225529   4.402   0.538   0.767
 8522TIP3    H125530   4.427   0.629   0.747
 8522TIP3    H225531   4.365   0.506   0.685
 8523TIP3   OH225532   0.397   2.386   2.083
 8523TIP3    H125533   0.337   2.380   2.009
 8523TIP3    H225534   0.410   2.480   2.096
 8524TIP3   OH225535   3.828   5.385   3.077
 8524TIP3    H125536   3.896   5.410   3.140
 8524TIP3    H225537   3.823   5.459   3.016
 8525TIP3   OH225538   6.649   3.772   0.584
 8525TIP3    H125539   6.641   3.806   0.673
 8525TIP3    H225540   6.616   3.843   0.529
 8526TIP3   OH225541   2.122   5.991   3.492
 8526TIP3    H125542   2.106   5.923   3.426
 8526TIP3    H225543   2.123   6.073   3.443
 8527TIP3   OH225544   1.966   2.112   5.705
 8527TIP3    H125545   1.969   2.084   5.614
 8527TIP3    H225546   1.933   2.036   5.752
 8528TIP3   OH225547   2.687   5.901   0.378
 8528TIP3    H125548   2.778   5.898   0.349
 8528TIP3    H225549   2.670   5.812   0.410
 8529TIP3   OH225550   5.767   3.856   4.476
 8529TIP3    H125551   5.832   3.802   4.521
 8529TIP3    H225552   5.683   3.824   4.509
 8530TIP3   OH225553   2.940   2.892   4.935
 8530TIP3    H125554   2.849   2.905   4.963
 8530TIP3    H225555   2.941   2.803   4.901
 8531TIP3   OH225556   1.470   3.509   4.270
 8531TIP3    H125557   1.412   3.469   4.205
 8531TIP3    H225558   1.540   3.446   4.281
 8532TIP3   OH225559   3.348   5.345   3.129
 8532TIP3    H125560   3.293   5.396   3.188
 8532TIP3    H225561   3.396   5.286   3.187
 8533TIP3   OH225562   0.089   5.881   4.748
 8533TIP3    H125563   0.141   5.960   4.736
 8533TIP3    H225564   0.000   5.913   4.766
 8534TIP3   OH225565   5.893   3.568   1.314
 8534TIP3    H125566   5.865   3.658   1.334
 8534TIP3    H225567   5.977   3.579   1.271
 8535TIP3   OH225568   6.924   4.611   3.899
 8535TIP3    H125569   6.864   4.628   3.971
 8535TIP3    H225570   6.986   4.548   3.935
 8536TIP3   OH225571   0.780   4.521   4.160
 8536TIP3    H125572   0.722   4.446   4.175
 8536TIP3    H225573   0.720   4.594   4.146
 8537TIP3   OH225574   6.200   1.462   1.801
 8537TIP3    H125575   6.190   1.425   1.889
 8537TIP3    H225576   6.151   1.401   1.744
 8538TIP3   OH225577   3.522   1.553   5.054
 8538TIP3    H125578   3.458   1.623   5.043
 8538TIP3    H225579   3.474   1.483   5.099
 8539TIP3   OH225580   0.856   3.984   3.794
 8539TIP3    H125581   0.799   3.960   3.868
 8539TIP3    H225582   0.808   3.954   3.717
 8540TIP3   OH225583   1.421   0.903   1.542
 8540TIP3    H125584   1.328   0.883   1.537
 8540TIP3    H225585   1.453   0.849   1.615
 8541TIP3   OH225586   0.772   3.250   3.069
 8541TIP3    H125587   0.734   3.190   3.134
 8541TIP3    H225588   0.769   3.336   3.111
 8542TIP3   OH225589   5.454   2.487   2.355
 8542TIP3    H125590   5.496   2.406   2.327
 8542TIP3    H225591   5.414   2.522   2.275
 8543TIP3   OH225592   0.706   6.559   5.179
 8543TIP3    H125593   0.664   6.631   5.225
 8543TIP3    H225594   0.703   6.485   5.240
 8544TIP3   OH225595   6.429   2.690   5.591
 8544TIP3    H125596   6.430   2.609   5.642
 8544TIP3    H225597   6.386   2.666   5.509
 8545TIP3   OH225598   6.956   4.961   0.510
 8545TIP3    H125599   7.020   5.026   0.539
 8545TIP3    H225600   6.926   4.993   0.425
 8546TIP3   OH225601   3.498   3.412   1.205
 8546TIP3    H125602   3.561   3.367   1.148
 8546TIP3    H225603   3.494   3.501   1.170
 8547TIP3   OH225604   4.234   2.675   1.442
 8547TIP3    H125605   4.156   2.647   1.392
 8547TIP3    H225606   4.200   2.695   1.529
 8548TIP3   OH225607   4.576   5.932   1.578
 8548TIP3    H125608   4.487   5.914   1.608
 8548TIP3    H225609   4.609   5.847   1.549
 8549TIP3   OH225610   5.648   1.795   3.960
 8549TIP3    H125611   5.642   1.700   3.961
 8549TIP3    H225612   5.561   1.825   3.931
 8550TIP3   OH225613   0.276   3.510   0.884
 8550TIP3    H125614   0.321   3.580   0.835
 8550TIP3    H225615   0.238   3.555   0.960
 8551TIP3   OH225616   3.158   4.833   4.457
 8551TIP3    H125617   3.187   4.750   4.420
 8551TIP3    H225618   3.193   4.832   4.546
 8552TIP3   OH225619   0.683   4.928   1.161
 8552TIP3    H125620   0.775   4.921   1.138
 8552TIP3    H225621   0.670   5.022   1.179
 8553TIP3   OH225622   4.915   3.007   5.408
 8553TIP3    H125623   4.937   2.996   5.501
 8553TIP3    H225624   4.996   2.983   5.362
 8554TIP3   OH225625   0.659   3.519   1.629
 8554TIP3    H125626   0.697   3.513   1.716
 8554TIP3    H225627   0.683   3.606   1.598
 8555TIP3   OH225628   2.289   2.754   3.741
 8555TIP3    H125629   2.295   2.845   3.714
 8555TIP3    H225630   2.201   2.727   3.714
 8556TIP3   OH225631   5.147   4.589   1.348
 8556TIP3    H125632   5.137   4.539   1.266
 8556TIP3    H225633   5.094   4.541   1.411
 8557TIP3   OH225634   1.407   4.165   5.737
 8557TIP3    H125635   1.326   4.115   5.735
 8557TIP3    H225636   1.416   4.199   5.648
 8558TIP3   OH225637   5.688   5.306   3.756
 8558TIP3    H125638   5.679   5.233   3.818
 8558TIP3    H225639   5.753   5.364   3.797
 8559TIP3   OH225640   5.705   0.632   1.971
 8559TIP3    H125641   5.669   0.687   1.902
 8559TIP3    H225642   5.735   0.553   1.925
 8560TIP3   OH225643   0.989   4.949   5.082
 8560TIP3    H125644   0.973   4.957   5.176
 8560TIP3    H225645   1.069   5.000   5.067
 8561TIP3   OH225646   1.214   5.730   2.313
 8561TIP3    H125647   1.136   5.775   2.281
 8561TIP3    H225648   1.287   5.776   2.271
 8562TIP3   OH225649   0.896   6.488   0.490
 8562TIP3    H125650   0.918   6.526   0.576
 8562TIP3    H225651   0.884   6.395   0.508
 8563TIP3   OH225652   4.092   5.934   1.468
 8563TIP3    H125653   4.126   5.847   1.489
 8563TIP3    H225654   4.003   5.918   1.437
 8564TIP3   OH225655   5.207   2.278   1.822
 8564TIP3    H125656   5.288   2.288   1.771
 8564TIP3    H225657   5.206   2.185   1.846
 8565TIP3   OH225658   6.542   1.870   0.641
 8565TIP3    H125659   6.518   1.837   0.727
 8565TIP3    H225660   6.478   1.938   0.622
 8566TIP3   OH225661   6.404   5.027   0.383
 8566TIP3    H125662   6.476   5.070   0.429
 8566TIP3    H225663   6.412   4.935   0.408
 8567TIP3   OH225664   4.661   5.378   5.380
 8567TIP3    H125665   4.581   5.355   5.333
 8567TIP3    H225666   4.691   5.296   5.417
 8568TIP3   OH225667   2.614   4.937   5.583
 8568TIP3    H125668   2.637   5.017   5.631
 8568TIP3    H225669   2.597   4.967   5.494
 8569TIP3   OH225670   4.111   2.426   2.021
 8569TIP3    H125671   4.141   2.349   1.973
 8569TIP3    H225672   4.191   2.473   2.043
 8570TIP3   OH225673   0.167   6.641   1.028
 8570TIP3    H125674   0.248   6.604   0.993
 8570TIP3    H225675   0.165   6.731   0.995
 8571TIP3   OH225676   6.772   4.658   0.296
 8571TIP3    H125677   6.690   4.612   0.318
 8571TIP3    H225678   6.744   4.738   0.252
 8572TIP3   OH225679   2.165   2.519   3.000
 8572TIP3    H125680   2.140   2.462   2.927
 8572TIP3    H225681   2.260   2.526   2.994
 8573TIP3   OH225682   2.720   3.162   2.181
 8573TIP3    H125683   2.815   3.167   2.174
 8573TIP3    H225684   2.691   3.253   2.186
 8574TIP3   OH225685   4.042   1.574   3.638
 8574TIP3    H125686   3.966   1.591   3.693
 8574TIP3    H225687   4.112   1.554   3.700
 8575TIP3   OH225688   3.759   5.757   3.782
 8575TIP3    H125689   3.681   5.708   3.756
 8575TIP3    H225690   3.756   5.836   3.729
 8576TIP3   OH225691   6.429   4.657   5.089
 8576TIP3    H125692   6.459   4.613   5.168
 8576TIP3    H225693   6.475   4.614   5.018
 8577TIP3   OH225694   4.902   0.610   4.474
 8577TIP3    H125695   4.832   0.643   4.417
 8577TIP3    H225696   4.981   0.611   4.420
 8578TIP3   OH225697   2.818   4.870   2.450
 8578TIP3    H125698   2.750   4.934   2.469
 8578TIP3    H225699   2.801   4.842   2.360
 8579TIP3   OH225700   0.463   3.489   2.838
 8579TIP3    H125701   0.551   3.452   2.833
 8579TIP3    H225702   0.424   3.447   2.915
 8580TIP3   OH225703   6.615   0.660   4.071
 8580TIP3    H125704   6.597   0.641   3.979
 8580TIP3    H225705   6.540   0.625   4.118
 8581TIP3   OH225706   1.669   0.571   0.767
 8581TIP3    H125707   1.751   0.538   0.805
 8581TIP3    H225708   1.672   0.665   0.781
 8582TIP3   OH225709   3.838   4.324   1.838
 8582TIP3    H125710   3.919   4.284   1.868
 8582TIP3    H225711   3.777   4.314   1.911
 8583TIP3   OH225712   2.271   0.244   5.086
 8583TIP3    H125713   2.337   0.187   5.047
 8583TIP3    H225714   2.198   0.186   5.107
 8584TIP3   OH225715   5.453   4.841   2.862
 8584TIP3    H125716   5.444   4.931   2.895
 8584TIP3    H225717   5.379   4.794   2.901
 8585TIP3   OH225718   6.587   2.806   3.542
 8585TIP3    H125719   6.515   2.748   3.520
 8585TIP3    H225720   6.661   2.774   3.490
 8586TIP3   OH225721   4.396   1.904   0.733
 8586TIP3    H125722   4.308   1.913   0.771
 8586TIP3    H225723   4.455   1.929   0.804
 8587TIP3   OH225724   1.956   1.741   0.066
 8587TIP3    H125725   1.949   1.825   0.111
 8587TIP3    H225726   2.033   1.750   0.010
 8588TIP3   OH225727   6.616   1.351   3.141
 8588TIP3    H125728   6.556   1.361   3.067
 8588TIP3    H225729   6.686   1.295   3.107
 8589TIP3   OH225730   7.113   2.337   3.552
 8589TIP3    H125731   7.100   2.429   3.532
 8589TIP3    H225732   7.204   2.331   3.581
 8590TIP3   OH225733   5.316   1.038   4.424
 8590TIP3    H125734   5.306   1.050   4.329
 8590TIP3    H225735   5.410   1.044   4.439
 8591TIP3   OH225736   7.054   3.809   4.929
 8591TIP3    H125737   6.962   3.792   4.910
 8591TIP3    H225738   7.098   3.725   4.919
 8592TIP3   OH225739   4.404   0.144   3.990
 8592TIP3    H125740   4.446   0.061   4.014
 8592TIP3    H225741   4.401   0.193   4.072
 8593TIP3   OH225742   4.536   4.510   0.894
 8593TIP3    H125743   4.507   4.469   0.813
 8593TIP3    H225744   4.463   4.566   0.920
 8594TIP3   OH225745   0.665   4.532   4.561
 8594TIP3    H125746   0.707   4.453   4.527
 8594TIP3    H225747   0.572   4.518   4.547
 8595TIP3   OH225748   6.054   4.092   2.330
 8595TIP3    H125749   6.003   4.144   2.392
 8595TIP3    H225750   6.048   4.003   2.363
 8596TIP3   OH225751   0.125   3.718   2.939
 8596TIP3    H125752   0.118   3.802   2.984
 8596TIP3    H225753   0.043   3.709   2.890
 8597TIP3   OH225754   1.963   2.782   0.920
 8597TIP3    H125755   2.020   2.714   0.885
 8597TIP3    H225756   2.022   2.846   0.960
 8598TIP3   OH225757   5.909   5.427   3.841
 8598TIP3    H125758   5.900   5.461   3.930
 8598TIP3    H225759   5.967   5.352   3.849
 8599TIP3   OH225760   2.043   5.494   0.975
 8599TIP3    H125761   1.968   5.441   0.947
 8599TIP3    H225762   2.081   5.446   1.048
 8600TIP3   OH225763   2.389   2.661   1.779
 8600TIP3    H125764   2.309   2.620   1.813
 8600TIP3    H225765   2.458   2.627   1.835
 8601TIP3   OH225766   3.162   3.076   2.999
 8601TIP3    H125767   3.231   3.130   2.960
 8601TIP3    H225768   3.144   3.010   2.932
 8602TIP3   OH225769   1.914   5.346   4.994
 8602TIP3    H125770   1.843   5.361   4.932
 8602TIP3    H225771   1.993   5.373   4.947
 8603TIP3   OH225772   5.852   0.242   3.694
 8603TIP3    H125773   5.825   0.175   3.631
 8603TIP3    H225774   5.796   0.227   3.770
 8604TIP3   OH225775   4.666   3.782   1.163
 8604TIP3    H125776   4.692   3.736   1.242
 8604TIP3    H225777   4.748   3.798   1.116
 8605TIP3   OH225778   1.819   0.488   4.427
 8605TIP3    H125779   1.837   0.572   4.467
 8605TIP3    H225780   1.893   0.473   4.368
 8606TIP3   OH225781   1.379   2.385   1.385
 8606TIP3    H125782   1.323   2.460   1.403
 8606TIP3    H225783   1.378   2.334   1.465
 8607TIP3   OH225784   1.677   2.758   0.995
 8607TIP3    H125785   1.768   2.747   0.965
 8607TIP3    H225786   1.624   2.732   0.920
 8608TIP3   OH225787   2.366   4.545   2.975
 8608TIP3    H125788   2.395   4.635   2.989
 8608TIP3    H225789   2.282   4.553   2.929
 8609TIP3   OH225790   1.673   4.872   0.495
 8609TIP3    H125791   1.747   4.899   0.441
 8609TIP3    H225792   1.685   4.777   0.506
 8610TIP3   OH225793   2.476   4.806   1.024
 8610TIP3    H125794   2.530   4.885   1.019
 8610TIP3    H225795   2.435   4.799   0.938
 8611TIP3   OH225796   4.906   2.052   3.868
 8611TIP3    H125797   4.864   1.967   3.860
 8611TIP3    H225798   4.957   2.061   3.788
 8612TIP3   OH225799   6.669   6.280   2.384
 8612TIP3    H125800   6.621   6.198   2.370
 8612TIP3    H225801   6.602   6.342   2.413
 8613TIP3   OH225802   5.217   0.020   2.796
 8613TIP3    H125803   5.310   0.034   2.810
 8613TIP3    H225804   5.174   0.091   2.845
 8614TIP3   OH225805   0.560   4.990   1.945
 8614TIP3    H125806   0.624   5.061   1.950
 8614TIP3    H225807   0.603   4.916   1.988
 8615TIP3   OH225808   3.912   1.594   2.250
 8615TIP3    H125809   3.962   1.531   2.302
 8615TIP3    H225810   3.853   1.635   2.313
 8616TIP3   OH225811   3.461   0.165   4.221
 8616TIP3    H125812   3.540   0.141   4.270
 8616TIP3    H225813   3.493   0.223   4.151
 8617TIP3   OH225814   6.149   5.315   3.971
 8617TIP3    H125815   6.166   5.222   3.958
 8617TIP3    H225816   6.236   5.354   3.984
 8618TIP3   OH225817   6.519   6.203   3.754
 8618TIP3    H125818   6.583   6.270   3.774
 8618TIP3    H225819   6.434   6.248   3.761
 8619TIP3   OH225820   4.959   2.459   3.254
 8619TIP3    H125821   4.963   2.457   3.159
 8619TIP3    H225822   4.988   2.372   3.281
 8620TIP3   OH225823   2.965   5.492   4.941
 8620TIP3    H125824   3.040   5.551   4.945
 8620TIP3    H225825   3.003   5.404   4.944
 8621TIP3   OH225826   6.484   1.768   0.384
 8621TIP3    H125827   6.458   1.860   0.381
 8621TIP3    H225828   6.534   1.760   0.465
 8622TIP3   OH225829   5.847   6.266   3.535
 8622TIP3    H125830   5.898   6.279   3.615
 8622TIP3    H225831   5.896   6.200   3.486
 8623TIP3   OH225832   2.474   0.482   1.850
 8623TIP3    H125833   2.531   0.491   1.774
 8623TIP3    H225834   2.513   0.411   1.901
 8624TIP3   OH225835   4.927   2.840   3.358
 8624TIP3    H125836   5.013   2.826   3.317
 8624TIP3    H225837   4.910   2.758   3.404
 8625TIP3   OH225838   6.421   3.238   1.653
 8625TIP3    H125839   6.483   3.310   1.665
 8625TIP3    H225840   6.444   3.175   1.722
 8626TIP3   OH225841   4.341   3.397   4.226
 8626TIP3    H125842   4.249   3.371   4.228
 8626TIP3    H225843   4.345   3.475   4.281
 8627TIP3   OH225844   5.040   3.446   0.538
 8627TIP3    H125845   5.091   3.474   0.462
 8627TIP3    H225846   4.996   3.526   0.568
 8628TIP3   OH225847   6.788   0.214   5.239
 8628TIP3    H125848   6.732   0.183   5.168
 8628TIP3    H225849   6.790   0.141   5.301
 8629TIP3   OH225850   6.946   6.807   3.814
 8629TIP3    H125851   6.851   6.815   3.806
 8629TIP3    H225852   6.973   6.766   3.732
 8630TIP3   OH225853   6.276   5.609   5.097
 8630TIP3    H125854   6.356   5.625   5.048
 8630TIP3    H225855   6.210   5.593   5.030
 8631TIP3   OH225856   1.865  -0.019   3.751
 8631TIP3    H125857   1.790  -0.072   3.725
 8631TIP3    H225858   1.852   0.065   3.708
 8632TIP3   OH225859   4.502   2.301   1.999
 8632TIP3    H125860   4.534   2.255   2.077
 8632TIP3    H225861   4.537   2.390   2.008
 8633TIP3   OH225862   1.162   2.815   1.655
 8633TIP3    H125863   1.157   2.885   1.590
 8633TIP3    H225864   1.194   2.858   1.734
 8634TIP3   OH225865   3.151   0.514   3.004
 8634TIP3    H125866   3.142   0.421   2.982
 8634TIP3    H225867   3.093   0.526   3.079
 8635TIP3   OH225868   3.018   0.130   4.058
 8635TIP3    H125869   2.973   0.214   4.063
 8635TIP3    H225870   3.094   0.140   4.115
 8636TIP3   OH225871   4.404   4.799   2.994
 8636TIP3    H125872   4.432   4.748   2.919
 8636TIP3    H225873   4.354   4.738   3.048
 8637TIP3   OH225874   2.617   0.897   5.398
 8637TIP3    H125875   2.577   0.880   5.312
 8637TIP3    H225876   2.585   0.984   5.422
 8638TIP3   OH225877   5.900   0.867   1.806
 8638TIP3    H125878   5.984   0.831   1.775
 8638TIP3    H225879   5.918   0.894   1.896
 8639TIP3   OH225880   4.692   0.638   3.648
 8639TIP3    H125881   4.618   0.585   3.678
 8639TIP3    H225882   4.757   0.629   3.717
 8640TIP3   OH225883   5.324   3.647   2.053
 8640TIP3    H125884   5.395   3.710   2.066
 8640TIP3    H225885   5.369   3.562   2.044
 8641TIP3   OH225886   5.514   3.867   0.496
 8641TIP3    H125887   5.541   3.904   0.580
 8641TIP3    H225888   5.463   3.789   0.520
 8642TIP3   OH225889   6.653   2.633   2.771
 8642TIP3    H125890   6.670   2.578   2.695
 8642TIP3    H225891   6.651   2.573   2.845
 8643TIP3   OH225892   2.748   4.164   2.057
 8643TIP3    H125893   2.822   4.117   2.096
 8643TIP3    H225894   2.701   4.201   2.131
 8644TIP3   OH225895   7.094   4.134   5.793
 8644TIP3    H125896   7.081   4.042   5.769
 8644TIP3    H225897   7.039   4.183   5.731
 8645TIP3   OH225898   1.039   2.980   2.200
 8645TIP3    H125899   1.122   2.978   2.247
 8645TIP3    H225900   1.053   3.041   2.128
 8646TIP3   OH225901   4.934   1.869   4.097
 8646TIP3    H125902   4.838   1.863   4.091
 8646TIP3    H225903   4.965   1.790   4.052
 8647TIP3   OH225904   4.557   2.119   5.907
 8647TIP3    H125905   4.575   2.028   5.881
 8647TIP3    H225906   4.602   2.172   5.842
 8648TIP3   OH225907   4.278   3.438   2.128
 8648TIP3    H125908   4.333   3.360   2.122
 8648TIP3    H225909   4.204   3.419   2.071
 8649TIP3   OH225910   4.982   5.976   0.328
 8649TIP3    H125911   4.951   5.885   0.331
 8649TIP3    H225912   4.904   6.027   0.307
 8650TIP3   OH225913   6.412   4.617   2.255
 8650TIP3    H125914   6.433   4.646   2.167
 8650TIP3    H225915   6.437   4.690   2.312
 8651TIP3   OH225916   1.556   2.426   0.223
 8651TIP3    H125917   1.646   2.406   0.250
 8651TIP3    H225918   1.549   2.521   0.229
 8652TIP3   OH225919   0.247   1.677   3.971
 8652TIP3    H125920   0.189   1.631   4.032
 8652TIP3    H225921   0.281   1.608   3.914
 8653TIP3   OH225922   4.262   1.202   4.695
 8653TIP3    H125923   4.304   1.268   4.750
 8653TIP3    H225924   4.204   1.252   4.637
 8654TIP3   OH225925   1.835   1.962   3.167
 8654TIP3    H125926   1.914   1.998   3.206
 8654TIP3    H225927   1.855   1.869   3.153
 8655TIP3   OH225928   5.583   4.488   3.810
 8655TIP3    H125929   5.504   4.513   3.858
 8655TIP3    H225930   5.579   4.393   3.805
 8656TIP3   OH225931   0.210  -0.009   1.601
 8656TIP3    H125932   0.280   0.020   1.542
 8656TIP3    H225933   0.218   0.047   1.677
 8657TIP3   OH225934   6.684   3.447   4.358
 8657TIP3    H125935   6.721   3.401   4.433
 8657TIP3    H225936   6.760   3.486   4.314
 8658TIP3   OH225937   2.987   0.661   4.741
 8658TIP3    H125938   2.951   0.725   4.802
 8658TIP3    H225939   2.935   0.672   4.661
 8659TIP3   OH225940   1.879   1.858   5.801
 8659TIP3    H125941   1.919   1.786   5.752
 8659TIP3    H225942   1.854   1.819   5.885
 8660TIP3   OH225943   0.194   6.084   3.180
 8660TIP3    H125944   0.119   6.144   3.171
 8660TIP3    H225945   0.195   6.061   3.273
 8661TIP3   OH225946   2.356   2.174   4.671
 8661TIP3    H125947   2.435   2.187   4.723
 8661TIP3    H225948   2.292   2.140   4.732
 8662TIP3   OH225949   7.016   5.614   4.760
 8662TIP3    H125950   7.060   5.668   4.695
 8662TIP3    H225951   6.943   5.574   4.712
 8663TIP3   OH225952   2.218   2.028   5.288
 8663TIP3    H125953   2.182   1.986   5.209
 8663TIP3    H225954   2.292   1.972   5.313
 8664TIP3   OH225955   3.587   3.238   4.420
 8664TIP3    H125956   3.556   3.244   4.330
 8664TIP3    H225957   3.529   3.175   4.462
 8665TIP3   OH225958   1.320   0.315   3.837
 8665TIP3    H125959   1.356   0.231   3.811
 8665TIP3    H225960   1.305   0.362   3.754
 8666TIP3   OH225961   3.678   0.175   0.043
 8666TIP3    H125962   3.595   0.202   0.081
 8666TIP3    H225963   3.718   0.256   0.012
 8667TIP3   OH225964   1.465   0.285   1.768
 8667TIP3    H125965   1.514   0.347   1.714
 8667TIP3    H225966   1.492   0.305   1.858
 8668TIP3   OH225967   0.094   2.694   1.300
 8668TIP3    H125968   0.177   2.675   1.257
 8668TIP3    H225969   0.029   2.642   1.252
 8669TIP3   OH225970   4.652   5.782   4.009
 8669TIP3    H125971   4.580   5.756   4.067
 8669TIP3    H225972   4.727   5.732   4.040
 8670TIP3   OH225973   1.824   0.861   0.322
 8670TIP3    H125974   1.900   0.838   0.269
 8670TIP3    H225975   1.778   0.927   0.270
 8671TIP3   OH225976   3.963   2.519   2.933
 8671TIP3    H125977   3.911   2.529   2.853
 8671TIP3    H225978   4.037   2.578   2.921
 8672TIP3   OH225979   6.315   0.465   2.445
 8672TIP3    H125980   6.349   0.553   2.429
 8672TIP3    H225981   6.230   0.464   2.400
 8673TIP3   OH225982   4.193   1.271   3.529
 8673TIP3    H125983   4.212   1.360   3.560
 8673TIP3    H225984   4.216   1.273   3.436
 8674TIP3   OH225985   1.470   3.350   0.380
 8674TIP3    H125986   1.556   3.353   0.420
 8674TIP3    H225987   1.416   3.409   0.432
 8675TIP3   OH225988   3.167   6.135   3.348
 8675TIP3    H125989   3.106   6.082   3.399
 8675TIP3    H225990   3.116   6.167   3.274
 8676TIP3   OH225991   6.192   5.274   0.893
 8676TIP3    H125992   6.206   5.208   0.960
 8676TIP3    H225993   6.170   5.225   0.814
 8677TIP3   OH225994   1.062   1.335   5.029
 8677TIP3    H125995   1.105   1.418   5.004
 8677TIP3    H225996   1.088   1.321   5.120
 8678TIP3   OH225997   0.793   3.143   3.628
 8678TIP3    H125998   0.708   3.174   3.659
 8678TIP3    H225999   0.793   3.049   3.649
 8679TIP3   OH226000   3.663   5.682   1.759
 8679TIP3    H126001   3.660   5.692   1.854
 8679TIP3    H226002   3.631   5.594   1.743
 8680TIP3   OH226003   1.391   2.436   4.547
 8680TIP3    H126004   1.447   2.436   4.624
 8680TIP3    H226005   1.304   2.458   4.581
 8681TIP3   OH226006   6.956   1.163   3.681
 8681TIP3    H126007   6.948   1.257   3.697
 8681TIP3    H226008   6.959   1.124   3.769
 8682TIP3   OH226009   2.307   5.660   1.716
 8682TIP3    H126010   2.264   5.643   1.800
 8682TIP3    H226011   2.372   5.728   1.735
 8683TIP3   OH226012   3.153   3.946   4.111
 8683TIP3    H126013   3.083   4.010   4.127
 8683TIP3    H226014   3.189   3.928   4.198
 8684TIP3   OH226015   2.989   0.651   2.408
 8684TIP3    H126016   3.008   0.636   2.501
 8684TIP3    H226017   2.895   0.638   2.400
 8685TIP3   OH226018   3.829   3.832   1.629
 8685TIP3    H126019   3.826   3.788   1.714
 8685TIP3    H226020   3.902   3.893   1.636
 8686TIP3   OH226021   1.856   5.398   3.573
 8686TIP3    H126022   1.948   5.399   3.546
 8686TIP3    H226023   1.847   5.317   3.624
 8687TIP3   OH226024   0.645   0.733   1.186
 8687TIP3    H126025   0.576   0.667   1.191
 8687TIP3    H226026   0.660   0.745   1.093
 8688TIP3   OH226027   1.149  -0.025   1.428
 8688TIP3    H126028   1.213  -0.045   1.497
 8688TIP3    H226029   1.111   0.059   1.454
 8689TIP3   OH226030   0.400   4.919   2.399
 8689TIP3    H126031   0.485   4.959   2.379
 8689TIP3    H226032   0.416   4.825   2.394
 8690TIP3   OH226033   1.288   4.946   2.094
 8690TIP3    H126034   1.279   4.870   2.036
 8690TIP3    H226035   1.218   4.935   2.159
 8691TIP3   OH226036   5.593   0.359   5.331
 8691TIP3    H126037   5.616   0.373   5.423
 8691TIP3    H226038   5.647   0.421   5.282
 8692TIP3   OH226039   4.887   6.002   2.907
 8692TIP3    H126040   4.829   5.962   2.841
 8692TIP3    H226041   4.830   6.059   2.958
 8693TIP3   OH226042   6.226   0.931   5.892
 8693TIP3    H126043   6.321   0.920   5.889
 8693TIP3    H226044   6.208   1.005   5.834
 8694TIP3   OH226045   2.430   0.217   2.242
 8694TIP3    H126046   2.476   0.224   2.326
 8694TIP3    H226047   2.429   0.123   2.223
 8695TIP3   OH226048   2.223   4.827   4.500
 8695TIP3    H126049   2.157   4.758   4.506
 8695TIP3    H226050   2.204   4.872   4.417
 8696TIP3   OH226051   1.067   4.873   1.187
 8696TIP3    H126052   1.046   4.918   1.104
 8696TIP3    H226053   1.006   4.911   1.250
 8697TIP3   OH226054   0.723   1.410   3.848
 8697TIP3    H126055   0.790   1.384   3.784
 8697TIP3    H226056   0.642   1.415   3.797
 8698TIP3   OH226057   3.137   2.635   4.146
 8698TIP3    H126058   3.117   2.663   4.057
 8698TIP3    H226059   3.116   2.712   4.200
 8699TIP3   OH226060   3.652   1.953   0.426
 8699TIP3    H126061   3.626   1.870   0.386
 8699TIP3    H226062   3.665   1.932   0.518
 8700TIP3   OH226063   6.456  -0.014   2.432
 8700TIP3    H126064   6.437   0.053   2.498
 8700TIP3    H226065   6.515   0.030   2.370
 8701TIP3   OH226066   3.678   0.372   2.779
 8701TIP3    H126067   3.633   0.379   2.695
 8701TIP3    H226068   3.664   0.282   2.808
 8702TIP3   OH226069   4.032   5.971   3.925
 8702TIP3    H126070   4.069   5.956   3.838
 8702TIP3    H226071   3.944   6.006   3.908
 8703TIP3   OH226072   1.094   0.014   3.260
 8703TIP3    H126073   1.110  -0.071   3.221
 8703TIP3    H226074   1.019   0.049   3.212
 8704TIP3   OH226075   1.698   1.047   2.478
 8704TIP3    H126076   1.741   1.118   2.431
 8704TIP3    H226077   1.758   0.973   2.472
 8705TIP3   OH226078   1.758   5.394   1.016
 8705TIP3    H126079   1.773   5.376   1.109
 8705TIP3    H226080   1.751   5.308   0.975
 8706TIP3   OH226081   0.421   2.891   2.359
 8706TIP3    H126082   0.335   2.930   2.342
 8706TIP3    H226083   0.479   2.966   2.374
 8707TIP3   OH226084   3.514   1.949   5.850
 8707TIP3    H126085   3.480   2.010   5.785
 8707TIP3    H226086   3.504   1.994   5.934
 8708TIP3   OH226087   6.952   6.310   3.315
 8708TIP3    H126088   6.879   6.290   3.373
 8708TIP3    H226089   7.030   6.288   3.365
 8709TIP3   OH226090   0.742   1.074   4.153
 8709TIP3    H126091   0.758   1.168   4.163
 8709TIP3    H226092   0.647   1.065   4.162
 8710TIP3   OH226093   0.765   4.695   1.861
 8710TIP3    H126094   0.814   4.614   1.849
 8710TIP3    H226095   0.720   4.684   1.945
 8711TIP3   OH226096   6.481   5.742   2.021
 8711TIP3    H126097   6.409   5.735   1.959
 8711TIP3    H226098   6.558   5.715   1.971
 8712TIP3   OH226099   5.476   0.865   4.977
 8712TIP3    H126100   5.485   0.770   4.969
 8712TIP3    H226101   5.541   0.889   5.044
 8713TIP3   OH226102   4.703   4.763   2.571
 8713TIP3    H126103   4.620   4.802   2.547
 8713TIP3    H226104   4.681   4.696   2.635
 8714TIP3   OH226105   6.760   6.652   1.833
 8714TIP3    H126106   6.839   6.677   1.785
 8714TIP3    H226107   6.788   6.649   1.925
 8715TIP3   OH226108   1.417   4.947   3.542
 8715TIP3    H126109   1.346   4.985   3.491
 8715TIP3    H226110   1.493   4.949   3.484
 8716TIP3   OH226111   4.648   1.195   2.722
 8716TIP3    H126112   4.705   1.151   2.785
 8716TIP3    H226113   4.559   1.172   2.749
 8717TIP3   OH226114   3.069   4.013   5.629
 8717TIP3    H126115   3.049   4.105   5.610
 8717TIP3    H226116   3.147   3.993   5.577
 8718TIP3   OH226117   6.919   3.209   4.036
 8718TIP3    H126118   6.941   3.255   3.954
 8718TIP3    H226119   6.977   3.248   4.101
 8719TIP3   OH226120   5.670   1.876   0.976
 8719TIP3    H126121   5.735   1.937   1.011
 8719TIP3    H226122   5.628   1.925   0.905
 8720TIP3   OH226123   3.023   1.453   5.323
 8720TIP3    H126124   3.071   1.381   5.365
 8720TIP3    H226125   2.960   1.410   5.266
 8721TIP3   OH226126   1.620   6.019   5.751
 8721TIP3    H126127   1.557   6.077   5.708
 8721TIP3    H226128   1.587   6.009   5.840
 8722TIP3   OH226129   4.985   2.908   4.230
 8722TIP3    H126130   5.025   2.995   4.240
 8722TIP3    H226131   5.053   2.856   4.186
 8723TIP3   OH226132   5.603   5.710   0.194
 8723TIP3    H126133   5.682   5.763   0.210
 8723TIP3    H226134   5.550   5.722   0.273
 8724TIP3   OH226135   4.880   2.082   0.378
 8724TIP3    H126136   4.898   1.996   0.416
 8724TIP3    H226137   4.788   2.099   0.398
 8725TIP3   OH226138   1.951   2.574   3.478
 8725TIP3    H126139   1.975   2.657   3.518
 8725TIP3    H226140   2.030   2.545   3.433
 8726TIP3   OH226141   7.194   1.546   0.537
 8726TIP3    H126142   7.193   1.466   0.485
 8726TIP3    H226143   7.102   1.563   0.558
 8727TIP3   OH226144   0.190   0.218   4.253
 8727TIP3    H126145   0.192   0.140   4.197
 8727TIP3    H226146   0.097   0.241   4.258
 8728TIP3   OH226147   0.911   2.432   5.233
 8728TIP3    H126148   0.914   2.384   5.149
 8728TIP3    H226149   0.831   2.484   5.227
 8729TIP3   OH226150   0.732   1.168   3.348
 8729TIP3    H126151   0.650   1.125   3.325
 8729TIP3    H226152   0.800   1.101   3.335
 8730TIP3   OH226153   7.214   6.626   4.383
 8730TIP3    H126154   7.174   6.675   4.311
 8730TIP3    H226155   7.304   6.613   4.356
 8731TIP3   OH226156   6.580   4.345   5.064
 8731TIP3    H126157   6.512   4.318   5.126
 8731TIP3    H226158   6.651   4.377   5.120
 8732TIP3   OH226159   6.537   5.661   3.769
 8732TIP3    H126160   6.613   5.672   3.712
 8732TIP3    H226161   6.482   5.738   3.751
 8733TIP3   OH226162   3.766   1.643   4.963
 8733TIP3    H126163   3.690   1.601   5.002
 8733TIP3    H226164   3.736   1.731   4.940
 8734TIP3   OH226165   3.345   4.588   0.516
 8734TIP3    H126166   3.360   4.554   0.605
 8734TIP3    H226167   3.335   4.510   0.462
 8735TIP3   OH226168   0.678   3.759   5.497
 8735TIP3    H126169   0.617   3.771   5.425
 8735TIP3    H226170   0.627   3.774   5.576
 8736TIP3   OH226171   3.908   2.795   4.236
 8736TIP3    H126172   3.923   2.814   4.328
 8736TIP3    H226173   3.814   2.806   4.224
 8737TIP3   OH226174   5.528   0.708   3.818
 8737TIP3    H126175   5.591   0.770   3.855
 8737TIP3    H226176   5.581   0.644   3.772
 8738TIP3   OH226177   5.342   2.721   5.266
 8738TIP3    H126178   5.424   2.747   5.307
 8738TIP3    H226179   5.349   2.752   5.175
 8739TIP3   OH226180   2.715   0.584   4.819
 8739TIP3    H126181   2.653   0.571   4.890
 8739TIP3    H226182   2.690   0.518   4.754
 8740TIP3   OH226183   2.677   1.152   3.342
 8740TIP3    H126184   2.734   1.224   3.315
 8740TIP3    H226185   2.650   1.175   3.431
 8741TIP3   OH226186   1.138   6.050   2.802
 8741TIP3    H126187   1.190   6.044   2.722
 8741TIP3    H226188   1.113   5.960   2.822
 8742TIP3   OH226189   4.977   2.571   4.690
 8742TIP3    H126190   4.906   2.632   4.673
 8742TIP3    H226191   4.972   2.508   4.618
 8743TIP3   OH226192   3.425   2.783   2.964
 8743TIP3    H126193   3.362   2.854   2.974
 8743TIP3    H226194   3.409   2.725   3.039
 8744TIP3   OH226195   1.907   5.883   3.284
 8744TIP3    H126196   1.859   5.803   3.262
 8744TIP3    H226197   1.938   5.916   3.199
 8745TIP3   OH226198   5.364   2.646   3.930
 8745TIP3    H126199   5.315   2.716   3.974
 8745TIP3    H226200   5.400   2.594   4.002
 8746TIP3   OH226201   2.430   2.623   1.321
 8746TIP3    H126202   2.504   2.677   1.293
 8746TIP3    H226203   2.424   2.554   1.255
 8747TIP3   OH226204   4.430   5.912   2.904
 8747TIP3    H126205   4.451   5.850   2.974
 8747TIP3    H226206   4.337   5.933   2.918
 8748TIP3   OH226207   3.547   0.954   4.741
 8748TIP3    H126208   3.546   0.928   4.833
 8748TIP3    H226209   3.455   0.962   4.718
 8749TIP3   OH226210   6.111   5.241   2.294
 8749TIP3    H126211   6.054   5.202   2.228
 8749TIP3    H226212   6.199   5.208   2.273
 8750TIP3   OH226213   5.196   2.705   1.771
 8750TIP3    H126214   5.202   2.640   1.841
 8750TIP3    H226215   5.106   2.698   1.740
 8751TIP3   OH226216   4.071   6.090   2.630
 8751TIP3    H126217   4.128   6.064   2.557
 8751TIP3    H226218   4.036   6.174   2.603
 8752TIP3   OH226219   4.164   1.825   4.327
 8752TIP3    H126220   4.230   1.876   4.375
 8752TIP3    H226221   4.107   1.791   4.395
 8753TIP3   OH226222   5.942   0.217   1.643
 8753TIP3    H126223   5.926   0.187   1.732
 8753TIP3    H226224   6.028   0.182   1.621
 8754TIP3   OH226225   6.311   0.147   5.796
 8754TIP3    H126226   6.227   0.188   5.820
 8754TIP3    H226227   6.364   0.154   5.875
 8755TIP3   OH226228   4.901   3.575   0.160
 8755TIP3    H126229   4.863   3.583   0.247
 8755TIP3    H226230   4.980   3.629   0.162
 8756TIP3   OH226231   6.954   3.225   5.094
 8756TIP3    H126232   7.044   3.219   5.060
 8756TIP3    H226233   6.965   3.230   5.189
 8757TIP3   OH226234   4.734   6.419   1.039
 8757TIP3    H126235   4.787   6.497   1.024
 8757TIP3    H226236   4.778   6.373   1.110
 8758TIP3   OH226237   4.048   5.471   3.231
 8758TIP3    H126238   4.058   5.555   3.274
 8758TIP3    H226239   4.124   5.464   3.173
 8759TIP3   OH226240   1.971   1.397   3.052
 8759TIP3    H126241   1.969   1.302   3.064
 8759TIP3    H226242   1.880   1.420   3.032
 8760TIP3   OH226243   4.884   6.600   4.826
 8760TIP3    H126244   4.856   6.510   4.839
 8760TIP3    H226245   4.883   6.638   4.914
 8761TIP3   OH226246   7.067   2.328   4.158
 8761TIP3    H126247   7.008   2.400   4.140
 8761TIP3    H226248   7.027   2.252   4.114
 8762TIP3   OH226249   4.950   6.401   2.910
 8762TIP3    H126250   4.970   6.319   2.956
 8762TIP3    H226251   5.001   6.395   2.829
 8763TIP3   OH226252   4.159   2.886   4.990
 8763TIP3    H126253   4.171   2.841   4.906
 8763TIP3    H226254   4.217   2.962   4.984
 8764TIP3   OH226255   3.578   0.321   3.615
 8764TIP3    H126256   3.517   0.376   3.664
 8764TIP3    H226257   3.633   0.383   3.568
 8765TIP3   OH226258   2.371   5.696   1.451
 8765TIP3    H126259   2.342   5.678   1.540
 8765TIP3    H226260   2.466   5.704   1.458
 8766TIP3   OH226261   7.076   0.099   4.979
 8766TIP3    H126262   7.155   0.111   4.926
 8766TIP3    H226263   7.061   0.005   4.978
 8767TIP3   OH226264   6.323   6.718   2.045
 8767TIP3    H126265   6.403   6.746   2.089
 8767TIP3    H226266   6.287   6.649   2.101
 8768TIP3   OH226267   6.851   3.580   2.759
 8768TIP3    H126268   6.834   3.497   2.803
 8768TIP3    H226269   6.871   3.641   2.830
 8769TIP3   OH226270   1.006   1.211   2.143
 8769TIP3    H126271   0.986   1.225   2.235
 8769TIP3    H226272   0.964   1.284   2.098
 8770TIP3   OH226273   0.019   1.878   1.956
 8770TIP3    H126274   0.100   1.901   1.911
 8770TIP3    H226275   0.046   1.813   2.022
 8771TIP3   OH226276   0.584   3.536   2.472
 8771TIP3    H126277   0.558   3.535   2.380
 8771TIP3    H226278   0.527   3.472   2.514
 8772TIP3   OH226279   3.518   1.401   0.684
 8772TIP3    H126280   3.520   1.326   0.744
 8772TIP3    H226281   3.453   1.460   0.722
 8773TIP3   OH226282   2.111   0.880   5.119
 8773TIP3    H126283   2.144   0.931   5.193
 8773TIP3    H226284   2.060   0.943   5.068
 8774TIP3   OH226285   4.409   3.213   1.425
 8774TIP3    H126286   4.369   3.166   1.352
 8774TIP3    H226287   4.417   3.148   1.495
 8775TIP3   OH226288   7.153   1.935   3.071
 8775TIP3    H126289   7.217   1.997   3.107
 8775TIP3    H226290   7.175   1.852   3.113
 8776TIP3   OH226291   3.344   0.467   5.132
 8776TIP3    H126292   3.328   0.550   5.177
 8776TIP3    H226293   3.265   0.415   5.149
 8777TIP3   OH226294   0.856   4.306   2.010
 8777TIP3    H126295   0.811   4.251   1.946
 8777TIP3    H226296   0.897   4.375   1.957
 8778TIP3   OH226297   5.461   2.369   1.722
 8778TIP3    H126298   5.498   2.300   1.667
 8778TIP3    H226299   5.508   2.361   1.805
 8779TIP3   OH226300   6.400   1.970   3.285
 8779TIP3    H126301   6.346   2.012   3.218
 8779TIP3    H226302   6.419   2.040   3.347
 8780TIP3   OH226303   6.971   5.753   5.717
 8780TIP3    H126304   6.877   5.760   5.700
 8780TIP3    H226305   7.006   5.707   5.641
 8781TIP3   OH226306   0.620   1.623   0.818
 8781TIP3    H126307   0.632   1.532   0.790
 8781TIP3    H226308   0.569   1.618   0.898
 8782TIP3   OH226309   1.722   6.762   2.145
 8782TIP3    H126310   1.802   6.790   2.189
 8782TIP3    H226311   1.657   6.827   2.171
 8783TIP3   OH226312   4.404   1.699   2.492
 8783TIP3    H126313   4.406   1.792   2.471
 8783TIP3    H226314   4.496   1.672   2.493
 8784TIP3   OH226315   3.909   2.675   1.904
 8784TIP3    H126316   3.870   2.619   1.971
 8784TIP3    H226317   3.989   2.709   1.945
 8785TIP3   OH226318   2.888   6.119   5.076
 8785TIP3    H126319   2.919   6.040   5.032
 8785TIP3    H226320   2.920   6.191   5.020
 8786TIP3   OH226321   6.028   6.035   3.702
 8786TIP3    H126322   6.093   6.016   3.635
 8786TIP3    H226323   6.059   5.991   3.781
 8787TIP3   OH226324   6.800   1.028   0.049
 8787TIP3    H126325   6.826   1.079   0.126
 8787TIP3    H226326   6.862   1.053  -0.019
 8788TIP3   OH226327   2.051   6.354   2.180
 8788TIP3    H126328   2.059   6.260   2.196
 8788TIP3    H226329   1.968   6.378   2.223
 8789TIP3   OH226330   4.100   1.599   3.148
 8789TIP3    H126331   4.170   1.664   3.143
 8789TIP3    H226332   4.038   1.625   3.080
 8790TIP3   OH226333   6.486   6.224   3.222
 8790TIP3    H126334   6.524   6.185   3.301
 8790TIP3    H226335   6.474   6.151   3.162
 8791TIP3   OH226336   1.864   1.798   5.381
 8791TIP3    H126337   1.950   1.787   5.422
 8791TIP3    H226338   1.836   1.709   5.362
 8792TIP3   OH226339   4.491   3.015   4.348
 8792TIP3    H126340   4.565   2.994   4.292
 8792TIP3    H226341   4.527   3.074   4.414
 8793TIP3   OH226342   6.551   5.379   3.612
 8793TIP3    H126343   6.574   5.424   3.531
 8793TIP3    H226344   6.633   5.372   3.660
 8794TIP3   OH226345   4.234   3.850   5.721
 8794TIP3    H126346   4.310   3.792   5.718
 8794TIP3    H226347   4.181   3.816   5.792
 8795TIP3   OH226348   6.889   5.560   5.477
 8795TIP3    H126349   6.977   5.562   5.442
 8795TIP3    H226350   6.835   5.605   5.412
 8796TIP3   OH226351   3.349   4.754   4.701
 8796TIP3    H126352   3.282   4.688   4.684
 8796TIP3    H226353   3.408   4.714   4.764
 8797TIP3   OH226354   0.756   4.819   0.322
 8797TIP3    H126355   0.700   4.754   0.365
 8797TIP3    H226356   0.736   4.901   0.366
 8798TIP3   OH226357   1.762   2.322   0.462
 8798TIP3    H126358   1.682   2.333   0.515
 8798TIP3    H226359   1.813   2.401   0.478
 8799TIP3   OH226360   6.042   3.009   1.894
 8799TIP3    H126361   5.986   2.948   1.845
 8799TIP3    H226362   6.034   3.092   1.847
 8800TIP3   OH226363   1.237   2.394   2.463
 8800TIP3    H126364   1.261   2.311   2.505
 8800TIP3    H226365   1.144   2.387   2.446
 8801TIP3   OH226366   1.444   5.641   1.806
 8801TIP3    H126367   1.372   5.623   1.746
 8801TIP3    H226368   1.475   5.555   1.833
 8802TIP3   OH226369   6.968   4.801   2.821
 8802TIP3    H126370   6.933   4.884   2.788
 8802TIP3    H226371   6.951   4.738   2.751
 8803TIP3   OH226372   1.131   2.478   4.590
 8803TIP3    H126373   1.152   2.561   4.634
 8803TIP3    H226374   1.042   2.490   4.557
 8804TIP3   OH226375   2.605   0.152   4.042
 8804TIP3    H126376   2.690   0.182   4.008
 8804TIP3    H226377   2.608   0.174   4.135
 8805TIP3   OH226378   3.635   2.548   3.892
 8805TIP3    H126379   3.676   2.481   3.839
 8805TIP3    H226380   3.551   2.565   3.849
 8806TIP3   OH226381   5.894   4.137   2.092
 8806TIP3    H126382   5.945   4.217   2.079
 8806TIP3    H226383   5.910   4.115   2.184
 8807TIP3   OH226384   2.763   5.380   2.575
 8807TIP3    H126385   2.715   5.344   2.501
 8807TIP3    H226386   2.855   5.371   2.552
 8808TIP3   OH226387   6.577   5.737   4.062
 8808TIP3    H126388   6.542   5.706   3.979
 8808TIP3    H226389   6.661   5.777   4.040
 8809TIP3   OH226390   2.907   5.094   2.232
 8809TIP3    H126391   2.814   5.095   2.210
 8809TIP3    H226392   2.947   5.040   2.164
 8810TIP3   OH226393   2.763   1.830   2.221
 8810TIP3    H126394   2.744   1.801   2.311
 8810TIP3    H226395   2.765   1.750   2.170
 8811TIP3   OH226396   2.986   0.420   1.332
 8811TIP3    H126397   2.938   0.488   1.379
 8811TIP3    H226398   2.938   0.339   1.351
 8812TIP3   OH226399   5.908   0.378   0.380
 8812TIP3    H126400   5.940   0.341   0.298
 8812TIP3    H226401   5.893   0.470   0.361
 8813TIP3   OH226402   7.222   3.112   1.971
 8813TIP3    H126403   7.184   3.170   1.905
 8813TIP3    H226404   7.154   3.047   1.988
 8814TIP3   OH226405   1.712   4.078   1.121
 8814TIP3    H126406   1.678   4.088   1.210
 8814TIP3    H226407   1.790   4.024   1.131
 8815TIP3   OH226408   6.371   1.129   4.984
 8815TIP3    H126409   6.391   1.103   4.894
 8815TIP3    H226410   6.439   1.087   5.036
 8816TIP3   OH226411   6.273   4.403   2.030
 8816TIP3    H126412   6.366   4.385   2.043
 8816TIP3    H226413   6.228   4.348   2.095
 8817TIP3   OH226414   1.445   6.325   3.276
 8817TIP3    H126415   1.457   6.420   3.279
 8817TIP3    H226416   1.437   6.298   3.367
 8818TIP3   OH226417   3.653   5.565   5.063
 8818TIP3    H126418   3.617   5.484   5.098
 8818TIP3    H226419   3.734   5.539   5.020
 8819TIP3   OH226420   0.572   3.794   2.906
 8819TIP3    H126421   0.643   3.817   2.966
 8819TIP3    H226422   0.577   3.698   2.900
 8820TIP3   OH226423   0.181   2.764   2.860
 8820TIP3    H126424   0.270   2.800   2.863
 8820TIP3    H226425   0.189   2.686   2.805
 8821TIP3   OH226426   3.608   6.428   4.607
 8821TIP3    H126427   3.560   6.347   4.589
 8821TIP3    H226428   3.540   6.495   4.615
 8822TIP3   OH226429   0.694   4.422   5.127
 8822TIP3    H126430   0.762   4.439   5.062
 8822TIP3    H226431   0.740   4.383   5.201
 8823TIP3   OH226432   4.808   0.432   4.925
 8823TIP3    H126433   4.893   0.444   4.884
 8823TIP3    H226434   4.766   0.518   4.923
 8824TIP3   OH226435   3.476   5.908   0.703
 8824TIP3    H126436   3.495   6.001   0.717
 8824TIP3    H226437   3.390   5.907   0.662
 8825TIP3   OH226438   4.145   2.627   0.243
 8825TIP3    H126439   4.073   2.683   0.274
 8825TIP3    H226440   4.156   2.562   0.312
 8826TIP3   OH226441   5.334   2.607   5.624
 8826TIP3    H126442   5.304   2.620   5.534
 8826TIP3    H226443   5.375   2.690   5.648
 8827TIP3   OH226444   3.132   3.540   3.188
 8827TIP3    H126445   3.188   3.605   3.231
 8827TIP3    H226446   3.043   3.566   3.211
 8828TIP3   OH226447   0.114   0.582   0.807
 8828TIP3    H126448   0.053   0.538   0.747
 8828TIP3    H226449   0.198   0.540   0.790
 8829TIP3   OH226450   3.618   0.340   1.733
 8829TIP3    H126451   3.553   0.308   1.670
 8829TIP3    H226452   3.572   0.341   1.817
 8830TIP3   OH226453   4.379   2.816   0.885
 8830TIP3    H126454   4.460   2.815   0.836
 8830TIP3    H226455   4.325   2.883   0.843
 8831TIP3   OH226456   4.607   5.058   4.051
 8831TIP3    H126457   4.633   5.017   4.133
 8831TIP3    H226458   4.685   5.052   3.996
 8832TIP3   OH226459   1.163   5.335   5.334
 8832TIP3    H126460   1.082   5.339   5.282
 8832TIP3    H226461   1.223   5.393   5.289
 8833TIP3   OH226462   7.117   6.561   1.964
 8833TIP3    H126463   7.098   6.587   1.874
 8833TIP3    H226464   7.127   6.466   1.960
 8834TIP3   OH226465   4.308   0.131   3.342
 8834TIP3    H126466   4.215   0.140   3.319
 8834TIP3    H226467   4.317   0.040   3.370
 8835TIP3   OH226468   2.876   0.123   0.476
 8835TIP3    H126469   2.836   0.046   0.434
 8835TIP3    H226470   2.967   0.097   0.492
 8836TIP3   OH226471   4.372   5.872   5.072
 8836TIP3    H126472   4.298   5.912   5.118
 8836TIP3    H226473   4.395   5.796   5.125
 8837TIP3   OH226474   2.971   4.131   0.141
 8837TIP3    H126475   2.944   4.041   0.122
 8837TIP3    H226476   2.972   4.174   0.055
 8838TIP3   OH226477   3.360   3.300   3.493
 8838TIP3    H126478   3.316   3.233   3.546
 8838TIP3    H226479   3.441   3.319   3.540
 8839TIP3   OH226480   0.835   5.445   3.924
 8839TIP3    H126481   0.838   5.485   3.837
 8839TIP3    H226482   0.876   5.509   3.982
 8840TIP3   OH226483   6.985   0.359   2.495
 8840TIP3    H126484   6.961   0.345   2.403
 8840TIP3    H226485   6.924   0.426   2.526
 8841TIP3   OH226486   4.983   0.661   2.525
 8841TIP3    H126487   4.912   0.655   2.590
 8841TIP3    H226488   5.052   0.606   2.560
 8842TIP3   OH226489   5.767   0.879   3.888
 8842TIP3    H126490   5.843   0.850   3.837
 8842TIP3    H226491   5.803   0.942   3.950
 8843TIP3   OH226492   2.846   4.413   1.698
 8843TIP3    H126493   2.777   4.350   1.676
 8843TIP3    H226494   2.928   4.367   1.678
 8844TIP3   OH226495   3.617   2.914   3.814
 8844TIP3    H126496   3.608   2.897   3.908
 8844TIP3    H226497   3.532   2.892   3.777
 8845TIP3   OH226498   4.687   5.871   0.363
 8845TIP3    H126499   4.628   5.875   0.438
 8845TIP3    H226500   4.665   5.947   0.310
 8846TIP3   OH226501   6.982   1.861   5.277
 8846TIP3    H126502   6.906   1.882   5.223
 8846TIP3    H226503   7.033   1.942   5.281
 8847TIP3   OH226504   4.914   5.159   0.332
 8847TIP3    H126505   4.999   5.196   0.355
 8847TIP3    H226506   4.896   5.096   0.403
 8848TIP3   OH226507   2.119   5.076   1.797
 8848TIP3    H126508   2.137   5.010   1.865
 8848TIP3    H226509   2.178   5.149   1.818
 8849TIP3   OH226510   3.238   3.830   1.659
 8849TIP3    H126511   3.151   3.833   1.619
 8849TIP3    H226512   3.246   3.915   1.703
 8850TIP3   OH226513   0.915   5.140   0.209
 8850TIP3    H126514   0.996   5.089   0.216
 8850TIP3    H226515   0.901   5.175   0.297
 8851TIP3   OH226516   3.876   2.710   3.978
 8851TIP3    H126517   3.856   2.765   4.054
 8851TIP3    H226518   3.792   2.668   3.957
 8852TIP3   OH226519   3.387   4.757   2.224
 8852TIP3    H126520   3.345   4.842   2.238
 8852TIP3    H226521   3.358   4.703   2.298
 8853TIP3   OH226522   1.177   3.677   3.624
 8853TIP3    H126523   1.267   3.646   3.636
 8853TIP3    H226524   1.158   3.726   3.704
 8854TIP3   OH226525   5.770   1.655   1.893
 8854TIP3    H126526   5.856   1.641   1.853
 8854TIP3    H226527   5.746   1.569   1.927
 8855TIP3   OH226528   6.056   0.184   5.935
 8855TIP3    H126529   6.032   0.116   5.872
 8855TIP3    H226530   6.020   0.265   5.898
 8856TIP3   OH226531   0.529   5.904   5.619
 8856TIP3    H126532   0.469   5.849   5.569
 8856TIP3    H226533   0.499   5.993   5.602
 8857TIP3   OH226534   3.277   0.940   4.690
 8857TIP3    H126535   3.219   0.922   4.615
 8857TIP3    H226536   3.249   0.879   4.757
 8858TIP3   OH226537   1.654   3.075   4.342
 8858TIP3    H126538   1.690   3.061   4.430
 8858TIP3    H226539   1.593   3.003   4.329
 8859TIP3   OH226540   6.855   4.179   4.797
 8859TIP3    H126541   6.813   4.265   4.791
 8859TIP3    H226542   6.790   4.124   4.842
 8860TIP3   OH226543   5.073   5.072   3.681
 8860TIP3    H126544   5.130   5.125   3.626
 8860TIP3    H226545   4.997   5.127   3.698
 8861TIP3   OH226546   3.663   4.700   1.716
 8861TIP3    H126547   3.605   4.748   1.657
 8861TIP3    H226548   3.621   4.614   1.727
 8862TIP3   OH226549   1.082   6.650   3.969
 8862TIP3    H126550   1.040   6.571   4.002
 8862TIP3    H226551   1.142   6.676   4.039
 8863TIP3   OH226552   4.008   3.175   2.516
 8863TIP3    H126553   4.039   3.205   2.431
 8863TIP3    H226554   4.085   3.183   2.574
 8864TIP3   OH226555   6.201   4.187   2.637
 8864TIP3    H126556   6.276   4.207   2.581
 8864TIP3    H226557   6.140   4.139   2.580
 8865TIP3   OH226558   1.062   3.714   1.150
 8865TIP3    H126559   1.024   3.626   1.143
 8865TIP3    H226560   1.002   3.762   1.206
 8866TIP3   OH226561   4.303   3.276   0.492
 8866TIP3    H126562   4.375   3.221   0.461
 8866TIP3    H226563   4.322   3.363   0.455
 8867TIP3   OH226564   2.053   1.242   5.532
 8867TIP3    H126565   2.130   1.253   5.587
 8867TIP3    H226566   2.014   1.160   5.562
 8868TIP3   OH226567   5.681   5.623   4.368
 8868TIP3    H126568   5.736   5.562   4.320
 8868TIP3    H226569   5.631   5.670   4.301
 8869TIP3   OH226570   7.092   3.299   2.905
 8869TIP3    H126571   7.162   3.360   2.929
 8869TIP3    H226572   7.137   3.222   2.872
 8870TIP3   OH226573   3.215   5.328   1.845
 8870TIP3    H126574   3.228   5.341   1.751
 8870TIP3    H226575   3.126   5.291   1.852
 8871TIP3   OH226576   3.061   3.845   5.889
 8871TIP3    H126577   3.009   3.768   5.868
 8871TIP3    H226578   3.053   3.901   5.812
 8872TIP3   OH226579   6.006   1.787   1.100
 8872TIP3    H126580   5.978   1.878   1.097
 8872TIP3    H226581   5.933   1.740   1.141
 8873TIP3   OH226582   5.687   6.552   3.821
 8873TIP3    H126583   5.702   6.461   3.847
 8873TIP3    H226584   5.767   6.578   3.776
 8874TIP3   OH226585   2.338   5.922   3.679
 8874TIP3    H126586   2.396   5.865   3.628
 8874TIP3    H226587   2.267   5.944   3.618
 8875TIP3   OH226588   5.465   5.707   1.685
 8875TIP3    H126589   5.446   5.672   1.598
 8875TIP3    H226590   5.434   5.640   1.746
 8876TIP3   OH226591   5.084   4.858   3.862
 8876TIP3    H126592   5.025   4.784   3.857
 8876TIP3    H226593   5.076   4.903   3.778
 8877TIP3   OH226594   4.172   2.776   1.942
 8877TIP3    H126595   4.187   2.856   1.891
 8877TIP3    H226596   4.260   2.744   1.962
 8878TIP3   OH226597   3.075   2.524   2.196
 8878TIP3    H126598   3.092   2.433   2.216
 8878TIP3    H226599   3.112   2.573   2.269
 8879TIP3   OH226600   6.046   1.016   1.413
 8879TIP3    H126601   6.070   0.924   1.403
 8879TIP3    H226602   6.088   1.060   1.338
 8880TIP3   OH226603   1.744   5.226   3.192
 8880TIP3    H126604   1.789   5.283   3.130
 8880TIP3    H226605   1.797   5.146   3.193
 8881TIP3   OH226606   1.169   0.434   5.071
 8881TIP3    H126607   1.220   0.374   5.016
 8881TIP3    H226608   1.083   0.437   5.028
 8882TIP3   OH226609   4.809   1.163   2.015
 8882TIP3    H126610   4.869   1.106   2.063
 8882TIP3    H226611   4.837   1.157   1.924
 8883TIP3   OH226612   6.058   1.193   5.498
 8883TIP3    H126613   6.090   1.283   5.493
 8883TIP3    H226614   6.125   1.147   5.547
 8884TIP3   OH226615   4.344   1.385   5.529
 8884TIP3    H126616   4.313   1.342   5.450
 8884TIP3    H226617   4.439   1.390   5.518
 8885TIP3   OH226618   1.768   5.661   3.209
 8885TIP3    H126619   1.843   5.605   3.225
 8885TIP3    H226620   1.757   5.660   3.113
 8886TIP3   OH226621   3.160   4.269   1.172
 8886TIP3    H126622   3.230   4.211   1.142
 8886TIP3    H226623   3.204   4.348   1.201
 8887TIP3   OH226624   6.192   0.191   2.894
 8887TIP3    H126625   6.153   0.240   2.822
 8887TIP3    H226626   6.225   0.258   2.954
 8888TIP3   OH226627   4.280   4.836   0.265
 8888TIP3    H126628   4.197   4.872   0.234
 8888TIP3    H226629   4.255   4.773   0.333
 8889TIP3   OH226630   6.860   6.617   5.690
 8889TIP3    H126631   6.844   6.574   5.773
 8889TIP3    H226632   6.774   6.651   5.663
 8890TIP3   OH226633   4.803   0.222   3.033
 8890TIP3    H126634   4.781   0.302   3.080
 8890TIP3    H226635   4.845   0.166   3.099
 8891TIP3   OH226636   0.809   3.172   5.654
 8891TIP3    H126637   0.769   3.230   5.719
 8891TIP3    H226638   0.825   3.228   5.579
 8892TIP3   OH226639   3.408   2.299   0.355
 8892TIP3    H126640   3.460   2.225   0.322
 8892TIP3    H226641   3.379   2.344   0.276
 8893TIP3   OH226642   5.185   0.715   1.313
 8893TIP3    H126643   5.099   0.686   1.281
 8893TIP3    H226644   5.207   0.791   1.260
 8894TIP3   OH226645   5.084   5.560   1.332
 8894TIP3    H126646   5.031   5.555   1.253
 8894TIP3    H226647   5.085   5.470   1.366
 8895TIP3   OH226648   1.762   5.217   0.303
 8895TIP3    H126649   1.686   5.273   0.314
 8895TIP3    H226650   1.744   5.167   0.223
 8896TIP3   OH226651   1.972   1.843   3.747
 8896TIP3    H126652   2.025   1.853   3.668
 8896TIP3    H226653   2.014   1.900   3.811
 8897TIP3   OH226654   0.297   4.391   2.540
 8897TIP3    H126655   0.357   4.446   2.489
 8897TIP3    H226656   0.240   4.454   2.585
 8898TIP3   OH226657   2.286   3.949   3.104
 8898TIP3    H126658   2.334   4.015   3.155
 8898TIP3    H226659   2.345   3.874   3.101
 8899TIP3   OH226660   0.129   5.781   4.490
 8899TIP3    H126661   0.113   5.864   4.447
 8899TIP3    H226662   0.104   5.795   4.582
 8900TIP3   OH226663   4.960   4.938   4.360
 8900TIP3    H126664   4.997   4.870   4.304
 8900TIP3    H226665   4.872   4.952   4.325
 8901TIP3   OH226666   6.254   6.537   5.127
 8901TIP3    H126667   6.326   6.560   5.069
 8901TIP3    H226668   6.206   6.619   5.140
 8902TIP3   OH226669   0.338   3.950   4.833
 8902TIP3    H126670   0.380   3.966   4.748
 8902TIP3    H226671   0.249   3.982   4.822
 8903TIP3   OH226672   2.709   1.626   2.059
 8903TIP3    H126673   2.642   1.566   2.093
 8903TIP3    H226674   2.691   1.631   1.965
 8904TIP3   OH226675   2.513   2.476   0.518
 8904TIP3    H126676   2.602   2.461   0.488
 8904TIP3    H226677   2.500   2.571   0.508
 8905TIP3   OH226678   5.201   2.303   3.982
 8905TIP3    H126679   5.181   2.312   3.889
 8905TIP3    H226680   5.182   2.211   4.002
 8906TIP3   OH226681   4.876   3.784   3.206
 8906TIP3    H126682   4.932   3.759   3.280
 8906TIP3    H226683   4.936   3.791   3.132
 8907TIP3   OH226684   3.949   4.179   4.229
 8907TIP3    H126685   3.971   4.187   4.136
 8907TIP3    H226686   4.034   4.169   4.273
 8908TIP3   OH226687   6.200   2.818   5.134
 8908TIP3    H126688   6.252   2.887   5.092
 8908TIP3    H226689   6.161   2.861   5.211
 8909TIP3   OH226690   2.756   1.731   4.450
 8909TIP3    H126691   2.842   1.745   4.491
 8909TIP3    H226692   2.698   1.793   4.493
 8910TIP3   OH226693   0.850   2.969   1.409
 8910TIP3    H126694   0.935   2.925   1.420
 8910TIP3    H226695   0.815   2.977   1.497
 8911TIP3   OH226696   5.725   3.536   2.803
 8911TIP3    H126697   5.778   3.456   2.810
 8911TIP3    H226698   5.646   3.517   2.854
 8912TIP3   OH226699   3.122   5.444   1.373
 8912TIP3    H126700   3.068   5.453   1.295
 8912TIP3    H226701   3.104   5.522   1.425
 8913TIP3   OH226702   5.137   2.327   3.716
 8913TIP3    H126703   5.159   2.414   3.683
 8913TIP3    H226704   5.216   2.276   3.703
 8914TIP3   OH226705   0.586   4.550   3.756
 8914TIP3    H126706   0.599   4.537   3.663
 8914TIP3    H226707   0.626   4.636   3.774
 8915TIP3   OH226708   3.847   4.224   5.473
 8915TIP3    H126709   3.812   4.137   5.489
 8915TIP3    H226710   3.909   4.212   5.401
 8916TIP3   OH226711   0.154   3.749   4.027
 8916TIP3    H126712   0.220   3.706   4.082
 8916TIP3    H226713   0.148   3.693   3.949
 8917TIP3   OH226714   2.815   5.622   0.959
 8917TIP3    H126715   2.746   5.664   1.009
 8917TIP3    H226716   2.771   5.555   0.907
 8918TIP3   OH226717   0.152   2.493   3.187
 8918TIP3    H126718   0.178   2.561   3.248
 8918TIP3    H226719   0.189   2.520   3.103
 8919TIP3   OH226720   0.150   0.848   5.628
 8919TIP3    H126721   0.221   0.911   5.615
 8919TIP3    H226722   0.139   0.843   5.724
 8920TIP3   OH226723   5.557   5.739   4.141
 8920TIP3    H126724   5.536   5.704   4.054
 8920TIP3    H226725   5.511   5.823   4.145
 8921TIP3   OH226726   1.001   2.847   5.305
 8921TIP3    H126727   0.931   2.912   5.309
 8921TIP3    H226728   1.067   2.878   5.366
 8922TIP3   OH226729   5.865   5.871   2.874
 8922TIP3    H126730   5.794   5.810   2.853
 8922TIP3    H226731   5.839   5.909   2.957
 8923TIP3   OH226732   5.429   2.899   1.843
 8923TIP3    H126733   5.510   2.894   1.894
 8923TIP3    H226734   5.373   2.831   1.880
 8924TIP3   OH226735   1.187   4.249   1.470
 8924TIP3    H126736   1.163   4.312   1.402
 8924TIP3    H226737   1.162   4.164   1.434
 8925TIP3   OH226738   3.507   0.223   4.661
 8925TIP3    H126739   3.519   0.270   4.578
 8925TIP3    H226740   3.418   0.247   4.688
 8926TIP3   OH226741   5.911   1.217   2.260
 8926TIP3    H126742   5.973   1.145   2.275
 8926TIP3    H226743   5.913   1.232   2.166
 8927TIP3   OH226744   5.394   2.572   4.351
 8927TIP3    H126745   5.361   2.496   4.302
 8927TIP3    H226746   5.373   2.647   4.295
 8928TIP3   OH226747   6.513   2.243   0.316
 8928TIP3    H126748   6.570   2.319   0.325
 8928TIP3    H226749   6.534   2.207   0.230
 8929TIP3   OH226750   5.409   2.649   1.617
 8929TIP3    H126751   5.341   2.696   1.664
 8929TIP3    H226752   5.426   2.571   1.671
 8930TIP3   OH226753   6.055   6.575   5.755
 8930TIP3    H126754   6.102   6.601   5.675
 8930TIP3    H226755   6.102   6.498   5.787
 8931TIP3   OH226756   4.212   0.459   3.633
 8931TIP3    H126757   4.293   0.495   3.670
 8931TIP3    H226758   4.216   0.483   3.541
 8932TIP3   OH226759   3.349   6.710   2.748
 8932TIP3    H126760   3.396   6.636   2.787
 8932TIP3    H226761   3.393   6.787   2.784
 8933TIP3   OH226762   0.670   2.019   3.888
 8933TIP3    H126763   0.647   1.972   3.808
 8933TIP3    H226764   0.624   1.972   3.958
 8934TIP3   OH226765   3.875   2.626   0.710
 8934TIP3    H126766   3.849   2.545   0.754
 8934TIP3    H226767   3.931   2.671   0.773
 8935TIP3   OH226768   4.762   1.563   3.494
 8935TIP3    H126769   4.781   1.650   3.460
 8935TIP3    H226770   4.667   1.564   3.510
 8936TIP3   OH226771   3.508   4.824   2.751
 8936TIP3    H126772   3.413   4.836   2.763
 8936TIP3    H226773   3.533   4.894   2.691
 8937TIP3   OH226774   0.348   3.810   2.092
 8937TIP3    H126775   0.292   3.736   2.117
 8937TIP3    H226776   0.418   3.809   2.157
 8938TIP3   OH226777   2.609   3.035   3.475
 8938TIP3    H126778   2.533   3.009   3.423
 8938TIP3    H226779   2.649   3.107   3.426
 8939TIP3   OH226780   2.921   2.413   4.887
 8939TIP3    H126781   2.946   2.506   4.887
 8939TIP3    H226782   2.986   2.371   4.831
 8940TIP3   OH226783   5.979   4.387   3.214
 8940TIP3    H126784   5.939   4.470   3.191
 8940TIP3    H226785   5.973   4.383   3.310
 8941TIP3   OH226786   2.934   1.987   2.037
 8941TIP3    H126787   2.978   1.933   2.103
 8941TIP3    H226788   2.874   2.042   2.087
 8942TIP3   OH226789   0.939   0.578   1.232
 8942TIP3    H126790   1.025   0.617   1.219
 8942TIP3    H226791   0.887   0.609   1.158
 8943TIP3   OH226792   1.634   3.955   0.689
 8943TIP3    H126793   1.686   3.964   0.609
 8943TIP3    H226794   1.668   3.877   0.731
 8944TIP3   OH226795   0.563   1.798   1.139
 8944TIP3    H126796   0.613   1.868   1.096
 8944TIP3    H226797   0.598   1.796   1.228
 8945TIP3   OH226798   0.343   0.943   5.213
 8945TIP3    H126799   0.296   0.867   5.180
 8945TIP3    H226800   0.311   0.953   5.303
 8946TIP3   OH226801   1.561   3.933   5.175
 8946TIP3    H126802   1.631   3.978   5.126
 8946TIP3    H226803   1.591   3.934   5.266
 8947TIP3   OH226804   2.265   2.246   1.436
 8947TIP3    H126805   2.323   2.179   1.399
 8947TIP3    H226806   2.205   2.267   1.365
 8948TIP3   OH226807   4.260   1.179   1.977
 8948TIP3    H126808   4.209   1.099   1.990
 8948TIP3    H226809   4.317   1.159   1.903
 8949TIP3   OH226810   5.088   1.319   0.705
 8949TIP3    H126811   5.175   1.300   0.669
 8949TIP3    H226812   5.028   1.298   0.633
 8950TIP3   OH226813   4.342   3.011   1.698
 8950TIP3    H126814   4.247   3.022   1.712
 8950TIP3    H226815   4.351   3.000   1.604
 8951TIP3   OH226816   3.165   0.210   1.058
 8951TIP3    H126817   3.226   0.140   1.080
 8951TIP3    H226818   3.082   0.183   1.098
 8952TIP3   OH226819   4.560   4.392   4.051
 8952TIP3    H126820   4.513   4.419   4.129
 8952TIP3    H226821   4.625   4.329   4.083
 8953TIP3   OH226822   2.501   2.268   3.346
 8953TIP3    H126823   2.539   2.305   3.426
 8953TIP3    H226824   2.576   2.231   3.299
 8954TIP3   OH226825   2.151   4.963   1.539
 8954TIP3    H126826   2.125   4.975   1.631
 8954TIP3    H226827   2.099   4.888   1.510
 8955TIP3   OH226828   5.666   6.253   0.080
 8955TIP3    H126829   5.691   6.195   0.152
 8955TIP3    H226830   5.580   6.222   0.053
 8956TIP3   OH226831   3.017   3.870   1.507
 8956TIP3    H126832   2.934   3.915   1.494
 8956TIP3    H226833   3.058   3.871   1.420
 8957TIP3   OH226834   1.814   1.331   5.707
 8957TIP3    H126835   1.835   1.241   5.735
 8957TIP3    H226836   1.862   1.386   5.769
 8958TIP3   OH226837   6.667   4.413   3.422
 8958TIP3    H126838   6.673   4.502   3.388
 8958TIP3    H226839   6.593   4.415   3.483
 8959TIP3   OH226840   3.943   3.928   2.299
 8959TIP3    H126841   3.910   3.843   2.327
 8959TIP3    H226842   3.864   3.980   2.282
 8960TIP3   OH226843   0.572   3.455   5.122
 8960TIP3    H126844   0.502   3.514   5.148
 8960TIP3    H226845   0.548   3.370   5.159
 8961TIP3   OH226846   0.770   2.160   2.128
 8961TIP3    H126847   0.772   2.115   2.212
 8961TIP3    H226848   0.817   2.242   2.144
 8962TIP3   OH226849   5.486   6.516   1.015
 8962TIP3    H126850   5.481   6.583   1.083
 8962TIP3    H226851   5.405   6.466   1.026
 8963TIP3   OH226852   1.715   3.083   0.040
 8963TIP3    H126853   1.687   3.006  -0.009
 8963TIP3    H226854   1.638   3.109   0.090
 8964TIP3   OH226855   0.174   1.604   5.312
 8964TIP3    H126856   0.137   1.575   5.229
 8964TIP3    H226857   0.160   1.699   5.312
 8965TIP3   OH226858   0.089   4.173   0.707
 8965TIP3    H126859   0.125   4.258   0.730
 8965TIP3    H226860   0.001   4.172   0.745
 8966TIP3   OH226861   0.962   5.717   4.520
 8966TIP3    H126862   0.954   5.622   4.532
 8966TIP3    H226863   0.908   5.754   4.590
 8967TIP3   OH226864   4.210   6.282   4.828
 8967TIP3    H126865   4.195   6.188   4.843
 8967TIP3    H226866   4.172   6.324   4.905
 8968TIP3   OH226867   6.480   3.839   2.518
 8968TIP3    H126868   6.473   3.834   2.613
 8968TIP3    H226869   6.414   3.778   2.486
 8969TIP3   OH226870   1.316   4.564   1.498
 8969TIP3    H126871   1.299   4.641   1.551
 8969TIP3    H226872   1.239   4.555   1.442
 8970TIP3   OH226873   6.996   5.614   3.421
 8970TIP3    H126874   6.916   5.666   3.434
 8970TIP3    H226875   7.057   5.675   3.379
 8971TIP3   OH226876   4.353   0.935   3.787
 8971TIP3    H126877   4.401   0.897   3.713
 8971TIP3    H226878   4.354   0.866   3.854
 8972TIP3   OH226879   4.386   1.943   5.159
 8972TIP3    H126880   4.352   1.987   5.237
 8972TIP3    H226881   4.450   1.880   5.193
 8973TIP3   OH226882   4.888   0.215   2.390
 8973TIP3    H126883   4.814   0.217   2.451
 8973TIP3    H226884   4.934   0.134   2.412
 8974TIP3   OH226885   0.469   1.283   0.364
 8974TIP3    H126886   0.441   1.373   0.380
 8974TIP3    H226887   0.388   1.233   0.360
 8975TIP3   OH226888   1.694   5.309   1.753
 8975TIP3    H126889   1.723   5.218   1.763
 8975TIP3    H226890   1.612   5.313   1.802
 8976TIP3   OH226891   3.858   2.834   5.311
 8976TIP3    H126892   3.934   2.893   5.312
 8976TIP3    H226893   3.785   2.889   5.340
 8977TIP3   OH226894   5.531   2.712   4.631
 8977TIP3    H126895   5.487   2.671   4.557
 8977TIP3    H226896   5.608   2.657   4.647
 8978TIP3   OH226897   0.118   0.287   5.242
 8978TIP3    H126898   0.034   0.292   5.288
 8978TIP3    H226899   0.119   0.364   5.185
 8979TIP3   OH226900   3.894   5.616   0.321
 8979TIP3    H126901   3.921   5.545   0.379
 8979TIP3    H226902   3.947   5.691   0.349
 8980TIP3   OH226903   2.450   1.004   3.678
 8980TIP3    H126904   2.501   0.929   3.706
 8980TIP3    H226905   2.359   0.974   3.680
 8981TIP3   OH226906   3.162   4.865   2.423
 8981TIP3    H126907   3.067   4.867   2.436
 8981TIP3    H226908   3.186   4.956   2.407
 8982TIP3   OH226909   2.488   2.174   2.484
 8982TIP3    H126910   2.410   2.219   2.515
 8982TIP3    H226911   2.454   2.100   2.434
 8983TIP3   OH226912   1.294   5.878   3.898
 8983TIP3    H126913   1.338   5.906   3.818
 8983TIP3    H226914   1.202   5.902   3.885
 8984TIP3   OH226915   2.366   6.522   4.192
 8984TIP3    H126916   2.385   6.429   4.181
 8984TIP3    H226917   2.309   6.544   4.118
 8985TIP3   OH226918   0.752   6.464   1.959
 8985TIP3    H126919   0.795   6.541   1.920
 8985TIP3    H226920   0.804   6.445   2.037
 8986TIP3   OH226921   4.943   5.779   0.900
 8986TIP3    H126922   4.984   5.711   0.846
 8986TIP3    H226923   4.878   5.732   0.952
 8987TIP3   OH226924   0.942   1.222   2.431
 8987TIP3    H126925   0.872   1.230   2.495
 8987TIP3    H226926   0.986   1.307   2.432
 8988TIP3   OH226927   4.089   0.563   1.876
 8988TIP3    H126928   4.021   0.505   1.840
 8988TIP3    H226929   4.057   0.651   1.857
 8989TIP3   OH226930   0.456   1.987   0.830
 8989TIP3    H126931   0.448   1.911   0.772
 8989TIP3    H226932   0.535   1.970   0.882
 8990TIP3   OH226933   3.512   1.530   4.732
 8990TIP3    H126934   3.516   1.623   4.710
 8990TIP3    H226935   3.604   1.502   4.736
 8991TIP3   OH226936   5.896   6.055   1.089
 8991TIP3    H126937   5.850   6.133   1.118
 8991TIP3    H226938   5.886   5.993   1.161
 8992TIP3   OH226939   5.522   4.346   0.649
 8992TIP3    H126940   5.482   4.304   0.725
 8992TIP3    H226941   5.582   4.279   0.614
 8993TIP3   OH226942   5.019   3.079   3.641
 8993TIP3    H126943   4.954   3.065   3.572
 8993TIP3    H226944   4.983   3.035   3.717
 8994TIP3   OH226945   0.481   5.094   5.220
 8994TIP3    H126946   0.472   5.189   5.230
 8994TIP3    H226947   0.461   5.077   5.128
 8995TIP3   OH226948   4.315   3.102   5.469
 8995TIP3    H126949   4.329   3.033   5.534
 8995TIP3    H226950   4.403   3.131   5.446
 8996TIP3   OH226951   5.721   6.129   4.186
 8996TIP3    H126952   5.697   6.162   4.099
 8996TIP3    H226953   5.757   6.206   4.231
 8997TIP3   OH226954   4.723   6.000   0.671
 8997TIP3    H126955   4.754   6.078   0.717
 8997TIP3    H226956   4.801   5.946   0.660
 8998TIP3   OH226957   2.452   2.107   3.637
 8998TIP3    H126958   2.467   2.074   3.549
 8998TIP3    H226959   2.508   2.053   3.693
 8999TIP3   OH226960   6.468   2.148   4.803
 8999TIP3    H126961   6.531   2.077   4.819
 8999TIP3    H226962   6.509   2.226   4.840
 9000TIP3   OH226963   1.075   1.396   1.404
 9000TIP3    H126964   1.097   1.364   1.317
 9000TIP3    H226965   1.001   1.454   1.391
 9001TIP3   OH226966   7.171   3.486   3.368
 9001TIP3    H126967   7.131   3.428   3.432
 9001TIP3    H226968   7.117   3.566   3.371
 9002TIP3   OH226969   0.363   4.742   3.196
 9002TIP3    H126970   0.398   4.831   3.200
 9002TIP3    H226971   0.314   4.732   3.278
 9003TIP3   OH226972   6.080   0.735   1.649
 9003TIP3    H126973   6.031   0.664   1.690
 9003TIP3    H226974   6.171   0.710   1.657
 9004TIP3   OH226975   3.311   1.305   2.232
 9004TIP3    H126976   3.398   1.295   2.270
 9004TIP3    H226977   3.298   1.400   2.226
 9005TIP3   OH226978   1.846   3.074   5.339
 9005TIP3    H126979   1.938   3.094   5.354
 9005TIP3    H226980   1.845   3.016   5.263
 9006TIP3   OH226981   5.548   2.774   5.924
 9006TIP3    H126982   5.604   2.717   5.872
 9006TIP3    H226983   5.520   2.843   5.863
 9007TIP3   OH226984   6.835   6.090   1.879
 9007TIP3    H126985   6.833   6.048   1.965
 9007TIP3    H226986   6.747   6.124   1.867
 9008TIP3   OH226987   4.658   5.435   4.272
 9008TIP3    H126988   4.734   5.481   4.307
 9008TIP3    H226989   4.695   5.365   4.218
 9009TIP3   OH226990   2.556   2.193   2.036
 9009TIP3    H126991   2.574   2.102   2.012
 9009TIP3    H226992   2.635   2.222   2.083
 9010TIP3   OH226993   2.888   0.331   2.677
 9010TIP3    H126994   2.954   0.306   2.741
 9010TIP3    H226995   2.844   0.249   2.654
 9011TIP3   OH226996   1.663   2.886   2.445
 9011TIP3    H126997   1.610   2.965   2.458
 9011TIP3    H226998   1.653   2.837   2.527
 9012TIP3   OH226999   6.731   5.688   5.272
 9012TIP3    H127000   6.643   5.709   5.303
 9012TIP3    H227001   6.718   5.655   5.183
 9013TIP3   OH227002   4.422   5.898   0.789
 9013TIP3    H127003   4.427   5.925   0.881
 9013TIP3    H227004   4.508   5.922   0.752
 9014TIP3   OH227005   2.722   5.266   3.393
 9014TIP3    H127006   2.646   5.320   3.371
 9014TIP3    H227007   2.705   5.182   3.350
 9015TIP3   OH227008   5.339   1.900   1.621
 9015TIP3    H127009   5.410   1.844   1.653
 9015TIP3    H227010   5.271   1.838   1.595
 9016TIP3   OH227011   5.559   2.596   0.559
 9016TIP3    H127012   5.589   2.656   0.491
 9016TIP3    H227013   5.542   2.513   0.513
 9017TIP3   OH227014   6.055   0.986   4.749
 9017TIP3    H127015   6.042   0.897   4.783
 9017TIP3    H227016   6.073   1.038   4.827
 9018TIP3   OH227017   6.438   5.831   0.367
 9018TIP3    H127018   6.382   5.843   0.444
 9018TIP3    H227019   6.479   5.917   0.353
 9019TIP3   OH227020   3.238   5.972   0.917
 9019TIP3    H127021   3.206   6.014   0.837
 9019TIP3    H227022   3.199   5.885   0.916
 9020TIP3   OH227023   5.219   3.603   1.535
 9020TIP3    H127024   5.196   3.692   1.564
 9020TIP3    H227025   5.293   3.579   1.591
 9021TIP3   OH227026   4.581   1.790   0.306
 9021TIP3    H127027   4.498   1.742   0.315
 9021TIP3    H227028   4.587   1.842   0.386
 9022TIP3   OH227029   1.009   2.611   0.452
 9022TIP3    H127030   1.069   2.593   0.524
 9022TIP3    H227031   0.955   2.684   0.483
 9023TIP3   OH227032   3.390   5.580   5.519
 9023TIP3    H127033   3.328   5.591   5.447
 9023TIP3    H227034   3.376   5.490   5.549
 9024TIP3   OH227035   0.601   4.806   5.564
 9024TIP3    H127036   0.633   4.731   5.513
 9024TIP3    H227037   0.668   4.818   5.632
 9025TIP3   OH227038   1.860   4.374   4.986
 9025TIP3    H127039   1.874   4.462   5.022
 9025TIP3    H227040   1.876   4.384   4.892
 9026TIP3   OH227041   4.554   3.195   5.360
 9026TIP3    H127042   4.506   3.258   5.306
 9026TIP3    H227043   4.643   3.230   5.365
 9027TIP3   OH227044   0.615   1.631   5.666
 9027TIP3    H127045   0.597   1.585   5.585
 9027TIP3    H227046   0.700   1.675   5.651
 9028TIP3   OH227047   1.571   2.299   0.659
 9028TIP3    H127048   1.599   2.328   0.746
 9028TIP3    H227049   1.550   2.207   0.669
 9029TIP3   OH227050   5.620   2.231   5.424
 9029TIP3    H127051   5.637   2.311   5.375
 9029TIP3    H227052   5.526   2.214   5.411
 9030TIP3   OH227053   6.694   3.174   4.957
 9030TIP3    H127054   6.731   3.125   5.031
 9030TIP3    H227055   6.760   3.167   4.888
 9031TIP3   OH227056   5.284   0.943   0.500
 9031TIP3    H127057   5.222   0.957   0.571
 9031TIP3    H227058   5.369   0.930   0.543
 9032TIP3   OH227059   4.695   6.187   1.704
 9032TIP3    H127060   4.726   6.149   1.786
 9032TIP3    H227061   4.642   6.119   1.664
 9033TIP3   OH227062   2.608   5.117   3.031
 9033TIP3    H127063   2.667   5.100   3.104
 9033TIP3    H227064   2.522   5.126   3.071
 9034TIP3   OH227065   6.328   6.091  -0.020
 9034TIP3    H127066   6.410   6.093   0.030
 9034TIP3    H227067   6.264   6.056   0.041
 9035TIP3   OH227068   0.845   1.598   2.178
 9035TIP3    H127069   0.872   1.574   2.089
 9035TIP3    H227070   0.754   1.569   2.184
 9036TIP3   OH227071   1.454   0.991   4.852
 9036TIP3    H127072   1.515   1.065   4.840
 9036TIP3    H227073   1.379   1.029   4.897
 9037TIP3   OH227074   3.280   0.068   1.745
 9037TIP3    H127075   3.247   0.127   1.813
 9037TIP3    H227076   3.349   0.119   1.701
 9038TIP3   OH227077   6.799   4.676   0.852
 9038TIP3    H127078   6.872   4.645   0.906
 9038TIP3    H227079   6.724   4.624   0.882
 9039TIP3   OH227080   3.994   3.082   0.330
 9039TIP3    H127081   3.985   3.166   0.376
 9039TIP3    H227082   4.081   3.086   0.290
 9040TIP3   OH227083   1.881   1.372   2.679
 9040TIP3    H127084   1.893   1.401   2.770
 9040TIP3    H227085   1.786   1.371   2.666
 9041TIP3   OH227086   1.167   2.264   2.064
 9041TIP3    H127087   1.208   2.303   2.142
 9041TIP3    H227088   1.221   2.187   2.044
 9042TIP3   OH227089   5.726   1.306   5.484
 9042TIP3    H127090   5.765   1.354   5.410
 9042TIP3    H227091   5.684   1.374   5.537
 9043TIP3   OH227092   3.948   4.443   3.204
 9043TIP3    H127093   4.017   4.409   3.147
 9043TIP3    H227094   3.899   4.503   3.148
 9044TIP3   OH227095   6.115   2.392   1.309
 9044TIP3    H127096   6.206   2.366   1.326
 9044TIP3    H227097   6.122   2.482   1.278
 9045TIP3   OH227098   5.970   3.323   5.522
 9045TIP3    H127099   6.015   3.407   5.531
 9045TIP3    H227100   6.031   3.259   5.559
 9046TIP3   OH227101   4.328   6.758   4.682
 9046TIP3    H127102   4.283   6.715   4.755
 9046TIP3    H227103   4.408   6.706   4.670
 9047TIP3   OH227104   3.178   1.151   5.019
 9047TIP3    H127105   3.098   1.118   5.060
 9047TIP3    H227106   3.159   1.151   4.926
 9048TIP3   OH227107   2.081   3.648   2.435
 9048TIP3    H127108   2.038   3.622   2.516
 9048TIP3    H227109   2.040   3.732   2.412
 9049TIP3   OH227110   7.096   5.760   0.158
 9049TIP3    H127111   7.015   5.713   0.137
 9049TIP3    H227112   7.070   5.852   0.163
 9050TIP3   OH227113   6.644   4.589   2.053
 9050TIP3    H127114   6.673   4.670   2.010
 9050TIP3    H227115   6.712   4.572   2.118
 9051TIP3   OH227116   5.568   1.738   1.409
 9051TIP3    H127117   5.544   1.804   1.473
 9051TIP3    H227118   5.519   1.660   1.435
 9052TIP3   OH227119   0.721   5.870   2.528
 9052TIP3    H127120   0.708   5.951   2.479
 9052TIP3    H227121   0.762   5.810   2.465
 9053TIP3   OH227122   6.433   5.249   2.527
 9053TIP3    H127123   6.425   5.173   2.470
 9053TIP3    H227124   6.428   5.324   2.467
 9054TIP3   OH227125   5.480   3.655   5.588
 9054TIP3    H127126   5.574   3.639   5.594
 9054TIP3    H227127   5.464   3.670   5.495
 9055TIP3   OH227128   7.144   4.947   4.808
 9055TIP3    H127129   7.102   4.863   4.824
 9055TIP3    H227130   7.083   5.011   4.846
 9056TIP3   OH227131   2.164   1.136   5.249
 9056TIP3    H127132   2.182   1.169   5.161
 9056TIP3    H227133   2.086   1.185   5.277
 9057TIP3   OH227134   0.547   0.199   4.574
 9057TIP3    H127135   0.459   0.229   4.550
 9057TIP3    H227136   0.564   0.240   4.658
 9058TIP3   OH227137   0.554   5.480   1.597
 9058TIP3    H127138   0.499   5.558   1.606
 9058TIP3    H227139   0.491   5.408   1.588
 9059TIP3   OH227140   4.960   4.361   5.172
 9059TIP3    H127141   4.951   4.423   5.245
 9059TIP3    H227142   4.870   4.332   5.154
 9060TIP3   OH227143   5.761   0.517   0.994
 9060TIP3    H127144   5.836   0.547   0.944
 9060TIP3    H227145   5.773   0.422   1.002
 9061TIP3   OH227146   4.059   6.194   5.522
 9061TIP3    H127147   4.027   6.125   5.580
 9061TIP3    H227148   4.141   6.159   5.487
 9062TIP3   OH227149   6.366   2.995   0.516
 9062TIP3    H127150   6.373   3.071   0.459
 9062TIP3    H227151   6.405   3.024   0.599
 9063TIP3   OH227152   6.865   2.811   1.405
 9063TIP3    H127153   6.829   2.857   1.480
 9063TIP3    H227154   6.812   2.841   1.330
 9064TIP3   OH227155   5.117   4.503   1.650
 9064TIP3    H127156   5.137   4.410   1.654
 9064TIP3    H227157   5.058   4.519   1.723
 9065TIP3   OH227158   1.527   3.383   0.917
 9065TIP3    H127159   1.585   3.424   0.981
 9065TIP3    H227160   1.456   3.346   0.970
 9066TIP3   OH227161   3.714   0.425   0.774
 9066TIP3    H127162   3.774   0.499   0.764
 9066TIP3    H227163   3.692   0.423   0.867
 9067TIP3   OH227164   5.117   0.719   5.291
 9067TIP3    H127165   5.156   0.694   5.207
 9067TIP3    H227166   5.167   0.797   5.317
 9068TIP3   OH227167   1.041   5.551   1.104
 9068TIP3    H127168   0.961   5.562   1.156
 9068TIP3    H227169   1.112   5.550   1.168
 9069TIP3   OH227170   0.310   1.555   4.367
 9069TIP3    H127171   0.235   1.531   4.313
 9069TIP3    H227172   0.290   1.643   4.398
 9070TIP3   OH227173   4.515   4.715   4.142
 9070TIP3    H127174   4.512   4.771   4.219
 9070TIP3    H227175   4.425   4.713   4.110
 9071TIP3   OH227176   3.061   0.146   5.079
 9071TIP3    H127177   3.121   0.172   5.149
 9071TIP3    H227178   2.976   0.180   5.107
 9072TIP3   OH227179   0.908   0.949   5.627
 9072TIP3    H127180   0.964   0.909   5.560
 9072TIP3    H227181   0.963   1.017   5.667
 9073TIP3   OH227182   4.787   0.703   1.409
 9073TIP3    H127183   4.694   0.726   1.404
 9073TIP3    H227184   4.811   0.680   1.319
 9074TIP3   OH227185   1.886   3.404   4.852
 9074TIP3    H127186   1.961   3.457   4.826
 9074TIP3    H227187   1.898   3.321   4.807
 9075TIP3   OH227188   4.379   4.172   2.191
 9075TIP3    H127189   4.292   4.161   2.230
 9075TIP3    H227190   4.437   4.189   2.265
 9076TIP3   OH227191   2.467   4.466   3.914
 9076TIP3    H127192   2.391   4.471   3.973
 9076TIP3    H227193   2.462   4.547   3.862
 9077TIP3   OH227194   4.183   6.220   3.881
 9077TIP3    H127195   4.133   6.150   3.924
 9077TIP3    H227196   4.155   6.215   3.789
 9078TIP3   OH227197   3.602   0.120   2.818
 9078TIP3    H127198   3.678   0.070   2.790
 9078TIP3    H227199   3.555   0.061   2.877
 9079TIP3   OH227200   7.171   6.217   5.654
 9079TIP3    H127201   7.178   6.131   5.612
 9079TIP3    H227202   7.082   6.217   5.692
 9080TIP3   OH227203   3.707   0.926   4.529
 9080TIP3    H127204   3.655   0.939   4.608
 9080TIP3    H227205   3.797   0.915   4.560
 9081TIP3   OH227206   2.733   1.091   1.069
 9081TIP3    H127207   2.794   1.164   1.076
 9081TIP3    H227208   2.664   1.110   1.132
 9082TIP3   OH227209   6.755   2.936   4.606
 9082TIP3    H127210   6.671   2.937   4.559
 9082TIP3    H227211   6.820   2.918   4.538
 9083TIP3   OH227212   0.253   0.567   0.545
 9083TIP3    H127213   0.193   0.592   0.475
 9083TIP3    H227214   0.240   0.472   0.555
 9084TIP3   OH227215   1.747   2.543   0.817
 9084TIP3    H127216   1.749   2.558   0.723
 9084TIP3    H227217   1.772   2.451   0.828
 9085TIP3   OH227218   3.973   1.114   2.919
 9085TIP3    H127219   3.936   1.038   2.964
 9085TIP3    H227220   3.928   1.189   2.958
 9086TIP3   OH227221   1.464   5.194   1.077
 9086TIP3    H127222   1.441   5.103   1.095
 9086TIP3    H227223   1.549   5.206   1.120
 9087TIP3   OH227224   5.857   4.702   2.418
 9087TIP3    H127225   5.878   4.737   2.332
 9087TIP3    H227226   5.931   4.644   2.440
 9088TIP3   OH227227   2.119   2.878   3.338
 9088TIP3    H127228   2.068   2.850   3.261
 9088TIP3    H227229   2.159   2.961   3.312
 9089TIP3   OH227230   1.518   1.128   5.811
 9089TIP3    H127231   1.593   1.073   5.835
 9089TIP3    H227232   1.457   1.119   5.884
 9090TIP3   OH227233   1.305   6.816   2.166
 9090TIP3    H127234   1.327   6.847   2.254
 9090TIP3    H227235   1.377   6.846   2.111
 9091TIP3   OH227236   0.273   5.395   1.269
 9091TIP3    H127237   0.189   5.385   1.224
 9091TIP3    H227238   0.270   5.483   1.307
 9092TIP3   OH227239   4.748   6.734   0.761
 9092TIP3    H127240   4.825   6.684   0.790
 9092TIP3    H227241   4.676   6.672   0.766
 9093TIP3   OH227242   6.101   3.110   0.098
 9093TIP3    H127243   6.043   3.158   0.157
 9093TIP3    H227244   6.057   3.114   0.013
 9094TIP3   OH227245   1.001   0.346   0.060
 9094TIP3    H127246   0.917   0.300   0.063
 9094TIP3    H227247   1.020   0.355  -0.033
 9095TIP3   OH227248   0.548   5.576   1.230
 9095TIP3    H127249   0.487   5.503   1.226
 9095TIP3    H227250   0.526   5.620   1.313
 9096TIP3   OH227251   2.280   5.462   4.339
 9096TIP3    H127252   2.353   5.450   4.400
 9096TIP3    H227253   2.237   5.377   4.336
 9097TIP3   OH227254   0.139   0.417   3.291
 9097TIP3    H127255   0.048   0.390   3.279
 9097TIP3    H227256   0.133   0.503   3.333
 9098TIP3   OH227257   3.302   1.561   5.321
 9098TIP3    H127258   3.340   1.504   5.254
 9098TIP3    H227259   3.207   1.552   5.310
 9099TIP3   OH227260   5.727   0.183   3.942
 9099TIP3    H127261   5.633   0.191   3.933
 9099TIP3    H227262   5.740   0.097   3.981
 9100TIP3   OH227263   4.726   5.917   5.023
 9100TIP3    H127264   4.772   5.842   4.984
 9100TIP3    H227265   4.680   5.957   4.949
 9101TIP3   OH227266   2.070   4.918   0.207
 9101TIP3    H127267   2.025   4.956   0.283
 9101TIP3    H227268   2.018   4.841   0.184
 9102TIP3   OH227269   1.510   3.648   3.659
 9102TIP3    H127270   1.488   3.741   3.667
 9102TIP3    H227271   1.553   3.627   3.741
 9103TIP3   OH227272   2.994   3.808   4.438
 9103TIP3    H127273   2.967   3.726   4.479
 9103TIP3    H227274   2.967   3.800   4.347
 9104TIP3   OH227275   6.528   4.574   1.153
 9104TIP3    H127276   6.519   4.669   1.141
 9104TIP3    H227277   6.503   4.559   1.244
 9105TIP3   OH227278   2.810   1.230   0.585
 9105TIP3    H127279   2.752   1.168   0.628
 9105TIP3    H227280   2.874   1.176   0.539
 9106TIP3   OH227281   1.856   2.496   4.235
 9106TIP3    H127282   1.894   2.420   4.191
 9106TIP3    H227283   1.772   2.465   4.269
 9107TIP3   OH227284   3.259   3.765   3.283
 9107TIP3    H127285   3.227   3.848   3.250
 9107TIP3    H227286   3.275   3.780   3.376
 9108TIP3   OH227287   6.417   1.940   2.944
 9108TIP3    H127288   6.462   1.882   3.005
 9108TIP3    H227289   6.359   1.993   3.000
 9109TIP3   OH227290   4.963   4.339   5.738
 9109TIP3    H127291   4.920   4.408   5.789
 9109TIP3    H227292   5.042   4.381   5.702
 9110TIP3   OH227293   3.881   1.368   0.895
 9110TIP3    H127294   3.895   1.420   0.816
 9110TIP3    H227295   3.786   1.350   0.895
 9111TIP3   OH227296   5.130   1.794   3.780
 9111TIP3    H127297   5.047   1.794   3.734
 9111TIP3    H227298   5.196   1.790   3.711
 9112TIP3   OH227299   1.391   3.586   4.594
 9112TIP3    H127300   1.310   3.537   4.580
 9112TIP3    H227301   1.378   3.631   4.677
 9113TIP3   OH227302   2.980   6.736   5.035
 9113TIP3    H127303   2.905   6.731   5.095
 9113TIP3    H227304   3.057   6.736   5.092
 9114TIP3   OH227305   6.858   0.316   0.795
 9114TIP3    H127306   6.833   0.306   0.886
 9114TIP3    H227307   6.834   0.405   0.772
 9115TIP3   OH227308   6.182   5.710   0.953
 9115TIP3    H127309   6.186   5.728   1.047
 9115TIP3    H227310   6.117   5.641   0.944
 9116TIP3   OH227311   0.453   4.542   4.242
 9116TIP3    H127312   0.420   4.598   4.312
 9116TIP3    H227313   0.501   4.601   4.184
 9117TIP3   OH227314   4.186   4.478   1.784
 9117TIP3    H127315   4.190   4.486   1.688
 9117TIP3    H227316   4.103   4.519   1.808
 9118TIP3   OH227317   6.552   1.447   3.379
 9118TIP3    H127318   6.574   1.386   3.309
 9118TIP3    H227319   6.635   1.461   3.425
 9119TIP3   OH227320   4.144   1.065   5.080
 9119TIP3    H127321   4.222   1.034   5.125
 9119TIP3    H227322   4.133   1.004   5.007
 9120TIP3   OH227323   2.530   3.904   3.562
 9120TIP3    H127324   2.569   3.836   3.507
 9120TIP3    H227325   2.580   3.899   3.644
 9121TIP3   OH227326   3.686   2.474   3.429
 9121TIP3    H127327   3.772   2.516   3.425
 9121TIP3    H227328   3.634   2.517   3.362
 9122TIP3   OH227329   6.279   4.494   2.479
 9122TIP3    H127330   6.343   4.422   2.490
 9122TIP3    H227331   6.297   4.528   2.391
 9123TIP3   OH227332   6.539   5.437   5.358
 9123TIP3    H127333   6.619   5.432   5.411
 9123TIP3    H227334   6.536   5.353   5.311
 9124TIP3   OH227335   5.720   0.745   3.237
 9124TIP3    H127336   5.760   0.791   3.311
 9124TIP3    H227337   5.761   0.658   3.238
 9125TIP3   OH227338   1.941   0.119   0.461
 9125TIP3    H127339   1.983   0.047   0.507
 9125TIP3    H227340   1.998   0.194   0.477
 9126TIP3   OH227341   0.569   3.110   2.392
 9126TIP3    H127342   0.630   3.093   2.464
 9126TIP3    H227343   0.595   3.196   2.359
 9127TIP3   OH227344   6.703   6.760   2.847
 9127TIP3    H127345   6.794   6.787   2.832
 9127TIP3    H227346   6.659   6.839   2.877
 9128TIP3   OH227347   2.890   1.320   1.328
 9128TIP3    H127348   2.963   1.330   1.389
 9128TIP3    H227349   2.904   1.389   1.263
 9129TIP3   OH227350   6.597   1.853   1.761
 9129TIP3    H127351   6.509   1.822   1.782
 9129TIP3    H227352   6.643   1.774   1.730
 9130TIP3   OH227353   5.949   5.637   4.106
 9130TIP3    H127354   5.877   5.695   4.133
 9130TIP3    H227355   5.992   5.683   4.035
 9131TIP3   OH227356   5.977   4.730   0.668
 9131TIP3    H127357   5.918   4.677   0.721
 9131TIP3    H227358   6.062   4.723   0.712
 9132TIP3   OH227359   6.223   5.692   2.993
 9132TIP3    H127360   6.171   5.691   2.912
 9132TIP3    H227361   6.297   5.750   2.973
 9133TIP3   OH227362   3.689   1.530   5.324
 9133TIP3    H127363   3.696   1.590   5.250
 9133TIP3    H227364   3.762   1.470   5.313
 9134TIP3   OH227365   4.008   4.343   5.755
 9134TIP3    H127366   4.032   4.422   5.707
 9134TIP3    H227367   3.998   4.276   5.687
 9135TIP3   OH227368   6.423   5.553   0.435
 9135TIP3    H127369   6.426   5.641   0.397
 9135TIP3    H227370   6.475   5.499   0.375
 9136TIP3   OH227371   5.275   1.403   4.200
 9136TIP3    H127372   5.206   1.444   4.252
 9136TIP3    H227373   5.334   1.364   4.265
 9137TIP3   OH227374   7.073   3.108   3.306
 9137TIP3    H127375   7.144   3.090   3.244
 9137TIP3    H227376   7.019   3.174   3.262
 9138TIP3   OH227377   6.715   3.400   3.699
 9138TIP3    H127378   6.636   3.357   3.732
 9138TIP3    H227379   6.706   3.399   3.604
 9139TIP3   OH227380   4.930   4.255   1.001
 9139TIP3    H127381   4.876   4.333   0.995
 9139TIP3    H227382   5.002   4.271   0.939
 9140TIP3   OH227383   1.436   4.480   2.048
 9140TIP3    H127384   1.466   4.478   1.957
 9140TIP3    H227385   1.500   4.427   2.095
 9141TIP3   OH227386   0.902   3.300   4.857
 9141TIP3    H127387   0.993   3.326   4.856
 9141TIP3    H227388   0.902   3.212   4.818
 9142TIP3   OH227389   0.884   0.085   5.441
 9142TIP3    H127390   0.796   0.117   5.421
 9142TIP3    H227391   0.933   0.164   5.466
 9143TIP3   OH227392   2.122   0.850   0.286
 9143TIP3    H127393   2.075   0.933   0.294
 9143TIP3    H227394   2.176   0.845   0.365
 9144TIP3   OH227395   5.126   4.924   4.870
 9144TIP3    H127396   5.055   4.862   4.856
 9144TIP3    H227397   5.190   4.902   4.803
 9145TIP3   OH227398   3.452   4.905   5.590
 9145TIP3    H127399   3.417   4.830   5.543
 9145TIP3    H227400   3.387   4.923   5.658
 9146TIP3   OH227401   1.625   2.940   2.052
 9146TIP3    H127402   1.608   2.923   1.959
 9146TIP3    H227403   1.542   2.973   2.086
 9147TIP3   OH227404   4.607   0.669   5.587
 9147TIP3    H127405   4.669   0.630   5.649
 9147TIP3    H227406   4.533   0.696   5.641
 9148TIP3   OH227407   0.244   4.306   3.256
 9148TIP3    H127408   0.158   4.314   3.296
 9148TIP3    H227409   0.229   4.316   3.162
 9149TIP3   OH227410   4.289   6.407   0.358
 9149TIP3    H127411   4.300   6.447   0.445
 9149TIP3    H227412   4.198   6.380   0.355
 9150TIP3   OH227413   5.989   0.693   5.557
 9150TIP3    H127414   5.898   0.664   5.566
 9150TIP3    H227415   6.041   0.613   5.559
 9151TIP3   OH227416   0.541   6.288   4.109
 9151TIP3    H127417   0.575   6.215   4.057
 9151TIP3    H227418   0.590   6.286   4.190
 9152TIP3   OH227419   3.735   6.576   2.714
 9152TIP3    H127420   3.751   6.610   2.627
 9152TIP3    H227421   3.789   6.630   2.772
 9153TIP3   OH227422   2.916   2.354   5.541
 9153TIP3    H127423   2.838   2.301   5.525
 9153TIP3    H227424   2.988   2.291   5.549
 9154TIP3   OH227425   4.841   1.520   0.083
 9154TIP3    H127426   4.843   1.543   0.176
 9154TIP3    H227427   4.759   1.471   0.072
 9155TIP3   OH227428   4.255   3.440   2.429
 9155TIP3    H127429   4.228   3.451   2.338
 9155TIP3    H227430   4.337   3.392   2.424
 9156TIP3   OH227431   5.409   1.038   1.270
 9156TIP3    H127432   5.459   1.116   1.294
 9156TIP3    H227433   5.461   0.965   1.304
 9157TIP3   OH227434   4.839   4.003   2.132
 9157TIP3    H127435   4.754   4.030   2.098
 9157TIP3    H227436   4.897   4.077   2.115
 9158TIP3   OH227437   6.670   5.536   2.611
 9158TIP3    H127438   6.675   5.445   2.641
 9158TIP3    H227439   6.579   5.560   2.623
 9159TIP3   OH227440   7.171   1.748   0.372
 9159TIP3    H127441   7.177   1.668   0.423
 9159TIP3    H227442   7.221   1.812   0.422
 9160TIP3   OH227443   0.136   1.497   2.527
 9160TIP3    H127444   0.179   1.583   2.527
 9160TIP3    H227445   0.043   1.517   2.519
 9161TIP3   OH227446   6.802   4.977   2.682
 9161TIP3    H127447   6.710   4.955   2.697
 9161TIP3    H227448   6.819   4.947   2.593
 9162TIP3   OH227449   5.851   6.719   4.447
 9162TIP3    H127450   5.786   6.789   4.456
 9162TIP3    H227451   5.827   6.655   4.513
 9163TIP3   OH227452   1.485   0.461   2.869
 9163TIP3    H127453   1.497   0.458   2.774
 9163TIP3    H227454   1.554   0.521   2.899
 9164TIP3   OH227455   0.185   1.360   1.966
 9164TIP3    H127456   0.227   1.413   1.898
 9164TIP3    H227457   0.099   1.401   1.979
 9165TIP3   OH227458   3.980   0.223   1.398
 9165TIP3    H127459   4.027   0.226   1.482
 9165TIP3    H227460   4.049   0.224   1.332
 9166TIP3   OH227461   3.239   0.269   4.664
 9166TIP3    H127462   3.226   0.348   4.717
 9166TIP3    H227463   3.221   0.297   4.574
 9167TIP3   OH227464   5.065   6.581   3.888
 9167TIP3    H127465   5.070   6.642   3.814
 9167TIP3    H227466   5.148   6.594   3.935
 9168TIP3   OH227467   3.851   5.739   5.425
 9168TIP3    H127468   3.796   5.774   5.355
 9168TIP3    H227469   3.790   5.696   5.484
 9169TIP3   OH227470   2.320   4.221   3.761
 9169TIP3    H127471   2.262   4.297   3.759
 9169TIP3    H227472   2.295   4.174   3.840
 9170TIP3   OH227473   1.465   2.645   0.531
 9170TIP3    H127474   1.443   2.570   0.476
 9170TIP3    H227475   1.388   2.702   0.525
 9171TIP3   OH227476   5.444   5.874   2.217
 9171TIP3    H127477   5.511   5.933   2.252
 9171TIP3    H227478   5.384   5.932   2.170
 9172TIP3   OH227479   1.955   1.039   3.896
 9172TIP3    H127480   2.014   1.114   3.908
 9172TIP3    H227481   1.909   1.058   3.814
 9173TIP3   OH227482   0.388   1.390   3.871
 9173TIP3    H127483   0.397   1.445   3.793
 9173TIP3    H227484   0.352   1.308   3.838
 9174TIP3   OH227485   0.549   5.408   2.887
 9174TIP3    H127486   0.496   5.384   2.810
 9174TIP3    H227487   0.513   5.493   2.914
 9175TIP3   OH227488   7.099   5.050   2.653
 9175TIP3    H127489   7.042   5.112   2.608
 9175TIP3    H227490   7.151   5.009   2.583
 9176TIP3   OH227491   1.273   1.102   1.216
 9176TIP3    H127492   1.325   1.148   1.283
 9176TIP3    H227493   1.329   1.101   1.139
 9177TIP3   OH227494   4.703   0.515   3.173
 9177TIP3    H127495   4.631   0.468   3.216
 9177TIP3    H227496   4.772   0.519   3.239
 9178TIP3   OH227497   6.215   3.114   1.131
 9178TIP3    H127498   6.250   3.191   1.174
 9178TIP3    H227499   6.202   3.141   1.040
 9179TIP3   OH227500   2.809   1.294   3.021
 9179TIP3    H127501   2.830   1.272   3.112
 9179TIP3    H227502   2.758   1.219   2.990
 9180TIP3   OH227503   0.618   2.834   0.076
 9180TIP3    H127504   0.586   2.924   0.078
 9180TIP3    H227505   0.607   2.802   0.165
 9181TIP3   OH227506   4.932   5.888   3.545
 9181TIP3    H127507   5.000   5.935   3.496
 9181TIP3    H227508   4.979   5.819   3.591
 9182TIP3   OH227509   2.662   0.560   5.144
 9182TIP3    H127510   2.666   0.654   5.125
 9182TIP3    H227511   2.592   0.551   5.209
 9183TIP3   OH227512   1.842   4.452   2.332
 9183TIP3    H127513   1.898   4.479   2.404
 9183TIP3    H227514   1.804   4.369   2.360
 9184TIP3   OH227515   3.819   6.803   3.531
 9184TIP3    H127516   3.800   6.761   3.448
 9184TIP3    H227517   3.780   6.745   3.597
 9185TIP3   OH227518   0.150   4.056   4.459
 9185TIP3    H127519   0.173   4.148   4.473
 9185TIP3    H227520   0.084   4.058   4.390
 9186TIP3   OH227521   0.415   0.785   4.028
 9186TIP3    H127522   0.331   0.810   3.991
 9186TIP3    H227523   0.430   0.848   4.099
 9187TIP3   OH227524   5.603   0.883   3.549
 9187TIP3    H127525   5.601   0.884   3.644
 9187TIP3    H227526   5.609   0.976   3.524
 9188TIP3   OH227527   4.288   2.847   4.116
 9188TIP3    H127528   4.333   2.929   4.097
 9188TIP3    H227529   4.195   2.869   4.111
 9189TIP3   OH227530   1.306   2.474   0.770
 9189TIP3    H127531   1.331   2.454   0.680
 9189TIP3    H227532   1.334   2.397   0.820
 9190TIP3   OH227533   5.165   5.925   4.459
 9190TIP3    H127534   5.133   5.835   4.459
 9190TIP3    H227535   5.105   5.971   4.400
 9191TIP3   OH227536   4.933   6.420   2.443
 9191TIP3    H127537   4.927   6.347   2.506
 9191TIP3    H227538   4.991   6.483   2.486
 9192TIP3   OH227539   7.142   3.075   5.477
 9192TIP3    H127540   7.178   3.110   5.558
 9192TIP3    H227541   7.110   2.988   5.500
 9193TIP3   OH227542   3.882   3.900   0.985
 9193TIP3    H127543   3.867   3.853   1.067
 9193TIP3    H227544   3.957   3.856   0.945
 9194TIP3   OH227545   1.753   5.682   2.924
 9194TIP3    H127546   1.734   5.638   2.841
 9194TIP3    H227547   1.791   5.766   2.898
 9195TIP3   OH227548   5.663   6.180   5.248
 9195TIP3    H127549   5.695   6.271   5.243
 9195TIP3    H227550   5.728   6.135   5.303
 9196TIP3   OH227551   2.163   1.255   3.565
 9196TIP3    H127552   2.097   1.239   3.497
 9196TIP3    H227553   2.115   1.245   3.647
 9197TIP3   OH227554   5.788   5.558   2.587
 9197TIP3    H127555   5.827   5.553   2.674
 9197TIP3    H227556   5.774   5.651   2.572
 9198TIP3   OH227557   0.774   4.418   5.798
 9198TIP3    H127558   0.759   4.328   5.769
 9198TIP3    H227559   0.701   4.468   5.761
 9199TIP3   OH227560   7.107   2.009   3.637
 9199TIP3    H127561   7.142   2.062   3.565
 9199TIP3    H227562   7.143   2.049   3.716
 9200TIP3   OH227563   6.391   2.109   1.026
 9200TIP3    H127564   6.387   2.113   1.121
 9200TIP3    H227565   6.422   2.196   0.999
 9201TIP3   OH227566   4.526   4.352   2.379
 9201TIP3    H127567   4.609   4.340   2.425
 9201TIP3    H227568   4.463   4.376   2.448
 9202TIP3   OH227569   5.184   1.497   0.386
 9202TIP3    H127570   5.168   1.418   0.335
 9202TIP3    H227571   5.122   1.561   0.350
 9203TIP3   OH227572   3.681   0.884   5.487
 9203TIP3    H127573   3.630   0.959   5.520
 9203TIP3    H227574   3.714   0.841   5.566
 9204TIP3   OH227575   7.130   4.906   1.256
 9204TIP3    H127576   7.155   4.866   1.173
 9204TIP3    H227577   7.179   4.856   1.322
 9205TIP3   OH227578   0.277   6.493   3.384
 9205TIP3    H127579   0.245   6.511   3.473
 9205TIP3    H227580   0.355   6.548   3.376
 9206TIP3   OH227581   2.334   0.539   0.940
 9206TIP3    H127582   2.310   0.447   0.945
 9206TIP3    H227583   2.379   0.557   1.022
 9207TIP3   OH227584   3.317   1.155   1.039
 9207TIP3    H127585   3.393   1.191   1.083
 9207TIP3    H227586   3.300   1.072   1.083
 9208TIP3   OH227587   0.803   2.754   1.731
 9208TIP3    H127588   0.738   2.824   1.740
 9208TIP3    H227589   0.887   2.800   1.730
 9209TIP3   OH227590   6.730   3.048   4.146
 9209TIP3    H127591   6.802   3.108   4.160
 9209TIP3    H227592   6.739   2.982   4.214
 9210TIP3   OH227593   6.491   3.840   2.774
 9210TIP3    H127594   6.534   3.760   2.805
 9210TIP3    H227595   6.534   3.910   2.822
 9211TIP3   OH227596   2.877   2.125   0.892
 9211TIP3    H127597   2.789   2.163   0.883
 9211TIP3    H227598   2.873   2.076   0.974
 9212TIP3   OH227599   3.972   0.608   1.271
 9212TIP3    H127600   4.013   0.567   1.347
 9212TIP3    H227601   3.887   0.639   1.303
 9213TIP3   OH227602   4.706   0.440   3.456
 9213TIP3    H127603   4.704   0.532   3.484
 9213TIP3    H227604   4.757   0.396   3.524
 9214TIP3   OH227605   5.762   5.510   1.615
 9214TIP3    H127606   5.819   5.582   1.586
 9214TIP3    H227607   5.690   5.509   1.552
 9215TIP3   OH227608   1.926   1.143   1.732
 9215TIP3    H127609   1.905   1.226   1.776
 9215TIP3    H227610   2.012   1.119   1.766
 9216TIP3   OH227611   0.970   6.058   4.120
 9216TIP3    H127612   0.978   5.982   4.178
 9216TIP3    H227613   0.917   6.121   4.169
 9217TIP3   OH227614   6.151   4.922   2.125
 9217TIP3    H127615   6.125   4.880   2.042
 9217TIP3    H227616   6.140   4.854   2.191
 9218TIP3   OH227617   3.212   5.908   5.373
 9218TIP3    H127618   3.245   5.848   5.307
 9218TIP3    H227619   3.160   5.971   5.324
 9219TIP3   OH227620   2.845   0.512   2.073
 9219TIP3    H127621   2.928   0.487   2.033
 9219TIP3    H227622   2.780   0.458   2.029
 9220TIP3   OH227623   1.244   1.977   3.577
 9220TIP3    H127624   1.312   1.911   3.590
 9220TIP3    H227625   1.187   1.939   3.510
 9221TIP3   OH227626   4.565   4.015   4.759
 9221TIP3    H127627   4.491   3.961   4.786
 9221TIP3    H227628   4.539   4.105   4.781
 9222TIP3   OH227629   5.176   2.565   3.560
 9222TIP3    H127630   5.166   2.582   3.466
 9222TIP3    H227631   5.196   2.650   3.598
 9223TIP3   OH227632   3.394   0.664   3.005
 9223TIP3    H127633   3.319   0.604   3.008
 9223TIP3    H227634   3.378   0.727   3.075
 9224TIP3   OH227635   3.427   6.726   2.120
 9224TIP3    H127636   3.432   6.631   2.121
 9224TIP3    H227637   3.375   6.747   2.042
 9225TIP3   OH227638   1.584   0.931   1.917
 9225TIP3    H127639   1.629   0.895   1.994
 9225TIP3    H227640   1.543   1.012   1.949
 9226TIP3   OH227641   5.777   2.843   1.418
 9226TIP3    H127642   5.788   2.786   1.342
 9226TIP3    H227643   5.791   2.932   1.384
 9227TIP3   OH227644   3.666   3.175   2.487
 9227TIP3    H127645   3.580   3.214   2.476
 9227TIP3    H227646   3.688   3.190   2.579
 9228TIP3   OH227647   1.830   5.941   0.315
 9228TIP3    H127648   1.782   5.961   0.235
 9228TIP3    H227649   1.921   5.963   0.295
 9229TIP3   OH227650   6.425   0.626   5.282
 9229TIP3    H127651   6.501   0.592   5.329
 9229TIP3    H227652   6.350   0.580   5.321
 9230TIP3   OH227653   5.348   6.802   3.692
 9230TIP3    H127654   5.414   6.831   3.629
 9230TIP3    H227655   5.266   6.799   3.641
 9231TIP3   OH227656   5.663   3.733   0.303
 9231TIP3    H127657   5.601   3.779   0.359
 9231TIP3    H227658   5.722   3.689   0.364
 9232TIP3   OH227659   2.368   5.624   3.204
 9232TIP3    H127660   2.326   5.703   3.171
 9232TIP3    H227661   2.345   5.556   3.141
 9233TIP3   OH227662   3.639   0.378   3.283
 9233TIP3    H127663   3.670   0.415   3.201
 9233TIP3    H227664   3.670   0.439   3.350
 9234TIP3   OH227665   6.457   6.229   0.475
 9234TIP3    H127666   6.402   6.280   0.415
 9234TIP3    H227667   6.472   6.146   0.430
 9235TIP3   OH227668   4.997   3.466   1.556
 9235TIP3    H127669   5.089   3.490   1.558
 9235TIP3    H227670   4.950   3.543   1.588
 9236TIP3   OH227671   1.692   5.538   4.007
 9236TIP3    H127672   1.742   5.619   4.004
 9236TIP3    H227673   1.634   5.548   4.083
 9237TIP3   OH227674   1.063   1.897   4.307
 9237TIP3    H127675   1.120   1.913   4.231
 9237TIP3    H227676   0.989   1.956   4.293
 9238TIP3   OH227677   3.265   4.161   5.080
 9238TIP3    H127678   3.271   4.233   5.018
 9238TIP3    H227679   3.261   4.203   5.166
 9239TIP3   OH227680   2.887   4.177   1.211
 9239TIP3    H127681   2.979   4.196   1.196
 9239TIP3    H227682   2.845   4.264   1.218
 9240TIP3   OH227683   0.326   4.833   2.937
 9240TIP3    H127684   0.325   4.802   3.028
 9240TIP3    H227685   0.233   4.847   2.917
 9241TIP3   OH227686   0.603   1.856   4.306
 9241TIP3    H127687   0.559   1.782   4.265
 9241TIP3    H227688   0.541   1.928   4.298
 9242TIP3   OH227689   3.724   4.364   3.670
 9242TIP3    H127690   3.716   4.403   3.757
 9242TIP3    H227691   3.637   4.329   3.652
 9243TIP3   OH227692   3.789   4.986   3.592
 9243TIP3    H127693   3.722   5.007   3.657
 9243TIP3    H227694   3.794   4.890   3.593
 9244TIP3   OH227695   2.503   4.271   4.166
 9244TIP3    H127696   2.559   4.195   4.176
 9244TIP3    H227697   2.492   4.306   4.254
 9245TIP3   OH227698   4.057   2.143   3.969
 9245TIP3    H127699   4.017   2.082   4.031
 9245TIP3    H227700   4.054   2.096   3.885
 9246TIP3   OH227701   4.999   6.023   1.326
 9246TIP3    H127702   4.993   6.071   1.244
 9246TIP3    H227703   5.023   6.088   1.391
 9247TIP3   OH227704   4.884   2.387   2.595
 9247TIP3    H127705   4.834   2.469   2.589
 9247TIP3    H227706   4.894   2.373   2.689
 9248TIP3   OH227707   5.769   2.532   3.468
 9248TIP3    H127708   5.791   2.588   3.543
 9248TIP3    H227709   5.798   2.445   3.495
 9249TIP3   OH227710   4.582   2.762   4.811
 9249TIP3    H127711   4.646   2.779   4.742
 9249TIP3    H227712   4.586   2.838   4.868
 9250TIP3   OH227713   4.230   3.899   3.352
 9250TIP3    H127714   4.141   3.933   3.356
 9250TIP3    H227715   4.251   3.898   3.259
 9251TIP3   OH227716   5.792   6.377   3.295
 9251TIP3    H127717   5.806   6.363   3.389
 9251TIP3    H227718   5.864   6.330   3.253
 9252TIP3   OH227719   1.993   3.910   3.154
 9252TIP3    H127720   2.085   3.906   3.130
 9252TIP3    H227721   1.970   4.002   3.144
 9253TIP3   OH227722   2.001   2.285   2.560
 9253TIP3    H127723   2.056   2.288   2.482
 9253TIP3    H227724   1.914   2.311   2.529
 9254TIP3   OH227725   4.907   3.690   0.614
 9254TIP3    H127726   4.957   3.736   0.682
 9254TIP3    H227727   4.851   3.758   0.577
 9255TIP3   OH227728   0.731   1.813   4.528
 9255TIP3    H127729   0.706   1.843   4.440
 9255TIP3    H227730   0.752   1.721   4.517
 9256TIP3   OH227731   3.012   0.867   1.486
 9256TIP3    H127732   3.075   0.939   1.487
 9256TIP3    H227733   2.927   0.910   1.479
 9257TIP3   OH227734   1.444   1.334   0.367
 9257TIP3    H127735   1.463   1.306   0.278
 9257TIP3    H227736   1.402   1.258   0.408
 9258TIP3   OH227737   5.308   4.409   1.115
 9258TIP3    H127738   5.225   4.456   1.108
 9258TIP3    H227739   5.287   4.333   1.170
 9259TIP3   OH227740   4.160   1.366   2.976
 9259TIP3    H127741   4.078   1.415   2.967
 9259TIP3    H227742   4.200   1.399   3.056
 9260TIP3   OH227743   5.861   1.891   2.105
 9260TIP3    H127744   5.890   1.830   2.173
 9260TIP3    H227745   5.793   1.943   2.148
 9261TIP3   OH227746   6.045   5.457   4.644
 9261TIP3    H127747   6.038   5.546   4.609
 9261TIP3    H227748   6.116   5.418   4.594
 9262TIP3   OH227749   2.091   5.230   4.685
 9262TIP3    H127750   2.112   5.297   4.750
 9262TIP3    H227751   2.161   5.165   4.693
 9263TIP3   OH227752   5.597   0.915   0.868
 9263TIP3    H127753   5.518   0.954   0.906
 9263TIP3    H227754   5.651   0.893   0.944
 9264TIP3   OH227755   5.630   2.367   3.243
 9264TIP3    H127756   5.649   2.279   3.210
 9264TIP3    H227757   5.621   2.357   3.337
 9265TIP3   OH227758   4.418   1.966   2.492
 9265TIP3    H127759   4.463   1.969   2.407
 9265TIP3    H227760   4.402   2.058   2.513
 9266TIP3   OH227761   2.590   6.157   4.292
 9266TIP3    H127762   2.681   6.172   4.268
 9266TIP3    H227763   2.549   6.122   4.213
 9267TIP3   OH227764   6.058   5.712   2.223
 9267TIP3    H127765   6.039   5.661   2.144
 9267TIP3    H227766   6.105   5.650   2.280
 9268TIP3   OH227767   0.388   3.998   4.232
 9268TIP3    H127768   0.295   3.998   4.211
 9268TIP3    H227769   0.430   4.042   4.158
 9269TIP3   OH227770   7.233   0.370   2.123
 9269TIP3    H127771   7.281   0.385   2.204
 9269TIP3    H227772   7.142   0.393   2.144
 9270TIP3   OH227773   2.411   6.381   4.970
 9270TIP3    H127774   2.463   6.361   5.047
 9270TIP3    H227775   2.472   6.370   4.897
 9271TIP3   OH227776   4.912   1.511   2.839
 9271TIP3    H127777   4.925   1.469   2.924
 9271TIP3    H227778   4.916   1.439   2.776
 9272TIP3   OH227779   4.835   1.307   3.583
 9272TIP3    H127780   4.898   1.300   3.511
 9272TIP3    H227781   4.791   1.390   3.569
 9273TIP3   OH227782   1.551   1.672   0.930
 9273TIP3    H127783   1.505   1.647   1.010
 9273TIP3    H227784   1.643   1.675   0.956
 9274TIP3   OH227785   2.890   2.620   1.354
 9274TIP3    H127786   2.936   2.703   1.344
 9274TIP3    H227787   2.898   2.578   1.269
 9275TIP3   OH227788   3.881   4.067   4.886
 9275TIP3    H127789   3.925   4.020   4.957
 9275TIP3    H227790   3.926   4.151   4.881
 9276TIP3   OH227791   5.091   1.153   0.955
 9276TIP3    H127792   5.074   1.169   0.862
 9276TIP3    H227793   5.086   1.058   0.964
 9277TIP3   OH227794   2.193   0.643   1.552
 9277TIP3    H127795   2.106   0.603   1.558
 9277TIP3    H227796   2.187   0.702   1.477
 9278TIP3   OH227797   6.732   4.832   4.595
 9278TIP3    H127798   6.758   4.815   4.685
 9278TIP3    H227799   6.814   4.848   4.549
 9279TIP3   OH227800   3.857   4.696   4.612
 9279TIP3    H127801   3.773   4.735   4.589
 9279TIP3    H227802   3.921   4.765   4.596
 9280TIP3   OH227803   4.729   0.857   0.837
 9280TIP3    H127804   4.774   0.926   0.789
 9280TIP3    H227805   4.790   0.783   0.834
 9281TIP3   OH227806   2.988   3.154   3.544
 9281TIP3    H127807   2.967   3.069   3.506
 9281TIP3    H227808   2.971   3.217   3.473
 9282TIP3   OH227809   1.282   0.592   1.478
 9282TIP3    H127810   1.352   0.618   1.537
 9282TIP3    H227811   1.319   0.520   1.427
 9283TIP3   OH227812   4.795   6.142   1.958
 9283TIP3    H127813   4.806   6.083   2.032
 9283TIP3    H227814   4.741   6.214   1.992
 9284TIP3   OH227815   5.872   5.683  -0.004
 9284TIP3    H127816   5.800   5.738  -0.034
 9284TIP3    H227817   5.831   5.622   0.058
 9285TIP3   OH227818   2.201   4.716   0.387
 9285TIP3    H127819   2.194   4.769   0.308
 9285TIP3    H227820   2.243   4.773   0.451
 9286TIP3   OH227821   0.934   2.059   0.662
 9286TIP3    H127822   0.857   2.052   0.605
 9286TIP3    H227823   1.000   2.004   0.619
 9287TIP3   OH227824   0.662   3.238   0.424
 9287TIP3    H127825   0.597   3.263   0.359
 9287TIP3    H227826   0.739   3.211   0.374
 9288TIP3   OH227827   4.571   2.145   1.375
 9288TIP3    H127828   4.641   2.175   1.434
 9288TIP3    H227829   4.509   2.101   1.433
 9289TIP3   OH227830   6.849   0.816   4.808
 9289TIP3    H127831   6.861   0.725   4.834
 9289TIP3    H227832   6.891   0.822   4.722
 9290TIP3   OH227833   1.607   4.606   2.330
 9290TIP3    H127834   1.692   4.562   2.337
 9290TIP3    H227835   1.606   4.643   2.241
 9291TIP3   OH227836   4.362   2.880   5.649
 9291TIP3    H127837   4.432   2.816   5.647
 9291TIP3    H227838   4.356   2.907   5.740
 9292TIP3   OH227839   1.814   0.395   0.946
 9292TIP3    H127840   1.892   0.448   0.930
 9292TIP3    H227841   1.846   0.318   0.992
 9293TIP3   OH227842   5.245   0.325   4.993
 9293TIP3    H127843   5.267   0.267   4.921
 9293TIP3    H227844   5.189   0.273   5.050
 9294TIP3   OH227845   3.219   3.832   0.133
 9294TIP3    H127846   3.124   3.818   0.136
 9294TIP3    H227847   3.234   3.876   0.050
 9295TIP3   OH227848   2.534   6.653   5.358
 9295TIP3    H127849   2.440   6.643   5.374
 9295TIP3    H227850   2.575   6.585   5.411
 9296TIP3   OH227851   7.196   5.301   0.107
 9296TIP3    H127852   7.206   5.235   0.175
 9296TIP3    H227853   7.276   5.296   0.056
 9297TIP3   OH227854   1.452   6.049   3.687
 9297TIP3    H127855   1.414   6.121   3.638
 9297TIP3    H227856   1.543   6.044   3.657
 9298TIP3   OH227857   6.127   2.772   4.681
 9298TIP3    H127858   6.147   2.689   4.637
 9298TIP3    H227859   6.032   2.781   4.672
 9299TIP3   OH227860   6.678   1.978   5.430
 9299TIP3    H127861   6.707   2.064   5.399
 9299TIP3    H227862   6.737   1.916   5.387
 9300TIP3   OH227863   0.542   3.536   2.179
 9300TIP3    H127864   0.493   3.494   2.108
 9300TIP3    H227865   0.633   3.506   2.166
 9301TIP3   OH227866   2.429   4.898   1.358
 9301TIP3    H127867   2.374   4.976   1.352
 9301TIP3    H227868   2.518   4.930   1.343
 9302TIP3   OH227869   2.568   1.535   0.800
 9302TIP3    H127870   2.572   1.502   0.711
 9302TIP3    H227871   2.613   1.620   0.796
 9303TIP3   OH227872   1.633   1.478   4.342
 9303TIP3    H127873   1.582   1.540   4.394
 9303TIP3    H227874   1.663   1.528   4.267
 9304TIP3   OH227875   6.731   6.493   2.848
 9304TIP3    H127876   6.652   6.483   2.901
 9304TIP3    H227877   6.733   6.586   2.825
 9305TIP3   OH227878   1.866   5.739   5.161
 9305TIP3    H127879   1.867   5.652   5.200
 9305TIP3    H227880   1.776   5.770   5.173
 9306TIP3   OH227881   2.106   1.631   0.323
 9306TIP3    H127882   2.074   1.541   0.327
 9306TIP3    H227883   2.069   1.667   0.243
 9307TIP3   OH227884   4.577   5.728   2.058
 9307TIP3    H127885   4.649   5.762   2.111
 9307TIP3    H227886   4.617   5.710   1.973
 9308TIP3   OH227887   4.074   4.381   2.954
 9308TIP3    H127888   4.090   4.467   2.918
 9308TIP3    H227889   4.001   4.346   2.902
 9309TIP3   OH227890   5.808   4.599   0.864
 9309TIP3    H127891   5.808   4.676   0.920
 9309TIP3    H227892   5.829   4.526   0.922
 9310TIP3   OH227893   4.435   6.675   2.226
 9310TIP3    H127894   4.512   6.636   2.269
 9310TIP3    H227895   4.362   6.655   2.284
 9311TIP3   OH227896   1.081   2.799   4.637
 9311TIP3    H127897   1.109   2.890   4.631
 9311TIP3    H227898   1.033   2.783   4.556
 9312TIP3   OH227899   2.548   4.822   4.259
 9312TIP3    H127900   2.612   4.890   4.236
 9312TIP3    H227901   2.463   4.859   4.234
 9313TIP3   OH227902   4.063   6.191   0.332
 9313TIP3    H127903   4.129   6.146   0.279
 9313TIP3    H227904   3.996   6.124   0.348
 9314TIP3   OH227905   4.713   2.850   0.981
 9314TIP3    H127906   4.694   2.842   0.887
 9314TIP3    H227907   4.781   2.785   0.997
 9315TIP3   OH227908   5.672   6.822   0.347
 9315TIP3    H127909   5.651   6.769   0.270
 9315TIP3    H227910   5.587   6.840   0.387
 9316TIP3   OH227911   0.471   2.017   1.385
 9316TIP3    H127912   0.466   2.035   1.292
 9316TIP3    H227913   0.506   1.928   1.391
 9317TIP3   OH227914   1.959   1.201   3.388
 9317TIP3    H127915   1.911   1.284   3.391
 9317TIP3    H227916   1.991   1.196   3.298
 9318TIP3   OH227917   6.328   1.703   5.055
 9318TIP3    H127918   6.250   1.749   5.087
 9318TIP3    H227919   6.370   1.766   4.996
 9319TIP3   OH227920   6.818   1.229   5.068
 9319TIP3    H127921   6.777   1.161   5.014
 9319TIP3    H227922   6.748   1.293   5.083
 9320TIP3   OH227923   0.831   1.800   0.145
 9320TIP3    H127924   0.892   1.731   0.120
 9320TIP3    H227925   0.744   1.759   0.139
 9321TIP3   OH227926   0.830   6.056   4.372
 9321TIP3    H127927   0.764   6.060   4.442
 9321TIP3    H227928   0.913   6.062   4.418
 9322TIP3   OH227929   4.527   2.794   3.213
 9322TIP3    H127930   4.501   2.809   3.122
 9322TIP3    H227931   4.480   2.861   3.263
 9323TIP3   OH227932   1.097   4.036   4.321
 9323TIP3    H127933   1.038   4.047   4.247
 9323TIP3    H227934   1.041   4.009   4.393
 9324TIP3   OH227935   6.920   2.545   4.058
 9324TIP3    H127936   6.871   2.617   4.019
 9324TIP3    H227937   6.858   2.473   4.063
 9325TIP3   OH227938   0.295   6.376   1.497
 9325TIP3    H127939   0.284   6.423   1.414
 9325TIP3    H227940   0.212   6.330   1.510
 9326TIP3   OH227941   0.929   0.867   2.034
 9326TIP3    H127942   0.951   0.914   2.114
 9326TIP3    H227943   0.950   0.775   2.053
 9327TIP3   OH227944   0.999   4.180   1.003
 9327TIP3    H127945   1.089   4.151   0.987
 9327TIP3    H227946   0.973   4.222   0.921
 9328TIP3   OH227947   0.057   3.651   3.782
 9328TIP3    H127948   0.101   3.632   3.699
 9328TIP3    H227949  -0.004   3.722   3.761
 9329TIP3   OH227950   3.195   0.460   4.858
 9329TIP3    H127951   3.237   0.433   4.940
 9329TIP3    H227952   3.170   0.551   4.873
 9330TIP3   OH227953   3.224   6.174   4.181
 9330TIP3    H127954   3.247   6.247   4.124
 9330TIP3    H227955   3.132   6.186   4.200
 9331TIP3   OH227956   4.234   5.576   0.565
 9331TIP3    H127957   4.206   5.573   0.473
 9331TIP3    H227958   4.155   5.556   0.614
 9332TIP3   OH227959   6.407   2.523   3.210
 9332TIP3    H127960   6.388   2.502   3.118
 9332TIP3    H227961   6.495   2.490   3.225
 9333TIP3   OH227962   3.592   5.619   2.034
 9333TIP3    H127963   3.496   5.627   2.033
 9333TIP3    H227964   3.616   5.633   2.125
 9334TIP3   OH227965   1.242   3.297   5.432
 9334TIP3    H127966   1.252   3.287   5.337
 9334TIP3    H227967   1.315   3.354   5.458
 9335TIP3   OH227968   7.062   4.951   0.876
 9335TIP3    H127969   7.084   5.036   0.839
 9335TIP3    H227970   6.970   4.938   0.855
 9336TIP3   OH227971   2.645   6.088   4.815
 9336TIP3    H127972   2.594   6.160   4.778
 9336TIP3    H227973   2.732   6.125   4.830
 9337TIP3   OH227974   1.714   1.361   4.816
 9337TIP3    H127975   1.757   1.352   4.731
 9337TIP3    H227976   1.693   1.272   4.843
 9338TIP3   OH227977   5.717   0.049   2.353
 9338TIP3    H127978   5.762   0.031   2.270
 9338TIP3    H227979   5.752   0.133   2.381
 9339TIP3   OH227980   6.323   2.774   0.347
 9339TIP3    H127981   6.346   2.861   0.379
 9339TIP3    H227982   6.402   2.722   0.362
 9340TIP3   OH227983   3.165   1.859   2.864
 9340TIP3    H127984   3.079   1.850   2.824
 9340TIP3    H227985   3.148   1.894   2.951
 9341TIP3   OH227986   3.995   4.428   1.372
 9341TIP3    H127987   4.041   4.473   1.442
 9341TIP3    H227988   4.007   4.484   1.295
 9342TIP3   OH227989   4.270   1.653   5.625
 9342TIP3    H127990   4.215   1.673   5.549
 9342TIP3    H227991   4.286   1.559   5.619
 9343TIP3   OH227992   3.106   1.950   1.364
 9343TIP3    H127993   3.112   1.968   1.458
 9343TIP3    H227994   3.100   1.855   1.357
 9344TIP3   OH227995   1.949   2.491   1.039
 9344TIP3    H127996   1.879   2.556   1.032
 9344TIP3    H227997   2.024   2.539   1.071
 9345TIP3   OH227998   0.102   4.960   3.652
 9345TIP3    H127999   0.028   5.016   3.677
 9345TIP3    H228000   0.141   4.933   3.735
 9346TIP3   OH228001   3.385   0.893   3.166
 9346TIP3    H128002   3.398   0.924   3.077
 9346TIP3    H228003   3.454   0.935   3.217
 9347TIP3   OH228004   0.315   4.985   0.973
 9347TIP3    H128005   0.396   4.935   0.984
 9347TIP3    H228006   0.336   5.072   1.006
 9348TIP3   OH228007   0.431   1.554   4.623
 9348TIP3    H128008   0.406   1.506   4.544
 9348TIP3    H228009   0.348   1.569   4.669
 9349TIP3   OH228010   5.942   2.662   0.111
 9349TIP3    H128011   5.847   2.660   0.121
 9349TIP3    H228012   5.973   2.587   0.162
 9350TIP3   OH228013   3.274   1.344   2.996
 9350TIP3    H128014   3.189   1.361   3.035
 9350TIP3    H228015   3.326   1.422   3.015
 9351TIP3   OH228016   3.137   6.809   4.179
 9351TIP3    H128017   3.120   6.854   4.262
 9351TIP3    H228018   3.121   6.717   4.197
 9352TIP3   OH228019   4.796   2.608   0.277
 9352TIP3    H128020   4.836   2.677   0.225
 9352TIP3    H228021   4.862   2.585   0.343
 9353TIP3   OH228022   0.181   1.885   5.601
 9353TIP3    H128023   0.191   1.980   5.592
 9353TIP3    H228024   0.261   1.848   5.562
 9354TIP3   OH228025   5.526   0.603   4.977
 9354TIP3    H128026   5.589   0.607   4.905
 9354TIP3    H228027   5.545   0.521   5.021
 9355TIP3   OH228028   1.518   6.270   2.991
 9355TIP3    H128029   1.525   6.287   3.085
 9355TIP3    H228030   1.589   6.321   2.952
 9356TIP3   OH228031   1.917   0.204   3.998
 9356TIP3    H128032   1.981   0.172   4.061
 9356TIP3    H228033   1.834   0.202   4.046
 9357TIP3   OH228034   3.334   2.499   1.365
 9357TIP3    H128035   3.281   2.565   1.321
 9357TIP3    H228036   3.283   2.418   1.357
 9358TIP3   OH228037   0.739   1.821   1.794
 9358TIP3    H128038   0.824   1.794   1.759
 9358TIP3    H228039   0.685   1.743   1.789
 9359TIP3   OH228040   4.439   0.066   1.600
 9359TIP3    H128041   4.420   0.056   1.693
 9359TIP3    H228042   4.532   0.046   1.592
 9360TIP3   OH228043   3.685   2.851   2.908
 9360TIP3    H128044   3.594   2.825   2.921
 9360TIP3    H228045   3.731   2.820   2.986
 9361TIP3   OH228046   1.235   3.613   2.494
 9361TIP3    H128047   1.152   3.569   2.473
 9361TIP3    H228048   1.286   3.546   2.540
 9362TIP3   OH228049   3.978   6.014   5.733
 9362TIP3    H128050   4.010   6.035   5.821
 9362TIP3    H228051   3.923   5.936   5.746
 9363TIP3   OH228052   1.001   5.726   1.641
 9363TIP3    H128053   0.911   5.720   1.609
 9363TIP3    H228054   0.993   5.774   1.724
 9364TIP3   OH228055   2.400   0.461   4.173
 9364TIP3    H128056   2.443   0.381   4.201
 9364TIP3    H228057   2.307   0.445   4.188
 9365TIP3   OH228058   1.246   1.795   1.081
 9365TIP3    H128059   1.327   1.751   1.106
 9365TIP3    H228060   1.176   1.738   1.112
 9366TIP3   OH228061   1.704   2.806   3.768
 9366TIP3    H128062   1.726   2.730   3.714
 9366TIP3    H228063   1.719   2.881   3.711
 9367TIP3   OH228064   0.797   6.776   2.710
 9367TIP3    H128065   0.856   6.704   2.732
 9367TIP3    H228066   0.826   6.849   2.765
 9368TIP3   OH228067   3.142   2.802   1.295
 9368TIP3    H128068   3.095   2.885   1.297
 9368TIP3    H228069   3.197   2.807   1.217
 9369TIP3   OH228070   2.124   3.883   3.896
 9369TIP3    H128071   2.130   3.945   3.969
 9369TIP3    H228072   2.215   3.862   3.875
 9370TIP3   OH228073   1.906   0.695   3.318
 9370TIP3    H128074   1.894   0.722   3.408
 9370TIP3    H228075   1.886   0.601   3.318
 9371TIP3   OH228076   7.023   5.779   4.492
 9371TIP3    H128077   6.990   5.778   4.402
 9371TIP3    H228078   7.074   5.859   4.499
 9372TIP3   OH228079   5.404   3.338   3.883
 9372TIP3    H128080   5.492   3.308   3.861
 9372TIP3    H228081   5.400   3.427   3.849
 9373TIP3   OH228082   7.067   0.460   0.249
 9373TIP3    H128083   6.986   0.502   0.220
 9373TIP3    H228084   7.039   0.390   0.307
 9374TIP3   OH228085   3.194   3.699   0.837
 9374TIP3    H128086   3.231   3.667   0.754
 9374TIP3    H228087   3.200   3.794   0.830
 9375TIP3   OH228088   3.818   4.872   5.321
 9375TIP3    H128089   3.831   4.909   5.234
 9375TIP3    H228090   3.800   4.779   5.305
 9376TIP3   OH228091   2.272   4.237   5.424
 9376TIP3    H128092   2.241   4.179   5.493
 9376TIP3    H228093   2.241   4.196   5.343
 9377TIP3   OH228094   4.452   3.336   0.791
 9377TIP3    H128095   4.384   3.273   0.768
 9377TIP3    H228096   4.426   3.417   0.748
 9378TIP3   OH228097   6.872   1.633   5.492
 9378TIP3    H128098   6.889   1.697   5.423
 9378TIP3    H228099   6.909   1.551   5.459
 9379TIP3   OH228100   2.570   5.081   0.076
 9379TIP3    H128101   2.598   5.033  -0.002
 9379TIP3    H228102   2.589   5.023   0.149
 9380TIP3   OH228103   5.822   3.117   1.366
 9380TIP3    H128104   5.871   3.196   1.389
 9380TIP3    H228105   5.732   3.148   1.357
 9381TIP3   OH228106   0.604   5.985   3.271
 9381TIP3    H128107   0.659   6.032   3.208
 9381TIP3    H228108   0.608   5.893   3.243
 9382TIP3   OH228109   5.667   4.692   1.952
 9382TIP3    H128110   5.584   4.650   1.932
 9382TIP3    H228111   5.706   4.710   1.867
 9383TIP3   OH228112   1.970   5.392   1.440
 9383TIP3    H128113   1.998   5.319   1.384
 9383TIP3    H228114   2.036   5.460   1.425
 9384TIP3   OH228115   3.951   3.738   4.225
 9384TIP3    H128116   3.987   3.721   4.138
 9384TIP3    H228117   3.991   3.672   4.282
 9385TIP3   OH228118   6.656   5.852   2.670
 9385TIP3    H128119   6.644   5.759   2.652
 9385TIP3    H228120   6.583   5.894   2.624
 9386TIP3   OH228121   6.387   5.156   3.620
 9386TIP3    H128122   6.369   5.125   3.709
 9386TIP3    H228123   6.423   5.244   3.631
 9387TIP3   OH228124   2.744   2.724   0.290
 9387TIP3    H128125   2.768   2.782   0.218
 9387TIP3    H228126   2.680   2.663   0.252
 9388TIP3   OH228127   1.181   6.440   5.032
 9388TIP3    H128128   1.158   6.354   5.067
 9388TIP3    H228129   1.251   6.423   4.970
 9389TIP3   OH228130   3.231   4.193   4.308
 9389TIP3    H128131   3.235   4.136   4.385
 9389TIP3    H228132   3.294   4.155   4.246
 9390TIP3   OH228133   0.383   3.142   4.779
 9390TIP3    H128134   0.397   3.058   4.823
 9390TIP3    H228135   0.444   3.202   4.821
 9391TIP3   OH228136   0.176   2.912   1.847
 9391TIP3    H128137   0.170   2.989   1.903
 9391TIP3    H228138   0.215   2.945   1.766
 9392TIP3   OH228139   0.261   6.792   3.668
 9392TIP3    H128140   0.246   6.701   3.642
 9392TIP3    H228141   0.195   6.809   3.736
 9393TIP3   OH228142   5.832   0.294   2.405
 9393TIP3    H128143   5.859   0.356   2.338
 9393TIP3    H228144   5.905   0.293   2.467
 9394TIP3   OH228145   5.877   6.019   2.103
 9394TIP3    H128146   5.964   6.006   2.064
 9394TIP3    H228147   5.822   6.042   2.028
 9395TIP3   OH228148   2.453   2.820   2.167
 9395TIP3    H128149   2.504   2.829   2.247
 9395TIP3    H228150   2.481   2.893   2.112
 9396TIP3   OH228151   7.220   1.684   2.205
 9396TIP3    H128152   7.127   1.685   2.180
 9396TIP3    H228153   7.221   1.713   2.296
 9397TIP3   OH228154   1.541   2.832   3.245
 9397TIP3    H128155   1.623   2.852   3.291
 9397TIP3    H228156   1.479   2.897   3.277
 9398TIP3   OH228157   3.806   6.113   2.803
 9398TIP3    H128158   3.818   6.169   2.726
 9398TIP3    H228159   3.712   6.097   2.806
 9399TIP3   OH228160   5.051   6.065   2.379
 9399TIP3    H128161   5.114   6.137   2.369
 9399TIP3    H228162   5.088   5.994   2.326
 9400TIP3   OH228163   6.140   5.869   4.233
 9400TIP3    H128164   6.192   5.802   4.188
 9400TIP3    H228165   6.051   5.857   4.200
 9401TIP3   OH228166   1.048   3.038   0.650
 9401TIP3    H128167   1.011   3.015   0.565
 9401TIP3    H228168   1.090   3.123   0.636
 9402TIP3   OH228169   1.023   2.477   1.826
 9402TIP3    H128170   1.092   2.527   1.870
 9402TIP3    H228171   1.051   2.386   1.833
 9403TIP3   OH228172   1.465   0.402   1.312
 9403TIP3    H128173   1.515   0.465   1.260
 9403TIP3    H228174   1.394   0.374   1.255
 9404TIP3   OH228175   7.274   5.476   3.000
 9404TIP3    H128176   7.326   5.423   2.940
 9404TIP3    H228177   7.183   5.459   2.975
 9405TIP3   OH228178   1.252   1.120   4.159
 9405TIP3    H128179   1.337   1.162   4.176
 9405TIP3    H228180   1.193   1.193   4.139
 9406TIP3   OH228181   6.094   1.090   3.211
 9406TIP3    H128182   6.017   1.133   3.247
 9406TIP3    H228183   6.162   1.158   3.211
 9407TIP3   OH228184   3.998   2.778   4.502
 9407TIP3    H128185   4.011   2.859   4.551
 9407TIP3    H228186   3.919   2.740   4.539
 9408TIP3   OH228187   6.768   1.489   0.343
 9408TIP3    H128188   6.823   1.412   0.327
 9408TIP3    H228189   6.808   1.558   0.290
 9409TIP3   OH228190   5.560   4.599   4.995
 9409TIP3    H128191   5.519   4.525   4.949
 9409TIP3    H228192   5.654   4.585   4.985
 9410TIP3   OH228193   2.780   2.110   2.235
 9410TIP3    H128194   2.769   2.016   2.222
 9410TIP3    H228195   2.772   2.122   2.330
 9411TIP3   OH228196   4.207   6.454   1.418
 9411TIP3    H128197   4.117   6.450   1.385
 9411TIP3    H228198   4.202   6.511   1.494
 9412TIP3   OH228199   6.252   1.329   3.123
 9412TIP3    H128200   6.209   1.411   3.148
 9412TIP3    H228201   6.289   1.347   3.037
 9413TIP3   OH228202   4.176   6.080   3.035
 9413TIP3    H128203   4.141   6.167   3.049
 9413TIP3    H228204   4.255   6.076   3.088
 9414TIP3   OH228205   1.720   2.465   5.205
 9414TIP3    H128206   1.694   2.544   5.254
 9414TIP3    H228207   1.661   2.464   5.130
 9415TIP3   OH228208   3.563   3.090   4.098
 9415TIP3    H128209   3.520   3.159   4.149
 9415TIP3    H228210   3.535   3.107   4.008
 9416TIP3   OH228211   3.538   5.046   2.635
 9416TIP3    H128212   3.471   5.106   2.669
 9416TIP3    H228213   3.568   5.087   2.554
 9417TIP3   OH228214   3.799   3.011   4.467
 9417TIP3    H128215   3.730   3.075   4.483
 9417TIP3    H228216   3.756   2.926   4.482
 9418TIP3   OH228217   1.941   6.018   0.618
 9418TIP3    H128218   2.028   6.030   0.579
 9418TIP3    H228219   1.923   5.925   0.605
 9419TIP3   OH228220   7.107   3.456   4.246
 9419TIP3    H128221   7.146   3.455   4.159
 9419TIP3    H228222   7.020   3.496   4.234
 9420TIP3   OH228223   4.889   4.521   0.087
 9420TIP3    H128224   4.939   4.479   0.157
 9420TIP3    H228225   4.821   4.571   0.133
 9421TIP3   OH228226   1.599   3.212   0.702
 9421TIP3    H128227   1.584   3.288   0.758
 9421TIP3    H228228   1.551   3.141   0.744
 9422TIP3   OH228229   0.575   0.428   2.282
 9422TIP3    H128230   0.595   0.390   2.197
 9422TIP3    H228231   0.486   0.461   2.273
 9423TIP3   OH228232   1.789   5.968   2.969
 9423TIP3    H128233   1.818   6.036   3.030
 9423TIP3    H228234   1.695   5.961   2.984
 9424TIP3   OH228235   3.278   2.981   5.192
 9424TIP3    H128236   3.365   2.987   5.152
 9424TIP3    H228237   3.295   2.981   5.286
 9425TIP3   OH228238   4.898   3.211   1.229
 9425TIP3    H128239   4.895   3.228   1.135
 9425TIP3    H228240   4.811   3.178   1.251
 9426TIP3   OH228241   1.836   4.532   0.334
 9426TIP3    H128242   1.887   4.599   0.288
 9426TIP3    H228243   1.757   4.521   0.282
 9427TIP3   OH228244   6.509   4.102   4.641
 9427TIP3    H128245   6.450   4.050   4.585
 9427TIP3    H228246   6.490   4.193   4.617
 9428TIP3   OH228247   0.837   6.292   1.185
 9428TIP3    H128248   0.908   6.277   1.247
 9428TIP3    H228249   0.860   6.238   1.109
 9429TIP3   OH228250   7.093   2.388   2.169
 9429TIP3    H128251   7.060   2.428   2.250
 9429TIP3    H228252   7.023   2.404   2.105
 9430TIP3   OH228253   3.411   5.892   4.435
 9430TIP3    H128254   3.350   5.897   4.509
 9430TIP3    H228255   3.354   5.882   4.359
 9431TIP3   OH228256   3.455   5.115   4.158
 9431TIP3    H128257   3.416   5.099   4.244
 9431TIP3    H228258   3.392   5.169   4.112
 9432TIP3   OH228259   3.649   0.261   5.788
 9432TIP3    H128260   3.591   0.184   5.788
 9432TIP3    H228261   3.640   0.297   5.877
 9433TIP3   OH228262   5.284   6.361   0.109
 9433TIP3    H128263   5.354   6.363   0.044
 9433TIP3    H228264   5.292   6.275   0.150
 9434TIP3   OH228265   7.181   5.277   4.366
 9434TIP3    H128266   7.245   5.247   4.431
 9434TIP3    H228267   7.162   5.368   4.391
 9435TIP3   OH228268   1.663   4.184   3.306
 9435TIP3    H128269   1.748   4.156   3.340
 9435TIP3    H228270   1.665   4.162   3.213
 9436TIP3   OH228271   1.192   3.016   1.472
 9436TIP3    H128272   1.237   3.094   1.439
 9436TIP3    H228273   1.145   2.982   1.396
 9437TIP3   OH228274   1.758   2.602   0.552
 9437TIP3    H128275   1.784   2.686   0.514
 9437TIP3    H228276   1.662   2.601   0.544
 9438TIP3   OH228277   4.218   0.040   4.904
 9438TIP3    H128278   4.181  -0.034   4.952
 9438TIP3    H228279   4.142   0.090   4.874
 9439TIP3   OH228280   1.532   1.978   1.791
 9439TIP3    H128281   1.619   2.009   1.817
 9439TIP3    H228282   1.482   1.975   1.873
 9440TIP3   OH228283   3.110   6.247   3.003
 9440TIP3    H128284   3.029   6.295   3.018
 9440TIP3    H228285   3.172   6.314   2.974
 9441TIP3   OH228286   3.820   5.586   0.955
 9441TIP3    H128287   3.907   5.599   0.918
 9441TIP3    H228288   3.833   5.524   1.027
 9442TIP3   OH228289   0.653   4.283   0.703
 9442TIP3    H128290   0.599   4.312   0.629
 9442TIP3    H228291   0.704   4.210   0.668
 9443TIP3   OH228292   3.491   4.790   0.389
 9443TIP3    H128293   3.451   4.755   0.469
 9443TIP3    H228294   3.582   4.761   0.393
 9444TIP3   OH228295   6.399   0.460   0.376
 9444TIP3    H128296   6.366   0.378   0.341
 9444TIP3    H228297   6.444   0.435   0.457
 9445TIP3   OH228298   6.667   0.516   2.211
 9445TIP3    H128299   6.607   0.590   2.203
 9445TIP3    H228300   6.658   0.469   2.128
 9446TIP3   OH228301   6.604   0.184   4.522
 9446TIP3    H128302   6.602   0.236   4.603
 9446TIP3    H228303   6.635   0.097   4.551
 9447TIP3   OH228304   3.788   5.029   2.752
 9447TIP3    H128305   3.746   5.100   2.802
 9447TIP3    H228306   3.715   4.979   2.716
 9448TIP3   OH228307   5.651   2.027   2.265
 9448TIP3    H128308   5.688   1.984   2.342
 9448TIP3    H228309   5.557   2.007   2.269
 9449TIP3   OH228310   3.394   1.846   5.473
 9449TIP3    H128311   3.426   1.915   5.532
 9449TIP3    H228312   3.383   1.770   5.530
 9450TIP3   OH228313   6.659   1.178   4.372
 9450TIP3    H128314   6.642   1.205   4.463
 9450TIP3    H228315   6.582   1.207   4.324
 9451TIP3   OH228316   6.286   5.467   2.044
 9451TIP3    H128317   6.329   5.464   2.130
 9451TIP3    H228318   6.322   5.392   1.997
 9452TIP3   OH228319   4.963   1.360   5.567
 9452TIP3    H128320   4.949   1.313   5.485
 9452TIP3    H228321   4.959   1.292   5.634
 9453TIP3   OH228322   3.878   1.994   4.382
 9453TIP3    H128323   3.910   2.076   4.421
 9453TIP3    H228324   3.870   1.934   4.456
 9454TIP3   OH228325   6.167   1.859   4.311
 9454TIP3    H128326   6.113   1.920   4.261
 9454TIP3    H228327   6.152   1.883   4.402
 9455TIP3   OH228328   6.900   1.511   4.538
 9455TIP3    H128329   6.942   1.543   4.458
 9455TIP3    H228330   6.818   1.561   4.543
 9456TIP3   OH228331   5.430   4.600   1.917
 9456TIP3    H128332   5.383   4.629   1.995
 9456TIP3    H228333   5.391   4.651   1.846
 9457TIP3   OH228334   6.724   6.654   4.023
 9457TIP3    H128335   6.792   6.674   4.088
 9457TIP3    H228336   6.727   6.728   3.963
 9458TIP3   OH228337   5.782   5.318   5.469
 9458TIP3    H128338   5.725   5.349   5.398
 9458TIP3    H228339   5.847   5.387   5.479
 9459TIP3   OH228340   4.737   2.131   4.271
 9459TIP3    H128341   4.798   2.184   4.219
 9459TIP3    H228342   4.782   2.047   4.281
 9460TIP3   OH228343   2.549   4.334   3.034
 9460TIP3    H128344   2.577   4.361   3.121
 9460TIP3    H228345   2.491   4.404   3.004
 9461TIP3   OH228346   3.900   2.269   4.680
 9461TIP3    H128347   3.979   2.245   4.728
 9461TIP3    H228348   3.923   2.259   4.588
 9462TIP3   OH228349   0.150   3.684   5.853
 9462TIP3    H128350   0.060   3.650   5.845
 9462TIP3    H228351   0.139   3.776   5.875
 9463TIP3   OH228352   1.683   0.778   2.143
 9463TIP3    H128353   1.764   0.748   2.101
 9463TIP3    H228354   1.701   0.770   2.237
 9464TIP3   OH228355   3.132   0.797   2.961
 9464TIP3    H128356   3.146   0.705   2.981
 9464TIP3    H228357   3.210   0.824   2.913
 9465TIP3   OH228358   5.587   0.251   3.623
 9465TIP3    H128359   5.525   0.215   3.687
 9465TIP3    H228360   5.556   0.341   3.609
 9466TIP3   OH228361   1.109   5.903   2.059
 9466TIP3    H128362   1.184   5.891   2.001
 9466TIP3    H228363   1.127   5.984   2.106
 9467TIP3   OH228364   7.085   0.675   2.796
 9467TIP3    H128365   7.067   0.728   2.718
 9467TIP3    H228366   7.145   0.608   2.766
 9468TIP3   OH228367   5.248   0.963   2.418
 9468TIP3    H128368   5.233   0.930   2.507
 9468TIP3    H228369   5.305   0.898   2.378
 9469TIP3   OH228370   3.464   1.672   2.423
 9469TIP3    H128371   3.559   1.666   2.406
 9469TIP3    H228372   3.440   1.760   2.393
 9470TIP3   OH228373   3.799   2.007   5.763
 9470TIP3    H128374   3.711   1.970   5.753
 9470TIP3    H228375   3.785   2.091   5.808
 9471TIP3   OH228376   6.810   1.200   2.999
 9471TIP3    H128377   6.865   1.178   3.074
 9471TIP3    H228378   6.783   1.116   2.963
 9472TIP3   OH228379   0.751   3.467   0.627
 9472TIP3    H128380   0.826   3.409   0.609
 9472TIP3    H228381   0.674   3.412   0.612
 9473TIP3   OH228382   5.912   4.673   3.981
 9473TIP3    H128383   5.832   4.641   3.940
 9473TIP3    H228384   5.931   4.755   3.936
 9474TIP3   OH228385   0.018   3.697   1.379
 9474TIP3    H128386   0.098   3.749   1.389
 9474TIP3    H228387  -0.050   3.748   1.423
 9475TIP3   OH228388   6.702   6.468   3.589
 9475TIP3    H128389   6.611   6.476   3.560
 9475TIP3    H228390   6.747   6.540   3.545
 9476TIP3   OH228391   3.388   5.972   0.018
 9476TIP3    H128392   3.312   5.916   0.004
 9476TIP3    H228393   3.434   5.933   0.092
 9477TIP3   OH228394   3.576   1.814   3.245
 9477TIP3    H128395   3.568   1.909   3.255
 9477TIP3    H228396   3.606   1.801   3.155
 9478TIP3   OH228397   0.671   1.758   3.180
 9478TIP3    H128398   0.673   1.819   3.107
 9478TIP3    H228399   0.660   1.672   3.140
 9479TIP3   OH228400   4.166   0.331   0.326
 9479TIP3    H128401   4.166   0.412   0.276
 9479TIP3    H228402   4.074   0.317   0.350
 9480TIP3   OH228403   5.759   5.830   2.558
 9480TIP3    H128404   5.764   5.909   2.612
 9480TIP3    H228405   5.773   5.861   2.468
 9481TIP3   OH228406   0.840   0.919   1.291
 9481TIP3    H128407   0.928   0.915   1.255
 9481TIP3    H228408   0.793   0.846   1.249
 9482TIP3   OH228409   6.885   1.755   0.376
 9482TIP3    H128410   6.977   1.773   0.357
 9482TIP3    H228411   6.847   1.841   0.394
 9483TIP3   OH228412   3.085   2.085   0.267
 9483TIP3    H128413   3.176   2.056   0.259
 9483TIP3    H228414   3.043   2.053   0.188
 9484TIP3   OH228415   2.565   2.628   2.008
 9484TIP3    H128416   2.520   2.705   2.041
 9484TIP3    H228417   2.655   2.638   2.039
 9485TIP3   OH228418   3.183   2.826   2.114
 9485TIP3    H128419   3.275   2.814   2.092
 9485TIP3    H228420   3.136   2.807   2.033
 9486TIP3   OH228421   3.163   4.766   0.403
 9486TIP3    H128422   3.090   4.707   0.421
 9486TIP3    H228423   3.234   4.735   0.459
 9487TIP3   OH228424   2.298   6.534   0.339
 9487TIP3    H128425   2.260   6.618   0.366
 9487TIP3    H228426   2.335   6.498   0.419
 9488TIP3   OH228427   3.291   0.530   0.294
 9488TIP3    H128428   3.291   0.557   0.202
 9488TIP3    H228429   3.203   0.551   0.325
 9489TIP3   OH228430   1.864   6.617   0.964
 9489TIP3    H128431   1.809   6.580   1.034
 9489TIP3    H228432   1.952   6.586   0.984
 9490TIP3   OH228433   6.581   6.038   2.292
 9490TIP3    H128434   6.664   6.000   2.263
 9490TIP3    H228435   6.533   6.054   2.211
 9491TIP3   OH228436   1.332   0.224   4.438
 9491TIP3    H128437   1.384   0.277   4.377
 9491TIP3    H228438   1.397   0.184   4.497
 9492TIP3   OH228439   5.938   4.206   2.558
 9492TIP3    H128440   5.867   4.176   2.615
 9492TIP3    H228441   5.928   4.301   2.556
 9493TIP3   OH228442   3.654   2.838   4.152
 9493TIP3    H128443   3.596   2.792   4.213
 9493TIP3    H228444   3.617   2.926   4.145
 9494TIP3   OH228445   0.797   6.692   0.342
 9494TIP3    H128446   0.825   6.620   0.398
 9494TIP3    H228447   0.766   6.649   0.262
 9495TIP3   OH228448   0.858   3.315   1.090
 9495TIP3    H128449   0.921   3.244   1.075
 9495TIP3    H228450   0.772   3.273   1.081
 9496TIP3   OH228451   5.800   1.477   4.017
 9496TIP3    H128452   5.863   1.417   3.976
 9496TIP3    H228453   5.719   1.464   3.967
 9497TIP3   OH228454   1.443   0.651   1.900
 9497TIP3    H128455   1.351   0.658   1.925
 9497TIP3    H228456   1.488   0.720   1.949
 9498TIP3   OH228457   4.720   5.624   0.707
 9498TIP3    H128458   4.672   5.594   0.630
 9498TIP3    H228459   4.795   5.672   0.672
 9499TIP3   OH228460   6.169   1.246   3.990
 9499TIP3    H128461   6.192   1.179   4.055
 9499TIP3    H228462   6.212   1.325   4.022
 9500TIP3   OH228463   3.330   6.696   5.507
 9500TIP3    H128464   3.394   6.709   5.437
 9500TIP3    H228465   3.371   6.632   5.565
 9501TIP3   OH228466   0.481   5.193   3.799
 9501TIP3    H128467   0.500   5.263   3.862
 9501TIP3    H228468   0.391   5.209   3.772
 9502TIP3   OH228469   3.978   4.527   5.559
 9502TIP3    H128470   3.887   4.511   5.582
 9502TIP3    H228471   3.992   4.620   5.579
 9503TIP3   OH228472   2.999   6.323   5.453
 9503TIP3    H128473   3.071   6.265   5.478
 9503TIP3    H228474   3.037   6.382   5.388
 9504TIP3   OH228475   0.457   2.878   5.121
 9504TIP3    H128476   0.407   2.818   5.176
 9504TIP3    H228477   0.408   2.882   5.039
 9505TIP3   OH228478   2.282   2.261   2.117
 9505TIP3    H128479   2.216   2.217   2.064
 9505TIP3    H228480   2.361   2.208   2.106
 9506TIP3   OH228481   2.514   5.665   3.931
 9506TIP3    H128482   2.420   5.673   3.952
 9506TIP3    H228483   2.518   5.668   3.836
 9507TIP3   OH228484   2.305   5.087   3.355
 9507TIP3    H128485   2.269   5.168   3.391
 9507TIP3    H228486   2.396   5.085   3.386
 9508TIP3   OH228487   6.233   3.862   2.008
 9508TIP3    H128488   6.294   3.910   2.063
 9508TIP3    H228489   6.248   3.770   2.030
 9509TIP3   OH228490   1.084   2.662   0.729
 9509TIP3    H128491   0.993   2.642   0.750
 9509TIP3    H228492   1.131   2.580   0.743
 9510TIP3   OH228493   4.158   3.268   5.609
 9510TIP3    H128494   4.223   3.254   5.540
 9510TIP3    H228495   4.178   3.202   5.675
 9511TIP3   OH228496   2.266   5.346   2.336
 9511TIP3    H128497   2.286   5.254   2.321
 9511TIP3    H228498   2.175   5.347   2.365
 9512TIP3   OH228499   2.576   4.228   1.694
 9512TIP3    H128500   2.556   4.268   1.779
 9512TIP3    H228501   2.503   4.168   1.679
 9513TIP3   OH228502   7.115   6.081   4.771
 9513TIP3    H128503   7.191   6.114   4.819
 9513TIP3    H228504   7.078   6.159   4.728
 9514TIP3   OH228505   4.190   5.945   4.158
 9514TIP3    H128506   4.275   5.952   4.114
 9514TIP3    H228507   4.128   5.926   4.088
 9515TIP3   OH228508   3.590   2.597   3.196
 9515TIP3    H128509   3.510   2.648   3.205
 9515TIP3    H228510   3.574   2.537   3.123
 9516TIP3   OH228511   6.285   4.807   4.100
 9516TIP3    H128512   6.379   4.794   4.093
 9516TIP3    H228513   6.261   4.854   4.019
 9517TIP3   OH228514   2.120   6.494   5.786
 9517TIP3    H128515   2.169   6.412   5.801
 9517TIP3    H228516   2.091   6.488   5.695
 9518TIP3   OH228517   5.369   2.168   3.710
 9518TIP3    H128518   5.395   2.087   3.667
 9518TIP3    H228519   5.381   2.151   3.804
 9519TIP3   OH228520   4.071   2.961   0.628
 9519TIP3    H128521   4.030   2.889   0.677
 9519TIP3    H228522   4.019   2.968   0.548
 9520TIP3   OH228523   0.437   3.420   5.687
 9520TIP3    H128524   0.403   3.331   5.679
 9520TIP3    H228525   0.504   3.426   5.620
 9521TIP3   OH228526   4.804   2.769   4.589
 9521TIP3    H128527   4.823   2.863   4.582
 9521TIP3    H228528   4.857   2.729   4.521
 9522TIP3   OH228529   5.100   3.945   0.512
 9522TIP3    H128530   5.141   3.859   0.517
 9522TIP3    H228531   5.126   3.989   0.593
 9523TIP3   OH228532   0.626   2.693   2.572
 9523TIP3    H128533   0.554   2.750   2.544
 9523TIP3    H228534   0.633   2.708   2.666
 9524TIP3   OH228535   6.381   3.417   1.190
 9524TIP3    H128536   6.374   3.513   1.188
 9524TIP3    H228537   6.420   3.398   1.276
 9525TIP3   OH228538   3.415   0.089   0.685
 9525TIP3    H128539   3.433   0.117   0.595
 9525TIP3    H228540   3.498   0.101   0.731
 9526TIP3   OH228541   1.564   3.115   2.553
 9526TIP3    H128542   1.493   3.149   2.607
 9526TIP3    H228543   1.627   3.186   2.548
 9527TIP3   OH228544   1.034   3.448   2.456
 9527TIP3    H128545   0.954   3.485   2.493
 9527TIP3    H228546   1.047   3.367   2.505
 9528TIP3   OH228547   1.501   0.452   5.382
 9528TIP3    H128548   1.564   0.393   5.340
 9528TIP3    H228549   1.444   0.481   5.312
 9529TIP3   OH228550   4.366   4.827   0.012
 9529TIP3    H128551   4.325   4.841   0.098
 9529TIP3    H228552   4.413   4.744   0.022
 9530TIP3   OH228553   6.110   6.096   0.174
 9530TIP3    H128554   6.096   6.188   0.194
 9530TIP3    H228555   6.091   6.050   0.256
 9531TIP3   OH228556   7.188   6.360   2.700
 9531TIP3    H128557   7.108   6.407   2.675
 9531TIP3    H228558   7.184   6.357   2.796
 9532TIP3   OH228559   5.012   3.761   0.855
 9532TIP3    H128560   4.981   3.844   0.893
 9532TIP3    H228561   4.975   3.694   0.913
 9533TIP3   OH228562   3.804   4.233   3.955
 9533TIP3    H128563   3.722   4.280   3.964
 9533TIP3    H228564   3.872   4.301   3.963
 9534TIP3   OH228565   2.187   2.219   4.332
 9534TIP3    H128566   2.221   2.145   4.281
 9534TIP3    H228567   2.260   2.280   4.337
 9535TIP3   OH228568   3.817   2.360   2.537
 9535TIP3    H128569   3.794   2.374   2.446
 9535TIP3    H228570   3.912   2.374   2.540
 9536TIP3   OH228571   5.652   0.236   2.938
 9536TIP3    H128572   5.684   0.323   2.915
 9536TIP3    H228573   5.687   0.179   2.870
 9537TIP3   OH228574   2.362   3.499   1.969
 9537TIP3    H128575   2.381   3.420   1.918
 9537TIP3    H228576   2.442   3.550   1.964
 9538TIP3   OH228577   6.781   5.710   1.435
 9538TIP3    H128578   6.853   5.698   1.497
 9538TIP3    H228579   6.817   5.683   1.351
 9539TIP3   OH228580   0.400   2.785   1.973
 9539TIP3    H128581   0.309   2.796   1.945
 9539TIP3    H228582   0.394   2.737   2.056
 9540TIP3   OH228583   6.434   0.424   4.945
 9540TIP3    H128584   6.370   0.474   4.895
 9540TIP3    H228585   6.492   0.491   4.982
 9541TIP3   OH228586   5.880   5.220   2.934
 9541TIP3    H128587   5.822   5.203   2.860
 9541TIP3    H228588   5.835   5.180   3.009
 9542TIP3   OH228589   5.292   0.884   0.044
 9542TIP3    H128590   5.327   0.852   0.127
 9542TIP3    H228591   5.260   0.972   0.064
 9543TIP3   OH228592   6.703   5.847   3.019
 9543TIP3    H128593   6.745   5.769   2.983
 9543TIP3    H228594   6.752   5.920   2.982
 9544TIP3   OH228595   4.807   5.355   0.852
 9544TIP3    H128596   4.813   5.386   0.761
 9544TIP3    H228597   4.752   5.420   0.895
 9545TIP3   OH228598   1.527   6.580   1.425
 9545TIP3    H128599   1.503   6.646   1.359
 9545TIP3    H228600   1.576   6.514   1.376
 9546TIP3   OH228601   4.054   1.130   2.400
 9546TIP3    H128602   4.011   1.101   2.481
 9546TIP3    H228603   4.070   1.050   2.351
 9547TIP3   OH228604   1.759   3.303   1.887
 9547TIP3    H128605   1.747   3.252   1.807
 9547TIP3    H228606   1.852   3.292   1.909
 9548TIP3   OH228607   3.155   3.612   2.659
 9548TIP3    H128608   3.162   3.571   2.745
 9548TIP3    H228609   3.095   3.685   2.673
 9549TIP3   OH228610   2.479   2.884   1.538
 9549TIP3    H128611   2.427   2.935   1.600
 9549TIP3    H228612   2.497   2.944   1.466
 9550TIP3   OH228613   0.636   0.072   5.758
 9550TIP3    H128614   0.585   0.123   5.694
 9550TIP3    H228615   0.584  -0.006   5.773
 9551TIP3   OH228616   1.117   1.083   1.478
 9551TIP3    H128617   1.153   1.067   1.391
 9551TIP3    H228618   1.091   0.997   1.510
 9552TIP3   OH228619   2.904   6.243   4.828
 9552TIP3    H128620   2.874   6.252   4.738
 9552TIP3    H228621   2.855   6.308   4.878
 9553TIP3   OH228622   1.960   2.564   0.197
 9553TIP3    H128623   1.944   2.470   0.198
 9553TIP3    H228624   1.900   2.598   0.130
 9554TIP3   OH228625   6.361   4.504   1.374
 9554TIP3    H128626   6.321   4.585   1.405
 9554TIP3    H228627   6.341   4.440   1.442
 9555TIP3   OH228628   5.269   1.839   2.699
 9555TIP3    H128629   5.175   1.825   2.710
 9555TIP3    H228630   5.301   1.756   2.663
 9556TIP3   OH228631   5.630   0.131   0.157
 9556TIP3    H128632   5.653   0.039   0.140
 9556TIP3    H228633   5.626   0.171   0.071
 9557TIP3   OH228634   0.979   6.631   1.921
 9557TIP3    H128635   1.057   6.609   1.972
 9557TIP3    H228636   0.989   6.724   1.900
 9558TIP3   OH228637   4.853   0.973   0.327
 9558TIP3    H128638   4.795   1.032   0.279
 9558TIP3    H228639   4.908   0.932   0.260
 9559TIP3   OH228640   6.501   0.320   1.096
 9559TIP3    H128641   6.424   0.359   1.137
 9559TIP3    H228642   6.522   0.378   1.023
 9560TIP3   OH228643   7.031   5.143   2.890
 9560TIP3    H128644   7.067   5.223   2.852
 9560TIP3    H228645   7.042   5.077   2.820
 9561TIP3   OH228646   6.747   1.562   3.783
 9561TIP3    H128647   6.840   1.546   3.792
 9561TIP3    H228648   6.705   1.478   3.799
 9562TIP3   OH228649   4.290   4.449   5.487
 9562TIP3    H128650   4.206   4.494   5.476
 9562TIP3    H228651   4.348   4.517   5.523
 9563TIP3   OH228652   5.404   3.986   2.860
 9563TIP3    H128653   5.467   3.914   2.859
 9563TIP3    H228654   5.456   4.065   2.844
 9564TIP3   OH228655   5.518   1.550   5.628
 9564TIP3    H128656   5.429   1.546   5.664
 9564TIP3    H228657   5.506   1.584   5.539
 9565TIP3   OH228658   3.946   5.973   3.318
 9565TIP3    H128659   3.935   5.951   3.226
 9565TIP3    H228660   3.885   6.045   3.333
 9566TIP3   OH228661   1.441   2.646   4.785
 9566TIP3    H128662   1.368   2.676   4.838
 9566TIP3    H228663   1.461   2.720   4.727
 9567TIP3   OH228664   5.151   2.609   1.453
 9567TIP3    H128665   5.216   2.539   1.438
 9567TIP3    H228666   5.203   2.689   1.452
 9568TIP3   OH228667   3.192   3.749   2.982
 9568TIP3    H128668   3.190   3.667   3.030
 9568TIP3    H228669   3.100   3.770   2.965
 9569TIP3   OH228670   1.024   0.826   3.490
 9569TIP3    H128671   0.949   0.775   3.521
 9569TIP3    H228672   1.093   0.761   3.476
 9570TIP3   OH228673   0.112   5.104   3.405
 9570TIP3    H128674   0.100   5.194   3.435
 9570TIP3    H228675   0.095   5.051   3.483
 9571TIP3   OH228676   6.150   5.834   2.518
 9571TIP3    H128677   6.129   5.918   2.477
 9571TIP3    H228678   6.135   5.770   2.448
 9572TIP3   OH228679   6.722   4.271   1.302
 9572TIP3    H128680   6.789   4.213   1.264
 9572TIP3    H228681   6.651   4.270   1.237
 9573TIP3   OH228682   0.145   0.934   4.113
 9573TIP3    H128683   0.225   0.986   4.108
 9573TIP3    H228684   0.075   0.998   4.125
 9574TIP3   OH228685   5.604   6.156   3.486
 9574TIP3    H128686   5.553   6.233   3.462
 9574TIP3    H228687   5.687   6.191   3.519
 9575TIP3   OH228688   4.913   2.334   2.868
 9575TIP3    H128689   4.856   2.257   2.870
 9575TIP3    H228690   5.001   2.299   2.878
 9576TIP3   OH228691   1.219   6.678   3.321
 9576TIP3    H128692   1.312   6.666   3.301
 9576TIP3    H228693   1.190   6.748   3.262
 9577TIP3   OH228694   2.097   1.280   2.082
 9577TIP3    H128695   2.150   1.336   2.139
 9577TIP3    H228696   2.011   1.321   2.082
 9578TIP3   OH228697   0.425   5.745   4.561
 9578TIP3    H128698   0.428   5.794   4.643
 9578TIP3    H228699   0.332   5.748   4.535
 9579TIP3   OH228700   3.145   2.100   4.557
 9579TIP3    H128701   3.192   2.017   4.548
 9579TIP3    H228702   3.106   2.097   4.644
 9580TIP3   OH228703   2.186   3.526   3.938
 9580TIP3    H128704   2.240   3.530   4.016
 9580TIP3    H228705   2.225   3.457   3.885
 9581TIP3   OH228706   2.565   6.654   1.633
 9581TIP3    H128707   2.470   6.645   1.629
 9581TIP3    H228708   2.579   6.728   1.693
 9582TIP3   OH228709   4.743   2.249   3.936
 9582TIP3    H128710   4.801   2.175   3.924
 9582TIP3    H228711   4.655   2.212   3.931
 9583TIP3   OH228712   4.080   1.321   4.993
 9583TIP3    H128713   4.125   1.241   5.023
 9583TIP3    H228714   4.139   1.358   4.927
 9584TIP3   OH228715   0.849   0.370   4.556
 9584TIP3    H128716   0.847   0.279   4.586
 9584TIP3    H228717   0.924   0.373   4.496
 9585TIP3   OH228718   5.248   6.489   3.510
 9585TIP3    H128719   5.264   6.457   3.599
 9585TIP3    H228720   5.212   6.577   3.523
 9586TIP3   OH228721   3.746   2.713   0.486
 9586TIP3    H128722   3.742   2.681   0.576
 9586TIP3    H228723   3.696   2.649   0.435
 9587TIP3   OH228724   7.104   2.150   1.405
 9587TIP3    H128725   7.122   2.200   1.484
 9587TIP3    H228726   7.142   2.064   1.422
 9588TIP3   OH228727   2.273   0.031   1.168
 9588TIP3    H128728   2.288   0.065   1.256
 9588TIP3    H228729   2.347  -0.028   1.153
 9589TIP3   OH228730   5.051   1.701   0.174
 9589TIP3    H128731   5.085   1.758   0.243
 9589TIP3    H228732   4.967   1.740   0.149
 9590TIP3   OH228733   2.687   3.719   3.405
 9590TIP3    H128734   2.762   3.720   3.346
 9590TIP3    H228735   2.625   3.660   3.364
 9591TIP3   OH228736   6.253   1.418   5.633
 9591TIP3    H128737   6.184   1.471   5.674
 9591TIP3    H228738   6.333   1.470   5.644
 9592TIP3   OH228739   5.183   5.616   2.129
 9592TIP3    H128740   5.192   5.646   2.039
 9592TIP3    H228741   5.209   5.691   2.182
 9593TIP3   OH228742   6.882   2.804   0.247
 9593TIP3    H128743   6.977   2.810   0.239
 9593TIP3    H228744   6.849   2.880   0.199
 9594TIP3   OH228745   5.784   0.868   1.372
 9594TIP3    H128746   5.707   0.873   1.430
 9594TIP3    H228747   5.843   0.935   1.405
 9595TIP3   OH228748   6.096   1.829   5.146
 9595TIP3    H128749   6.054   1.846   5.231
 9595TIP3    H228750   6.039   1.767   5.102
 9596TIP3   OH228751   5.789   2.212   2.110
 9596TIP3    H128752   5.719   2.171   2.161
 9596TIP3    H228753   5.839   2.262   2.174
 9597TIP3   OH228754   2.172   2.509   1.920
 9597TIP3    H128755   2.132   2.561   1.989
 9597TIP3    H228756   2.213   2.436   1.965
 9598TIP3   OH228757   0.606   4.270   1.852
 9598TIP3    H128758   0.550   4.340   1.888
 9598TIP3    H228759   0.622   4.297   1.762
 9599TIP3   OH228760   3.124   5.246   4.876
 9599TIP3    H128761   3.136   5.151   4.875
 9599TIP3    H228762   3.105   5.269   4.786
 9600TIP3   OH228763   0.957   5.447   4.541
 9600TIP3    H128764   1.025   5.461   4.606
 9600TIP3    H228765   1.001   5.404   4.468
 9601TIP3   OH228766   5.440   4.346   2.122
 9601TIP3    H128767   5.482   4.262   2.101
 9601TIP3    H228768   5.494   4.412   2.078
 9602TIP3   OH228769   5.835   1.640   1.290
 9602TIP3    H128770   5.746   1.654   1.323
 9602TIP3    H228771   5.837   1.547   1.267
 9603TIP3   OH228772   3.850   6.423   4.446
 9603TIP3    H128773   3.777   6.438   4.506
 9603TIP3    H228774   3.816   6.357   4.384
 9604TIP3   OH228775   2.115   2.487   5.271
 9604TIP3    H128776   2.042   2.444   5.314
 9604TIP3    H228777   2.188   2.426   5.280
 9605TIP3   OH228778   1.951   5.237   5.749
 9605TIP3    H128779   1.922   5.210   5.836
 9605TIP3    H228780   1.913   5.171   5.690
 9606TIP3   OH228781   1.651   0.752   5.221
 9606TIP3    H128782   1.633   0.749   5.127
 9606TIP3    H228783   1.691   0.667   5.241
 9607TIP3   OH228784   0.206   2.944   5.531
 9607TIP3    H128785   0.210   2.865   5.585
 9607TIP3    H228786   0.151   3.005   5.581
 9608TIP3   OH228787   6.543   6.285   0.098
 9608TIP3    H128788   6.590   6.217   0.148
 9608TIP3    H228789   6.480   6.321   0.160
 9609TIP3   OH228790   2.640   0.025   2.257
 9609TIP3    H128791   2.707   0.093   2.249
 9609TIP3    H228792   2.641   0.002   2.350
 9610TIP3   OH228793   2.169   3.389   2.394
 9610TIP3    H128794   2.145   3.481   2.408
 9610TIP3    H228795   2.086   3.342   2.400
 9611TIP3   OH228796   3.556   1.398   3.245
 9611TIP3    H128797   3.521   1.310   3.256
 9611TIP3    H228798   3.612   1.411   3.321
 9612TIP3   OH228799   5.461   4.251   4.242
 9612TIP3    H128800   5.527   4.193   4.281
 9612TIP3    H228801   5.432   4.204   4.164
 9613TIP3   OH228802   4.567   5.575   1.525
 9613TIP3    H128803   4.547   5.536   1.610
 9613TIP3    H228804   4.645   5.527   1.495
 9614TIP3   OH228805   2.369   5.044   2.298
 9614TIP3    H128806   2.440   5.063   2.358
 9614TIP3    H228807   2.297   5.014   2.354
 9615TIP3   OH228808   3.539   1.319   1.186
 9615TIP3    H128809   3.604   1.388   1.197
 9615TIP3    H228810   3.513   1.297   1.275
 9616TIP3   OH228811   4.756   2.342   3.431
 9616TIP3    H128812   4.743   2.404   3.359
 9616TIP3    H228813   4.678   2.352   3.486
 9617TIP3   OH228814   4.176   0.961   1.243
 9617TIP3    H128815   4.194   0.869   1.226
 9617TIP3    H228816   4.093   0.978   1.199
 9618TIP3   OH228817   5.168   2.139   4.696
 9618TIP3    H128818   5.129   2.109   4.778
 9618TIP3    H228819   5.107   2.204   4.662
 9619TIP3   OH228820   4.908   2.673   1.352
 9619TIP3    H128821   4.964   2.664   1.429
 9619TIP3    H228822   4.956   2.732   1.294
 9620TIP3   OH228823   5.247   5.699   4.862
 9620TIP3    H128824   5.178   5.635   4.873
 9620TIP3    H228825   5.267   5.729   4.951
 9621TIP3   OH228826   4.058   6.464   4.693
 9621TIP3    H128827   3.969   6.434   4.678
 9621TIP3    H228828   4.108   6.385   4.713
 9622TIP3   OH228829   0.854   3.573   2.123
 9622TIP3    H128830   0.859   3.654   2.173
 9622TIP3    H228831   0.939   3.530   2.139
 9623TIP3   OH228832   5.385   0.465   3.866
 9623TIP3    H128833   5.448   0.535   3.883
 9623TIP3    H228834   5.415   0.391   3.920
 9624TIP3   OH228835   3.827   1.071   0.764
 9624TIP3    H128836   3.817   1.015   0.840
 9624TIP3    H228837   3.888   1.024   0.707
 9625TIP3   OH228838   6.556   4.890   3.791
 9625TIP3    H128839   6.571   4.796   3.803
 9625TIP3    H228840   6.461   4.897   3.778
 9626TIP3   OH228841   4.335   5.444   3.574
 9626TIP3    H128842   4.340   5.368   3.632
 9626TIP3    H228843   4.411   5.435   3.517
 9627TIP3   OH228844   4.438   1.284   0.769
 9627TIP3    H128845   4.469   1.241   0.849
 9627TIP3    H228846   4.346   1.259   0.763
 9628TIP3   OH228847   3.664   3.379   1.430
 9628TIP3    H128848   3.699   3.468   1.433
 9628TIP3    H228849   3.571   3.391   1.412
 9629TIP3   OH228850   4.512   6.140   4.514
 9629TIP3    H128851   4.551   6.065   4.469
 9629TIP3    H228852   4.580   6.208   4.510
 9630TIP3   OH228853   6.682   5.290   0.066
 9630TIP3    H128854   6.688   5.340  -0.015
 9630TIP3    H228855   6.619   5.220   0.046
 9631TIP3   OH228856   1.064   5.795   5.812
 9631TIP3    H128857   0.969   5.806   5.813
 9631TIP3    H228858   1.093   5.827   5.897
 9632TIP3   OH228859   5.471   6.295   1.822
 9632TIP3    H128860   5.548   6.352   1.819
 9632TIP3    H228861   5.398   6.354   1.843
 9633TIP3   OH228862   0.644   5.004   3.525
 9633TIP3    H128863   0.594   4.925   3.507
 9633TIP3    H228864   0.594   5.074   3.484
 9634TIP3   OH228865   5.604   5.356   4.838
 9634TIP3    H128866   5.558   5.394   4.912
 9634TIP3    H228867   5.598   5.261   4.853
 9635TIP3   OH228868   0.616   4.436   0.926
 9635TIP3    H128869   0.524   4.454   0.905
 9635TIP3    H228870   0.642   4.368   0.865
 9636TIP3   OH228871   1.124   2.144   5.662
 9636TIP3    H128872   1.075   2.224   5.644
 9636TIP3    H228873   1.068   2.095   5.722
 9637TIP3   OH228874   2.470   5.152   4.171
 9637TIP3    H128875   2.552   5.110   4.145
 9637TIP3    H228876   2.475   5.240   4.134
 9638TIP3   OH228877   2.927   0.367   4.816
 9638TIP3    H128878   2.899   0.458   4.810
 9638TIP3    H228879   3.022   0.370   4.807
 9639TIP3   OH228880   2.942   2.920   3.365
 9639TIP3    H128881   2.850   2.904   3.385
 9639TIP3    H228882   2.940   2.960   3.278
 9640TIP3   OH228883   6.740   5.023   5.502
 9640TIP3    H128884   6.660   5.027   5.450
 9640TIP3    H228885   6.733   5.097   5.563
 9641TIP3   OH228886   1.494   2.093   5.086
 9641TIP3    H128887   1.486   2.112   4.992
 9641TIP3    H228888   1.477   2.177   5.129
 9642TIP3   OH228889   2.998   3.794   1.982
 9642TIP3    H128890   3.072   3.790   1.921
 9642TIP3    H228891   3.021   3.865   2.042
 9643TIP3   OH228892   4.728   6.089   2.229
 9643TIP3    H128893   4.783   6.049   2.297
 9643TIP3    H228894   4.639   6.076   2.259
 9644TIP3   OH228895   3.503   2.464   0.563
 9644TIP3    H128896   3.429   2.517   0.593
 9644TIP3    H228897   3.469   2.416   0.488
 9645TIP3   OH228898   5.642   1.305   1.333
 9645TIP3    H128899   5.562   1.346   1.367
 9645TIP3    H228900   5.652   1.225   1.385
 9646TIP3   OH228901   4.684   1.479   5.643
 9646TIP3    H128902   4.674   1.394   5.601
 9646TIP3    H228903   4.756   1.521   5.595
 9647TIP3   OH228904   6.875   5.157   4.644
 9647TIP3    H128905   6.946   5.130   4.703
 9647TIP3    H228906   6.800   5.169   4.701
 9648TIP3   OH228907   1.766   4.152   4.408
 9648TIP3    H128908   1.776   4.088   4.479
 9648TIP3    H228909   1.855   4.177   4.386
 9649TIP3   OH228910   2.369   4.790   0.075
 9649TIP3    H128911   2.309   4.719   0.099
 9649TIP3    H228912   2.407   4.818   0.159
 9650TIP3   OH228913   3.615   4.784   4.566
 9650TIP3    H128914   3.584   4.846   4.632
 9650TIP3    H228915   3.571   4.809   4.486
 9651TIP3   OH228916   3.165   1.272   4.136
 9651TIP3    H128917   3.183   1.358   4.098
 9651TIP3    H228918   3.232   1.261   4.203
 9652TIP3   OH228919   3.199   4.644   1.079
 9652TIP3    H128920   3.261   4.571   1.083
 9652TIP3    H228921   3.113   4.601   1.082
 9653TIP3   OH228922   1.460   6.297   3.535
 9653TIP3    H128923   1.547   6.336   3.544
 9653TIP3    H228924   1.410   6.334   3.608
 9654TIP3   OH228925   6.818   1.562   5.203
 9654TIP3    H128926   6.748   1.525   5.257
 9654TIP3    H228927   6.773   1.605   5.131
 9655TIP3   OH228928   6.993   4.730   0.104
 9655TIP3    H128929   6.959   4.705   0.190
 9655TIP3    H228930   6.942   4.678   0.041
 9656TIP3   OH228931   5.874   3.269   1.122
 9656TIP3    H128932   5.923   3.296   1.044
 9656TIP3    H228933   5.884   3.342   1.184
 9657TIP3   OH228934   0.078   1.549   4.935
 9657TIP3    H128935   0.140   1.477   4.924
 9657TIP3    H228936  -0.007   1.506   4.942
 9658TIP3   OH228937   5.386   4.592   3.981
 9658TIP3    H128938   5.329   4.519   4.004
 9658TIP3    H228939   5.361   4.662   4.041
 9659TIP3   OH228940   3.407   0.754   3.981
 9659TIP3    H128941   3.458   0.760   3.901
 9659TIP3    H228942   3.384   0.845   4.001
 9660TIP3   OH228943   1.036   4.712   4.403
 9660TIP3    H128944   1.024   4.635   4.458
 9660TIP3    H228945   0.981   4.779   4.445
 9661TIP3   OH228946   5.944   5.225   4.168
 9661TIP3    H128947   5.974   5.167   4.238
 9661TIP3    H228948   6.024   5.257   4.127
 9662TIP3   OH228949   3.106   1.811   4.220
 9662TIP3    H128950   3.153   1.831   4.301
 9662TIP3    H228951   3.160   1.849   4.151
 9663TIP3   OH228952   5.199   4.399   4.053
 9663TIP3    H128953   5.174   4.382   4.144
 9663TIP3    H228954   5.141   4.343   4.002
 9664TIP3   OH228955   6.057   3.256   3.750
 9664TIP3    H128956   6.141   3.300   3.765
 9664TIP3    H228957   5.992   3.318   3.784
 9665TIP3   OH228958   4.654   6.348   3.910
 9665TIP3    H128959   4.711   6.323   3.984
 9665TIP3    H228960   4.710   6.340   3.833
 9666TIP3   OH228961   5.123   0.368   0.490
 9666TIP3    H128962   5.188   0.302   0.467
 9666TIP3    H228963   5.131   0.436   0.423
 9667TIP3   OH228964   1.458   2.047   5.476
 9667TIP3    H128965   1.460   2.140   5.451
 9667TIP3    H228966   1.510   2.004   5.409
 9668TIP3   OH228967   6.894   5.080   1.546
 9668TIP3    H128968   6.987   5.103   1.554
 9668TIP3    H228969   6.895   4.989   1.518
 9669TIP3   OH228970   6.317   5.391   4.276
 9669TIP3    H128971   6.350   5.319   4.223
 9669TIP3    H228972   6.362   5.469   4.242
 9670TIP3   OH228973   5.253   0.072   5.692
 9670TIP3    H128974   5.327   0.090   5.634
 9670TIP3    H228975   5.214  -0.008   5.656
 9671TIP3   OH228976   5.302   0.442   1.885
 9671TIP3    H128977   5.261   0.406   1.806
 9671TIP3    H228978   5.352   0.518   1.853
 9672TIP3   OH228979   0.720   1.566   1.557
 9672TIP3    H128980   0.692   1.479   1.528
 9672TIP3    H228981   0.737   1.556   1.651
 9673TIP3   OH228982   5.842   1.550   5.078
 9673TIP3    H128983   5.833   1.558   5.173
 9673TIP3    H228984   5.855   1.456   5.064
 9674TIP3   OH228985   3.645   1.805   1.743
 9674TIP3    H128986   3.628   1.894   1.773
 9674TIP3    H228987   3.735   1.787   1.772
 9675TIP3   OH228988   6.410   3.990   5.152
 9675TIP3    H128989   6.317   4.004   5.169
 9675TIP3    H228990   6.424   4.027   5.065
 9676TIP3   OH228991   5.305   6.322   1.058
 9676TIP3    H128992   5.211   6.322   1.080
 9676TIP3    H228993   5.347   6.282   1.135
 9677TIP3   OH228994   0.880   4.746   5.357
 9677TIP3    H128995   0.947   4.703   5.303
 9677TIP3    H228996   0.823   4.790   5.294
 9678TIP3   OH228997   2.745   2.729   4.477
 9678TIP3    H128998   2.737   2.780   4.397
 9678TIP3    H228999   2.701   2.647   4.458
 9679TIP3   OH229000   4.286   4.138   1.187
 9679TIP3    H129001   4.357   4.079   1.161
 9679TIP3    H229002   4.301   4.217   1.136
 9680TIP3   OH229003   3.850   0.927   1.994
 9680TIP3    H129004   3.944   0.922   2.008
 9680TIP3    H229005   3.825   1.015   2.022
 9681TIP3   OH229006   6.416   5.746   2.550
 9681TIP3    H129007   6.450   5.751   2.461
 9681TIP3    H229008   6.331   5.789   2.545
 9682TIP3   OH229009   4.642   6.459   5.552
 9682TIP3    H129010   4.561   6.455   5.603
 9682TIP3    H229011   4.616   6.427   5.465
 9683TIP3   OH229012   3.737   0.049   0.511
 9683TIP3    H129013   3.769  -0.021   0.567
 9683TIP3    H229014   3.777   0.129   0.546
 9684TIP3   OH229015   5.357   2.405   2.961
 9684TIP3    H129016   5.406   2.456   2.896
 9684TIP3    H229017   5.284   2.367   2.912
 9685TIP3   OH229018   0.528   3.211   1.353
 9685TIP3    H129019   0.610   3.252   1.382
 9685TIP3    H229020   0.557   3.134   1.304
 9686TIP3   OH229021   6.960   5.411   4.947
 9686TIP3    H129022   6.999   5.474   4.886
 9686TIP3    H229023   6.868   5.407   4.921
 9687TIP3   OH229024   6.710   4.250   2.680
 9687TIP3    H129025   6.751   4.244   2.594
 9687TIP3    H229026   6.763   4.313   2.728
 9688TIP3   OH229027   2.755   3.587   1.622
 9688TIP3    H129028   2.755   3.667   1.675
 9688TIP3    H229029   2.809   3.609   1.547
 9689TIP3   OH229030   1.108   0.803   5.181
 9689TIP3    H129031   1.043   0.865   5.146
 9689TIP3    H229032   1.119   0.739   5.111
 9690TIP3   OH229033   2.767   2.385   0.471
 9690TIP3    H129034   2.777   2.388   0.566
 9690TIP3    H229035   2.856   2.375   0.438
 9691TIP3   OH229036   1.927   4.262   0.390
 9691TIP3    H129037   2.010   4.248   0.344
 9691TIP3    H229038   1.909   4.355   0.378
 9692TIP3   OH229039   3.802   6.131   0.154
 9692TIP3    H129040   3.788   6.219   0.187
 9692TIP3    H229041   3.834   6.082   0.229
 9693TIP3   OH229042   5.924   1.955   1.454
 9693TIP3    H129043   5.991   1.980   1.518
 9693TIP3    H229044   5.972   1.901   1.391
 9694TIP3   OH229045   0.273   1.612   2.178
 9694TIP3    H129046   0.305   1.701   2.164
 9694TIP3    H229047   0.177   1.621   2.179
 9695TIP3   OH229048   5.929   1.287   3.858
 9695TIP3    H129049   6.002   1.258   3.912
 9695TIP3    H229050   5.969   1.336   3.786
 9696TIP3   OH229051   4.798   5.506  -0.028
 9696TIP3    H129052   4.841   5.589  -0.006
 9696TIP3    H229053   4.842   5.441   0.027
 9697TIP3   OH229054   5.532   6.307   2.600
 9697TIP3    H129055   5.621   6.286   2.627
 9697TIP3    H229056   5.539   6.325   2.506
 9698TIP3   OH229057   2.144   6.665   2.246
 9698TIP3    H129058   2.214   6.703   2.195
 9698TIP3    H229059   2.064   6.686   2.197
 9699TIP3   OH229060   5.709   1.796   5.323
 9699TIP3    H129061   5.670   1.821   5.239
 9699TIP3    H229062   5.646   1.827   5.388
 9700TIP3   OH229063   5.167   0.599   2.753
 9700TIP3    H129064   5.209   0.643   2.827
 9700TIP3    H229065   5.238   0.550   2.710
 9701TIP3   OH229066   1.036   3.190   2.564
 9701TIP3    H129067   1.012   3.098   2.575
 9701TIP3    H229068   1.038   3.225   2.654
 9702TIP3   OH229069   5.374   1.206   5.787
 9702TIP3    H129070   5.420   1.288   5.764
 9702TIP3    H229071   5.352   1.216   5.879
 9703TIP3   OH229072   1.602   2.507   1.566
 9703TIP3    H129073   1.586   2.563   1.490
 9703TIP3    H229074   1.642   2.428   1.529
 9704TIP3   OH229075   3.721   2.743   4.496
 9704TIP3    H129076   3.749   2.658   4.462
 9704TIP3    H229077   3.658   2.722   4.564
 9705TIP3   OH229078   4.977   0.330   4.504
 9705TIP3    H129079   4.956   0.422   4.489
 9705TIP3    H229080   4.970   0.290   4.418
 9706TIP3   OH229081   1.783   6.576   4.691
 9706TIP3    H129082   1.703   6.585   4.744
 9706TIP3    H229083   1.854   6.591   4.752
 9707TIP3   OH229084   0.765   4.130   2.499
 9707TIP3    H129085   0.788   4.117   2.407
 9707TIP3    H229086   0.776   4.044   2.539
 9708TIP3   OH229087   2.360   0.752   1.259
 9708TIP3    H129088   2.410   0.784   1.184
 9708TIP3    H229089   2.272   0.791   1.248
 9709TIP3   OH229090   1.608   3.582   1.498
 9709TIP3    H129091   1.559   3.593   1.417
 9709TIP3    H229092   1.592   3.662   1.548
 9710TIP3   OH229093   6.629   2.237   0.926
 9710TIP3    H129094   6.628   2.324   0.966
 9710TIP3    H229095   6.602   2.252   0.835
 9711TIP3   OH229096   0.382   4.291   0.602
 9711TIP3    H129097   0.358   4.269   0.512
 9711TIP3    H229098   0.451   4.228   0.625
 9712TIP3   OH229099   6.499   6.701   4.645
 9712TIP3    H129100   6.467   6.629   4.591
 9712TIP3    H229101   6.595   6.691   4.644
 9713TIP3   OH229102   5.740   0.991   2.105
 9713TIP3    H129103   5.745   1.049   2.181
 9713TIP3    H229104   5.646   0.979   2.091
 9714TIP3   OH229105   6.107   2.993   0.775
 9714TIP3    H129106   6.039   3.042   0.729
 9714TIP3    H229107   6.168   3.060   0.805
 9715TIP3   OH229108   0.373   2.397   1.661
 9715TIP3    H129109   0.424   2.462   1.710
 9715TIP3    H229110   0.306   2.368   1.723
 9716TIP3   OH229111   7.193   6.356   0.518
 9716TIP3    H129112   7.147   6.338   0.436
 9716TIP3    H229113   7.125   6.388   0.577
 9717TIP3   OH229114   3.739   6.120   5.609
 9717TIP3    H129115   3.693   6.203   5.620
 9717TIP3    H229116   3.738   6.081   5.696
 9718TIP3   OH229117   1.979   0.256   0.116
 9718TIP3    H129118   1.980   0.249   0.020
 9718TIP3    H229119   2.018   0.174   0.146
 9719TIP3   OH229120   4.617   2.069   1.818
 9719TIP3    H129121   4.585   2.104   1.902
 9719TIP3    H229122   4.703   2.109   1.806
 9720TIP3   OH229123   6.521   5.002   0.889
 9720TIP3    H129124   6.574   4.959   0.822
 9720TIP3    H229125   6.434   4.963   0.878
 9721TIP3   OH229126   6.345   5.247   2.780
 9721TIP3    H129127   6.394   5.188   2.837
 9721TIP3    H229128   6.387   5.239   2.695
 9722TIP3   OH229129   2.494   3.824   0.088
 9722TIP3    H129130   2.530   3.892   0.145
 9722TIP3    H229131   2.557   3.751   0.096
 9723TIP3   OH229132   5.375   1.402   0.062
 9723TIP3    H129133   5.312   1.474   0.057
 9723TIP3    H229134   5.432   1.415  -0.014
 9724TIP3   OH229135   5.248   3.535   3.553
 9724TIP3    H129136   5.194   3.596   3.503
 9724TIP3    H229137   5.324   3.588   3.581
 9725TIP3   OH229138   3.990   0.167   2.202
 9725TIP3    H129139   4.068   0.219   2.187
 9725TIP3    H229140   3.927   0.197   2.137
 9726TIP3   OH229141   4.861   3.054   4.631
 9726TIP3    H129142   4.883   3.025   4.719
 9726TIP3    H229143   4.941   3.042   4.581
 9727TIP3   OH229144   6.771   3.075   0.164
 9727TIP3    H129145   6.832   3.119   0.105
 9727TIP3    H229146   6.809   3.086   0.251
 9728TIP3   OH229147   3.579   4.610   2.097
 9728TIP3    H129148   3.507   4.654   2.141
 9728TIP3    H229149   3.558   4.616   2.004
 9729TIP3   OH229150   3.608   3.675   2.821
 9729TIP3    H129151   3.642   3.600   2.869
 9729TIP3    H229152   3.552   3.636   2.753
 9730TIP3   OH229153   2.826   2.178   3.849
 9730TIP3    H129154   2.842   2.116   3.920
 9730TIP3    H229155   2.911   2.189   3.806
 9731TIP3   OH229156   1.895   1.701   2.691
 9731TIP3    H129157   1.964   1.704   2.757
 9731TIP3    H229158   1.814   1.714   2.740
 9732TIP3   OH229159   0.964   6.303   3.462
 9732TIP3    H129160   0.978   6.228   3.403
 9732TIP3    H229161   0.980   6.379   3.407
 9733TIP3   OH229162   1.430   3.518   2.198
 9733TIP3    H129163   1.508   3.529   2.254
 9733TIP3    H229164   1.443   3.580   2.126
 9734TIP3   OH229165   3.153   0.898   2.164
 9734TIP3    H129166   3.133   0.985   2.129
 9734TIP3    H229167   3.229   0.869   2.114
 9735TIP3   OH229168   4.794   6.249   3.675
 9735TIP3    H129169   4.773   6.158   3.654
 9735TIP3    H229170   4.890   6.253   3.673
 9736TIP3   OH229171   3.824   4.849   1.906
 9736TIP3    H129172   3.756   4.860   1.841
 9736TIP3    H229173   3.896   4.904   1.875
 9737TIP3   OH229174   7.225   1.950   1.077
 9737TIP3    H129175   7.228   2.044   1.094
 9737TIP3    H229176   7.139   1.923   1.109
 9738TIP3   OH229177   6.513   3.394   0.527
 9738TIP3    H129178   6.542   3.365   0.441
 9738TIP3    H229179   6.425   3.357   0.536
 9739TIP3   OH229180   0.736   1.246   2.632
 9739TIP3    H129181   0.700   1.334   2.616
 9739TIP3    H229182   0.780   1.253   2.717
 9740TIP3   OH229183   1.488   0.248   3.038
 9740TIP3    H129184   1.471   0.328   2.988
 9740TIP3    H229185   1.583   0.236   3.031
 9741TIP3   OH229186   5.829   2.542   5.790
 9741TIP3    H129187   5.849   2.496   5.872
 9741TIP3    H229188   5.827   2.474   5.724
 9742TIP3   OH229189   5.159   5.538   5.626
 9742TIP3    H129190   5.198   5.532   5.714
 9742TIP3    H229191   5.185   5.457   5.583
 9743TIP3   OH229192   3.646   2.675   4.801
 9743TIP3    H129193   3.722   2.729   4.781
 9743TIP3    H229194   3.677   2.585   4.786
 9744TIP3   OH229195   2.507   2.709   0.676
 9744TIP3    H129196   2.576   2.651   0.708
 9744TIP3    H229197   2.552   2.791   0.655
 9745TIP3   OH229198   0.775   2.937   4.396
 9745TIP3    H129199   0.764   3.008   4.460
 9745TIP3    H229200   0.864   2.948   4.363
 9746TIP3   OH229201   3.294   4.666   4.274
 9746TIP3    H129202   3.304   4.680   4.180
 9746TIP3    H229203   3.348   4.734   4.315
 9747TIP3   OH229204   0.913   2.860   2.639
 9747TIP3    H129205   0.851   2.788   2.653
 9747TIP3    H229206   0.946   2.847   2.550
 9748TIP3   OH229207   3.916   2.798   0.291
 9748TIP3    H129208   3.880   2.783   0.379
 9748TIP3    H229209   3.920   2.894   0.283
 9749TIP3   OH229210   4.007   4.566   4.818
 9749TIP3    H129211   3.953   4.632   4.774
 9749TIP3    H229212   4.091   4.611   4.833
   7.21618   6.80349   5.89198   0.00000   0.00000  -2.40540   0.00000  -2.40540  -3.40174
