Title t= 258.00000 step= 129000
19942
    1ASP      N    1   1.773   2.708   2.555
    1ASP    HT1    2   1.789   2.628   2.490
    1ASP    HT2    3   1.854   2.710   2.619
    1ASP    HT3    4   1.767   2.799   2.504
    1ASP     CA    5   1.632   2.677   2.623
    1ASP     HA    6   1.606   2.756   2.692
    1ASP     CB    7   1.513   2.663   2.522
    1ASP    HB1    8   1.416   2.634   2.567
    1ASP    HB2    9   1.548   2.587   2.449
    1ASP     CG   10   1.502   2.791   2.452
    1ASP    OD1   11   1.450   2.789   2.335
    1ASP    OD2   12   1.540   2.895   2.507
    1ASP      C   13   1.638   2.553   2.708
    1ASP      O   14   1.704   2.453   2.668
    2ALA      N   15   1.577   2.553   2.829
    2ALA     HN   16   1.537   2.638   2.862
    2ALA     CA   17   1.543   2.437   2.892
    2ALA     HA   18   1.636   2.384   2.909
    2ALA     CB   19   1.491   2.473   3.035
    2ALA    HB1   20   1.456   2.389   3.100
    2ALA    HB2   21   1.402   2.539   3.027
    2ALA    HB3   22   1.569   2.517   3.101
    2ALA      C   23   1.448   2.342   2.824
    2ALA      O   24   1.354   2.393   2.756
    3ASP      N   25   1.468   2.209   2.842
    3ASP     HN   26   1.542   2.167   2.894
    3ASP     CA   27   1.398   2.113   2.767
    3ASP     HA   28   1.397   2.127   2.660
    3ASP     CB   29   1.461   1.971   2.791
    3ASP    HB1   30   1.393   1.893   2.749
    3ASP    HB2   31   1.467   1.942   2.898
    3ASP     CG   32   1.589   1.973   2.720
    3ASP    OD1   33   1.689   1.931   2.779
    3ASP    OD2   34   1.586   1.990   2.593
    3ASP      C   35   1.245   2.114   2.809
    3ASP      O   36   1.211   2.139   2.926
    4GLY      N   37   1.153   2.096   2.708
    4GLY     HN   38   1.191   2.096   2.616
    4GLY     CA   39   1.015   2.065   2.735
    4GLY    HA1   40   0.961   2.058   2.642
    4GLY    HA2   41   0.977   2.147   2.794
    4GLY      C   42   0.982   1.937   2.798
    4GLY      O   43   1.066   1.854   2.819
    5PRO      N   44   0.853   1.899   2.815
    5PRO     CD   45   0.740   1.992   2.827
    5PRO    HD1   46   0.738   2.073   2.752
    5PRO    HD2   47   0.750   2.039   2.927
    5PRO     CA   48   0.805   1.760   2.836
    5PRO     HA   49   0.832   1.736   2.938
    5PRO     CB   50   0.659   1.758   2.811
    5PRO    HB1   51   0.595   1.684   2.864
    5PRO    HB2   52   0.641   1.737   2.704
    5PRO     CG   53   0.616   1.906   2.831
    5PRO    HG1   54   0.547   1.940   2.752
    5PRO    HG2   55   0.553   1.914   2.922
    5PRO      C   56   0.882   1.650   2.751
    5PRO      O   57   0.908   1.668   2.632
    6GLY      N   58   0.927   1.545   2.820
    6GLY     HN   59   0.897   1.533   2.915
    6GLY     CA   60   0.982   1.423   2.753
    6GLY    HA1   61   1.058   1.387   2.820
    6GLY    HA2   62   1.021   1.455   2.657
    6GLY      C   63   0.876   1.315   2.729
    6GLY      O   64   0.755   1.330   2.758
    7ASP      N   65   0.925   1.197   2.692
    7ASP     HN   66   1.020   1.202   2.662
    7ASP     CA   67   0.851   1.073   2.682
    7ASP     HA   68   0.746   1.096   2.687
    7ASP     CB   69   0.877   1.019   2.535
    7ASP    HB1   70   0.983   0.997   2.512
    7ASP    HB2   71   0.837   1.091   2.459
    7ASP     CG   72   0.823   0.880   2.499
    7ASP    OD1   73   0.873   0.817   2.402
    7ASP    OD2   74   0.725   0.834   2.557
    7ASP      C   75   0.909   0.973   2.792
    7ASP      O   76   1.016   0.914   2.770
    8PRO      N   77   0.853   0.952   2.902
    8PRO     CD   78   0.722   1.017   2.939
    8PRO    HD1   79   0.634   0.989   2.877
    8PRO    HD2   80   0.724   1.128   2.935
    8PRO     CA   81   0.924   0.896   3.021
    8PRO     HA   82   1.023   0.936   3.035
    8PRO     CB   83   0.838   0.945   3.139
    8PRO    HB1   84   0.877   1.043   3.174
    8PRO    HB2   85   0.834   0.884   3.232
    8PRO     CG   86   0.696   0.972   3.084
    8PRO    HG1   87   0.646   0.873   3.089
    8PRO    HG2   88   0.647   1.047   3.150
    8PRO      C   89   0.940   0.747   3.002
    8PRO      O   90   1.004   0.677   3.077
    9ASP      N   91   0.873   0.693   2.904
    9ASP     HN   92   0.813   0.737   2.837
    9ASP     CA   93   0.885   0.551   2.872
    9ASP     HA   94   0.937   0.491   2.944
    9ASP     CB   95   0.738   0.496   2.862
    9ASP    HB1   96   0.736   0.393   2.821
    9ASP    HB2   97   0.668   0.567   2.814
    9ASP     CG   98   0.682   0.471   3.004
    9ASP    OD1   99   0.562   0.503   3.029
    9ASP    OD2  100   0.749   0.401   3.082
    9ASP      C  101   0.970   0.523   2.747
    9ASP      O  102   0.984   0.414   2.700
   10ALA      N  103   1.055   0.619   2.707
   10ALA     HN  104   1.052   0.707   2.754
   10ALA     CA  105   1.157   0.594   2.610
   10ALA     HA  106   1.114   0.541   2.526
   10ALA     CB  107   1.215   0.730   2.582
   10ALA    HB1  108   1.137   0.802   2.550
   10ALA    HB2  109   1.301   0.721   2.513
   10ALA    HB3  110   1.255   0.778   2.674
   10ALA      C  111   1.263   0.487   2.648
   10ALA      O  112   1.304   0.484   2.768
   11GLY      N  113   1.313   0.405   2.547
   11GLY     HN  114   1.286   0.417   2.452
   11GLY     CA  115   1.399   0.300   2.582
   11GLY    HA1  116   1.350   0.243   2.660
   11GLY    HA2  117   1.494   0.349   2.598
   11GLY      C  118   1.435   0.202   2.475
   11GLY    OT1  119   1.342   0.156   2.400
   11GLY    OT2  120   1.545   0.148   2.472
   12LIT    LIT  121   5.321   0.093   1.639
   13LIT    LIT  122   0.595   3.391   2.293
   14LIT    LIT  123   5.329   3.141   2.329
   15LIT    LIT  124   0.076   2.415   2.350
   16LIT    LIT  125   5.189   5.642   3.848
   17LIT    LIT  126   3.801   3.801   4.686
   18LIT    LIT  127   4.520   3.832   0.510
   19LIT    LIT  128   4.761   5.566   2.754
   20LIT    LIT  129   4.183   1.189   4.423
   21LIT    LIT  130   3.931   0.087   1.353
   22LIT    LIT  131   5.587   4.089   0.865
   23LIT    LIT  132   2.943   3.083   1.928
   24LIT    LIT  133   4.692   3.132   3.083
   25LIT    LIT  134   0.322   4.902   0.123
   26LIT    LIT  135   2.640   0.359   3.135
   27LIT    LIT  136   1.289   0.536   3.465
   28LIT    LIT  137   0.957   1.775   3.955
   29LIT    LIT  138   0.511   1.068   5.105
   30LIT    LIT  139   2.094   4.315   2.724
   31LIT    LIT  140   2.325   3.005   4.482
   32LIT    LIT  141   4.809   5.764   1.950
   33LIT    LIT  142   4.565   1.047   0.275
   34CLA    CLA  143   2.625   2.951   2.243
   35CLA    CLA  144   1.813   2.575   5.023
   36CLA    CLA  145   5.565   2.724   2.031
   37CLA    CLA  146   5.150   3.941   2.534
   38CLA    CLA  147   4.755   5.601   0.921
   39CLA    CLA  148   4.562   4.514   3.561
   40CLA    CLA  149   6.166   4.043   2.688
   41CLA    CLA  150   1.294   3.602   0.307
   42CLA    CLA  151   4.934   3.357   0.443
   43CLA    CLA  152   3.610   5.988   4.967
   44CLA    CLA  153   5.450   1.405   4.476
   45CLA    CLA  154   6.077   5.871   0.492
   46CLA    CLA  155   4.540   4.052   0.486
   47CLA    CLA  156   2.476   0.266   2.997
   48CLA    CLA  157   1.962   4.600   3.642
   49CLA    CLA  158   1.498   2.293   4.173
   50CLA    CLA  159   1.611   2.085   1.552
   51CLA    CLA  160   3.785   0.737   1.456
   52TIP3   OH2  161   1.799   5.820   4.933
   52TIP3    H1  162   1.724   5.846   4.880
   52TIP3    H2  163   1.761   5.797   5.018
   53TIP3   OH2  164   4.470   1.197   1.425
   53TIP3    H1  165   4.493   1.289   1.414
   53TIP3    H2  166   4.417   1.195   1.504
   54TIP3   OH2  167   1.779   1.653   4.259
   54TIP3    H1  168   1.736   1.662   4.174
   54TIP3    H2  169   1.808   1.742   4.281
   55TIP3   OH2  170   5.241   2.034   2.453
   55TIP3    H1  171   5.216   1.942   2.468
   55TIP3    H2  172   5.302   2.054   2.525
   56TIP3   OH2  173   3.967   5.429   0.573
   56TIP3    H1  174   3.944   5.456   0.661
   56TIP3    H2  175   4.039   5.487   0.548
   57TIP3   OH2  176   2.436   2.207   2.577
   57TIP3    H1  177   2.408   2.122   2.544
   57TIP3    H2  178   2.361   2.239   2.628
   58TIP3   OH2  179   2.051   4.027   1.988
   58TIP3    H1  180   2.075   4.040   2.080
   58TIP3    H2  181   2.053   3.932   1.976
   59TIP3   OH2  182   1.831   0.568   5.062
   59TIP3    H1  183   1.834   0.621   5.141
   59TIP3    H2  184   1.844   0.630   4.990
   60TIP3   OH2  185   3.211   4.693   1.668
   60TIP3    H1  186   3.138   4.751   1.646
   60TIP3    H2  187   3.289   4.740   1.640
   61TIP3   OH2  188   3.799   4.357   1.340
   61TIP3    H1  189   3.891   4.337   1.359
   61TIP3    H2  190   3.751   4.311   1.409
   62TIP3   OH2  191   5.472   3.344   3.251
   62TIP3    H1  192   5.392   3.395   3.266
   62TIP3    H2  193   5.469   3.322   3.158
   63TIP3   OH2  194   2.326   4.371   3.591
   63TIP3    H1  195   2.336   4.465   3.577
   63TIP3    H2  196   2.333   4.332   3.504
   64TIP3   OH2  197   0.876   1.882   1.114
   64TIP3    H1  198   0.846   1.961   1.067
   64TIP3    H2  199   0.971   1.893   1.120
   65TIP3   OH2  200   3.621   1.971   3.570
   65TIP3    H1  201   3.700   1.933   3.532
   65TIP3    H2  202   3.562   1.897   3.582
   66TIP3   OH2  203   5.821   3.020   1.163
   66TIP3    H1  204   5.812   3.097   1.106
   66TIP3    H2  205   5.741   3.021   1.216
   67TIP3   OH2  206   2.283   0.248   0.955
   67TIP3    H1  207   2.217   0.298   0.907
   67TIP3    H2  208   2.316   0.309   1.021
   68TIP3   OH2  209   2.137   0.462   4.087
   68TIP3    H1  210   2.086   0.521   4.143
   68TIP3    H2  211   2.097   0.470   4.001
   69TIP3   OH2  212   2.169   4.474   2.003
   69TIP3    H1  213   2.088   4.501   2.046
   69TIP3    H2  214   2.196   4.550   1.951
   70TIP3   OH2  215   6.135   1.653   0.984
   70TIP3    H1  216   6.186   1.572   0.994
   70TIP3    H2  217   6.138   1.671   0.890
   71TIP3   OH2  218   2.722   1.194   4.339
   71TIP3    H1  219   2.750   1.143   4.263
   71TIP3    H2  220   2.745   1.284   4.317
   72TIP3   OH2  221   0.137   5.372   4.828
   72TIP3    H1  222   0.099   5.458   4.843
   72TIP3    H2  223   0.162   5.373   4.736
   73TIP3   OH2  224   3.315   5.207   2.379
   73TIP3    H1  225   3.246   5.177   2.320
   73TIP3    H2  226   3.364   5.271   2.328
   74TIP3   OH2  227   0.856   5.878   2.194
   74TIP3    H1  228   0.776   5.887   2.247
   74TIP3    H2  229   0.927   5.885   2.256
   75TIP3   OH2  230   0.418   0.607   2.308
   75TIP3    H1  231   0.500   0.598   2.356
   75TIP3    H2  232   0.446   0.627   2.218
   76TIP3   OH2  233   6.379   5.489   3.379
   76TIP3    H1  234   6.307   5.552   3.381
   76TIP3    H2  235   6.347   5.415   3.430
   77TIP3   OH2  236   2.861   3.589   1.890
   77TIP3    H1  237   2.950   3.619   1.875
   77TIP3    H2  238   2.855   3.578   1.985
   78TIP3   OH2  239   5.103   2.557   5.064
   78TIP3    H1  240   5.176   2.526   5.010
   78TIP3    H2  241   5.072   2.637   5.020
   79TIP3   OH2  242   2.697   4.703   2.540
   79TIP3    H1  243   2.671   4.792   2.562
   79TIP3    H2  244   2.792   4.705   2.540
   80TIP3   OH2  245   1.241   1.994   4.304
   80TIP3    H1  246   1.183   1.924   4.274
   80TIP3    H2  247   1.328   1.954   4.307
   81TIP3   OH2  248   5.548   1.978   4.870
   81TIP3    H1  249   5.548   2.074   4.864
   81TIP3    H2  250   5.546   1.960   4.964
   82TIP3   OH2  251   4.974   0.527   0.994
   82TIP3    H1  252   5.001   0.567   1.077
   82TIP3    H2  253   5.024   0.575   0.927
   83TIP3   OH2  254   4.546   0.433   4.795
   83TIP3    H1  255   4.542   0.356   4.738
   83TIP3    H2  256   4.455   0.451   4.819
   84TIP3   OH2  257   1.945   2.551   3.464
   84TIP3    H1  258   1.993   2.633   3.454
   84TIP3    H2  259   1.859   2.577   3.497
   85TIP3   OH2  260   1.563   5.819   1.075
   85TIP3    H1  261   1.571   5.729   1.045
   85TIP3    H2  262   1.545   5.870   0.996
   86TIP3   OH2  263   5.023   2.771   1.650
   86TIP3    H1  264   5.064   2.758   1.736
   86TIP3    H2  265   5.091   2.747   1.587
   87TIP3   OH2  266   1.588   3.518   2.333
   87TIP3    H1  267   1.593   3.424   2.320
   87TIP3    H2  268   1.595   3.555   2.245
   88TIP3   OH2  269   3.570   0.742   3.635
   88TIP3    H1  270   3.575   0.666   3.577
   88TIP3    H2  271   3.660   0.759   3.662
   89TIP3   OH2  272   5.986   5.424   1.066
   89TIP3    H1  273   5.993   5.477   0.987
   89TIP3    H2  274   5.903   5.449   1.105
   90TIP3   OH2  275   1.306   0.682   4.648
   90TIP3    H1  276   1.384   0.700   4.595
   90TIP3    H2  277   1.304   0.753   4.712
   91TIP3   OH2  278   5.683   3.263   0.790
   91TIP3    H1  279   5.765   3.266   0.841
   91TIP3    H2  280   5.707   3.301   0.705
   92TIP3   OH2  281   3.828   4.428   2.240
   92TIP3    H1  282   3.756   4.422   2.177
   92TIP3    H2  283   3.856   4.519   2.236
   93TIP3   OH2  284   1.768   5.283   4.894
   93TIP3    H1  285   1.795   5.359   4.842
   93TIP3    H2  286   1.674   5.294   4.907
   94TIP3   OH2  287   4.084   4.573   4.320
   94TIP3    H1  288   4.059   4.490   4.360
   94TIP3    H2  289   4.153   4.608   4.377
   95TIP3   OH2  290   5.357   1.366   3.033
   95TIP3    H1  291   5.321   1.364   3.122
   95TIP3    H2  292   5.452   1.358   3.045
   96TIP3   OH2  293   5.230   5.882   0.429
   96TIP3    H1  294   5.323   5.891   0.407
   96TIP3    H2  295   5.230   5.860   0.522
   97TIP3   OH2  296   2.659   2.086   0.594
   97TIP3    H1  297   2.616   2.000   0.598
   97TIP3    H2  298   2.615   2.131   0.522
   98TIP3   OH2  299   5.727   5.152   5.103
   98TIP3    H1  300   5.635   5.147   5.078
   98TIP3    H2  301   5.742   5.244   5.124
   99TIP3   OH2  302   5.155   4.377   1.217
   99TIP3    H1  303   5.247   4.352   1.219
   99TIP3    H2  304   5.152   4.459   1.267
  100TIP3   OH2  305   3.471   2.527   3.579
  100TIP3    H1  306   3.549   2.476   3.558
  100TIP3    H2  307   3.460   2.587   3.505
  101TIP3   OH2  308   4.727   1.475   2.302
  101TIP3    H1  309   4.661   1.434   2.246
  101TIP3    H2  310   4.799   1.496   2.243
  102TIP3   OH2  311   5.824   5.026   0.440
  102TIP3    H1  312   5.886   5.071   0.382
  102TIP3    H2  313   5.775   4.968   0.382
  103TIP3   OH2  314   5.460   0.207   1.654
  103TIP3    H1  315   5.443   0.292   1.695
  103TIP3    H2  316   5.556   0.202   1.648
  104TIP3   OH2  317   3.393   0.488   2.148
  104TIP3    H1  318   3.314   0.540   2.133
  104TIP3    H2  319   3.397   0.477   2.243
  105TIP3   OH2  320   1.646   5.713   2.324
  105TIP3    H1  321   1.664   5.805   2.343
  105TIP3    H2  322   1.567   5.715   2.270
  106TIP3   OH2  323   0.236   4.530   2.760
  106TIP3    H1  324   0.304   4.540   2.694
  106TIP3    H2  325   0.191   4.615   2.762
  107TIP3   OH2  326   3.942   3.406   4.102
  107TIP3    H1  327   4.027   3.364   4.091
  107TIP3    H2  328   3.879   3.343   4.067
  108TIP3   OH2  329   3.823   5.413   4.102
  108TIP3    H1  330   3.840   5.387   4.011
  108TIP3    H2  331   3.763   5.487   4.095
  109TIP3   OH2  332   1.730   3.231   3.497
  109TIP3    H1  333   1.687   3.225   3.412
  109TIP3    H2  334   1.763   3.321   3.501
  110TIP3   OH2  335   1.956   5.930   0.169
  110TIP3    H1  336   1.978   6.022   0.184
  110TIP3    H2  337   2.031   5.895   0.121
  111TIP3   OH2  338   4.456   5.472   4.341
  111TIP3    H1  339   4.531   5.413   4.338
  111TIP3    H2  340   4.403   5.448   4.265
  112TIP3   OH2  341   5.225   4.368   2.768
  112TIP3    H1  342   5.316   4.339   2.764
  112TIP3    H2  343   5.231   4.463   2.781
  113TIP3   OH2  344   5.340   0.103   2.310
  113TIP3    H1  345   5.302   0.106   2.223
  113TIP3    H2  346   5.265   0.088   2.368
  114TIP3   OH2  347   0.083   0.167   0.710
  114TIP3    H1  348   0.029   0.135   0.638
  114TIP3    H2  349   0.130   0.242   0.673
  115TIP3   OH2  350   4.787   4.238   1.338
  115TIP3    H1  351   4.877   4.206   1.345
  115TIP3    H2  352   4.791   4.327   1.373
  116TIP3   OH2  353   5.307   2.368   3.174
  116TIP3    H1  354   5.369   2.442   3.180
  116TIP3    H2  355   5.359   2.292   3.197
  117TIP3   OH2  356   5.546   2.344   4.506
  117TIP3    H1  357   5.510   2.407   4.444
  117TIP3    H2  358   5.639   2.337   4.482
  118TIP3   OH2  359   4.227   5.740   1.679
  118TIP3    H1  360   4.250   5.774   1.592
  118TIP3    H2  361   4.222   5.817   1.735
  119TIP3   OH2  362   4.936   3.008   0.866
  119TIP3    H1  363   5.012   2.974   0.913
  119TIP3    H2  364   4.972   3.045   0.786
  120TIP3   OH2  365   4.818   5.143   4.368
  120TIP3    H1  366   4.815   5.079   4.438
  120TIP3    H2  367   4.911   5.153   4.348
  121TIP3   OH2  368   5.897   0.237   1.021
  121TIP3    H1  369   5.885   0.142   1.016
  121TIP3    H2  370   5.816   0.274   0.984
  122TIP3   OH2  371   5.320   2.837   0.510
  122TIP3    H1  372   5.369   2.855   0.591
  122TIP3    H2  373   5.368   2.765   0.469
  123TIP3   OH2  374   1.776   5.623   4.449
  123TIP3    H1  375   1.693   5.630   4.400
  123TIP3    H2  376   1.798   5.714   4.472
  124TIP3   OH2  377   3.388   3.059   3.867
  124TIP3    H1  378   3.354   3.033   3.781
  124TIP3    H2  379   3.414   2.977   3.909
  125TIP3   OH2  380   2.231   1.374   1.616
  125TIP3    H1  381   2.143   1.335   1.618
  125TIP3    H2  382   2.247   1.402   1.706
  126TIP3   OH2  383   3.716   4.053   4.414
  126TIP3    H1  384   3.646   4.091   4.360
  126TIP3    H2  385   3.681   4.055   4.503
  127TIP3   OH2  386   1.923   3.579   2.371
  127TIP3    H1  387   1.830   3.558   2.363
  127TIP3    H2  388   1.938   3.647   2.305
  128TIP3   OH2  389   5.506   2.684   1.059
  128TIP3    H1  390   5.481   2.603   1.014
  128TIP3    H2  391   5.576   2.658   1.118
  129TIP3   OH2  392   4.345   2.737   4.227
  129TIP3    H1  393   4.319   2.740   4.135
  129TIP3    H2  394   4.406   2.810   4.237
  130TIP3   OH2  395   4.861   0.236   2.081
  130TIP3    H1  396   4.856   0.178   2.005
  130TIP3    H2  397   4.902   0.183   2.149
  131TIP3   OH2  398   1.824   2.844   0.128
  131TIP3    H1  399   1.755   2.797   0.081
  131TIP3    H2  400   1.803   2.937   0.116
  132TIP3   OH2  401   5.217   1.941   1.016
  132TIP3    H1  402   5.263   1.929   0.933
  132TIP3    H2  403   5.250   2.025   1.049
  133TIP3   OH2  404   3.445   1.959   0.964
  133TIP3    H1  405   3.473   2.044   0.999
  133TIP3    H2  406   3.421   1.908   1.041
  134TIP3   OH2  407   3.330   0.090   3.965
  134TIP3    H1  408   3.381   0.049   4.035
  134TIP3    H2  409   3.282   0.017   3.925
  135TIP3   OH2  410   4.207   1.757   3.539
  135TIP3    H1  411   4.225   1.839   3.585
  135TIP3    H2  412   4.251   1.690   3.591
  136TIP3   OH2  413   4.936   1.643   4.966
  136TIP3    H1  414   4.909   1.686   4.884
  136TIP3    H2  415   4.924   1.710   5.033
  137TIP3   OH2  416   3.210   0.998   3.564
  137TIP3    H1  417   3.150   1.002   3.639
  137TIP3    H2  418   3.297   0.994   3.603
  138TIP3   OH2  419   1.885   5.838   3.522
  138TIP3    H1  420   1.931   5.754   3.530
  138TIP3    H2  421   1.927   5.894   3.587
  139TIP3   OH2  422   2.711   1.631   3.192
  139TIP3    H1  423   2.787   1.573   3.188
  139TIP3    H2  424   2.731   1.692   3.263
  140TIP3   OH2  425   5.919   3.867   2.665
  140TIP3    H1  426   5.875   3.930   2.607
  140TIP3    H2  427   6.003   3.908   2.684
  141TIP3   OH2  428   2.980   5.776   1.419
  141TIP3    H1  429   2.906   5.835   1.403
  141TIP3    H2  430   2.979   5.717   1.344
  142TIP3   OH2  431   3.970   2.369   0.731
  142TIP3    H1  432   3.976   2.430   0.658
  142TIP3    H2  433   3.879   2.375   0.760
  143TIP3   OH2  434   0.771   0.285   0.858
  143TIP3    H1  435   0.825   0.344   0.805
  143TIP3    H2  436   0.828   0.212   0.881
  144TIP3   OH2  437   0.759   0.141   2.981
  144TIP3    H1  438   0.670   0.149   2.948
  144TIP3    H2  439   0.780   0.228   3.015
  145TIP3   OH2  440   4.230   3.872   5.103
  145TIP3    H1  441   4.257   3.800   5.160
  145TIP3    H2  442   4.290   3.944   5.125
  146TIP3   OH2  443   3.746   3.909   0.324
  146TIP3    H1  444   3.701   3.988   0.355
  146TIP3    H2  445   3.839   3.926   0.342
  147TIP3   OH2  446   4.053   3.269   2.565
  147TIP3    H1  447   4.135   3.223   2.545
  147TIP3    H2  448   4.060   3.352   2.518
  148TIP3   OH2  449   1.574   0.566   1.836
  148TIP3    H1  450   1.610   0.610   1.759
  148TIP3    H2  451   1.566   0.635   1.902
  149TIP3   OH2  452   5.385   4.506   2.997
  149TIP3    H1  453   5.373   4.504   3.092
  149TIP3    H2  454   5.461   4.450   2.982
  150TIP3   OH2  455   1.704   4.602   4.979
  150TIP3    H1  456   1.649   4.605   4.900
  150TIP3    H2  457   1.643   4.618   5.051
  151TIP3   OH2  458   4.708   3.526   2.799
  151TIP3    H1  459   4.700   3.604   2.853
  151TIP3    H2  460   4.680   3.553   2.711
  152TIP3   OH2  461   3.599   3.985   2.207
  152TIP3    H1  462   3.587   3.963   2.115
  152TIP3    H2  463   3.637   3.907   2.247
  153TIP3   OH2  464   5.836   0.794   4.272
  153TIP3    H1  465   5.863   0.783   4.180
  153TIP3    H2  466   5.882   0.724   4.318
  154TIP3   OH2  467   5.714   4.280   3.472
  154TIP3    H1  468   5.662   4.258   3.549
  154TIP3    H2  469   5.799   4.239   3.487
  155TIP3   OH2  470   1.438   3.163   3.037
  155TIP3    H1  471   1.347   3.183   3.016
  155TIP3    H2  472   1.434   3.083   3.089
  156TIP3   OH2  473   5.137   0.615   2.306
  156TIP3    H1  474   5.137   0.519   2.310
  156TIP3    H2  475   5.062   0.637   2.251
  157TIP3   OH2  476   5.163   5.805   4.401
  157TIP3    H1  477   5.078   5.783   4.362
  157TIP3    H2  478   5.166   5.901   4.397
  158TIP3   OH2  479   2.159   0.455   0.773
  158TIP3    H1  480   2.132   0.523   0.835
  158TIP3    H2  481   2.098   0.464   0.700
  159TIP3   OH2  482   3.982   5.095   5.070
  159TIP3    H1  483   4.074   5.090   5.097
  159TIP3    H2  484   3.968   5.014   5.022
  160TIP3   OH2  485   4.653   1.306   3.876
  160TIP3    H1  486   4.695   1.375   3.928
  160TIP3    H2  487   4.666   1.226   3.926
  161TIP3   OH2  488   3.371   4.412   2.212
  161TIP3    H1  489   3.408   4.490   2.255
  161TIP3    H2  490   3.283   4.439   2.185
  162TIP3   OH2  491   0.939   5.369   2.314
  162TIP3    H1  492   0.940   5.459   2.347
  162TIP3    H2  493   0.856   5.361   2.269
  163TIP3   OH2  494   2.992   4.377   1.443
  163TIP3    H1  495   2.968   4.464   1.410
  163TIP3    H2  496   2.987   4.386   1.538
  164TIP3   OH2  497   2.844   4.866   4.010
  164TIP3    H1  498   2.918   4.850   3.951
  164TIP3    H2  499   2.874   4.938   4.066
  165TIP3   OH2  500   4.150   0.968   4.073
  165TIP3    H1  501   4.206   0.892   4.057
  165TIP3    H2  502   4.115   0.953   4.161
  166TIP3   OH2  503   5.511   3.430   0.293
  166TIP3    H1  504   5.493   3.365   0.225
  166TIP3    H2  505   5.461   3.400   0.369
  167TIP3   OH2  506   1.386   3.954   5.143
  167TIP3    H1  507   1.451   3.989   5.204
  167TIP3    H2  508   1.363   4.028   5.088
  168TIP3   OH2  509   0.587   0.694   0.801
  168TIP3    H1  510   0.615   0.644   0.878
  168TIP3    H2  511   0.500   0.659   0.781
  169TIP3   OH2  512   4.412   5.142   1.134
  169TIP3    H1  513   4.336   5.196   1.112
  169TIP3    H2  514   4.390   5.055   1.101
  170TIP3   OH2  515   2.377   5.443   4.744
  170TIP3    H1  516   2.471   5.426   4.741
  170TIP3    H2  517   2.368   5.515   4.807
  171TIP3   OH2  518   5.667   3.119   2.461
  171TIP3    H1  519   5.658   3.094   2.369
  171TIP3    H2  520   5.605   3.062   2.507
  172TIP3   OH2  521   0.588   5.156   1.422
  172TIP3    H1  522   0.555   5.227   1.478
  172TIP3    H2  523   0.683   5.157   1.435
  173TIP3   OH2  524   1.029   3.993   3.390
  173TIP3    H1  525   1.034   3.954   3.303
  173TIP3    H2  526   1.006   3.919   3.447
  174TIP3   OH2  527   3.583   4.920   3.115
  174TIP3    H1  528   3.642   4.855   3.152
  174TIP3    H2  529   3.604   5.001   3.161
  175TIP3   OH2  530   1.853   4.820   2.940
  175TIP3    H1  531   1.867   4.749   3.003
  175TIP3    H2  532   1.819   4.893   2.993
  176TIP3   OH2  533   0.824   5.514   0.156
  176TIP3    H1  534   0.840   5.507   0.062
  176TIP3    H2  535   0.777   5.596   0.167
  177TIP3   OH2  536   4.071   5.058   3.048
  177TIP3    H1  537   4.101   5.102   2.968
  177TIP3    H2  538   3.983   5.093   3.063
  178TIP3   OH2  539   2.781   4.001   3.918
  178TIP3    H1  540   2.748   4.090   3.929
  178TIP3    H2  541   2.870   4.004   3.953
  179TIP3   OH2  542   2.826   0.920   0.588
  179TIP3    H1  543   2.898   0.978   0.563
  179TIP3    H2  544   2.860   0.871   0.663
  180TIP3   OH2  545   0.802   5.135   3.369
  180TIP3    H1  546   0.842   5.053   3.340
  180TIP3    H2  547   0.845   5.202   3.315
  181TIP3   OH2  548   5.865   4.997   1.599
  181TIP3    H1  549   5.785   5.049   1.608
  181TIP3    H2  550   5.934   5.052   1.635
  182TIP3   OH2  551   0.607   5.899   4.325
  182TIP3    H1  552   0.543   5.856   4.383
  182TIP3    H2  553   0.687   5.903   4.377
  183TIP3   OH2  554   3.975   1.668   3.161
  183TIP3    H1  555   4.050   1.714   3.200
  183TIP3    H2  556   3.943   1.728   3.093
  184TIP3   OH2  557   3.011   0.580   1.682
  184TIP3    H1  558   3.027   0.674   1.688
  184TIP3    H2  559   3.098   0.542   1.671
  185TIP3   OH2  560   1.860   1.117   2.882
  185TIP3    H1  561   1.769   1.141   2.865
  185TIP3    H2  562   1.896   1.192   2.930
  186TIP3   OH2  563   2.149   2.480   0.717
  186TIP3    H1  564   2.098   2.535   0.658
  186TIP3    H2  565   2.142   2.523   0.802
  187TIP3   OH2  566   4.561   1.959   1.159
  187TIP3    H1  567   4.560   1.863   1.163
  187TIP3    H2  568   4.530   1.979   1.070
  188TIP3   OH2  569   3.496   4.275   0.726
  188TIP3    H1  570   3.581   4.249   0.690
  188TIP3    H2  571   3.437   4.204   0.702
  189TIP3   OH2  572   3.729   0.488   0.201
  189TIP3    H1  573   3.694   0.566   0.244
  189TIP3    H2  574   3.651   0.440   0.173
  190TIP3   OH2  575   4.678   3.090   2.589
  190TIP3    H1  576   4.638   3.173   2.563
  190TIP3    H2  577   4.612   3.024   2.566
  191TIP3   OH2  578   5.199   0.860   0.178
  191TIP3    H1  579   5.181   0.894   0.265
  191TIP3    H2  580   5.293   0.845   0.177
  192TIP3   OH2  581   0.218   2.248   0.910
  192TIP3    H1  582   0.144   2.240   0.971
  192TIP3    H2  583   0.295   2.245   0.966
  193TIP3   OH2  584   6.047   5.080   0.853
  193TIP3    H1  585   6.129   5.079   0.903
  193TIP3    H2  586   6.065   5.025   0.777
  194TIP3   OH2  587   2.155   2.212   2.662
  194TIP3    H1  588   2.139   2.271   2.736
  194TIP3    H2  589   2.068   2.177   2.641
  195TIP3   OH2  590   4.191   0.787   2.916
  195TIP3    H1  591   4.159   0.838   2.990
  195TIP3    H2  592   4.228   0.852   2.856
  196TIP3   OH2  593   6.303   3.871   2.472
  196TIP3    H1  594   6.250   3.938   2.516
  196TIP3    H2  595   6.300   3.796   2.530
  197TIP3   OH2  596   0.293   2.181   0.535
  197TIP3    H1  597   0.366   2.137   0.580
  197TIP3    H2  598   0.217   2.124   0.551
  198TIP3   OH2  599   3.995   1.019   3.851
  198TIP3    H1  600   4.069   1.019   3.912
  198TIP3    H2  601   3.918   1.033   3.907
  199TIP3   OH2  602   1.697   1.205   1.078
  199TIP3    H1  603   1.620   1.216   1.134
  199TIP3    H2  604   1.770   1.237   1.132
  200TIP3   OH2  605   0.758   1.982   1.914
  200TIP3    H1  606   0.758   1.990   2.009
  200TIP3    H2  607   0.692   1.915   1.896
  201TIP3   OH2  608   5.411   5.706   4.929
  201TIP3    H1  609   5.406   5.750   4.844
  201TIP3    H2  610   5.369   5.621   4.914
  202TIP3   OH2  611   1.117   3.524   3.107
  202TIP3    H1  612   1.077   3.481   3.184
  202TIP3    H2  613   1.073   3.483   3.032
  203TIP3   OH2  614   0.787   3.030   3.735
  203TIP3    H1  615   0.864   3.070   3.694
  203TIP3    H2  616   0.713   3.058   3.681
  204TIP3   OH2  617   2.464   3.415   0.819
  204TIP3    H1  618   2.413   3.364   0.882
  204TIP3    H2  619   2.486   3.353   0.750
  205TIP3   OH2  620   6.094   5.118   0.376
  205TIP3    H1  621   6.168   5.093   0.432
  205TIP3    H2  622   6.069   5.205   0.406
  206TIP3   OH2  623   1.497   2.929   3.934
  206TIP3    H1  624   1.540   2.844   3.922
  206TIP3    H2  625   1.558   2.993   3.898
  207TIP3   OH2  626   4.618   1.460   0.272
  207TIP3    H1  627   4.688   1.523   0.256
  207TIP3    H2  628   4.558   1.472   0.198
  208TIP3   OH2  629   6.096   2.226   0.176
  208TIP3    H1  630   6.002   2.217   0.189
  208TIP3    H2  631   6.106   2.311   0.134
  209TIP3   OH2  632   3.186   0.506   2.761
  209TIP3    H1  633   3.200   0.555   2.842
  209TIP3    H2  634   3.247   0.546   2.698
  210TIP3   OH2  635   3.200   0.822   3.986
  210TIP3    H1  636   3.280   0.875   3.985
  210TIP3    H2  637   3.217   0.751   3.925
  211TIP3   OH2  638   2.868   0.820   4.321
  211TIP3    H1  639   2.880   0.725   4.309
  211TIP3    H2  640   2.787   0.827   4.371
  212TIP3   OH2  641   1.246   0.708   1.420
  212TIP3    H1  642   1.232   0.777   1.355
  212TIP3    H2  643   1.286   0.636   1.371
  213TIP3   OH2  644   4.130   2.615   4.995
  213TIP3    H1  645   4.181   2.534   4.988
  213TIP3    H2  646   4.194   2.685   4.983
  214TIP3   OH2  647   4.485   1.719   0.177
  214TIP3    H1  648   4.448   1.696   0.262
  214TIP3    H2  649   4.493   1.636   0.131
  215TIP3   OH2  650   5.776   0.661   4.615
  215TIP3    H1  651   5.841   0.639   4.682
  215TIP3    H2  652   5.800   0.750   4.587
  216TIP3   OH2  653   6.117   4.841   2.173
  216TIP3    H1  654   6.127   4.936   2.180
  216TIP3    H2  655   6.036   4.829   2.123
  217TIP3   OH2  656   2.907   2.035   2.124
  217TIP3    H1  657   2.821   2.022   2.083
  217TIP3    H2  658   2.891   2.099   2.193
  218TIP3   OH2  659   6.091   3.088   3.258
  218TIP3    H1  660   6.067   3.085   3.351
  218TIP3    H2  661   6.180   3.051   3.256
  219TIP3   OH2  662   4.967   2.813   4.692
  219TIP3    H1  663   4.886   2.770   4.665
  219TIP3    H2  664   5.013   2.832   4.611
  220TIP3   OH2  665   1.509   1.884   0.906
  220TIP3    H1  666   1.600   1.895   0.931
  220TIP3    H2  667   1.493   1.789   0.915
  221TIP3   OH2  668   0.621   5.384   4.444
  221TIP3    H1  669   0.697   5.418   4.396
  221TIP3    H2  670   0.548   5.437   4.414
  222TIP3   OH2  671   0.163   4.341   0.783
  222TIP3    H1  672   0.236   4.368   0.839
  222TIP3    H2  673   0.203   4.281   0.720
  223TIP3   OH2  674   2.841   2.056   3.966
  223TIP3    H1  675   2.935   2.053   3.981
  223TIP3    H2  676   2.806   1.983   4.017
  224TIP3   OH2  677   4.654   5.464   3.919
  224TIP3    H1  678   4.570   5.432   3.887
  224TIP3    H2  679   4.653   5.558   3.901
  225TIP3   OH2  680   2.187   5.247   4.049
  225TIP3    H1  681   2.167   5.233   4.141
  225TIP3    H2  682   2.225   5.334   4.046
  226TIP3   OH2  683   5.856   3.767   4.212
  226TIP3    H1  684   5.805   3.690   4.186
  226TIP3    H2  685   5.946   3.746   4.185
  227TIP3   OH2  686   4.792   1.329   4.559
  227TIP3    H1  687   4.854   1.258   4.543
  227TIP3    H2  688   4.707   1.285   4.571
  228TIP3   OH2  689   4.329   2.394   3.290
  228TIP3    H1  690   4.256   2.430   3.240
  228TIP3    H2  691   4.317   2.300   3.287
  229TIP3   OH2  692   1.298   2.653   0.341
  229TIP3    H1  693   1.244   2.718   0.295
  229TIP3    H2  694   1.334   2.598   0.271
  230TIP3   OH2  695   0.632   5.710   1.063
  230TIP3    H1  696   0.575   5.773   1.107
  230TIP3    H2  697   0.595   5.702   0.975
  231TIP3   OH2  698   4.093   3.877   1.391
  231TIP3    H1  699   4.076   3.903   1.300
  231TIP3    H2  700   4.185   3.851   1.391
  232TIP3   OH2  701   3.402   2.528   5.071
  232TIP3    H1  702   3.480   2.532   5.016
  232TIP3    H2  703   3.369   2.438   5.060
  233TIP3   OH2  704   4.334   1.596   4.102
  233TIP3    H1  705   4.404   1.612   4.038
  233TIP3    H2  706   4.269   1.664   4.083
  234TIP3   OH2  707   4.928   0.496   3.993
  234TIP3    H1  708   4.865   0.476   4.063
  234TIP3    H2  709   4.938   0.591   3.996
  235TIP3   OH2  710   4.272   0.296   1.491
  235TIP3    H1  711   4.350   0.352   1.497
  235TIP3    H2  712   4.297   0.216   1.536
  236TIP3   OH2  713   0.927   4.092   4.489
  236TIP3    H1  714   0.858   4.157   4.504
  236TIP3    H2  715   0.940   4.051   4.575
  237TIP3   OH2  716   1.428   3.348   4.363
  237TIP3    H1  717   1.429   3.279   4.296
  237TIP3    H2  718   1.484   3.416   4.328
  238TIP3   OH2  719   6.146   0.543   0.928
  238TIP3    H1  720   6.085   0.599   0.881
  238TIP3    H2  721   6.216   0.602   0.957
  239TIP3   OH2  722   0.861   2.978   0.053
  239TIP3    H1  723   0.832   2.943  -0.031
  239TIP3    H2  724   0.797   3.046   0.074
  240TIP3   OH2  725   2.641   2.268   2.221
  240TIP3    H1  726   2.597   2.188   2.252
  240TIP3    H2  727   2.675   2.309   2.301
  241TIP3   OH2  728   1.764   0.747   3.252
  241TIP3    H1  729   1.690   0.694   3.222
  241TIP3    H2  730   1.839   0.688   3.248
  242TIP3   OH2  731   5.819   3.176   0.119
  242TIP3    H1  732   5.808   3.120   0.195
  242TIP3    H2  733   5.798   3.264   0.151
  243TIP3   OH2  734   5.653   0.561   3.079
  243TIP3    H1  735   5.701   0.493   3.127
  243TIP3    H2  736   5.663   0.537   2.987
  244TIP3   OH2  737   1.606   5.313   3.886
  244TIP3    H1  738   1.675   5.308   3.952
  244TIP3    H2  739   1.649   5.351   3.809
  245TIP3   OH2  740   3.701   1.252   0.671
  245TIP3    H1  741   3.795   1.272   0.661
  245TIP3    H2  742   3.686   1.258   0.765
  246TIP3   OH2  743   1.851   1.499   4.477
  246TIP3    H1  744   1.794   1.541   4.412
  246TIP3    H2  745   1.790   1.450   4.533
  247TIP3   OH2  746   2.881   5.029   4.759
  247TIP3    H1  747   2.938   4.953   4.748
  247TIP3    H2  748   2.796   4.993   4.783
  248TIP3   OH2  749   3.689   5.046   3.316
  248TIP3    H1  750   3.762   5.081   3.368
  248TIP3    H2  751   3.611   5.075   3.362
  249TIP3   OH2  752   1.237   1.085   3.119
  249TIP3    H1  753   1.303   1.152   3.135
  249TIP3    H2  754   1.239   1.071   3.024
  250TIP3   OH2  755   3.509   4.035   4.222
  250TIP3    H1  756   3.589   4.060   4.176
  250TIP3    H2  757   3.441   4.087   4.181
  251TIP3   OH2  758   5.910   2.743   4.808
  251TIP3    H1  759   5.861   2.661   4.795
  251TIP3    H2  760   5.929   2.745   4.901
  252TIP3   OH2  761   0.981   4.133   1.170
  252TIP3    H1  762   0.921   4.206   1.184
  252TIP3    H2  763   1.028   4.124   1.253
  253TIP3   OH2  764   4.961   1.709   3.544
  253TIP3    H1  765   4.972   1.636   3.605
  253TIP3    H2  766   4.984   1.673   3.459
  254TIP3   OH2  767   5.662   5.272   2.771
  254TIP3    H1  768   5.657   5.364   2.744
  254TIP3    H2  769   5.696   5.276   2.861
  255TIP3   OH2  770   3.770   2.539   1.719
  255TIP3    H1  771   3.703   2.581   1.665
  255TIP3    H2  772   3.733   2.454   1.741
  256TIP3   OH2  773   3.614   5.278   4.811
  256TIP3    H1  774   3.625   5.355   4.755
  256TIP3    H2  775   3.654   5.303   4.894
  257TIP3   OH2  776   6.343   3.219   2.049
  257TIP3    H1  777   6.337   3.205   2.143
  257TIP3    H2  778   6.293   3.147   2.010
  258TIP3   OH2  779   4.430   3.162   3.914
  258TIP3    H1  780   4.522   3.180   3.896
  258TIP3    H2  781   4.417   3.194   4.004
  259TIP3   OH2  782   0.300   3.067   2.137
  259TIP3    H1  783   0.206   3.060   2.121
  259TIP3    H2  784   0.321   3.158   2.115
  260TIP3   OH2  785   0.401   0.518   0.592
  260TIP3    H1  786   0.452   0.457   0.644
  260TIP3    H2  787   0.466   0.574   0.550
  261TIP3   OH2  788   3.449   2.188   4.547
  261TIP3    H1  789   3.481   2.178   4.457
  261TIP3    H2  790   3.491   2.268   4.579
  262TIP3   OH2  791   4.699   1.016   1.453
  262TIP3    H1  792   4.697   0.946   1.388
  262TIP3    H2  793   4.619   1.067   1.435
  263TIP3   OH2  794   0.910   5.245   5.026
  263TIP3    H1  795   0.987   5.279   4.980
  263TIP3    H2  796   0.869   5.185   4.964
  264TIP3   OH2  797   4.770   4.621   4.393
  264TIP3    H1  798   4.856   4.654   4.368
  264TIP3    H2  799   4.749   4.557   4.325
  265TIP3   OH2  800   3.116   2.419   1.629
  265TIP3    H1  801   3.060   2.418   1.706
  265TIP3    H2  802   3.145   2.328   1.620
  266TIP3   OH2  803   4.888   4.104   2.491
  266TIP3    H1  804   4.975   4.066   2.480
  266TIP3    H2  805   4.903   4.183   2.544
  267TIP3   OH2  806   0.338   1.296   1.926
  267TIP3    H1  807   0.299   1.232   1.986
  267TIP3    H2  808   0.422   1.319   1.967
  268TIP3   OH2  809   2.253   5.532   3.114
  268TIP3    H1  810   2.182   5.525   3.050
  268TIP3    H2  811   2.288   5.444   3.121
  269TIP3   OH2  812   3.233   4.495   0.901
  269TIP3    H1  813   3.175   4.541   0.962
  269TIP3    H2  814   3.182   4.421   0.870
  270TIP3   OH2  815   1.983   3.713   2.158
  270TIP3    H1  816   1.979   3.634   2.104
  270TIP3    H2  817   2.077   3.727   2.173
  271TIP3   OH2  818   1.887   4.628   0.118
  271TIP3    H1  819   1.886   4.543   0.162
  271TIP3    H2  820   1.797   4.659   0.122
  272TIP3   OH2  821   0.126   1.572   5.065
  272TIP3    H1  822   0.124   1.478   5.046
  272TIP3    H2  823   0.075   1.611   4.994
  273TIP3   OH2  824   1.812   0.817   4.390
  273TIP3    H1  825   1.780   0.765   4.316
  273TIP3    H2  826   1.878   0.763   4.431
  274TIP3   OH2  827   2.227   3.887   3.784
  274TIP3    H1  828   2.213   3.802   3.744
  274TIP3    H2  829   2.301   3.874   3.843
  275TIP3   OH2  830   2.501   2.481   1.824
  275TIP3    H1  831   2.587   2.455   1.857
  275TIP3    H2  832   2.519   2.519   1.738
  276TIP3   OH2  833   2.103   0.035   3.164
  276TIP3    H1  834   2.144  -0.009   3.089
  276TIP3    H2  835   2.062   0.113   3.127
  277TIP3   OH2  836   2.463   0.524   3.517
  277TIP3    H1  837   2.449   0.619   3.522
  277TIP3    H2  838   2.540   0.509   3.572
  278TIP3   OH2  839   3.847   0.723   3.369
  278TIP3    H1  840   3.883   0.636   3.388
  278TIP3    H2  841   3.752   0.711   3.375
  279TIP3   OH2  842   3.071   2.943   3.754
  279TIP3    H1  843   3.068   3.020   3.812
  279TIP3    H2  844   3.101   2.872   3.811
  280TIP3   OH2  845   4.257   0.294   4.081
  280TIP3    H1  846   4.251   0.365   4.017
  280TIP3    H2  847   4.184   0.236   4.059
  281TIP3   OH2  848   3.977   0.698   1.703
  281TIP3    H1  849   3.895   0.701   1.654
  281TIP3    H2  850   4.011   0.609   1.688
  282TIP3   OH2  851   2.240   4.770   4.211
  282TIP3    H1  852   2.312   4.817   4.170
  282TIP3    H2  853   2.162   4.795   4.161
  283TIP3   OH2  854   5.661   4.498   1.183
  283TIP3    H1  855   5.740   4.547   1.159
  283TIP3    H2  856   5.626   4.465   1.100
  284TIP3   OH2  857   1.083   5.025   0.256
  284TIP3    H1  858   1.178   5.014   0.260
  284TIP3    H2  859   1.065   5.043   0.164
  285TIP3   OH2  860   5.890   1.514   2.785
  285TIP3    H1  861   5.916   1.438   2.733
  285TIP3    H2  862   5.795   1.506   2.792
  286TIP3   OH2  863   1.355   5.015   0.311
  286TIP3    H1  864   1.383   5.105   0.292
  286TIP3    H2  865   1.392   4.997   0.397
  287TIP3   OH2  866   1.681   5.970   0.008
  287TIP3    H1  867   1.703   5.927   0.091
  287TIP3    H2  868   1.686   6.063   0.028
  288TIP3   OH2  869   2.629   4.071   1.739
  288TIP3    H1  870   2.625   4.036   1.829
  288TIP3    H2  871   2.538   4.081   1.714
  289TIP3   OH2  872   1.391   1.708   3.324
  289TIP3    H1  873   1.376   1.721   3.231
  289TIP3    H2  874   1.364   1.791   3.364
  290TIP3   OH2  875   0.327   1.898   2.179
  290TIP3    H1  876   0.300   1.953   2.253
  290TIP3    H2  877   0.322   1.955   2.103
  291TIP3   OH2  878   3.473   4.764   1.251
  291TIP3    H1  879   3.439   4.762   1.161
  291TIP3    H2  880   3.560   4.803   1.243
  292TIP3   OH2  881   0.741   0.703   1.973
  292TIP3    H1  882   0.817   0.649   1.951
  292TIP3    H2  883   0.677   0.642   2.008
  293TIP3   OH2  884   4.503   5.442   4.678
  293TIP3    H1  885   4.497   5.348   4.660
  293TIP3    H2  886   4.597   5.459   4.684
  294TIP3   OH2  887   1.550   2.215   2.463
  294TIP3    H1  888   1.552   2.130   2.506
  294TIP3    H2  889   1.536   2.278   2.534
  295TIP3   OH2  890   3.130   2.400   2.419
  295TIP3    H1  891   3.126   2.402   2.514
  295TIP3    H2  892   3.208   2.349   2.398
  296TIP3   OH2  893   1.254   1.832   3.050
  296TIP3    H1  894   1.225   1.859   2.963
  296TIP3    H2  895   1.183   1.777   3.084
  297TIP3   OH2  896   2.700   4.712   2.991
  297TIP3    H1  897   2.698   4.656   2.913
  297TIP3    H2  898   2.783   4.759   2.985
  298TIP3   OH2  899   3.438   3.315   2.366
  298TIP3    H1  900   3.382   3.315   2.444
  298TIP3    H2  901   3.432   3.405   2.333
  299TIP3   OH2  902   1.074   2.343   2.191
  299TIP3    H1  903   1.123   2.425   2.191
  299TIP3    H2  904   0.983   2.369   2.202
  300TIP3   OH2  905   1.725   5.407   2.914
  300TIP3    H1  906   1.686   5.322   2.898
  300TIP3    H2  907   1.654   5.460   2.952
  301TIP3   OH2  908   4.729   4.927   1.765
  301TIP3    H1  909   4.646   4.917   1.719
  301TIP3    H2  910   4.721   4.870   1.842
  302TIP3   OH2  911   5.711   5.685   0.399
  302TIP3    H1  912   5.767   5.646   0.332
  302TIP3    H2  913   5.761   5.675   0.480
  303TIP3   OH2  914   2.349   0.679   4.454
  303TIP3    H1  915   2.441   0.702   4.444
  303TIP3    H2  916   2.318   0.663   4.365
  304TIP3   OH2  917   0.483   3.517   3.443
  304TIP3    H1  918   0.576   3.519   3.467
  304TIP3    H2  919   0.470   3.596   3.392
  305TIP3   OH2  920   5.881   4.587   3.216
  305TIP3    H1  921   5.854   4.496   3.207
  305TIP3    H2  922   5.976   4.583   3.225
  306TIP3   OH2  923   1.219   5.821   0.681
  306TIP3    H1  924   1.181   5.742   0.644
  306TIP3    H2  925   1.279   5.790   0.749
  307TIP3   OH2  926   3.603   2.828   3.065
  307TIP3    H1  927   3.646   2.888   3.004
  307TIP3    H2  928   3.514   2.820   3.032
  308TIP3   OH2  929   4.745   4.783   3.974
  308TIP3    H1  930   4.720   4.824   4.057
  308TIP3    H2  931   4.799   4.708   3.999
  309TIP3   OH2  932   4.038   5.903   4.049
  309TIP3    H1  933   4.034   5.961   4.125
  309TIP3    H2  934   3.947   5.891   4.023
  310TIP3   OH2  935   1.123   4.561   3.439
  310TIP3    H1  936   1.150   4.531   3.526
  310TIP3    H2  937   1.130   4.482   3.384
  311TIP3   OH2  938   2.537   2.809   3.798
  311TIP3    H1  939   2.454   2.805   3.846
  311TIP3    H2  940   2.556   2.902   3.791
  312TIP3   OH2  941   5.451   2.416   1.272
  312TIP3    H1  942   5.480   2.370   1.351
  312TIP3    H2  943   5.526   2.469   1.246
  313TIP3   OH2  944   5.777   2.032   0.659
  313TIP3    H1  945   5.831   2.085   0.717
  313TIP3    H2  946   5.753   1.956   0.711
  314TIP3   OH2  947   3.589   4.323   3.686
  314TIP3    H1  948   3.646   4.307   3.762
  314TIP3    H2  949   3.502   4.295   3.715
  315TIP3   OH2  950   3.840   4.283   3.890
  315TIP3    H1  951   3.758   4.279   3.940
  315TIP3    H2  952   3.908   4.280   3.957
  316TIP3   OH2  953   2.584   5.743   3.690
  316TIP3    H1  954   2.534   5.782   3.761
  316TIP3    H2  955   2.549   5.654   3.683
  317TIP3   OH2  956   1.914   4.067   0.676
  317TIP3    H1  957   1.899   4.000   0.742
  317TIP3    H2  958   1.829   4.110   0.664
  318TIP3   OH2  959   4.061   1.288   0.626
  318TIP3    H1  960   4.153   1.261   0.636
  318TIP3    H2  961   4.050   1.359   0.690
  319TIP3   OH2  962   1.621   5.940   3.398
  319TIP3    H1  963   1.703   5.912   3.438
  319TIP3    H2  964   1.646   5.994   3.324
  320TIP3   OH2  965   1.083   3.589   3.507
  320TIP3    H1  966   1.125   3.674   3.502
  320TIP3    H2  967   1.132   3.542   3.575
  321TIP3   OH2  968   3.603   1.011   1.493
  321TIP3    H1  969   3.634   1.069   1.563
  321TIP3    H2  970   3.651   0.930   1.506
  322TIP3   OH2  971   4.838   1.606   1.491
  322TIP3    H1  972   4.917   1.569   1.530
  322TIP3    H2  973   4.868   1.681   1.440
  323TIP3   OH2  974   1.850   2.682   2.155
  323TIP3    H1  975   1.815   2.764   2.188
  323TIP3    H2  976   1.848   2.691   2.060
  324TIP3   OH2  977   5.848   1.093   3.853
  324TIP3    H1  978   5.867   1.183   3.880
  324TIP3    H2  979   5.757   1.096   3.823
  325TIP3   OH2  980   3.496   4.070   1.307
  325TIP3    H1  981   3.446   3.992   1.328
  325TIP3    H2  982   3.431   4.134   1.277
  326TIP3   OH2  983   0.712   1.950   2.188
  326TIP3    H1  984   0.737   1.933   2.278
  326TIP3    H2  985   0.675   1.866   2.158
  327TIP3   OH2  986   2.707   1.674   1.277
  327TIP3    H1  987   2.713   1.724   1.196
  327TIP3    H2  988   2.781   1.704   1.330
  328TIP3   OH2  989   3.232   5.493   1.219
  328TIP3    H1  990   3.269   5.580   1.204
  328TIP3    H2  991   3.242   5.448   1.134
  329TIP3   OH2  992   5.981   5.790   2.678
  329TIP3    H1  993   5.895   5.831   2.684
  329TIP3    H2  994   5.981   5.724   2.748
  330TIP3   OH2  995   5.336   0.057   4.156
  330TIP3    H1  996   5.425   0.021   4.150
  330TIP3    H2  997   5.306   0.031   4.243
  331TIP3   OH2  998   5.463   3.281   2.342
  331TIP3    H1  999   5.424   3.368   2.334
  331TIP3    H2 1000   5.546   3.295   2.387
  332TIP3   OH2 1001   6.304   3.857   1.299
  332TIP3    H1 1002   6.353   3.790   1.346
  332TIP3    H2 1003   6.366   3.892   1.235
  333TIP3   OH2 1004   3.950   5.220   1.910
  333TIP3    H1 1005   3.872   5.176   1.943
  333TIP3    H2 1006   3.917   5.284   1.846
  334TIP3   OH2 1007   3.087   5.345   0.525
  334TIP3    H1 1008   3.012   5.385   0.569
  334TIP3    H2 1009   3.131   5.296   0.594
  335TIP3   OH2 1010   2.468   4.887   0.988
  335TIP3    H1 1011   2.452   4.982   0.991
  335TIP3    H2 1012   2.559   4.880   0.960
  336TIP3   OH2 1013   1.896   4.916   2.599
  336TIP3    H1 1014   1.952   4.877   2.532
  336TIP3    H2 1015   1.955   4.969   2.652
  337TIP3   OH2 1016   1.327   1.279   1.311
  337TIP3    H1 1017   1.309   1.233   1.393
  337TIP3    H2 1018   1.298   1.219   1.243
  338TIP3   OH2 1019   5.245   4.518   5.172
  338TIP3    H1 1020   5.316   4.467   5.133
  338TIP3    H2 1021   5.280   4.607   5.177
  339TIP3   OH2 1022   2.520   3.923   3.833
  339TIP3    H1 1023   2.485   3.984   3.768
  339TIP3    H2 1024   2.614   3.937   3.831
  340TIP3   OH2 1025   4.821   5.351   0.757
  340TIP3    H1 1026   4.749   5.293   0.780
  340TIP3    H2 1027   4.796   5.436   0.794
  341TIP3   OH2 1028   2.995   1.759   0.828
  341TIP3    H1 1029   3.079   1.716   0.842
  341TIP3    H2 1030   3.006   1.845   0.869
  342TIP3   OH2 1031   0.644   5.088   2.074
  342TIP3    H1 1032   0.646   5.000   2.036
  342TIP3    H2 1033   0.569   5.130   2.032
  343TIP3   OH2 1034   4.377   3.284   5.123
  343TIP3    H1 1035   4.288   3.308   5.151
  343TIP3    H2 1036   4.420   3.255   5.203
  344TIP3   OH2 1037   0.288   4.910   2.949
  344TIP3    H1 1038   0.239   4.851   2.892
  344TIP3    H2 1039   0.375   4.917   2.909
  345TIP3   OH2 1040   5.336   1.406   1.849
  345TIP3    H1 1041   5.374   1.328   1.890
  345TIP3    H2 1042   5.379   1.480   1.891
  346TIP3   OH2 1043   2.922   4.517   1.722
  346TIP3    H1 1044   2.858   4.496   1.791
  346TIP3    H2 1045   2.993   4.561   1.768
  347TIP3   OH2 1046   6.048   2.239   4.350
  347TIP3    H1 1047   5.976   2.176   4.345
  347TIP3    H2 1048   6.020   2.301   4.417
  348TIP3   OH2 1049   0.943   5.290   3.202
  348TIP3    H1 1050   0.985   5.205   3.193
  348TIP3    H2 1051   1.012   5.348   3.235
  349TIP3   OH2 1052   1.049   3.966   0.576
  349TIP3    H1 1053   1.067   3.938   0.486
  349TIP3    H2 1054   0.959   3.999   0.574
  350TIP3   OH2 1055   0.388   4.674   4.926
  350TIP3    H1 1056   0.380   4.763   4.962
  350TIP3    H2 1057   0.310   4.662   4.874
  351TIP3   OH2 1058   3.340   1.045   1.535
  351TIP3    H1 1059   3.428   1.015   1.515
  351TIP3    H2 1060   3.293   1.039   1.451
  352TIP3   OH2 1061   2.600   0.718   1.139
  352TIP3    H1 1062   2.516   0.686   1.105
  352TIP3    H2 1063   2.606   0.679   1.227
  353TIP3   OH2 1064   4.651   4.302   4.492
  353TIP3    H1 1065   4.693   4.217   4.500
  353TIP3    H2 1066   4.667   4.329   4.401
  354TIP3   OH2 1067   3.473   3.823   0.985
  354TIP3    H1 1068   3.388   3.779   0.982
  354TIP3    H2 1069   3.537   3.752   0.990
  355TIP3   OH2 1070   5.895   2.138   4.040
  355TIP3    H1 1071   5.878   2.056   4.085
  355TIP3    H2 1072   5.988   2.135   4.018
  356TIP3   OH2 1073   2.792   0.002   5.129
  356TIP3    H1 1074   2.841  -0.075   5.160
  356TIP3    H2 1075   2.795   0.063   5.202
  357TIP3   OH2 1076   4.029   4.027   4.080
  357TIP3    H1 1077   4.099   4.093   4.082
  357TIP3    H2 1078   4.054   3.968   4.008
  358TIP3   OH2 1079   5.345   1.476   0.657
  358TIP3    H1 1080   5.434   1.450   0.633
  358TIP3    H2 1081   5.319   1.537   0.588
  359TIP3   OH2 1082   1.132   0.311   1.291
  359TIP3    H1 1083   1.158   0.283   1.378
  359TIP3    H2 1084   1.173   0.247   1.232
  360TIP3   OH2 1085   5.746   2.511   3.660
  360TIP3    H1 1086   5.802   2.443   3.699
  360TIP3    H2 1087   5.804   2.558   3.601
  361TIP3   OH2 1088   5.177   4.753   3.768
  361TIP3    H1 1089   5.108   4.731   3.706
  361TIP3    H2 1090   5.157   4.700   3.845
  362TIP3   OH2 1091   0.514   3.004   4.516
  362TIP3    H1 1092   0.602   2.989   4.482
  362TIP3    H2 1093   0.514   3.097   4.542
  363TIP3   OH2 1094   5.460   0.906   2.039
  363TIP3    H1 1095   5.366   0.925   2.031
  363TIP3    H2 1096   5.483   0.938   2.126
  364TIP3   OH2 1097   1.905   1.664   0.790
  364TIP3    H1 1098   1.993   1.645   0.757
  364TIP3    H2 1099   1.897   1.611   0.870
  365TIP3   OH2 1100   3.102   3.281   0.794
  365TIP3    H1 1101   3.177   3.304   0.849
  365TIP3    H2 1102   3.118   3.325   0.711
  366TIP3   OH2 1103   3.471   2.511   0.217
  366TIP3    H1 1104   3.559   2.474   0.227
  366TIP3    H2 1105   3.479   2.570   0.142
  367TIP3   OH2 1106   2.984   4.506   2.934
  367TIP3    H1 1107   3.034   4.577   2.893
  367TIP3    H2 1108   3.049   4.459   2.987
  368TIP3   OH2 1109   3.636   0.003   3.092
  368TIP3    H1 1110   3.722   0.038   3.068
  368TIP3    H2 1111   3.648  -0.092   3.094
  369TIP3   OH2 1112   2.277   1.090   2.040
  369TIP3    H1 1113   2.308   1.146   1.969
  369TIP3    H2 1114   2.356   1.065   2.087
  370TIP3   OH2 1115   5.109   1.688   3.861
  370TIP3    H1 1116   5.097   1.615   3.923
  370TIP3    H2 1117   5.184   1.736   3.897
  371TIP3   OH2 1118   2.495   2.877   1.716
  371TIP3    H1 1119   2.540   2.927   1.784
  371TIP3    H2 1120   2.406   2.913   1.714
  372TIP3   OH2 1121   3.625   3.257   2.146
  372TIP3    H1 1122   3.570   3.267   2.224
  372TIP3    H2 1123   3.618   3.341   2.101
  373TIP3   OH2 1124   2.229   0.350   1.844
  373TIP3    H1 1125   2.240   0.382   1.754
  373TIP3    H2 1126   2.152   0.293   1.840
  374TIP3   OH2 1127   0.633   3.258   0.894
  374TIP3    H1 1128   0.553   3.211   0.870
  374TIP3    H2 1129   0.615   3.349   0.871
  375TIP3   OH2 1130   2.895   0.562   3.435
  375TIP3    H1 1131   2.960   0.608   3.487
  375TIP3    H2 1132   2.832   0.629   3.410
  376TIP3   OH2 1133   5.095   2.520   2.307
  376TIP3    H1 1134   5.135   2.470   2.379
  376TIP3    H2 1135   5.168   2.542   2.249
  377TIP3   OH2 1136   2.173   4.432   4.574
  377TIP3    H1 1137   2.149   4.364   4.512
  377TIP3    H2 1138   2.267   4.419   4.589
  378TIP3   OH2 1139   6.367   2.556   3.264
  378TIP3    H1 1140   6.275   2.583   3.271
  378TIP3    H2 1141   6.377   2.529   3.173
  379TIP3   OH2 1142   4.047   1.759   4.961
  379TIP3    H1 1143   4.004   1.843   4.973
  379TIP3    H2 1144   4.044   1.744   4.866
  380TIP3   OH2 1145   1.703   3.423   1.787
  380TIP3    H1 1146   1.703   3.435   1.692
  380TIP3    H2 1147   1.645   3.348   1.801
  381TIP3   OH2 1148   1.535   5.386   3.286
  381TIP3    H1 1149   1.618   5.346   3.260
  381TIP3    H2 1150   1.528   5.464   3.231
  382TIP3   OH2 1151   3.448   3.398   3.860
  382TIP3    H1 1152   3.427   3.421   3.950
  382TIP3    H2 1153   3.445   3.302   3.859
  383TIP3   OH2 1154   6.084   2.101   1.365
  383TIP3    H1 1155   6.075   2.021   1.314
  383TIP3    H2 1156   6.032   2.085   1.444
  384TIP3   OH2 1157   3.234   0.634   3.802
  384TIP3    H1 1158   3.328   0.615   3.797
  384TIP3    H2 1159   3.192   0.548   3.800
  385TIP3   OH2 1160   3.359   3.757   3.356
  385TIP3    H1 1161   3.396   3.703   3.287
  385TIP3    H2 1162   3.389   3.846   3.335
  386TIP3   OH2 1163   0.870   0.269   4.990
  386TIP3    H1 1164   0.921   0.279   4.910
  386TIP3    H2 1165   0.921   0.208   5.043
  387TIP3   OH2 1166   5.135   1.539   4.794
  387TIP3    H1 1167   5.057   1.577   4.834
  387TIP3    H2 1168   5.158   1.465   4.850
  388TIP3   OH2 1169   0.368   2.985   3.246
  388TIP3    H1 1170   0.369   3.064   3.301
  388TIP3    H2 1171   0.459   2.958   3.241
  389TIP3   OH2 1172   1.196   1.867   3.666
  389TIP3    H1 1173   1.291   1.865   3.670
  389TIP3    H2 1174   1.173   1.805   3.597
  390TIP3   OH2 1175   1.683   3.729   2.617
  390TIP3    H1 1176   1.622   3.763   2.552
  390TIP3    H2 1177   1.639   3.652   2.655
  391TIP3   OH2 1178   3.469   5.145   3.700
  391TIP3    H1 1179   3.467   5.175   3.790
  391TIP3    H2 1180   3.561   5.122   3.684
  392TIP3   OH2 1181   2.690   5.099   4.391
  392TIP3    H1 1182   2.693   5.125   4.483
  392TIP3    H2 1183   2.780   5.113   4.359
  393TIP3   OH2 1184   5.128   2.992   0.276
  393TIP3    H1 1185   5.155   3.029   0.192
  393TIP3    H2 1186   5.122   3.068   0.334
  394TIP3   OH2 1187   2.220   2.554   3.319
  394TIP3    H1 1188   2.127   2.566   3.335
  394TIP3    H2 1189   2.224   2.494   3.244
  395TIP3   OH2 1190   1.577   2.620   1.351
  395TIP3    H1 1191   1.488   2.600   1.381
  395TIP3    H2 1192   1.633   2.587   1.421
  396TIP3   OH2 1193   1.517   2.991   0.940
  396TIP3    H1 1194   1.503   2.897   0.934
  396TIP3    H2 1195   1.542   3.017   0.851
  397TIP3   OH2 1196   3.138   4.875   3.904
  397TIP3    H1 1197   3.126   4.906   3.814
  397TIP3    H2 1198   3.228   4.840   3.906
  398TIP3   OH2 1199   5.349   1.715   3.194
  398TIP3    H1 1200   5.290   1.721   3.119
  398TIP3    H2 1201   5.428   1.673   3.159
  399TIP3   OH2 1202   1.433   1.114   4.739
  399TIP3    H1 1203   1.521   1.151   4.727
  399TIP3    H2 1204   1.410   1.079   4.654
  400TIP3   OH2 1205   4.872   3.226   0.121
  400TIP3    H1 1206   4.785   3.199   0.150
  400TIP3    H2 1207   4.920   3.245   0.202
  401TIP3   OH2 1208   2.930   4.335   3.269
  401TIP3    H1 1209   3.014   4.379   3.254
  401TIP3    H2 1210   2.954   4.245   3.289
  402TIP3   OH2 1211   4.772   0.357   0.355
  402TIP3    H1 1212   4.833   0.338   0.426
  402TIP3    H2 1213   4.824   0.352   0.276
  403TIP3   OH2 1214   2.554   1.048   3.427
  403TIP3    H1 1215   2.509   1.093   3.356
  403TIP3    H2 1216   2.638   1.093   3.435
  404TIP3   OH2 1217   1.222   1.212   2.668
  404TIP3    H1 1218   1.304   1.165   2.651
  404TIP3    H2 1219   1.177   1.214   2.584
  405TIP3   OH2 1220   1.239   4.555   1.255
  405TIP3    H1 1221   1.185   4.477   1.267
  405TIP3    H2 1222   1.176   4.628   1.255
  406TIP3   OH2 1223   2.186   3.229   2.667
  406TIP3    H1 1224   2.154   3.150   2.623
  406TIP3    H2 1225   2.253   3.264   2.608
  407TIP3   OH2 1226   6.087   3.987   1.165
  407TIP3    H1 1227   6.016   3.933   1.129
  407TIP3    H2 1228   6.141   3.924   1.213
  408TIP3   OH2 1229   0.564   4.878   4.118
  408TIP3    H1 1230   0.476   4.840   4.128
  408TIP3    H2 1231   0.618   4.831   4.181
  409TIP3   OH2 1232   4.169   1.386   4.042
  409TIP3    H1 1233   4.244   1.442   4.061
  409TIP3    H2 1234   4.162   1.387   3.946
  410TIP3   OH2 1235   4.766   1.771   2.213
  410TIP3    H1 1236   4.826   1.708   2.171
  410TIP3    H2 1237   4.742   1.831   2.143
  411TIP3   OH2 1238   3.718   1.875   2.272
  411TIP3    H1 1239   3.749   1.815   2.340
  411TIP3    H2 1240   3.709   1.819   2.194
  412TIP3   OH2 1241   0.373   1.851   4.578
  412TIP3    H1 1242   0.375   1.923   4.642
  412TIP3    H2 1243   0.332   1.890   4.500
  413TIP3   OH2 1244   3.848   3.840   2.840
  413TIP3    H1 1245   3.755   3.826   2.856
  413TIP3    H2 1246   3.880   3.755   2.810
  414TIP3   OH2 1247   0.999   0.067   1.548
  414TIP3    H1 1248   1.040  -0.019   1.558
  414TIP3    H2 1249   1.072   0.128   1.542
  415TIP3   OH2 1250   2.477   1.965   3.038
  415TIP3    H1 1251   2.515   2.018   2.969
  415TIP3    H2 1252   2.396   2.010   3.061
  416TIP3   OH2 1253   1.009   1.621  -0.025
  416TIP3    H1 1254   1.034   1.539   0.017
  416TIP3    H2 1255   1.062   1.688   0.019
  417TIP3   OH2 1256   5.503   3.778   4.724
  417TIP3    H1 1257   5.490   3.728   4.643
  417TIP3    H2 1258   5.421   3.766   4.772
  418TIP3   OH2 1259   3.478   0.728   1.522
  418TIP3    H1 1260   3.520   0.786   1.458
  418TIP3    H2 1261   3.447   0.654   1.470
  419TIP3   OH2 1262   0.474   3.121   4.205
  419TIP3    H1 1263   0.557   3.109   4.252
  419TIP3    H2 1264   0.472   3.050   4.142
  420TIP3   OH2 1265   3.897   2.246   2.937
  420TIP3    H1 1266   3.829   2.179   2.926
  420TIP3    H2 1267   3.958   2.230   2.865
  421TIP3   OH2 1268   0.258   3.349   2.874
  421TIP3    H1 1269   0.248   3.327   2.967
  421TIP3    H2 1270   0.352   3.341   2.858
  422TIP3   OH2 1271   6.019   0.399   0.372
  422TIP3    H1 1272   6.086   0.448   0.419
  422TIP3    H2 1273   5.980   0.463   0.312
  423TIP3   OH2 1274   1.354   1.222   5.053
  423TIP3    H1 1275   1.394   1.192   4.972
  423TIP3    H2 1276   1.273   1.266   5.026
  424TIP3   OH2 1277   4.155   1.403   4.819
  424TIP3    H1 1278   4.214   1.479   4.820
  424TIP3    H2 1279   4.134   1.391   4.726
  425TIP3   OH2 1280   1.911   1.821   5.179
  425TIP3    H1 1281   1.959   1.871   5.113
  425TIP3    H2 1282   1.836   1.876   5.201
  426TIP3   OH2 1283   1.906   5.963   3.243
  426TIP3    H1 1284   1.925   5.922   3.328
  426TIP3    H2 1285   1.934   6.054   3.254
  427TIP3   OH2 1286   5.099   5.555   2.158
  427TIP3    H1 1287   5.183   5.571   2.201
  427TIP3    H2 1288   5.049   5.504   2.222
  428TIP3   OH2 1289   0.155   5.643   1.410
  428TIP3    H1 1290   0.182   5.586   1.482
  428TIP3    H2 1291   0.214   5.718   1.416
  429TIP3   OH2 1292   6.228   5.650   1.503
  429TIP3    H1 1293   6.308   5.693   1.472
  429TIP3    H2 1294   6.168   5.652   1.429
  430TIP3   OH2 1295   0.377   4.122   0.245
  430TIP3    H1 1296   0.289   4.155   0.261
  430TIP3    H2 1297   0.364   4.032   0.216
  431TIP3   OH2 1298   0.649   3.003   3.265
  431TIP3    H1 1299   0.680   3.093   3.279
  431TIP3    H2 1300   0.722   2.948   3.293
  432TIP3   OH2 1301   1.006   4.729   2.688
  432TIP3    H1 1302   0.962   4.657   2.733
  432TIP3    H2 1303   0.938   4.769   2.634
  433TIP3   OH2 1304   2.274   3.552   1.277
  433TIP3    H1 1305   2.274   3.524   1.186
  433TIP3    H2 1306   2.347   3.504   1.317
  434TIP3   OH2 1307   2.376   2.053   3.801
  434TIP3    H1 1308   2.344   2.018   3.718
  434TIP3    H2 1309   2.353   1.986   3.866
  435TIP3   OH2 1310   5.246   1.303   4.684
  435TIP3    H1 1311   5.287   1.313   4.598
  435TIP3    H2 1312   5.160   1.345   4.675
  436TIP3   OH2 1313   2.469   5.803   3.955
  436TIP3    H1 1314   2.428   5.731   4.003
  436TIP3    H2 1315   2.511   5.856   4.024
  437TIP3   OH2 1316   4.782   0.620   2.410
  437TIP3    H1 1317   4.694   0.618   2.373
  437TIP3    H2 1318   4.808   0.528   2.414
  438TIP3   OH2 1319   3.359   2.009   3.217
  438TIP3    H1 1320   3.328   1.982   3.303
  438TIP3    H2 1321   3.282   2.004   3.160
  439TIP3   OH2 1322   5.692   5.981   3.753
  439TIP3    H1 1323   5.715   6.067   3.717
  439TIP3    H2 1324   5.727   5.918   3.690
  440TIP3   OH2 1325   1.279   0.950   2.881
  440TIP3    H1 1326   1.322   0.868   2.904
  440TIP3    H2 1327   1.192   0.924   2.852
  441TIP3   OH2 1328   3.809   1.089   4.987
  441TIP3    H1 1329   3.792   1.146   5.062
  441TIP3    H2 1330   3.822   1.002   5.025
  442TIP3   OH2 1331   1.501   3.832   3.011
  442TIP3    H1 1332   1.442   3.757   3.023
  442TIP3    H2 1333   1.465   3.899   3.069
  443TIP3   OH2 1334   3.593   2.206   1.047
  443TIP3    H1 1335   3.672   2.190   0.996
  443TIP3    H2 1336   3.622   2.266   1.117
  444TIP3   OH2 1337   2.152   0.514   4.971
  444TIP3    H1 1338   2.110   0.428   4.977
  444TIP3    H2 1339   2.120   0.562   5.047
  445TIP3   OH2 1340   2.943   4.567   4.965
  445TIP3    H1 1341   3.016   4.586   5.024
  445TIP3    H2 1342   2.923   4.475   4.981
  446TIP3   OH2 1343   3.579   3.885   0.065
  446TIP3    H1 1344   3.595   3.941   0.141
  446TIP3    H2 1345   3.487   3.897   0.044
  447TIP3   OH2 1346   5.047   3.695   3.093
  447TIP3    H1 1347   5.083   3.644   3.020
  447TIP3    H2 1348   4.977   3.748   3.054
  448TIP3   OH2 1349   5.451   3.726   3.031
  448TIP3    H1 1350   5.524   3.727   2.969
  448TIP3    H2 1351   5.380   3.684   2.983
  449TIP3   OH2 1352   5.835   5.886   0.265
  449TIP3    H1 1353   5.910   5.859   0.319
  449TIP3    H2 1354   5.759   5.846   0.307
  450TIP3   OH2 1355   4.048   2.285   4.738
  450TIP3    H1 1356   4.025   2.346   4.668
  450TIP3    H2 1357   4.090   2.211   4.693
  451TIP3   OH2 1358   4.755   4.284   3.453
  451TIP3    H1 1359   4.770   4.234   3.533
  451TIP3    H2 1360   4.725   4.369   3.484
  452TIP3   OH2 1361   1.112   4.077   1.390
  452TIP3    H1 1362   1.113   3.982   1.390
  452TIP3    H2 1363   1.074   4.101   1.475
  453TIP3   OH2 1364   4.740   1.953   2.001
  453TIP3    H1 1365   4.822   1.964   1.953
  453TIP3    H2 1366   4.678   2.012   1.958
  454TIP3   OH2 1367   6.140   2.521   0.175
  454TIP3    H1 1368   6.218   2.572   0.154
  454TIP3    H2 1369   6.135   2.523   0.271
  455TIP3   OH2 1370   0.085   3.140   3.499
  455TIP3    H1 1371   0.011   3.183   3.541
  455TIP3    H2 1372   0.135   3.211   3.459
  456TIP3   OH2 1373   3.369   1.517   0.544
  456TIP3    H1 1374   3.444   1.576   0.548
  456TIP3    H2 1375   3.401   1.440   0.497
  457TIP3   OH2 1376   2.942   5.658   1.179
  457TIP3    H1 1377   3.017   5.630   1.127
  457TIP3    H2 1378   2.871   5.598   1.154
  458TIP3   OH2 1379   1.649   2.952   2.208
  458TIP3    H1 1380   1.575   2.940   2.269
  458TIP3    H2 1381   1.609   2.987   2.129
  459TIP3   OH2 1382   4.154   3.233   4.143
  459TIP3    H1 1383   4.136   3.140   4.156
  459TIP3    H2 1384   4.239   3.248   4.185
  460TIP3   OH2 1385   5.575   3.667   2.761
  460TIP3    H1 1386   5.485   3.647   2.736
  460TIP3    H2 1387   5.626   3.652   2.681
  461TIP3   OH2 1388   0.836   2.641   4.623
  461TIP3    H1 1389   0.911   2.582   4.615
  461TIP3    H2 1390   0.847   2.681   4.710
  462TIP3   OH2 1391   1.182   4.592   2.395
  462TIP3    H1 1392   1.145   4.618   2.479
  462TIP3    H2 1393   1.276   4.588   2.410
  463TIP3   OH2 1394   6.100   0.094   4.500
  463TIP3    H1 1395   6.030   0.158   4.515
  463TIP3    H2 1396   6.165   0.114   4.568
  464TIP3   OH2 1397   0.713   1.687   4.546
  464TIP3    H1 1398   0.769   1.630   4.493
  464TIP3    H2 1399   0.728   1.774   4.511
  465TIP3   OH2 1400   6.336   3.568   0.667
  465TIP3    H1 1401   6.386   3.602   0.592
  465TIP3    H2 1402   6.403   3.537   0.728
  466TIP3   OH2 1403   4.479   0.907   1.248
  466TIP3    H1 1404   4.541   0.978   1.231
  466TIP3    H2 1405   4.524   0.828   1.218
  467TIP3   OH2 1406   2.840   4.218   2.180
  467TIP3    H1 1407   2.816   4.161   2.253
  467TIP3    H2 1408   2.765   4.214   2.120
  468TIP3   OH2 1409   5.611   3.020   0.929
  468TIP3    H1 1410   5.632   3.098   0.879
  468TIP3    H2 1411   5.691   2.999   0.976
  469TIP3   OH2 1412   4.237   0.341   3.137
  469TIP3    H1 1413   4.198   0.417   3.094
  469TIP3    H2 1414   4.254   0.280   3.065
  470TIP3   OH2 1415   1.953   2.175   4.485
  470TIP3    H1 1416   1.971   2.206   4.574
  470TIP3    H2 1417   1.891   2.238   4.449
  471TIP3   OH2 1418   4.676   3.053   4.669
  471TIP3    H1 1419   4.672   2.959   4.683
  471TIP3    H2 1420   4.747   3.083   4.725
  472TIP3   OH2 1421   5.827   0.983   4.685
  472TIP3    H1 1422   5.734   0.985   4.663
  472TIP3    H2 1423   5.832   0.930   4.765
  473TIP3   OH2 1424   2.047   4.320   3.604
  473TIP3    H1 1425   2.139   4.344   3.605
  473TIP3    H2 1426   2.000   4.403   3.601
  474TIP3   OH2 1427   1.390   4.205   4.432
  474TIP3    H1 1428   1.477   4.174   4.457
  474TIP3    H2 1429   1.393   4.211   4.336
  475TIP3   OH2 1430   6.273   2.686   1.546
  475TIP3    H1 1431   6.209   2.650   1.484
  475TIP3    H2 1432   6.221   2.713   1.621
  476TIP3   OH2 1433   3.781   5.207   0.261
  476TIP3    H1 1434   3.801   5.165   0.345
  476TIP3    H2 1435   3.795   5.300   0.278
  477TIP3   OH2 1436   4.795   4.871   0.165
  477TIP3    H1 1437   4.824   4.946   0.113
  477TIP3    H2 1438   4.722   4.904   0.217
  478TIP3   OH2 1439   2.446   4.268   2.645
  478TIP3    H1 1440   2.424   4.178   2.624
  478TIP3    H2 1441   2.482   4.264   2.734
  479TIP3   OH2 1442   4.744   2.353   4.606
  479TIP3    H1 1443   4.726   2.297   4.531
  479TIP3    H2 1444   4.658   2.366   4.648
  480TIP3   OH2 1445   2.994   4.611   2.001
  480TIP3    H1 1446   2.952   4.549   2.060
  480TIP3    H2 1447   2.929   4.681   1.989
  481TIP3   OH2 1448   2.072   5.515   2.059
  481TIP3    H1 1449   2.026   5.580   2.005
  481TIP3    H2 1450   2.078   5.438   2.003
  482TIP3   OH2 1451   2.781   0.830   3.636
  482TIP3    H1 1452   2.763   0.813   3.544
  482TIP3    H2 1453   2.697   0.818   3.680
  483TIP3   OH2 1454   3.763   5.670   0.950
  483TIP3    H1 1455   3.836   5.615   0.923
  483TIP3    H2 1456   3.800   5.729   1.016
  484TIP3   OH2 1457   1.756   4.979   4.383
  484TIP3    H1 1458   1.824   4.977   4.451
  484TIP3    H2 1459   1.714   4.893   4.388
  485TIP3   OH2 1460   2.964   2.676   0.390
  485TIP3    H1 1461   2.969   2.687   0.295
  485TIP3    H2 1462   2.896   2.611   0.404
  486TIP3   OH2 1463   1.118   3.341   0.166
  486TIP3    H1 1464   1.181   3.399   0.123
  486TIP3    H2 1465   1.142   3.344   0.258
  487TIP3   OH2 1466   1.129   4.729   0.040
  487TIP3    H1 1467   1.106   4.799  -0.021
  487TIP3    H2 1468   1.046   4.703   0.078
  488TIP3   OH2 1469   1.790   4.111   1.085
  488TIP3    H1 1470   1.749   4.089   1.169
  488TIP3    H2 1471   1.727   4.169   1.042
  489TIP3   OH2 1472   6.222   2.111   0.598
  489TIP3    H1 1473   6.274   2.188   0.574
  489TIP3    H2 1474   6.167   2.141   0.671
  490TIP3   OH2 1475   5.354   2.486   4.218
  490TIP3    H1 1476   5.408   2.509   4.294
  490TIP3    H2 1477   5.336   2.569   4.175
  491TIP3   OH2 1478   2.132   2.737   1.416
  491TIP3    H1 1479   2.224   2.764   1.408
  491TIP3    H2 1480   2.136   2.642   1.418
  492TIP3   OH2 1481   0.644   5.010   2.754
  492TIP3    H1 1482   0.583   5.084   2.760
  492TIP3    H2 1483   0.691   5.011   2.837
  493TIP3   OH2 1484   2.008   4.290   0.171
  493TIP3    H1 1485   1.923   4.331   0.186
  493TIP3    H2 1486   2.025   4.240   0.251
  494TIP3   OH2 1487   4.592   0.715   3.570
  494TIP3    H1 1488   4.653   0.722   3.496
  494TIP3    H2 1489   4.591   0.803   3.607
  495TIP3   OH2 1490   1.369   4.665   3.578
  495TIP3    H1 1491   1.412   4.614   3.510
  495TIP3    H2 1492   1.369   4.755   3.544
  496TIP3   OH2 1493   1.176   2.011   4.590
  496TIP3    H1 1494   1.108   1.949   4.616
  496TIP3    H2 1495   1.197   1.987   4.500
  497TIP3   OH2 1496   1.685   0.740   2.027
  497TIP3    H1 1497   1.736   0.796   2.085
  497TIP3    H2 1498   1.644   0.801   1.965
  498TIP3   OH2 1499   4.208   0.299   3.693
  498TIP3    H1 1500   4.258   0.352   3.753
  498TIP3    H2 1501   4.153   0.244   3.749
  499TIP3   OH2 1502   1.795   5.844   0.768
  499TIP3    H1 1503   1.792   5.749   0.777
  499TIP3    H2 1504   1.868   5.871   0.824
  500TIP3   OH2 1505   0.928   1.096   2.113
  500TIP3    H1 1506   0.838   1.105   2.081
  500TIP3    H2 1507   0.937   1.002   2.133
  501TIP3   OH2 1508   3.953   5.810   2.623
  501TIP3    H1 1509   3.878   5.842   2.673
  501TIP3    H2 1510   4.021   5.795   2.689
  502TIP3   OH2 1511   3.976   0.895   2.596
  502TIP3    H1 1512   4.025   0.973   2.625
  502TIP3    H2 1513   3.888   0.909   2.630
  503TIP3   OH2 1514   3.064   1.835   1.782
  503TIP3    H1 1515   3.146   1.791   1.759
  503TIP3    H2 1516   3.051   1.815   1.875
  504TIP3   OH2 1517   4.208   3.661   4.630
  504TIP3    H1 1518   4.168   3.606   4.697
  504TIP3    H2 1519   4.250   3.732   4.679
  505TIP3   OH2 1520   1.060   0.111   2.134
  505TIP3    H1 1521   1.115   0.051   2.083
  505TIP3    H2 1522   0.998   0.147   2.070
  506TIP3   OH2 1523   2.846   5.714   0.253
  506TIP3    H1 1524   2.815   5.761   0.330
  506TIP3    H2 1525   2.941   5.725   0.254
  507TIP3   OH2 1526   3.340   5.455   2.797
  507TIP3    H1 1527   3.344   5.377   2.853
  507TIP3    H2 1528   3.397   5.434   2.723
  508TIP3   OH2 1529   4.899   1.779   3.214
  508TIP3    H1 1530   4.966   1.713   3.234
  508TIP3    H2 1531   4.914   1.848   3.279
  509TIP3   OH2 1532   5.893   5.863   1.069
  509TIP3    H1 1533   5.802   5.836   1.085
  509TIP3    H2 1534   5.905   5.852   0.975
  510TIP3   OH2 1535   5.795   1.130   0.083
  510TIP3    H1 1536   5.875   1.140   0.134
  510TIP3    H2 1537   5.793   1.207   0.025
  511TIP3   OH2 1538   0.938   2.911   4.763
  511TIP3    H1 1539   1.021   2.917   4.810
  511TIP3    H2 1540   0.888   2.844   4.810
  512TIP3   OH2 1541   4.320   4.657   0.425
  512TIP3    H1 1542   4.340   4.730   0.367
  512TIP3    H2 1543   4.384   4.589   0.401
  513TIP3   OH2 1544   2.001   1.220   3.977
  513TIP3    H1 1545   2.051   1.138   3.980
  513TIP3    H2 1546   1.918   1.197   3.936
  514TIP3   OH2 1547   1.117   3.436   2.824
  514TIP3    H1 1548   1.175   3.505   2.793
  514TIP3    H2 1549   1.029   3.474   2.817
  515TIP3   OH2 1550   3.639   3.377   1.795
  515TIP3    H1 1551   3.629   3.435   1.720
  515TIP3    H2 1552   3.657   3.435   1.868
  516TIP3   OH2 1553   4.109   1.498   3.495
  516TIP3    H1 1554   4.110   1.586   3.534
  516TIP3    H2 1555   4.190   1.457   3.527
  517TIP3   OH2 1556   2.069   5.740   1.126
  517TIP3    H1 1557   2.078   5.834   1.114
  517TIP3    H2 1558   2.095   5.702   1.041
  518TIP3   OH2 1559   5.730   5.275   3.068
  518TIP3    H1 1560   5.659   5.211   3.069
  518TIP3    H2 1561   5.810   5.222   3.069
  519TIP3   OH2 1562   5.564   4.524   3.865
  519TIP3    H1 1563   5.565   4.619   3.875
  519TIP3    H2 1564   5.502   4.493   3.931
  520TIP3   OH2 1565   0.376   4.282   1.194
  520TIP3    H1 1566   0.418   4.250   1.274
  520TIP3    H2 1567   0.285   4.298   1.219
  521TIP3   OH2 1568   1.356   2.225   1.314
  521TIP3    H1 1569   1.368   2.163   1.242
  521TIP3    H2 1570   1.416   2.195   1.382
  522TIP3   OH2 1571   0.387   1.449   0.394
  522TIP3    H1 1572   0.469   1.400   0.400
  522TIP3    H2 1573   0.414   1.540   0.386
  523TIP3   OH2 1574   1.661   2.092   3.622
  523TIP3    H1 1575   1.743   2.138   3.640
  523TIP3    H2 1576   1.593   2.160   3.627
  524TIP3   OH2 1577   5.841   3.257   1.434
  524TIP3    H1 1578   5.784   3.334   1.444
  524TIP3    H2 1579   5.930   3.292   1.436
  525TIP3   OH2 1580   0.081   3.536   4.821
  525TIP3    H1 1581   0.029   3.573   4.893
  525TIP3    H2 1582   0.018   3.483   4.772
  526TIP3   OH2 1583   3.261   2.759   2.928
  526TIP3    H1 1584   3.167   2.767   2.948
  526TIP3    H2 1585   3.290   2.685   2.980
  527TIP3   OH2 1586   5.624   1.573   2.785
  527TIP3    H1 1587   5.529   1.579   2.791
  527TIP3    H2 1588   5.643   1.589   2.692
  528TIP3   OH2 1589   1.191   0.908   1.264
  528TIP3    H1 1590   1.254   0.976   1.240
  528TIP3    H2 1591   1.147   0.942   1.342
  529TIP3   OH2 1592   4.912   2.648   1.257
  529TIP3    H1 1593   4.985   2.590   1.235
  529TIP3    H2 1594   4.890   2.691   1.175
  530TIP3   OH2 1595   6.200   0.570   0.162
  530TIP3    H1 1596   6.204   0.577   0.258
  530TIP3    H2 1597   6.202   0.661   0.132
  531TIP3   OH2 1598   4.557   3.538   4.877
  531TIP3    H1 1599   4.467   3.507   4.872
  531TIP3    H2 1600   4.553   3.615   4.934
  532TIP3   OH2 1601   0.454   0.812   2.012
  532TIP3    H1 1602   0.430   0.900   1.983
  532TIP3    H2 1603   0.539   0.823   2.054
  533TIP3   OH2 1604   1.966   0.307   5.016
  533TIP3    H1 1605   1.897   0.372   5.028
  533TIP3    H2 1606   1.920   0.227   4.992
  534TIP3   OH2 1607   3.649   0.988   2.562
  534TIP3    H1 1608   3.677   1.061   2.618
  534TIP3    H2 1609   3.656   0.911   2.618
  535TIP3   OH2 1610   2.336   3.156   4.938
  535TIP3    H1 1611   2.298   3.231   4.983
  535TIP3    H2 1612   2.400   3.195   4.878
  536TIP3   OH2 1613   1.110   2.450   2.824
  536TIP3    H1 1614   1.105   2.456   2.919
  536TIP3    H2 1615   1.200   2.423   2.806
  537TIP3   OH2 1616   0.534   5.366   3.493
  537TIP3    H1 1617   0.468   5.299   3.475
  537TIP3    H2 1618   0.510   5.401   3.579
  538TIP3   OH2 1619   5.823   5.071   2.211
  538TIP3    H1 1620   5.812   5.004   2.278
  538TIP3    H2 1621   5.765   5.142   2.237
  539TIP3   OH2 1622   0.440   3.933   4.906
  539TIP3    H1 1623   0.530   3.922   4.878
  539TIP3    H2 1624   0.390   3.940   4.825
  540TIP3   OH2 1625   5.728   5.656   2.470
  540TIP3    H1 1626   5.749   5.673   2.562
  540TIP3    H2 1627   5.685   5.736   2.441
  541TIP3   OH2 1628   2.596   5.549   2.447
  541TIP3    H1 1629   2.524   5.575   2.504
  541TIP3    H2 1630   2.614   5.458   2.471
  542TIP3   OH2 1631   3.694   2.352   0.334
  542TIP3    H1 1632   3.726   2.407   0.405
  542TIP3    H2 1633   3.765   2.352   0.270
  543TIP3   OH2 1634   3.619   1.926   4.370
  543TIP3    H1 1635   3.703   1.964   4.345
  543TIP3    H2 1636   3.557   1.998   4.363
  544TIP3   OH2 1637   3.189   4.022   4.981
  544TIP3    H1 1638   3.268   4.010   5.032
  544TIP3    H2 1639   3.188   3.948   4.920
  545TIP3   OH2 1640   5.332   5.167   0.573
  545TIP3    H1 1641   5.356   5.138   0.485
  545TIP3    H2 1642   5.269   5.237   0.559
  546TIP3   OH2 1643   5.131   4.262   1.927
  546TIP3    H1 1644   5.219   4.301   1.926
  546TIP3    H2 1645   5.123   4.219   1.842
  547TIP3   OH2 1646   3.045   0.342   2.306
  547TIP3    H1 1647   3.083   0.389   2.380
  547TIP3    H2 1648   3.111   0.278   2.281
  548TIP3   OH2 1649   4.799   2.237   0.747
  548TIP3    H1 1650   4.889   2.220   0.719
  548TIP3    H2 1651   4.748   2.240   0.666
  549TIP3   OH2 1652   6.268   1.912   0.220
  549TIP3    H1 1653   6.224   1.907   0.135
  549TIP3    H2 1654   6.327   1.837   0.220
  550TIP3   OH2 1655   1.214   1.499   2.990
  550TIP3    H1 1656   1.193   1.428   3.050
  550TIP3    H2 1657   1.294   1.471   2.946
  551TIP3   OH2 1658   1.999   0.173   0.676
  551TIP3    H1 1659   1.943   0.118   0.621
  551TIP3    H2 1660   1.976   0.149   0.766
  552TIP3   OH2 1661   1.153   4.304   3.342
  552TIP3    H1 1662   1.155   4.249   3.264
  552TIP3    H2 1663   1.220   4.268   3.399
  553TIP3   OH2 1664   5.629   0.213   4.713
  553TIP3    H1 1665   5.600   0.143   4.771
  553TIP3    H2 1666   5.665   0.279   4.771
  554TIP3   OH2 1667   1.146   1.252   2.025
  554TIP3    H1 1668   1.073   1.191   2.030
  554TIP3    H2 1669   1.209   1.220   2.089
  555TIP3   OH2 1670   2.199   4.731   3.061
  555TIP3    H1 1671   2.186   4.650   3.111
  555TIP3    H2 1672   2.189   4.801   3.126
  556TIP3   OH2 1673   5.939   4.227   3.813
  556TIP3    H1 1674   6.004   4.199   3.877
  556TIP3    H2 1675   5.902   4.308   3.850
  557TIP3   OH2 1676   5.624   1.168   0.746
  557TIP3    H1 1677   5.692   1.101   0.750
  557TIP3    H2 1678   5.668   1.249   0.772
  558TIP3   OH2 1679   3.823   3.425   2.406
  558TIP3    H1 1680   3.772   3.377   2.341
  558TIP3    H2 1681   3.914   3.401   2.389
  559TIP3   OH2 1682   3.788   5.110   3.686
  559TIP3    H1 1683   3.810   5.142   3.598
  559TIP3    H2 1684   3.811   5.017   3.684
  560TIP3   OH2 1685   2.486   2.559   3.663
  560TIP3    H1 1686   2.555   2.501   3.697
  560TIP3    H2 1687   2.501   2.643   3.707
  561TIP3   OH2 1688   5.232   2.358   3.758
  561TIP3    H1 1689   5.288   2.378   3.683
  561TIP3    H2 1690   5.158   2.417   3.749
  562TIP3   OH2 1691   1.910   0.539   2.568
  562TIP3    H1 1692   1.861   0.458   2.553
  562TIP3    H2 1693   1.970   0.544   2.493
  563TIP3   OH2 1694   1.246   2.184   2.002
  563TIP3    H1 1695   1.214   2.210   1.915
  563TIP3    H2 1696   1.195   2.236   2.063
  564TIP3   OH2 1697   1.234   0.542   3.043
  564TIP3    H1 1698   1.268   0.540   2.954
  564TIP3    H2 1699   1.148   0.584   3.035
  565TIP3   OH2 1700   2.981   4.501   4.562
  565TIP3    H1 1701   2.983   4.569   4.495
  565TIP3    H2 1702   2.928   4.538   4.632
  566TIP3   OH2 1703   5.273   4.903   4.059
  566TIP3    H1 1704   5.272   4.876   3.967
  566TIP3    H2 1705   5.189   4.948   4.072
  567TIP3   OH2 1706   1.344   0.090   3.406
  567TIP3    H1 1707   1.426   0.122   3.367
  567TIP3    H2 1708   1.342  -0.003   3.383
  568TIP3   OH2 1709   1.847   2.522   0.789
  568TIP3    H1 1710   1.838   2.587   0.718
  568TIP3    H2 1711   1.888   2.447   0.748
  569TIP3   OH2 1712   4.259   0.705   2.273
  569TIP3    H1 1713   4.246   0.629   2.216
  569TIP3    H2 1714   4.226   0.779   2.222
  570TIP3   OH2 1715   1.526   4.497   4.544
  570TIP3    H1 1716   1.521   4.555   4.620
  570TIP3    H2 1717   1.588   4.429   4.569
  571TIP3   OH2 1718   1.190   4.358   0.543
  571TIP3    H1 1719   1.198   4.395   0.631
  571TIP3    H2 1720   1.254   4.287   0.541
  572TIP3   OH2 1721   0.205   5.067   0.462
  572TIP3    H1 1722   0.237   4.988   0.507
  572TIP3    H2 1723   0.265   5.136   0.492
  573TIP3   OH2 1724   0.289   5.313   0.656
  573TIP3    H1 1725   0.214   5.338   0.602
  573TIP3    H2 1726   0.351   5.386   0.647
  574TIP3   OH2 1727   4.304   5.116   3.340
  574TIP3    H1 1728   4.267   5.192   3.384
  574TIP3    H2 1729   4.368   5.153   3.279
  575TIP3   OH2 1730   4.859   3.029   3.060
  575TIP3    H1 1731   4.941   3.066   3.093
  575TIP3    H2 1732   4.887   2.965   2.995
  576TIP3   OH2 1733   5.762   3.298   1.041
  576TIP3    H1 1734   5.771   3.388   1.009
  576TIP3    H2 1735   5.674   3.295   1.079
  577TIP3   OH2 1736   5.554   5.035   4.067
  577TIP3    H1 1737   5.486   5.103   4.068
  577TIP3    H2 1738   5.505   4.953   4.075
  578TIP3   OH2 1739   2.831   0.530   4.283
  578TIP3    H1 1740   2.772   0.493   4.217
  578TIP3    H2 1741   2.865   0.454   4.330
  579TIP3   OH2 1742   0.509   1.187   1.613
  579TIP3    H1 1743   0.471   1.113   1.565
  579TIP3    H2 1744   0.435   1.245   1.629
  580TIP3   OH2 1745   1.058   4.235   4.012
  580TIP3    H1 1746   1.035   4.320   4.049
  580TIP3    H2 1747   0.974   4.195   3.989
  581TIP3   OH2 1748   2.144   1.519   0.725
  581TIP3    H1 1749   2.154   1.454   0.794
  581TIP3    H2 1750   2.181   1.478   0.647
  582TIP3   OH2 1751   4.651   0.788   2.135
  582TIP3    H1 1752   4.635   0.880   2.116
  582TIP3    H2 1753   4.659   0.746   2.050
  583TIP3   OH2 1754   0.157   0.407   0.196
  583TIP3    H1 1755   0.136   0.484   0.144
  583TIP3    H2 1756   0.073   0.362   0.207
  584TIP3   OH2 1757   5.972   5.373   0.439
  584TIP3    H1 1758   6.020   5.361   0.521
  584TIP3    H2 1759   5.998   5.459   0.408
  585TIP3   OH2 1760   2.871   1.595   4.676
  585TIP3    H1 1761   2.856   1.500   4.677
  585TIP3    H2 1762   2.785   1.632   4.656
  586TIP3   OH2 1763   0.939   5.645   1.845
  586TIP3    H1 1764   0.959   5.670   1.935
  586TIP3    H2 1765   0.846   5.623   1.845
  587TIP3   OH2 1766   1.373   4.105   0.851
  587TIP3    H1 1767   1.281   4.112   0.825
  587TIP3    H2 1768   1.377   4.151   0.935
  588TIP3   OH2 1769   4.206   3.480   0.530
  588TIP3    H1 1770   4.135   3.442   0.477
  588TIP3    H2 1771   4.162   3.524   0.602
  589TIP3   OH2 1772   2.067   0.293   3.042
  589TIP3    H1 1773   2.061   0.288   2.946
  589TIP3    H2 1774   2.144   0.348   3.058
  590TIP3   OH2 1775   4.718   1.510   4.057
  590TIP3    H1 1776   4.693   1.541   4.144
  590TIP3    H2 1777   4.813   1.524   4.053
  591TIP3   OH2 1778   3.255   2.812   0.478
  591TIP3    H1 1779   3.193   2.739   0.475
  591TIP3    H2 1780   3.230   2.868   0.404
  592TIP3   OH2 1781   4.681   2.411   1.239
  592TIP3    H1 1782   4.757   2.468   1.253
  592TIP3    H2 1783   4.625   2.460   1.179
  593TIP3   OH2 1784   1.046   1.761   3.448
  593TIP3    H1 1785   0.987   1.835   3.461
  593TIP3    H2 1786   1.063   1.759   3.354
  594TIP3   OH2 1787   2.180   2.004   4.310
  594TIP3    H1 1788   2.100   2.048   4.339
  594TIP3    H2 1789   2.236   2.003   4.387
  595TIP3   OH2 1790   2.581   2.956   0.853
  595TIP3    H1 1791   2.590   2.907   0.935
  595TIP3    H2 1792   2.487   2.962   0.838
  596TIP3   OH2 1793   2.480   6.019   1.836
  596TIP3    H1 1794   2.564   6.019   1.882
  596TIP3    H2 1795   2.472   5.931   1.800
  597TIP3   OH2 1796   5.977   2.935   0.527
  597TIP3    H1 1797   5.939   2.950   0.613
  597TIP3    H2 1798   5.933   2.856   0.495
  598TIP3   OH2 1799   2.444   2.948   0.274
  598TIP3    H1 1800   2.357   2.927   0.240
  598TIP3    H2 1801   2.495   2.971   0.197
  599TIP3   OH2 1802   4.762   3.968   0.248
  599TIP3    H1 1803   4.771   4.063   0.237
  599TIP3    H2 1804   4.678   3.957   0.293
  600TIP3   OH2 1805   2.055   4.033   3.620
  600TIP3    H1 1806   2.068   4.127   3.613
  600TIP3    H2 1807   2.111   4.006   3.694
  601TIP3   OH2 1808   4.545   4.715   4.535
  601TIP3    H1 1809   4.535   4.658   4.611
  601TIP3    H2 1810   4.615   4.674   4.484
  602TIP3   OH2 1811   2.919   0.237   1.560
  602TIP3    H1 1812   2.931   0.288   1.479
  602TIP3    H2 1813   2.830   0.255   1.587
  603TIP3   OH2 1814   6.211   0.629   4.882
  603TIP3    H1 1815   6.292   0.674   4.905
  603TIP3    H2 1816   6.165   0.619   4.965
  604TIP3   OH2 1817   0.282   0.194   1.706
  604TIP3    H1 1818   0.206   0.207   1.650
  604TIP3    H2 1819   0.342   0.141   1.654
  605TIP3   OH2 1820   3.461   0.185   1.202
  605TIP3    H1 1821   3.458   0.090   1.214
  605TIP3    H2 1822   3.528   0.214   1.263
  606TIP3   OH2 1823   2.286   4.509   0.663
  606TIP3    H1 1824   2.272   4.603   0.655
  606TIP3    H2 1825   2.256   4.488   0.751
  607TIP3   OH2 1826   0.582   5.737   4.639
  607TIP3    H1 1827   0.655   5.749   4.578
  607TIP3    H2 1828   0.546   5.825   4.650
  608TIP3   OH2 1829   2.427   3.192   2.848
  608TIP3    H1 1830   2.491   3.138   2.801
  608TIP3    H2 1831   2.355   3.203   2.786
  609TIP3   OH2 1832   6.216   2.798   3.819
  609TIP3    H1 1833   6.236   2.891   3.826
  609TIP3    H2 1834   6.288   2.755   3.866
  610TIP3   OH2 1835   6.167   4.395   3.917
  610TIP3    H1 1836   6.171   4.395   3.821
  610TIP3    H2 1837   6.181   4.303   3.941
  611TIP3   OH2 1838   6.174   4.021   4.558
  611TIP3    H1 1839   6.187   4.063   4.472
  611TIP3    H2 1840   6.256   3.975   4.574
  612TIP3   OH2 1841   6.332   2.190   2.967
  612TIP3    H1 1842   6.381   2.251   3.022
  612TIP3    H2 1843   6.317   2.114   3.022
  613TIP3   OH2 1844   4.046   4.341   1.440
  613TIP3    H1 1845   4.085   4.325   1.527
  613TIP3    H2 1846   4.106   4.297   1.379
  614TIP3   OH2 1847   1.553   3.612   4.248
  614TIP3    H1 1848   1.476   3.666   4.232
  614TIP3    H2 1849   1.618   3.644   4.186
  615TIP3   OH2 1850   0.320   2.754   0.901
  615TIP3    H1 1851   0.265   2.679   0.882
  615TIP3    H2 1852   0.386   2.720   0.962
  616TIP3   OH2 1853  -0.011   0.588   3.762
  616TIP3    H1 1854   0.053   0.655   3.739
  616TIP3    H2 1855   0.041   0.510   3.781
  617TIP3   OH2 1856   0.763   4.591   4.757
  617TIP3    H1 1857   0.777   4.646   4.680
  617TIP3    H2 1858   0.813   4.511   4.738
  618TIP3   OH2 1859   0.792   0.798   3.945
  618TIP3    H1 1860   0.753   0.860   3.884
  618TIP3    H2 1861   0.721   0.775   4.005
  619TIP3   OH2 1862   2.043   4.678   2.788
  619TIP3    H1 1863   2.134   4.703   2.800
  619TIP3    H2 1864   1.993   4.750   2.825
  620TIP3   OH2 1865   1.202   5.140   3.097
  620TIP3    H1 1866   1.212   5.211   3.033
  620TIP3    H2 1867   1.269   5.158   3.163
  621TIP3   OH2 1868   6.224   0.558   0.470
  621TIP3    H1 1869   6.313   0.566   0.505
  621TIP3    H2 1870   6.178   0.634   0.505
  622TIP3   OH2 1871   5.346   3.687   2.244
  622TIP3    H1 1872   5.336   3.782   2.246
  622TIP3    H2 1873   5.438   3.674   2.222
  623TIP3   OH2 1874   3.428   2.379   1.984
  623TIP3    H1 1875   3.425   2.442   1.911
  623TIP3    H2 1876   3.341   2.385   2.024
  624TIP3   OH2 1877   1.707   4.248   0.684
  624TIP3    H1 1878   1.676   4.268   0.772
  624TIP3    H2 1879   1.773   4.315   0.666
  625TIP3   OH2 1880   5.887   2.816   2.365
  625TIP3    H1 1881   5.797   2.847   2.354
  625TIP3    H2 1882   5.912   2.782   2.279
  626TIP3   OH2 1883   1.517   4.780   2.840
  626TIP3    H1 1884   1.427   4.749   2.830
  626TIP3    H2 1885   1.570   4.701   2.841
  627TIP3   OH2 1886   3.721   5.663   2.149
  627TIP3    H1 1887   3.739   5.628   2.236
  627TIP3    H2 1888   3.806   5.690   2.116
  628TIP3   OH2 1889   3.487   2.145   4.281
  628TIP3    H1 1890   3.518   2.215   4.224
  628TIP3    H2 1891   3.479   2.069   4.223
  629TIP3   OH2 1892   2.177   2.289   5.101
  629TIP3    H1 1893   2.271   2.273   5.095
  629TIP3    H2 1894   2.169   2.362   5.163
  630TIP3   OH2 1895   2.768   3.114   3.227
  630TIP3    H1 1896   2.724   3.169   3.163
  630TIP3    H2 1897   2.861   3.134   3.217
  631TIP3   OH2 1898   2.513   2.629   1.608
  631TIP3    H1 1899   2.534   2.646   1.516
  631TIP3    H2 1900   2.481   2.713   1.641
  632TIP3   OH2 1901   2.691   4.018   5.042
  632TIP3    H1 1902   2.686   4.097   4.988
  632TIP3    H2 1903   2.747   4.043   5.115
  633TIP3   OH2 1904   5.749   0.139   3.795
  633TIP3    H1 1905   5.777   0.053   3.763
  633TIP3    H2 1906   5.769   0.199   3.723
  634TIP3   OH2 1907   0.939   0.783   5.176
  634TIP3    H1 1908   0.933   0.763   5.082
  634TIP3    H2 1909   0.875   0.853   5.190
  635TIP3   OH2 1910   0.368   2.416   3.867
  635TIP3    H1 1911   0.361   2.331   3.911
  635TIP3    H2 1912   0.368   2.394   3.773
  636TIP3   OH2 1913   0.663   5.311   0.239
  636TIP3    H1 1914   0.721   5.374   0.195
  636TIP3    H2 1915   0.712   5.282   0.316
  637TIP3   OH2 1916   5.538   1.634   4.261
  637TIP3    H1 1917   5.522   1.553   4.310
  637TIP3    H2 1918   5.459   1.686   4.273
  638TIP3   OH2 1919   5.489   5.372   1.703
  638TIP3    H1 1920   5.494   5.385   1.797
  638TIP3    H2 1921   5.545   5.440   1.666
  639TIP3   OH2 1922   2.466   0.022   0.809
  639TIP3    H1 1923   2.426   0.095   0.856
  639TIP3    H2 1924   2.506   0.062   0.732
  640TIP3   OH2 1925   5.300   0.683   1.966
  640TIP3    H1 1926   5.260   0.669   2.052
  640TIP3    H2 1927   5.368   0.748   1.982
  641TIP3   OH2 1928   6.072   0.266   4.958
  641TIP3    H1 1929   6.090   0.172   4.966
  641TIP3    H2 1930   5.989   0.271   4.912
  642TIP3   OH2 1931   4.618   0.174   2.941
  642TIP3    H1 1932   4.534   0.156   2.899
  642TIP3    H2 1933   4.601   0.161   3.035
  643TIP3   OH2 1934   2.784   3.771   5.004
  643TIP3    H1 1935   2.868   3.790   4.964
  643TIP3    H2 1936   2.736   3.854   5.001
  644TIP3   OH2 1937   0.882   3.639   4.108
  644TIP3    H1 1938   0.903   3.599   4.193
  644TIP3    H2 1939   0.867   3.564   4.049
  645TIP3   OH2 1940   4.388   1.279   2.781
  645TIP3    H1 1941   4.441   1.356   2.759
  645TIP3    H2 1942   4.451   1.215   2.814
  646TIP3   OH2 1943   3.359   3.526   4.083
  646TIP3    H1 1944   3.311   3.608   4.087
  646TIP3    H2 1945   3.359   3.494   4.173
  647TIP3   OH2 1946   1.023   4.584   1.034
  647TIP3    H1 1947   1.071   4.533   0.968
  647TIP3    H2 1948   1.088   4.642   1.072
  648TIP3   OH2 1949   6.243   0.342   4.259
  648TIP3    H1 1950   6.192   0.261   4.259
  648TIP3    H2 1951   6.309   0.329   4.191
  649TIP3   OH2 1952   3.457   1.090   4.431
  649TIP3    H1 1953   3.402   1.167   4.418
  649TIP3    H2 1954   3.523   1.097   4.362
  650TIP3   OH2 1955   1.774   0.851   2.895
  650TIP3    H1 1956   1.812   0.938   2.888
  650TIP3    H2 1957   1.802   0.805   2.816
  651TIP3   OH2 1958   3.120   5.902   3.647
  651TIP3    H1 1959   3.117   5.817   3.692
  651TIP3    H2 1960   3.049   5.952   3.686
  652TIP3   OH2 1961   2.151   2.529   4.893
  652TIP3    H1 1962   2.127   2.474   4.967
  652TIP3    H2 1963   2.217   2.478   4.846
  653TIP3   OH2 1964   3.053   2.975   4.048
  653TIP3    H1 1965   3.009   2.984   4.132
  653TIP3    H2 1966   3.078   2.882   4.043
  654TIP3   OH2 1967   2.607   1.019   0.440
  654TIP3    H1 1968   2.675   0.989   0.501
  654TIP3    H2 1969   2.595   0.946   0.380
  655TIP3   OH2 1970   2.001   2.253   1.222
  655TIP3    H1 1971   2.080   2.225   1.268
  655TIP3    H2 1972   1.931   2.244   1.287
  656TIP3   OH2 1973   3.240   2.049   1.269
  656TIP3    H1 1974   3.265   2.021   1.357
  656TIP3    H2 1975   3.200   2.135   1.282
  657TIP3   OH2 1976   5.295   0.680   0.529
  657TIP3    H1 1977   5.287   0.599   0.478
  657TIP3    H2 1978   5.251   0.746   0.476
  658TIP3   OH2 1979   4.140   3.994   4.658
  658TIP3    H1 1980   4.190   4.075   4.649
  658TIP3    H2 1981   4.090   3.987   4.576
  659TIP3   OH2 1982   0.695   3.398   2.472
  659TIP3    H1 1983   0.744   3.458   2.529
  659TIP3    H2 1984   0.632   3.357   2.531
  660TIP3   OH2 1985   1.235   4.621   4.164
  660TIP3    H1 1986   1.260   4.559   4.233
  660TIP3    H2 1987   1.285   4.592   4.087
  661TIP3   OH2 1988   3.807   4.395   4.635
  661TIP3    H1 1989   3.780   4.341   4.709
  661TIP3    H2 1990   3.738   4.461   4.627
  662TIP3   OH2 1991   3.751   1.277   5.165
  662TIP3    H1 1992   3.687   1.346   5.151
  662TIP3    H2 1993   3.785   1.292   5.253
  663TIP3   OH2 1994   5.436   2.683   2.709
  663TIP3    H1 1995   5.422   2.597   2.749
  663TIP3    H2 1996   5.531   2.689   2.698
  664TIP3   OH2 1997   1.571   5.613   3.129
  664TIP3    H1 1998   1.500   5.670   3.157
  664TIP3    H2 1999   1.623   5.666   3.069
  665TIP3   OH2 2000   5.150   5.485   2.634
  665TIP3    H1 2001   5.211   5.453   2.700
  665TIP3    H2 2002   5.143   5.414   2.571
  666TIP3   OH2 2003   3.644   0.634   0.413
  666TIP3    H1 2004   3.701   0.710   0.402
  666TIP3    H2 2005   3.560   0.671   0.440
  667TIP3   OH2 2006   2.683   1.397   1.205
  667TIP3    H1 2007   2.698   1.489   1.227
  667TIP3    H2 2008   2.732   1.384   1.123
  668TIP3   OH2 2009   3.663   5.336   5.110
  668TIP3    H1 2010   3.594   5.322   5.175
  668TIP3    H2 2011   3.696   5.424   5.129
  669TIP3   OH2 2012   5.522   1.094   4.421
  669TIP3    H1 2013   5.484   1.176   4.452
  669TIP3    H2 2014   5.516   1.034   4.496
  670TIP3   OH2 2015   5.916   1.993   4.435
  670TIP3    H1 2016   5.852   1.922   4.435
  670TIP3    H2 2017   5.991   1.958   4.386
  671TIP3   OH2 2018   2.937   1.317   3.892
  671TIP3    H1 2019   2.897   1.318   3.806
  671TIP3    H2 2020   2.876   1.267   3.947
  672TIP3   OH2 2021   4.388   5.675   4.050
  672TIP3    H1 2022   4.406   5.583   4.070
  672TIP3    H2 2023   4.460   5.723   4.092
  673TIP3   OH2 2024   0.804   3.233   1.109
  673TIP3    H1 2025   0.879   3.210   1.053
  673TIP3    H2 2026   0.732   3.248   1.049
  674TIP3   OH2 2027   2.397   3.496   4.602
  674TIP3    H1 2028   2.318   3.523   4.649
  674TIP3    H2 2029   2.372   3.496   4.510
  675TIP3   OH2 2030   4.607   0.253   3.715
  675TIP3    H1 2031   4.554   0.174   3.726
  675TIP3    H2 2032   4.560   0.303   3.647
  676TIP3   OH2 2033   0.117   0.033   4.554
  676TIP3    H1 2034   0.065  -0.001   4.481
  676TIP3    H2 2035   0.052   0.062   4.617
  677TIP3   OH2 2036   2.396   3.465   3.115
  677TIP3    H1 2037   2.383   3.560   3.109
  677TIP3    H2 2038   2.328   3.429   3.057
  678TIP3   OH2 2039   3.969   1.279   1.000
  678TIP3    H1 2040   3.875   1.267   1.014
  678TIP3    H2 2041   4.004   1.300   1.086
  679TIP3   OH2 2042   1.751   3.758   5.059
  679TIP3    H1 2043   1.735   3.698   4.986
  679TIP3    H2 2044   1.825   3.719   5.106
  680TIP3   OH2 2045   3.652   1.355   3.146
  680TIP3    H1 2046   3.609   1.288   3.199
  680TIP3    H2 2047   3.735   1.371   3.189
  681TIP3   OH2 2048   1.214   1.647   2.731
  681TIP3    H1 2049   1.140   1.707   2.732
  681TIP3    H2 2050   1.226   1.621   2.823
  682TIP3   OH2 2051   0.401   5.194   2.829
  682TIP3    H1 2052   0.396   5.180   2.924
  682TIP3    H2 2053   0.312   5.179   2.798
  683TIP3   OH2 2054   0.439   4.189   3.925
  683TIP3    H1 2055   0.487   4.266   3.954
  683TIP3    H2 2056   0.455   4.123   3.992
  684TIP3   OH2 2057   1.192   0.750   3.971
  684TIP3    H1 2058   1.150   0.752   3.886
  684TIP3    H2 2059   1.263   0.687   3.962
  685TIP3   OH2 2060   1.576   1.252   0.831
  685TIP3    H1 2061   1.656   1.297   0.803
  685TIP3    H2 2062   1.588   1.236   0.925
  686TIP3   OH2 2063   0.790   4.426   3.752
  686TIP3    H1 2064   0.727   4.453   3.685
  686TIP3    H2 2065   0.843   4.358   3.710
  687TIP3   OH2 2066   1.343   0.244   2.956
  687TIP3    H1 2067   1.371   0.276   2.871
  687TIP3    H2 2068   1.333   0.323   3.010
  688TIP3   OH2 2069   5.650   5.291   1.343
  688TIP3    H1 2070   5.622   5.381   1.323
  688TIP3    H2 2071   5.622   5.240   1.267
  689TIP3   OH2 2072   1.996   1.738   2.802
  689TIP3    H1 2073   1.941   1.755   2.878
  689TIP3    H2 2074   2.027   1.824   2.774
  690TIP3   OH2 2075   2.957   3.732   0.922
  690TIP3    H1 2076   2.890   3.770   0.980
  690TIP3    H2 2077   2.908   3.677   0.861
  691TIP3   OH2 2078   3.337   1.461   3.110
  691TIP3    H1 2079   3.407   1.475   3.045
  691TIP3    H2 2080   3.368   1.507   3.188
  692TIP3   OH2 2081   1.595   5.758   0.554
  692TIP3    H1 2082   1.597   5.849   0.522
  692TIP3    H2 2083   1.664   5.714   0.505
  693TIP3   OH2 2084   3.020   2.777   1.271
  693TIP3    H1 2085   3.062   2.848   1.320
  693TIP3    H2 2086   2.964   2.822   1.208
  694TIP3   OH2 2087   4.111   3.631   3.527
  694TIP3    H1 2088   4.035   3.640   3.470
  694TIP3    H2 2089   4.113   3.538   3.549
  695TIP3   OH2 2090   3.101   0.776   0.033
  695TIP3    H1 2091   3.125   0.842   0.098
  695TIP3    H2 2092   3.085   0.826  -0.047
  696TIP3   OH2 2093   3.601   5.819   0.188
  696TIP3    H1 2094   3.538   5.786   0.123
  696TIP3    H2 2095   3.686   5.811   0.145
  697TIP3   OH2 2096   1.554   3.011   0.083
  697TIP3    H1 2097   1.635   3.058   0.061
  697TIP3    H2 2098   1.512   2.995  -0.001
  698TIP3   OH2 2099   4.076   4.778   2.013
  698TIP3    H1 2100   4.143   4.721   1.975
  698TIP3    H2 2101   3.998   4.722   2.018
  699TIP3   OH2 2102   1.284   4.118   1.136
  699TIP3    H1 2103   1.190   4.110   1.117
  699TIP3    H2 2104   1.310   4.029   1.161
  700TIP3   OH2 2105   5.783   0.326   1.322
  700TIP3    H1 2106   5.876   0.345   1.318
  700TIP3    H2 2107   5.760   0.334   1.414
  701TIP3   OH2 2108   0.901   3.181   5.160
  701TIP3    H1 2109   0.842   3.112   5.129
  701TIP3    H2 2110   0.847   3.261   5.158
  702TIP3   OH2 2111   4.289   5.123   4.040
  702TIP3    H1 2112   4.321   5.068   3.969
  702TIP3    H2 2113   4.195   5.105   4.045
  703TIP3   OH2 2114   4.536   4.587   3.870
  703TIP3    H1 2115   4.552   4.596   3.776
  703TIP3    H2 2116   4.578   4.663   3.909
  704TIP3   OH2 2117   3.827   0.846   3.678
  704TIP3    H1 2118   3.858   0.927   3.719
  704TIP3    H2 2119   3.899   0.820   3.620
  705TIP3   OH2 2120   0.523   0.170   1.859
  705TIP3    H1 2121   0.442   0.199   1.818
  705TIP3    H2 2122   0.588   0.235   1.833
  706TIP3   OH2 2123   1.354   5.776   3.159
  706TIP3    H1 2124   1.330   5.865   3.134
  706TIP3    H2 2125   1.281   5.746   3.213
  707TIP3   OH2 2126   5.749   4.459   0.720
  707TIP3    H1 2127   5.728   4.491   0.633
  707TIP3    H2 2128   5.838   4.490   0.737
  708TIP3   OH2 2129   5.851   2.733   1.907
  708TIP3    H1 2130   5.843   2.772   1.820
  708TIP3    H2 2131   5.762   2.735   1.942
  709TIP3   OH2 2132   4.988   4.199   1.064
  709TIP3    H1 2133   5.016   4.269   1.123
  709TIP3    H2 2134   4.911   4.235   1.020
  710TIP3   OH2 2135   4.780   3.375   4.894
  710TIP3    H1 2136   4.844   3.430   4.939
  710TIP3    H2 2137   4.717   3.436   4.857
  711TIP3   OH2 2138   3.752   5.306   2.320
  711TIP3    H1 2139   3.828   5.249   2.311
  711TIP3    H2 2140   3.754   5.335   2.411
  712TIP3   OH2 2141   5.752   5.291   3.437
  712TIP3    H1 2142   5.694   5.218   3.458
  712TIP3    H2 2143   5.731   5.312   3.346
  713TIP3   OH2 2144   1.487   1.685   1.717
  713TIP3    H1 2145   1.462   1.689   1.809
  713TIP3    H2 2146   1.409   1.653   1.672
  714TIP3   OH2 2147   0.975   1.692   0.774
  714TIP3    H1 2148   1.025   1.755   0.722
  714TIP3    H2 2149   1.042   1.640   0.818
  715TIP3   OH2 2150   2.638   4.802   0.112
  715TIP3    H1 2151   2.571   4.775   0.049
  715TIP3    H2 2152   2.684   4.874   0.068
  716TIP3   OH2 2153   5.490   2.599   0.480
  716TIP3    H1 2154   5.541   2.584   0.560
  716TIP3    H2 2155   5.555   2.628   0.416
  717TIP3   OH2 2156   3.038   3.344   1.364
  717TIP3    H1 2157   3.084   3.353   1.448
  717TIP3    H2 2158   2.987   3.425   1.356
  718TIP3   OH2 2159   1.189   1.843   2.259
  718TIP3    H1 2160   1.265   1.890   2.293
  718TIP3    H2 2161   1.186   1.762   2.311
  719TIP3   OH2 2162   4.111   0.501   0.232
  719TIP3    H1 2163   4.105   0.423   0.287
  719TIP3    H2 2164   4.115   0.467   0.143
  720TIP3   OH2 2165   3.355   3.862   1.931
  720TIP3    H1 2166   3.269   3.899   1.913
  720TIP3    H2 2167   3.370   3.879   2.024
  721TIP3   OH2 2168   2.651   4.033   2.028
  721TIP3    H1 2169   2.556   4.023   2.022
  721TIP3    H2 2170   2.679   3.959   2.083
  722TIP3   OH2 2171   6.123   2.078   2.017
  722TIP3    H1 2172   6.084   2.165   2.016
  722TIP3    H2 2173   6.209   2.090   1.975
  723TIP3   OH2 2174   5.405   3.733   1.766
  723TIP3    H1 2175   5.436   3.750   1.855
  723TIP3    H2 2176   5.421   3.815   1.719
  724TIP3   OH2 2177   1.974   5.691   1.901
  724TIP3    H1 2178   1.980   5.653   1.813
  724TIP3    H2 2179   1.890   5.737   1.902
  725TIP3   OH2 2180   0.428   5.512   5.151
  725TIP3    H1 2181   0.441   5.540   5.060
  725TIP3    H2 2182   0.438   5.416   5.147
  726TIP3   OH2 2183   0.263   0.605   1.700
  726TIP3    H1 2184   0.240   0.531   1.756
  726TIP3    H2 2185   0.354   0.588   1.675
  727TIP3   OH2 2186   6.001   0.142   0.539
  727TIP3    H1 2187   5.966   0.230   0.536
  727TIP3    H2 2188   5.971   0.100   0.459
  728TIP3   OH2 2189   6.249   0.874   1.977
  728TIP3    H1 2190   6.209   0.792   2.005
  728TIP3    H2 2191   6.288   0.854   1.892
  729TIP3   OH2 2192   5.003   0.279   1.794
  729TIP3    H1 2193   4.938   0.342   1.761
  729TIP3    H2 2194   5.070   0.334   1.835
  730TIP3   OH2 2195   3.106   1.237   4.902
  730TIP3    H1 2196   3.066   1.151   4.888
  730TIP3    H2 2197   3.032   1.298   4.900
  731TIP3   OH2 2198   3.045   3.805   1.610
  731TIP3    H1 2199   3.113   3.755   1.563
  731TIP3    H2 2200   2.988   3.739   1.647
  732TIP3   OH2 2201   0.277   0.903   4.030
  732TIP3    H1 2202   0.271   0.986   3.982
  732TIP3    H2 2203   0.187   0.872   4.035
  733TIP3   OH2 2204   3.496   4.679   2.200
  733TIP3    H1 2205   3.495   4.658   2.106
  733TIP3    H2 2206   3.471   4.771   2.204
  734TIP3   OH2 2207   2.417   5.563   0.048
  734TIP3    H1 2208   2.354   5.498   0.018
  734TIP3    H2 2209   2.417   5.554   0.144
  735TIP3   OH2 2210   1.018   3.033   3.130
  735TIP3    H1 2211   1.064   3.058   3.050
  735TIP3    H2 2212   1.012   2.937   3.125
  736TIP3   OH2 2213   0.652   3.805   3.246
  736TIP3    H1 2214   0.665   3.892   3.284
  736TIP3    H2 2215   0.557   3.799   3.231
  737TIP3   OH2 2216   6.115   3.584   1.142
  737TIP3    H1 2217   6.039   3.626   1.182
  737TIP3    H2 2218   6.190   3.629   1.180
  738TIP3   OH2 2219   4.938   0.962   1.155
  738TIP3    H1 2220   4.938   1.018   1.232
  738TIP3    H2 2221   5.023   0.918   1.158
  739TIP3   OH2 2222   3.110   3.070   0.529
  739TIP3    H1 2223   3.094   2.994   0.585
  739TIP3    H2 2224   3.144   3.137   0.588
  740TIP3   OH2 2225   5.026   5.952   2.681
  740TIP3    H1 2226   5.000   6.044   2.693
  740TIP3    H2 2227   5.000   5.932   2.592
  741TIP3   OH2 2228   3.736   0.158   2.053
  741TIP3    H1 2229   3.646   0.156   2.085
  741TIP3    H2 2230   3.753   0.068   2.023
  742TIP3   OH2 2231   4.629   0.759   4.998
  742TIP3    H1 2232   4.662   0.674   5.027
  742TIP3    H2 2233   4.546   0.739   4.955
  743TIP3   OH2 2234   1.471   4.601   4.033
  743TIP3    H1 2235   1.546   4.564   4.080
  743TIP3    H2 2236   1.487   4.696   4.034
  744TIP3   OH2 2237   4.632   4.997   1.008
  744TIP3    H1 2238   4.649   4.906   1.031
  744TIP3    H2 2239   4.716   5.031   0.978
  745TIP3   OH2 2240   2.091   5.167   0.511
  745TIP3    H1 2241   2.063   5.093   0.565
  745TIP3    H2 2242   2.179   5.144   0.482
  746TIP3   OH2 2243   3.847   2.722   2.485
  746TIP3    H1 2244   3.840   2.630   2.459
  746TIP3    H2 2245   3.850   2.720   2.580
  747TIP3   OH2 2246   3.946   1.519   1.571
  747TIP3    H1 2247   4.006   1.492   1.501
  747TIP3    H2 2248   3.967   1.611   1.585
  748TIP3   OH2 2249   2.027   1.054   1.916
  748TIP3    H1 2250   2.046   1.147   1.906
  748TIP3    H2 2251   2.074   1.029   1.996
  749TIP3   OH2 2252   3.630   4.139   2.446
  749TIP3    H1 2253   3.707   4.097   2.486
  749TIP3    H2 2254   3.625   4.101   2.359
  750TIP3   OH2 2255   5.072   1.035   0.611
  750TIP3    H1 2256   5.048   1.027   0.704
  750TIP3    H2 2257   5.084   1.129   0.598
  751TIP3   OH2 2258   6.283   3.545   3.559
  751TIP3    H1 2259   6.305   3.629   3.601
  751TIP3    H2 2260   6.294   3.562   3.465
  752TIP3   OH2 2261   4.043   4.984   1.782
  752TIP3    H1 2262   4.017   5.062   1.832
  752TIP3    H2 2263   4.050   4.915   1.848
  753TIP3   OH2 2264   2.310   1.774   0.896
  753TIP3    H1 2265   2.405   1.765   0.896
  753TIP3    H2 2266   2.280   1.714   0.964
  754TIP3   OH2 2267   1.847   0.071   4.741
  754TIP3    H1 2268   1.791   0.112   4.806
  754TIP3    H2 2269   1.788   0.017   4.689
  755TIP3   OH2 2270   3.033   3.665   3.095
  755TIP3    H1 2271   2.980   3.588   3.115
  755TIP3    H2 2272   3.115   3.652   3.143
  756TIP3   OH2 2273   2.984   2.632   2.503
  756TIP3    H1 2274   3.005   2.540   2.484
  756TIP3    H2 2275   3.069   2.671   2.525
  757TIP3   OH2 2276   2.048   1.665   0.475
  757TIP3    H1 2277   2.135   1.662   0.435
  757TIP3    H2 2278   2.018   1.574   0.473
  758TIP3   OH2 2279   4.376   5.174   3.030
  758TIP3    H1 2280   4.453   5.195   3.084
  758TIP3    H2 2281   4.368   5.250   2.971
  759TIP3   OH2 2282   1.276   5.889   3.463
  759TIP3    H1 2283   1.233   5.931   3.388
  759TIP3    H2 2284   1.290   5.799   3.433
  760TIP3   OH2 2285   3.047   1.713   2.686
  760TIP3    H1 2286   3.053   1.808   2.679
  760TIP3    H2 2287   3.136   1.683   2.664
  761TIP3   OH2 2288   5.772   1.637   1.249
  761TIP3    H1 2289   5.821   1.555   1.261
  761TIP3    H2 2290   5.683   1.608   1.226
  762TIP3   OH2 2291   2.473   0.779   2.393
  762TIP3    H1 2292   2.515   0.836   2.457
  762TIP3    H2 2293   2.488   0.691   2.426
  763TIP3   OH2 2294   0.607   4.006   2.065
  763TIP3    H1 2295   0.674   4.070   2.092
  763TIP3    H2 2296   0.632   3.981   1.976
  764TIP3   OH2 2297   2.028   3.034   3.792
  764TIP3    H1 2298   2.087   2.960   3.803
  764TIP3    H2 2299   2.084   3.111   3.802
  765TIP3   OH2 2300   4.708   4.536   0.449
  765TIP3    H1 2301   4.801   4.533   0.427
  765TIP3    H2 2302   4.705   4.578   0.535
  766TIP3   OH2 2303   0.790   2.751   2.859
  766TIP3    H1 2304   0.699   2.767   2.834
  766TIP3    H2 2305   0.825   2.697   2.788
  767TIP3   OH2 2306   5.666   1.558   1.866
  767TIP3    H1 2307   5.711   1.481   1.830
  767TIP3    H2 2308   5.717   1.582   1.943
  768TIP3   OH2 2309   0.432   2.901   3.943
  768TIP3    H1 2310   0.512   2.863   3.977
  768TIP3    H2 2311   0.405   2.842   3.872
  769TIP3   OH2 2312   2.030   0.419   0.031
  769TIP3    H1 2313   1.991   0.342   0.070
  769TIP3    H2 2314   1.959   0.483   0.026
  770TIP3   OH2 2315   5.331   4.905   3.203
  770TIP3    H1 2316   5.261   4.883   3.141
  770TIP3    H2 2317   5.366   4.820   3.231
  771TIP3   OH2 2318   5.290   1.142   0.038
  771TIP3    H1 2319   5.220   1.084   0.068
  771TIP3    H2 2320   5.244   1.218   0.002
  772TIP3   OH2 2321   5.068   4.531   4.248
  772TIP3    H1 2322   5.163   4.521   4.245
  772TIP3    H2 2323   5.053   4.605   4.307
  773TIP3   OH2 2324   5.128   3.150   4.674
  773TIP3    H1 2325   5.194   3.082   4.663
  773TIP3    H2 2326   5.051   3.104   4.707
  774TIP3   OH2 2327   0.196   4.074   3.832
  774TIP3    H1 2328   0.212   4.027   3.750
  774TIP3    H2 2329   0.280   4.115   3.853
  775TIP3   OH2 2330   0.527   5.095   3.340
  775TIP3    H1 2331   0.548   5.011   3.380
  775TIP3    H2 2332   0.579   5.159   3.389
  776TIP3   OH2 2333   2.741   4.521   3.337
  776TIP3    H1 2334   2.804   4.450   3.321
  776TIP3    H2 2335   2.755   4.545   3.428
  777TIP3   OH2 2336   0.562   4.879   3.509
  777TIP3    H1 2337   0.551   4.948   3.574
  777TIP3    H2 2338   0.652   4.847   3.523
  778TIP3   OH2 2339   3.567   4.068   4.891
  778TIP3    H1 2340   3.623   4.144   4.873
  778TIP3    H2 2341   3.510   4.061   4.815
  779TIP3   OH2 2342   5.761   2.886   4.618
  779TIP3    H1 2343   5.813   2.960   4.589
  779TIP3    H2 2344   5.819   2.837   4.676
  780TIP3   OH2 2345   1.603   0.474   3.176
  780TIP3    H1 2346   1.607   0.499   3.083
  780TIP3    H2 2347   1.638   0.385   3.178
  781TIP3   OH2 2348   1.696   3.655   4.523
  781TIP3    H1 2349   1.673   3.620   4.437
  781TIP3    H2 2350   1.761   3.723   4.506
  782TIP3   OH2 2351   0.991   5.338   3.658
  782TIP3    H1 2352   1.006   5.262   3.602
  782TIP3    H2 2353   0.986   5.412   3.597
  783TIP3   OH2 2354   1.381   5.017   2.880
  783TIP3    H1 2355   1.341   5.033   2.965
  783TIP3    H2 2356   1.379   4.922   2.869
  784TIP3   OH2 2357   4.840   2.603   0.539
  784TIP3    H1 2358   4.854   2.539   0.469
  784TIP3    H2 2359   4.927   2.639   0.557
  785TIP3   OH2 2360   5.058   3.568   0.230
  785TIP3    H1 2361   5.139   3.588   0.278
  785TIP3    H2 2362   5.022   3.493   0.275
  786TIP3   OH2 2363   3.684   0.038   0.467
  786TIP3    H1 2364   3.764   0.071   0.508
  786TIP3    H2 2365   3.641   0.116   0.432
  787TIP3   OH2 2366   0.204   3.070   4.328
  787TIP3    H1 2367   0.274   3.052   4.265
  787TIP3    H2 2368   0.159   2.987   4.338
  788TIP3   OH2 2369   0.465   1.669   3.217
  788TIP3    H1 2370   0.399   1.601   3.205
  788TIP3    H2 2371   0.426   1.731   3.278
  789TIP3   OH2 2372   2.041   2.872   1.877
  789TIP3    H1 2373   1.966   2.928   1.895
  789TIP3    H2 2374   2.051   2.875   1.782
  790TIP3   OH2 2375   3.335   4.286   4.118
  790TIP3    H1 2376   3.275   4.236   4.062
  790TIP3    H2 2377   3.280   4.324   4.185
  791TIP3   OH2 2378   0.505   0.866   2.687
  791TIP3    H1 2379   0.451   0.935   2.648
  791TIP3    H2 2380   0.583   0.862   2.632
  792TIP3   OH2 2381   4.610   3.312   1.205
  792TIP3    H1 2382   4.606   3.217   1.193
  792TIP3    H2 2383   4.585   3.348   1.120
  793TIP3   OH2 2384   4.995   0.116   4.221
  793TIP3    H1 2385   5.033   0.029   4.236
  793TIP3    H2 2386   4.903   0.100   4.204
  794TIP3   OH2 2387   5.662   5.292   2.259
  794TIP3    H1 2388   5.711   5.374   2.267
  794TIP3    H2 2389   5.580   5.309   2.307
  795TIP3   OH2 2390   1.901   2.747   1.234
  795TIP3    H1 2391   1.877   2.659   1.204
  795TIP3    H2 2392   1.932   2.735   1.324
  796TIP3   OH2 2393   5.075   3.446   4.196
  796TIP3    H1 2394   5.150   3.445   4.137
  796TIP3    H2 2395   5.045   3.355   4.198
  797TIP3   OH2 2396   2.428   4.151   4.685
  797TIP3    H1 2397   2.478   4.125   4.607
  797TIP3    H2 2398   2.437   4.247   4.687
  798TIP3   OH2 2399   0.667   0.050   4.644
  798TIP3    H1 2400   0.734   0.051   4.575
  798TIP3    H2 2401   0.692   0.121   4.703
  799TIP3   OH2 2402   5.553   2.360   3.976
  799TIP3    H1 2403   5.552   2.282   3.920
  799TIP3    H2 2404   5.482   2.345   4.039
  800TIP3   OH2 2405   5.342   3.432   0.491
  800TIP3    H1 2406   5.367   3.436   0.584
  800TIP3    H2 2407   5.295   3.514   0.476
  801TIP3   OH2 2408   1.493   3.473   2.725
  801TIP3    H1 2409   1.457   3.389   2.695
  801TIP3    H2 2410   1.470   3.478   2.818
  802TIP3   OH2 2411   0.866   1.755   2.382
  802TIP3    H1 2412   0.921   1.694   2.333
  802TIP3    H2 2413   0.874   1.726   2.473
  803TIP3   OH2 2414   3.627   5.932   2.046
  803TIP3    H1 2415   3.685   5.978   2.106
  803TIP3    H2 2416   3.644   5.839   2.063
  804TIP3   OH2 2417   3.237   3.670   0.981
  804TIP3    H1 2418   3.145   3.647   0.988
  804TIP3    H2 2419   3.265   3.635   0.897
  805TIP3   OH2 2420   0.053   5.436   1.274
  805TIP3    H1 2421   0.086   5.508   1.329
  805TIP3    H2 2422   0.121   5.369   1.281
  806TIP3   OH2 2423   3.937   2.003  -0.027
  806TIP3    H1 2424   4.025   2.012  -0.065
  806TIP3    H2 2425   3.936   2.066   0.046
  807TIP3   OH2 2426   5.246   1.785   3.583
  807TIP3    H1 2427   5.240   1.876   3.555
  807TIP3    H2 2428   5.157   1.763   3.612
  808TIP3   OH2 2429   5.500   0.788   0.185
  808TIP3    H1 2430   5.523   0.832   0.103
  808TIP3    H2 2431   5.518   0.696   0.169
  809TIP3   OH2 2432   1.820   5.307   3.266
  809TIP3    H1 2433   1.886   5.375   3.280
  809TIP3    H2 2434   1.821   5.256   3.348
  810TIP3   OH2 2435   2.678   5.229   0.765
  810TIP3    H1 2436   2.699   5.232   0.858
  810TIP3    H2 2437   2.583   5.244   0.762
  811TIP3   OH2 2438   1.940   0.100   2.111
  811TIP3    H1 2439   1.883   0.023   2.113
  811TIP3    H2 2440   1.882   0.174   2.128
  812TIP3   OH2 2441   6.249   2.479   4.628
  812TIP3    H1 2442   6.177   2.436   4.676
  812TIP3    H2 2443   6.240   2.572   4.649
  813TIP3   OH2 2444   3.387   2.857   4.474
  813TIP3    H1 2445   3.315   2.873   4.414
  813TIP3    H2 2446   3.410   2.765   4.460
  814TIP3   OH2 2447   0.696   2.152   3.159
  814TIP3    H1 2448   0.790   2.163   3.141
  814TIP3    H2 2449   0.653   2.206   3.093
  815TIP3   OH2 2450   3.665   4.863   2.615
  815TIP3    H1 2451   3.615   4.786   2.585
  815TIP3    H2 2452   3.667   4.855   2.710
  816TIP3   OH2 2453   0.722   5.579   3.781
  816TIP3    H1 2454   0.738   5.610   3.692
  816TIP3    H2 2455   0.773   5.637   3.837
  817TIP3   OH2 2456   4.189   1.914   1.023
  817TIP3    H1 2457   4.187   1.819   1.036
  817TIP3    H2 2458   4.274   1.931   0.983
  818TIP3   OH2 2459   1.438   4.997   1.974
  818TIP3    H1 2460   1.434   5.076   2.028
  818TIP3    H2 2461   1.449   5.030   1.884
  819TIP3   OH2 2462   2.510   3.466   1.524
  819TIP3    H1 2463   2.546   3.429   1.443
  819TIP3    H2 2464   2.580   3.455   1.589
  820TIP3   OH2 2465   0.403   2.259   4.098
  820TIP3    H1 2466   0.468   2.322   4.067
  820TIP3    H2 2467   0.412   2.260   4.193
  821TIP3   OH2 2468   2.670   2.235   1.595
  821TIP3    H1 2469   2.696   2.163   1.652
  821TIP3    H2 2470   2.596   2.201   1.545
  822TIP3   OH2 2471   1.584   0.329   1.257
  822TIP3    H1 2472   1.614   0.295   1.173
  822TIP3    H2 2473   1.638   0.406   1.273
  823TIP3   OH2 2474   2.870   1.328   2.796
  823TIP3    H1 2475   2.807   1.393   2.767
  823TIP3    H2 2476   2.944   1.380   2.829
  824TIP3   OH2 2477   0.639   1.114   1.257
  824TIP3    H1 2478   0.567   1.177   1.261
  824TIP3    H2 2479   0.713   1.161   1.295
  825TIP3   OH2 2480   4.312   5.394   4.128
  825TIP3    H1 2481   4.249   5.379   4.198
  825TIP3    H2 2482   4.308   5.315   4.074
  826TIP3   OH2 2483   0.349   3.859   3.952
  826TIP3    H1 2484   0.262   3.894   3.935
  826TIP3    H2 2485   0.366   3.799   3.879
  827TIP3   OH2 2486   3.197   3.330   1.600
  827TIP3    H1 2487   3.238   3.264   1.544
  827TIP3    H2 2488   3.248   3.330   1.680
  828TIP3   OH2 2489   2.461   2.621   2.069
  828TIP3    H1 2490   2.546   2.648   2.035
  828TIP3    H2 2491   2.430   2.556   2.006
  829TIP3   OH2 2492   5.587   1.326   3.627
  829TIP3    H1 2493   5.580   1.240   3.669
  829TIP3    H2 2494   5.517   1.378   3.666
  830TIP3   OH2 2495   1.135   3.182   2.938
  830TIP3    H1 2496   1.130   3.260   2.883
  830TIP3    H2 2497   1.092   3.113   2.886
  831TIP3   OH2 2498   1.947   3.768   4.620
  831TIP3    H1 2499   2.002   3.770   4.698
  831TIP3    H2 2500   2.004   3.802   4.550
  832TIP3   OH2 2501   4.290   0.169   4.871
  832TIP3    H1 2502   4.196   0.155   4.886
  832TIP3    H2 2503   4.332   0.131   4.949
  833TIP3   OH2 2504   2.217   1.433   3.887
  833TIP3    H1 2505   2.223   1.386   3.804
  833TIP3    H2 2506   2.136   1.402   3.927
  834TIP3   OH2 2507   5.382   1.442   4.889
  834TIP3    H1 2508   5.464   1.476   4.852
  834TIP3    H2 2509   5.342   1.393   4.818
  835TIP3   OH2 2510   4.499   4.337   3.263
  835TIP3    H1 2511   4.562   4.299   3.325
  835TIP3    H2 2512   4.439   4.387   3.319
  836TIP3   OH2 2513   3.947   0.798   2.337
  836TIP3    H1 2514   3.974   0.843   2.417
  836TIP3    H2 2515   3.874   0.850   2.304
  837TIP3   OH2 2516   4.012   0.802   5.092
  837TIP3    H1 2517   3.955   0.793   5.168
  837TIP3    H2 2518   4.096   0.829   5.129
  838TIP3   OH2 2519   1.083   0.554   3.443
  838TIP3    H1 2520   1.005   0.602   3.472
  838TIP3    H2 2521   1.061   0.462   3.458
  839TIP3   OH2 2522   0.568   3.596   1.366
  839TIP3    H1 2523   0.578   3.571   1.274
  839TIP3    H2 2524   0.611   3.682   1.372
  840TIP3   OH2 2525   4.798   5.443   4.388
  840TIP3    H1 2526   4.774   5.358   4.352
  840TIP3    H2 2527   4.729   5.463   4.451
  841TIP3   OH2 2528   1.548   3.129   1.424
  841TIP3    H1 2529   1.628   3.095   1.464
  841TIP3    H2 2530   1.526   3.066   1.356
  842TIP3   OH2 2531   2.806   3.157   1.472
  842TIP3    H1 2532   2.865   3.112   1.532
  842TIP3    H2 2533   2.864   3.197   1.407
  843TIP3   OH2 2534   5.308   0.678   4.232
  843TIP3    H1 2535   5.398   0.688   4.264
  843TIP3    H2 2536   5.262   0.636   4.305
  844TIP3   OH2 2537   5.320   5.590   1.276
  844TIP3    H1 2538   5.242   5.550   1.238
  844TIP3    H2 2539   5.389   5.572   1.212
  845TIP3   OH2 2540   3.559   5.437   1.320
  845TIP3    H1 2541   3.579   5.346   1.300
  845TIP3    H2 2542   3.482   5.457   1.267
  846TIP3   OH2 2543   4.299   3.649   0.758
  846TIP3    H1 2544   4.210   3.630   0.786
  846TIP3    H2 2545   4.312   3.741   0.780
  847TIP3   OH2 2546   3.310   5.360   1.943
  847TIP3    H1 2547   3.223   5.344   1.906
  847TIP3    H2 2548   3.292   5.390   2.032
  848TIP3   OH2 2549   1.733   3.935   4.771
  848TIP3    H1 2550   1.730   3.862   4.834
  848TIP3    H2 2551   1.788   3.903   4.700
  849TIP3   OH2 2552   2.221   0.768   2.650
  849TIP3    H1 2553   2.248   0.701   2.713
  849TIP3    H2 2554   2.131   0.789   2.675
  850TIP3   OH2 2555   1.728   3.224   2.277
  850TIP3    H1 2556   1.822   3.237   2.287
  850TIP3    H2 2557   1.721   3.159   2.207
  851TIP3   OH2 2558   5.265   0.265   2.115
  851TIP3    H1 2559   5.208   0.296   2.045
  851TIP3    H2 2560   5.347   0.242   2.070
  852TIP3   OH2 2561   1.416   0.079   0.661
  852TIP3    H1 2562   1.445   0.147   0.721
  852TIP3    H2 2563   1.457   0.101   0.577
  853TIP3   OH2 2564   0.431   2.649   1.739
  853TIP3    H1 2565   0.523   2.641   1.765
  853TIP3    H2 2566   0.395   2.716   1.798
  854TIP3   OH2 2567   2.682   2.543   0.430
  854TIP3    H1 2568   2.660   2.594   0.508
  854TIP3    H2 2569   2.754   2.485   0.459
  855TIP3   OH2 2570   2.884   4.877   0.563
  855TIP3    H1 2571   2.960   4.919   0.604
  855TIP3    H2 2572   2.817   4.877   0.631
  856TIP3   OH2 2573   4.839   0.342   2.366
  856TIP3    H1 2574   4.923   0.345   2.319
  856TIP3    H2 2575   4.780   0.295   2.307
  857TIP3   OH2 2576   5.466   3.106   4.206
  857TIP3    H1 2577   5.425   3.062   4.131
  857TIP3    H2 2578   5.554   3.126   4.176
  858TIP3   OH2 2579   0.261   5.605   3.374
  858TIP3    H1 2580   0.244   5.693   3.407
  858TIP3    H2 2581   0.176   5.574   3.344
  859TIP3   OH2 2582   4.050   0.599   1.026
  859TIP3    H1 2583   4.145   0.607   1.038
  859TIP3    H2 2584   4.028   0.516   1.066
  860TIP3   OH2 2585   1.824   3.002   3.105
  860TIP3    H1 2586   1.799   3.078   3.053
  860TIP3    H2 2587   1.879   3.037   3.174
  861TIP3   OH2 2588   4.063   4.800   1.121
  861TIP3    H1 2589   3.998   4.839   1.062
  861TIP3    H2 2590   4.127   4.759   1.063
  862TIP3   OH2 2591   5.444   1.652   1.475
  862TIP3    H1 2592   5.372   1.699   1.516
  862TIP3    H2 2593   5.516   1.660   1.538
  863TIP3   OH2 2594   2.779   5.921   1.269
  863TIP3    H1 2595   2.857   5.948   1.221
  863TIP3    H2 2596   2.741   5.852   1.215
  864TIP3   OH2 2597   3.985   2.057   3.108
  864TIP3    H1 2598   3.961   2.145   3.078
  864TIP3    H2 2599   4.022   2.070   3.195
  865TIP3   OH2 2600   4.129   5.180   2.590
  865TIP3    H1 2601   4.092   5.095   2.613
  865TIP3    H2 2602   4.218   5.160   2.560
  866TIP3   OH2 2603   4.084   3.879   0.376
  866TIP3    H1 2604   4.128   3.963   0.371
  866TIP3    H2 2605   4.103   3.837   0.292
  867TIP3   OH2 2606   6.045   1.041   2.129
  867TIP3    H1 2607   5.974   0.996   2.174
  867TIP3    H2 2608   6.077   0.979   2.064
  868TIP3   OH2 2609   1.644   1.153   3.838
  868TIP3    H1 2610   1.728   1.111   3.820
  868TIP3    H2 2611   1.580   1.097   3.794
  869TIP3   OH2 2612   0.568   1.644   2.359
  869TIP3    H1 2613   0.583   1.659   2.266
  869TIP3    H2 2614   0.635   1.580   2.384
  870TIP3   OH2 2615   1.474   2.577   4.397
  870TIP3    H1 2616   1.461   2.578   4.492
  870TIP3    H2 2617   1.443   2.492   4.369
  871TIP3   OH2 2618   4.347   4.939   3.846
  871TIP3    H1 2619   4.368   4.910   3.757
  871TIP3    H2 2620   4.385   4.872   3.903
  872TIP3   OH2 2621   2.678   0.230   1.686
  872TIP3    H1 2622   2.646   0.202   1.600
  872TIP3    H2 2623   2.598   0.241   1.738
  873TIP3   OH2 2624   6.323   2.946   3.325
  873TIP3    H1 2625   6.364   3.012   3.381
  873TIP3    H2 2626   6.280   2.886   3.386
  874TIP3   OH2 2627   4.125   4.502   2.863
  874TIP3    H1 2628   4.083   4.444   2.800
  874TIP3    H2 2629   4.057   4.566   2.886
  875TIP3   OH2 2630   3.127   2.206   3.361
  875TIP3    H1 2631   3.125   2.117   3.398
  875TIP3    H2 2632   3.047   2.212   3.309
  876TIP3   OH2 2633   6.092   0.943   4.456
  876TIP3    H1 2634   6.020   1.001   4.483
  876TIP3    H2 2635   6.093   0.947   4.361
  877TIP3   OH2 2636   4.473   1.544   1.988
  877TIP3    H1 2637   4.467   1.479   2.058
  877TIP3    H2 2638   4.555   1.524   1.944
  878TIP3   OH2 2639   0.670   5.739   0.215
  878TIP3    H1 2640   0.629   5.786   0.288
  878TIP3    H2 2641   0.670   5.802   0.143
  879TIP3   OH2 2642   5.590   2.043   4.239
  879TIP3    H1 2643   5.630   2.130   4.244
  879TIP3    H2 2644   5.662   1.983   4.222
  880TIP3   OH2 2645   2.324   4.962   0.167
  880TIP3    H1 2646   2.256   4.897   0.184
  880TIP3    H2 2647   2.352   4.945   0.077
  881TIP3   OH2 2648   4.439   2.657   3.154
  881TIP3    H1 2649   4.395   2.732   3.194
  881TIP3    H2 2650   4.375   2.619   3.095
  882TIP3   OH2 2651   5.205   0.744   3.996
  882TIP3    H1 2652   5.115   0.775   4.008
  882TIP3    H2 2653   5.238   0.732   4.085
  883TIP3   OH2 2654   5.771   1.065   2.745
  883TIP3    H1 2655   5.811   1.152   2.732
  883TIP3    H2 2656   5.846   1.006   2.750
  884TIP3   OH2 2657   3.099   2.260   4.746
  884TIP3    H1 2658   3.142   2.204   4.810
  884TIP3    H2 2659   3.109   2.214   4.663
  885TIP3   OH2 2660   3.912   3.849   1.890
  885TIP3    H1 2661   4.002   3.844   1.858
  885TIP3    H2 2662   3.903   3.938   1.923
  886TIP3   OH2 2663   1.675   4.123   0.307
  886TIP3    H1 2664   1.711   4.196   0.357
  886TIP3    H2 2665   1.602   4.091   0.360
  887TIP3   OH2 2666   2.729   0.987   0.071
  887TIP3    H1 2667   2.765   0.900   0.089
  887TIP3    H2 2668   2.802   1.035   0.031
  888TIP3   OH2 2669   4.860   0.344   4.577
  888TIP3    H1 2670   4.872   0.419   4.636
  888TIP3    H2 2671   4.938   0.290   4.591
  889TIP3   OH2 2672   5.846   4.618   2.284
  889TIP3    H1 2673   5.871   4.665   2.205
  889TIP3    H2 2674   5.774   4.669   2.322
  890TIP3   OH2 2675   2.747   1.855   1.055
  890TIP3    H1 2676   2.831   1.892   1.028
  890TIP3    H2 2677   2.686   1.928   1.055
  891TIP3   OH2 2678   4.714   5.452   0.247
  891TIP3    H1 2679   4.774   5.453   0.172
  891TIP3    H2 2680   4.762   5.404   0.315
  892TIP3   OH2 2681   0.274   1.704   2.378
  892TIP3    H1 2682   0.350   1.646   2.368
  892TIP3    H2 2683   0.295   1.781   2.326
  893TIP3   OH2 2684   4.854   2.576   1.936
  893TIP3    H1 2685   4.906   2.508   1.894
  893TIP3    H2 2686   4.770   2.534   1.954
  894TIP3   OH2 2687   4.296   1.756  -0.045
  894TIP3    H1 2688   4.225   1.771   0.018
  894TIP3    H2 2689   4.370   1.728   0.008
  895TIP3   OH2 2690   3.278   4.928   1.120
  895TIP3    H1 2691   3.342   4.990   1.083
  895TIP3    H2 2692   3.319   4.897   1.200
  896TIP3   OH2 2693   4.720   0.920   4.633
  896TIP3    H1 2694   4.807   0.882   4.635
  896TIP3    H2 2695   4.661   0.846   4.647
  897TIP3   OH2 2696   0.082   5.308   2.075
  897TIP3    H1 2697   0.126   5.336   2.155
  897TIP3    H2 2698   0.097   5.213   2.072
  898TIP3   OH2 2699   5.463   1.722   4.540
  898TIP3    H1 2700   5.437   1.765   4.458
  898TIP3    H2 2701   5.453   1.629   4.522
  899TIP3   OH2 2702   5.897   4.023   5.027
  899TIP3    H1 2703   5.803   4.009   5.013
  899TIP3    H2 2704   5.933   4.033   4.939
  900TIP3   OH2 2705   3.017   4.963   1.110
  900TIP3    H1 2706   3.000   4.988   1.201
  900TIP3    H2 2707   3.112   4.948   1.107
  901TIP3   OH2 2708   4.239   3.633   0.030
  901TIP3    H1 2709   4.270   3.723   0.038
  901TIP3    H2 2710   4.153   3.633   0.072
  902TIP3   OH2 2711   2.992   0.952   3.177
  902TIP3    H1 2712   3.002   1.034   3.128
  902TIP3    H2 2713   2.957   0.979   3.262
  903TIP3   OH2 2714   2.072   4.602   3.927
  903TIP3    H1 2715   2.034   4.525   3.970
  903TIP3    H2 2716   2.035   4.600   3.838
  904TIP3   OH2 2717   5.888   0.882   3.997
  904TIP3    H1 2718   5.863   0.966   3.959
  904TIP3    H2 2719   5.981   0.892   4.017
  905TIP3   OH2 2720   1.752   0.811   0.215
  905TIP3    H1 2721   1.695   0.789   0.289
  905TIP3    H2 2722   1.814   0.874   0.252
  906TIP3   OH2 2723   5.774   5.974   2.908
  906TIP3    H1 2724   5.726   5.939   2.833
  906TIP3    H2 2725   5.708   5.980   2.978
  907TIP3   OH2 2726   0.453   4.287   1.457
  907TIP3    H1 2727   0.523   4.323   1.511
  907TIP3    H2 2728   0.374   4.329   1.488
  908TIP3   OH2 2729   0.996   1.392   4.162
  908TIP3    H1 2730   0.974   1.435   4.079
  908TIP3    H2 2731   1.091   1.383   4.159
  909TIP3   OH2 2732   5.091   2.934   3.862
  909TIP3    H1 2733   5.107   2.844   3.834
  909TIP3    H2 2734   5.084   2.984   3.780
  910TIP3   OH2 2735   3.131   3.533   3.369
  910TIP3    H1 2736   3.203   3.502   3.314
  910TIP3    H2 2737   3.171   3.596   3.428
  911TIP3   OH2 2738   5.493   4.772   4.168
  911TIP3    H1 2739   5.479   4.735   4.255
  911TIP3    H2 2740   5.414   4.824   4.152
  912TIP3   OH2 2741   0.119   5.105   1.272
  912TIP3    H1 2742   0.186   5.044   1.302
  912TIP3    H2 2743   0.037   5.057   1.282
  913TIP3   OH2 2744   5.973   2.410   2.197
  913TIP3    H1 2745   5.956   2.458   2.278
  913TIP3    H2 2746   5.957   2.318   2.220
  914TIP3   OH2 2747   2.596   1.468   4.940
  914TIP3    H1 2748   2.555   1.416   5.009
  914TIP3    H2 2749   2.523   1.511   4.896
  915TIP3   OH2 2750   2.559   5.657   0.312
  915TIP3    H1 2751   2.578   5.618   0.397
  915TIP3    H2 2752   2.645   5.678   0.275
  916TIP3   OH2 2753   2.876   3.185   1.135
  916TIP3    H1 2754   2.869   3.090   1.136
  916TIP3    H2 2755   2.970   3.203   1.131
  917TIP3   OH2 2756   3.769   2.146   0.830
  917TIP3    H1 2757   3.735   2.169   0.744
  917TIP3    H2 2758   3.855   2.109   0.813
  918TIP3   OH2 2759   3.318   3.133   0.900
  918TIP3    H1 2760   3.296   3.103   0.988
  918TIP3    H2 2761   3.306   3.056   0.845
  919TIP3   OH2 2762   2.029   5.565   2.945
  919TIP3    H1 2763   2.029   5.601   2.857
  919TIP3    H2 2764   1.939   5.576   2.976
  920TIP3   OH2 2765   0.866   4.996   1.588
  920TIP3    H1 2766   0.790   4.940   1.601
  920TIP3    H2 2767   0.889   4.983   1.496
  921TIP3   OH2 2768   4.641   0.243   1.668
  921TIP3    H1 2769   4.633   0.209   1.757
  921TIP3    H2 2770   4.578   0.191   1.617
  922TIP3   OH2 2771   6.019   3.737   2.299
  922TIP3    H1 2772   6.106   3.775   2.305
  922TIP3    H2 2773   5.991   3.727   2.390
  923TIP3   OH2 2774   4.152   2.577   3.191
  923TIP3    H1 2775   4.070   2.570   3.142
  923TIP3    H2 2776   4.135   2.644   3.256
  924TIP3   OH2 2777   2.153   3.912   3.393
  924TIP3    H1 2778   2.099   3.967   3.450
  924TIP3    H2 2779   2.178   3.970   3.321
  925TIP3   OH2 2780   0.782   1.856   5.037
  925TIP3    H1 2781   0.716   1.923   5.054
  925TIP3    H2 2782   0.754   1.816   4.955
  926TIP3   OH2 2783   0.996   3.876   1.078
  926TIP3    H1 2784   1.060   3.869   1.007
  926TIP3    H2 2785   0.983   3.970   1.090
  927TIP3   OH2 2786   2.498   1.057   4.458
  927TIP3    H1 2787   2.581   1.098   4.433
  927TIP3    H2 2788   2.452   1.123   4.509
  928TIP3   OH2 2789   0.966   2.671   4.300
  928TIP3    H1 2790   1.004   2.624   4.374
  928TIP3    H2 2791   1.031   2.738   4.277
  929TIP3   OH2 2792   6.183   5.633   1.215
  929TIP3    H1 2793   6.263   5.583   1.197
  929TIP3    H2 2794   6.113   5.567   1.215
  930TIP3   OH2 2795   0.885   3.953   4.260
  930TIP3    H1 2796   0.974   3.978   4.284
  930TIP3    H2 2797   0.874   3.984   4.170
  931TIP3   OH2 2798   0.853   4.282   0.837
  931TIP3    H1 2799   0.775   4.286   0.782
  931TIP3    H2 2800   0.826   4.322   0.920
  932TIP3   OH2 2801   1.827   2.917   0.783
  932TIP3    H1 2802   1.773   2.854   0.735
  932TIP3    H2 2803   1.812   2.896   0.875
  933TIP3   OH2 2804   3.521   4.982   0.427
  933TIP3    H1 2805   3.483   4.991   0.339
  933TIP3    H2 2806   3.497   5.063   0.472
  934TIP3   OH2 2807   5.408   3.456   4.614
  934TIP3    H1 2808   5.493   3.499   4.623
  934TIP3    H2 2809   5.428   3.362   4.612
  935TIP3   OH2 2810   3.759   1.110   3.970
  935TIP3    H1 2811   3.732   1.031   4.017
  935TIP3    H2 2812   3.684   1.169   3.979
  936TIP3   OH2 2813   0.622   0.494   3.782
  936TIP3    H1 2814   0.639   0.494   3.876
  936TIP3    H2 2815   0.529   0.472   3.775
  937TIP3   OH2 2816   3.289   2.659   1.996
  937TIP3    H1 2817   3.239   2.610   2.061
  937TIP3    H2 2818   3.227   2.675   1.925
  938TIP3   OH2 2819   4.715   4.738   1.017
  938TIP3    H1 2820   4.665   4.657   1.010
  938TIP3    H2 2821   4.759   4.747   0.933
  939TIP3   OH2 2822   5.557   4.336   1.597
  939TIP3    H1 2823   5.533   4.253   1.555
  939TIP3    H2 2824   5.625   4.373   1.540
  940TIP3   OH2 2825   5.431   2.354   2.580
  940TIP3    H1 2826   5.423   2.262   2.604
  940TIP3    H2 2827   5.342   2.389   2.588
  941TIP3   OH2 2828   3.446   2.282   1.544
  941TIP3    H1 2829   3.362   2.236   1.550
  941TIP3    H2 2830   3.510   2.213   1.534
  942TIP3   OH2 2831   3.334   0.871   5.144
  942TIP3    H1 2832   3.411   0.908   5.187
  942TIP3    H2 2833   3.352   0.778   5.137
  943TIP3   OH2 2834   4.299   2.003   2.536
  943TIP3    H1 2835   4.318   2.096   2.526
  943TIP3    H2 2836   4.352   1.960   2.469
  944TIP3   OH2 2837   6.182   1.496   1.312
  944TIP3    H1 2838   6.114   1.448   1.265
  944TIP3    H2 2839   6.262   1.476   1.264
  945TIP3   OH2 2840   3.325   1.023   2.522
  945TIP3    H1 2841   3.331   1.098   2.463
  945TIP3    H2 2842   3.391   1.040   2.589
  946TIP3   OH2 2843   5.978   3.280   0.779
  946TIP3    H1 2844   6.069   3.251   0.786
  946TIP3    H2 2845   5.970   3.317   0.691
  947TIP3   OH2 2846   2.457   3.560   1.904
  947TIP3    H1 2847   2.388   3.608   1.857
  947TIP3    H2 2848   2.538   3.606   1.882
  948TIP3   OH2 2849   5.181   1.528   2.159
  948TIP3    H1 2850   5.229   1.577   2.092
  948TIP3    H2 2851   5.195   1.578   2.240
  949TIP3   OH2 2852   0.070   4.515   3.275
  949TIP3    H1 2853   0.117   4.571   3.336
  949TIP3    H2 2854   0.117   4.523   3.193
  950TIP3   OH2 2855   0.366   3.151   0.329
  950TIP3    H1 2856   0.407   3.154   0.416
  950TIP3    H2 2857   0.407   3.077   0.286
  951TIP3   OH2 2858   4.308   5.814   1.034
  951TIP3    H1 2859   4.389   5.866   1.030
  951TIP3    H2 2860   4.248   5.859   0.974
  952TIP3   OH2 2861   1.857   2.505   3.063
  952TIP3    H1 2862   1.895   2.585   3.098
  952TIP3    H2 2863   1.844   2.448   3.139
  953TIP3   OH2 2864   5.971   4.511   1.584
  953TIP3    H1 2865   5.912   4.458   1.530
  953TIP3    H2 2866   6.057   4.501   1.543
  954TIP3   OH2 2867   2.360   5.405   1.993
  954TIP3    H1 2868   2.310   5.361   1.924
  954TIP3    H2 2869   2.380   5.335   2.056
  955TIP3   OH2 2870   5.842   0.154   4.148
  955TIP3    H1 2871   5.772   0.216   4.169
  955TIP3    H2 2872   5.817   0.117   4.064
  956TIP3   OH2 2873   4.743   0.500   3.114
  956TIP3    H1 2874   4.647   0.499   3.117
  956TIP3    H2 2875   4.765   0.455   3.032
  957TIP3   OH2 2876   4.698   3.855   2.429
  957TIP3    H1 2877   4.784   3.855   2.388
  957TIP3    H2 2878   4.636   3.871   2.358
  958TIP3   OH2 2879   5.749   0.597   0.441
  958TIP3    H1 2880   5.769   0.665   0.377
  958TIP3    H2 2881   5.741   0.517   0.390
  959TIP3   OH2 2882   2.431   1.576   3.123
  959TIP3    H1 2883   2.410   1.668   3.140
  959TIP3    H2 2884   2.524   1.569   3.140
  960TIP3   OH2 2885   0.536   1.810   1.829
  960TIP3    H1 2886   0.469   1.877   1.820
  960TIP3    H2 2887   0.495   1.730   1.796
  961TIP3   OH2 2888   1.398   2.449   0.140
  961TIP3    H1 2889   1.379   2.387   0.210
  961TIP3    H2 2890   1.316   2.456   0.091
  962TIP3   OH2 2891   4.922   3.177   3.952
  962TIP3    H1 2892   4.966   3.095   3.928
  962TIP3    H2 2893   4.969   3.206   4.031
  963TIP3   OH2 2894   0.174   5.815   2.704
  963TIP3    H1 2895   0.252   5.861   2.673
  963TIP3    H2 2896   0.197   5.722   2.699
  964TIP3   OH2 2897   0.283   4.973   3.463
  964TIP3    H1 2898   0.289   4.987   3.368
  964TIP3    H2 2899   0.356   4.914   3.483
  965TIP3   OH2 2900   2.439   0.952   2.675
  965TIP3    H1 2901   2.356   0.976   2.635
  965TIP3    H2 2902   2.419   0.874   2.727
  966TIP3   OH2 2903   1.039   5.094   2.306
  966TIP3    H1 2904   1.007   5.184   2.304
  966TIP3    H2 2905   1.130   5.102   2.336
  967TIP3   OH2 2906   4.787   2.359   2.665
  967TIP3    H1 2907   4.774   2.401   2.580
  967TIP3    H2 2908   4.830   2.426   2.718
  968TIP3   OH2 2909   2.191   0.162   4.943
  968TIP3    H1 2910   2.176   0.083   4.890
  968TIP3    H2 2911   2.103   0.197   4.959
  969TIP3   OH2 2912   4.235   5.111   0.718
  969TIP3    H1 2913   4.264   5.094   0.807
  969TIP3    H2 2914   4.226   5.024   0.679
  970TIP3   OH2 2915   0.466   2.424   5.027
  970TIP3    H1 2916   0.377   2.402   5.054
  970TIP3    H2 2917   0.514   2.436   5.109
  971TIP3   OH2 2918   3.964   5.150   2.362
  971TIP3    H1 2919   3.980   5.085   2.295
  971TIP3    H2 2920   4.049   5.165   2.404
  972TIP3   OH2 2921   2.530   5.833   0.033
  972TIP3    H1 2922   2.576   5.842   0.117
  972TIP3    H2 2923   2.503   5.741   0.031
  973TIP3   OH2 2924   5.929   1.666   4.042
  973TIP3    H1 2925   5.846   1.629   4.015
  973TIP3    H2 2926   5.977   1.594   4.083
  974TIP3   OH2 2927   5.551   2.071   0.187
  974TIP3    H1 2928   5.629   2.078   0.132
  974TIP3    H2 2929   5.481   2.048   0.127
  975TIP3   OH2 2930   4.309   3.603   1.082
  975TIP3    H1 2931   4.304   3.510   1.062
  975TIP3    H2 2932   4.366   3.639   1.014
  976TIP3   OH2 2933   4.047   1.152   3.615
  976TIP3    H1 2934   4.029   1.121   3.703
  976TIP3    H2 2935   4.005   1.088   3.558
  977TIP3   OH2 2936   3.512   1.533   2.375
  977TIP3    H1 2937   3.476   1.561   2.291
  977TIP3    H2 2938   3.437   1.500   2.424
  978TIP3   OH2 2939   6.139   3.628   3.843
  978TIP3    H1 2940   6.179   3.572   3.909
  978TIP3    H2 2941   6.076   3.571   3.798
  979TIP3   OH2 2942   3.049   1.778   4.543
  979TIP3    H1 2943   3.114   1.724   4.499
  979TIP3    H2 2944   2.993   1.716   4.589
  980TIP3   OH2 2945   3.179   1.431   1.309
  980TIP3    H1 2946   3.203   1.413   1.400
  980TIP3    H2 2947   3.229   1.368   1.258
  981TIP3   OH2 2948   0.781   3.625   2.639
  981TIP3    H1 2949   0.871   3.658   2.641
  981TIP3    H2 2950   0.771   3.578   2.721
  982TIP3   OH2 2951   4.159   1.583   4.500
  982TIP3    H1 2952   4.210   1.621   4.571
  982TIP3    H2 2953   4.155   1.651   4.434
  983TIP3   OH2 2954   1.797   0.238   3.158
  983TIP3    H1 2955   1.768   0.160   3.111
  983TIP3    H2 2956   1.889   0.250   3.132
  984TIP3   OH2 2957   5.890   4.677   4.560
  984TIP3    H1 2958   5.926   4.648   4.644
  984TIP3    H2 2959   5.853   4.763   4.578
  985TIP3   OH2 2960   3.412   5.755   1.471
  985TIP3    H1 2961   3.462   5.835   1.454
  985TIP3    H2 2962   3.387   5.723   1.385
  986TIP3   OH2 2963   1.774   5.126   3.475
  986TIP3    H1 2964   1.732   5.045   3.504
  986TIP3    H2 2965   1.853   5.133   3.528
  987TIP3   OH2 2966   4.454   1.756   1.566
  987TIP3    H1 2967   4.539   1.796   1.585
  987TIP3    H2 2968   4.455   1.675   1.618
  988TIP3   OH2 2969   4.615   3.709   1.713
  988TIP3    H1 2970   4.652   3.621   1.721
  988TIP3    H2 2971   4.534   3.697   1.664
  989TIP3   OH2 2972   4.457   4.026   5.184
  989TIP3    H1 2973   4.534   3.974   5.161
  989TIP3    H2 2974   4.491   4.091   5.246
  990TIP3   OH2 2975   4.945   2.786   3.611
  990TIP3    H1 2976   4.977   2.699   3.587
  990TIP3    H2 2977   4.953   2.837   3.531
  991TIP3   OH2 2978   1.371   4.006   1.755
  991TIP3    H1 2979   1.360   3.997   1.850
  991TIP3    H2 2980   1.297   3.956   1.718
  992TIP3   OH2 2981   0.824   5.305   2.010
  992TIP3    H1 2982   0.796   5.221   2.047
  992TIP3    H2 2983   0.761   5.369   2.046
  993TIP3   OH2 2984   5.085   5.443   1.886
  993TIP3    H1 2985   4.992   5.422   1.877
  993TIP3    H2 2986   5.092   5.483   1.973
  994TIP3   OH2 2987   3.709   4.530   0.606
  994TIP3    H1 2988   3.667   4.473   0.542
  994TIP3    H2 2989   3.651   4.606   0.613
  995TIP3   OH2 2990   1.086   0.271   2.347
  995TIP3    H1 2991   1.064   0.211   2.276
  995TIP3    H2 2992   1.180   0.259   2.360
  996TIP3   OH2 2993   4.859   1.673   4.248
  996TIP3    H1 2994   4.857   1.627   4.332
  996TIP3    H2 2995   4.786   1.735   4.252
  997TIP3   OH2 2996   4.679   2.050   2.379
  997TIP3    H1 2997   4.655   2.096   2.460
  997TIP3    H2 2998   4.752   1.993   2.405
  998TIP3   OH2 2999   2.141   1.233   0.814
  998TIP3    H1 3000   2.154   1.154   0.762
  998TIP3    H2 3001   2.145   1.202   0.905
  999TIP3   OH2 3002   0.514   4.006   4.114
  999TIP3    H1 3003   0.443   3.953   4.076
  999TIP3    H2 3004   0.574   3.941   4.151
 1000TIP3   OH2 3005   5.967   3.357   4.678
 1000TIP3    H1 3006   5.943   3.354   4.586
 1000TIP3    H2 3007   5.907   3.296   4.720
 1001TIP3   OH2 3008   0.784   5.749   4.479
 1001TIP3    H1 3009   0.801   5.664   4.440
 1001TIP3    H2 3010   0.868   5.776   4.516
 1002TIP3   OH2 3011   3.593   1.646   0.542
 1002TIP3    H1 3012   3.608   1.707   0.470
 1002TIP3    H2 3013   3.681   1.620   0.570
 1003TIP3   OH2 3014   6.091   1.998   3.684
 1003TIP3    H1 3015   6.030   2.044   3.628
 1003TIP3    H2 3016   6.039   1.927   3.723
 1004TIP3   OH2 3017   3.821   4.380   0.795
 1004TIP3    H1 3018   3.789   4.295   0.766
 1004TIP3    H2 3019   3.799   4.440   0.724
 1005TIP3   OH2 3020   1.001   4.329   3.001
 1005TIP3    H1 3021   1.076   4.270   3.010
 1005TIP3    H2 3022   0.938   4.297   3.065
 1006TIP3   OH2 3023   3.799   5.570   2.745
 1006TIP3    H1 3024   3.784   5.488   2.698
 1006TIP3    H2 3025   3.736   5.631   2.706
 1007TIP3   OH2 3026   3.289   2.192   2.271
 1007TIP3    H1 3027   3.377   2.207   2.236
 1007TIP3    H2 3028   3.230   2.226   2.204
 1008TIP3   OH2 3029   3.485   4.231   2.693
 1008TIP3    H1 3030   3.460   4.320   2.718
 1008TIP3    H2 3031   3.573   4.220   2.730
 1009TIP3   OH2 3032   3.671   0.814   4.040
 1009TIP3    H1 3033   3.580   0.832   4.015
 1009TIP3    H2 3034   3.695   0.737   3.989
 1010TIP3   OH2 3035   4.495   2.753   0.821
 1010TIP3    H1 3036   4.480   2.844   0.846
 1010TIP3    H2 3037   4.584   2.751   0.786
 1011TIP3   OH2 3038   5.011   0.496   2.729
 1011TIP3    H1 3039   4.935   0.477   2.784
 1011TIP3    H2 3040   5.020   0.419   2.673
 1012TIP3   OH2 3041   4.901   4.861   2.248
 1012TIP3    H1 3042   4.862   4.805   2.315
 1012TIP3    H2 3043   4.961   4.803   2.201
 1013TIP3   OH2 3044   1.226   5.343   2.936
 1013TIP3    H1 3045   1.290   5.316   2.869
 1013TIP3    H2 3046   1.240   5.438   2.945
 1014TIP3   OH2 3047   3.488   0.941   4.658
 1014TIP3    H1 3048   3.462   1.000   4.587
 1014TIP3    H2 3049   3.464   0.988   4.738
 1015TIP3   OH2 3050   2.842   5.370   2.892
 1015TIP3    H1 3051   2.919   5.423   2.871
 1015TIP3    H2 3052   2.777   5.433   2.923
 1016TIP3   OH2 3053   1.720   3.138   2.894
 1016TIP3    H1 3054   1.700   3.122   2.802
 1016TIP3    H2 3055   1.640   3.175   2.931
 1017TIP3   OH2 3056   0.165   3.473   0.869
 1017TIP3    H1 3057   0.167   3.379   0.884
 1017TIP3    H2 3058   0.206   3.510   0.947
 1018TIP3   OH2 3059   5.577   5.827   3.324
 1018TIP3    H1 3060   5.572   5.884   3.247
 1018TIP3    H2 3061   5.560   5.739   3.289
 1019TIP3   OH2 3062   2.186   2.265   3.716
 1019TIP3    H1 3063   2.189   2.170   3.729
 1019TIP3    H2 3064   2.231   2.280   3.633
 1020TIP3   OH2 3065   2.383   2.831   2.898
 1020TIP3    H1 3066   2.413   2.876   2.819
 1020TIP3    H2 3067   2.428   2.875   2.970
 1021TIP3   OH2 3068   5.623   2.653   0.746
 1021TIP3    H1 3069   5.717   2.667   0.760
 1021TIP3    H2 3070   5.594   2.607   0.824
 1022TIP3   OH2 3071   5.046   2.454   4.376
 1022TIP3    H1 3072   5.061   2.445   4.281
 1022TIP3    H2 3073   4.986   2.383   4.397
 1023TIP3   OH2 3074   1.759   1.819   2.470
 1023TIP3    H1 3075   1.708   1.880   2.522
 1023TIP3    H2 3076   1.743   1.843   2.379
 1024TIP3   OH2 3077   4.865   2.826   4.366
 1024TIP3    H1 3078   4.810   2.899   4.394
 1024TIP3    H2 3079   4.825   2.749   4.405
 1025TIP3   OH2 3080   5.524   4.314   3.699
 1025TIP3    H1 3081   5.557   4.384   3.756
 1025TIP3    H2 3082   5.431   4.331   3.691
 1026TIP3   OH2 3083   1.536   5.922   0.835
 1026TIP3    H1 3084   1.615   5.893   0.789
 1026TIP3    H2 3085   1.465   5.872   0.795
 1027TIP3   OH2 3086   4.953   1.966   4.169
 1027TIP3    H1 3087   5.049   1.971   4.171
 1027TIP3    H2 3088   4.930   1.983   4.078
 1028TIP3   OH2 3089   0.867   1.289   3.319
 1028TIP3    H1 3090   0.817   1.230   3.375
 1028TIP3    H2 3091   0.858   1.375   3.361
 1029TIP3   OH2 3092   6.011   4.626   0.809
 1029TIP3    H1 3093   6.009   4.679   0.889
 1029TIP3    H2 3094   6.060   4.679   0.746
 1030TIP3   OH2 3095   0.376   2.838   0.372
 1030TIP3    H1 3096   0.363   2.755   0.327
 1030TIP3    H2 3097   0.320   2.832   0.450
 1031TIP3   OH2 3098   1.201   5.549   3.962
 1031TIP3    H1 3099   1.267   5.503   4.014
 1031TIP3    H2 3100   1.215   5.519   3.873
 1032TIP3   OH2 3101   0.702   3.310   4.379
 1032TIP3    H1 3102   0.718   3.220   4.349
 1032TIP3    H2 3103   0.633   3.302   4.445
 1033TIP3   OH2 3104   5.702   3.493   3.084
 1033TIP3    H1 3105   5.607   3.483   3.074
 1033TIP3    H2 3106   5.712   3.572   3.137
 1034TIP3   OH2 3107   5.142   4.896   1.438
 1034TIP3    H1 3108   5.206   4.857   1.498
 1034TIP3    H2 3109   5.114   4.977   1.482
 1035TIP3   OH2 3110   2.107   0.398   1.270
 1035TIP3    H1 3111   2.022   0.370   1.239
 1035TIP3    H2 3112   2.170   0.358   1.209
 1036TIP3   OH2 3113   1.772   0.200   4.104
 1036TIP3    H1 3114   1.783   0.183   4.198
 1036TIP3    H2 3115   1.766   0.113   4.064
 1037TIP3   OH2 3116   0.260   2.835   0.628
 1037TIP3    H1 3117   0.244   2.923   0.661
 1037TIP3    H2 3118   0.289   2.786   0.705
 1038TIP3   OH2 3119   4.721   1.168   0.749
 1038TIP3    H1 3120   4.791   1.218   0.706
 1038TIP3    H2 3121   4.689   1.226   0.817
 1039TIP3   OH2 3122   0.179   5.478   4.101
 1039TIP3    H1 3123   0.128   5.398   4.092
 1039TIP3    H2 3124   0.270   5.449   4.109
 1040TIP3   OH2 3125   5.426   3.804   1.118
 1040TIP3    H1 3126   5.380   3.775   1.039
 1040TIP3    H2 3127   5.405   3.737   1.183
 1041TIP3   OH2 3128   5.494   1.802   1.134
 1041TIP3    H1 3129   5.429   1.871   1.148
 1041TIP3    H2 3130   5.444   1.729   1.097
 1042TIP3   OH2 3131   6.093   2.589   3.249
 1042TIP3    H1 3132   6.036   2.662   3.225
 1042TIP3    H2 3133   6.039   2.511   3.238
 1043TIP3   OH2 3134   1.317   5.801   2.651
 1043TIP3    H1 3135   1.253   5.730   2.654
 1043TIP3    H2 3136   1.279   5.870   2.705
 1044TIP3   OH2 3137   4.764   5.941   2.005
 1044TIP3    H1 3138   4.728   5.972   2.089
 1044TIP3    H2 3139   4.765   6.019   1.950
 1045TIP3   OH2 3140   3.135   1.888   1.067
 1045TIP3    H1 3141   3.183   1.937   1.134
 1045TIP3    H2 3142   3.103   1.810   1.112
 1046TIP3   OH2 3143   0.463   2.282   4.363
 1046TIP3    H1 3144   0.551   2.243   4.361
 1046TIP3    H2 3145   0.479   2.374   4.383
 1047TIP3   OH2 3146   3.901   4.095   3.111
 1047TIP3    H1 3147   3.961   4.084   3.037
 1047TIP3    H2 3148   3.915   4.185   3.142
 1048TIP3   OH2 3149   3.396   3.508   0.822
 1048TIP3    H1 3150   3.415   3.422   0.785
 1048TIP3    H2 3151   3.476   3.532   0.869
 1049TIP3   OH2 3152   5.182   3.373   4.442
 1049TIP3    H1 3153   5.242   3.441   4.471
 1049TIP3    H2 3154   5.140   3.409   4.364
 1050TIP3   OH2 3155   1.230   4.880   4.253
 1050TIP3    H1 3156   1.154   4.913   4.206
 1050TIP3    H2 3157   1.227   4.785   4.240
 1051TIP3   OH2 3158   5.602   1.276   3.087
 1051TIP3    H1 3159   5.622   1.194   3.041
 1051TIP3    H2 3160   5.585   1.248   3.178
 1052TIP3   OH2 3161   4.694   4.976   4.555
 1052TIP3    H1 3162   4.687   4.957   4.649
 1052TIP3    H2 3163   4.654   4.901   4.512
 1053TIP3   OH2 3164   4.191   5.163   1.525
 1053TIP3    H1 3165   4.156   5.203   1.445
 1053TIP3    H2 3166   4.124   5.100   1.552
 1054TIP3   OH2 3167   1.103   1.213   4.438
 1054TIP3    H1 3168   1.022   1.214   4.489
 1054TIP3    H2 3169   1.172   1.229   4.502
 1055TIP3   OH2 3170   0.641   2.363   4.711
 1055TIP3    H1 3171   0.581   2.430   4.745
 1055TIP3    H2 3172   0.610   2.281   4.749
 1056TIP3   OH2 3173   1.443   1.428   0.499
 1056TIP3    H1 3174   1.366   1.485   0.497
 1056TIP3    H2 3175   1.474   1.432   0.589
 1057TIP3   OH2 3176   4.507   5.141   5.202
 1057TIP3    H1 3177   4.597   5.134   5.233
 1057TIP3    H2 3178   4.513   5.193   5.122
 1058TIP3   OH2 3179   1.659   4.822   2.013
 1058TIP3    H1 3180   1.577   4.872   2.017
 1058TIP3    H2 3181   1.631   4.731   2.006
 1059TIP3   OH2 3182   1.060   1.259   0.851
 1059TIP3    H1 3183   1.017   1.185   0.808
 1059TIP3    H2 3184   0.990   1.303   0.899
 1060TIP3   OH2 3185   0.283   1.372   1.596
 1060TIP3    H1 3186   0.196   1.395   1.629
 1060TIP3    H2 3187   0.266   1.308   1.527
 1061TIP3   OH2 3188   4.061   1.173   2.625
 1061TIP3    H1 3189   4.033   1.250   2.674
 1061TIP3    H2 3190   4.035   1.190   2.535
 1062TIP3   OH2 3191   0.468   3.424   3.185
 1062TIP3    H1 3192   0.430   3.505   3.152
 1062TIP3    H2 3193   0.427   3.411   3.270
 1063TIP3   OH2 3194   0.490   4.691   3.309
 1063TIP3    H1 3195   0.396   4.677   3.324
 1063TIP3    H2 3196   0.514   4.759   3.371
 1064TIP3   OH2 3197   6.341   1.161   3.037
 1064TIP3    H1 3198   6.417   1.110   3.010
 1064TIP3    H2 3199   6.285   1.164   2.959
 1065TIP3   OH2 3200   0.592   2.534   1.276
 1065TIP3    H1 3201   0.620   2.622   1.299
 1065TIP3    H2 3202   0.604   2.483   1.356
 1066TIP3   OH2 3203   4.331   4.296   1.948
 1066TIP3    H1 3204   4.413   4.248   1.960
 1066TIP3    H2 3205   4.358   4.383   1.919
 1067TIP3   OH2 3206   6.119   1.480   2.520
 1067TIP3    H1 3207   6.129   1.487   2.425
 1067TIP3    H2 3208   6.139   1.568   2.552
 1068TIP3   OH2 3209   1.058   0.577   1.563
 1068TIP3    H1 3210   1.139   0.615   1.527
 1068TIP3    H2 3211   1.086   0.538   1.647
 1069TIP3   OH2 3212   3.129   5.028   1.841
 1069TIP3    H1 3213   3.111   5.113   1.802
 1069TIP3    H2 3214   3.224   5.023   1.844
 1070TIP3   OH2 3215   2.947   0.291   4.005
 1070TIP3    H1 3216   2.898   0.364   3.967
 1070TIP3    H2 3217   2.914   0.213   3.960
 1071TIP3   OH2 3218   6.005   1.234   1.040
 1071TIP3    H1 3219   6.069   1.242   0.970
 1071TIP3    H2 3220   6.003   1.141   1.061
 1072TIP3   OH2 3221   4.526   0.206   5.127
 1072TIP3    H1 3222   4.451   0.247   5.171
 1072TIP3    H2 3223   4.490   0.126   5.088
 1073TIP3   OH2 3224   4.845   4.081   4.678
 1073TIP3    H1 3225   4.814   4.043   4.760
 1073TIP3    H2 3226   4.873   4.169   4.702
 1074TIP3   OH2 3227   3.500   5.411   2.592
 1074TIP3    H1 3228   3.455   5.396   2.509
 1074TIP3    H2 3229   3.593   5.403   2.572
 1075TIP3   OH2 3230   2.404   2.455   0.615
 1075TIP3    H1 3231   2.320   2.465   0.659
 1075TIP3    H2 3232   2.390   2.490   0.527
 1076TIP3   OH2 3233   1.422   0.276   4.164
 1076TIP3    H1 3234   1.484   0.308   4.098
 1076TIP3    H2 3235   1.452   0.315   4.246
 1077TIP3   OH2 3236   2.107   0.132   4.202
 1077TIP3    H1 3237   2.197   0.102   4.193
 1077TIP3    H2 3238   2.055   0.052   4.211
 1078TIP3   OH2 3239   0.775   1.504   4.827
 1078TIP3    H1 3240   0.744   1.574   4.884
 1078TIP3    H2 3241   0.706   1.437   4.831
 1079TIP3   OH2 3242   0.825   2.683   1.058
 1079TIP3    H1 3243   0.741   2.720   1.086
 1079TIP3    H2 3244   0.885   2.758   1.059
 1080TIP3   OH2 3245   3.532   2.182   2.950
 1080TIP3    H1 3246   3.441   2.167   2.975
 1080TIP3    H2 3247   3.583   2.142   3.021
 1081TIP3   OH2 3248   6.027   3.781   1.545
 1081TIP3    H1 3249   6.082   3.859   1.533
 1081TIP3    H2 3250   5.945   3.815   1.580
 1082TIP3   OH2 3251   0.599   5.144   4.208
 1082TIP3    H1 3252   0.608   5.093   4.288
 1082TIP3    H2 3253   0.629   5.085   4.138
 1083TIP3   OH2 3254   4.788   3.951   3.294
 1083TIP3    H1 3255   4.734   3.886   3.338
 1083TIP3    H2 3256   4.733   4.030   3.291
 1084TIP3   OH2 3257   2.301   0.986   0.290
 1084TIP3    H1 3258   2.396   0.978   0.297
 1084TIP3    H2 3259   2.288   1.055   0.225
 1085TIP3   OH2 3260   2.575   4.745   3.478
 1085TIP3    H1 3261   2.533   4.830   3.463
 1085TIP3    H2 3262   2.537   4.687   3.411
 1086TIP3   OH2 3263   4.586   1.013   3.365
 1086TIP3    H1 3264   4.583   0.953   3.290
 1086TIP3    H2 3265   4.524   1.082   3.342
 1087TIP3   OH2 3266   3.813   5.476   0.329
 1087TIP3    H1 3267   3.879   5.480   0.397
 1087TIP3    H2 3268   3.860   5.497   0.248
 1088TIP3   OH2 3269   2.757   3.899   4.425
 1088TIP3    H1 3270   2.685   3.868   4.480
 1088TIP3    H2 3271   2.783   3.822   4.374
 1089TIP3   OH2 3272   3.816   3.689   4.856
 1089TIP3    H1 3273   3.852   3.744   4.926
 1089TIP3    H2 3274   3.878   3.617   4.847
 1090TIP3   OH2 3275   2.523   3.884   4.724
 1090TIP3    H1 3276   2.617   3.871   4.725
 1090TIP3    H2 3277   2.496   3.864   4.635
 1091TIP3   OH2 3278   3.201   3.734   4.012
 1091TIP3    H1 3279   3.145   3.718   3.936
 1091TIP3    H2 3280   3.285   3.762   3.975
 1092TIP3   OH2 3281   4.953   0.778   4.269
 1092TIP3    H1 3282   5.004   0.722   4.328
 1092TIP3    H2 3283   4.961   0.735   4.184
 1093TIP3   OH2 3284   5.914   1.411   1.238
 1093TIP3    H1 3285   5.887   1.354   1.310
 1093TIP3    H2 3286   5.965   1.355   1.180
 1094TIP3   OH2 3287   2.907   1.677   2.988
 1094TIP3    H1 3288   2.827   1.650   2.944
 1094TIP3    H2 3289   2.971   1.685   2.917
 1095TIP3   OH2 3290   2.360   4.570   3.928
 1095TIP3    H1 3291   2.275   4.564   3.971
 1095TIP3    H2 3292   2.353   4.646   3.870
 1096TIP3   OH2 3293   3.370   0.560   4.528
 1096TIP3    H1 3294   3.363   0.630   4.463
 1096TIP3    H2 3295   3.421   0.599   4.599
 1097TIP3   OH2 3296   2.279   5.560   1.494
 1097TIP3    H1 3297   2.352   5.621   1.484
 1097TIP3    H2 3298   2.202   5.616   1.496
 1098TIP3   OH2 3299   0.568   5.175   4.591
 1098TIP3    H1 3300   0.502   5.215   4.647
 1098TIP3    H2 3301   0.609   5.249   4.545
 1099TIP3   OH2 3302   0.041   2.254   3.880
 1099TIP3    H1 3303   0.031   2.222   3.790
 1099TIP3    H2 3304   0.077   2.179   3.928
 1100TIP3   OH2 3305   4.546   5.377   0.996
 1100TIP3    H1 3306   4.579   5.320   1.066
 1100TIP3    H2 3307   4.606   5.452   0.996
 1101TIP3   OH2 3308   3.018   4.877   1.583
 1101TIP3    H1 3309   2.970   4.888   1.501
 1101TIP3    H2 3310   2.950   4.866   1.650
 1102TIP3   OH2 3311   3.927   1.586   0.457
 1102TIP3    H1 3312   3.924   1.584   0.553
 1102TIP3    H2 3313   4.007   1.538   0.435
 1103TIP3   OH2 3314   1.909   3.844   0.846
 1103TIP3    H1 3315   1.985   3.826   0.902
 1103TIP3    H2 3316   1.836   3.800   0.890
 1104TIP3   OH2 3317   1.041   0.114   3.622
 1104TIP3    H1 3318   1.066   0.030   3.582
 1104TIP3    H2 3319   1.086   0.180   3.569
 1105TIP3   OH2 3320   5.095   0.589   4.397
 1105TIP3    H1 3321   5.087   0.508   4.345
 1105TIP3    H2 3322   5.141   0.561   4.476
 1106TIP3   OH2 3323   1.070   0.875   4.917
 1106TIP3    H1 3324   1.078   0.970   4.907
 1106TIP3    H2 3325   1.160   0.842   4.910
 1107TIP3   OH2 3326   0.271   2.043   4.002
 1107TIP3    H1 3327   0.302   2.035   3.911
 1107TIP3    H2 3328   0.320   2.117   4.037
 1108TIP3   OH2 3329   5.982   2.695   2.156
 1108TIP3    H1 3330   5.939   2.690   2.070
 1108TIP3    H2 3331   5.999   2.604   2.179
 1109TIP3   OH2 3332   2.167   0.300   3.336
 1109TIP3    H1 3333   2.149   0.346   3.254
 1109TIP3    H2 3334   2.231   0.233   3.312
 1110TIP3   OH2 3335   6.380   4.703   4.118
 1110TIP3    H1 3336   6.297   4.750   4.125
 1110TIP3    H2 3337   6.389   4.658   4.202
 1111TIP3   OH2 3338   1.493   4.340   0.516
 1111TIP3    H1 3339   1.474   4.433   0.501
 1111TIP3    H2 3340   1.554   4.340   0.590
 1112TIP3   OH2 3341   2.391   3.996   1.990
 1112TIP3    H1 3342   2.385   3.998   1.895
 1112TIP3    H2 3343   2.317   4.050   2.020
 1113TIP3   OH2 3344   4.907   0.873   4.989
 1113TIP3    H1 3345   4.976   0.807   4.993
 1113TIP3    H2 3346   4.827   0.823   4.973
 1114TIP3   OH2 3347   0.058   3.998   3.342
 1114TIP3    H1 3348   0.102   4.083   3.347
 1114TIP3    H2 3349   0.063   3.974   3.249
 1115TIP3   OH2 3350   2.438   0.408   1.426
 1115TIP3    H1 3351   2.452   0.328   1.477
 1115TIP3    H2 3352   2.396   0.468   1.487
 1116TIP3   OH2 3353   4.730   0.483   2.050
 1116TIP3    H1 3354   4.642   0.455   2.075
 1116TIP3    H2 3355   4.783   0.404   2.058
 1117TIP3   OH2 3356   4.071   3.090   1.195
 1117TIP3    H1 3357   4.120   3.164   1.232
 1117TIP3    H2 3358   4.134   3.046   1.137
 1118TIP3   OH2 3359   0.269   2.904   4.642
 1118TIP3    H1 3360   0.238   2.906   4.732
 1118TIP3    H2 3361   0.336   2.972   4.638
 1119TIP3   OH2 3362   1.692   3.083   2.641
 1119TIP3    H1 3363   1.693   3.171   2.603
 1119TIP3    H2 3364   1.622   3.038   2.593
 1120TIP3   OH2 3365   5.327   4.489   4.310
 1120TIP3    H1 3366   5.364   4.416   4.359
 1120TIP3    H2 3367   5.365   4.567   4.352
 1121TIP3   OH2 3368   0.024   2.644   0.101
 1121TIP3    H1 3369   0.080   2.621   0.027
 1121TIP3    H2 3370   0.043   2.736   0.118
 1122TIP3   OH2 3371   1.715   4.388   3.716
 1122TIP3    H1 3372   1.776   4.462   3.708
 1122TIP3    H2 3373   1.629   4.429   3.723
 1123TIP3   OH2 3374   0.687   3.223   3.910
 1123TIP3    H1 3375   0.604   3.253   3.874
 1123TIP3    H2 3376   0.700   3.137   3.870
 1124TIP3   OH2 3377   1.106   1.167   1.717
 1124TIP3    H1 3378   1.130   1.239   1.776
 1124TIP3    H2 3379   1.119   1.088   1.769
 1125TIP3   OH2 3380   0.616   4.021   0.024
 1125TIP3    H1 3381   0.653   3.973  -0.050
 1125TIP3    H2 3382   0.534   3.974   0.044
 1126TIP3   OH2 3383   0.195   1.562   4.229
 1126TIP3    H1 3384   0.237   1.513   4.158
 1126TIP3    H2 3385   0.225   1.518   4.309
 1127TIP3   OH2 3386   6.070   3.554   4.313
 1127TIP3    H1 3387   6.156   3.564   4.353
 1127TIP3    H2 3388   6.070   3.617   4.241
 1128TIP3   OH2 3389   3.405   5.744   2.823
 1128TIP3    H1 3390   3.321   5.789   2.831
 1128TIP3    H2 3391   3.382   5.651   2.823
 1129TIP3   OH2 3392   5.455   3.192   4.666
 1129TIP3    H1 3393   5.543   3.178   4.633
 1129TIP3    H2 3394   5.400   3.137   4.610
 1130TIP3   OH2 3395   5.026   2.412   0.397
 1130TIP3    H1 3396   5.103   2.421   0.453
 1130TIP3    H2 3397   5.055   2.354   0.326
 1131TIP3   OH2 3398   5.995   5.677   4.064
 1131TIP3    H1 3399   5.988   5.753   4.122
 1131TIP3    H2 3400   5.954   5.705   3.982
 1132TIP3   OH2 3401   3.977   1.156   1.273
 1132TIP3    H1 3402   4.015   1.072   1.298
 1132TIP3    H2 3403   3.883   1.141   1.274
 1133TIP3   OH2 3404   4.825   3.965   1.995
 1133TIP3    H1 3405   4.769   3.904   2.043
 1133TIP3    H2 3406   4.769   3.997   1.924
 1134TIP3   OH2 3407   2.718   1.350   2.293
 1134TIP3    H1 3408   2.714   1.368   2.387
 1134TIP3    H2 3409   2.756   1.263   2.287
 1135TIP3   OH2 3410   2.353   0.787   1.897
 1135TIP3    H1 3411   2.355   0.813   1.989
 1135TIP3    H2 3412   2.272   0.736   1.888
 1136TIP3   OH2 3413   2.572   5.040   1.855
 1136TIP3    H1 3414   2.502   5.019   1.917
 1136TIP3    H2 3415   2.645   5.068   1.910
 1137TIP3   OH2 3416   3.831   5.810   5.064
 1137TIP3    H1 3417   3.765   5.872   5.033
 1137TIP3    H2 3418   3.795   5.724   5.043
 1138TIP3   OH2 3419   4.525   3.536   0.105
 1138TIP3    H1 3420   4.481   3.514   0.022
 1138TIP3    H2 3421   4.526   3.632   0.107
 1139TIP3   OH2 3422   3.989   5.987   2.425
 1139TIP3    H1 3423   3.967   5.906   2.471
 1139TIP3    H2 3424   4.043   6.036   2.486
 1140TIP3   OH2 3425   2.216   0.951   4.287
 1140TIP3    H1 3426   2.206   1.042   4.316
 1140TIP3    H2 3427   2.296   0.922   4.330
 1141TIP3   OH2 3428   6.247   0.084   2.644
 1141TIP3    H1 3429   6.213   0.029   2.715
 1141TIP3    H2 3430   6.314   0.138   2.686
 1142TIP3   OH2 3431   4.265   5.537   1.863
 1142TIP3    H1 3432   4.254   5.594   1.787
 1142TIP3    H2 3433   4.179   5.498   1.877
 1143TIP3   OH2 3434   4.864   4.644   2.494
 1143TIP3    H1 3435   4.912   4.646   2.577
 1143TIP3    H2 3436   4.896   4.566   2.449
 1144TIP3   OH2 3437   2.957   4.486   3.836
 1144TIP3    H1 3438   2.886   4.496   3.899
 1144TIP3    H2 3439   2.916   4.448   3.759
 1145TIP3   OH2 3440   4.858   4.826   1.268
 1145TIP3    H1 3441   4.798   4.892   1.303
 1145TIP3    H2 3442   4.816   4.795   1.188
 1146TIP3   OH2 3443   0.311   5.853   4.405
 1146TIP3    H1 3444   0.276   5.910   4.474
 1146TIP3    H2 3445   0.273   5.887   4.324
 1147TIP3   OH2 3446   3.590   2.281   4.904
 1147TIP3    H1 3447   3.662   2.248   4.958
 1147TIP3    H2 3448   3.561   2.205   4.854
 1148TIP3   OH2 3449   1.249   2.109   4.038
 1148TIP3    H1 3450   1.305   2.187   4.038
 1148TIP3    H2 3451   1.245   2.083   4.130
 1149TIP3   OH2 3452   0.814   0.861   1.189
 1149TIP3    H1 3453   0.794   0.935   1.246
 1149TIP3    H2 3454   0.858   0.798   1.246
 1150TIP3   OH2 3455   4.109   2.271   4.269
 1150TIP3    H1 3456   4.050   2.255   4.196
 1150TIP3    H2 3457   4.117   2.187   4.314
 1151TIP3   OH2 3458   3.700   2.765   1.164
 1151TIP3    H1 3459   3.768   2.817   1.123
 1151TIP3    H2 3460   3.745   2.715   1.232
 1152TIP3   OH2 3461   2.653   5.407   4.713
 1152TIP3    H1 3462   2.630   5.315   4.704
 1152TIP3    H2 3463   2.737   5.407   4.759
 1153TIP3   OH2 3464   4.767   3.677   3.220
 1153TIP3    H1 3465   4.850   3.716   3.193
 1153TIP3    H2 3466   4.702   3.716   3.162
 1154TIP3   OH2 3467   1.320   3.020   2.267
 1154TIP3    H1 3468   1.354   2.933   2.289
 1154TIP3    H2 3469   1.235   3.024   2.311
 1155TIP3   OH2 3470   4.559   4.596   1.287
 1155TIP3    H1 3471   4.545   4.506   1.258
 1155TIP3    H2 3472   4.501   4.648   1.232
 1156TIP3   OH2 3473   6.236   2.797   0.456
 1156TIP3    H1 3474   6.197   2.881   0.433
 1156TIP3    H2 3475   6.254   2.803   0.550
 1157TIP3   OH2 3476   0.434   5.754   2.162
 1157TIP3    H1 3477   0.436   5.775   2.256
 1157TIP3    H2 3478   0.363   5.690   2.153
 1158TIP3   OH2 3479   3.628   0.627   2.109
 1158TIP3    H1 3480   3.681   0.552   2.137
 1158TIP3    H2 3481   3.541   0.591   2.093
 1159TIP3   OH2 3482   0.438   1.624   1.658
 1159TIP3    H1 3483   0.441   1.540   1.613
 1159TIP3    H2 3484   0.356   1.621   1.708
 1160TIP3   OH2 3485   3.267   3.032   2.755
 1160TIP3    H1 3486   3.327   2.972   2.711
 1160TIP3    H2 3487   3.228   2.980   2.825
 1161TIP3   OH2 3488   4.407   3.462   4.010
 1161TIP3    H1 3489   4.390   3.554   4.030
 1161TIP3    H2 3490   4.449   3.463   3.924
 1162TIP3   OH2 3491   3.735   4.156   0.617
 1162TIP3    H1 3492   3.673   4.123   0.552
 1162TIP3    H2 3493   3.726   4.097   0.691
 1163TIP3   OH2 3494   4.577   0.834   2.678
 1163TIP3    H1 3495   4.496   0.783   2.681
 1163TIP3    H2 3496   4.559   0.903   2.614
 1164TIP3   OH2 3497   0.611   3.317   1.517
 1164TIP3    H1 3498   0.667   3.301   1.441
 1164TIP3    H2 3499   0.533   3.358   1.481
 1165TIP3   OH2 3500   4.577   3.053   1.217
 1165TIP3    H1 3501   4.665   3.038   1.250
 1165TIP3    H2 3502   4.522   3.055   1.295
 1166TIP3   OH2 3503   4.968   4.145   3.172
 1166TIP3    H1 3504   4.965   4.102   3.258
 1166TIP3    H2 3505   5.061   4.154   3.153
 1167TIP3   OH2 3506   2.331   4.667   2.577
 1167TIP3    H1 3507   2.342   4.622   2.660
 1167TIP3    H2 3508   2.394   4.739   2.580
 1168TIP3   OH2 3509   1.911   4.237   4.671
 1168TIP3    H1 3510   1.997   4.216   4.636
 1168TIP3    H2 3511   1.914   4.206   4.762
 1169TIP3   OH2 3512   5.465   5.750   2.726
 1169TIP3    H1 3513   5.412   5.700   2.788
 1169TIP3    H2 3514   5.410   5.823   2.701
 1170TIP3   OH2 3515   3.706   1.091   1.260
 1170TIP3    H1 3516   3.689   1.075   1.353
 1170TIP3    H2 3517   3.663   1.019   1.215
 1171TIP3   OH2 3518   1.501   5.081   3.276
 1171TIP3    H1 3519   1.580   5.043   3.239
 1171TIP3    H2 3520   1.520   5.175   3.283
 1172TIP3   OH2 3521   1.748   3.369   2.563
 1172TIP3    H1 3522   1.788   3.433   2.622
 1172TIP3    H2 3523   1.663   3.408   2.541
 1173TIP3   OH2 3524   0.680   4.543   2.242
 1173TIP3    H1 3525   0.616   4.474   2.224
 1173TIP3    H2 3526   0.718   4.520   2.326
 1174TIP3   OH2 3527   1.408   0.848   1.582
 1174TIP3    H1 3528   1.339   0.809   1.528
 1174TIP3    H2 3529   1.478   0.783   1.580
 1175TIP3   OH2 3530   4.794   2.842   2.622
 1175TIP3    H1 3531   4.825   2.828   2.533
 1175TIP3    H2 3532   4.773   2.935   2.626
 1176TIP3   OH2 3533   0.001   0.880   3.999
 1176TIP3    H1 3534   0.049   0.857   3.919
 1176TIP3    H2 3535  -0.065   0.943   3.970
 1177TIP3   OH2 3536   5.974   5.469   1.899
 1177TIP3    H1 3537   6.044   5.506   1.951
 1177TIP3    H2 3538   5.979   5.515   1.815
 1178TIP3   OH2 3539   5.288   5.276   2.199
 1178TIP3    H1 3540   5.333   5.347   2.153
 1178TIP3    H2 3541   5.321   5.196   2.158
 1179TIP3   OH2 3542   0.978   4.805   5.175
 1179TIP3    H1 3543   1.049   4.740   5.170
 1179TIP3    H2 3544   0.913   4.775   5.112
 1180TIP3   OH2 3545   2.580   2.634   2.878
 1180TIP3    H1 3546   2.552   2.608   2.966
 1180TIP3    H2 3547   2.505   2.679   2.841
 1181TIP3   OH2 3548   0.853   3.238   0.482
 1181TIP3    H1 3549   0.801   3.298   0.534
 1181TIP3    H2 3550   0.894   3.293   0.415
 1182TIP3   OH2 3551   5.926   3.281   0.491
 1182TIP3    H1 3552   5.912   3.195   0.451
 1182TIP3    H2 3553   5.960   3.335   0.419
 1183TIP3   OH2 3554   3.753   0.802   0.637
 1183TIP3    H1 3555   3.664   0.772   0.653
 1183TIP3    H2 3556   3.807   0.724   0.647
 1184TIP3   OH2 3557   4.648   3.179   2.890
 1184TIP3    H1 3558   4.691   3.170   2.804
 1184TIP3    H2 3559   4.586   3.251   2.878
 1185TIP3   OH2 3560   2.304   4.309   1.226
 1185TIP3    H1 3561   2.215   4.274   1.212
 1185TIP3    H2 3562   2.353   4.234   1.260
 1186TIP3   OH2 3563   2.542   5.048   3.088
 1186TIP3    H1 3564   2.601   5.029   3.014
 1186TIP3    H2 3565   2.454   5.033   3.053
 1187TIP3   OH2 3566   0.153   1.250   4.868
 1187TIP3    H1 3567   0.067   1.291   4.864
 1187TIP3    H2 3568   0.149   1.179   4.803
 1188TIP3   OH2 3569   4.209   1.732   1.458
 1188TIP3    H1 3570   4.220   1.720   1.364
 1188TIP3    H2 3571   4.298   1.728   1.493
 1189TIP3   OH2 3572   2.922   2.032   0.482
 1189TIP3    H1 3573   2.850   2.058   0.540
 1189TIP3    H2 3574   2.988   1.996   0.541
 1190TIP3   OH2 3575   0.151   0.214   1.267
 1190TIP3    H1 3576   0.135   0.203   1.173
 1190TIP3    H2 3577   0.063   0.219   1.305
 1191TIP3   OH2 3578   4.071   4.757   0.832
 1191TIP3    H1 3579   4.088   4.793   0.745
 1191TIP3    H2 3580   4.092   4.664   0.824
 1192TIP3   OH2 3581   3.882   1.458   0.039
 1192TIP3    H1 3582   3.803   1.498   0.002
 1192TIP3    H2 3583   3.861   1.445   0.131
 1193TIP3   OH2 3584   2.612   4.151   4.415
 1193TIP3    H1 3585   2.652   4.072   4.377
 1193TIP3    H2 3586   2.685   4.212   4.424
 1194TIP3   OH2 3587   1.081   1.466   1.862
 1194TIP3    H1 3588   1.097   1.406   1.935
 1194TIP3    H2 3589   0.986   1.470   1.855
 1195TIP3   OH2 3590   2.810   5.237   1.131
 1195TIP3    H1 3591   2.808   5.142   1.120
 1195TIP3    H2 3592   2.863   5.251   1.209
 1196TIP3   OH2 3593   4.655   2.160   4.431
 1196TIP3    H1 3594   4.628   2.068   4.430
 1196TIP3    H2 3595   4.677   2.180   4.340
 1197TIP3   OH2 3596   1.962   1.500   5.051
 1197TIP3    H1 3597   1.972   1.422   5.104
 1197TIP3    H2 3598   2.005   1.569   5.101
 1198TIP3   OH2 3599   0.104   3.797   4.302
 1198TIP3    H1 3600   0.195   3.794   4.273
 1198TIP3    H2 3601   0.084   3.708   4.330
 1199TIP3   OH2 3602   2.267   5.627   0.296
 1199TIP3    H1 3603   2.354   5.666   0.308
 1199TIP3    H2 3604   2.221   5.689   0.238
 1200TIP3   OH2 3605   4.874   4.892   0.766
 1200TIP3    H1 3606   4.943   4.887   0.699
 1200TIP3    H2 3607   4.893   4.972   0.814
 1201TIP3   OH2 3608   5.479   4.132   1.031
 1201TIP3    H1 3609   5.385   4.124   1.015
 1201TIP3    H2 3610   5.486   4.151   1.125
 1202TIP3   OH2 3611   5.001   1.338   1.057
 1202TIP3    H1 3612   4.972   1.400   0.989
 1202TIP3    H2 3613   5.023   1.258   1.009
 1203TIP3   OH2 3614   5.001   0.563   3.494
 1203TIP3    H1 3615   5.036   0.550   3.582
 1203TIP3    H2 3616   5.009   0.657   3.478
 1204TIP3   OH2 3617   5.154   3.399   1.263
 1204TIP3    H1 3618   5.178   3.310   1.237
 1204TIP3    H2 3619   5.062   3.407   1.240
 1205TIP3   OH2 3620   4.315   5.451   0.841
 1205TIP3    H1 3621   4.380   5.390   0.876
 1205TIP3    H2 3622   4.232   5.419   0.875
 1206TIP3   OH2 3623   5.138   0.351   2.338
 1206TIP3    H1 3624   5.190   0.344   2.418
 1206TIP3    H2 3625   5.192   0.309   2.271
 1207TIP3   OH2 3626   2.860   1.343   3.168
 1207TIP3    H1 3627   2.919   1.416   3.184
 1207TIP3    H2 3628   2.907   1.288   3.105
 1208TIP3   OH2 3629   5.117   4.711   0.673
 1208TIP3    H1 3630   5.122   4.701   0.768
 1208TIP3    H2 3631   5.142   4.802   0.657
 1209TIP3   OH2 3632   2.059   0.136   1.848
 1209TIP3    H1 3633   2.028   0.068   1.789
 1209TIP3    H2 3634   2.015   0.117   1.931
 1210TIP3   OH2 3635   2.233   0.555   1.999
 1210TIP3    H1 3636   2.252   0.483   1.940
 1210TIP3    H2 3637   2.146   0.585   1.972
 1211TIP3   OH2 3638   4.288   5.890   4.252
 1211TIP3    H1 3639   4.333   5.821   4.203
 1211TIP3    H2 3640   4.197   5.861   4.256
 1212TIP3   OH2 3641   1.519   2.287   0.734
 1212TIP3    H1 3642   1.601   2.248   0.704
 1212TIP3    H2 3643   1.458   2.214   0.740
 1213TIP3   OH2 3644   4.490   3.115   4.893
 1213TIP3    H1 3645   4.576   3.117   4.851
 1213TIP3    H2 3646   4.489   3.192   4.951
 1214TIP3   OH2 3647   4.965   0.789   4.642
 1214TIP3    H1 3648   4.956   0.713   4.700
 1214TIP3    H2 3649   5.059   0.792   4.623
 1215TIP3   OH2 3650   4.311   0.248   4.573
 1215TIP3    H1 3651   4.285   0.238   4.665
 1215TIP3    H2 3652   4.388   0.192   4.564
 1216TIP3   OH2 3653   1.672   0.743   1.613
 1216TIP3    H1 3654   1.755   0.763   1.656
 1216TIP3    H2 3655   1.688   0.765   1.521
 1217TIP3   OH2 3656   0.205   5.409   4.558
 1217TIP3    H1 3657   0.205   5.483   4.498
 1217TIP3    H2 3658   0.243   5.337   4.508
 1218TIP3   OH2 3659   4.449   5.870   1.852
 1218TIP3    H1 3660   4.452   5.775   1.860
 1218TIP3    H2 3661   4.476   5.887   1.761
 1219TIP3   OH2 3662   6.279   4.215   0.818
 1219TIP3    H1 3663   6.356   4.269   0.798
 1219TIP3    H2 3664   6.279   4.208   0.913
 1220TIP3   OH2 3665   5.983   3.988   0.180
 1220TIP3    H1 3666   6.060   4.038   0.153
 1220TIP3    H2 3667   5.925   4.052   0.221
 1221TIP3   OH2 3668   4.601   3.186   0.131
 1221TIP3    H1 3669   4.609   3.103   0.177
 1221TIP3    H2 3670   4.552   3.242   0.191
 1222TIP3   OH2 3671   4.144   3.354   0.123
 1222TIP3    H1 3672   4.127   3.310   0.039
 1222TIP3    H2 3673   4.210   3.420   0.102
 1223TIP3   OH2 3674   3.615   1.025   4.209
 1223TIP3    H1 3675   3.542   1.001   4.152
 1223TIP3    H2 3676   3.676   0.951   4.202
 1224TIP3   OH2 3677   2.752   5.656   2.921
 1224TIP3    H1 3678   2.759   5.665   2.826
 1224TIP3    H2 3679   2.660   5.671   2.940
 1225TIP3   OH2 3680   4.072   5.562   1.534
 1225TIP3    H1 3681   4.139   5.611   1.582
 1225TIP3    H2 3682   4.120   5.518   1.464
 1226TIP3   OH2 3683   3.735   0.639   4.587
 1226TIP3    H1 3684   3.715   0.660   4.678
 1226TIP3    H2 3685   3.681   0.699   4.536
 1227TIP3   OH2 3686   5.486   5.077   2.523
 1227TIP3    H1 3687   5.450   5.166   2.513
 1227TIP3    H2 3688   5.418   5.020   2.486
 1228TIP3   OH2 3689   3.176   4.259   3.838
 1228TIP3    H1 3690   3.157   4.213   3.756
 1228TIP3    H2 3691   3.123   4.338   3.834
 1229TIP3   OH2 3692   1.838   2.505   1.501
 1229TIP3    H1 3693   1.923   2.463   1.502
 1229TIP3    H2 3694   1.847   2.578   1.562
 1230TIP3   OH2 3695   0.303   1.184   3.102
 1230TIP3    H1 3696   0.261   1.099   3.099
 1230TIP3    H2 3697   0.304   1.214   3.011
 1231TIP3   OH2 3698   6.064   2.623   2.569
 1231TIP3    H1 3699   6.010   2.669   2.505
 1231TIP3    H2 3700   6.093   2.692   2.629
 1232TIP3   OH2 3701   2.990   1.251   2.004
 1232TIP3    H1 3702   2.994   1.214   2.092
 1232TIP3    H2 3703   2.905   1.296   2.000
 1233TIP3   OH2 3704   4.268   3.682   3.302
 1233TIP3    H1 3705   4.215   3.710   3.227
 1233TIP3    H2 3706   4.204   3.656   3.369
 1234TIP3   OH2 3707   0.638   4.597   2.667
 1234TIP3    H1 3708   0.595   4.540   2.604
 1234TIP3    H2 3709   0.576   4.669   2.682
 1235TIP3   OH2 3710   0.269   4.733   3.691
 1235TIP3    H1 3711   0.308   4.812   3.729
 1235TIP3    H2 3712   0.186   4.722   3.738
 1236TIP3   OH2 3713   2.863   2.852   3.552
 1236TIP3    H1 3714   2.871   2.827   3.644
 1236TIP3    H2 3715   2.873   2.947   3.552
 1237TIP3   OH2 3716   5.153   0.186   1.584
 1237TIP3    H1 3717   5.115   0.212   1.500
 1237TIP3    H2 3718   5.098   0.229   1.650
 1238TIP3   OH2 3719   2.756   4.307   0.639
 1238TIP3    H1 3720   2.761   4.401   0.623
 1238TIP3    H2 3721   2.663   4.290   0.654
 1239TIP3   OH2 3722   6.083   1.713   1.934
 1239TIP3    H1 3723   6.118   1.732   2.021
 1239TIP3    H2 3724   6.052   1.622   1.940
 1240TIP3   OH2 3725   0.543   2.360   3.366
 1240TIP3    H1 3726   0.587   2.276   3.348
 1240TIP3    H2 3727   0.499   2.347   3.450
 1241TIP3   OH2 3728   5.831   5.037   1.949
 1241TIP3    H1 3729   5.813   5.059   2.041
 1241TIP3    H2 3730   5.802   5.113   1.900
 1242TIP3   OH2 3731   5.792   2.413   1.699
 1242TIP3    H1 3732   5.771   2.409   1.792
 1242TIP3    H2 3733   5.757   2.497   1.670
 1243TIP3   OH2 3734   0.043   0.813   0.546
 1243TIP3    H1 3735   0.012   0.904   0.543
 1243TIP3    H2 3736   0.078   0.797   0.459
 1244TIP3   OH2 3737   0.502   1.900   3.560
 1244TIP3    H1 3738   0.530   1.822   3.608
 1244TIP3    H2 3739   0.458   1.954   3.626
 1245TIP3   OH2 3740   3.548   3.409   0.373
 1245TIP3    H1 3741   3.464   3.365   0.385
 1245TIP3    H2 3742   3.525   3.499   0.350
 1246TIP3   OH2 3743   4.412   5.344   3.849
 1246TIP3    H1 3744   4.427   5.261   3.894
 1246TIP3    H2 3745   4.322   5.338   3.817
 1247TIP3   OH2 3746   1.586   0.700   4.598
 1247TIP3    H1 3747   1.593   0.608   4.621
 1247TIP3    H2 3748   1.668   0.721   4.555
 1248TIP3   OH2 3749   5.271   1.310   2.534
 1248TIP3    H1 3750   5.188   1.271   2.508
 1248TIP3    H2 3751   5.283   1.283   2.625
 1249TIP3   OH2 3752   3.611   1.266   0.185
 1249TIP3    H1 3753   3.631   1.358   0.206
 1249TIP3    H2 3754   3.684   1.237   0.131
 1250TIP3   OH2 3755   5.352   4.710   1.179
 1250TIP3    H1 3756   5.397   4.721   1.263
 1250TIP3    H2 3757   5.266   4.674   1.202
 1251TIP3   OH2 3758   5.332   4.344   4.937
 1251TIP3    H1 3759   5.401   4.373   4.878
 1251TIP3    H2 3760   5.366   4.262   4.974
 1252TIP3   OH2 3761   5.413   3.616   5.111
 1252TIP3    H1 3762   5.341   3.672   5.139
 1252TIP3    H2 3763   5.383   3.527   5.130
 1253TIP3   OH2 3764   5.366   0.972   2.804
 1253TIP3    H1 3765   5.369   0.943   2.713
 1253TIP3    H2 3766   5.279   0.945   2.835
 1254TIP3   OH2 3767   5.454   5.185   0.818
 1254TIP3    H1 3768   5.428   5.277   0.816
 1254TIP3    H2 3769   5.430   5.151   0.732
 1255TIP3   OH2 3770   4.099   4.356   5.180
 1255TIP3    H1 3771   4.115   4.431   5.122
 1255TIP3    H2 3772   4.176   4.301   5.170
 1256TIP3   OH2 3773   2.328   0.597   2.845
 1256TIP3    H1 3774   2.243   0.561   2.869
 1256TIP3    H2 3775   2.345   0.664   2.911
 1257TIP3   OH2 3776   1.337  -0.023   4.095
 1257TIP3    H1 3777   1.399   0.049   4.097
 1257TIP3    H2 3778   1.275   0.000   4.026
 1258TIP3   OH2 3779   2.057   1.968   4.061
 1258TIP3    H1 3780   2.049   2.052   4.016
 1258TIP3    H2 3781   2.124   1.982   4.128
 1259TIP3   OH2 3782   2.225  -0.050   1.485
 1259TIP3    H1 3783   2.224  -0.048   1.389
 1259TIP3    H2 3784   2.210   0.040   1.512
 1260TIP3   OH2 3785   0.556   3.336   2.938
 1260TIP3    H1 3786   0.526   3.385   3.015
 1260TIP3    H2 3787   0.611   3.266   2.973
 1261TIP3   OH2 3788   3.953   2.074   2.459
 1261TIP3    H1 3789   3.959   1.979   2.459
 1261TIP3    H2 3790   3.861   2.093   2.477
 1262TIP3   OH2 3791   4.063   2.072   3.390
 1262TIP3    H1 3792   4.071   1.986   3.348
 1262TIP3    H2 3793   4.152   2.093   3.417
 1263TIP3   OH2 3794   5.675   1.789   4.709
 1263TIP3    H1 3795   5.606   1.762   4.649
 1263TIP3    H2 3796   5.645   1.873   4.744
 1264TIP3   OH2 3797   4.750   2.600   4.481
 1264TIP3    H1 3798   4.673   2.573   4.431
 1264TIP3    H2 3799   4.761   2.531   4.546
 1265TIP3   OH2 3800   3.151   5.136   1.517
 1265TIP3    H1 3801   3.244   5.125   1.536
 1265TIP3    H2 3802   3.114   5.048   1.529
 1266TIP3   OH2 3803   5.471   0.729   1.138
 1266TIP3    H1 3804   5.479   0.665   1.208
 1266TIP3    H2 3805   5.560   0.759   1.121
 1267TIP3   OH2 3806   5.640   3.312   3.906
 1267TIP3    H1 3807   5.605   3.359   3.830
 1267TIP3    H2 3808   5.715   3.264   3.873
 1268TIP3   OH2 3809   0.140   2.902   3.103
 1268TIP3    H1 3810   0.084   2.908   3.181
 1268TIP3    H2 3811   0.228   2.921   3.135
 1269TIP3   OH2 3812   5.573   0.130   1.330
 1269TIP3    H1 3813   5.600   0.082   1.408
 1269TIP3    H2 3814   5.650   0.182   1.305
 1270TIP3   OH2 3815   3.066   0.334   3.495
 1270TIP3    H1 3816   3.064   0.376   3.581
 1270TIP3    H2 3817   2.981   0.356   3.456
 1271TIP3   OH2 3818   2.840   4.119   0.804
 1271TIP3    H1 3819   2.812   4.039   0.759
 1271TIP3    H2 3820   2.803   4.190   0.752
 1272TIP3   OH2 3821   1.140   5.114   3.508
 1272TIP3    H1 3822   1.106   5.049   3.446
 1272TIP3    H2 3823   1.202   5.066   3.561
 1273TIP3   OH2 3824   1.420   5.914   1.330
 1273TIP3    H1 3825   1.463   5.867   1.259
 1273TIP3    H2 3826   1.434   5.859   1.407
 1274TIP3   OH2 3827   1.965   3.215   2.027
 1274TIP3    H1 3828   2.002   3.205   2.114
 1274TIP3    H2 3829   2.031   3.265   1.978
 1275TIP3   OH2 3830   2.552   3.016   1.942
 1275TIP3    H1 3831   2.523   3.106   1.953
 1275TIP3    H2 3832   2.566   2.984   2.031
 1276TIP3   OH2 3833   5.677   3.193   4.527
 1276TIP3    H1 3834   5.649   3.136   4.455
 1276TIP3    H2 3835   5.729   3.261   4.484
 1277TIP3   OH2 3836   5.469   1.062   3.609
 1277TIP3    H1 3837   5.557   1.033   3.582
 1277TIP3    H2 3838   5.444   0.999   3.676
 1278TIP3   OH2 3839   0.975   4.524   0.739
 1278TIP3    H1 3840   0.964   4.502   0.646
 1278TIP3    H2 3841   0.966   4.440   0.784
 1279TIP3   OH2 3842   4.909   5.385   1.088
 1279TIP3    H1 3843   4.854   5.457   1.058
 1279TIP3    H2 3844   4.848   5.313   1.105
 1280TIP3   OH2 3845   2.582   1.050   3.936
 1280TIP3    H1 3846   2.542   1.048   4.023
 1280TIP3    H2 3847   2.552   1.133   3.898
 1281TIP3   OH2 3848   3.089   5.718   2.440
 1281TIP3    H1 3849   2.998   5.737   2.460
 1281TIP3    H2 3850   3.138   5.758   2.512
 1282TIP3   OH2 3851   2.763   0.987   4.639
 1282TIP3    H1 3852   2.747   0.983   4.733
 1282TIP3    H2 3853   2.843   0.937   4.625
 1283TIP3   OH2 3854   1.984   4.250   2.566
 1283TIP3    H1 3855   1.906   4.195   2.563
 1283TIP3    H2 3856   2.009   4.262   2.474
 1284TIP3   OH2 3857   3.363   4.583   3.360
 1284TIP3    H1 3858   3.405   4.624   3.436
 1284TIP3    H2 3859   3.270   4.601   3.372
 1285TIP3   OH2 3860   6.103   2.747   1.829
 1285TIP3    H1 3861   6.118   2.838   1.803
 1285TIP3    H2 3862   6.014   2.746   1.863
 1286TIP3   OH2 3863   5.048   0.810   2.477
 1286TIP3    H1 3864   5.049   0.724   2.435
 1286TIP3    H2 3865   4.955   0.832   2.482
 1287TIP3   OH2 3866   2.555   1.043   5.135
 1287TIP3    H1 3867   2.582   1.110   5.198
 1287TIP3    H2 3868   2.550   1.090   5.051
 1288TIP3   OH2 3869   2.464   0.359   4.818
 1288TIP3    H1 3870   2.434   0.308   4.893
 1288TIP3    H2 3871   2.550   0.323   4.797
 1289TIP3   OH2 3872   1.054   4.966   4.803
 1289TIP3    H1 3873   0.985   4.906   4.776
 1289TIP3    H2 3874   1.075   4.938   4.892
 1290TIP3   OH2 3875   1.019   2.875   2.162
 1290TIP3    H1 3876   1.075   2.852   2.088
 1290TIP3    H2 3877   1.073   2.931   2.217
 1291TIP3   OH2 3878   5.754   1.012   3.572
 1291TIP3    H1 3879   5.725   0.987   3.660
 1291TIP3    H2 3880   5.849   0.997   3.572
 1292TIP3   OH2 3881   5.860   0.520   1.680
 1292TIP3    H1 3882   5.946   0.541   1.714
 1292TIP3    H2 3883   5.839   0.592   1.620
 1293TIP3   OH2 3884   1.467   0.133   1.736
 1293TIP3    H1 3885   1.529   0.171   1.798
 1293TIP3    H2 3886   1.457   0.200   1.668
 1294TIP3   OH2 3887   5.144   0.100   3.201
 1294TIP3    H1 3888   5.174   0.120   3.112
 1294TIP3    H2 3889   5.100   0.180   3.230
 1295TIP3   OH2 3890   5.496   4.102   0.693
 1295TIP3    H1 3891   5.401   4.094   0.686
 1295TIP3    H2 3892   5.529   4.073   0.609
 1296TIP3   OH2 3893   6.194   3.618   0.217
 1296TIP3    H1 3894   6.263   3.551   0.209
 1296TIP3    H2 3895   6.237   3.699   0.189
 1297TIP3   OH2 3896   4.731   0.732   1.886
 1297TIP3    H1 3897   4.814   0.779   1.897
 1297TIP3    H2 3898   4.754   0.640   1.897
 1298TIP3   OH2 3899   4.755   3.487   1.584
 1298TIP3    H1 3900   4.830   3.543   1.569
 1298TIP3    H2 3901   4.711   3.482   1.499
 1299TIP3   OH2 3902   1.668   2.518   0.383
 1299TIP3    H1 3903   1.684   2.432   0.344
 1299TIP3    H2 3904   1.615   2.564   0.318
 1300TIP3   OH2 3905   4.032   0.145   2.712
 1300TIP3    H1 3906   3.988   0.200   2.777
 1300TIP3    H2 3907   3.986   0.164   2.630
 1301TIP3   OH2 3908   3.646   2.512   2.940
 1301TIP3    H1 3909   3.592   2.434   2.952
 1301TIP3    H2 3910   3.584   2.584   2.932
 1302TIP3   OH2 3911   3.010   4.094   3.374
 1302TIP3    H1 3912   2.963   4.016   3.345
 1302TIP3    H2 3913   3.063   4.065   3.447
 1303TIP3   OH2 3914   3.703   5.333   1.693
 1303TIP3    H1 3915   3.790   5.315   1.656
 1303TIP3    H2 3916   3.686   5.425   1.671
 1304TIP3   OH2 3917   0.790   3.778   4.451
 1304TIP3    H1 3918   0.835   3.704   4.411
 1304TIP3    H2 3919   0.825   3.855   4.405
 1305TIP3   OH2 3920   1.297   4.504   2.969
 1305TIP3    H1 3921   1.204   4.525   2.954
 1305TIP3    H2 3922   1.295   4.424   3.021
 1306TIP3   OH2 3923   1.766   0.504   0.051
 1306TIP3    H1 3924   1.689   0.558   0.034
 1306TIP3    H2 3925   1.742   0.449   0.125
 1307TIP3   OH2 3926   6.171   2.530   0.434
 1307TIP3    H1 3927   6.247   2.495   0.481
 1307TIP3    H2 3928   6.187   2.624   0.430
 1308TIP3   OH2 3929   3.537   4.076   0.404
 1308TIP3    H1 3930   3.442   4.066   0.411
 1308TIP3    H2 3931   3.550   4.165   0.371
 1309TIP3   OH2 3932   2.063   4.741   4.416
 1309TIP3    H1 3933   2.139   4.740   4.358
 1309TIP3    H2 3934   1.988   4.751   4.358
 1310TIP3   OH2 3935   6.127   5.479   0.050
 1310TIP3    H1 3936   6.165   5.556   0.009
 1310TIP3    H2 3937   6.133   5.411  -0.018
 1311TIP3   OH2 3938   5.016   5.538   3.383
 1311TIP3    H1 3939   5.007   5.486   3.463
 1311TIP3    H2 3940   5.061   5.481   3.322
 1312TIP3   OH2 3941   4.991   2.119   4.410
 1312TIP3    H1 3942   5.054   2.050   4.432
 1312TIP3    H2 3943   4.976   2.109   4.316
 1313TIP3   OH2 3944   2.764   4.698   4.233
 1313TIP3    H1 3945   2.679   4.660   4.208
 1313TIP3    H2 3946   2.780   4.765   4.167
 1314TIP3   OH2 3947   3.843   1.655   0.695
 1314TIP3    H1 3948   3.893   1.587   0.741
 1314TIP3    H2 3949   3.791   1.698   0.763
 1315TIP3   OH2 3950   3.958   5.316   4.656
 1315TIP3    H1 3951   4.050   5.339   4.666
 1315TIP3    H2 3952   3.912   5.400   4.662
 1316TIP3   OH2 3953   3.187   5.891   1.571
 1316TIP3    H1 3954   3.114   5.842   1.533
 1316TIP3    H2 3955   3.263   5.834   1.560
 1317TIP3   OH2 3956   5.706   2.759   3.162
 1317TIP3    H1 3957   5.757   2.679   3.151
 1317TIP3    H2 3958   5.644   2.738   3.232
 1318TIP3   OH2 3959   3.449   0.134   2.075
 1318TIP3    H1 3960   3.373   0.191   2.086
 1318TIP3    H2 3961   3.461   0.128   1.980
 1319TIP3   OH2 3962   3.446   3.611   2.426
 1319TIP3    H1 3963   3.441   3.707   2.418
 1319TIP3    H2 3964   3.498   3.597   2.505
 1320TIP3   OH2 3965   1.148   2.473   3.096
 1320TIP3    H1 3966   1.200   2.409   3.144
 1320TIP3    H2 3967   1.058   2.457   3.124
 1321TIP3   OH2 3968   0.263   4.670   1.319
 1321TIP3    H1 3969   0.275   4.651   1.226
 1321TIP3    H2 3970   0.171   4.652   1.336
 1322TIP3   OH2 3971   0.219   4.465   4.576
 1322TIP3    H1 3972   0.190   4.526   4.644
 1322TIP3    H2 3973   0.160   4.389   4.586
 1323TIP3   OH2 3974   1.760   5.514   5.125
 1323TIP3    H1 3975   1.824   5.542   5.060
 1323TIP3    H2 3976   1.811   5.501   5.205
 1324TIP3   OH2 3977   0.360   2.420   3.595
 1324TIP3    H1 3978   0.305   2.488   3.556
 1324TIP3    H2 3979   0.308   2.341   3.590
 1325TIP3   OH2 3980   2.369   3.568   0.311
 1325TIP3    H1 3981   2.351   3.602   0.399
 1325TIP3    H2 3982   2.290   3.519   0.289
 1326TIP3   OH2 3983   2.584   5.139   4.672
 1326TIP3    H1 3984   2.578   5.074   4.742
 1326TIP3    H2 3985   2.524   5.107   4.605
 1327TIP3   OH2 3986   0.034   1.876   3.374
 1327TIP3    H1 3987   0.027   1.931   3.452
 1327TIP3    H2 3988  -0.009   1.794   3.399
 1328TIP3   OH2 3989   1.934   4.146   3.149
 1328TIP3    H1 3990   1.957   4.058   3.180
 1328TIP3    H2 3991   1.973   4.205   3.213
 1329TIP3   OH2 3992   6.004   1.215   4.117
 1329TIP3    H1 3993   6.022   1.297   4.164
 1329TIP3    H2 3994   5.950   1.164   4.177
 1330TIP3   OH2 3995   4.471   1.923   4.741
 1330TIP3    H1 3996   4.561   1.890   4.744
 1330TIP3    H2 3997   4.468   1.991   4.808
 1331TIP3   OH2 3998   1.208   4.160   3.061
 1331TIP3    H1 3999   1.242   4.088   3.113
 1331TIP3    H2 4000   1.251   4.149   2.976
 1332TIP3   OH2 4001   0.067   0.637   4.128
 1332TIP3    H1 4002   0.086   0.563   4.070
 1332TIP3    H2 4003   0.004   0.689   4.078
 1333TIP3   OH2 4004   3.375   1.220   3.442
 1333TIP3    H1 4005   3.408   1.131   3.450
 1333TIP3    H2 4006   3.306   1.215   3.376
 1334TIP3   OH2 4007   6.290   3.132   2.303
 1334TIP3    H1 4008   6.369   3.149   2.354
 1334TIP3    H2 4009   6.238   3.073   2.358
 1335TIP3   OH2 4010   2.395   2.801   1.360
 1335TIP3    H1 4011   2.367   2.831   1.273
 1335TIP3    H2 4012   2.473   2.854   1.379
 1336TIP3   OH2 4013   4.554   1.581   4.708
 1336TIP3    H1 4014   4.546   1.488   4.727
 1336TIP3    H2 4015   4.571   1.585   4.614
 1337TIP3   OH2 4016   4.772   3.142   3.614
 1337TIP3    H1 4017   4.759   3.066   3.671
 1337TIP3    H2 4018   4.754   3.218   3.669
 1338TIP3   OH2 4019   2.386   0.843   4.695
 1338TIP3    H1 4020   2.377   0.768   4.754
 1338TIP3    H2 4021   2.357   0.810   4.610
 1339TIP3   OH2 4022   0.646   4.389   4.002
 1339TIP3    H1 4023   0.703   4.400   3.926
 1339TIP3    H2 4024   0.705   4.399   4.077
 1340TIP3   OH2 4025   6.036   5.263   3.141
 1340TIP3    H1 4026   6.099   5.205   3.097
 1340TIP3    H2 4027   6.040   5.237   3.233
 1341TIP3   OH2 4028   4.316   2.664   2.319
 1341TIP3    H1 4029   4.253   2.652   2.390
 1341TIP3    H2 4030   4.399   2.632   2.355
 1342TIP3   OH2 4031   6.093   3.637   1.796
 1342TIP3    H1 4032   6.057   3.550   1.816
 1342TIP3    H2 4033   6.104   3.637   1.701
 1343TIP3   OH2 4034   4.727   1.380   1.535
 1343TIP3    H1 4035   4.760   1.469   1.523
 1343TIP3    H2 4036   4.703   1.376   1.627
 1344TIP3   OH2 4037   3.360   2.174   2.563
 1344TIP3    H1 4038   3.344   2.134   2.477
 1344TIP3    H2 4039   3.442   2.223   2.552
 1345TIP3   OH2 4040   2.450   2.912   2.638
 1345TIP3    H1 4041   2.487   2.835   2.595
 1345TIP3    H2 4042   2.369   2.930   2.589
 1346TIP3   OH2 4043   0.890   2.862   3.414
 1346TIP3    H1 4044   0.922   2.917   3.486
 1346TIP3    H2 4045   0.936   2.779   3.425
 1347TIP3   OH2 4046   6.027   1.974   5.012
 1347TIP3    H1 4047   5.978   2.025   5.077
 1347TIP3    H2 4048   6.114   1.962   5.052
 1348TIP3   OH2 4049   1.674   5.412   1.982
 1348TIP3    H1 4050   1.745   5.437   2.041
 1348TIP3    H2 4051   1.700   5.328   1.946
 1349TIP3   OH2 4052   5.067   2.230   1.748
 1349TIP3    H1 4053   5.127   2.304   1.757
 1349TIP3    H2 4054   5.055   2.197   1.837
 1350TIP3   OH2 4055   3.154   2.605   2.241
 1350TIP3    H1 4056   3.159   2.534   2.305
 1350TIP3    H2 4057   3.072   2.587   2.193
 1351TIP3   OH2 4058   5.907   0.336   0.727
 1351TIP3    H1 4059   5.970   0.318   0.797
 1351TIP3    H2 4060   5.901   0.431   0.723
 1352TIP3   OH2 4061   4.407   4.439   2.822
 1352TIP3    H1 4062   4.469   4.481   2.763
 1352TIP3    H2 4063   4.326   4.489   2.811
 1353TIP3   OH2 4064  -0.013   2.369   0.588
 1353TIP3    H1 4065  -0.036   2.374   0.680
 1353TIP3    H2 4066   0.081   2.389   0.585
 1354TIP3   OH2 4067   4.614   4.483   0.998
 1354TIP3    H1 4068   4.701   4.444   1.009
 1354TIP3    H2 4069   4.582   4.446   0.915
 1355TIP3   OH2 4070   3.276   3.582   4.621
 1355TIP3    H1 4071   3.266   3.495   4.660
 1355TIP3    H2 4072   3.187   3.607   4.596
 1356TIP3   OH2 4073   5.986   3.126   2.793
 1356TIP3    H1 4074   6.078   3.126   2.819
 1356TIP3    H2 4075   5.988   3.144   2.699
 1357TIP3   OH2 4076   0.728   2.211   0.551
 1357TIP3    H1 4077   0.727   2.301   0.518
 1357TIP3    H2 4078   0.659   2.167   0.501
 1358TIP3   OH2 4079   5.713   4.577   3.464
 1358TIP3    H1 4080   5.769   4.574   3.386
 1358TIP3    H2 4081   5.701   4.485   3.488
 1359TIP3   OH2 4082   6.294   2.334   0.860
 1359TIP3    H1 4083   6.349   2.267   0.902
 1359TIP3    H2 4084   6.213   2.334   0.911
 1360TIP3   OH2 4085   5.939   1.480   0.339
 1360TIP3    H1 4086   5.929   1.567   0.301
 1360TIP3    H2 4087   5.958   1.496   0.431
 1361TIP3   OH2 4088   6.148   4.134   3.977
 1361TIP3    H1 4089   6.226   4.082   3.995
 1361TIP3    H2 4090   6.084   4.103   4.042
 1362TIP3   OH2 4091   3.654   1.762   2.030
 1362TIP3    H1 4092   3.587   1.700   2.059
 1362TIP3    H2 4093   3.704   1.714   1.964
 1363TIP3   OH2 4094   5.999   3.497   3.600
 1363TIP3    H1 4095   5.942   3.541   3.537
 1363TIP3    H2 4096   6.086   3.500   3.560
 1364TIP3   OH2 4097   1.461   0.399   4.416
 1364TIP3    H1 4098   1.543   0.442   4.440
 1364TIP3    H2 4099   1.459   0.319   4.468
 1365TIP3   OH2 4100   3.806   3.940   2.531
 1365TIP3    H1 4101   3.801   3.965   2.623
 1365TIP3    H2 4102   3.787   3.847   2.530
 1366TIP3   OH2 4103   6.111   4.991   2.448
 1366TIP3    H1 4104   6.067   4.974   2.532
 1366TIP3    H2 4105   6.136   4.904   2.416
 1367TIP3   OH2 4106   4.327   3.007   0.190
 1367TIP3    H1 4107   4.258   3.004   0.257
 1367TIP3    H2 4108   4.365   3.095   0.200
 1368TIP3   OH2 4109   3.163   1.946   0.651
 1368TIP3    H1 4110   3.231   1.933   0.585
 1368TIP3    H2 4111   3.141   1.857   0.681
 1369TIP3   OH2 4112   1.423   2.101   2.242
 1369TIP3    H1 4113   1.439   2.080   2.151
 1369TIP3    H2 4114   1.504   2.143   2.272
 1370TIP3   OH2 4115   3.890   2.291   3.367
 1370TIP3    H1 4116   3.975   2.307   3.409
 1370TIP3    H2 4117   3.885   2.196   3.359
 1371TIP3   OH2 4118   1.078   2.647   3.383
 1371TIP3    H1 4119   1.134   2.725   3.383
 1371TIP3    H2 4120   1.136   2.576   3.411
 1372TIP3   OH2 4121   2.581   5.592   2.161
 1372TIP3    H1 4122   2.551   5.558   2.245
 1372TIP3    H2 4123   2.543   5.533   2.096
 1373TIP3   OH2 4124   0.104   1.517   3.880
 1373TIP3    H1 4125   0.106   1.456   3.807
 1373TIP3    H2 4126   0.184   1.498   3.930
 1374TIP3   OH2 4127   3.560   0.402   3.585
 1374TIP3    H1 4128   3.653   0.383   3.597
 1374TIP3    H2 4129   3.516   0.345   3.647
 1375TIP3   OH2 4130   2.558   2.551   1.118
 1375TIP3    H1 4131   2.637   2.498   1.129
 1375TIP3    H2 4132   2.548   2.560   1.023
 1376TIP3   OH2 4133   0.458   0.258   2.948
 1376TIP3    H1 4134   0.480   0.349   2.966
 1376TIP3    H2 4135   0.413   0.260   2.864
 1377TIP3   OH2 4136   4.952   1.992   2.793
 1377TIP3    H1 4137   4.879   1.976   2.733
 1377TIP3    H2 4138   4.956   1.913   2.848
 1378TIP3   OH2 4139   5.210   1.028   1.981
 1378TIP3    H1 4140   5.163   1.099   2.024
 1378TIP3    H2 4141   5.219   1.058   1.890
 1379TIP3   OH2 4142   0.281   1.959   2.816
 1379TIP3    H1 4143   0.308   2.050   2.830
 1379TIP3    H2 4144   0.290   1.918   2.902
 1380TIP3   OH2 4145   4.135   5.200   0.455
 1380TIP3    H1 4146   4.093   5.278   0.490
 1380TIP3    H2 4147   4.205   5.180   0.516
 1381TIP3   OH2 4148   6.143   3.150   5.063
 1381TIP3    H1 4149   6.094   3.114   5.137
 1381TIP3    H2 4150   6.136   3.084   4.995
 1382TIP3   OH2 4151   2.635   2.304   4.981
 1382TIP3    H1 4152   2.595   2.390   4.992
 1382TIP3    H2 4153   2.719   2.321   4.940
 1383TIP3   OH2 4154  -0.003   1.151   4.424
 1383TIP3    H1 4155  -0.013   1.065   4.383
 1383TIP3    H2 4156   0.090   1.158   4.442
 1384TIP3   OH2 4157   2.998   4.716   2.515
 1384TIP3    H1 4158   3.037   4.629   2.509
 1384TIP3    H2 4159   3.065   4.769   2.558
 1385TIP3   OH2 4160  -0.018   3.044   3.820
 1385TIP3    H1 4161  -0.050   3.108   3.757
 1385TIP3    H2 4162   0.077   3.052   3.817
 1386TIP3   OH2 4163   4.933   2.895   4.097
 1386TIP3    H1 4164   5.027   2.880   4.087
 1386TIP3    H2 4165   4.918   2.891   4.191
 1387TIP3   OH2 4166   0.989   0.797   0.648
 1387TIP3    H1 4167   0.895   0.816   0.651
 1387TIP3    H2 4168   1.009   0.786   0.555
 1388TIP3   OH2 4169   1.158   4.293   4.594
 1388TIP3    H1 4170   1.233   4.243   4.561
 1388TIP3    H2 4171   1.189   4.330   4.677
 1389TIP3   OH2 4172   4.729   5.814   4.644
 1389TIP3    H1 4173   4.775   5.895   4.665
 1389TIP3    H2 4174   4.787   5.744   4.675
 1390TIP3   OH2 4175   1.895   3.569   3.731
 1390TIP3    H1 4176   1.800   3.557   3.725
 1390TIP3    H2 4177   1.912   3.656   3.695
 1391TIP3   OH2 4178   3.660   0.103   2.840
 1391TIP3    H1 4179   3.719   0.158   2.891
 1391TIP3    H2 4180   3.627   0.038   2.902
 1392TIP3   OH2 4181   1.931   4.976   0.943
 1392TIP3    H1 4182   2.022   4.947   0.935
 1392TIP3    H2 4183   1.888   4.909   0.996
 1393TIP3   OH2 4184   6.351   3.818   0.139
 1393TIP3    H1 4185   6.307   3.883   0.194
 1393TIP3    H2 4186   6.436   3.856   0.119
 1394TIP3   OH2 4187   3.302   0.244   1.552
 1394TIP3    H1 4188   3.220   0.213   1.513
 1394TIP3    H2 4189   3.274   0.301   1.624
 1395TIP3   OH2 4190   5.544   1.138   2.610
 1395TIP3    H1 4191   5.476   1.166   2.671
 1395TIP3    H2 4192   5.613   1.102   2.666
 1396TIP3   OH2 4193   0.365   4.574   2.475
 1396TIP3    H1 4194   0.275   4.565   2.443
 1396TIP3    H2 4195   0.383   4.668   2.469
 1397TIP3   OH2 4196   1.256   5.620   2.938
 1397TIP3    H1 4197   1.338   5.615   2.887
 1397TIP3    H2 4198   1.279   5.674   3.014
 1398TIP3   OH2 4199   0.633   1.875   2.479
 1398TIP3    H1 4200   0.720   1.838   2.466
 1398TIP3    H2 4201   0.573   1.809   2.445
 1399TIP3   OH2 4202   3.978   2.724   0.825
 1399TIP3    H1 4203   3.913   2.654   0.816
 1399TIP3    H2 4204   4.062   2.678   0.836
 1400TIP3   OH2 4205   4.251   0.904   3.339
 1400TIP3    H1 4206   4.286   0.980   3.293
 1400TIP3    H2 4207   4.281   0.829   3.287
 1401TIP3   OH2 4208   4.619   2.677   2.826
 1401TIP3    H1 4209   4.572   2.738   2.882
 1401TIP3    H2 4210   4.666   2.732   2.763
 1402TIP3   OH2 4211   5.553   2.356   2.245
 1402TIP3    H1 4212   5.626   2.303   2.276
 1402TIP3    H2 4213   5.568   2.442   2.284
 1403TIP3   OH2 4214   0.299   5.240   3.497
 1403TIP3    H1 4215   0.287   5.145   3.496
 1403TIP3    H2 4216   0.218   5.274   3.534
 1404TIP3   OH2 4217   5.222   2.526   1.414
 1404TIP3    H1 4218   5.153   2.462   1.430
 1404TIP3    H2 4219   5.289   2.479   1.365
 1405TIP3   OH2 4220   4.775   5.363   5.050
 1405TIP3    H1 4221   4.685   5.369   5.017
 1405TIP3    H2 4222   4.776   5.419   5.128
 1406TIP3   OH2 4223   4.034   2.808   1.253
 1406TIP3    H1 4224   4.041   2.894   1.295
 1406TIP3    H2 4225   3.959   2.766   1.296
 1407TIP3   OH2 4226   3.942   0.578   0.758
 1407TIP3    H1 4227   3.984   0.611   0.837
 1407TIP3    H2 4228   3.864   0.533   0.790
 1408TIP3   OH2 4229   0.664   2.208   2.313
 1408TIP3    H1 4230   0.606   2.176   2.382
 1408TIP3    H2 4231   0.689   2.129   2.264
 1409TIP3   OH2 4232   1.634   5.197   4.656
 1409TIP3    H1 4233   1.634   5.256   4.731
 1409TIP3    H2 4234   1.556   5.143   4.668
 1410TIP3   OH2 4235   4.965   4.249   4.207
 1410TIP3    H1 4236   5.021   4.325   4.222
 1410TIP3    H2 4237   5.024   4.174   4.208
 1411TIP3   OH2 4238   4.730   1.929   0.244
 1411TIP3    H1 4239   4.775   2.012   0.230
 1411TIP3    H2 4240   4.649   1.936   0.193
 1412TIP3   OH2 4241   1.986   0.205   2.799
 1412TIP3    H1 4242   1.952   0.119   2.821
 1412TIP3    H2 4243   1.970   0.213   2.704
 1413TIP3   OH2 4244   5.563   4.475   0.929
 1413TIP3    H1 4245   5.469   4.491   0.918
 1413TIP3    H2 4246   5.598   4.480   0.840
 1414TIP3   OH2 4247   3.667   3.473   1.360
 1414TIP3    H1 4248   3.699   3.549   1.312
 1414TIP3    H2 4249   3.647   3.408   1.293
 1415TIP3   OH2 4250   4.773   5.297   3.076
 1415TIP3    H1 4251   4.727   5.216   3.100
 1415TIP3    H2 4252   4.862   5.285   3.109
 1416TIP3   OH2 4253   4.319   4.545   0.675
 1416TIP3    H1 4254   4.230   4.522   0.701
 1416TIP3    H2 4255   4.308   4.589   0.591
 1417TIP3   OH2 4256   1.134   3.965   4.684
 1417TIP3    H1 4257   1.121   3.900   4.616
 1417TIP3    H2 4258   1.229   3.968   4.696
 1418TIP3   OH2 4259   3.710   1.526   0.266
 1418TIP3    H1 4260   3.679   1.610   0.233
 1418TIP3    H2 4261   3.777   1.548   0.331
 1419TIP3   OH2 4262   4.140   1.010   2.347
 1419TIP3    H1 4263   4.080   1.063   2.294
 1419TIP3    H2 4264   4.111   0.919   2.332
 1420TIP3   OH2 4265   0.320   3.501   4.938
 1420TIP3    H1 4266   0.311   3.457   5.023
 1420TIP3    H2 4267   0.230   3.511   4.907
 1421TIP3   OH2 4268   6.242   4.337   2.796
 1421TIP3    H1 4269   6.224   4.245   2.780
 1421TIP3    H2 4270   6.229   4.380   2.711
 1422TIP3   OH2 4271   4.105   0.022   4.596
 1422TIP3    H1 4272   4.095   0.043   4.689
 1422TIP3    H2 4273   4.147   0.099   4.558
 1423TIP3   OH2 4274   3.598   3.728   4.271
 1423TIP3    H1 4275   3.690   3.751   4.286
 1423TIP3    H2 4276   3.549   3.807   4.293
 1424TIP3   OH2 4277   2.845   1.649   0.603
 1424TIP3    H1 4278   2.884   1.712   0.663
 1424TIP3    H2 4279   2.864   1.563   0.642
 1425TIP3   OH2 4280   4.770   3.163   0.636
 1425TIP3    H1 4281   4.708   3.104   0.594
 1425TIP3    H2 4282   4.822   3.198   0.564
 1426TIP3   OH2 4283   1.273   2.416   3.553
 1426TIP3    H1 4284   1.323   2.494   3.530
 1426TIP3    H2 4285   1.339   2.347   3.561
 1427TIP3   OH2 4286   5.115   0.847   3.364
 1427TIP3    H1 4287   5.181   0.892   3.312
 1427TIP3    H2 4288   5.040   0.839   3.305
 1428TIP3   OH2 4289   3.774   5.870   3.939
 1428TIP3    H1 4290   3.746   5.786   3.902
 1428TIP3    H2 4291   3.790   5.925   3.862
 1429TIP3   OH2 4292   0.755   2.518   3.607
 1429TIP3    H1 4293   0.700   2.577   3.555
 1429TIP3    H2 4294   0.816   2.577   3.653
 1430TIP3   OH2 4295   0.690   0.076   0.585
 1430TIP3    H1 4296   0.687   0.003   0.523
 1430TIP3    H2 4297   0.608   0.070   0.633
 1431TIP3   OH2 4298   1.234   3.251   0.399
 1431TIP3    H1 4299   1.186   3.222   0.477
 1431TIP3    H2 4300   1.268   3.337   0.422
 1432TIP3   OH2 4301   3.474   0.307   0.920
 1432TIP3    H1 4302   3.486   0.299   1.015
 1432TIP3    H2 4303   3.397   0.254   0.901
 1433TIP3   OH2 4304   2.740   3.425   1.183
 1433TIP3    H1 4305   2.662   3.391   1.227
 1433TIP3    H2 4306   2.788   3.347   1.156
 1434TIP3   OH2 4307   3.832   2.444   3.871
 1434TIP3    H1 4308   3.806   2.474   3.784
 1434TIP3    H2 4309   3.831   2.523   3.925
 1435TIP3   OH2 4310   1.225   3.215   1.799
 1435TIP3    H1 4311   1.254   3.141   1.747
 1435TIP3    H2 4312   1.215   3.180   1.888
 1436TIP3   OH2 4313   0.489   2.496  -0.008
 1436TIP3    H1 4314   0.504   2.583   0.029
 1436TIP3    H2 4315   0.522   2.436   0.059
 1437TIP3   OH2 4316   1.785   5.261   1.250
 1437TIP3    H1 4317   1.707   5.233   1.203
 1437TIP3    H2 4318   1.813   5.340   1.204
 1438TIP3   OH2 4319   6.247   5.918   1.677
 1438TIP3    H1 4320   6.287   5.904   1.590
 1438TIP3    H2 4321   6.201   5.837   1.695
 1439TIP3   OH2 4322   5.153   4.713   2.472
 1439TIP3    H1 4323   5.104   4.663   2.407
 1439TIP3    H2 4324   5.185   4.647   2.534
 1440TIP3   OH2 4325   2.276   1.619   2.721
 1440TIP3    H1 4326   2.238   1.531   2.723
 1440TIP3    H2 4327   2.206   1.674   2.685
 1441TIP3   OH2 4328   3.104   3.951   1.836
 1441TIP3    H1 4329   3.025   3.943   1.890
 1441TIP3    H2 4330   3.099   3.877   1.776
 1442TIP3   OH2 4331   4.100   0.255   2.375
 1442TIP3    H1 4332   4.069   0.244   2.285
 1442TIP3    H2 4333   4.024   0.287   2.424
 1443TIP3   OH2 4334   4.985   0.241   0.847
 1443TIP3    H1 4335   4.929   0.308   0.885
 1443TIP3    H2 4336   4.962   0.161   0.895
 1444TIP3   OH2 4337   5.726   0.163   0.617
 1444TIP3    H1 4338   5.783   0.211   0.678
 1444TIP3    H2 4339   5.648   0.217   0.609
 1445TIP3   OH2 4340   5.921   2.455   0.701
 1445TIP3    H1 4341   5.941   2.419   0.615
 1445TIP3    H2 4342   5.887   2.381   0.751
 1446TIP3   OH2 4343   4.574   2.697   2.183
 1446TIP3    H1 4344   4.571   2.701   2.088
 1446TIP3    H2 4345   4.665   2.671   2.202
 1447TIP3   OH2 4346   2.788   2.483   1.624
 1447TIP3    H1 4347   2.819   2.512   1.538
 1447TIP3    H2 4348   2.751   2.397   1.609
 1448TIP3   OH2 4349   4.778   4.338   1.644
 1448TIP3    H1 4350   4.852   4.277   1.645
 1448TIP3    H2 4351   4.804   4.406   1.583
 1449TIP3   OH2 4352   5.691   1.595   3.421
 1449TIP3    H1 4353   5.701   1.687   3.400
 1449TIP3    H2 4354   5.753   1.580   3.493
 1450TIP3   OH2 4355   5.635   0.575   1.294
 1450TIP3    H1 4356   5.574   0.538   1.358
 1450TIP3    H2 4357   5.682   0.500   1.259
 1451TIP3   OH2 4358   4.695   5.853   2.303
 1451TIP3    H1 4359   4.720   5.766   2.335
 1451TIP3    H2 4360   4.607   5.867   2.338
 1452TIP3   OH2 4361   2.758   0.447   3.023
 1452TIP3    H1 4362   2.842   0.479   3.055
 1452TIP3    H2 4363   2.761   0.460   2.928
 1453TIP3   OH2 4364   0.796   4.581   1.803
 1453TIP3    H1 4365   0.890   4.587   1.791
 1453TIP3    H2 4366   0.782   4.598   1.896
 1454TIP3   OH2 4367   2.834   2.808   2.621
 1454TIP3    H1 4368   2.878   2.751   2.558
 1454TIP3    H2 4369   2.837   2.759   2.704
 1455TIP3   OH2 4370   1.180   3.587   1.527
 1455TIP3    H1 4371   1.147   3.605   1.440
 1455TIP3    H2 4372   1.110   3.537   1.570
 1456TIP3   OH2 4373   3.962   2.492   4.579
 1456TIP3    H1 4374   4.049   2.493   4.538
 1456TIP3    H2 4375   3.945   2.584   4.599
 1457TIP3   OH2 4376   3.354   2.350   0.962
 1457TIP3    H1 4377   3.288   2.295   0.922
 1457TIP3    H2 4378   3.426   2.291   0.983
 1458TIP3   OH2 4379   3.679   4.784   3.885
 1458TIP3    H1 4380   3.727   4.825   3.957
 1458TIP3    H2 4381   3.727   4.703   3.868
 1459TIP3   OH2 4382   4.029   1.160   2.128
 1459TIP3    H1 4383   3.941   1.158   2.166
 1459TIP3    H2 4384   4.014   1.159   2.033
 1460TIP3   OH2 4385   2.478   2.692   3.291
 1460TIP3    H1 4386   2.398   2.649   3.321
 1460TIP3    H2 4387   2.528   2.708   3.371
 1461TIP3   OH2 4388   0.251   2.910   3.482
 1461TIP3    H1 4389   0.247   2.926   3.388
 1461TIP3    H2 4390   0.186   2.970   3.520
 1462TIP3   OH2 4391   1.840   4.515   1.496
 1462TIP3    H1 4392   1.914   4.461   1.525
 1462TIP3    H2 4393   1.776   4.452   1.465
 1463TIP3   OH2 4394   4.617   2.935   0.258
 1463TIP3    H1 4395   4.571   2.881   0.194
 1463TIP3    H2 4396   4.708   2.905   0.254
 1464TIP3   OH2 4397   0.319   1.628   3.711
 1464TIP3    H1 4398   0.234   1.662   3.742
 1464TIP3    H2 4399   0.314   1.637   3.616
 1465TIP3   OH2 4400   4.152   1.457  -0.001
 1465TIP3    H1 4401   4.153   1.374  -0.048
 1465TIP3    H2 4402   4.063   1.463   0.034
 1466TIP3   OH2 4403   0.707   4.986   0.303
 1466TIP3    H1 4404   0.784   5.039   0.322
 1466TIP3    H2 4405   0.740   4.913   0.252
 1467TIP3   OH2 4406   4.072   0.822   4.659
 1467TIP3    H1 4407   4.007   0.758   4.690
 1467TIP3    H2 4408   4.033   0.907   4.681
 1468TIP3   OH2 4409   3.657   1.108   3.293
 1468TIP3    H1 4410   3.670   1.054   3.216
 1468TIP3    H2 4411   3.582   1.069   3.338
 1469TIP3   OH2 4412   2.109   1.570   4.833
 1469TIP3    H1 4413   2.051   1.552   4.906
 1469TIP3    H2 4414   2.089   1.661   4.809
 1470TIP3   OH2 4415   4.987   1.436   4.049
 1470TIP3    H1 4416   4.990   1.421   4.143
 1470TIP3    H2 4417   5.070   1.400   4.016
 1471TIP3   OH2 4418   5.923   5.508   5.033
 1471TIP3    H1 4419   5.974   5.478   5.109
 1471TIP3    H2 4420   5.989   5.542   4.972
 1472TIP3   OH2 4421   4.686   2.766   3.279
 1472TIP3    H1 4422   4.677   2.852   3.320
 1472TIP3    H2 4423   4.629   2.770   3.202
 1473TIP3   OH2 4424   5.393   3.351   0.779
 1473TIP3    H1 4425   5.480   3.314   0.791
 1473TIP3    H2 4426   5.335   3.275   0.778
 1474TIP3   OH2 4427   0.642   0.571   2.498
 1474TIP3    H1 4428   0.710   0.516   2.459
 1474TIP3    H2 4429   0.690   0.642   2.541
 1475TIP3   OH2 4430   4.208   4.854   2.824
 1475TIP3    H1 4431   4.210   4.873   2.917
 1475TIP3    H2 4432   4.122   4.885   2.794
 1476TIP3   OH2 4433   3.440   1.030   1.108
 1476TIP3    H1 4434   3.351   1.003   1.084
 1476TIP3    H2 4435   3.478   0.952   1.148
 1477TIP3   OH2 4436   2.041   2.928   1.607
 1477TIP3    H1 4437   2.011   2.993   1.543
 1477TIP3    H2 4438   2.075   2.856   1.554
 1478TIP3   OH2 4439   2.032   1.682   4.047
 1478TIP3    H1 4440   1.998   1.769   4.067
 1478TIP3    H2 4441   2.017   1.631   4.127
 1479TIP3   OH2 4442   2.861   5.125   3.772
 1479TIP3    H1 4443   2.815   5.046   3.742
 1479TIP3    H2 4444   2.887   5.170   3.691
 1480TIP3   OH2 4445   4.525   1.698   4.948
 1480TIP3    H1 4446   4.557   1.686   4.858
 1480TIP3    H2 4447   4.479   1.616   4.968
 1481TIP3   OH2 4448   5.201   0.820   1.731
 1481TIP3    H1 4449   5.194   0.791   1.822
 1481TIP3    H2 4450   5.112   0.813   1.697
 1482TIP3   OH2 4451   0.479   2.976   1.512
 1482TIP3    H1 4452   0.572   2.956   1.514
 1482TIP3    H2 4453   0.466   3.039   1.582
 1483TIP3   OH2 4454   0.982   1.395   0.546
 1483TIP3    H1 4455   0.932   1.440   0.478
 1483TIP3    H2 4456   1.002   1.309   0.509
 1484TIP3   OH2 4457   5.742   1.744   4.394
 1484TIP3    H1 4458   5.648   1.739   4.382
 1484TIP3    H2 4459   5.764   1.669   4.448
 1485TIP3   OH2 4460   0.055   4.196   1.530
 1485TIP3    H1 4461   0.099   4.223   1.611
 1485TIP3    H2 4462   0.048   4.101   1.537
 1486TIP3   OH2 4463   4.415   4.935   4.694
 1486TIP3    H1 4464   4.475   4.864   4.670
 1486TIP3    H2 4465   4.331   4.892   4.710
 1487TIP3   OH2 4466   1.215   3.749   4.487
 1487TIP3    H1 4467   1.145   3.698   4.446
 1487TIP3    H2 4468   1.270   3.683   4.529
 1488TIP3   OH2 4469   2.146   0.665   4.636
 1488TIP3    H1 4470   2.162   0.605   4.710
 1488TIP3    H2 4471   2.227   0.661   4.585
 1489TIP3   OH2 4472   2.737   3.030   3.908
 1489TIP3    H1 4473   2.671   3.061   3.846
 1489TIP3    H2 4474   2.780   2.957   3.863
 1490TIP3   OH2 4475   1.304   1.496   4.938
 1490TIP3    H1 4476   1.398   1.510   4.928
 1490TIP3    H2 4477   1.266   1.583   4.927
 1491TIP3   OH2 4478   2.448   2.248   1.428
 1491TIP3    H1 4479   2.418   2.193   1.356
 1491TIP3    H2 4480   2.403   2.331   1.415
 1492TIP3   OH2 4481   6.151   1.923   4.325
 1492TIP3    H1 4482   6.172   1.992   4.262
 1492TIP3    H2 4483   6.186   1.955   4.408
 1493TIP3   OH2 4484   1.601   1.524   1.452
 1493TIP3    H1 4485   1.603   1.617   1.426
 1493TIP3    H2 4486   1.583   1.526   1.546
 1494TIP3   OH2 4487   6.351   1.828   1.687
 1494TIP3    H1 4488   6.386   1.754   1.636
 1494TIP3    H2 4489   6.261   1.837   1.657
 1495TIP3   OH2 4490   5.617   1.768   1.685
 1495TIP3    H1 4491   5.680   1.836   1.708
 1495TIP3    H2 4492   5.622   1.704   1.756
 1496TIP3   OH2 4493   1.948   5.238   1.974
 1496TIP3    H1 4494   1.986   5.189   1.901
 1496TIP3    H2 4495   1.873   5.186   2.002
 1497TIP3   OH2 4496   4.508   0.888   0.381
 1497TIP3    H1 4497   4.588   0.843   0.407
 1497TIP3    H2 4498   4.452   0.819   0.346
 1498TIP3   OH2 4499   0.956   1.649   5.129
 1498TIP3    H1 4500   0.935   1.680   5.217
 1498TIP3    H2 4501   0.893   1.693   5.072
 1499TIP3   OH2 4502   2.104   0.631   0.962
 1499TIP3    H1 4503   2.097   0.701   0.897
 1499TIP3    H2 4504   2.018   0.629   1.005
 1500TIP3   OH2 4505   5.878   3.662   1.251
 1500TIP3    H1 4506   5.786   3.639   1.265
 1500TIP3    H2 4507   5.877   3.717   1.173
 1501TIP3   OH2 4508   0.372   3.316   2.047
 1501TIP3    H1 4509   0.436   3.358   1.989
 1501TIP3    H2 4510   0.308   3.384   2.065
 1502TIP3   OH2 4511   4.282   4.517   3.995
 1502TIP3    H1 4512   4.307   4.526   4.087
 1502TIP3    H2 4513   4.359   4.545   3.945
 1503TIP3   OH2 4514   5.249   4.354   3.801
 1503TIP3    H1 4515   5.156   4.377   3.792
 1503TIP3    H2 4516   5.275   4.392   3.885
 1504TIP3   OH2 4517   0.235   2.535   0.518
 1504TIP3    H1 4518   0.232   2.626   0.546
 1504TIP3    H2 4519   0.283   2.537   0.435
 1505TIP3   OH2 4520   0.346   3.709   0.244
 1505TIP3    H1 4521   0.411   3.728   0.312
 1505TIP3    H2 4522   0.336   3.614   0.248
 1506TIP3   OH2 4523   0.526   3.436   4.771
 1506TIP3    H1 4524   0.464   3.480   4.829
 1506TIP3    H2 4525   0.612   3.453   4.809
 1507TIP3   OH2 4526   4.473   2.769   5.156
 1507TIP3    H1 4527   4.566   2.778   5.135
 1507TIP3    H2 4528   4.463   2.677   5.183
 1508TIP3   OH2 4529   5.995   4.058   2.270
 1508TIP3    H1 4530   6.079   4.014   2.283
 1508TIP3    H2 4531   5.951   4.007   2.202
 1509TIP3   OH2 4532   5.969   5.671   2.960
 1509TIP3    H1 4533   5.874   5.660   2.965
 1509TIP3    H2 4534   6.000   5.655   3.049
 1510TIP3   OH2 4535   5.310   3.628   2.647
 1510TIP3    H1 4536   5.281   3.716   2.625
 1510TIP3    H2 4537   5.246   3.570   2.606
 1511TIP3   OH2 4538   1.118   2.023   1.224
 1511TIP3    H1 4539   1.095   2.063   1.140
 1511TIP3    H2 4540   1.213   2.017   1.222
 1512TIP3   OH2 4541   3.779   4.238   4.862
 1512TIP3    H1 4542   3.757   4.316   4.912
 1512TIP3    H2 4543   3.874   4.245   4.848
 1513TIP3   OH2 4544   6.307   0.848   4.640
 1513TIP3    H1 4545   6.319   0.761   4.603
 1513TIP3    H2 4546   6.251   0.893   4.577
 1514TIP3   OH2 4547   0.190   1.133   1.429
 1514TIP3    H1 4548   0.105   1.089   1.422
 1514TIP3    H2 4549   0.221   1.140   1.339
 1515TIP3   OH2 4550   0.429   5.326   4.115
 1515TIP3    H1 4551   0.489   5.262   4.153
 1515TIP3    H2 4552   0.455   5.331   4.023
 1516TIP3   OH2 4553   2.535   1.846   0.183
 1516TIP3    H1 4554   2.454   1.798   0.163
 1516TIP3    H2 4555   2.579   1.792   0.249
 1517TIP3   OH2 4556   5.068   4.162   1.382
 1517TIP3    H1 4557   5.131   4.091   1.374
 1517TIP3    H2 4558   5.101   4.230   1.323
 1518TIP3   OH2 4559   1.551   3.110   2.009
 1518TIP3    H1 4560   1.489   3.180   2.030
 1518TIP3    H2 4561   1.575   3.126   1.917
 1519TIP3   OH2 4562   1.001   5.196   4.659
 1519TIP3    H1 4563   1.033   5.135   4.725
 1519TIP3    H2 4564   0.964   5.141   4.590
 1520TIP3   OH2 4565   1.806   2.197   2.360
 1520TIP3    H1 4566   1.847   2.115   2.334
 1520TIP3    H2 4567   1.714   2.175   2.375
 1521TIP3   OH2 4568   2.816   0.054   3.046
 1521TIP3    H1 4569   2.838   0.140   3.081
 1521TIP3    H2 4570   2.880  -0.005   3.087
 1522TIP3   OH2 4571   4.899   4.881   2.675
 1522TIP3    H1 4572   4.959   4.811   2.699
 1522TIP3    H2 4573   4.820   4.835   2.647
 1523TIP3   OH2 4574   0.526   4.100   5.099
 1523TIP3    H1 4575   0.498   4.026   5.045
 1523TIP3    H2 4576   0.591   4.063   5.159
 1524TIP3   OH2 4577   4.087   3.140   1.971
 1524TIP3    H1 4578   3.993   3.134   1.991
 1524TIP3    H2 4579   4.098   3.092   1.889
 1525TIP3   OH2 4580   3.998   2.771   3.785
 1525TIP3    H1 4581   4.017   2.800   3.696
 1525TIP3    H2 4582   3.951   2.844   3.825
 1526TIP3   OH2 4583   0.247   3.431   3.899
 1526TIP3    H1 4584   0.283   3.441   3.988
 1526TIP3    H2 4585   0.273   3.342   3.873
 1527TIP3   OH2 4586   2.969   2.043   0.930
 1527TIP3    H1 4587   3.044   2.009   0.980
 1527TIP3    H2 4588   3.005   2.116   0.879
 1528TIP3   OH2 4589   0.029   2.860   0.983
 1528TIP3    H1 4590   0.063   2.775   1.011
 1528TIP3    H2 4591   0.068   2.922   1.045
 1529TIP3   OH2 4592   2.323   1.359   2.345
 1529TIP3    H1 4593   2.313   1.278   2.396
 1529TIP3    H2 4594   2.357   1.423   2.408
 1530TIP3   OH2 4595   0.836   5.931   3.341
 1530TIP3    H1 4596   0.750   5.888   3.334
 1530TIP3    H2 4597   0.894   5.878   3.286
 1531TIP3   OH2 4598   3.250   5.591   4.875
 1531TIP3    H1 4599   3.240   5.502   4.910
 1531TIP3    H2 4600   3.311   5.634   4.935
 1532TIP3   OH2 4601   1.402   3.718   0.909
 1532TIP3    H1 4602   1.375   3.751   0.823
 1532TIP3    H2 4603   1.498   3.725   0.908
 1533TIP3   OH2 4604   3.419   0.664   2.704
 1533TIP3    H1 4605   3.479   0.688   2.633
 1533TIP3    H2 4606   3.345   0.724   2.695
 1534TIP3   OH2 4607   3.400   3.474   3.479
 1534TIP3    H1 4608   3.385   3.564   3.507
 1534TIP3    H2 4609   3.493   3.459   3.496
 1535TIP3   OH2 4610   1.502   5.628   2.075
 1535TIP3    H1 4611   1.558   5.552   2.057
 1535TIP3    H2 4612   1.428   5.618   2.015
 1536TIP3   OH2 4613   5.289   0.349   4.861
 1536TIP3    H1 4614   5.374   0.387   4.837
 1536TIP3    H2 4615   5.311   0.262   4.895
 1537TIP3   OH2 4616   0.498   0.358   4.396
 1537TIP3    H1 4617   0.425   0.389   4.342
 1537TIP3    H2 4618   0.496   0.415   4.473
 1538TIP3   OH2 4619   2.494   5.617   4.441
 1538TIP3    H1 4620   2.496   5.655   4.354
 1538TIP3    H2 4621   2.470   5.525   4.428
 1539TIP3   OH2 4622   4.767   1.554   5.210
 1539TIP3    H1 4623   4.785   1.477   5.266
 1539TIP3    H2 4624   4.745   1.517   5.125
 1540TIP3   OH2 4625   0.522   2.786   4.719
 1540TIP3    H1 4626   0.469   2.845   4.773
 1540TIP3    H2 4627   0.533   2.832   4.636
 1541TIP3   OH2 4628   1.108   2.443   1.159
 1541TIP3    H1 4629   1.021   2.440   1.119
 1541TIP3    H2 4630   1.153   2.365   1.124
 1542TIP3   OH2 4631   2.479   1.524   1.025
 1542TIP3    H1 4632   2.522   1.470   1.092
 1542TIP3    H2 4633   2.386   1.517   1.046
 1543TIP3   OH2 4634   0.334   3.606   1.501
 1543TIP3    H1 4635   0.416   3.608   1.451
 1543TIP3    H2 4636   0.350   3.662   1.577
 1544TIP3   OH2 4637   4.546   2.548   4.342
 1544TIP3    H1 4638   4.498   2.469   4.318
 1544TIP3    H2 4639   4.481   2.618   4.339
 1545TIP3   OH2 4640   0.592   5.638   2.958
 1545TIP3    H1 4641   0.561   5.570   2.899
 1545TIP3    H2 4642   0.547   5.622   3.040
 1546TIP3   OH2 4643   4.309   0.498   4.941
 1546TIP3    H1 4644   4.220   0.479   4.910
 1546TIP3    H2 4645   4.321   0.592   4.924
 1547TIP3   OH2 4646   0.244   1.879   1.353
 1547TIP3    H1 4647   0.172   1.930   1.391
 1547TIP3    H2 4648   0.323   1.922   1.384
 1548TIP3   OH2 4649   1.700   3.835   3.310
 1548TIP3    H1 4650   1.700   3.885   3.391
 1548TIP3    H2 4651   1.608   3.825   3.288
 1549TIP3   OH2 4652   0.496   1.873   1.489
 1549TIP3    H1 4653   0.537   1.944   1.539
 1549TIP3    H2 4654   0.471   1.809   1.555
 1550TIP3   OH2 4655   5.828   1.347   0.855
 1550TIP3    H1 4656   5.853   1.284   0.924
 1550TIP3    H2 4657   5.834   1.432   0.898
 1551TIP3   OH2 4658   3.002   1.582   0.243
 1551TIP3    H1 4659   3.051   1.540   0.173
 1551TIP3    H2 4660   3.068   1.624   0.298
 1552TIP3   OH2 4661   4.985   2.442   4.742
 1552TIP3    H1 4662   5.077   2.438   4.719
 1552TIP3    H2 4663   4.944   2.373   4.689
 1553TIP3   OH2 4664   2.602   1.768   2.867
 1553TIP3    H1 4665   2.554   1.798   2.944
 1553TIP3    H2 4666   2.615   1.674   2.881
 1554TIP3   OH2 4667   6.228   3.295   1.640
 1554TIP3    H1 4668   6.246   3.290   1.546
 1554TIP3    H2 4669   6.133   3.288   1.647
 1555TIP3   OH2 4670   4.814   5.359   1.895
 1555TIP3    H1 4671   4.721   5.377   1.911
 1555TIP3    H2 4672   4.815   5.307   1.815
 1556TIP3   OH2 4673   2.440   3.936   5.162
 1556TIP3    H1 4674   2.411   3.996   5.231
 1556TIP3    H2 4675   2.529   3.965   5.141
 1557TIP3   OH2 4676   5.100   1.095   2.635
 1557TIP3    H1 4677   5.084   1.039   2.711
 1557TIP3    H2 4678   5.022   1.085   2.580
 1558TIP3   OH2 4679   2.528   2.490   3.104
 1558TIP3    H1 4680   2.512   2.569   3.157
 1558TIP3    H2 4681   2.591   2.439   3.155
 1559TIP3   OH2 4682   0.341   4.036   1.773
 1559TIP3    H1 4683   0.295   4.119   1.761
 1559TIP3    H2 4684   0.271   3.971   1.782
 1560TIP3   OH2 4685   3.394   1.068   3.121
 1560TIP3    H1 4686   3.338   1.125   3.069
 1560TIP3    H2 4687   3.345   0.986   3.127
 1561TIP3   OH2 4688   0.055   4.754   1.600
 1561TIP3    H1 4689   0.068   4.691   1.671
 1561TIP3    H2 4690  -0.036   4.784   1.611
 1562TIP3   OH2 4691   2.379   3.862   0.801
 1562TIP3    H1 4692   2.437   3.937   0.793
 1562TIP3    H2 4693   2.291   3.898   0.793
 1563TIP3   OH2 4694   5.075   1.342   3.200
 1563TIP3    H1 4695   5.033   1.364   3.116
 1563TIP3    H2 4696   5.016   1.277   3.239
 1564TIP3   OH2 4697   0.792   0.907   0.136
 1564TIP3    H1 4698   0.751   0.858   0.207
 1564TIP3    H2 4699   0.854   0.966   0.179
 1565TIP3   OH2 4700   4.992   5.366   4.872
 1565TIP3    H1 4701   5.020   5.279   4.900
 1565TIP3    H2 4702   4.904   5.377   4.909
 1566TIP3   OH2 4703   5.004   5.837   0.991
 1566TIP3    H1 4704   4.984   5.754   0.947
 1566TIP3    H2 4705   4.972   5.825   1.080
 1567TIP3   OH2 4706   4.317   5.376   2.841
 1567TIP3    H1 4707   4.357   5.362   2.755
 1567TIP3    H2 4708   4.226   5.349   2.830
 1568TIP3   OH2 4709   2.622   0.372   0.849
 1568TIP3    H1 4710   2.649   0.464   0.847
 1568TIP3    H2 4711   2.698   0.325   0.815
 1569TIP3   OH2 4712   2.108   2.525   1.191
 1569TIP3    H1 4713   2.062   2.442   1.207
 1569TIP3    H2 4714   2.191   2.516   1.240
 1570TIP3   OH2 4715   5.295   4.754   0.452
 1570TIP3    H1 4716   5.201   4.754   0.470
 1570TIP3    H2 4717   5.316   4.844   0.428
 1571TIP3   OH2 4718   5.925   0.688   3.783
 1571TIP3    H1 4719   5.917   0.750   3.856
 1571TIP3    H2 4720   5.837   0.685   3.744
 1572TIP3   OH2 4721   2.909   5.124   4.084
 1572TIP3    H1 4722   2.968   5.094   4.016
 1572TIP3    H2 4723   2.966   5.151   4.156
 1573TIP3   OH2 4724   4.797   5.531   3.212
 1573TIP3    H1 4725   4.784   5.437   3.201
 1573TIP3    H2 4726   4.882   5.539   3.256
 1574TIP3   OH2 4727   0.707   2.194   4.335
 1574TIP3    H1 4728   0.778   2.145   4.376
 1574TIP3    H2 4729   0.742   2.220   4.249
 1575TIP3   OH2 4730   4.339   2.345   1.464
 1575TIP3    H1 4731   4.413   2.402   1.483
 1575TIP3    H2 4732   4.262   2.403   1.470
 1576TIP3   OH2 4733   5.861   2.572   4.167
 1576TIP3    H1 4734   5.932   2.519   4.130
 1576TIP3    H2 4735   5.893   2.597   4.254
 1577TIP3   OH2 4736   2.510   3.952   3.524
 1577TIP3    H1 4737   2.579   3.918   3.468
 1577TIP3    H2 4738   2.544   4.035   3.557
 1578TIP3   OH2 4739   4.326   2.284   2.663
 1578TIP3    H1 4740   4.294   2.213   2.720
 1578TIP3    H2 4741   4.264   2.356   2.678
 1579TIP3   OH2 4742   0.731   3.006   2.417
 1579TIP3    H1 4743   0.703   3.038   2.331
 1579TIP3    H2 4744   0.764   2.918   2.400
 1580TIP3   OH2 4745   3.346   1.177   0.830
 1580TIP3    H1 4746   3.438   1.204   0.824
 1580TIP3    H2 4747   3.327   1.137   0.745
 1581TIP3   OH2 4748   0.534   3.383   1.837
 1581TIP3    H1 4749   0.623   3.358   1.811
 1581TIP3    H2 4750   0.536   3.479   1.840
 1582TIP3   OH2 4751   1.993   5.495   3.675
 1582TIP3    H1 4752   2.020   5.421   3.731
 1582TIP3    H2 4753   2.042   5.569   3.710
 1583TIP3   OH2 4754   1.298   1.574   4.552
 1583TIP3    H1 4755   1.221   1.629   4.567
 1583TIP3    H2 4756   1.285   1.499   4.610
 1584TIP3   OH2 4757  -0.019   2.088   4.148
 1584TIP3    H1 4758   0.024   2.004   4.135
 1584TIP3    H2 4759  -0.083   2.095   4.077
 1585TIP3   OH2 4760   3.379   1.341   4.258
 1585TIP3    H1 4761   3.374   1.287   4.180
 1585TIP3    H2 4762   3.288   1.350   4.287
 1586TIP3   OH2 4763   5.619   0.511   4.077
 1586TIP3    H1 4764   5.671   0.480   4.003
 1586TIP3    H2 4765   5.597   0.431   4.126
 1587TIP3   OH2 4766   2.876   1.221   4.559
 1587TIP3    H1 4767   2.864   1.240   4.466
 1587TIP3    H2 4768   2.859   1.127   4.567
 1588TIP3   OH2 4769   1.760   2.845   1.033
 1588TIP3    H1 4770   1.808   2.801   1.104
 1588TIP3    H2 4771   1.708   2.775   0.993
 1589TIP3   OH2 4772   5.032   2.480   3.478
 1589TIP3    H1 4773   4.965   2.520   3.422
 1589TIP3    H2 4774   5.115   2.504   3.437
 1590TIP3   OH2 4775   5.514   1.498   1.218
 1590TIP3    H1 4776   5.474   1.570   1.267
 1590TIP3    H2 4777   5.444   1.465   1.162
 1591TIP3   OH2 4778   4.739   2.488   0.838
 1591TIP3    H1 4779   4.737   2.393   0.828
 1591TIP3    H2 4780   4.830   2.512   0.818
 1592TIP3   OH2 4781   2.964   4.399   1.048
 1592TIP3    H1 4782   3.006   4.469   1.097
 1592TIP3    H2 4783   2.990   4.319   1.095
 1593TIP3   OH2 4784   0.231   1.720   0.427
 1593TIP3    H1 4785   0.213   1.811   0.450
 1593TIP3    H2 4786   0.325   1.709   0.441
 1594TIP3   OH2 4787   2.046   3.807   2.508
 1594TIP3    H1 4788   2.007   3.720   2.504
 1594TIP3    H2 4789   1.974   3.864   2.538
 1595TIP3   OH2 4790   1.838   2.941   2.418
 1595TIP3    H1 4791   1.766   2.971   2.362
 1595TIP3    H2 4792   1.908   2.918   2.356
 1596TIP3   OH2 4793   0.478   1.361   0.712
 1596TIP3    H1 4794   0.543   1.404   0.657
 1596TIP3    H2 4795   0.439   1.433   0.763
 1597TIP3   OH2 4796   3.560   3.794   5.028
 1597TIP3    H1 4797   3.510   3.714   5.012
 1597TIP3    H2 4798   3.563   3.837   4.943
 1598TIP3   OH2 4799   0.626   4.149   0.379
 1598TIP3    H1 4800   0.535   4.124   0.362
 1598TIP3    H2 4801   0.620   4.223   0.439
 1599TIP3   OH2 4802   1.298   4.479   4.380
 1599TIP3    H1 4803   1.248   4.407   4.418
 1599TIP3    H2 4804   1.380   4.479   4.428
 1600TIP3   OH2 4805   5.206   5.441   3.175
 1600TIP3    H1 4806   5.154   5.401   3.105
 1600TIP3    H2 4807   5.290   5.462   3.134
 1601TIP3   OH2 4808   3.996   0.294   3.240
 1601TIP3    H1 4809   4.074   0.332   3.200
 1601TIP3    H2 4810   4.028   0.248   3.317
 1602TIP3   OH2 4811   2.471   1.420   0.751
 1602TIP3    H1 4812   2.441   1.341   0.796
 1602TIP3    H2 4813   2.445   1.492   0.808
 1603TIP3   OH2 4814   0.884   3.536   4.349
 1603TIP3    H1 4815   0.961   3.504   4.396
 1603TIP3    H2 4816   0.827   3.459   4.341
 1604TIP3   OH2 4817   4.176   0.323   0.770
 1604TIP3    H1 4818   4.174   0.333   0.675
 1604TIP3    H2 4819   4.132   0.401   0.803
 1605TIP3   OH2 4820   1.947   5.385   0.624
 1605TIP3    H1 4821   2.011   5.454   0.607
 1605TIP3    H2 4822   1.977   5.311   0.571
 1606TIP3   OH2 4823   3.475   4.952   2.300
 1606TIP3    H1 4824   3.450   5.044   2.293
 1606TIP3    H2 4825   3.555   4.952   2.352
 1607TIP3   OH2 4826   3.681   1.767   4.154
 1607TIP3    H1 4827   3.648   1.827   4.221
 1607TIP3    H2 4828   3.659   1.680   4.186
 1608TIP3   OH2 4829   5.615   3.761   3.924
 1608TIP3    H1 4830   5.579   3.761   3.835
 1608TIP3    H2 4831   5.636   3.853   3.942
 1609TIP3   OH2 4832   6.157   2.801   0.182
 1609TIP3    H1 4833   6.081   2.744   0.189
 1609TIP3    H2 4834   6.219   2.767   0.248
 1610TIP3   OH2 4835   2.045   0.164   0.325
 1610TIP3    H1 4836   2.007   0.249   0.349
 1610TIP3    H2 4837   1.991   0.100   0.373
 1611TIP3   OH2 4838   0.293   5.483   0.008
 1611TIP3    H1 4839   0.233   5.523   0.070
 1611TIP3    H2 4840   0.354   5.433   0.062
 1612TIP3   OH2 4841   1.917   5.170   3.040
 1612TIP3    H1 4842   1.833   5.197   3.006
 1612TIP3    H2 4843   1.912   5.186   3.134
 1613TIP3   OH2 4844   3.675   3.658   4.010
 1613TIP3    H1 4845   3.758   3.621   4.041
 1613TIP3    H2 4846   3.624   3.673   4.089
 1614TIP3   OH2 4847   1.928   0.352   1.059
 1614TIP3    H1 4848   1.849   0.309   1.027
 1614TIP3    H2 4849   1.921   0.442   1.028
 1615TIP3   OH2 4850   3.153   3.157   4.742
 1615TIP3    H1 4851   3.226   3.218   4.734
 1615TIP3    H2 4852   3.085   3.207   4.788
 1616TIP3   OH2 4853   0.037   3.165   4.931
 1616TIP3    H1 4854  -0.030   3.169   5.000
 1616TIP3    H2 4855  -0.011   3.183   4.850
 1617TIP3   OH2 4856   1.117   2.885   4.278
 1617TIP3    H1 4857   1.209   2.870   4.302
 1617TIP3    H2 4858   1.121   2.922   4.190
 1618TIP3   OH2 4859   3.863   1.559   4.886
 1618TIP3    H1 4860   3.922   1.629   4.913
 1618TIP3    H2 4861   3.883   1.487   4.946
 1619TIP3   OH2 4862   4.464   3.908   2.248
 1619TIP3    H1 4863   4.471   3.837   2.184
 1619TIP3    H2 4864   4.414   3.976   2.202
 1620TIP3   OH2 4865   2.341   5.030   4.039
 1620TIP3    H1 4866   2.276   5.100   4.039
 1620TIP3    H2 4867   2.415   5.066   4.089
 1621TIP3   OH2 4868   5.772   5.673   0.696
 1621TIP3    H1 4869   5.749   5.581   0.710
 1621TIP3    H2 4870   5.688   5.719   0.701
 1622TIP3   OH2 4871   5.099   1.609   3.271
 1622TIP3    H1 4872   5.077   1.520   3.244
 1622TIP3    H2 4873   5.191   1.620   3.246
 1623TIP3   OH2 4874   3.843   2.006   4.224
 1623TIP3    H1 4875   3.938   2.004   4.214
 1623TIP3    H2 4876   3.809   1.985   4.137
 1624TIP3   OH2 4877   1.321   2.668   1.595
 1624TIP3    H1 4878   1.306   2.618   1.514
 1624TIP3    H2 4879   1.261   2.742   1.588
 1625TIP3   OH2 4880   0.479   2.098   2.517
 1625TIP3    H1 4881   0.392   2.068   2.491
 1625TIP3    H2 4882   0.533   2.020   2.516
 1626TIP3   OH2 4883   5.731   5.099   1.147
 1626TIP3    H1 4884   5.680   5.019   1.157
 1626TIP3    H2 4885   5.709   5.131   1.060
 1627TIP3   OH2 4886   6.057   4.065   3.632
 1627TIP3    H1 4887   5.983   4.101   3.680
 1627TIP3    H2 4888   6.123   4.135   3.634
 1628TIP3   OH2 4889   5.284   2.543   2.092
 1628TIP3    H1 4890   5.285   2.448   2.103
 1628TIP3    H2 4891   5.371   2.564   2.057
 1629TIP3   OH2 4892   0.740   0.151   1.492
 1629TIP3    H1 4893   0.822   0.102   1.489
 1629TIP3    H2 4894   0.747   0.212   1.419
 1630TIP3   OH2 4895   4.648   1.346   0.954
 1630TIP3    H1 4896   4.718   1.404   0.982
 1630TIP3    H2 4897   4.578   1.360   1.018
 1631TIP3   OH2 4898   0.324   0.191   2.684
 1631TIP3    H1 4899   0.259   0.169   2.618
 1631TIP3    H2 4900   0.342   0.284   2.669
 1632TIP3   OH2 4901   4.066   0.514   4.785
 1632TIP3    H1 4902   3.990   0.568   4.808
 1632TIP3    H2 4903   4.037   0.463   4.710
 1633TIP3   OH2 4904   0.036   2.548   3.883
 1633TIP3    H1 4905  -0.050   2.535   3.922
 1633TIP3    H2 4906   0.067   2.460   3.862
 1634TIP3   OH2 4907   3.599   5.858   2.445
 1634TIP3    H1 4908   3.603   5.901   2.530
 1634TIP3    H2 4909   3.639   5.772   2.459
 1635TIP3   OH2 4910   2.705   0.098   0.300
 1635TIP3    H1 4911   2.653   0.046   0.238
 1635TIP3    H2 4912   2.640   0.150   0.347
 1636TIP3   OH2 4913   2.108   5.181   2.244
 1636TIP3    H1 4914   2.064   5.202   2.326
 1636TIP3    H2 4915   2.055   5.222   2.177
 1637TIP3   OH2 4916   1.768   0.440   4.357
 1637TIP3    H1 4917   1.848   0.412   4.311
 1637TIP3    H2 4918   1.800   0.486   4.434
 1638TIP3   OH2 4919   4.121   2.851   4.702
 1638TIP3    H1 4920   4.176   2.818   4.631
 1638TIP3    H2 4921   4.172   2.836   4.781
 1639TIP3   OH2 4922   3.860   4.890   3.479
 1639TIP3    H1 4923   3.938   4.908   3.426
 1639TIP3    H2 4924   3.854   4.794   3.479
 1640TIP3   OH2 4925   1.990   0.650   1.989
 1640TIP3    H1 4926   1.988   0.714   2.060
 1640TIP3    H2 4927   1.922   0.587   2.010
 1641TIP3   OH2 4928   2.206   3.981   1.389
 1641TIP3    H1 4929   2.172   3.957   1.475
 1641TIP3    H2 4930   2.287   4.028   1.408
 1642TIP3   OH2 4931   1.089   1.734   0.213
 1642TIP3    H1 4932   1.181   1.719   0.231
 1642TIP3    H2 4933   1.042   1.685   0.281
 1643TIP3   OH2 4934   4.206   0.262   1.122
 1643TIP3    H1 4935   4.261   0.336   1.148
 1643TIP3    H2 4936   4.123   0.301   1.096
 1644TIP3   OH2 4937   5.009   4.609   0.247
 1644TIP3    H1 4938   4.939   4.582   0.188
 1644TIP3    H2 4939   5.089   4.600   0.196
 1645TIP3   OH2 4940   6.184   4.108   3.079
 1645TIP3    H1 4941   6.231   4.191   3.074
 1645TIP3    H2 4942   6.099   4.126   3.038
 1646TIP3   OH2 4943   2.177   4.846   4.874
 1646TIP3    H1 4944   2.086   4.830   4.898
 1646TIP3    H2 4945   2.191   4.795   4.794
 1647TIP3   OH2 4946   2.954   2.153   3.139
 1647TIP3    H1 4947   2.871   2.112   3.164
 1647TIP3    H2 4948   2.928   2.221   3.076
 1648TIP3   OH2 4949   0.104   4.328   3.878
 1648TIP3    H1 4950   0.120   4.246   3.832
 1648TIP3    H2 4951   0.009   4.339   3.875
 1649TIP3   OH2 4952   2.114   1.079   1.647
 1649TIP3    H1 4953   2.053   1.029   1.592
 1649TIP3    H2 4954   2.063   1.102   1.724
 1650TIP3   OH2 4955   2.840   2.215   0.064
 1650TIP3    H1 4956   2.793   2.261  -0.006
 1650TIP3    H2 4957   2.772   2.163   0.108
 1651TIP3   OH2 4958   0.457   2.125   1.794
 1651TIP3    H1 4959   0.432   2.217   1.790
 1651TIP3    H2 4960   0.521   2.115   1.723
 1652TIP3   OH2 4961   5.712   2.008   1.808
 1652TIP3    H1 4962   5.755   2.051   1.882
 1652TIP3    H2 4963   5.618   2.024   1.822
 1653TIP3   OH2 4964   0.860   1.292   1.645
 1653TIP3    H1 4965   0.798   1.223   1.667
 1653TIP3    H2 4966   0.945   1.247   1.638
 1654TIP3   OH2 4967   4.653   4.143   3.876
 1654TIP3    H1 4968   4.635   4.104   3.790
 1654TIP3    H2 4969   4.641   4.071   3.938
 1655TIP3   OH2 4970   3.495   2.109   4.002
 1655TIP3    H1 4971   3.520   2.089   3.912
 1655TIP3    H2 4972   3.446   2.032   4.031
 1656TIP3   OH2 4973   5.572   4.012   4.498
 1656TIP3    H1 4974   5.639   3.968   4.551
 1656TIP3    H2 4975   5.602   3.999   4.408
 1657TIP3   OH2 4976   4.190   0.849   1.758
 1657TIP3    H1 4977   4.138   0.773   1.734
 1657TIP3    H2 4978   4.276   0.814   1.780
 1658TIP3   OH2 4979   4.590   3.973   4.126
 1658TIP3    H1 4980   4.654   4.017   4.182
 1658TIP3    H2 4981   4.592   3.882   4.155
 1659TIP3   OH2 4982   5.312   5.884   2.378
 1659TIP3    H1 4983   5.310   5.955   2.313
 1659TIP3    H2 4984   5.294   5.927   2.461
 1660TIP3   OH2 4985   0.327   3.983   4.642
 1660TIP3    H1 4986   0.237   3.951   4.634
 1660TIP3    H2 4987   0.362   3.980   4.553
 1661TIP3   OH2 4988   4.715   5.718   1.785
 1661TIP3    H1 4989   4.734   5.768   1.706
 1661TIP3    H2 4990   4.690   5.631   1.753
 1662TIP3   OH2 4991   0.635   1.766   4.814
 1662TIP3    H1 4992   0.606   1.853   4.786
 1662TIP3    H2 4993   0.658   1.721   4.733
 1663TIP3   OH2 4994   1.702   5.669   1.806
 1663TIP3    H1 4995   1.755   5.597   1.840
 1663TIP3    H2 4996   1.620   5.629   1.779
 1664TIP3   OH2 4997   1.838   4.520   3.040
 1664TIP3    H1 4998   1.832   4.430   3.009
 1664TIP3    H2 4999   1.916   4.522   3.095
 1665TIP3   OH2 5000   2.048   4.586   1.117
 1665TIP3    H1 5001   2.066   4.666   1.166
 1665TIP3    H2 5002   2.096   4.517   1.164
 1666TIP3   OH2 5003   5.306   3.574   3.632
 1666TIP3    H1 5004   5.379   3.516   3.613
 1666TIP3    H2 5005   5.335   3.660   3.600
 1667TIP3   OH2 5006   6.198   3.875   4.896
 1667TIP3    H1 5007   6.258   3.942   4.928
 1667TIP3    H2 5008   6.117   3.921   4.877
 1668TIP3   OH2 5009   2.981   1.125   2.582
 1668TIP3    H1 5010   2.944   1.053   2.632
 1668TIP3    H2 5011   2.938   1.203   2.616
 1669TIP3   OH2 5012   4.715   0.184   4.927
 1669TIP3    H1 5013   4.652   0.206   4.996
 1669TIP3    H2 5014   4.686   0.236   4.852
 1670TIP3   OH2 5015   0.310   5.853   3.488
 1670TIP3    H1 5016   0.299   5.794   3.563
 1670TIP3    H2 5017   0.278   5.937   3.520
 1671TIP3   OH2 5018   4.245   5.452   0.206
 1671TIP3    H1 5019   4.215   5.506   0.133
 1671TIP3    H2 5020   4.165   5.413   0.242
 1672TIP3   OH2 5021   1.443   4.193   3.484
 1672TIP3    H1 5022   1.457   4.286   3.466
 1672TIP3    H2 5023   1.487   4.178   3.568
 1673TIP3   OH2 5024   1.676   3.549   4.882
 1673TIP3    H1 5025   1.723   3.508   4.808
 1673TIP3    H2 5026   1.705   3.499   4.958
 1674TIP3   OH2 5027   3.562   0.619   3.358
 1674TIP3    H1 5028   3.470   0.602   3.336
 1674TIP3    H2 5029   3.604   0.533   3.353
 1675TIP3   OH2 5030   0.840   0.707   4.797
 1675TIP3    H1 5031   0.890   0.683   4.720
 1675TIP3    H2 5032   0.874   0.793   4.822
 1676TIP3   OH2 5033   2.416   3.342   0.028
 1676TIP3    H1 5034   2.342   3.348   0.089
 1676TIP3    H2 5035   2.383   3.380  -0.053
 1677TIP3   OH2 5036   4.823   5.126   2.781
 1677TIP3    H1 5037   4.793   5.072   2.854
 1677TIP3    H2 5038   4.863   5.064   2.719
 1678TIP3   OH2 5039   2.353   3.945   1.718
 1678TIP3    H1 5040   2.384   3.867   1.672
 1678TIP3    H2 5041   2.337   4.009   1.648
 1679TIP3   OH2 5042   0.033   2.221   1.109
 1679TIP3    H1 5043   0.057   2.258   1.193
 1679TIP3    H2 5044  -0.004   2.135   1.130
 1680TIP3   OH2 5045   2.957   2.861   0.632
 1680TIP3    H1 5046   2.894   2.921   0.592
 1680TIP3    H2 5047   2.984   2.804   0.561
 1681TIP3   OH2 5048   3.481   4.321   1.789
 1681TIP3    H1 5049   3.414   4.378   1.752
 1681TIP3    H2 5050   3.544   4.380   1.829
 1682TIP3   OH2 5051   4.836   3.636   0.686
 1682TIP3    H1 5052   4.870   3.566   0.742
 1682TIP3    H2 5053   4.848   3.604   0.597
 1683TIP3   OH2 5054   2.877   1.580   1.728
 1683TIP3    H1 5055   2.799   1.596   1.674
 1683TIP3    H2 5056   2.850   1.602   1.817
 1684TIP3   OH2 5057   3.562   4.290   0.099
 1684TIP3    H1 5058   3.541   4.382   0.090
 1684TIP3    H2 5059   3.538   4.251   0.015
 1685TIP3   OH2 5060   5.255   4.674   2.835
 1685TIP3    H1 5061   5.293   4.652   2.750
 1685TIP3    H2 5062   5.316   4.636   2.899
 1686TIP3   OH2 5063   4.724   5.586   2.937
 1686TIP3    H1 5064   4.752   5.538   3.015
 1686TIP3    H2 5065   4.689   5.668   2.970
 1687TIP3   OH2 5066   3.178   2.208   0.790
 1687TIP3    H1 5067   3.181   2.130   0.735
 1687TIP3    H2 5068   3.119   2.268   0.744
 1688TIP3   OH2 5069   4.474   0.080   1.536
 1688TIP3    H1 5070   4.514   0.048   1.455
 1688TIP3    H2 5071   4.415   0.010   1.564
 1689TIP3   OH2 5072   0.768   0.233   2.609
 1689TIP3    H1 5073   0.761   0.257   2.516
 1689TIP3    H2 5074   0.837   0.289   2.643
 1690TIP3   OH2 5075   6.407   2.115   0.314
 1690TIP3    H1 5076   6.398   2.208   0.297
 1690TIP3    H2 5077   6.339   2.074   0.261
 1691TIP3   OH2 5078   4.021   5.757   0.564
 1691TIP3    H1 5079   4.111   5.723   0.569
 1691TIP3    H2 5080   3.982   5.732   0.647
 1692TIP3   OH2 5081   2.107   5.398   0.104
 1692TIP3    H1 5082   2.048   5.465   0.069
 1692TIP3    H2 5083   2.088   5.397   0.198
 1693TIP3   OH2 5084   3.096   4.078   1.511
 1693TIP3    H1 5085   3.106   3.987   1.540
 1693TIP3    H2 5086   3.026   4.113   1.566
 1694TIP3   OH2 5087   4.950   4.465   3.344
 1694TIP3    H1 5088   5.014   4.417   3.292
 1694TIP3    H2 5089   4.901   4.397   3.390
 1695TIP3   OH2 5090   4.594   0.421   2.620
 1695TIP3    H1 5091   4.574   0.514   2.628
 1695TIP3    H2 5092   4.617   0.409   2.528
 1696TIP3   OH2 5093   4.377   2.862   2.968
 1696TIP3    H1 5094   4.431   2.914   3.026
 1696TIP3    H2 5095   4.366   2.916   2.889
 1697TIP3   OH2 5096   1.049   5.946   2.495
 1697TIP3    H1 5097   1.051   5.851   2.502
 1697TIP3    H2 5098   0.967   5.972   2.537
 1698TIP3   OH2 5099   4.219   1.346   3.745
 1698TIP3    H1 5100   4.259   1.269   3.785
 1698TIP3    H2 5101   4.156   1.311   3.681
 1699TIP3   OH2 5102   0.678   5.693   2.002
 1699TIP3    H1 5103   0.593   5.670   2.040
 1699TIP3    H2 5104   0.707   5.769   2.052
 1700TIP3   OH2 5105   1.495   5.563   5.167
 1700TIP3    H1 5106   1.585   5.540   5.147
 1700TIP3    H2 5107   1.474   5.632   5.104
 1701TIP3   OH2 5108   1.888   3.698   2.876
 1701TIP3    H1 5109   1.973   3.712   2.835
 1701TIP3    H2 5110   1.849   3.785   2.881
 1702TIP3   OH2 5111   4.909   5.101   2.414
 1702TIP3    H1 5112   4.925   5.030   2.351
 1702TIP3    H2 5113   4.898   5.057   2.498
 1703TIP3   OH2 5114   4.594   1.774   4.506
 1703TIP3    H1 5115   4.552   1.843   4.557
 1703TIP3    H2 5116   4.638   1.820   4.435
 1704TIP3   OH2 5117   0.076   5.208   4.082
 1704TIP3    H1 5118   0.018   5.187   4.009
 1704TIP3    H2 5119   0.138   5.135   4.085
 1705TIP3   OH2 5120   0.603   4.336   0.705
 1705TIP3    H1 5121   0.657   4.415   0.716
 1705TIP3    H2 5122   0.533   4.363   0.645
 1706TIP3   OH2 5123   5.077   4.603   3.546
 1706TIP3    H1 5124   5.043   4.568   3.463
 1706TIP3    H2 5125   5.167   4.628   3.525
 1707TIP3   OH2 5126   0.599   4.135   1.083
 1707TIP3    H1 5127   0.547   4.190   1.141
 1707TIP3    H2 5128   0.653   4.082   1.141
 1708TIP3   OH2 5129   5.910   1.273   2.631
 1708TIP3    H1 5130   5.853   1.296   2.557
 1708TIP3    H2 5131   5.999   1.278   2.596
 1709TIP3   OH2 5132   6.303   4.499   0.688
 1709TIP3    H1 5133   6.302   4.568   0.754
 1709TIP3    H2 5134   6.384   4.451   0.703
 1710TIP3   OH2 5135   1.174   1.632   2.470
 1710TIP3    H1 5136   1.085   1.601   2.483
 1710TIP3    H2 5137   1.211   1.639   2.558
 1711TIP3   OH2 5138   3.634   3.660   0.364
 1711TIP3    H1 5139   3.672   3.746   0.348
 1711TIP3    H2 5140   3.544   3.677   0.391
 1712TIP3   OH2 5141   5.344   0.419   0.450
 1712TIP3    H1 5142   5.373   0.449   0.364
 1712TIP3    H2 5143   5.255   0.387   0.435
 1713TIP3   OH2 5144   3.604   5.514   4.635
 1713TIP3    H1 5145   3.685   5.536   4.589
 1713TIP3    H2 5146   3.546   5.588   4.617
 1714TIP3   OH2 5147   0.357   0.317   2.340
 1714TIP3    H1 5148   0.360   0.406   2.373
 1714TIP3    H2 5149   0.442   0.280   2.363
 1715TIP3   OH2 5150   1.383   5.423   4.126
 1715TIP3    H1 5151   1.448   5.476   4.172
 1715TIP3    H2 5152   1.375   5.344   4.179
 1716TIP3   OH2 5153   1.258   1.009   0.012
 1716TIP3    H1 5154   1.198   0.977   0.080
 1716TIP3    H2 5155   1.345   0.987   0.045
 1717TIP3   OH2 5156   2.710   0.306   1.121
 1717TIP3    H1 5157   2.673   0.331   1.037
 1717TIP3    H2 5158   2.635   0.295   1.179
 1718TIP3   OH2 5159   1.286   5.982   0.434
 1718TIP3    H1 5160   1.257   5.920   0.500
 1718TIP3    H2 5161   1.382   5.975   0.436
 1719TIP3   OH2 5162   3.831   2.402   2.465
 1719TIP3    H1 5163   3.816   2.413   2.558
 1719TIP3    H2 5164   3.908   2.346   2.459
 1720TIP3   OH2 5165   3.620   5.424   2.041
 1720TIP3    H1 5166   3.537   5.442   1.998
 1720TIP3    H2 5167   3.659   5.510   2.057
 1721TIP3   OH2 5168   2.361   0.643   1.049
 1721TIP3    H1 5169   2.390   0.681   0.966
 1721TIP3    H2 5170   2.266   0.637   1.040
 1722TIP3   OH2 5171   0.931   4.367   4.746
 1722TIP3    H1 5172   0.984   4.311   4.690
 1722TIP3    H2 5173   0.873   4.306   4.792
 1723TIP3   OH2 5174   5.477   4.182   4.151
 1723TIP3    H1 5175   5.423   4.154   4.078
 1723TIP3    H2 5176   5.553   4.124   4.149
 1724TIP3   OH2 5177   2.212   1.532   0.306
 1724TIP3    H1 5178   2.120   1.505   0.304
 1724TIP3    H2 5179   2.256   1.463   0.357
 1725TIP3   OH2 5180   1.349   2.148   3.643
 1725TIP3    H1 5181   1.384   2.156   3.731
 1725TIP3    H2 5182   1.303   2.064   3.643
 1726TIP3   OH2 5183   3.670   1.019   0.512
 1726TIP3    H1 5184   3.728   0.949   0.543
 1726TIP3    H2 5185   3.674   1.086   0.581
 1727TIP3   OH2 5186   2.892   1.210   0.518
 1727TIP3    H1 5187   2.958   1.280   0.513
 1727TIP3    H2 5188   2.895   1.169   0.432
 1728TIP3   OH2 5189   3.051   0.028   0.340
 1728TIP3    H1 5190   3.024   0.021   0.249
 1728TIP3    H2 5191   3.052  -0.062   0.372
 1729TIP3   OH2 5192   5.964   1.044   1.571
 1729TIP3    H1 5193   6.053   1.018   1.546
 1729TIP3    H2 5194   5.977   1.105   1.644
 1730TIP3   OH2 5195   1.081   1.408   5.098
 1730TIP3    H1 5196   1.170   1.417   5.064
 1730TIP3    H2 5197   1.047   1.498   5.101
 1731TIP3   OH2 5198   0.825   0.525   3.615
 1731TIP3    H1 5199   0.817   0.452   3.553
 1731TIP3    H2 5200   0.760   0.508   3.682
 1732TIP3   OH2 5201   0.279   3.425   0.236
 1732TIP3    H1 5202   0.220   3.443   0.163
 1732TIP3    H2 5203   0.301   3.332   0.227
 1733TIP3   OH2 5204   6.131   5.132   2.142
 1733TIP3    H1 5205   6.036   5.136   2.142
 1733TIP3    H2 5206   6.158   5.182   2.065
 1734TIP3   OH2 5207   1.059   2.808   1.835
 1734TIP3    H1 5208   1.134   2.861   1.862
 1734TIP3    H2 5209   0.983   2.865   1.849
 1735TIP3   OH2 5210   0.809   4.917   3.967
 1735TIP3    H1 5211   0.835   4.825   3.956
 1735TIP3    H2 5212   0.713   4.914   3.975
 1736TIP3   OH2 5213   6.287   2.482   1.227
 1736TIP3    H1 5214   6.267   2.428   1.303
 1736TIP3    H2 5215   6.380   2.467   1.211
 1737TIP3   OH2 5216   3.316   0.041   3.101
 1737TIP3    H1 5217   3.258   0.097   3.152
 1737TIP3    H2 5218   3.396   0.092   3.090
 1738TIP3   OH2 5219   0.622   4.869   1.591
 1738TIP3    H1 5220   0.647   4.780   1.565
 1738TIP3    H2 5221   0.531   4.877   1.563
 1739TIP3   OH2 5222   0.675   1.933   4.388
 1739TIP3    H1 5223   0.583   1.907   4.389
 1739TIP3    H2 5224   0.676   2.017   4.342
 1740TIP3   OH2 5225   3.842   3.201   1.752
 1740TIP3    H1 5226   3.759   3.249   1.756
 1740TIP3    H2 5227   3.847   3.155   1.836
 1741TIP3   OH2 5228   3.366   5.062   4.287
 1741TIP3    H1 5229   3.406   5.143   4.318
 1741TIP3    H2 5230   3.439   5.001   4.279
 1742TIP3   OH2 5231   1.354   0.317   5.002
 1742TIP3    H1 5232   1.376   0.395   5.054
 1742TIP3    H2 5233   1.318   0.352   4.920
 1743TIP3   OH2 5234   1.027   5.653   4.805
 1743TIP3    H1 5235   1.037   5.607   4.888
 1743TIP3    H2 5236   0.975   5.594   4.751
 1744TIP3   OH2 5237   4.758   5.380   2.732
 1744TIP3    H1 5238   4.790   5.295   2.762
 1744TIP3    H2 5239   4.725   5.365   2.644
 1745TIP3   OH2 5240   0.176   0.113   5.060
 1745TIP3    H1 5241   0.251   0.118   5.119
 1745TIP3    H2 5242   0.204   0.054   4.990
 1746TIP3   OH2 5243   2.007   0.243   3.890
 1746TIP3    H1 5244   1.970   0.197   3.966
 1746TIP3    H2 5245   2.101   0.226   3.896
 1747TIP3   OH2 5246   0.460   3.890   3.490
 1747TIP3    H1 5247   0.439   3.983   3.501
 1747TIP3    H2 5248   0.415   3.846   3.562
 1748TIP3   OH2 5249   5.673   5.696   3.857
 1748TIP3    H1 5250   5.596   5.650   3.823
 1748TIP3    H2 5251   5.640   5.782   3.884
 1749TIP3   OH2 5252   1.675   4.576   2.826
 1749TIP3    H1 5253   1.735   4.601   2.755
 1749TIP3    H2 5254   1.728   4.582   2.905
 1750TIP3   OH2 5255   0.320   3.225   1.038
 1750TIP3    H1 5256   0.308   3.146   0.985
 1750TIP3    H2 5257   0.339   3.193   1.126
 1751TIP3   OH2 5258   6.245   1.066   1.612
 1751TIP3    H1 5259   6.312   1.078   1.679
 1751TIP3    H2 5260   6.288   1.017   1.543
 1752TIP3   OH2 5261   6.005   5.976   3.064
 1752TIP3    H1 5262   6.077   5.954   3.005
 1752TIP3    H2 5263   5.926   5.961   3.013
 1753TIP3   OH2 5264   4.006   3.977   1.159
 1753TIP3    H1 5265   3.911   3.961   1.155
 1753TIP3    H2 5266   4.014   4.071   1.175
 1754TIP3   OH2 5267   5.752   5.537   3.561
 1754TIP3    H1 5268   5.677   5.536   3.620
 1754TIP3    H2 5269   5.733   5.466   3.499
 1755TIP3   OH2 5270   0.340   3.718   4.223
 1755TIP3    H1 5271   0.420   3.731   4.172
 1755TIP3    H2 5272   0.363   3.650   4.286
 1756TIP3   OH2 5273   3.254   0.283   3.294
 1756TIP3    H1 5274   3.343   0.269   3.327
 1756TIP3    H2 5275   3.200   0.287   3.373
 1757TIP3   OH2 5276   4.808   1.204   1.972
 1757TIP3    H1 5277   4.879   1.175   2.028
 1757TIP3    H2 5278   4.735   1.145   1.993
 1758TIP3   OH2 5279   4.746   4.381   3.805
 1758TIP3    H1 5280   4.663   4.428   3.792
 1758TIP3    H2 5281   4.720   4.297   3.843
 1759TIP3   OH2 5282   4.712   4.973   4.178
 1759TIP3    H1 5283   4.623   4.988   4.209
 1759TIP3    H2 5284   4.768   5.018   4.242
 1760TIP3   OH2 5285   0.903   5.458   4.674
 1760TIP3    H1 5286   0.959   5.380   4.670
 1760TIP3    H2 5287   0.856   5.458   4.591
 1761TIP3   OH2 5288   4.453   0.776   1.835
 1761TIP3    H1 5289   4.548   0.791   1.834
 1761TIP3    H2 5290   4.439   0.718   1.910
 1762TIP3   OH2 5291   2.205   5.570   2.281
 1762TIP3    H1 5292   2.249   5.652   2.261
 1762TIP3    H2 5293   2.145   5.556   2.207
 1763TIP3   OH2 5294   3.053   0.127   4.906
 1763TIP3    H1 5295   2.980   0.066   4.896
 1763TIP3    H2 5296   3.012   0.208   4.937
 1764TIP3   OH2 5297   4.845   2.631   2.211
 1764TIP3    H1 5298   4.929   2.615   2.254
 1764TIP3    H2 5299   4.859   2.601   2.121
 1765TIP3   OH2 5300   4.357   3.629   1.606
 1765TIP3    H1 5301   4.318   3.621   1.518
 1765TIP3    H2 5302   4.289   3.597   1.665
 1766TIP3   OH2 5303   3.594   2.570   0.586
 1766TIP3    H1 5304   3.532   2.501   0.610
 1766TIP3    H2 5305   3.565   2.599   0.500
 1767TIP3   OH2 5306   1.515   2.172   3.866
 1767TIP3    H1 5307   1.602   2.133   3.868
 1767TIP3    H2 5308   1.500   2.202   3.955
 1768TIP3   OH2 5309   4.468   4.197   4.707
 1768TIP3    H1 5310   4.377   4.222   4.691
 1768TIP3    H2 5311   4.511   4.212   4.623
 1769TIP3   OH2 5312   0.821   3.487   2.873
 1769TIP3    H1 5313   0.822   3.547   2.948
 1769TIP3    H2 5314   0.775   3.409   2.905
 1770TIP3   OH2 5315   2.163   1.271   3.020
 1770TIP3    H1 5316   2.171   1.367   3.019
 1770TIP3    H2 5317   2.095   1.254   3.085
 1771TIP3   OH2 5318   0.329   2.009   0.772
 1771TIP3    H1 5319   0.288   1.927   0.745
 1771TIP3    H2 5320   0.264   2.050   0.830
 1772TIP3   OH2 5321   5.681   1.836   3.858
 1772TIP3    H1 5322   5.683   1.764   3.795
 1772TIP3    H2 5323   5.705   1.913   3.808
 1773TIP3   OH2 5324   2.785   4.810   3.264
 1773TIP3    H1 5325   2.752   4.729   3.226
 1773TIP3    H2 5326   2.813   4.862   3.189
 1774TIP3   OH2 5327   4.868   1.698   2.465
 1774TIP3    H1 5328   4.842   1.730   2.379
 1774TIP3    H2 5329   4.793   1.719   2.521
 1775TIP3   OH2 5330   0.870   5.893   4.130
 1775TIP3    H1 5331   0.793   5.882   4.186
 1775TIP3    H2 5332   0.899   5.983   4.146
 1776TIP3   OH2 5333   4.081   4.260   0.067
 1776TIP3    H1 5334   4.155   4.305   0.108
 1776TIP3    H2 5335   4.014   4.256   0.135
 1777TIP3   OH2 5336   5.271   2.292   4.043
 1777TIP3    H1 5337   5.243   2.334   3.961
 1777TIP3    H2 5338   5.305   2.364   4.096
 1778TIP3   OH2 5339   5.240   0.910   1.469
 1778TIP3    H1 5340   5.246   0.829   1.520
 1778TIP3    H2 5341   5.329   0.945   1.468
 1779TIP3   OH2 5342   2.773   2.021   1.731
 1779TIP3    H1 5343   2.763   1.964   1.808
 1779TIP3    H2 5344   2.849   1.985   1.684
 1780TIP3   OH2 5345   3.354   1.046   0.589
 1780TIP3    H1 5346   3.363   0.969   0.533
 1780TIP3    H2 5347   3.388   1.118   0.537
 1781TIP3   OH2 5348   2.739   3.453   1.696
 1781TIP3    H1 5349   2.782   3.504   1.765
 1781TIP3    H2 5350   2.811   3.426   1.639
 1782TIP3   OH2 5351   4.326   2.617   2.848
 1782TIP3    H1 5352   4.413   2.582   2.870
 1782TIP3    H2 5353   4.327   2.706   2.884
 1783TIP3   OH2 5354   2.965   0.510   0.336
 1783TIP3    H1 5355   2.912   0.578   0.378
 1783TIP3    H2 5356   3.055   0.542   0.342
 1784TIP3   OH2 5357   0.127   3.878   1.855
 1784TIP3    H1 5358   0.116   3.784   1.848
 1784TIP3    H2 5359   0.080   3.902   1.935
 1785TIP3   OH2 5360   5.467   0.729   1.637
 1785TIP3    H1 5361   5.375   0.725   1.662
 1785TIP3    H2 5362   5.511   0.666   1.694
 1786TIP3   OH2 5363   3.449   3.655   0.600
 1786TIP3    H1 5364   3.461   3.735   0.652
 1786TIP3    H2 5365   3.408   3.593   0.661
 1787TIP3   OH2 5366   3.101   4.690   1.354
 1787TIP3    H1 5367   3.149   4.757   1.402
 1787TIP3    H2 5368   3.016   4.685   1.398
 1788TIP3   OH2 5369   5.661   3.968   4.257
 1788TIP3    H1 5370   5.744   3.921   4.247
 1788TIP3    H2 5371   5.632   3.984   4.167
 1789TIP3   OH2 5372   5.330   0.549   3.384
 1789TIP3    H1 5373   5.296   0.460   3.394
 1789TIP3    H2 5374   5.314   0.590   3.469
 1790TIP3   OH2 5375   1.104   4.350   1.379
 1790TIP3    H1 5376   1.151   4.385   1.455
 1790TIP3    H2 5377   1.123   4.256   1.381
 1791TIP3   OH2 5378   2.517   5.710   1.453
 1791TIP3    H1 5379   2.532   5.736   1.544
 1791TIP3    H2 5380   2.492   5.791   1.409
 1792TIP3   OH2 5381   2.619   0.794   4.470
 1792TIP3    H1 5382   2.589   0.882   4.490
 1792TIP3    H2 5383   2.693   0.779   4.529
 1793TIP3   OH2 5384   2.673   5.395   3.332
 1793TIP3    H1 5385   2.690   5.301   3.329
 1793TIP3    H2 5386   2.579   5.402   3.348
 1794TIP3   OH2 5387   3.604   4.398   1.131
 1794TIP3    H1 5388   3.643   4.385   1.217
 1794TIP3    H2 5389   3.592   4.309   1.097
 1795TIP3   OH2 5390   3.162   0.039   0.654
 1795TIP3    H1 5391   3.165   0.121   0.604
 1795TIP3    H2 5392   3.253   0.011   0.660
 1796TIP3   OH2 5393   2.995   3.750   3.802
 1796TIP3    H1 5394   2.974   3.830   3.850
 1796TIP3    H2 5395   2.910   3.706   3.790
 1797TIP3   OH2 5396   1.357   1.688   1.952
 1797TIP3    H1 5397   1.293   1.758   1.956
 1797TIP3    H2 5398   1.320   1.618   2.005
 1798TIP3   OH2 5399   2.423   1.627   4.806
 1798TIP3    H1 5400   2.463   1.644   4.721
 1798TIP3    H2 5401   2.331   1.609   4.786
 1799TIP3   OH2 5402   0.067   2.033   1.504
 1799TIP3    H1 5403   0.052   2.099   1.572
 1799TIP3    H2 5404   0.023   1.955   1.536
 1800TIP3   OH2 5405   2.868   2.597   0.824
 1800TIP3    H1 5406   2.842   2.556   0.906
 1800TIP3    H2 5407   2.789   2.643   0.795
 1801TIP3   OH2 5408   3.055   3.781   4.572
 1801TIP3    H1 5409   3.039   3.875   4.562
 1801TIP3    H2 5410   3.003   3.740   4.503
 1802TIP3   OH2 5411   5.588   5.865   2.382
 1802TIP3    H1 5412   5.498   5.841   2.406
 1802TIP3    H2 5413   5.589   5.961   2.389
 1803TIP3   OH2 5414   2.347   2.856   3.489
 1803TIP3    H1 5415   2.430   2.885   3.452
 1803TIP3    H2 5416   2.372   2.795   3.559
 1804TIP3   OH2 5417   4.351   1.277   4.394
 1804TIP3    H1 5418   4.383   1.366   4.403
 1804TIP3    H2 5419   4.430   1.223   4.386
 1805TIP3   OH2 5420   4.890   3.520   3.921
 1805TIP3    H1 5421   4.857   3.509   4.011
 1805TIP3    H2 5422   4.975   3.564   3.933
 1806TIP3   OH2 5423   5.720   2.267   4.190
 1806TIP3    H1 5424   5.697   2.349   4.146
 1806TIP3    H2 5425   5.794   2.232   4.139
 1807TIP3   OH2 5426   5.242   1.844   5.027
 1807TIP3    H1 5427   5.159   1.871   4.988
 1807TIP3    H2 5428   5.291   1.804   4.955
 1808TIP3   OH2 5429   3.659   0.341   0.492
 1808TIP3    H1 5430   3.578   0.322   0.445
 1808TIP3    H2 5431   3.665   0.436   0.493
 1809TIP3   OH2 5432   2.415   3.247   3.972
 1809TIP3    H1 5433   2.391   3.202   4.053
 1809TIP3    H2 5434   2.345   3.312   3.959
 1810TIP3   OH2 5435   3.714   4.730   4.740
 1810TIP3    H1 5436   3.669   4.814   4.752
 1810TIP3    H2 5437   3.677   4.695   4.659
 1811TIP3   OH2 5438   6.267   0.361   2.151
 1811TIP3    H1 5439   6.231   0.368   2.062
 1811TIP3    H2 5440   6.362   0.364   2.139
 1812TIP3   OH2 5441   5.059   3.564   3.492
 1812TIP3    H1 5442   5.150   3.568   3.520
 1812TIP3    H2 5443   5.046   3.644   3.441
 1813TIP3   OH2 5444   2.079   3.877   1.612
 1813TIP3    H1 5445   2.008   3.844   1.667
 1813TIP3    H2 5446   2.121   3.799   1.576
 1814TIP3   OH2 5447   2.922   3.970   0.281
 1814TIP3    H1 5448   2.960   4.010   0.203
 1814TIP3    H2 5449   2.913   4.042   0.343
 1815TIP3   OH2 5450   0.621   2.275   0.814
 1815TIP3    H1 5451   0.525   2.279   0.815
 1815TIP3    H2 5452   0.644   2.273   0.721
 1816TIP3   OH2 5453   0.038   1.601   2.505
 1816TIP3    H1 5454   0.099   1.673   2.488
 1816TIP3    H2 5455  -0.018   1.598   2.428
 1817TIP3   OH2 5456   2.972   2.669   4.194
 1817TIP3    H1 5457   2.988   2.638   4.283
 1817TIP3    H2 5458   2.882   2.701   4.195
 1818TIP3   OH2 5459   5.689   0.138   3.080
 1818TIP3    H1 5460   5.604   0.166   3.114
 1818TIP3    H2 5461   5.743   0.125   3.158
 1819TIP3   OH2 5462   0.914   2.144   1.757
 1819TIP3    H1 5463   0.856   2.074   1.787
 1819TIP3    H2 5464   0.987   2.097   1.716
 1820TIP3   OH2 5465   4.113   2.289   2.366
 1820TIP3    H1 5466   4.075   2.209   2.401
 1820TIP3    H2 5467   4.150   2.264   2.281
 1821TIP3   OH2 5468   0.811   4.853   4.933
 1821TIP3    H1 5469   0.774   4.937   4.904
 1821TIP3    H2 5470   0.756   4.787   4.890
 1822TIP3   OH2 5471   1.000   4.208   2.591
 1822TIP3    H1 5472   1.071   4.152   2.624
 1822TIP3    H2 5473   0.938   4.214   2.664
 1823TIP3   OH2 5474   3.266   2.284   3.052
 1823TIP3    H1 5475   3.215   2.275   3.133
 1823TIP3    H2 5476   3.269   2.378   3.036
 1824TIP3   OH2 5477   0.248   2.026   0.157
 1824TIP3    H1 5478   0.201   1.976   0.090
 1824TIP3    H2 5479   0.182   2.042   0.225
 1825TIP3   OH2 5480   5.040   0.633   0.112
 1825TIP3    H1 5481   5.004   0.709   0.159
 1825TIP3    H2 5482   5.131   0.657   0.094
 1826TIP3   OH2 5483   1.676   0.450   4.085
 1826TIP3    H1 5484   1.709   0.485   4.168
 1826TIP3    H2 5485   1.708   0.360   4.082
 1827TIP3   OH2 5486   5.525   2.228   0.715
 1827TIP3    H1 5487   5.541   2.175   0.636
 1827TIP3    H2 5488   5.460   2.177   0.764
 1828TIP3   OH2 5489   6.038   2.880   4.086
 1828TIP3    H1 5490   6.100   2.807   4.086
 1828TIP3    H2 5491   5.961   2.847   4.040
 1829TIP3   OH2 5492   5.124   0.061   2.479
 1829TIP3    H1 5493   5.163   0.002   2.543
 1829TIP3    H2 5494   5.086   0.132   2.531
 1830TIP3   OH2 5495   3.410   5.756   3.642
 1830TIP3    H1 5496   3.382   5.828   3.698
 1830TIP3    H2 5497   3.442   5.798   3.563
 1831TIP3   OH2 5498   3.704   5.820   4.701
 1831TIP3    H1 5499   3.685   5.857   4.788
 1831TIP3    H2 5500   3.650   5.871   4.641
 1832TIP3   OH2 5501   1.622   1.947   4.550
 1832TIP3    H1 5502   1.695   1.934   4.490
 1832TIP3    H2 5503   1.638   2.032   4.590
 1833TIP3   OH2 5504   2.824   0.002   1.772
 1833TIP3    H1 5505   2.765  -0.044   1.831
 1833TIP3    H2 5506   2.779   0.085   1.752
 1834TIP3   OH2 5507   0.027   5.145   4.344
 1834TIP3    H1 5508  -0.010   5.164   4.258
 1834TIP3    H2 5509   0.118   5.172   4.337
 1835TIP3   OH2 5510   1.953   4.975   0.239
 1835TIP3    H1 5511   1.932   5.013   0.324
 1835TIP3    H2 5512   1.936   5.045   0.177
 1836TIP3   OH2 5513   0.707   4.654   4.222
 1836TIP3    H1 5514   0.686   4.589   4.290
 1836TIP3    H2 5515   0.793   4.627   4.190
 1837TIP3   OH2 5516   3.832   2.692   3.242
 1837TIP3    H1 5517   3.763   2.729   3.186
 1837TIP3    H2 5518   3.857   2.611   3.198
 1838TIP3   OH2 5519   3.474   4.100   0.994
 1838TIP3    H1 5520   3.450   4.008   0.993
 1838TIP3    H2 5521   3.395   4.146   1.022
 1839TIP3   OH2 5522   5.865   2.442   5.108
 1839TIP3    H1 5523   5.889   2.534   5.105
 1839TIP3    H2 5524   5.946   2.396   5.082
 1840TIP3   OH2 5525   5.094   1.687   0.706
 1840TIP3    H1 5526   5.187   1.687   0.726
 1840TIP3    H2 5527   5.064   1.774   0.733
 1841TIP3   OH2 5528   0.351   2.877   2.341
 1841TIP3    H1 5529   0.274   2.846   2.293
 1841TIP3    H2 5530   0.377   2.957   2.295
 1842TIP3   OH2 5531   2.414   5.165   0.968
 1842TIP3    H1 5532   2.392   5.219   0.892
 1842TIP3    H2 5533   2.363   5.204   1.040
 1843TIP3   OH2 5534   5.921   5.244   1.743
 1843TIP3    H1 5535   5.924   5.283   1.655
 1843TIP3    H2 5536   5.957   5.312   1.800
 1844TIP3   OH2 5537   2.182   2.125   2.134
 1844TIP3    H1 5538   2.144   2.056   2.189
 1844TIP3    H2 5539   2.166   2.096   2.045
 1845TIP3   OH2 5540   5.423   3.982   2.854
 1845TIP3    H1 5541   5.423   3.997   2.759
 1845TIP3    H2 5542   5.345   3.928   2.869
 1846TIP3   OH2 5543   1.804   5.892   4.392
 1846TIP3    H1 5544   1.846   5.938   4.465
 1846TIP3    H2 5545   1.729   5.947   4.369
 1847TIP3   OH2 5546   0.536   5.812   0.776
 1847TIP3    H1 5547   0.612   5.870   0.767
 1847TIP3    H2 5548   0.470   5.865   0.819
 1848TIP3   OH2 5549   1.653   0.490   2.912
 1848TIP3    H1 5550   1.733   0.512   2.960
 1848TIP3    H2 5551   1.673   0.408   2.867
 1849TIP3   OH2 5552   2.387   0.640   4.876
 1849TIP3    H1 5553   2.428   0.566   4.831
 1849TIP3    H2 5554   2.314   0.600   4.925
 1850TIP3   OH2 5555   1.234   4.770   2.856
 1850TIP3    H1 5556   1.214   4.722   2.936
 1850TIP3    H2 5557   1.150   4.774   2.809
 1851TIP3   OH2 5558   3.269   5.584   0.443
 1851TIP3    H1 5559   3.234   5.495   0.447
 1851TIP3    H2 5560   3.333   5.587   0.514
 1852TIP3   OH2 5561   1.912   5.194   4.563
 1852TIP3    H1 5562   1.978   5.160   4.624
 1852TIP3    H2 5563   1.832   5.201   4.615
 1853TIP3   OH2 5564   0.184   0.944   3.042
 1853TIP3    H1 5565   0.210   0.861   3.082
 1853TIP3    H2 5566   0.198   0.930   2.948
 1854TIP3   OH2 5567   4.635   3.689   5.199
 1854TIP3    H1 5568   4.719   3.675   5.155
 1854TIP3    H2 5569   4.575   3.714   5.128
 1855TIP3   OH2 5570   2.652   0.037   4.096
 1855TIP3    H1 5571   2.671   0.130   4.101
 1855TIP3    H2 5572   2.689   0.000   4.177
 1856TIP3   OH2 5573   1.104   3.093   4.973
 1856TIP3    H1 5574   1.022   3.126   5.010
 1856TIP3    H2 5575   1.115   3.141   4.891
 1857TIP3   OH2 5576   1.888   4.973   1.244
 1857TIP3    H1 5577   1.807   4.925   1.229
 1857TIP3    H2 5578   1.866   5.064   1.230
 1858TIP3   OH2 5579   3.893   3.537   1.680
 1858TIP3    H1 5580   3.823   3.568   1.736
 1858TIP3    H2 5581   3.894   3.598   1.606
 1859TIP3   OH2 5582   5.470   4.094   3.137
 1859TIP3    H1 5583   5.564   4.078   3.146
 1859TIP3    H2 5584   5.442   4.035   3.068
 1860TIP3   OH2 5585   5.641   0.838   3.747
 1860TIP3    H1 5586   5.598   0.760   3.712
 1860TIP3    H2 5587   5.615   0.840   3.839
 1861TIP3   OH2 5588   2.651   2.729   2.446
 1861TIP3    H1 5589   2.627   2.781   2.369
 1861TIP3    H2 5590   2.723   2.778   2.486
 1862TIP3   OH2 5591   1.988   1.646   3.776
 1862TIP3    H1 5592   2.015   1.634   3.867
 1862TIP3    H2 5593   2.014   1.565   3.733
 1863TIP3   OH2 5594   1.067   0.647   0.423
 1863TIP3    H1 5595   1.143   0.679   0.374
 1863TIP3    H2 5596   1.065   0.553   0.404
 1864TIP3   OH2 5597   0.328   3.710   2.278
 1864TIP3    H1 5598   0.334   3.771   2.352
 1864TIP3    H2 5599   0.239   3.724   2.244
 1865TIP3   OH2 5600   3.927   0.295   4.329
 1865TIP3    H1 5601   3.902   0.345   4.251
 1865TIP3    H2 5602   3.872   0.217   4.326
 1866TIP3   OH2 5603   1.813   4.423   1.090
 1866TIP3    H1 5604   1.808   4.391   1.180
 1866TIP3    H2 5605   1.890   4.481   1.089
 1867TIP3   OH2 5606   1.005   2.968   2.812
 1867TIP3    H1 5607   0.959   3.029   2.754
 1867TIP3    H2 5608   0.937   2.909   2.843
 1868TIP3   OH2 5609   5.725   3.610   0.290
 1868TIP3    H1 5610   5.682   3.530   0.260
 1868TIP3    H2 5611   5.674   3.639   0.366
 1869TIP3   OH2 5612   0.836   0.184   2.000
 1869TIP3    H1 5613   0.814   0.223   1.915
 1869TIP3    H2 5614   0.769   0.217   2.060
 1870TIP3   OH2 5615   5.381   1.689   3.997
 1870TIP3    H1 5616   5.456   1.636   4.024
 1870TIP3    H2 5617   5.417   1.776   3.982
 1871TIP3   OH2 5618   1.348   1.133   1.560
 1871TIP3    H1 5619   1.402   1.060   1.590
 1871TIP3    H2 5620   1.271   1.129   1.617
 1872TIP3   OH2 5621   3.398   4.955   0.126
 1872TIP3    H1 5622   3.395   4.894   0.052
 1872TIP3    H2 5623   3.446   5.031   0.093
 1873TIP3   OH2 5624   2.599   4.666   0.850
 1873TIP3    H1 5625   2.523   4.608   0.858
 1873TIP3    H2 5626   2.667   4.611   0.811
 1874TIP3   OH2 5627   1.984   1.855   1.437
 1874TIP3    H1 5628   2.026   1.772   1.462
 1874TIP3    H2 5629   2.041   1.890   1.369
 1875TIP3   OH2 5630   2.682   0.216   3.289
 1875TIP3    H1 5631   2.620   0.143   3.288
 1875TIP3    H2 5632   2.733   0.204   3.369
 1876TIP3   OH2 5633   5.292   0.331   0.815
 1876TIP3    H1 5634   5.333   0.299   0.735
 1876TIP3    H2 5635   5.202   0.351   0.790
 1877TIP3   OH2 5636   4.215   6.021   3.106
 1877TIP3    H1 5637   4.214   6.071   3.187
 1877TIP3    H2 5638   4.291   5.963   3.115
 1878TIP3   OH2 5639   2.125   2.589   0.343
 1878TIP3    H1 5640   2.051   2.648   0.341
 1878TIP3    H2 5641   2.194   2.637   0.388
 1879TIP3   OH2 5642   2.463   5.148   3.782
 1879TIP3    H1 5643   2.526   5.076   3.788
 1879TIP3    H2 5644   2.412   5.142   3.863
 1880TIP3   OH2 5645   5.370   2.664   3.045
 1880TIP3    H1 5646   5.316   2.722   3.099
 1880TIP3    H2 5647   5.457   2.705   3.048
 1881TIP3   OH2 5648   6.129   5.380   3.749
 1881TIP3    H1 5649   6.216   5.387   3.789
 1881TIP3    H2 5650   6.073   5.347   3.820
 1882TIP3   OH2 5651   4.809   5.920   3.390
 1882TIP3    H1 5652   4.770   5.950   3.308
 1882TIP3    H2 5653   4.783   5.985   3.454
 1883TIP3   OH2 5654   4.069   0.573   4.183
 1883TIP3    H1 5655   4.051   0.623   4.262
 1883TIP3    H2 5656   4.011   0.497   4.188
 1884TIP3   OH2 5657   1.188   2.279   1.735
 1884TIP3    H1 5658   1.208   2.236   1.651
 1884TIP3    H2 5659   1.102   2.319   1.721
 1885TIP3   OH2 5660   3.080   2.974   1.480
 1885TIP3    H1 5661   3.105   2.950   1.570
 1885TIP3    H2 5662   3.138   3.047   1.458
 1886TIP3   OH2 5663   0.746   4.759   4.530
 1886TIP3    H1 5664   0.729   4.705   4.453
 1886TIP3    H2 5665   0.677   4.826   4.529
 1887TIP3   OH2 5666   6.236   1.988   2.355
 1887TIP3    H1 5667   6.304   1.965   2.418
 1887TIP3    H2 5668   6.237   1.917   2.291
 1888TIP3   OH2 5669   0.800   5.325   4.220
 1888TIP3    H1 5670   0.809   5.364   4.133
 1888TIP3    H2 5671   0.711   5.290   4.222
 1889TIP3   OH2 5672   1.715   1.754   1.114
 1889TIP3    H1 5673   1.682   1.778   1.201
 1889TIP3    H2 5674   1.810   1.748   1.125
 1890TIP3   OH2 5675   2.110   5.490   4.276
 1890TIP3    H1 5676   2.048   5.421   4.300
 1890TIP3    H2 5677   2.166   5.500   4.353
 1891TIP3   OH2 5678   1.918   2.529   4.712
 1891TIP3    H1 5679   1.855   2.546   4.782
 1891TIP3    H2 5680   2.004   2.547   4.751
 1892TIP3   OH2 5681   0.092   1.947   4.917
 1892TIP3    H1 5682   0.089   1.863   4.872
 1892TIP3    H2 5683   0.013   1.948   4.971
 1893TIP3   OH2 5684   1.967   5.576   4.954
 1893TIP3    H1 5685   2.001   5.661   4.927
 1893TIP3    H2 5686   2.004   5.514   4.891
 1894TIP3   OH2 5687   3.800   5.944   3.674
 1894TIP3    H1 5688   3.871   6.007   3.661
 1894TIP3    H2 5689   3.799   5.892   3.594
 1895TIP3   OH2 5690   4.027   5.410   2.124
 1895TIP3    H1 5691   3.947   5.458   2.146
 1895TIP3    H2 5692   4.001   5.353   2.052
 1896TIP3   OH2 5693   4.596   4.988   2.209
 1896TIP3    H1 5694   4.508   4.953   2.190
 1896TIP3    H2 5695   4.623   4.942   2.288
 1897TIP3   OH2 5696   2.446   2.087   4.176
 1897TIP3    H1 5697   2.439   2.173   4.218
 1897TIP3    H2 5698   2.358   2.050   4.183
 1898TIP3   OH2 5699   4.414   5.112   1.693
 1898TIP3    H1 5700   4.496   5.156   1.670
 1898TIP3    H2 5701   4.348   5.154   1.639
 1899TIP3   OH2 5702   6.203   1.747   0.738
 1899TIP3    H1 5703   6.208   1.751   0.642
 1899TIP3    H2 5704   6.295   1.739   0.766
 1900TIP3   OH2 5705   3.592   1.534   3.796
 1900TIP3    H1 5706   3.680   1.533   3.757
 1900TIP3    H2 5707   3.533   1.522   3.722
 1901TIP3   OH2 5708   4.452   1.384   3.366
 1901TIP3    H1 5709   4.539   1.408   3.335
 1901TIP3    H2 5710   4.448   1.419   3.455
 1902TIP3   OH2 5711   0.050   5.647   2.446
 1902TIP3    H1 5712  -0.042   5.666   2.427
 1902TIP3    H2 5713   0.099   5.702   2.386
 1903TIP3   OH2 5714   0.332   3.495   1.096
 1903TIP3    H1 5715   0.298   3.494   1.185
 1903TIP3    H2 5716   0.345   3.402   1.075
 1904TIP3   OH2 5717   6.113   5.381   4.775
 1904TIP3    H1 5718   6.071   5.328   4.843
 1904TIP3    H2 5719   6.160   5.448   4.823
 1905TIP3   OH2 5720   4.326   2.401   4.190
 1905TIP3    H1 5721   4.271   2.450   4.128
 1905TIP3    H2 5722   4.263   2.360   4.249
 1906TIP3   OH2 5723   2.996   3.454   4.560
 1906TIP3    H1 5724   2.969   3.447   4.651
 1906TIP3    H2 5725   2.939   3.394   4.513
 1907TIP3   OH2 5726   2.218   1.090   3.483
 1907TIP3    H1 5727   2.140   1.144   3.499
 1907TIP3    H2 5728   2.291   1.146   3.510
 1908TIP3   OH2 5729   2.640   4.973   4.896
 1908TIP3    H1 5730   2.655   4.879   4.908
 1908TIP3    H2 5731   2.591   5.000   4.973
 1909TIP3   OH2 5732   5.820   5.093   4.144
 1909TIP3    H1 5733   5.825   5.027   4.212
 1909TIP3    H2 5734   5.730   5.086   4.110
 1910TIP3   OH2 5735   0.736   3.258   3.279
 1910TIP3    H1 5736   0.669   3.318   3.247
 1910TIP3    H2 5737   0.790   3.239   3.202
 1911TIP3   OH2 5738   5.808   1.083   4.355
 1911TIP3    H1 5739   5.817   1.000   4.308
 1911TIP3    H2 5740   5.718   1.084   4.386
 1912TIP3   OH2 5741   6.261   2.289   2.359
 1912TIP3    H1 5742   6.182   2.326   2.397
 1912TIP3    H2 5743   6.245   2.195   2.356
 1913TIP3   OH2 5744   4.372   4.146   2.778
 1913TIP3    H1 5745   4.448   4.137   2.721
 1913TIP3    H2 5746   4.367   4.240   2.797
 1914TIP3   OH2 5747   1.960   5.283   3.885
 1914TIP3    H1 5748   1.917   5.332   3.955
 1914TIP3    H2 5749   2.045   5.258   3.921
 1915TIP3   OH2 5750   0.677   2.878   0.769
 1915TIP3    H1 5751   0.755   2.927   0.741
 1915TIP3    H2 5752   0.618   2.881   0.694
 1916TIP3   OH2 5753   2.484   1.556   1.882
 1916TIP3    H1 5754   2.476   1.556   1.977
 1916TIP3    H2 5755   2.558   1.497   1.864
 1917TIP3   OH2 5756   5.498   0.508   4.771
 1917TIP3    H1 5757   5.590   0.489   4.784
 1917TIP3    H2 5758   5.477   0.574   4.837
 1918TIP3   OH2 5759   3.661   5.606   4.999
 1918TIP3    H1 5760   3.673   5.555   4.918
 1918TIP3    H2 5761   3.573   5.643   4.991
 1919TIP3   OH2 5762   4.346   2.433   2.156
 1919TIP3    H1 5763   4.262   2.397   2.127
 1919TIP3    H2 5764   4.323   2.517   2.197
 1920TIP3   OH2 5765   5.389   0.544   3.897
 1920TIP3    H1 5766   5.317   0.602   3.922
 1920TIP3    H2 5767   5.441   0.534   3.977
 1921TIP3   OH2 5768   0.271   2.322   1.433
 1921TIP3    H1 5769   0.209   2.284   1.371
 1921TIP3    H2 5770   0.217   2.375   1.492
 1922TIP3   OH2 5771   2.520   3.747   1.556
 1922TIP3    H1 5772   2.588   3.760   1.621
 1922TIP3    H2 5773   2.521   3.652   1.538
 1923TIP3   OH2 5774   0.093   2.734   1.310
 1923TIP3    H1 5775  -0.002   2.741   1.304
 1923TIP3    H2 5776   0.111   2.731   1.403
 1924TIP3   OH2 5777   4.330   2.959   1.707
 1924TIP3    H1 5778   4.242   2.996   1.707
 1924TIP3    H2 5779   4.316   2.864   1.698
 1925TIP3   OH2 5780   2.842   2.446   1.121
 1925TIP3    H1 5781   2.846   2.353   1.142
 1925TIP3    H2 5782   2.933   2.473   1.111
 1926TIP3   OH2 5783   3.698   1.601   1.346
 1926TIP3    H1 5784   3.658   1.516   1.363
 1926TIP3    H2 5785   3.759   1.613   1.419
 1927TIP3   OH2 5786   1.583   0.788   4.877
 1927TIP3    H1 5787   1.586   0.766   4.784
 1927TIP3    H2 5788   1.675   0.794   4.903
 1928TIP3   OH2 5789   1.224   5.332   3.382
 1928TIP3    H1 5790   1.197   5.256   3.434
 1928TIP3    H2 5791   1.320   5.329   3.382
 1929TIP3   OH2 5792   2.796   2.247   2.918
 1929TIP3    H1 5793   2.732   2.177   2.934
 1929TIP3    H2 5794   2.743   2.320   2.885
 1930TIP3   OH2 5795   5.798   5.511   0.011
 1930TIP3    H1 5796   5.816   5.535  -0.080
 1930TIP3    H2 5797   5.713   5.468   0.007
 1931TIP3   OH2 5798   1.814   4.745   4.244
 1931TIP3    H1 5799   1.725   4.721   4.217
 1931TIP3    H2 5800   1.858   4.770   4.164
 1932TIP3   OH2 5801   6.325   1.514   1.810
 1932TIP3    H1 5802   6.251   1.569   1.786
 1932TIP3    H2 5803   6.341   1.461   1.732
 1933TIP3   OH2 5804   5.437   4.746   4.429
 1933TIP3    H1 5805   5.400   4.811   4.489
 1933TIP3    H2 5806   5.488   4.688   4.486
 1934TIP3   OH2 5807   0.585   5.931   3.628
 1934TIP3    H1 5808   0.533   5.906   3.704
 1934TIP3    H2 5809   0.581   5.855   3.570
 1935TIP3   OH2 5810   0.037   1.698   4.821
 1935TIP3    H1 5811  -0.050   1.705   4.859
 1935TIP3    H2 5812   0.025   1.644   4.743
 1936TIP3   OH2 5813   4.160   3.574   1.786
 1936TIP3    H1 5814   4.069   3.552   1.766
 1936TIP3    H2 5815   4.195   3.496   1.829
 1937TIP3   OH2 5816   2.029   3.777   5.138
 1937TIP3    H1 5817   2.010   3.856   5.188
 1937TIP3    H2 5818   2.116   3.749   5.167
 1938TIP3   OH2 5819   2.491   3.654   4.851
 1938TIP3    H1 5820   2.423   3.604   4.806
 1938TIP3    H2 5821   2.497   3.736   4.802
 1939TIP3   OH2 5822   2.536   1.646   3.428
 1939TIP3    H1 5823   2.592   1.724   3.420
 1939TIP3    H2 5824   2.564   1.589   3.356
 1940TIP3   OH2 5825   0.301   3.144   3.816
 1940TIP3    H1 5826   0.350   3.074   3.858
 1940TIP3    H2 5827   0.367   3.195   3.770
 1941TIP3   OH2 5828   2.391   3.726   1.047
 1941TIP3    H1 5829   2.400   3.780   0.969
 1941TIP3    H2 5830   2.475   3.682   1.056
 1942TIP3   OH2 5831   0.946   2.542   5.082
 1942TIP3    H1 5832   0.863   2.586   5.102
 1942TIP3    H2 5833   0.933   2.504   4.995
 1943TIP3   OH2 5834   0.666   2.059   1.598
 1943TIP3    H1 5835   0.718   2.100   1.528
 1943TIP3    H2 5836   0.731   2.015   1.653
 1944TIP3   OH2 5837   4.290   0.657   4.558
 1944TIP3    H1 5838   4.251   0.581   4.514
 1944TIP3    H2 5839   4.219   0.690   4.613
 1945TIP3   OH2 5840   2.436   5.060   0.651
 1945TIP3    H1 5841   2.402   5.072   0.563
 1945TIP3    H2 5842   2.395   5.129   0.703
 1946TIP3   OH2 5843   5.966   3.453   0.292
 1946TIP3    H1 5844   6.042   3.511   0.280
 1946TIP3    H2 5845   5.892   3.504   0.259
 1947TIP3   OH2 5846   5.058   0.719   0.821
 1947TIP3    H1 5847   4.992   0.788   0.823
 1947TIP3    H2 5848   5.142   0.764   0.813
 1948TIP3   OH2 5849   5.904   1.160   0.516
 1948TIP3    H1 5850   5.824   1.156   0.463
 1948TIP3    H2 5851   5.914   1.252   0.538
 1949TIP3   OH2 5852   4.884   3.409   2.618
 1949TIP3    H1 5853   4.828   3.396   2.542
 1949TIP3    H2 5854   4.828   3.452   2.683
 1950TIP3   OH2 5855   6.022   1.125   2.950
 1950TIP3    H1 5856   5.998   1.184   3.021
 1950TIP3    H2 5857   6.092   1.170   2.903
 1951TIP3   OH2 5858   4.597   5.731   5.183
 1951TIP3    H1 5859   4.543   5.807   5.204
 1951TIP3    H2 5860   4.546   5.656   5.214
 1952TIP3   OH2 5861   4.217   1.678   1.204
 1952TIP3    H1 5862   4.123   1.688   1.196
 1952TIP3    H2 5863   4.239   1.603   1.149
 1953TIP3   OH2 5864   4.160   2.092   1.238
 1953TIP3    H1 5865   4.183   2.021   1.178
 1953TIP3    H2 5866   4.126   2.161   1.182
 1954TIP3   OH2 5867   5.036   5.084   1.168
 1954TIP3    H1 5868   5.019   4.994   1.194
 1954TIP3    H2 5869   5.131   5.095   1.179
 1955TIP3   OH2 5870   1.832   3.457   5.123
 1955TIP3    H1 5871   1.770   3.386   5.137
 1955TIP3    H2 5872   1.875   3.470   5.208
 1956TIP3   OH2 5873   1.559   2.324   1.017
 1956TIP3    H1 5874   1.619   2.253   1.040
 1956TIP3    H2 5875   1.544   2.313   0.923
 1957TIP3   OH2 5876   5.230   3.136   0.747
 1957TIP3    H1 5877   5.239   3.135   0.652
 1957TIP3    H2 5878   5.233   3.044   0.772
 1958TIP3   OH2 5879   0.007   0.875   1.452
 1958TIP3    H1 5880  -0.056   0.804   1.463
 1958TIP3    H2 5881   0.049   0.857   1.367
 1959TIP3   OH2 5882   0.937   2.332   3.509
 1959TIP3    H1 5883   0.979   2.295   3.587
 1959TIP3    H2 5884   0.864   2.383   3.544
 1960TIP3   OH2 5885   4.161   5.971   0.870
 1960TIP3    H1 5886   4.069   5.961   0.845
 1960TIP3    H2 5887   4.186   6.057   0.837
 1961TIP3   OH2 5888   2.820   4.856   3.572
 1961TIP3    H1 5889   2.871   4.775   3.566
 1961TIP3    H2 5890   2.768   4.857   3.491
 1962TIP3   OH2 5891   0.266   3.271   4.505
 1962TIP3    H1 5892   0.260   3.207   4.434
 1962TIP3    H2 5893   0.195   3.247   4.565
 1963TIP3   OH2 5894   2.325   3.955   0.517
 1963TIP3    H1 5895   2.262   3.994   0.578
 1963TIP3    H2 5896   2.282   3.960   0.432
 1964TIP3   OH2 5897   2.986   0.589   4.852
 1964TIP3    H1 5898   2.891   0.593   4.865
 1964TIP3    H2 5899   3.023   0.599   4.939
 1965TIP3   OH2 5900   0.395   0.408   1.511
 1965TIP3    H1 5901   0.423   0.354   1.437
 1965TIP3    H2 5902   0.300   0.402   1.510
 1966TIP3   OH2 5903   5.725   4.108   2.131
 1966TIP3    H1 5904   5.762   4.186   2.171
 1966TIP3    H2 5905   5.654   4.082   2.190
 1967TIP3   OH2 5906   5.442   1.328   3.380
 1967TIP3    H1 5907   5.415   1.415   3.413
 1967TIP3    H2 5908   5.536   1.325   3.396
 1968TIP3   OH2 5909   6.312   4.991   5.081
 1968TIP3    H1 5910   6.365   5.045   5.022
 1968TIP3    H2 5911   6.364   4.912   5.095
 1969TIP3   OH2 5912   5.117   2.633   2.879
 1969TIP3    H1 5913   5.060   2.574   2.927
 1969TIP3    H2 5914   5.191   2.649   2.938
 1970TIP3   OH2 5915   0.830   4.009   3.072
 1970TIP3    H1 5916   0.781   4.079   3.029
 1970TIP3    H2 5917   0.791   4.003   3.159
 1971TIP3   OH2 5918   4.812   2.274   3.369
 1971TIP3    H1 5919   4.900   2.312   3.373
 1971TIP3    H2 5920   4.766   2.312   3.443
 1972TIP3   OH2 5921   2.353   3.265   2.447
 1972TIP3    H1 5922   2.390   3.224   2.368
 1972TIP3    H2 5923   2.297   3.335   2.413
 1973TIP3   OH2 5924   4.707   5.009   1.413
 1973TIP3    H1 5925   4.621   5.046   1.435
 1973TIP3    H2 5926   4.736   4.966   1.494
 1974TIP3   OH2 5927   6.246   2.716   4.128
 1974TIP3    H1 5928   6.324   2.771   4.118
 1974TIP3    H2 5929   6.278   2.639   4.177
 1975TIP3   OH2 5930   5.058   4.025   2.099
 1975TIP3    H1 5931   4.973   4.003   2.061
 1975TIP3    H2 5932   5.094   4.092   2.040
 1976TIP3   OH2 5933   1.822   1.847   3.492
 1976TIP3    H1 5934   1.777   1.903   3.556
 1976TIP3    H2 5935   1.915   1.862   3.509
 1977TIP3   OH2 5936   6.077   1.067   3.621
 1977TIP3    H1 5937   6.123   0.985   3.604
 1977TIP3    H2 5938   6.050   1.061   3.713
 1978TIP3   OH2 5939   4.452   5.007   4.249
 1978TIP3    H1 5940   4.416   5.062   4.180
 1978TIP3    H2 5941   4.376   4.969   4.292
 1979TIP3   OH2 5942   5.924   2.718   5.099
 1979TIP3    H1 5943   5.941   2.812   5.089
 1979TIP3    H2 5944   5.871   2.711   5.178
 1980TIP3   OH2 5945   2.466   5.028   3.523
 1980TIP3    H1 5946   2.539   5.063   3.472
 1980TIP3    H2 5947   2.466   5.081   3.603
 1981TIP3   OH2 5948   4.275   4.217   1.533
 1981TIP3    H1 5949   4.259   4.194   1.442
 1981TIP3    H2 5950   4.237   4.145   1.583
 1982TIP3   OH2 5951   2.650   5.115   1.563
 1982TIP3    H1 5952   2.710   5.182   1.596
 1982TIP3    H2 5953   2.566   5.160   1.554
 1983TIP3   OH2 5954   5.838   4.888   2.505
 1983TIP3    H1 5955   5.821   4.981   2.518
 1983TIP3    H2 5956   5.793   4.845   2.577
 1984TIP3   OH2 5957   1.244   5.875   2.168
 1984TIP3    H1 5958   1.298   5.848   2.242
 1984TIP3    H2 5959   1.280   5.960   2.142
 1985TIP3   OH2 5960   4.895   2.881   0.242
 1985TIP3    H1 5961   4.978   2.927   0.246
 1985TIP3    H2 5962   4.917   2.789   0.258
 1986TIP3   OH2 5963   1.438   3.871   0.237
 1986TIP3    H1 5964   1.478   3.876   0.324
 1986TIP3    H2 5965   1.374   3.800   0.243
 1987TIP3   OH2 5966   1.059   1.220   3.538
 1987TIP3    H1 5967   1.085   1.133   3.568
 1987TIP3    H2 5968   0.986   1.204   3.478
 1988TIP3   OH2 5969   0.970   0.262   3.179
 1988TIP3    H1 5970   0.955   0.180   3.132
 1988TIP3    H2 5971   0.910   0.324   3.138
 1989TIP3   OH2 5972   4.676   1.085   1.149
 1989TIP3    H1 5973   4.764   1.052   1.129
 1989TIP3    H2 5974   4.692   1.171   1.187
 1990TIP3   OH2 5975   3.462   2.024   0.672
 1990TIP3    H1 5976   3.485   2.116   0.658
 1990TIP3    H2 5977   3.434   2.020   0.763
 1991TIP3   OH2 5978   3.737   1.393   4.126
 1991TIP3    H1 5979   3.657   1.445   4.127
 1991TIP3    H2 5980   3.764   1.394   4.034
 1992TIP3   OH2 5981   4.898   3.457   3.304
 1992TIP3    H1 5982   4.833   3.526   3.290
 1992TIP3    H2 5983   4.962   3.496   3.363
 1993TIP3   OH2 5984   4.808   5.858   1.270
 1993TIP3    H1 5985   4.827   5.853   1.364
 1993TIP3    H2 5986   4.775   5.771   1.248
 1994TIP3   OH2 5987   6.378   3.127   0.255
 1994TIP3    H1 5988   6.302   3.109   0.311
 1994TIP3    H2 5989   6.347   3.111   0.166
 1995TIP3   OH2 5990   1.821   3.039   1.881
 1995TIP3    H1 5991   1.858   3.117   1.922
 1995TIP3    H2 5992   1.799   3.066   1.792
 1996TIP3   OH2 5993   3.846   1.507   3.712
 1996TIP3    H1 5994   3.864   1.462   3.794
 1996TIP3    H2 5995   3.830   1.437   3.648
 1997TIP3   OH2 5996   6.334   1.449   2.062
 1997TIP3    H1 5997   6.318   1.489   1.976
 1997TIP3    H2 5998   6.306   1.358   2.051
 1998TIP3   OH2 5999   1.359   1.065   3.629
 1998TIP3    H1 6000   1.274   1.044   3.592
 1998TIP3    H2 6001   1.352   1.038   3.721
 1999TIP3   OH2 6002   6.279   2.405   1.971
 1999TIP3    H1 6003   6.185   2.395   1.954
 1999TIP3    H2 6004   6.311   2.457   1.897
 2000TIP3   OH2 6005   5.653   3.664   4.398
 2000TIP3    H1 6006   5.650   3.613   4.479
 2000TIP3    H2 6007   5.743   3.696   4.394
 2001TIP3   OH2 6008   2.629   2.107   0.201
 2001TIP3    H1 6009   2.601   2.016   0.207
 2001TIP3    H2 6010   2.592   2.149   0.278
 2002TIP3   OH2 6011   0.562   2.801   0.030
 2002TIP3    H1 6012   0.622   2.784   0.103
 2002TIP3    H2 6013   0.488   2.846   0.071
 2003TIP3   OH2 6014   4.645   1.239   3.587
 2003TIP3    H1 6015   4.653   1.238   3.683
 2003TIP3    H2 6016   4.680   1.324   3.561
 2004TIP3   OH2 6017   5.814   5.504   2.268
 2004TIP3    H1 6018   5.901   5.530   2.236
 2004TIP3    H2 6019   5.811   5.538   2.357
 2005TIP3   OH2 6020   4.574   1.119   4.523
 2005TIP3    H1 6021   4.635   1.078   4.584
 2005TIP3    H2 6022   4.512   1.049   4.500
 2006TIP3   OH2 6023   2.679   4.353   1.831
 2006TIP3    H1 6024   2.734   4.311   1.764
 2006TIP3    H2 6025   2.600   4.299   1.834
 2007TIP3   OH2 6026   5.464   1.050   1.478
 2007TIP3    H1 6027   5.479   1.126   1.421
 2007TIP3    H2 6028   5.547   1.003   1.477
 2008TIP3   OH2 6029   6.147   5.883   1.155
 2008TIP3    H1 6030   6.056   5.895   1.126
 2008TIP3    H2 6031   6.155   5.788   1.169
 2009TIP3   OH2 6032   5.562   0.387   5.116
 2009TIP3    H1 6033   5.546   0.319   5.050
 2009TIP3    H2 6034   5.657   0.394   5.121
 2010TIP3   OH2 6035   2.533   5.186   0.109
 2010TIP3    H1 6036   2.447   5.221   0.129
 2010TIP3    H2 6037   2.517   5.093   0.090
 2011TIP3   OH2 6038   2.368   4.304   3.845
 2011TIP3    H1 6039   2.369   4.393   3.878
 2011TIP3    H2 6040   2.343   4.313   3.753
 2012TIP3   OH2 6041   3.445   1.493   3.575
 2012TIP3    H1 6042   3.385   1.421   3.558
 2012TIP3    H2 6043   3.478   1.518   3.489
 2013TIP3   OH2 6044   1.272   4.402   1.592
 2013TIP3    H1 6045   1.334   4.455   1.642
 2013TIP3    H2 6046   1.205   4.376   1.657
 2014TIP3   OH2 6047   3.130   5.322   3.549
 2014TIP3    H1 6048   3.158   5.339   3.459
 2014TIP3    H2 6049   3.153   5.402   3.597
 2015TIP3   OH2 6050   2.356   3.170   2.197
 2015TIP3    H1 6051   2.298   3.139   2.127
 2015TIP3    H2 6052   2.424   3.103   2.202
 2016TIP3   OH2 6053   5.641   2.393   3.130
 2016TIP3    H1 6054   5.601   2.309   3.107
 2016TIP3    H2 6055   5.677   2.426   3.048
 2017TIP3   OH2 6056   2.120   1.144   0.494
 2017TIP3    H1 6057   2.077   1.149   0.408
 2017TIP3    H2 6058   2.097   1.227   0.537
 2018TIP3   OH2 6059   5.394   5.567   0.128
 2018TIP3    H1 6060   5.374   5.473   0.132
 2018TIP3    H2 6061   5.451   5.577   0.052
 2019TIP3   OH2 6062   6.336   3.547   4.401
 2019TIP3    H1 6063   6.336   3.453   4.380
 2019TIP3    H2 6064   6.375   3.552   4.488
 2020TIP3   OH2 6065   4.488   4.354   0.773
 2020TIP3    H1 6066   4.437   4.411   0.715
 2020TIP3    H2 6067   4.432   4.276   0.783
 2021TIP3   OH2 6068   0.665   4.865   1.888
 2021TIP3    H1 6069   0.706   4.792   1.934
 2021TIP3    H2 6070   0.666   4.838   1.796
 2022TIP3   OH2 6071   4.110   2.678   4.390
 2022TIP3    H1 6072   4.182   2.679   4.328
 2022TIP3    H2 6073   4.082   2.770   4.395
 2023TIP3   OH2 6074   3.138   5.634   4.586
 2023TIP3    H1 6075   3.043   5.624   4.582
 2023TIP3    H2 6076   3.159   5.630   4.680
 2024TIP3   OH2 6077   3.355   1.011   4.870
 2024TIP3    H1 6078   3.269   0.969   4.881
 2024TIP3    H2 6079   3.391   1.013   4.959
 2025TIP3   OH2 6080   0.534   1.405   2.878
 2025TIP3    H1 6081   0.474   1.339   2.845
 2025TIP3    H2 6082   0.621   1.370   2.861
 2026TIP3   OH2 6083   3.819   5.835   0.387
 2026TIP3    H1 6084   3.878   5.840   0.462
 2026TIP3    H2 6085   3.871   5.795   0.318
 2027TIP3   OH2 6086   3.580   4.902   4.352
 2027TIP3    H1 6087   3.618   4.816   4.332
 2027TIP3    H2 6088   3.651   4.951   4.393
 2028TIP3   OH2 6089   2.764   1.355   0.742
 2028TIP3    H1 6090   2.673   1.371   0.719
 2028TIP3    H2 6091   2.798   1.304   0.669
 2029TIP3   OH2 6092   4.732   4.962   0.506
 2029TIP3    H1 6093   4.754   4.897   0.573
 2029TIP3    H2 6094   4.638   4.950   0.490
 2030TIP3   OH2 6095   0.501   1.924   0.187
 2030TIP3    H1 6096   0.426   1.980   0.166
 2030TIP3    H2 6097   0.481   1.841   0.144
 2031TIP3   OH2 6098   0.753   2.884   1.538
 2031TIP3    H1 6099   0.775   2.791   1.536
 2031TIP3    H2 6100   0.819   2.925   1.481
 2032TIP3   OH2 6101   3.260   0.741   1.685
 2032TIP3    H1 6102   3.277   0.658   1.729
 2032TIP3    H2 6103   3.341   0.761   1.638
 2033TIP3   OH2 6104   2.716   1.835   3.356
 2033TIP3    H1 6105   2.733   1.897   3.285
 2033TIP3    H2 6106   2.741   1.883   3.435
 2034TIP3   OH2 6107   5.294   2.845   2.097
 2034TIP3    H1 6108   5.271   2.797   2.176
 2034TIP3    H2 6109   5.375   2.805   2.067
 2035TIP3   OH2 6110   4.136   4.568   4.990
 2035TIP3    H1 6111   4.211   4.528   4.946
 2035TIP3    H2 6112   4.069   4.575   4.921
 2036TIP3   OH2 6113   0.236   0.282   4.760
 2036TIP3    H1 6114   0.153   0.329   4.759
 2036TIP3    H2 6115   0.212   0.190   4.761
 2037TIP3   OH2 6116   1.490   2.708   2.067
 2037TIP3    H1 6117   1.560   2.755   2.020
 2037TIP3    H2 6118   1.487   2.749   2.153
 2038TIP3   OH2 6119   4.739   2.788   0.734
 2038TIP3    H1 6120   4.789   2.723   0.685
 2038TIP3    H2 6121   4.787   2.870   0.720
 2039TIP3   OH2 6122   1.803   5.042   2.133
 2039TIP3    H1 6123   1.735   4.974   2.128
 2039TIP3    H2 6124   1.883   4.994   2.154
 2040TIP3   OH2 6125   1.874   3.691   0.585
 2040TIP3    H1 6126   1.911   3.748   0.652
 2040TIP3    H2 6127   1.947   3.635   0.557
 2041TIP3   OH2 6128   5.150   3.894   2.862
 2041TIP3    H1 6129   5.076   3.942   2.897
 2041TIP3    H2 6130   5.160   3.926   2.772
 2042TIP3   OH2 6131   3.769   2.964   4.695
 2042TIP3    H1 6132   3.728   2.988   4.612
 2042TIP3    H2 6133   3.828   2.893   4.673
 2043TIP3   OH2 6134   4.043   5.758   0.225
 2043TIP3    H1 6135   4.092   5.698   0.168
 2043TIP3    H2 6136   4.091   5.757   0.307
 2044TIP3   OH2 6137   2.726   2.216   0.803
 2044TIP3    H1 6138   2.709   2.156   0.730
 2044TIP3    H2 6139   2.813   2.251   0.785
 2045TIP3   OH2 6140   3.701   5.096   1.401
 2045TIP3    H1 6141   3.742   5.079   1.486
 2045TIP3    H2 6142   3.712   5.015   1.352
 2046TIP3   OH2 6143   5.826   1.885   4.165
 2046TIP3    H1 6144   5.810   1.834   4.244
 2046TIP3    H2 6145   5.848   1.819   4.099
 2047TIP3   OH2 6146   3.553   2.811   2.060
 2047TIP3    H1 6147   3.484   2.750   2.033
 2047TIP3    H2 6148   3.622   2.799   1.995
 2048TIP3   OH2 6149   3.605   5.521   4.331
 2048TIP3    H1 6150   3.544   5.587   4.363
 2048TIP3    H2 6151   3.692   5.562   4.339
 2049TIP3   OH2 6152   2.390   0.385   1.171
 2049TIP3    H1 6153   2.413   0.466   1.125
 2049TIP3    H2 6154   2.408   0.404   1.263
 2050TIP3   OH2 6155   4.707   0.236   0.764
 2050TIP3    H1 6156   4.630   0.289   0.744
 2050TIP3    H2 6157   4.757   0.289   0.826
 2051TIP3   OH2 6158   5.336   5.444   5.142
 2051TIP3    H1 6159   5.245   5.453   5.171
 2051TIP3    H2 6160   5.387   5.481   5.214
 2052TIP3   OH2 6161   1.778   4.510   3.391
 2052TIP3    H1 6162   1.837   4.554   3.451
 2052TIP3    H2 6163   1.836   4.463   3.330
 2053TIP3   OH2 6164   4.478   5.498   2.185
 2053TIP3    H1 6165   4.504   5.428   2.245
 2053TIP3    H2 6166   4.382   5.497   2.188
 2054TIP3   OH2 6167   5.319   1.805   2.256
 2054TIP3    H1 6168   5.269   1.843   2.329
 2054TIP3    H2 6169   5.404   1.849   2.259
 2055TIP3   OH2 6170   1.690   4.301   1.710
 2055TIP3    H1 6171   1.747   4.227   1.685
 2055TIP3    H2 6172   1.610   4.259   1.741
 2056TIP3   OH2 6173   3.185   2.806   2.540
 2056TIP3    H1 6174   3.230   2.805   2.624
 2056TIP3    H2 6175   3.254   2.822   2.475
 2057TIP3   OH2 6176   4.199   3.388   1.997
 2057TIP3    H1 6177   4.144   3.310   1.985
 2057TIP3    H2 6178   4.288   3.356   1.985
 2058TIP3   OH2 6179   5.718   5.558   3.033
 2058TIP3    H1 6180   5.741   5.465   3.043
 2058TIP3    H2 6181   5.635   5.568   3.079
 2059TIP3   OH2 6182   1.044   3.221   0.987
 2059TIP3    H1 6183   1.071   3.303   1.030
 2059TIP3    H2 6184   1.126   3.177   0.966
 2060TIP3   OH2 6185   5.560   0.921   0.415
 2060TIP3    H1 6186   5.521   0.865   0.348
 2060TIP3    H2 6187   5.652   0.931   0.388
 2061TIP3   OH2 6188   5.583   1.304   4.164
 2061TIP3    H1 6189   5.592   1.212   4.139
 2061TIP3    H2 6190   5.613   1.308   4.255
 2062TIP3   OH2 6191   5.628   0.564   1.791
 2062TIP3    H1 6192   5.709   0.525   1.757
 2062TIP3    H2 6193   5.659   0.630   1.853
 2063TIP3   OH2 6194   5.799   3.916   1.634
 2063TIP3    H1 6195   5.710   3.884   1.648
 2063TIP3    H2 6196   5.789   4.005   1.601
 2064TIP3   OH2 6197   3.709   2.099   1.499
 2064TIP3    H1 6198   3.659   2.022   1.525
 2064TIP3    H2 6199   3.798   2.066   1.487
 2065TIP3   OH2 6200   4.749   0.863   0.635
 2065TIP3    H1 6201   4.825   0.881   0.691
 2065TIP3    H2 6202   4.709   0.785   0.674
 2066TIP3   OH2 6203   3.624   0.950   0.234
 2066TIP3    H1 6204   3.638   0.971   0.326
 2066TIP3    H2 6205   3.704   0.980   0.190
 2067TIP3   OH2 6206   1.486   1.541   4.365
 2067TIP3    H1 6207   1.425   1.545   4.439
 2067TIP3    H2 6208   1.523   1.629   4.361
 2068TIP3   OH2 6209   5.687   2.558   1.247
 2068TIP3    H1 6210   5.752   2.620   1.215
 2068TIP3    H2 6211   5.737   2.479   1.266
 2069TIP3   OH2 6212   1.264   2.884   1.258
 2069TIP3    H1 6213   1.358   2.896   1.250
 2069TIP3    H2 6214   1.242   2.818   1.192
 2070TIP3   OH2 6215   3.320   4.679   0.243
 2070TIP3    H1 6216   3.244   4.696   0.300
 2070TIP3    H2 6217   3.356   4.765   0.225
 2071TIP3   OH2 6218   5.734   4.039   2.834
 2071TIP3    H1 6219   5.748   3.948   2.808
 2071TIP3    H2 6220   5.649   4.039   2.879
 2072TIP3   OH2 6221   5.168   0.467   4.632
 2072TIP3    H1 6222   5.198   0.491   4.720
 2072TIP3    H2 6223   5.161   0.371   4.635
 2073TIP3   OH2 6224   4.209   0.484   2.142
 2073TIP3    H1 6225   4.166   0.450   2.064
 2073TIP3    H2 6226   4.145   0.473   2.212
 2074TIP3   OH2 6227   3.018   4.779   4.775
 2074TIP3    H1 6228   3.005   4.699   4.826
 2074TIP3    H2 6229   3.053   4.842   4.838
 2075TIP3   OH2 6230   0.126   5.862   2.996
 2075TIP3    H1 6231   0.120   5.768   2.981
 2075TIP3    H2 6232   0.217   5.877   3.020
 2076TIP3   OH2 6233   1.514   1.054   0.659
 2076TIP3    H1 6234   1.434   1.060   0.608
 2076TIP3    H2 6235   1.519   1.138   0.706
 2077TIP3   OH2 6236   2.855   0.301   0.728
 2077TIP3    H1 6237   2.820   0.319   0.641
 2077TIP3    H2 6238   2.930   0.359   0.736
 2078TIP3   OH2 6239   2.937   1.897   1.545
 2078TIP3    H1 6240   2.968   1.852   1.624
 2078TIP3    H2 6241   2.962   1.838   1.473
 2079TIP3   OH2 6242   0.220   5.111   1.754
 2079TIP3    H1 6243   0.188   5.145   1.670
 2079TIP3    H2 6244   0.142   5.075   1.796
 2080TIP3   OH2 6245   2.446   1.267   1.346
 2080TIP3    H1 6246   2.497   1.267   1.427
 2080TIP3    H2 6247   2.511   1.256   1.277
 2081TIP3   OH2 6248   1.985   3.094   4.537
 2081TIP3    H1 6249   1.980   2.998   4.541
 2081TIP3    H2 6250   1.894   3.122   4.535
 2082TIP3   OH2 6251   2.249   2.419   1.734
 2082TIP3    H1 6252   2.344   2.431   1.737
 2082TIP3    H2 6253   2.219   2.442   1.821
 2083TIP3   OH2 6254   3.513   1.048   2.203
 2083TIP3    H1 6255   3.447   1.087   2.260
 2083TIP3    H2 6256   3.472   1.049   2.116
 2084TIP3   OH2 6257   4.181   5.983   0.143
 2084TIP3    H1 6258   4.273   5.958   0.144
 2084TIP3    H2 6259   4.134   5.903   0.170
 2085TIP3   OH2 6260   5.291   2.264   2.188
 2085TIP3    H1 6261   5.268   2.196   2.251
 2085TIP3    H2 6262   5.376   2.297   2.217
 2086TIP3   OH2 6263   3.514   2.104   0.206
 2086TIP3    H1 6264   3.589   2.115   0.147
 2086TIP3    H2 6265   3.517   2.182   0.262
 2087TIP3   OH2 6266   3.396   4.519   0.693
 2087TIP3    H1 6267   3.341   4.524   0.771
 2087TIP3    H2 6268   3.458   4.449   0.712
 2088TIP3   OH2 6269   2.257   5.649   1.868
 2088TIP3    H1 6270   2.189   5.674   1.930
 2088TIP3    H2 6271   2.280   5.559   1.892
 2089TIP3   OH2 6272   3.725   2.966   0.274
 2089TIP3    H1 6273   3.742   3.003   0.188
 2089TIP3    H2 6274   3.658   3.022   0.312
 2090TIP3   OH2 6275   1.553   2.716   0.901
 2090TIP3    H1 6276   1.532   2.648   0.965
 2090TIP3    H2 6277   1.555   2.670   0.817
 2091TIP3   OH2 6278  -0.006   3.514   4.029
 2091TIP3    H1 6279   0.036   3.574   4.090
 2091TIP3    H2 6280   0.064   3.488   3.968
 2092TIP3   OH2 6281  -0.012   5.963   2.527
 2092TIP3    H1 6282   0.040   5.980   2.449
 2092TIP3    H2 6283   0.050   5.925   2.590
 2093TIP3   OH2 6284   2.659   1.157   1.831
 2093TIP3    H1 6285   2.671   1.062   1.835
 2093TIP3    H2 6286   2.564   1.168   1.827
 2094TIP3   OH2 6287   3.157   3.987   2.195
 2094TIP3    H1 6288   3.119   3.991   2.283
 2094TIP3    H2 6289   3.228   4.052   2.196
 2095TIP3   OH2 6290   1.217   1.718   4.221
 2095TIP3    H1 6291   1.298   1.696   4.176
 2095TIP3    H2 6292   1.239   1.713   4.314
 2096TIP3   OH2 6293   4.309   1.118   3.890
 2096TIP3    H1 6294   4.247   1.077   3.951
 2096TIP3    H2 6295   4.352   1.045   3.846
 2097TIP3   OH2 6296   2.904   5.980   3.765
 2097TIP3    H1 6297   2.946   5.956   3.848
 2097TIP3    H2 6298   2.838   6.044   3.789
 2098TIP3   OH2 6299   1.352   1.683   0.263
 2098TIP3    H1 6300   1.360   1.604   0.210
 2098TIP3    H2 6301   1.417   1.744   0.227
 2099TIP3   OH2 6302   3.140   2.713   3.988
 2099TIP3    H1 6303   3.097   2.672   4.064
 2099TIP3    H2 6304   3.099   2.672   3.912
 2100TIP3   OH2 6305   6.104   5.170   2.790
 2100TIP3    H1 6306   6.169   5.229   2.827
 2100TIP3    H2 6307   6.064   5.219   2.718
 2101TIP3   OH2 6308   3.311   0.279   4.737
 2101TIP3    H1 6309   3.235   0.285   4.679
 2101TIP3    H2 6310   3.363   0.206   4.701
 2102TIP3   OH2 6311   5.433   5.727   1.852
 2102TIP3    H1 6312   5.501   5.663   1.876
 2102TIP3    H2 6313   5.463   5.764   1.769
 2103TIP3   OH2 6314   1.937   3.628   4.208
 2103TIP3    H1 6315   1.923   3.656   4.118
 2103TIP3    H2 6316   1.979   3.542   4.200
 2104TIP3   OH2 6317   4.526   0.234   2.024
 2104TIP3    H1 6318   4.564   0.195   2.103
 2104TIP3    H2 6319   4.516   0.160   1.964
 2105TIP3   OH2 6320   5.894   4.636   1.151
 2105TIP3    H1 6321   5.984   4.604   1.157
 2105TIP3    H2 6322   5.902   4.731   1.161
 2106TIP3   OH2 6323   4.751   2.765   1.026
 2106TIP3    H1 6324   4.681   2.701   1.037
 2106TIP3    H2 6325   4.739   2.800   0.938
 2107TIP3   OH2 6326   5.727   5.534   1.569
 2107TIP3    H1 6327   5.787   5.547   1.642
 2107TIP3    H2 6328   5.744   5.445   1.539
 2108TIP3   OH2 6329   5.485   2.796   4.281
 2108TIP3    H1 6330   5.557   2.857   4.295
 2108TIP3    H2 6331   5.406   2.848   4.294
 2109TIP3   OH2 6332   2.168   1.550   2.992
 2109TIP3    H1 6333   2.229   1.589   3.055
 2109TIP3    H2 6334   2.176   1.604   2.914
 2110TIP3   OH2 6335   6.205   1.872   1.155
 2110TIP3    H1 6336   6.300   1.868   1.146
 2110TIP3    H2 6337   6.173   1.811   1.088
 2111TIP3   OH2 6338   4.851   5.068   2.077
 2111TIP3    H1 6339   4.766   5.095   2.111
 2111TIP3    H2 6340   4.866   4.981   2.116
 2112TIP3   OH2 6341   0.518   3.303   2.659
 2112TIP3    H1 6342   0.535   3.297   2.753
 2112TIP3    H2 6343   0.500   3.212   2.632
 2113TIP3   OH2 6344   3.410   4.304   4.534
 2113TIP3    H1 6345   3.315   4.313   4.525
 2113TIP3    H2 6346   3.445   4.366   4.470
 2114TIP3   OH2 6347   6.044   5.851   3.366
 2114TIP3    H1 6348   5.972   5.898   3.409
 2114TIP3    H2 6349   6.045   5.886   3.277
 2115TIP3   OH2 6350   3.870   2.843   0.480
 2115TIP3    H1 6351   3.813   2.900   0.428
 2115TIP3    H2 6352   3.923   2.903   0.532
 2116TIP3   OH2 6353   2.530   5.786   3.133
 2116TIP3    H1 6354   2.623   5.806   3.145
 2116TIP3    H2 6355   2.513   5.715   3.195
 2117TIP3   OH2 6356   1.569   2.665   3.980
 2117TIP3    H1 6357   1.642   2.621   4.023
 2117TIP3    H2 6358   1.543   2.607   3.908
 2118TIP3   OH2 6359   0.460   0.089   1.440
 2118TIP3    H1 6360   0.547   0.096   1.479
 2118TIP3    H2 6361   0.475   0.090   1.346
 2119TIP3   OH2 6362   1.150   1.198   0.340
 2119TIP3    H1 6363   1.114   1.134   0.401
 2119TIP3    H2 6364   1.245   1.190   0.350
 2120TIP3   OH2 6365   0.591   0.253   4.969
 2120TIP3    H1 6366   0.668   0.259   5.026
 2120TIP3    H2 6367   0.524   0.305   5.013
 2121TIP3   OH2 6368   2.499   3.118   4.529
 2121TIP3    H1 6369   2.465   3.172   4.600
 2121TIP3    H2 6370   2.594   3.131   4.532
 2122TIP3   OH2 6371   0.308   1.409   4.015
 2122TIP3    H1 6372   0.404   1.413   4.011
 2122TIP3    H2 6373   0.288   1.316   4.009
 2123TIP3   OH2 6374   2.631   3.900   1.340
 2123TIP3    H1 6375   2.726   3.890   1.345
 2123TIP3    H2 6376   2.596   3.827   1.390
 2124TIP3   OH2 6377   4.895   3.822   4.910
 2124TIP3    H1 6378   4.891   3.751   4.974
 2124TIP3    H2 6379   4.850   3.787   4.833
 2125TIP3   OH2 6380   4.258   3.450   3.091
 2125TIP3    H1 6381   4.238   3.543   3.080
 2125TIP3    H2 6382   4.271   3.418   3.002
 2126TIP3   OH2 6383   4.705   0.864   4.322
 2126TIP3    H1 6384   4.797   0.843   4.311
 2126TIP3    H2 6385   4.678   0.818   4.401
 2127TIP3   OH2 6386   1.134   1.092   4.207
 2127TIP3    H1 6387   1.100   1.136   4.285
 2127TIP3    H2 6388   1.203   1.035   4.240
 2128TIP3   OH2 6389   3.488   4.487   4.357
 2128TIP3    H1 6390   3.445   4.520   4.278
 2128TIP3    H2 6391   3.566   4.441   4.324
 2129TIP3   OH2 6392   1.154   0.681   1.831
 2129TIP3    H1 6393   1.075   0.642   1.868
 2129TIP3    H2 6394   1.129   0.771   1.809
 2130TIP3   OH2 6395   6.078   0.570   3.575
 2130TIP3    H1 6396   6.001   0.549   3.522
 2130TIP3    H2 6397   6.044   0.578   3.664
 2131TIP3   OH2 6398   0.429   0.395   0.219
 2131TIP3    H1 6399   0.337   0.372   0.211
 2131TIP3    H2 6400   0.429   0.491   0.222
 2132TIP3   OH2 6401   0.749   2.640   3.241
 2132TIP3    H1 6402   0.810   2.566   3.236
 2132TIP3    H2 6403   0.783   2.694   3.313
 2133TIP3   OH2 6404   0.229   1.491   2.170
 2133TIP3    H1 6405   0.161   1.489   2.103
 2133TIP3    H2 6406   0.222   1.578   2.210
 2134TIP3   OH2 6407   5.212   5.390   4.591
 2134TIP3    H1 6408   5.160   5.383   4.511
 2134TIP3    H2 6409   5.289   5.440   4.565
 2135TIP3   OH2 6410   1.884   2.424   0.514
 2135TIP3    H1 6411   1.916   2.371   0.441
 2135TIP3    H2 6412   1.841   2.499   0.472
 2136TIP3   OH2 6413   2.867   5.496   4.530
 2136TIP3    H1 6414   2.778   5.500   4.565
 2136TIP3    H2 6415   2.891   5.403   4.535
 2137TIP3   OH2 6416   1.829   5.758   3.073
 2137TIP3    H1 6417   1.811   5.800   2.988
 2137TIP3    H2 6418   1.838   5.831   3.134
 2138TIP3   OH2 6419   1.876   0.611   3.001
 2138TIP3    H1 6420   1.836   0.697   2.992
 2138TIP3    H2 6421   1.939   0.622   3.073
 2139TIP3   OH2 6422   2.027   5.866   5.122
 2139TIP3    H1 6423   1.988   5.855   5.208
 2139TIP3    H2 6424   1.958   5.840   5.061
 2140TIP3   OH2 6425   0.146   5.594   4.356
 2140TIP3    H1 6426   0.195   5.674   4.341
 2140TIP3    H2 6427   0.170   5.536   4.283
 2141TIP3   OH2 6428   3.227   5.810   4.355
 2141TIP3    H1 6429   3.225   5.897   4.397
 2141TIP3    H2 6430   3.172   5.756   4.412
 2142TIP3   OH2 6431   4.522   0.497   3.274
 2142TIP3    H1 6432   4.602   0.480   3.323
 2142TIP3    H2 6433   4.519   0.427   3.208
 2143TIP3   OH2 6434   2.698   5.415   0.103
 2143TIP3    H1 6435   2.635   5.343   0.101
 2143TIP3    H2 6436   2.733   5.413   0.193
 2144TIP3   OH2 6437   3.563   0.500   1.831
 2144TIP3    H1 6438   3.651   0.473   1.858
 2144TIP3    H2 6439   3.566   0.596   1.832
 2145TIP3   OH2 6440   5.945   5.129   4.419
 2145TIP3    H1 6441   5.968   5.133   4.326
 2145TIP3    H2 6442   6.017   5.174   4.463
 2146TIP3   OH2 6443   0.869   2.199   4.962
 2146TIP3    H1 6444   0.958   2.164   4.974
 2146TIP3    H2 6445   0.836   2.213   5.051
 2147TIP3   OH2 6446   2.911   2.166   2.365
 2147TIP3    H1 6447   2.968   2.230   2.407
 2147TIP3    H2 6448   2.846   2.143   2.431
 2148TIP3   OH2 6449   1.776   1.800   3.766
 2148TIP3    H1 6450   1.715   1.749   3.712
 2148TIP3    H2 6451   1.860   1.755   3.756
 2149TIP3   OH2 6452   2.724   0.744   3.355
 2149TIP3    H1 6453   2.637   0.744   3.394
 2149TIP3    H2 6454   2.711   0.774   3.265
 2150TIP3   OH2 6455   2.321   4.148   3.417
 2150TIP3    H1 6456   2.390   4.203   3.379
 2150TIP3    H2 6457   2.369   4.077   3.461
 2151TIP3   OH2 6458   3.996   0.667   4.421
 2151TIP3    H1 6459   4.080   0.665   4.468
 2151TIP3    H2 6460   3.930   0.677   4.490
 2152TIP3   OH2 6461   0.787   0.197   3.696
 2152TIP3    H1 6462   0.873   0.178   3.657
 2152TIP3    H2 6463   0.726   0.189   3.623
 2153TIP3   OH2 6464   4.631   0.957   2.364
 2153TIP3    H1 6465   4.536   0.946   2.374
 2153TIP3    H2 6466   4.657   0.888   2.303
 2154TIP3   OH2 6467   4.899   1.755   2.936
 2154TIP3    H1 6468   4.883   1.807   3.015
 2154TIP3    H2 6469   4.908   1.665   2.967
 2155TIP3   OH2 6470   3.557   3.559   2.670
 2155TIP3    H1 6471   3.639   3.532   2.712
 2155TIP3    H2 6472   3.498   3.576   2.743
 2156TIP3   OH2 6473   5.220   0.905   0.433
 2156TIP3    H1 6474   5.303   0.945   0.458
 2156TIP3    H2 6475   5.157   0.937   0.498
 2157TIP3   OH2 6476   5.810   4.043   2.485
 2157TIP3    H1 6477   5.886   4.064   2.431
 2157TIP3    H2 6478   5.752   3.993   2.427
 2158TIP3   OH2 6479   2.633   5.485   1.872
 2158TIP3    H1 6480   2.656   5.445   1.788
 2158TIP3    H2 6481   2.610   5.411   1.928
 2159TIP3   OH2 6482   1.458   5.542   1.723
 2159TIP3    H1 6483   1.518   5.472   1.750
 2159TIP3    H2 6484   1.403   5.557   1.801
 2160TIP3   OH2 6485   5.097   2.208   2.708
 2160TIP3    H1 6486   5.178   2.208   2.759
 2160TIP3    H2 6487   5.049   2.130   2.738
 2161TIP3   OH2 6488   5.594   4.407   3.186
 2161TIP3    H1 6489   5.577   4.341   3.252
 2161TIP3    H2 6490   5.670   4.374   3.137
 2162TIP3   OH2 6491   3.101   5.018   0.647
 2162TIP3    H1 6492   3.133   5.099   0.687
 2162TIP3    H2 6493   3.170   4.954   0.666
 2163TIP3   OH2 6494   2.761   3.831   2.181
 2163TIP3    H1 6495   2.834   3.879   2.144
 2163TIP3    H2 6496   2.778   3.828   2.275
 2164TIP3   OH2 6497   4.355   2.252   1.056
 2164TIP3    H1 6498   4.261   2.264   1.047
 2164TIP3    H2 6499   4.373   2.274   1.148
 2165TIP3   OH2 6500   2.351   3.157   3.214
 2165TIP3    H1 6501   2.403   3.081   3.186
 2165TIP3    H2 6502   2.342   3.147   3.308
 2166TIP3   OH2 6503   0.592   5.502   2.459
 2166TIP3    H1 6504   0.545   5.573   2.504
 2166TIP3    H2 6505   0.630   5.450   2.530
 2167TIP3   OH2 6506   6.102   4.946   3.916
 2167TIP3    H1 6507   6.039   4.876   3.895
 2167TIP3    H2 6508   6.148   4.915   3.993
 2168TIP3   OH2 6509   5.400   1.977   0.768
 2168TIP3    H1 6510   5.359   1.963   0.682
 2168TIP3    H2 6511   5.475   1.918   0.768
 2169TIP3   OH2 6512   2.170   2.453   4.442
 2169TIP3    H1 6513   2.135   2.542   4.449
 2169TIP3    H2 6514   2.111   2.409   4.381
 2170TIP3   OH2 6515   1.707   1.276   5.052
 2170TIP3    H1 6516   1.799   1.275   5.027
 2170TIP3    H2 6517   1.690   1.189   5.088
 2171TIP3   OH2 6518   0.462   5.195   1.871
 2171TIP3    H1 6519   0.496   5.211   1.783
 2171TIP3    H2 6520   0.415   5.112   1.863
 2172TIP3   OH2 6521   0.701   0.854   0.608
 2172TIP3    H1 6522   0.624   0.817   0.652
 2172TIP3    H2 6523   0.684   0.948   0.605
 2173TIP3   OH2 6524   1.251   1.761   4.872
 2173TIP3    H1 6525   1.200   1.753   4.791
 2173TIP3    H2 6526   1.342   1.769   4.842
 2174TIP3   OH2 6527   2.486   4.355   3.309
 2174TIP3    H1 6528   2.576   4.371   3.281
 2174TIP3    H2 6529   2.441   4.438   3.295
 2175TIP3   OH2 6530   5.764   0.071   0.041
 2175TIP3    H1 6531   5.700   0.016  -0.005
 2175TIP3    H2 6532   5.747   0.054   0.134
 2176TIP3   OH2 6533   2.472   1.120   0.841
 2176TIP3    H1 6534   2.399   1.118   0.903
 2176TIP3    H2 6535   2.541   1.071   0.885
 2177TIP3   OH2 6536   5.267   2.024   4.709
 2177TIP3    H1 6537   5.332   2.059   4.648
 2177TIP3    H2 6538   5.307   1.944   4.742
 2178TIP3   OH2 6539   5.024   3.655   4.679
 2178TIP3    H1 6540   4.930   3.646   4.694
 2178TIP3    H2 6541   5.062   3.578   4.720
 2179TIP3   OH2 6542   4.081   0.937   0.212
 2179TIP3    H1 6543   4.096   1.025   0.246
 2179TIP3    H2 6544   4.155   0.886   0.244
 2180TIP3   OH2 6545   4.154   2.527   2.500
 2180TIP3    H1 6546   4.153   2.456   2.436
 2180TIP3    H2 6547   4.125   2.486   2.581
 2181TIP3   OH2 6548   6.009   5.700   4.776
 2181TIP3    H1 6549   5.959   5.705   4.694
 2181TIP3    H2 6550   6.073   5.630   4.761
 2182TIP3   OH2 6551   5.357   1.030   1.727
 2182TIP3    H1 6552   5.309   0.947   1.733
 2182TIP3    H2 6553   5.404   1.025   1.644
 2183TIP3   OH2 6554   6.069   0.629   2.788
 2183TIP3    H1 6555   6.033   0.717   2.775
 2183TIP3    H2 6556   6.156   0.644   2.824
 2184TIP3   OH2 6557   1.471   1.612   3.037
 2184TIP3    H1 6558   1.522   1.579   2.963
 2184TIP3    H2 6559   1.399   1.660   2.997
 2185TIP3   OH2 6560   5.003   1.153   4.626
 2185TIP3    H1 6561   5.035   1.134   4.715
 2185TIP3    H2 6562   5.020   1.072   4.577
 2186TIP3   OH2 6563   3.412   3.284   1.193
 2186TIP3    H1 6564   3.398   3.189   1.188
 2186TIP3    H2 6565   3.504   3.296   1.170
 2187TIP3   OH2 6566   0.236   5.421   1.869
 2187TIP3    H1 6567   0.166   5.373   1.912
 2187TIP3    H2 6568   0.303   5.355   1.852
 2188TIP3   OH2 6569   2.875   3.469   0.449
 2188TIP3    H1 6570   2.785   3.442   0.430
 2188TIP3    H2 6571   2.890   3.544   0.392
 2189TIP3   OH2 6572   3.556   4.088   4.627
 2189TIP3    H1 6573   3.519   4.163   4.580
 2189TIP3    H2 6574   3.514   4.012   4.587
 2190TIP3   OH2 6575   4.255   0.997   4.935
 2190TIP3    H1 6576   4.223   1.086   4.951
 2190TIP3    H2 6577   4.198   0.941   4.987
 2191TIP3   OH2 6578   0.703   5.103   4.902
 2191TIP3    H1 6579   0.652   5.166   4.952
 2191TIP3    H2 6580   0.665   5.104   4.814
 2192TIP3   OH2 6581   0.143   4.020   2.778
 2192TIP3    H1 6582   0.203   4.089   2.749
 2192TIP3    H2 6583   0.059   4.044   2.738
 2193TIP3   OH2 6584   6.222   5.273   3.520
 2193TIP3    H1 6585   6.268   5.200   3.562
 2193TIP3    H2 6586   6.190   5.326   3.593
 2194TIP3   OH2 6587   0.273   0.076   3.899
 2194TIP3    H1 6588   0.216   0.085   3.975
 2194TIP3    H2 6589   0.345   0.021   3.929
 2195TIP3   OH2 6590   1.432   2.774   4.217
 2195TIP3    H1 6591   1.481   2.747   4.140
 2195TIP3    H2 6592   1.439   2.699   4.277
 2196TIP3   OH2 6593   1.770   2.984   0.421
 2196TIP3    H1 6594   1.703   2.941   0.369
 2196TIP3    H2 6595   1.737   2.981   0.510
 2197TIP3   OH2 6596   0.429   0.930   0.364
 2197TIP3    H1 6597   0.413   0.924   0.458
 2197TIP3    H2 6598   0.429   1.024   0.344
 2198TIP3   OH2 6599   5.314   1.233   2.801
 2198TIP3    H1 6600   5.326   1.280   2.883
 2198TIP3    H2 6601   5.327   1.141   2.823
 2199TIP3   OH2 6602   5.540   1.502   5.133
 2199TIP3    H1 6603   5.490   1.583   5.140
 2199TIP3    H2 6604   5.502   1.456   5.058
 2200TIP3   OH2 6605   6.177   5.286   1.352
 2200TIP3    H1 6606   6.140   5.279   1.264
 2200TIP3    H2 6607   6.262   5.328   1.339
 2201TIP3   OH2 6608   3.325   0.017   4.889
 2201TIP3    H1 6609   3.252   0.072   4.916
 2201TIP3    H2 6610   3.359  -0.019   4.971
 2202TIP3   OH2 6611   1.021   2.549   1.709
 2202TIP3    H1 6612   1.026   2.636   1.748
 2202TIP3    H2 6613   1.113   2.523   1.698
 2203TIP3   OH2 6614   0.279   2.576   0.256
 2203TIP3    H1 6615   0.233   2.597   0.175
 2203TIP3    H2 6616   0.313   2.487   0.243
 2204TIP3   OH2 6617   4.359   4.819   2.176
 2204TIP3    H1 6618   4.275   4.809   2.130
 2204TIP3    H2 6619   4.405   4.737   2.158
 2205TIP3   OH2 6620   5.482  -0.015   0.373
 2205TIP3    H1 6621   5.420   0.012   0.305
 2205TIP3    H2 6622   5.567   0.018   0.344
 2206TIP3   OH2 6623   5.693   4.870   4.297
 2206TIP3    H1 6624   5.643   4.834   4.224
 2206TIP3    H2 6625   5.627   4.907   4.355
 2207TIP3   OH2 6626   5.365   2.474   0.252
 2207TIP3    H1 6627   5.397   2.508   0.336
 2207TIP3    H2 6628   5.350   2.380   0.269
 2208TIP3   OH2 6629   4.996   1.052   1.407
 2208TIP3    H1 6630   4.914   1.048   1.456
 2208TIP3    H2 6631   5.056   0.995   1.455
 2209TIP3   OH2 6632   2.490   0.803   3.507
 2209TIP3    H1 6633   2.520   0.889   3.477
 2209TIP3    H2 6634   2.493   0.809   3.602
 2210TIP3   OH2 6635   5.112   5.366   1.463
 2210TIP3    H1 6636   5.189   5.310   1.452
 2210TIP3    H2 6637   5.144   5.442   1.511
 2211TIP3   OH2 6638   2.497   1.481   2.158
 2211TIP3    H1 6639   2.538   1.447   2.237
 2211TIP3    H2 6640   2.404   1.483   2.178
 2212TIP3   OH2 6641   4.456   3.157   0.732
 2212TIP3    H1 6642   4.540   3.140   0.775
 2212TIP3    H2 6643   4.476   3.223   0.666
 2213TIP3   OH2 6644   2.870   3.116   3.488
 2213TIP3    H1 6645   2.955   3.159   3.486
 2213TIP3    H2 6646   2.807   3.187   3.484
 2214TIP3   OH2 6647   2.617   2.188   3.877
 2214TIP3    H1 6648   2.540   2.132   3.879
 2214TIP3    H2 6649   2.682   2.140   3.929
 2215TIP3   OH2 6650   4.324   1.230   0.678
 2215TIP3    H1 6651   4.386   1.302   0.670
 2215TIP3    H2 6652   4.308   1.222   0.772
 2216TIP3   OH2 6653   1.413   1.886   2.435
 2216TIP3    H1 6654   1.452   1.895   2.522
 2216TIP3    H2 6655   1.419   1.973   2.396
 2217TIP3   OH2 6656   0.668   2.273   3.973
 2217TIP3    H1 6657   0.717   2.345   4.013
 2217TIP3    H2 6658   0.651   2.302   3.884
 2218TIP3   OH2 6659   4.379   4.224   3.567
 2218TIP3    H1 6660   4.300   4.261   3.606
 2218TIP3    H2 6661   4.449   4.284   3.594
 2219TIP3   OH2 6662   5.517   3.598   0.042
 2219TIP3    H1 6663   5.566   3.531  -0.006
 2219TIP3    H2 6664   5.455   3.549   0.096
 2220TIP3   OH2 6665   3.923   5.974   0.760
 2220TIP3    H1 6666   3.921   6.043   0.694
 2220TIP3    H2 6667   3.837   5.932   0.753
 2221TIP3   OH2 6668   2.512   0.301   1.889
 2221TIP3    H1 6669   2.420   0.281   1.873
 2221TIP3    H2 6670   2.537   0.242   1.961
 2222TIP3   OH2 6671   6.071   2.929   0.990
 2222TIP3    H1 6672   6.134   2.997   0.967
 2222TIP3    H2 6673   6.122   2.861   1.033
 2223TIP3   OH2 6674   4.586   4.145   1.968
 2223TIP3    H1 6675   4.604   4.156   1.875
 2223TIP3    H2 6676   4.543   4.059   1.974
 2224TIP3   OH2 6677   4.908   0.746   3.718
 2224TIP3    H1 6678   4.863   0.774   3.638
 2224TIP3    H2 6679   4.854   0.676   3.753
 2225TIP3   OH2 6680   5.583   1.892   2.147
 2225TIP3    H1 6681   5.625   1.808   2.167
 2225TIP3    H2 6682   5.653   1.945   2.109
 2226TIP3   OH2 6683   5.795   2.255   1.461
 2226TIP3    H1 6684   5.849   2.177   1.467
 2226TIP3    H2 6685   5.804   2.298   1.546
 2227TIP3   OH2 6686   2.365   3.104   0.480
 2227TIP3    H1 6687   2.427   3.092   0.408
 2227TIP3    H2 6688   2.279   3.103   0.437
 2228TIP3   OH2 6689   4.015   1.329   2.376
 2228TIP3    H1 6690   3.977   1.381   2.305
 2228TIP3    H2 6691   3.983   1.371   2.456
 2229TIP3   OH2 6692   1.387   4.065   2.066
 2229TIP3    H1 6693   1.471   4.072   2.021
 2229TIP3    H2 6694   1.392   3.984   2.116
 2230TIP3   OH2 6695   2.908   3.838   1.356
 2230TIP3    H1 6696   2.967   3.860   1.284
 2230TIP3    H2 6697   2.932   3.897   1.427
 2231TIP3   OH2 6698   2.334   4.862   3.819
 2231TIP3    H1 6699   2.427   4.864   3.798
 2231TIP3    H2 6700   2.326   4.922   3.894
 2232TIP3   OH2 6701   1.062   2.634   1.372
 2232TIP3    H1 6702   0.984   2.611   1.423
 2232TIP3    H2 6703   1.056   2.580   1.293
 2233TIP3   OH2 6704   1.033   2.774   3.827
 2233TIP3    H1 6705   0.995   2.701   3.876
 2233TIP3    H2 6706   1.105   2.735   3.778
 2234TIP3   OH2 6707   1.280   3.678   1.889
 2234TIP3    H1 6708   1.287   3.607   1.826
 2234TIP3    H2 6709   1.365   3.722   1.885
 2235TIP3   OH2 6710   4.172   0.901   2.095
 2235TIP3    H1 6711   4.210   0.986   2.073
 2235TIP3    H2 6712   4.113   0.882   2.021
 2236TIP3   OH2 6713   4.462   2.251   0.291
 2236TIP3    H1 6714   4.387   2.213   0.245
 2236TIP3    H2 6715   4.489   2.325   0.237
 2237TIP3   OH2 6716   3.708   4.085   2.899
 2237TIP3    H1 6717   3.670   3.999   2.916
 2237TIP3    H2 6718   3.802   4.072   2.911
 2238TIP3   OH2 6719   6.158   1.737   0.459
 2238TIP3    H1 6720   6.194   1.670   0.401
 2238TIP3    H2 6721   6.143   1.813   0.402
 2239TIP3   OH2 6722   0.777   0.208   0.240
 2239TIP3    H1 6723   0.817   0.252   0.315
 2239TIP3    H2 6724   0.692   0.179   0.272
 2240TIP3   OH2 6725   2.680   2.433   3.774
 2240TIP3    H1 6726   2.772   2.437   3.800
 2240TIP3    H2 6727   2.649   2.349   3.808
 2241TIP3   OH2 6728   2.580   2.089   1.008
 2241TIP3    H1 6729   2.618   2.122   0.926
 2241TIP3    H2 6730   2.637   2.122   1.077
 2242TIP3   OH2 6731   4.071   3.057   1.685
 2242TIP3    H1 6732   3.998   2.995   1.685
 2242TIP3    H2 6733   4.029   3.143   1.688
 2243TIP3   OH2 6734   0.314   1.177   0.891
 2243TIP3    H1 6735   0.329   1.249   0.830
 2243TIP3    H2 6736   0.394   1.125   0.887
 2244TIP3   OH2 6737   2.732   1.718   4.986
 2244TIP3    H1 6738   2.645   1.755   4.997
 2244TIP3    H2 6739   2.718   1.623   4.988
 2245TIP3   OH2 6740   2.236   2.018   0.973
 2245TIP3    H1 6741   2.268   1.936   0.935
 2245TIP3    H2 6742   2.281   2.086   0.923
 2246TIP3   OH2 6743   0.141   3.090   2.496
 2246TIP3    H1 6744   0.118   3.094   2.588
 2246TIP3    H2 6745   0.236   3.074   2.496
 2247TIP3   OH2 6746   6.216   5.932   2.885
 2247TIP3    H1 6747   6.301   5.929   2.930
 2247TIP3    H2 6748   6.220   5.858   2.824
 2248TIP3   OH2 6749   2.067   4.630   0.867
 2248TIP3    H1 6750   2.046   4.594   0.953
 2248TIP3    H2 6751   2.122   4.706   0.886
 2249TIP3   OH2 6752   4.939   0.755   3.973
 2249TIP3    H1 6753   4.950   0.772   3.879
 2249TIP3    H2 6754   4.854   0.794   3.994
 2250TIP3   OH2 6755   4.096   1.407   1.353
 2250TIP3    H1 6756   4.050   1.333   1.316
 2250TIP3    H2 6757   4.065   1.483   1.303
 2251TIP3   OH2 6758   5.428   3.003   3.314
 2251TIP3    H1 6759   5.395   3.068   3.376
 2251TIP3    H2 6760   5.512   3.038   3.285
 2252TIP3   OH2 6761   1.331   2.055   0.757
 2252TIP3    H1 6762   1.261   2.000   0.722
 2252TIP3    H2 6763   1.392   1.993   0.797
 2253TIP3   OH2 6764   5.116   5.225   0.885
 2253TIP3    H1 6765   5.088   5.262   0.968
 2253TIP3    H2 6766   5.172   5.293   0.846
 2254TIP3   OH2 6767   1.921   3.525   0.987
 2254TIP3    H1 6768   1.935   3.448   1.041
 2254TIP3    H2 6769   2.002   3.575   0.994
 2255TIP3   OH2 6770   2.458   5.599   2.914
 2255TIP3    H1 6771   2.407   5.604   2.995
 2255TIP3    H2 6772   2.492   5.510   2.913
 2256TIP3   OH2 6773   0.158   2.364   3.348
 2256TIP3    H1 6774   0.114   2.449   3.344
 2256TIP3    H2 6775   0.215   2.362   3.271
 2257TIP3   OH2 6776   0.786   2.224   1.418
 2257TIP3    H1 6777   0.878   2.246   1.435
 2257TIP3    H2 6778   0.775   2.240   1.324
 2258TIP3   OH2 6779   4.221   4.295   4.644
 2258TIP3    H1 6780   4.153   4.307   4.579
 2258TIP3    H2 6781   4.247   4.384   4.668
 2259TIP3   OH2 6782   0.898   3.567   4.730
 2259TIP3    H1 6783   0.983   3.536   4.701
 2259TIP3    H2 6784   0.917   3.646   4.780
 2260TIP3   OH2 6785   0.230   4.675   3.417
 2260TIP3    H1 6786   0.255   4.690   3.508
 2260TIP3    H2 6787   0.165   4.743   3.398
 2261TIP3   OH2 6788   5.171   0.859   3.640
 2261TIP3    H1 6789   5.158   0.885   3.549
 2261TIP3    H2 6790   5.083   0.835   3.670
 2262TIP3   OH2 6791   5.643   2.224   4.786
 2262TIP3    H1 6792   5.604   2.228   4.699
 2262TIP3    H2 6793   5.730   2.187   4.772
 2263TIP3   OH2 6794   1.607   3.805   0.485
 2263TIP3    H1 6795   1.576   3.840   0.568
 2263TIP3    H2 6796   1.700   3.785   0.500
 2264TIP3   OH2 6797   2.899   2.968   4.260
 2264TIP3    H1 6798   2.870   3.057   4.240
 2264TIP3    H2 6799   2.821   2.914   4.249
 2265TIP3   OH2 6800   3.602   2.961   1.311
 2265TIP3    H1 6801   3.691   2.992   1.329
 2265TIP3    H2 6802   3.615   2.884   1.254
 2266TIP3   OH2 6803   1.926   5.913   1.357
 2266TIP3    H1 6804   1.931   5.819   1.377
 2266TIP3    H2 6805   2.007   5.931   1.309
 2267TIP3   OH2 6806   3.702   1.839   0.885
 2267TIP3    H1 6807   3.715   1.933   0.877
 2267TIP3    H2 6808   3.607   1.827   0.885
 2268TIP3   OH2 6809   2.384   1.235   4.625
 2268TIP3    H1 6810   2.410   1.188   4.705
 2268TIP3    H2 6811   2.308   1.187   4.592
 2269TIP3   OH2 6812   4.316   1.719   1.814
 2269TIP3    H1 6813   4.368   1.771   1.753
 2269TIP3    H2 6814   4.366   1.638   1.825
 2270TIP3   OH2 6815   4.253   5.844   3.835
 2270TIP3    H1 6816   4.169   5.836   3.880
 2270TIP3    H2 6817   4.317   5.804   3.895
 2271TIP3   OH2 6818   0.560   2.994   0.995
 2271TIP3    H1 6819   0.602   2.948   0.922
 2271TIP3    H2 6820   0.607   3.078   1.000
 2272TIP3   OH2 6821   0.723   1.858   0.493
 2272TIP3    H1 6822   0.812   1.887   0.478
 2272TIP3    H2 6823   0.703   1.886   0.583
 2273TIP3   OH2 6824   3.590   3.170   1.582
 2273TIP3    H1 6825   3.625   3.081   1.579
 2273TIP3    H2 6826   3.654   3.223   1.535
 2274TIP3   OH2 6827   4.296   3.214   3.233
 2274TIP3    H1 6828   4.286   3.280   3.164
 2274TIP3    H2 6829   4.230   3.148   3.213
 2275TIP3   OH2 6830   5.857   1.891   1.292
 2275TIP3    H1 6831   5.825   1.933   1.371
 2275TIP3    H2 6832   5.791   1.824   1.272
 2276TIP3   OH2 6833   0.372   5.249   1.245
 2276TIP3    H1 6834   0.444   5.227   1.303
 2276TIP3    H2 6835   0.300   5.193   1.273
 2277TIP3   OH2 6836   4.307   1.861   0.667
 2277TIP3    H1 6837   4.213   1.857   0.653
 2277TIP3    H2 6838   4.342   1.894   0.584
 2278TIP3   OH2 6839   2.370   5.778   0.828
 2278TIP3    H1 6840   2.413   5.822   0.755
 2278TIP3    H2 6841   2.278   5.770   0.801
 2279TIP3   OH2 6842   0.275   2.111   1.990
 2279TIP3    H1 6843   0.313   2.177   2.048
 2279TIP3    H2 6844   0.339   2.103   1.919
 2280TIP3   OH2 6845   1.034   3.497   0.546
 2280TIP3    H1 6846   1.095   3.554   0.499
 2280TIP3    H2 6847   1.072   3.488   0.634
 2281TIP3   OH2 6848   0.007   3.283   4.298
 2281TIP3    H1 6849   0.064   3.207   4.310
 2281TIP3    H2 6850  -0.038   3.267   4.216
 2282TIP3   OH2 6851   3.326   3.409   5.066
 2282TIP3    H1 6852   3.281   3.325   5.066
 2282TIP3    H2 6853   3.387   3.405   5.140
 2283TIP3   OH2 6854   1.157   3.366   3.673
 2283TIP3    H1 6855   1.104   3.367   3.753
 2283TIP3    H2 6856   1.245   3.391   3.702
 2284TIP3   OH2 6857   1.582   1.709   2.140
 2284TIP3    H1 6858   1.560   1.656   2.216
 2284TIP3    H2 6859   1.499   1.725   2.096
 2285TIP3   OH2 6860   3.625   2.342   4.009
 2285TIP3    H1 6861   3.578   2.258   4.005
 2285TIP3    H2 6862   3.708   2.325   3.964
 2286TIP3   OH2 6863   0.719   3.061   4.265
 2286TIP3    H1 6864   0.739   3.039   4.174
 2286TIP3    H2 6865   0.762   2.993   4.316
 2287TIP3   OH2 6866   1.231   4.702   1.554
 2287TIP3    H1 6867   1.196   4.620   1.588
 2287TIP3    H2 6868   1.157   4.744   1.510
 2288TIP3   OH2 6869   0.710   0.414   4.085
 2288TIP3    H1 6870   0.616   0.418   4.101
 2288TIP3    H2 6871   0.750   0.433   4.170
 2289TIP3   OH2 6872   3.202   2.462   4.605
 2289TIP3    H1 6873   3.184   2.401   4.677
 2289TIP3    H2 6874   3.208   2.548   4.648
 2290TIP3   OH2 6875   4.531   3.821   4.980
 2290TIP3    H1 6876   4.446   3.828   4.936
 2290TIP3    H2 6877   4.578   3.900   4.952
 2291TIP3   OH2 6878   1.646   2.799   3.143
 2291TIP3    H1 6879   1.715   2.864   3.154
 2291TIP3    H2 6880   1.610   2.815   3.056
 2292TIP3   OH2 6881   3.859   3.389   0.928
 2292TIP3    H1 6882   3.852   3.399   1.023
 2292TIP3    H2 6883   3.930   3.327   0.915
 2293TIP3   OH2 6884   1.728   2.326   4.400
 2293TIP3    H1 6885   1.709   2.285   4.484
 2293TIP3    H2 6886   1.653   2.305   4.345
 2294TIP3   OH2 6887   1.453   3.428   3.518
 2294TIP3    H1 6888   1.524   3.391   3.467
 2294TIP3    H2 6889   1.373   3.398   3.474
 2295TIP3   OH2 6890   2.631   5.717   4.635
 2295TIP3    H1 6891   2.554   5.681   4.591
 2295TIP3    H2 6892   2.655   5.794   4.584
 2296TIP3   OH2 6893   3.733   3.650   1.859
 2296TIP3    H1 6894   3.777   3.735   1.871
 2296TIP3    H2 6895   3.667   3.666   1.793
 2297TIP3   OH2 6896   3.512   5.441   0.725
 2297TIP3    H1 6897   3.536   5.425   0.633
 2297TIP3    H2 6898   3.470   5.527   0.724
 2298TIP3   OH2 6899   6.080   1.967   3.276
 2298TIP3    H1 6900   6.122   1.885   3.249
 2298TIP3    H2 6901   6.153   2.024   3.300
 2299TIP3   OH2 6902   3.246   3.712   2.690
 2299TIP3    H1 6903   3.250   3.664   2.773
 2299TIP3    H2 6904   3.315   3.778   2.697
 2300TIP3   OH2 6905   0.615   3.518   0.820
 2300TIP3    H1 6906   0.665   3.575   0.878
 2300TIP3    H2 6907   0.538   3.569   0.795
 2301TIP3   OH2 6908   5.859   5.098   3.716
 2301TIP3    H1 6909   5.930   5.033   3.714
 2301TIP3    H2 6910   5.876   5.149   3.795
 2302TIP3   OH2 6911   4.704   2.508   3.839
 2302TIP3    H1 6912   4.620   2.514   3.883
 2302TIP3    H2 6913   4.756   2.580   3.875
 2303TIP3   OH2 6914   0.988   4.099   2.331
 2303TIP3    H1 6915   0.988   4.140   2.418
 2303TIP3    H2 6916   0.981   4.173   2.270
 2304TIP3   OH2 6917   1.334   1.299   3.487
 2304TIP3    H1 6918   1.245   1.278   3.457
 2304TIP3    H2 6919   1.345   1.245   3.566
 2305TIP3   OH2 6920   2.918   2.375   0.390
 2305TIP3    H1 6921   2.869   2.317   0.331
 2305TIP3    H2 6922   3.002   2.387   0.347
 2306TIP3   OH2 6923   2.907   1.856   0.238
 2306TIP3    H1 6924   2.902   1.761   0.245
 2306TIP3    H2 6925   2.878   1.888   0.324
 2307TIP3   OH2 6926   3.623   3.122   2.476
 2307TIP3    H1 6927   3.618   3.044   2.421
 2307TIP3    H2 6928   3.571   3.188   2.430
 2308TIP3   OH2 6929   5.322   5.216   1.533
 2308TIP3    H1 6930   5.331   5.127   1.568
 2308TIP3    H2 6931   5.371   5.271   1.594
 2309TIP3   OH2 6932   3.213   4.441   1.950
 2309TIP3    H1 6933   3.149   4.497   1.992
 2309TIP3    H2 6934   3.161   4.379   1.898
 2310TIP3   OH2 6935   1.810   1.939   4.354
 2310TIP3    H1 6936   1.883   1.999   4.366
 2310TIP3    H2 6937   1.764   1.972   4.277
 2311TIP3   OH2 6938   6.354   1.658   1.487
 2311TIP3    H1 6939   6.289   1.619   1.429
 2311TIP3    H2 6940   6.438   1.640   1.445
 2312TIP3   OH2 6941   5.441   3.264   4.957
 2312TIP3    H1 6942   5.448   3.200   4.886
 2312TIP3    H2 6943   5.363   3.236   5.006
 2313TIP3   OH2 6944   4.370   4.094   0.731
 2313TIP3    H1 6945   4.334   4.013   0.768
 2313TIP3    H2 6946   4.405   4.069   0.646
 2314TIP3   OH2 6947   0.161   4.802   0.146
 2314TIP3    H1 6948   0.111   4.806   0.064
 2314TIP3    H2 6949   0.095   4.784   0.213
 2315TIP3   OH2 6950   0.453   3.208   5.113
 2315TIP3    H1 6951   0.531   3.207   5.168
 2315TIP3    H2 6952   0.393   3.269   5.157
 2316TIP3   OH2 6953   4.794   5.865   5.050
 2316TIP3    H1 6954   4.737   5.789   5.063
 2316TIP3    H2 6955   4.741   5.940   5.080
 2317TIP3   OH2 6956  -0.054   4.527   3.566
 2317TIP3    H1 6957   0.005   4.555   3.636
 2317TIP3    H2 6958   0.004   4.489   3.500
 2318TIP3   OH2 6959   5.822   1.757   2.416
 2318TIP3    H1 6960   5.843   1.680   2.365
 2318TIP3    H2 6961   5.864   1.829   2.369
 2319TIP3   OH2 6962   2.076   5.977   4.007
 2319TIP3    H1 6963   2.102   5.969   4.099
 2319TIP3    H2 6964   2.059   5.886   3.980
 2320TIP3   OH2 6965   4.738   1.291   2.535
 2320TIP3    H1 6966   4.706   1.326   2.452
 2320TIP3    H2 6967   4.680   1.329   2.601
 2321TIP3   OH2 6968   4.645   5.728   3.347
 2321TIP3    H1 6969   4.714   5.791   3.366
 2321TIP3    H2 6970   4.686   5.666   3.287
 2322TIP3   OH2 6971   4.510   3.155   2.183
 2322TIP3    H1 6972   4.536   3.229   2.238
 2322TIP3    H2 6973   4.509   3.191   2.094
 2323TIP3   OH2 6974   2.120   5.509   2.551
 2323TIP3    H1 6975   2.024   5.508   2.550
 2323TIP3    H2 6976   2.145   5.527   2.461
 2324TIP3   OH2 6977   5.940   4.421   0.221
 2324TIP3    H1 6978   5.976   4.439   0.308
 2324TIP3    H2 6979   5.942   4.505   0.176
 2325TIP3   OH2 6980   5.325   2.776   1.483
 2325TIP3    H1 6981   5.284   2.693   1.458
 2325TIP3    H2 6982   5.362   2.759   1.570
 2326TIP3   OH2 6983   0.651   4.225   3.032
 2326TIP3    H1 6984   0.562   4.204   3.060
 2326TIP3    H2 6985   0.686   4.280   3.102
 2327TIP3   OH2 6986   3.168   4.873   3.202
 2327TIP3    H1 6987   3.221   4.860   3.124
 2327TIP3    H2 6988   3.130   4.961   3.191
 2328TIP3   OH2 6989   6.358   3.408   5.115
 2328TIP3    H1 6990   6.293   3.347   5.081
 2328TIP3    H2 6991   6.336   3.492   5.076
 2329TIP3   OH2 6992   3.799   0.538   3.870
 2329TIP3    H1 6993   3.869   0.603   3.868
 2329TIP3    H2 6994   3.820   0.479   3.797
 2330TIP3   OH2 6995   5.637   0.828   3.187
 2330TIP3    H1 6996   5.610   0.889   3.119
 2330TIP3    H2 6997   5.651   0.745   3.142
 2331TIP3   OH2 6998   1.706   0.328   1.862
 2331TIP3    H1 6999   1.794   0.366   1.866
 2331TIP3    H2 7000   1.649   0.403   1.845
 2332TIP3   OH2 7001   5.349   3.501   1.023
 2332TIP3    H1 7002   5.364   3.460   0.938
 2332TIP3    H2 7003   5.279   3.450   1.062
 2333TIP3   OH2 7004   0.343   1.869   3.337
 2333TIP3    H1 7005   0.250   1.849   3.332
 2333TIP3    H2 7006   0.361   1.878   3.431
 2334TIP3   OH2 7007   4.615   2.779   4.677
 2334TIP3    H1 7008   4.656   2.713   4.621
 2334TIP3    H2 7009   4.653   2.765   4.764
 2335TIP3   OH2 7010   2.212   3.975   0.085
 2335TIP3    H1 7011   2.248   4.041   0.144
 2335TIP3    H2 7012   2.152   4.024   0.028
 2336TIP3   OH2 7013   1.967   5.276   0.295
 2336TIP3    H1 7014   1.887   5.234   0.324
 2336TIP3    H2 7015   2.034   5.249   0.357
 2337TIP3   OH2 7016   2.329   0.031   1.920
 2337TIP3    H1 7017   2.295  -0.031   1.856
 2337TIP3    H2 7018   2.268   0.105   1.916
 2338TIP3   OH2 7019   0.307   1.246   2.805
 2338TIP3    H1 7020   0.322   1.177   2.740
 2338TIP3    H2 7021   0.268   1.318   2.754
 2339TIP3   OH2 7022   5.798   5.991   4.861
 2339TIP3    H1 7023   5.792   5.960   4.952
 2339TIP3    H2 7024   5.727   5.945   4.816
 2340TIP3   OH2 7025   0.496   0.664   4.339
 2340TIP3    H1 7026   0.446   0.592   4.301
 2340TIP3    H2 7027   0.451   0.686   4.420
 2341TIP3   OH2 7028   1.812   4.252   3.991
 2341TIP3    H1 7029   1.787   4.276   3.902
 2341TIP3    H2 7030   1.796   4.158   3.997
 2342TIP3   OH2 7031   1.336   0.412   4.727
 2342TIP3    H1 7032   1.336   0.502   4.695
 2342TIP3    H2 7033   1.314   0.359   4.650
 2343TIP3   OH2 7034   4.654   3.995   4.480
 2343TIP3    H1 7035   4.721   4.014   4.546
 2343TIP3    H2 7036   4.704   3.986   4.398
 2344TIP3   OH2 7037   5.276   0.210   1.050
 2344TIP3    H1 7038   5.317   0.274   1.108
 2344TIP3    H2 7039   5.260   0.259   0.969
 2345TIP3   OH2 7040   1.792   4.449   2.381
 2345TIP3    H1 7041   1.808   4.469   2.473
 2345TIP3    H2 7042   1.865   4.392   2.356
 2346TIP3   OH2 7043   3.562   0.557   3.987
 2346TIP3    H1 7044   3.628   0.549   3.919
 2346TIP3    H2 7045   3.527   0.468   3.997
 2347TIP3   OH2 7046   5.282   0.390   2.564
 2347TIP3    H1 7047   5.301   0.482   2.584
 2347TIP3    H2 7048   5.256   0.353   2.648
 2348TIP3   OH2 7049   5.837   4.327   3.040
 2348TIP3    H1 7050   5.875   4.250   2.997
 2348TIP3    H2 7051   5.883   4.401   3.001
 2349TIP3   OH2 7052   4.038   0.171   3.859
 2349TIP3    H1 7053   3.969   0.115   3.823
 2349TIP3    H2 7054   4.089   0.113   3.915
 2350TIP3   OH2 7055   2.038   1.911   2.260
 2350TIP3    H1 7056   2.066   1.828   2.221
 2350TIP3    H2 7057   1.943   1.913   2.246
 2351TIP3   OH2 7058   2.672   0.552   1.381
 2351TIP3    H1 7059   2.665   0.568   1.475
 2351TIP3    H2 7060   2.596   0.498   1.360
 2352TIP3   OH2 7061   0.760   2.711   4.878
 2352TIP3    H1 7062   0.689   2.752   4.830
 2352TIP3    H2 7063   0.726   2.702   4.968
 2353TIP3   OH2 7064   1.361   0.046   5.092
 2353TIP3    H1 7065   1.359   0.077   5.183
 2353TIP3    H2 7066   1.380   0.124   5.040
 2354TIP3   OH2 7067   1.863   1.435   2.253
 2354TIP3    H1 7068   1.887   1.491   2.327
 2354TIP3    H2 7069   1.850   1.496   2.180
 2355TIP3   OH2 7070   4.289   1.662   4.740
 2355TIP3    H1 7071   4.289   1.735   4.802
 2355TIP3    H2 7072   4.382   1.644   4.724
 2356TIP3   OH2 7073   2.136   3.641   0.492
 2356TIP3    H1 7074   2.149   3.733   0.470
 2356TIP3    H2 7075   2.196   3.625   0.565
 2357TIP3   OH2 7076   4.187   2.070   5.116
 2357TIP3    H1 7077   4.228   1.993   5.075
 2357TIP3    H2 7078   4.158   2.039   5.202
 2358TIP3   OH2 7079   0.392   3.967   2.849
 2358TIP3    H1 7080   0.297   3.957   2.861
 2358TIP3    H2 7081   0.427   3.879   2.861
 2359TIP3   OH2 7082   3.918   3.809   0.606
 2359TIP3    H1 7083   3.989   3.827   0.544
 2359TIP3    H2 7084   3.841   3.793   0.551
 2360TIP3   OH2 7085   3.396   0.369   4.089
 2360TIP3    H1 7086   3.334   0.413   4.147
 2360TIP3    H2 7087   3.359   0.281   4.077
 2361TIP3   OH2 7088   0.725   3.210   1.742
 2361TIP3    H1 7089   0.706   3.245   1.655
 2361TIP3    H2 7090   0.654   3.150   1.760
 2362TIP3   OH2 7091   1.620   2.003   4.154
 2362TIP3    H1 7092   1.584   2.091   4.159
 2362TIP3    H2 7093   1.644   1.991   4.062
 2363TIP3   OH2 7094   6.385   1.769   3.847
 2363TIP3    H1 7095   6.336   1.799   3.923
 2363TIP3    H2 7096   6.409   1.678   3.868
 2364TIP3   OH2 7097   2.441   1.567   2.507
 2364TIP3    H1 7098   2.526   1.608   2.523
 2364TIP3    H2 7099   2.389   1.588   2.585
 2365TIP3   OH2 7100   1.089   4.763   0.738
 2365TIP3    H1 7101   1.048   4.679   0.757
 2365TIP3    H2 7102   1.084   4.771   0.643
 2366TIP3   OH2 7103   3.543   2.157   3.334
 2366TIP3    H1 7104   3.555   2.113   3.418
 2366TIP3    H2 7105   3.469   2.112   3.294
 2367TIP3   OH2 7106   5.279   1.115   3.424
 2367TIP3    H1 7107   5.327   1.062   3.487
 2367TIP3    H2 7108   5.326   1.199   3.422
 2368TIP3   OH2 7109   1.689   4.817   1.130
 2368TIP3    H1 7110   1.647   4.755   1.189
 2368TIP3    H2 7111   1.657   4.793   1.043
 2369TIP3   OH2 7112   1.382   3.446   1.771
 2369TIP3    H1 7113   1.332   3.365   1.773
 2369TIP3    H2 7114   1.385   3.471   1.679
 2370TIP3   OH2 7115   0.750   5.722   4.921
 2370TIP3    H1 7116   0.772   5.668   4.997
 2370TIP3    H2 7117   0.830   5.721   4.868
 2371TIP3   OH2 7118   3.515   1.256   3.921
 2371TIP3    H1 7119   3.557   1.250   3.835
 2371TIP3    H2 7120   3.440   1.313   3.907
 2372TIP3   OH2 7121   6.372   3.151   4.555
 2372TIP3    H1 7122   6.416   3.067   4.540
 2372TIP3    H2 7123   6.353   3.183   4.467
 2373TIP3   OH2 7124   1.838   1.628   2.075
 2373TIP3    H1 7125   1.891   1.707   2.075
 2373TIP3    H2 7126   1.750   1.658   2.097
 2374TIP3   OH2 7127   4.465   4.824   3.520
 2374TIP3    H1 7128   4.543   4.857   3.477
 2374TIP3    H2 7129   4.485   4.731   3.537
 2375TIP3   OH2 7130   4.671   2.149   1.795
 2375TIP3    H1 7131   4.739   2.217   1.787
 2375TIP3    H2 7132   4.681   2.096   1.716
 2376TIP3   OH2 7133   1.880   2.316   1.858
 2376TIP3    H1 7134   1.926   2.393   1.891
 2376TIP3    H2 7135   1.946   2.267   1.810
 2377TIP3   OH2 7136   5.118   5.256   4.104
 2377TIP3    H1 7137   5.119   5.171   4.062
 2377TIP3    H2 7138   5.044   5.302   4.065
 2378TIP3   OH2 7139   4.001   2.056   3.694
 2378TIP3    H1 7140   3.982   1.977   3.643
 2378TIP3    H2 7141   4.097   2.062   3.693
 2379TIP3   OH2 7142   2.925   5.167   0.052
 2379TIP3    H1 7143   2.893   5.222   0.123
 2379TIP3    H2 7144   2.984   5.104   0.095
 2380TIP3   OH2 7145   4.420   0.110   4.192
 2380TIP3    H1 7146   4.356   0.045   4.222
 2380TIP3    H2 7147   4.367   0.185   4.164
 2381TIP3   OH2 7148   6.347   2.201   1.703
 2381TIP3    H1 7149   6.358   2.157   1.788
 2381TIP3    H2 7150   6.254   2.219   1.698
 2382TIP3   OH2 7151   0.341   4.900   1.031
 2382TIP3    H1 7152   0.382   4.928   1.113
 2382TIP3    H2 7153   0.341   4.979   0.977
 2383TIP3   OH2 7154   6.186   4.197   0.351
 2383TIP3    H1 7155   6.149   4.265   0.408
 2383TIP3    H2 7156   6.180   4.234   0.263
 2384TIP3   OH2 7157   1.043   5.727   2.074
 2384TIP3    H1 7158   0.974   5.789   2.099
 2384TIP3    H2 7159   1.124   5.768   2.102
 2385TIP3   OH2 7160   3.430   0.267   0.345
 2385TIP3    H1 7161   3.448   0.284   0.252
 2385TIP3    H2 7162   3.396   0.178   0.347
 2386TIP3   OH2 7163   1.670   0.217   2.818
 2386TIP3    H1 7164   1.718   0.174   2.747
 2386TIP3    H2 7165   1.627   0.145   2.865
 2387TIP3   OH2 7166   1.462   3.630   1.552
 2387TIP3    H1 7167   1.482   3.722   1.537
 2387TIP3    H2 7168   1.367   3.624   1.540
 2388TIP3   OH2 7169   0.903   1.488   4.422
 2388TIP3    H1 7170   0.953   1.444   4.354
 2388TIP3    H2 7171   0.891   1.421   4.490
 2389TIP3   OH2 7172   5.318   3.603   1.336
 2389TIP3    H1 7173   5.329   3.576   1.427
 2389TIP3    H2 7174   5.248   3.546   1.303
 2390TIP3   OH2 7175   2.627   0.311   4.080
 2390TIP3    H1 7176   2.542   0.355   4.084
 2390TIP3    H2 7177   2.652   0.318   3.988
 2391TIP3   OH2 7178   1.904   2.383   0.082
 2391TIP3    H1 7179   1.851   2.374   0.002
 2391TIP3    H2 7180   1.854   2.336   0.149
 2392TIP3   OH2 7181   4.564   0.051   2.591
 2392TIP3    H1 7182   4.496   0.118   2.588
 2392TIP3    H2 7183   4.524  -0.022   2.637
 2393TIP3   OH2 7184   0.336   3.628   0.684
 2393TIP3    H1 7185   0.359   3.563   0.618
 2393TIP3    H2 7186   0.282   3.580   0.747
 2394TIP3   OH2 7187   2.079   5.638   0.873
 2394TIP3    H1 7188   1.998   5.590   0.857
 2394TIP3    H2 7189   2.106   5.670   0.787
 2395TIP3   OH2 7190   4.058   5.590   4.929
 2395TIP3    H1 7191   4.039   5.532   5.003
 2395TIP3    H2 7192   4.100   5.533   4.864
 2396TIP3   OH2 7193   2.222   3.085   3.455
 2396TIP3    H1 7194   2.258   3.001   3.482
 2396TIP3    H2 7195   2.261   3.149   3.514
 2397TIP3   OH2 7196   2.539   0.443   2.361
 2397TIP3    H1 7197   2.461   0.438   2.306
 2397TIP3    H2 7198   2.512   0.406   2.445
 2398TIP3   OH2 7199   0.213   2.183   3.544
 2398TIP3    H1 7200   0.176   2.232   3.471
 2398TIP3    H2 7201   0.141   2.128   3.576
 2399TIP3   OH2 7202   3.196   2.104   4.575
 2399TIP3    H1 7203   3.275   2.134   4.531
 2399TIP3    H2 7204   3.222   2.023   4.618
 2400TIP3   OH2 7205   3.071   1.482   3.607
 2400TIP3    H1 7206   3.124   1.403   3.612
 2400TIP3    H2 7207   2.984   1.454   3.636
 2401TIP3   OH2 7208   1.300   3.364   4.974
 2401TIP3    H1 7209   1.264   3.290   5.023
 2401TIP3    H2 7210   1.393   3.342   4.965
 2402TIP3   OH2 7211   1.230   3.394   1.225
 2402TIP3    H1 7212   1.187   3.478   1.214
 2402TIP3    H2 7213   1.322   3.411   1.207
 2403TIP3   OH2 7214   6.076   0.671   1.366
 2403TIP3    H1 7215   6.039   0.688   1.279
 2403TIP3    H2 7216   6.003   0.687   1.426
 2404TIP3   OH2 7217   0.851   3.176   4.737
 2404TIP3    H1 7218   0.865   3.089   4.701
 2404TIP3    H2 7219   0.937   3.217   4.733
 2405TIP3   OH2 7220   5.814   0.381   3.931
 2405TIP3    H1 7221   5.852   0.305   3.889
 2405TIP3    H2 7222   5.877   0.451   3.915
 2406TIP3   OH2 7223   1.968   5.896   2.236
 2406TIP3    H1 7224   2.003   5.907   2.325
 2406TIP3    H2 7225   2.040   5.857   2.187
 2407TIP3   OH2 7226   4.819   0.825   3.422
 2407TIP3    H1 7227   4.840   0.798   3.332
 2407TIP3    H2 7228   4.819   0.920   3.419
 2408TIP3   OH2 7229   6.286   4.269   3.632
 2408TIP3    H1 7230   6.255   4.351   3.593
 2408TIP3    H2 7231   6.365   4.247   3.583
 2409TIP3   OH2 7232   4.272   5.775   0.399
 2409TIP3    H1 7233   4.328   5.730   0.336
 2409TIP3    H2 7234   4.325   5.849   0.430
 2410TIP3   OH2 7235   4.923   5.714   4.311
 2410TIP3    H1 7236   4.837   5.756   4.310
 2410TIP3    H2 7237   4.904   5.621   4.319
 2411TIP3   OH2 7238   5.832   0.102   3.312
 2411TIP3    H1 7239   5.900   0.156   3.354
 2411TIP3    H2 7240   5.762   0.099   3.377
 2412TIP3   OH2 7241   1.296   0.582   4.343
 2412TIP3    H1 7242   1.357   0.628   4.286
 2412TIP3    H2 7243   1.349   0.516   4.387
 2413TIP3   OH2 7244   1.621   4.914   2.612
 2413TIP3    H1 7245   1.711   4.892   2.635
 2413TIP3    H2 7246   1.568   4.874   2.682
 2414TIP3   OH2 7247   2.309   4.146   0.268
 2414TIP3    H1 7248   2.291   4.195   0.348
 2414TIP3    H2 7249   2.399   4.115   0.278
 2415TIP3   OH2 7250   3.393   4.558   4.111
 2415TIP3    H1 7251   3.303   4.589   4.110
 2415TIP3    H2 7252   3.389   4.469   4.076
 2416TIP3   OH2 7253   5.764   2.120   2.056
 2416TIP3    H1 7254   5.797   2.111   2.146
 2416TIP3    H2 7255   5.745   2.214   2.048
 2417TIP3   OH2 7256   6.233   2.689   5.009
 2417TIP3    H1 7257   6.199   2.698   5.098
 2417TIP3    H2 7258   6.328   2.678   5.021
 2418TIP3   OH2 7259   5.254   5.523   4.856
 2418TIP3    H1 7260   5.295   5.463   4.918
 2418TIP3    H2 7261   5.206   5.466   4.795
 2419TIP3   OH2 7262   2.237   4.620   3.494
 2419TIP3    H1 7263   2.154   4.607   3.540
 2419TIP3    H2 7264   2.239   4.714   3.475
 2420TIP3   OH2 7265   2.109   3.318   0.825
 2420TIP3    H1 7266   2.069   3.231   0.825
 2420TIP3    H2 7267   2.079   3.359   0.744
 2421TIP3   OH2 7268   1.693   4.895   4.738
 2421TIP3    H1 7269   1.640   4.951   4.682
 2421TIP3    H2 7270   1.702   4.944   4.820
 2422TIP3   OH2 7271   6.121   4.323   0.580
 2422TIP3    H1 7272   6.189   4.374   0.623
 2422TIP3    H2 7273   6.114   4.243   0.632
 2423TIP3   OH2 7274   5.692   2.394   1.965
 2423TIP3    H1 7275   5.664   2.483   1.983
 2423TIP3    H2 7276   5.616   2.353   1.924
 2424TIP3   OH2 7277   0.528   3.758   0.421
 2424TIP3    H1 7278   0.606   3.792   0.379
 2424TIP3    H2 7279   0.561   3.703   0.493
 2425TIP3   OH2 7280   5.185   1.451   1.237
 2425TIP3    H1 7281   5.163   1.541   1.216
 2425TIP3    H2 7282   5.143   1.399   1.168
 2426TIP3   OH2 7283   1.815   0.415   1.570
 2426TIP3    H1 7284   1.893   0.468   1.587
 2426TIP3    H2 7285   1.848   0.327   1.553
 2427TIP3   OH2 7286   1.365   1.812   0.492
 2427TIP3    H1 7287   1.344   1.763   0.413
 2427TIP3    H2 7288   1.459   1.799   0.504
 2428TIP3   OH2 7289   3.325   1.473   0.895
 2428TIP3    H1 7290   3.270   1.408   0.852
 2428TIP3    H2 7291   3.276   1.555   0.888
 2429TIP3   OH2 7292   5.593   4.747   2.190
 2429TIP3    H1 7293   5.657   4.789   2.132
 2429TIP3    H2 7294   5.594   4.655   2.165
 2430TIP3   OH2 7295   1.263   2.223   2.462
 2430TIP3    H1 7296   1.321   2.199   2.390
 2430TIP3    H2 7297   1.216   2.300   2.429
 2431TIP3   OH2 7298   1.228   2.569   3.813
 2431TIP3    H1 7299   1.321   2.559   3.830
 2431TIP3    H2 7300   1.206   2.497   3.753
 2432TIP3   OH2 7301   0.986  -0.011   3.012
 2432TIP3    H1 7302   0.892   0.007   3.020
 2432TIP3    H2 7303   1.013   0.033   2.932
 2433TIP3   OH2 7304   3.630   0.684   5.034
 2433TIP3    H1 7305   3.580   0.727   5.104
 2433TIP3    H2 7306   3.671   0.609   5.077
 2434TIP3   OH2 7307   0.149   2.534   0.868
 2434TIP3    H1 7308   0.065   2.491   0.851
 2434TIP3    H2 7309   0.204   2.466   0.906
 2435TIP3   OH2 7310   2.799   0.788   2.166
 2435TIP3    H1 7311   2.841   0.704   2.184
 2435TIP3    H2 7312   2.714   0.766   2.129
 2436TIP3   OH2 7313   5.147   3.910   5.005
 2436TIP3    H1 7314   5.168   3.912   4.912
 2436TIP3    H2 7315   5.052   3.922   5.010
 2437TIP3   OH2 7316   0.544   2.056   0.427
 2437TIP3    H1 7317   0.607   1.984   0.440
 2437TIP3    H2 7318   0.499   2.033   0.345
 2438TIP3   OH2 7319   3.244   5.686   3.340
 2438TIP3    H1 7320   3.188   5.764   3.340
 2438TIP3    H2 7321   3.234   5.649   3.427
 2439TIP3   OH2 7322   2.236   1.760   1.892
 2439TIP3    H1 7323   2.290   1.829   1.931
 2439TIP3    H2 7324   2.254   1.765   1.798
 2440TIP3   OH2 7325   0.973   4.611   3.036
 2440TIP3    H1 7326   0.887   4.646   3.059
 2440TIP3    H2 7327   0.955   4.535   2.981
 2441TIP3   OH2 7328   6.313   3.572   3.228
 2441TIP3    H1 7329   6.314   3.557   3.133
 2441TIP3    H2 7330   6.225   3.603   3.246
 2442TIP3   OH2 7331   2.274   3.055   1.732
 2442TIP3    H1 7332   2.268   3.058   1.828
 2442TIP3    H2 7333   2.203   2.997   1.706
 2443TIP3   OH2 7334   3.158   2.293   1.364
 2443TIP3    H1 7335   3.196   2.349   1.432
 2443TIP3    H2 7336   3.072   2.269   1.398
 2444TIP3   OH2 7337   5.973   2.043   2.762
 2444TIP3    H1 7338   5.922   1.985   2.705
 2444TIP3    H2 7339   5.997   1.988   2.837
 2445TIP3   OH2 7340   6.052   3.317   1.104
 2445TIP3    H1 7341   6.015   3.332   1.017
 2445TIP3    H2 7342   6.083   3.403   1.133
 2446TIP3   OH2 7343   0.586   1.437   1.487
 2446TIP3    H1 7344   0.560   1.358   1.535
 2446TIP3    H2 7345   0.562   1.418   1.396
 2447TIP3   OH2 7346   2.123   1.685   2.156
 2447TIP3    H1 7347   2.146   1.707   2.065
 2447TIP3    H2 7348   2.130   1.590   2.159
 2448TIP3   OH2 7349   5.214   4.012   1.002
 2448TIP3    H1 7350   5.128   4.054   1.010
 2448TIP3    H2 7351   5.201   3.941   0.939
 2449TIP3   OH2 7352   2.427   0.126   3.261
 2449TIP3    H1 7353   2.396   0.042   3.226
 2449TIP3    H2 7354   2.425   0.185   3.185
 2450TIP3   OH2 7355   4.685   0.905   0.159
 2450TIP3    H1 7356   4.772   0.936   0.133
 2450TIP3    H2 7357   4.656   0.851   0.086
 2451TIP3   OH2 7358   4.126   4.151   0.611
 2451TIP3    H1 7359   4.216   4.167   0.638
 2451TIP3    H2 7360   4.088   4.099   0.682
 2452TIP3   OH2 7361   3.133   2.680   4.754
 2452TIP3    H1 7362   3.047   2.683   4.713
 2452TIP3    H2 7363   3.146   2.769   4.788
 2453TIP3   OH2 7364   6.179   4.703   1.162
 2453TIP3    H1 7365   6.221   4.638   1.106
 2453TIP3    H2 7366   6.119   4.749   1.104
 2454TIP3   OH2 7367   0.581   5.058   0.531
 2454TIP3    H1 7368   0.649   5.062   0.598
 2454TIP3    H2 7369   0.626   5.027   0.453
 2455TIP3   OH2 7370   3.844   2.742   4.317
 2455TIP3    H1 7371   3.809   2.728   4.404
 2455TIP3    H2 7372   3.912   2.675   4.307
 2456TIP3   OH2 7373   0.168   4.731   4.747
 2456TIP3    H1 7374   0.086   4.726   4.797
 2456TIP3    H2 7375   0.152   4.798   4.681
 2457TIP3   OH2 7376   0.833   1.337   5.155
 2457TIP3    H1 7377   0.770   1.401   5.121
 2457TIP3    H2 7378   0.907   1.343   5.096
 2458TIP3   OH2 7379   0.234   5.661   0.632
 2458TIP3    H1 7380   0.207   5.690   0.719
 2458TIP3    H2 7381   0.237   5.741   0.580
 2459TIP3   OH2 7382   5.402   4.551   1.513
 2459TIP3    H1 7383   5.334   4.586   1.571
 2459TIP3    H2 7384   5.434   4.474   1.560
 2460TIP3   OH2 7385   0.150   0.635   4.758
 2460TIP3    H1 7386   0.123   0.722   4.784
 2460TIP3    H2 7387   0.100   0.617   4.678
 2461TIP3   OH2 7388   5.146   2.854   4.500
 2461TIP3    H1 7389   5.210   2.925   4.501
 2461TIP3    H2 7390   5.115   2.851   4.410
 2462TIP3   OH2 7391   5.683   1.548   4.032
 2462TIP3    H1 7392   5.650   1.458   4.042
 2462TIP3    H2 7393   5.657   1.591   4.113
 2463TIP3   OH2 7394   2.187   0.494   3.522
 2463TIP3    H1 7395   2.157   0.417   3.473
 2463TIP3    H2 7396   2.278   0.506   3.494
 2464TIP3   OH2 7397   4.724   5.327   2.460
 2464TIP3    H1 7398   4.656   5.282   2.409
 2464TIP3    H2 7399   4.804   5.278   2.441
 2465TIP3   OH2 7400   5.819   5.090   4.764
 2465TIP3    H1 7401   5.728   5.103   4.789
 2465TIP3    H2 7402   5.815   5.024   4.694
 2466TIP3   OH2 7403   1.360   4.468   5.066
 2466TIP3    H1 7404   1.425   4.399   5.052
 2466TIP3    H2 7405   1.399   4.523   5.134
 2467TIP3   OH2 7406   3.080   3.981   2.463
 2467TIP3    H1 7407   3.012   3.914   2.467
 2467TIP3    H2 7408   3.091   4.010   2.554
 2468TIP3   OH2 7409   4.964   1.501   1.821
 2468TIP3    H1 7410   5.017   1.534   1.748
 2468TIP3    H2 7411   4.983   1.407   1.823
 2469TIP3   OH2 7412   4.022   2.027   0.848
 2469TIP3    H1 7413   4.072   1.982   0.916
 2469TIP3    H2 7414   4.042   1.979   0.768
 2470TIP3   OH2 7415   2.043   0.641   3.208
 2470TIP3    H1 7416   2.117   0.580   3.202
 2470TIP3    H2 7417   2.074   0.710   3.267
 2471TIP3   OH2 7418   4.938   5.649   2.716
 2471TIP3    H1 7419   4.963   5.738   2.743
 2471TIP3    H2 7420   5.022   5.603   2.706
 2472TIP3   OH2 7421   2.708   3.501   5.010
 2472TIP3    H1 7422   2.765   3.560   5.059
 2472TIP3    H2 7423   2.650   3.560   4.962
 2473TIP3   OH2 7424   3.913   1.360   3.924
 2473TIP3    H1 7425   3.875   1.277   3.953
 2473TIP3    H2 7426   3.979   1.381   3.990
 2474TIP3   OH2 7427   2.750   5.923   4.476
 2474TIP3    H1 7428   2.740   5.922   4.381
 2474TIP3    H2 7429   2.722   6.011   4.502
 2475TIP3   OH2 7430   4.509   0.387   0.293
 2475TIP3    H1 7431   4.444   0.346   0.350
 2475TIP3    H2 7432   4.593   0.354   0.325
 2476TIP3   OH2 7433   0.718   5.275   3.008
 2476TIP3    H1 7434   0.789   5.269   2.944
 2476TIP3    H2 7435   0.756   5.324   3.081
 2477TIP3   OH2 7436   0.325   4.296   5.056
 2477TIP3    H1 7437   0.249   4.253   5.096
 2477TIP3    H2 7438   0.393   4.228   5.057
 2478TIP3   OH2 7439   1.481   1.967   3.142
 2478TIP3    H1 7440   1.462   1.972   3.235
 2478TIP3    H2 7441   1.398   1.944   3.101
 2479TIP3   OH2 7442   5.110   2.700   0.620
 2479TIP3    H1 7443   5.164   2.734   0.549
 2479TIP3    H2 7444   5.144   2.744   0.698
 2480TIP3   OH2 7445   1.517   0.874   1.849
 2480TIP3    H1 7446   1.505   0.968   1.862
 2480TIP3    H2 7447   1.475   0.857   1.765
 2481TIP3   OH2 7448   5.982   5.212   4.944
 2481TIP3    H1 7449   5.941   5.167   4.870
 2481TIP3    H2 7450   5.939   5.175   5.021
 2482TIP3   OH2 7451   4.046   2.145   2.737
 2482TIP3    H1 7452   4.007   2.127   2.652
 2482TIP3    H2 7453   4.095   2.066   2.758
 2483TIP3   OH2 7454   2.700   2.363   1.979
 2483TIP3    H1 7455   2.690   2.345   2.072
 2483TIP3    H2 7456   2.649   2.295   1.935
 2484TIP3   OH2 7457   3.026   3.880   2.712
 2484TIP3    H1 7458   2.965   3.835   2.771
 2484TIP3    H2 7459   3.085   3.811   2.682
 2485TIP3   OH2 7460   1.360   0.194   2.147
 2485TIP3    H1 7461   1.352   0.193   2.242
 2485TIP3    H2 7462   1.399   0.109   2.126
 2486TIP3   OH2 7463   2.744   3.725   0.143
 2486TIP3    H1 7464   2.817   3.696   0.198
 2486TIP3    H2 7465   2.722   3.812   0.176
 2487TIP3   OH2 7466   0.048   4.172   2.495
 2487TIP3    H1 7467   0.014   4.164   2.406
 2487TIP3    H2 7468  -0.029   4.194   2.548
 2488TIP3   OH2 7469   0.413   0.392   4.075
 2488TIP3    H1 7470   0.350   0.454   4.112
 2488TIP3    H2 7471   0.365   0.348   4.005
 2489TIP3   OH2 7472   0.904   0.944   4.271
 2489TIP3    H1 7473   0.912   0.849   4.262
 2489TIP3    H2 7474   0.983   0.979   4.230
 2490TIP3   OH2 7475   2.617   3.405   3.862
 2490TIP3    H1 7476   2.550   3.347   3.899
 2490TIP3    H2 7477   2.569   3.483   3.833
 2491TIP3   OH2 7478   5.780   0.734   1.985
 2491TIP3    H1 7479   5.785   0.746   2.080
 2491TIP3    H2 7480   5.869   0.711   1.958
 2492TIP3   OH2 7481   0.099   1.286   3.674
 2492TIP3    H1 7482   0.131   1.234   3.601
 2492TIP3    H2 7483   0.016   1.321   3.645
 2493TIP3   OH2 7484   0.838   4.359   1.321
 2493TIP3    H1 7485   0.791   4.397   1.394
 2493TIP3    H2 7486   0.931   4.369   1.344
 2494TIP3   OH2 7487   2.734   1.356   1.998
 2494TIP3    H1 7488   2.704   1.279   1.949
 2494TIP3    H2 7489   2.679   1.356   2.077
 2495TIP3   OH2 7490   4.544   2.926   2.336
 2495TIP3    H1 7491   4.506   2.851   2.291
 2495TIP3    H2 7492   4.533   2.999   2.274
 2496TIP3   OH2 7493   0.563   2.734   4.133
 2496TIP3    H1 7494   0.499   2.777   4.191
 2496TIP3    H2 7495   0.624   2.691   4.194
 2497TIP3   OH2 7496   5.464   2.857   0.159
 2497TIP3    H1 7497   5.528   2.895   0.100
 2497TIP3    H2 7498   5.419   2.932   0.198
 2498TIP3   OH2 7499   2.696   5.555   0.774
 2498TIP3    H1 7500   2.670   5.508   0.853
 2498TIP3    H2 7501   2.715   5.644   0.805
 2499TIP3   OH2 7502   4.342   2.115   3.333
 2499TIP3    H1 7503   4.342   2.094   3.239
 2499TIP3    H2 7504   4.404   2.052   3.371
 2500TIP3   OH2 7505   2.594   3.309   1.951
 2500TIP3    H1 7506   2.634   3.264   1.876
 2500TIP3    H2 7507   2.552   3.386   1.913
 2501TIP3   OH2 7508   3.582   1.492   5.116
 2501TIP3    H1 7509   3.560   1.573   5.069
 2501TIP3    H2 7510   3.512   1.482   5.180
 2502TIP3   OH2 7511   5.365   2.438   3.517
 2502TIP3    H1 7512   5.399   2.365   3.466
 2502TIP3    H2 7513   5.312   2.488   3.455
 2503TIP3   OH2 7514   1.076   1.319   3.155
 2503TIP3    H1 7515   1.090   1.225   3.149
 2503TIP3    H2 7516   1.010   1.330   3.223
 2504TIP3   OH2 7517   0.609   2.352   0.201
 2504TIP3    H1 7518   0.527   2.306   0.217
 2504TIP3    H2 7519   0.638   2.380   0.287
 2505TIP3   OH2 7520   4.340   0.111   0.755
 2505TIP3    H1 7521   4.279   0.184   0.766
 2505TIP3    H2 7522   4.318   0.050   0.825
 2506TIP3   OH2 7523   2.280   4.056   3.129
 2506TIP3    H1 7524   2.264   4.064   3.035
 2506TIP3    H2 7525   2.375   4.050   3.137
 2507TIP3   OH2 7526   1.049   3.693   2.763
 2507TIP3    H1 7527   1.101   3.737   2.695
 2507TIP3    H2 7528   1.055   3.751   2.839
 2508TIP3   OH2 7529   1.577   2.669   0.164
 2508TIP3    H1 7530   1.545   2.748   0.207
 2508TIP3    H2 7531   1.498   2.623   0.137
 2509TIP3   OH2 7532   4.082   0.467   0.559
 2509TIP3    H1 7533   4.102   0.545   0.507
 2509TIP3    H2 7534   4.033   0.500   0.634
 2510TIP3   OH2 7535   5.446   4.913   0.867
 2510TIP3    H1 7536   5.434   5.007   0.880
 2510TIP3    H2 7537   5.532   4.895   0.903
 2511TIP3   OH2 7538   3.254   1.688   1.285
 2511TIP3    H1 7539   3.338   1.715   1.248
 2511TIP3    H2 7540   3.263   1.593   1.296
 2512TIP3   OH2 7541   5.356   2.071   5.157
 2512TIP3    H1 7542   5.334   1.978   5.159
 2512TIP3    H2 7543   5.306   2.106   5.084
 2513TIP3   OH2 7544   3.404   5.762   5.017
 2513TIP3    H1 7545   3.458   5.837   4.993
 2513TIP3    H2 7546   3.393   5.771   5.112
 2514TIP3   OH2 7547   5.432   2.723   1.734
 2514TIP3    H1 7548   5.521   2.696   1.710
 2514TIP3    H2 7549   5.443   2.768   1.817
 2515TIP3   OH2 7550   0.991   2.431   0.627
 2515TIP3    H1 7551   0.945   2.414   0.545
 2515TIP3    H2 7552   0.944   2.504   0.667
 2516TIP3   OH2 7553   1.720   0.576   1.277
 2516TIP3    H1 7554   1.680   0.660   1.296
 2516TIP3    H2 7555   1.811   0.585   1.304
 2517TIP3   OH2 7556   4.056   3.368   3.514
 2517TIP3    H1 7557   4.015   3.358   3.428
 2517TIP3    H2 7558   4.090   3.280   3.534
 2518TIP3   OH2 7559   4.744   3.636   1.101
 2518TIP3    H1 7560   4.831   3.608   1.073
 2518TIP3    H2 7561   4.723   3.581   1.176
 2519TIP3   OH2 7562   1.666   1.230   4.653
 2519TIP3    H1 7563   1.697   1.316   4.680
 2519TIP3    H2 7564   1.743   1.189   4.612
 2520TIP3   OH2 7565   0.204   5.750   3.749
 2520TIP3    H1 7566   0.150   5.816   3.706
 2520TIP3    H2 7567   0.230   5.791   3.832
 2521TIP3   OH2 7568   6.161   4.040   1.467
 2521TIP3    H1 7569   6.223   4.110   1.486
 2521TIP3    H2 7570   6.210   3.978   1.413
 2522TIP3   OH2 7571   1.749   0.342   2.482
 2522TIP3    H1 7572   1.688   0.271   2.501
 2522TIP3    H2 7573   1.810   0.305   2.418
 2523TIP3   OH2 7574   0.276   0.496   4.279
 2523TIP3    H1 7575   0.217   0.552   4.228
 2523TIP3    H2 7576   0.220   0.451   4.342
 2524TIP3   OH2 7577   1.565   1.490   4.980
 2524TIP3    H1 7578   1.601   1.535   5.056
 2524TIP3    H2 7579   1.607   1.404   4.980
 2525TIP3   OH2 7580   0.045   0.433   1.425
 2525TIP3    H1 7581   0.052   0.358   1.483
 2525TIP3    H2 7582   0.129   0.437   1.379
 2526TIP3   OH2 7583   3.751   5.814   3.423
 2526TIP3    H1 7584   3.732   5.891   3.370
 2526TIP3    H2 7585   3.668   5.767   3.429
 2527TIP3   OH2 7586   5.627   4.847   1.104
 2527TIP3    H1 7587   5.662   4.795   1.032
 2527TIP3    H2 7588   5.558   4.793   1.142
 2528TIP3   OH2 7589   0.205   2.605   4.338
 2528TIP3    H1 7590   0.286   2.577   4.379
 2528TIP3    H2 7591   0.214   2.578   4.247
 2529TIP3   OH2 7592   5.308   2.115   3.677
 2529TIP3    H1 7593   5.247   2.070   3.620
 2529TIP3    H2 7594   5.264   2.197   3.700
 2530TIP3   OH2 7595   0.684   3.382   5.178
 2530TIP3    H1 7596   0.694   3.419   5.090
 2530TIP3    H2 7597   0.687   3.457   5.236
 2531TIP3   OH2 7598   4.555   2.187   3.570
 2531TIP3    H1 7599   4.550   2.268   3.520
 2531TIP3    H2 7600   4.591   2.213   3.655
 2532TIP3   OH2 7601   4.727   1.490   3.389
 2532TIP3    H1 7602   4.739   1.403   3.350
 2532TIP3    H2 7603   4.804   1.502   3.444
 2533TIP3   OH2 7604   4.749   4.943   3.294
 2533TIP3    H1 7605   4.746   4.855   3.331
 2533TIP3    H2 7606   4.842   4.963   3.284
 2534TIP3   OH2 7607   0.273   4.989   4.145
 2534TIP3    H1 7608   0.292   4.899   4.169
 2534TIP3    H2 7609   0.301   4.995   4.053
 2535TIP3   OH2 7610   1.087   3.226   4.057
 2535TIP3    H1 7611   1.069   3.250   4.148
 2535TIP3    H2 7612   1.044   3.141   4.046
 2536TIP3   OH2 7613   4.923   3.572   2.281
 2536TIP3    H1 7614   5.001   3.600   2.328
 2536TIP3    H2 7615   4.887   3.652   2.244
 2537TIP3   OH2 7616   2.543   2.474   4.493
 2537TIP3    H1 7617   2.602   2.400   4.510
 2537TIP3    H2 7618   2.533   2.517   4.578
 2538TIP3   OH2 7619   3.276   0.512   0.273
 2538TIP3    H1 7620   3.335   0.588   0.278
 2538TIP3    H2 7621   3.303   0.456   0.346
 2539TIP3   OH2 7622   4.167   1.607   3.830
 2539TIP3    H1 7623   4.074   1.625   3.844
 2539TIP3    H2 7624   4.171   1.513   3.811
 2540TIP3   OH2 7625   0.894   4.659   3.900
 2540TIP3    H1 7626   0.859   4.574   3.873
 2540TIP3    H2 7627   0.978   4.666   3.854
 2541TIP3   OH2 7628   1.812   3.993   0.071
 2541TIP3    H1 7629   1.759   4.055   0.121
 2541TIP3    H2 7630   1.798   3.909   0.115
 2542TIP3   OH2 7631   4.556   5.881   0.910
 2542TIP3    H1 7632   4.641   5.838   0.912
 2542TIP3    H2 7633   4.544   5.905   0.818
 2543TIP3   OH2 7634   5.577   2.124   0.469
 2543TIP3    H1 7635   5.582   2.095   0.378
 2543TIP3    H2 7636   5.662   2.100   0.506
 2544TIP3   OH2 7637   4.588   0.907   0.935
 2544TIP3    H1 7638   4.516   0.946   0.886
 2544TIP3    H2 7639   4.638   0.981   0.968
 2545TIP3   OH2 7640   0.888   4.355   0.531
 2545TIP3    H1 7641   0.979   4.364   0.504
 2545TIP3    H2 7642   0.874   4.260   0.537
 2546TIP3   OH2 7643   0.694   2.294   1.186
 2546TIP3    H1 7644   0.664   2.372   1.233
 2546TIP3    H2 7645   0.758   2.327   1.123
 2547TIP3   OH2 7646   3.874   5.238   4.296
 2547TIP3    H1 7647   3.920   5.293   4.360
 2547TIP3    H2 7648   3.855   5.298   4.224
 2548TIP3   OH2 7649   3.203   4.466   3.103
 2548TIP3    H1 7650   3.251   4.385   3.089
 2548TIP3    H2 7651   3.270   4.535   3.103
 2549TIP3   OH2 7652   1.536   2.222   3.342
 2549TIP3    H1 7653   1.508   2.154   3.403
 2549TIP3    H2 7654   1.475   2.214   3.268
 2550TIP3   OH2 7655   4.052   3.775   2.267
 2550TIP3    H1 7656   4.027   3.866   2.284
 2550TIP3    H2 7657   4.129   3.761   2.322
 2551TIP3   OH2 7658   5.819   4.441   3.959
 2551TIP3    H1 7659   5.858   4.504   4.021
 2551TIP3    H2 7660   5.726   4.466   3.956
 2552TIP3   OH2 7661   5.974   2.834   3.296
 2552TIP3    H1 7662   5.884   2.866   3.290
 2552TIP3    H2 7663   6.028   2.909   3.268
 2553TIP3   OH2 7664   5.202   1.829   2.996
 2553TIP3    H1 7665   5.218   1.921   3.013
 2553TIP3    H2 7666   5.114   1.826   2.959
 2554TIP3   OH2 7667   4.420   0.506   1.961
 2554TIP3    H1 7668   4.344   0.512   2.018
 2554TIP3    H2 7669   4.458   0.420   1.980
 2555TIP3   OH2 7670   6.202   3.128   0.762
 2555TIP3    H1 7671   6.288   3.167   0.779
 2555TIP3    H2 7672   6.221   3.035   0.745
 2556TIP3   OH2 7673   0.923   0.087   0.970
 2556TIP3    H1 7674   1.005   0.084   0.921
 2556TIP3    H2 7675   0.885   0.000   0.957
 2557TIP3   OH2 7676   2.848   1.019   4.138
 2557TIP3    H1 7677   2.874   0.964   4.212
 2557TIP3    H2 7678   2.820   0.957   4.071
 2558TIP3   OH2 7679   4.575   2.732   1.917
 2558TIP3    H1 7680   4.494   2.721   1.868
 2558TIP3    H2 7681   4.620   2.648   1.909
 2559TIP3   OH2 7682   3.874   5.329   4.952
 2559TIP3    H1 7683   3.932   5.253   4.951
 2559TIP3    H2 7684   3.798   5.300   5.002
 2560TIP3   OH2 7685   6.256   0.992   0.130
 2560TIP3    H1 7686   6.267   1.048   0.053
 2560TIP3    H2 7687   6.342   0.990   0.172
 2561TIP3   OH2 7688   6.315   5.143   2.338
 2561TIP3    H1 7689   6.247   5.136   2.270
 2561TIP3    H2 7690   6.285   5.085   2.408
 2562TIP3   OH2 7691   2.694   3.466   2.846
 2562TIP3    H1 7692   2.600   3.461   2.861
 2562TIP3    H2 7693   2.711   3.400   2.780
 2563TIP3   OH2 7694   4.679   1.412   1.817
 2563TIP3    H1 7695   4.696   1.328   1.859
 2563TIP3    H2 7696   4.761   1.460   1.824
 2564TIP3   OH2 7697   0.281   1.463   2.654
 2564TIP3    H1 7698   0.322   1.548   2.672
 2564TIP3    H2 7699   0.191   1.484   2.630
 2565TIP3   OH2 7700   5.708   3.064   0.339
 2565TIP3    H1 7701   5.734   2.974   0.357
 2565TIP3    H2 7702   5.613   3.064   0.352
 2566TIP3   OH2 7703   5.688   2.303   0.056
 2566TIP3    H1 7704   5.703   2.393   0.029
 2566TIP3    H2 7705   5.696   2.304   0.152
 2567TIP3   OH2 7706   4.931   0.904   3.163
 2567TIP3    H1 7707   4.891   0.854   3.092
 2567TIP3    H2 7708   4.913   0.996   3.140
 2568TIP3   OH2 7709   4.252   1.011   2.746
 2568TIP3    H1 7710   4.182   1.070   2.717
 2568TIP3    H2 7711   4.314   1.069   2.791
 2569TIP3   OH2 7712   5.652   4.494   2.536
 2569TIP3    H1 7713   5.661   4.414   2.587
 2569TIP3    H2 7714   5.717   4.554   2.573
 2570TIP3   OH2 7715   1.791   3.157   0.049
 2570TIP3    H1 7716   1.817   3.241   0.087
 2570TIP3    H2 7717   1.864   3.133  -0.009
 2571TIP3   OH2 7718   5.261   3.424   2.254
 2571TIP3    H1 7719   5.288   3.514   2.272
 2571TIP3    H2 7720   5.211   3.429   2.173
 2572TIP3   OH2 7721   0.077   0.211   1.002
 2572TIP3    H1 7722   0.103   0.203   0.910
 2572TIP3    H2 7723   0.001   0.269   1.000
 2573TIP3   OH2 7724   0.301   2.572   2.651
 2573TIP3    H1 7725   0.360   2.497   2.665
 2573TIP3    H2 7726   0.355   2.636   2.603
 2574TIP3   OH2 7727   6.137   3.524   2.174
 2574TIP3    H1 7728   6.090   3.576   2.239
 2574TIP3    H2 7729   6.114   3.434   2.194
 2575TIP3   OH2 7730   3.081   5.970   0.494
 2575TIP3    H1 7731   3.146   5.910   0.459
 2575TIP3    H2 7732   3.025   5.993   0.420
 2576TIP3   OH2 7733   0.807   5.613   3.316
 2576TIP3    H1 7734   0.873   5.547   3.295
 2576TIP3    H2 7735   0.724   5.575   3.286
 2577TIP3   OH2 7736   2.889   3.145   2.105
 2577TIP3    H1 7737   2.803   3.116   2.136
 2577TIP3    H2 7738   2.949   3.120   2.175
 2578TIP3   OH2 7739   4.476   4.788   0.730
 2578TIP3    H1 7740   4.445   4.710   0.685
 2578TIP3    H2 7741   4.474   4.857   0.664
 2579TIP3   OH2 7742   4.114   0.455   1.678
 2579TIP3    H1 7743   4.124   0.415   1.764
 2579TIP3    H2 7744   4.170   0.402   1.620
 2580TIP3   OH2 7745   0.417   3.481   4.371
 2580TIP3    H1 7746   0.344   3.428   4.403
 2580TIP3    H2 7747   0.469   3.500   4.449
 2581TIP3   OH2 7748   3.069   0.857   2.297
 2581TIP3    H1 7749   3.100   0.849   2.207
 2581TIP3    H2 7750   3.147   0.842   2.351
 2582TIP3   OH2 7751   3.514   2.870   5.121
 2582TIP3    H1 7752   3.585   2.870   5.186
 2582TIP3    H2 7753   3.559   2.864   5.036
 2583TIP3   OH2 7754   1.337   5.509   4.824
 2583TIP3    H1 7755   1.308   5.579   4.764
 2583TIP3    H2 7756   1.260   5.454   4.834
 2584TIP3   OH2 7757   5.121   1.303   0.593
 2584TIP3    H1 7758   5.203   1.350   0.613
 2584TIP3    H2 7759   5.058   1.337   0.657
 2585TIP3   OH2 7760   2.559   2.904   3.144
 2585TIP3    H1 7761   2.518   2.826   3.182
 2585TIP3    H2 7762   2.628   2.927   3.207
 2586TIP3   OH2 7763   0.401   2.848   2.004
 2586TIP3    H1 7764   0.369   2.914   2.065
 2586TIP3    H2 7765   0.465   2.797   2.055
 2587TIP3   OH2 7766   4.801   0.049   2.730
 2587TIP3    H1 7767   4.750   0.062   2.650
 2587TIP3    H2 7768   4.741   0.070   2.801
 2588TIP3   OH2 7769   2.604   1.781   4.648
 2588TIP3    H1 7770   2.648   1.843   4.705
 2588TIP3    H2 7771   2.617   1.817   4.560
 2589TIP3   OH2 7772   6.135   2.029   3.953
 2589TIP3    H1 7773   6.139   2.022   3.858
 2589TIP3    H2 7774   6.153   1.940   3.984
 2590TIP3   OH2 7775   6.315   0.273   2.878
 2590TIP3    H1 7776   6.339   0.218   2.953
 2590TIP3    H2 7777   6.387   0.336   2.871
 2591TIP3   OH2 7778   2.835   0.675   1.009
 2591TIP3    H1 7779   2.872   0.591   1.036
 2591TIP3    H2 7780   2.773   0.697   1.079
 2592TIP3   OH2 7781   5.374   4.610   3.497
 2592TIP3    H1 7782   5.371   4.688   3.553
 2592TIP3    H2 7783   5.443   4.629   3.434
 2593TIP3   OH2 7784   5.112   1.878   4.491
 2593TIP3    H1 7785   5.196   1.889   4.535
 2593TIP3    H2 7786   5.125   1.803   4.433
 2594TIP3   OH2 7787   1.702   3.079   4.525
 2594TIP3    H1 7788   1.653   3.003   4.494
 2594TIP3    H2 7789   1.702   3.071   4.620
 2595TIP3   OH2 7790   2.369   2.967   4.294
 2595TIP3    H1 7791   2.445   2.990   4.241
 2595TIP3    H2 7792   2.295   2.974   4.233
 2596TIP3   OH2 7793   5.007   3.211   3.466
 2596TIP3    H1 7794   4.989   3.274   3.396
 2596TIP3    H2 7795   4.951   3.239   3.538
 2597TIP3   OH2 7796   0.281   3.908   0.564
 2597TIP3    H1 7797   0.351   3.853   0.530
 2597TIP3    H2 7798   0.225   3.848   0.613
 2598TIP3   OH2 7799   1.346   0.505   1.245
 2598TIP3    H1 7800   1.418   0.447   1.223
 2598TIP3    H2 7801   1.267   0.458   1.218
 2599TIP3   OH2 7802   0.334   1.131   5.069
 2599TIP3    H1 7803   0.259   1.141   5.127
 2599TIP3    H2 7804   0.306   1.171   4.986
 2600TIP3   OH2 7805   2.083   1.870   3.629
 2600TIP3    H1 7806   2.055   1.792   3.677
 2600TIP3    H2 7807   2.155   1.839   3.574
 2601TIP3   OH2 7808   5.004   5.758   1.953
 2601TIP3    H1 7809   5.041   5.703   2.022
 2601TIP3    H2 7810   5.080   5.786   1.901
 2602TIP3   OH2 7811   1.231   2.919   4.015
 2602TIP3    H1 7812   1.212   2.840   3.964
 2602TIP3    H2 7813   1.323   2.937   3.997
 2603TIP3   OH2 7814   0.501   3.030   1.786
 2603TIP3    H1 7815   0.427   3.083   1.813
 2603TIP3    H2 7816   0.514   2.968   1.859
 2604TIP3   OH2 7817   2.024   2.700   3.206
 2604TIP3    H1 7818   2.064   2.747   3.132
 2604TIP3    H2 7819   2.010   2.767   3.273
 2605TIP3   OH2 7820   0.726   4.992   3.017
 2605TIP3    H1 7821   0.818   4.975   3.039
 2605TIP3    H2 7822   0.707   5.076   3.058
 2606TIP3   OH2 7823   1.799   3.435   3.344
 2606TIP3    H1 7824   1.868   3.495   3.374
 2606TIP3    H2 7825   1.833   3.399   3.261
 2607TIP3   OH2 7826   3.050   2.711   1.871
 2607TIP3    H1 7827   2.979   2.702   1.934
 2607TIP3    H2 7828   3.007   2.707   1.786
 2608TIP3   OH2 7829   5.038   5.004   3.934
 2608TIP3    H1 7830   4.947   5.027   3.953
 2608TIP3    H2 7831   5.032   4.937   3.865
 2609TIP3   OH2 7832   5.478   4.117   1.431
 2609TIP3    H1 7833   5.564   4.111   1.390
 2609TIP3    H2 7834   5.436   4.192   1.389
 2610TIP3   OH2 7835   3.039   0.881   1.613
 2610TIP3    H1 7836   3.052   0.949   1.678
 2610TIP3    H2 7837   3.126   0.843   1.599
 2611TIP3   OH2 7838   5.936   3.157   2.536
 2611TIP3    H1 7839   5.858   3.108   2.507
 2611TIP3    H2 7840   5.997   3.151   2.463
 2612TIP3   OH2 7841   3.771   1.013   2.302
 2612TIP3    H1 7842   3.686   1.012   2.258
 2612TIP3    H2 7843   3.749   1.022   2.395
 2613TIP3   OH2 7844   2.001   2.262   4.745
 2613TIP3    H1 7845   1.952   2.209   4.808
 2613TIP3    H2 7846   1.959   2.347   4.747
 2614TIP3   OH2 7847   4.401   1.835   2.131
 2614TIP3    H1 7848   4.381   1.894   2.059
 2614TIP3    H2 7849   4.451   1.764   2.091
 2615TIP3   OH2 7850   2.256   1.725   3.416
 2615TIP3    H1 7851   2.273   1.766   3.331
 2615TIP3    H2 7852   2.340   1.685   3.439
 2616TIP3   OH2 7853   1.958   1.211   1.227
 2616TIP3    H1 7854   1.926   1.122   1.216
 2616TIP3    H2 7855   2.045   1.201   1.265
 2617TIP3   OH2 7856   5.135   1.696   1.099
 2617TIP3    H1 7857   5.046   1.687   1.065
 2617TIP3    H2 7858   5.158   1.787   1.082
 2618TIP3   OH2 7859   3.564   4.475   2.919
 2618TIP3    H1 7860   3.616   4.439   2.991
 2618TIP3    H2 7861   3.507   4.540   2.960
 2619TIP3   OH2 7862   4.025   0.162   2.125
 2619TIP3    H1 7863   4.068   0.077   2.129
 2619TIP3    H2 7864   3.932   0.141   2.112
 2620TIP3   OH2 7865   2.268   2.035   0.240
 2620TIP3    H1 7866   2.315   2.065   0.162
 2620TIP3    H2 7867   2.246   1.944   0.221
 2621TIP3   OH2 7868   2.031   0.948   4.641
 2621TIP3    H1 7869   2.055   0.857   4.655
 2621TIP3    H2 7870   2.109   0.987   4.601
 2622TIP3   OH2 7871   0.844   2.435   2.280
 2622TIP3    H1 7872   0.795   2.367   2.233
 2622TIP3    H2 7873   0.869   2.393   2.362
 2623TIP3   OH2 7874   4.585   1.501   2.695
 2623TIP3    H1 7875   4.541   1.514   2.611
 2623TIP3    H2 7876   4.632   1.583   2.711
 2624TIP3   OH2 7877   0.461   4.685   4.506
 2624TIP3    H1 7878   0.448   4.734   4.588
 2624TIP3    H2 7879   0.517   4.611   4.531
 2625TIP3   OH2 7880   0.700   4.106   3.752
 2625TIP3    H1 7881   0.732   4.135   3.666
 2625TIP3    H2 7882   0.605   4.112   3.745
 2626TIP3   OH2 7883   6.028   5.859   2.091
 2626TIP3    H1 7884   6.048   5.767   2.107
 2626TIP3    H2 7885   5.992   5.892   2.173
 2627TIP3   OH2 7886   5.265   5.588   2.406
 2627TIP3    H1 7887   5.264   5.683   2.404
 2627TIP3    H2 7888   5.227   5.566   2.491
 2628TIP3   OH2 7889   2.646   1.485   3.906
 2628TIP3    H1 7890   2.715   1.547   3.880
 2628TIP3    H2 7891   2.573   1.506   3.847
 2629TIP3   OH2 7892   4.193   2.601   1.462
 2629TIP3    H1 7893   4.273   2.603   1.515
 2629TIP3    H2 7894   4.125   2.634   1.521
 2630TIP3   OH2 7895   1.071   0.947   1.867
 2630TIP3    H1 7896   1.095   0.946   1.960
 2630TIP3    H2 7897   0.982   0.982   1.866
 2631TIP3   OH2 7898   3.912   3.700   4.571
 2631TIP3    H1 7899   4.006   3.705   4.559
 2631TIP3    H2 7900   3.887   3.614   4.536
 2632TIP3   OH2 7901   0.729   0.483   4.632
 2632TIP3    H1 7902   0.664   0.419   4.659
 2632TIP3    H2 7903   0.738   0.541   4.707
 2633TIP3   OH2 7904   2.295   5.418   0.931
 2633TIP3    H1 7905   2.306   5.415   1.026
 2633TIP3    H2 7906   2.229   5.485   0.917
 2634TIP3   OH2 7907   5.631   1.918   1.458
 2634TIP3    H1 7908   5.645   1.865   1.537
 2634TIP3    H2 7909   5.569   1.867   1.406
 2635TIP3   OH2 7910   1.260   0.036   3.101
 2635TIP3    H1 7911   1.172   0.006   3.078
 2635TIP3    H2 7912   1.278   0.107   3.039
 2636TIP3   OH2 7913   5.911   4.268   1.760
 2636TIP3    H1 7914   5.959   4.338   1.717
 2636TIP3    H2 7915   5.938   4.272   1.851
 2637TIP3   OH2 7916   5.340   5.063   3.465
 2637TIP3    H1 7917   5.429   5.066   3.500
 2637TIP3    H2 7918   5.345   5.000   3.394
 2638TIP3   OH2 7919   5.209   1.881   2.010
 2638TIP3    H1 7920   5.255   1.858   2.090
 2638TIP3    H2 7921   5.148   1.950   2.036
 2639TIP3   OH2 7922   4.090   5.087   3.792
 2639TIP3    H1 7923   4.022   5.022   3.772
 2639TIP3    H2 7924   4.172   5.041   3.777
 2640TIP3   OH2 7925   1.749   0.978   0.921
 2640TIP3    H1 7926   1.755   1.072   0.935
 2640TIP3    H2 7927   1.787   0.964   0.835
 2641TIP3   OH2 7928   0.991   3.874   3.888
 2641TIP3    H1 7929   0.999   3.886   3.793
 2641TIP3    H2 7930   0.928   3.803   3.899
 2642TIP3   OH2 7931   2.557   2.552   5.040
 2642TIP3    H1 7932   2.477   2.545   5.092
 2642TIP3    H2 7933   2.558   2.644   5.012
 2643TIP3   OH2 7934   5.376   0.668   3.655
 2643TIP3    H1 7935   5.306   0.733   3.668
 2643TIP3    H2 7936   5.372   0.613   3.733
 2644TIP3   OH2 7937   4.094   0.171   3.456
 2644TIP3    H1 7938   4.135   0.240   3.508
 2644TIP3    H2 7939   4.146   0.093   3.475
 2645TIP3   OH2 7940   6.340   1.485   2.750
 2645TIP3    H1 7941   6.350   1.532   2.667
 2645TIP3    H2 7942   6.302   1.550   2.809
 2646TIP3   OH2 7943   1.218   4.003   3.605
 2646TIP3    H1 7944   1.230   4.097   3.608
 2646TIP3    H2 7945   1.162   3.989   3.528
 2647TIP3   OH2 7946   4.474   5.001   0.559
 2647TIP3    H1 7947   4.469   5.088   0.598
 2647TIP3    H2 7948   4.443   5.013   0.469
 2648TIP3   OH2 7949   5.744   2.300   3.387
 2648TIP3    H1 7950   5.696   2.353   3.324
 2648TIP3    H2 7951   5.763   2.359   3.460
 2649TIP3   OH2 7952   4.661   4.997   4.832
 2649TIP3    H1 7953   4.566   4.992   4.821
 2649TIP3    H2 7954   4.677   4.955   4.916
 2650TIP3   OH2 7955   3.607   0.611   1.009
 2650TIP3    H1 7956   3.602   0.627   0.915
 2650TIP3    H2 7957   3.540   0.545   1.026
 2651TIP3   OH2 7958   5.129   5.327   2.929
 2651TIP3    H1 7959   5.052   5.320   2.871
 2651TIP3    H2 7960   5.202   5.295   2.875
 2652TIP3   OH2 7961   2.809   0.737   0.115
 2652TIP3    H1 7962   2.900   0.711   0.102
 2652TIP3    H2 7963   2.791   0.716   0.206
 2653TIP3   OH2 7964   5.520   2.313   1.750
 2653TIP3    H1 7965   5.482   2.231   1.720
 2653TIP3    H2 7966   5.590   2.333   1.687
 2654TIP3   OH2 7967   4.194   4.254   4.056
 2654TIP3    H1 7968   4.266   4.193   4.074
 2654TIP3    H2 7969   4.237   4.335   4.031
 2655TIP3   OH2 7970   4.686   4.255   0.161
 2655TIP3    H1 7971   4.651   4.279   0.246
 2655TIP3    H2 7972   4.636   4.307   0.098
 2656TIP3   OH2 7973   5.482   5.266   3.766
 2656TIP3    H1 7974   5.553   5.227   3.715
 2656TIP3    H2 7975   5.524   5.337   3.815
 2657TIP3   OH2 7976   0.041   0.872   4.894
 2657TIP3    H1 7977   0.005   0.931   4.960
 2657TIP3    H2 7978  -0.014   0.885   4.817
 2658TIP3   OH2 7979   3.195   5.135   4.523
 2658TIP3    H1 7980   3.233   5.096   4.445
 2658TIP3    H2 7981   3.270   5.150   4.581
 2659TIP3   OH2 7982   5.611   5.467   4.190
 2659TIP3    H1 7983   5.646   5.556   4.200
 2659TIP3    H2 7984   5.672   5.412   4.240
 2660TIP3   OH2 7985   3.180   4.141   3.591
 2660TIP3    H1 7986   3.245   4.197   3.548
 2660TIP3    H2 7987   3.225   4.058   3.605
 2661TIP3   OH2 7988   0.364   5.164   2.504
 2661TIP3    H1 7989   0.404   5.249   2.522
 2661TIP3    H2 7990   0.434   5.113   2.462
 2662TIP3   OH2 7991   2.955   3.336   4.867
 2662TIP3    H1 7992   2.867   3.343   4.903
 2662TIP3    H2 7993   3.013   3.358   4.940
 2663TIP3   OH2 7994   1.535   4.244   5.029
 2663TIP3    H1 7995   1.524   4.250   4.934
 2663TIP3    H2 7996   1.596   4.171   5.042
 2664TIP3   OH2 7997   2.298   3.662   5.163
 2664TIP3    H1 7998   2.363   3.663   5.233
 2664TIP3    H2 7999   2.343   3.704   5.089
 2665TIP3   OH2 8000   2.011   1.893   1.130
 2665TIP3    H1 8001   2.052   1.980   1.135
 2665TIP3    H2 8002   2.065   1.844   1.069
 2666TIP3   OH2 8003   3.260   3.154   5.100
 2666TIP3    H1 8004   3.170   3.122   5.103
 2666TIP3    H2 8005   3.310   3.081   5.066
 2667TIP3   OH2 8006   4.965   5.871   2.441
 2667TIP3    H1 8007   4.885   5.830   2.409
 2667TIP3    H2 8008   5.027   5.862   2.368
 2668TIP3   OH2 8009   1.717   1.582   0.317
 2668TIP3    H1 8010   1.697   1.657   0.373
 2668TIP3    H2 8011   1.651   1.516   0.342
 2669TIP3   OH2 8012   1.932   0.322   4.674
 2669TIP3    H1 8013   1.915   0.235   4.710
 2669TIP3    H2 8014   1.963   0.305   4.585
 2670TIP3   OH2 8015   2.654   3.519   4.255
 2670TIP3    H1 8016   2.575   3.549   4.210
 2670TIP3    H2 8017   2.724   3.529   4.191
 2671TIP3   OH2 8018   1.904   1.579   2.528
 2671TIP3    H1 8019   1.857   1.653   2.489
 2671TIP3    H2 8020   1.916   1.604   2.620
 2672TIP3   OH2 8021   1.465   1.910   3.639
 2672TIP3    H1 8022   1.509   1.826   3.650
 2672TIP3    H2 8023   1.533   1.975   3.657
 2673TIP3   OH2 8024   5.719   5.424   0.787
 2673TIP3    H1 8025   5.636   5.405   0.743
 2673TIP3    H2 8026   5.740   5.343   0.834
 2674TIP3   OH2 8027   1.899   2.921   4.766
 2674TIP3    H1 8028   1.916   3.012   4.790
 2674TIP3    H2 8029   1.977   2.874   4.793
 2675TIP3   OH2 8030   5.932   2.297   1.229
 2675TIP3    H1 8031   5.861   2.300   1.294
 2675TIP3    H2 8032   5.991   2.228   1.261
 2676TIP3   OH2 8033   2.810   3.214   4.081
 2676TIP3    H1 8034   2.785   3.137   4.030
 2676TIP3    H2 8035   2.752   3.283   4.050
 2677TIP3   OH2 8036   1.666   4.035   1.985
 2677TIP3    H1 8037   1.700   3.992   2.063
 2677TIP3    H2 8038   1.733   4.099   1.962
 2678TIP3   OH2 8039   5.050   0.030   2.904
 2678TIP3    H1 8040   4.974   0.038   2.846
 2678TIP3    H2 8041   5.015  -0.009   2.984
 2679TIP3   OH2 8042   5.821   0.909   0.319
 2679TIP3    H1 8043   5.900   0.931   0.368
 2679TIP3    H2 8044   5.801   0.989   0.269
 2680TIP3   OH2 8045   0.859   3.485   1.305
 2680TIP3    H1 8046   0.848   3.431   1.226
 2680TIP3    H2 8047   0.917   3.433   1.361
 2681TIP3   OH2 8048   0.430   1.196   0.197
 2681TIP3    H1 8049   0.468   1.260   0.257
 2681TIP3    H2 8050   0.492   1.192   0.124
 2682TIP3   OH2 8051   1.055   2.379   0.365
 2682TIP3    H1 8052   1.110   2.347   0.293
 2682TIP3    H2 8053   1.095   2.340   0.444
 2683TIP3   OH2 8054   5.068   3.429   5.019
 2683TIP3    H1 8055   5.139   3.419   5.082
 2683TIP3    H2 8056   5.105   3.399   4.936
 2684TIP3   OH2 8057   3.480   0.990   2.818
 2684TIP3    H1 8058   3.506   1.012   2.908
 2684TIP3    H2 8059   3.402   0.936   2.828
 2685TIP3   OH2 8060   2.009   4.755   0.371
 2685TIP3    H1 8061   2.072   4.725   0.306
 2685TIP3    H2 8062   1.986   4.844   0.342
 2686TIP3   OH2 8063   4.150   2.782   0.536
 2686TIP3    H1 8064   4.208   2.706   0.544
 2686TIP3    H2 8065   4.069   2.756   0.580
 2687TIP3   OH2 8066   5.379   2.834   5.094
 2687TIP3    H1 8067   5.385   2.741   5.073
 2687TIP3    H2 8068   5.419   2.842   5.181
 2688TIP3   OH2 8069   3.123   2.706   0.138
 2688TIP3    H1 8070   3.107   2.731   0.048
 2688TIP3    H2 8071   3.158   2.786   0.179
 2689TIP3   OH2 8072   3.126  -0.008   3.792
 2689TIP3    H1 8073   3.120   0.022   3.701
 2689TIP3    H2 8074   3.202  -0.066   3.793
 2690TIP3   OH2 8075   4.305   5.467   1.376
 2690TIP3    H1 8076   4.378   5.414   1.406
 2690TIP3    H2 8077   4.272   5.422   1.298
 2691TIP3   OH2 8078   1.390   5.087   4.686
 2691TIP3    H1 8079   1.338   5.009   4.665
 2691TIP3    H2 8080   1.372   5.104   4.778
 2692TIP3   OH2 8081   2.047   1.532   4.293
 2692TIP3    H1 8082   2.108   1.593   4.334
 2692TIP3    H2 8083   1.961   1.564   4.318
 2693TIP3   OH2 8084   1.834   0.609   1.021
 2693TIP3    H1 8085   1.766   0.628   0.956
 2693TIP3    H2 8086   1.787   0.597   1.103
 2694TIP3   OH2 8087   4.030   1.486   0.824
 2694TIP3    H1 8088   4.004   1.419   0.887
 2694TIP3    H2 8089   4.108   1.526   0.862
 2695TIP3   OH2 8090   0.033   5.911   0.068
 2695TIP3    H1 8091   0.061   5.987   0.119
 2695TIP3    H2 8092   0.112   5.881   0.024
 2696TIP3   OH2 8093   2.696   5.034   2.862
 2696TIP3    H1 8094   2.761   4.964   2.868
 2696TIP3    H2 8095   2.680   5.044   2.768
 2697TIP3   OH2 8096   0.808   4.757   2.486
 2697TIP3    H1 8097   0.757   4.692   2.534
 2697TIP3    H2 8098   0.754   4.778   2.410
 2698TIP3   OH2 8099   3.767   0.046   1.444
 2698TIP3    H1 8100   3.754   0.078   1.534
 2698TIP3    H2 8101   3.683   0.061   1.401
 2699TIP3   OH2 8102   4.973   1.537   0.402
 2699TIP3    H1 8103   5.010   1.594   0.469
 2699TIP3    H2 8104   4.903   1.588   0.362
 2700TIP3   OH2 8105   3.701   3.521   3.543
 2700TIP3    H1 8106   3.664   3.601   3.579
 2700TIP3    H2 8107   3.733   3.472   3.619
 2701TIP3   OH2 8108   5.126   2.059   3.910
 2701TIP3    H1 8109   5.188   2.073   3.838
 2701TIP3    H2 8110   5.180   2.062   3.989
 2702TIP3   OH2 8111   5.124   4.190   2.302
 2702TIP3    H1 8112   5.125   4.132   2.226
 2702TIP3    H2 8113   5.133   4.131   2.377
 2703TIP3   OH2 8114   0.313   0.336   3.802
 2703TIP3    H1 8115   0.225   0.367   3.778
 2703TIP3    H2 8116   0.302   0.243   3.820
 2704TIP3   OH2 8117   4.082   1.202   4.974
 2704TIP3    H1 8118   3.993   1.181   4.945
 2704TIP3    H2 8119   4.109   1.275   4.918
 2705TIP3   OH2 8120   1.402   2.968   2.706
 2705TIP3    H1 8121   1.346   2.890   2.710
 2705TIP3    H2 8122   1.436   2.968   2.616
 2706TIP3   OH2 8123   6.216   3.611   4.969
 2706TIP3    H1 8124   6.161   3.589   5.045
 2706TIP3    H2 8125   6.212   3.706   4.963
 2707TIP3   OH2 8126   4.985   0.269   4.939
 2707TIP3    H1 8127   5.009   0.256   5.031
 2707TIP3    H2 8128   4.896   0.235   4.933
 2708TIP3   OH2 8129   5.783   3.201   4.825
 2708TIP3    H1 8130   5.749   3.142   4.893
 2708TIP3    H2 8131   5.729   3.184   4.748
 2709TIP3   OH2 8132   0.806   2.862   4.432
 2709TIP3    H1 8133   0.749   2.807   4.487
 2709TIP3    H2 8134   0.886   2.811   4.422
 2710TIP3   OH2 8135   5.619   4.294   4.488
 2710TIP3    H1 8136   5.647   4.309   4.398
 2710TIP3    H2 8137   5.593   4.202   4.490
 2711TIP3   OH2 8138   3.717   5.152   2.049
 2711TIP3    H1 8139   3.682   5.233   2.010
 2711TIP3    H2 8140   3.755   5.181   2.132
 2712TIP3   OH2 8141   2.604   1.677   4.245
 2712TIP3    H1 8142   2.536   1.639   4.189
 2712TIP3    H2 8143   2.576   1.657   4.334
 2713TIP3   OH2 8144   6.072   4.339   4.968
 2713TIP3    H1 8145   6.055   4.408   5.032
 2713TIP3    H2 8146   5.987   4.321   4.928
 2714TIP3   OH2 8147   3.023   3.317   2.709
 2714TIP3    H1 8148   2.986   3.387   2.656
 2714TIP3    H2 8149   2.964   3.243   2.695
 2715TIP3   OH2 8150   6.144   4.347   2.244
 2715TIP3    H1 8151   6.172   4.256   2.251
 2715TIP3    H2 8152   6.220   4.398   2.274
 2716TIP3   OH2 8153   1.556   5.183   4.394
 2716TIP3    H1 8154   1.607   5.105   4.374
 2716TIP3    H2 8155   1.591   5.214   4.478
 2717TIP3   OH2 8156   4.663   5.150   0.113
 2717TIP3    H1 8157   4.714   5.231   0.114
 2717TIP3    H2 8158   4.588   5.168   0.171
 2718TIP3   OH2 8159   1.498   2.282   1.987
 2718TIP3    H1 8160   1.501   2.367   1.943
 2718TIP3    H2 8161   1.409   2.250   1.972
 2719TIP3   OH2 8162   1.479   4.545   1.704
 2719TIP3    H1 8163   1.441   4.573   1.787
 2719TIP3    H2 8164   1.509   4.456   1.720
 2720TIP3   OH2 8165   4.182   5.750   2.496
 2720TIP3    H1 8166   4.104   5.800   2.519
 2720TIP3    H2 8167   4.160   5.660   2.517
 2721TIP3   OH2 8168   3.149   2.923   4.336
 2721TIP3    H1 8169   3.206   2.953   4.265
 2721TIP3    H2 8170   3.061   2.950   4.310
 2722TIP3   OH2 8171   2.807   0.235   2.442
 2722TIP3    H1 8172   2.888   0.253   2.395
 2722TIP3    H2 8173   2.742   0.292   2.401
 2723TIP3   OH2 8174   4.536   2.497   1.013
 2723TIP3    H1 8175   4.460   2.476   0.958
 2723TIP3    H2 8176   4.610   2.494   0.953
 2724TIP3   OH2 8177   1.841   2.235   2.619
 2724TIP3    H1 8178   1.824   2.226   2.525
 2724TIP3    H2 8179   1.794   2.314   2.645
 2725TIP3   OH2 8180   0.550   4.951   4.438
 2725TIP3    H1 8181   0.573   5.024   4.496
 2725TIP3    H2 8182   0.474   4.911   4.480
 2726TIP3   OH2 8183   1.082   0.380   0.373
 2726TIP3    H1 8184   1.101   0.300   0.324
 2726TIP3    H2 8185   0.998   0.363   0.415
 2727TIP3   OH2 8186   3.977   5.473   0.129
 2727TIP3    H1 8187   4.004   5.381   0.123
 2727TIP3    H2 8188   3.971   5.501   0.037
 2728TIP3   OH2 8189   0.137   3.308   0.487
 2728TIP3    H1 8190   0.135   3.268   0.400
 2728TIP3    H2 8191   0.048   3.341   0.500
 2729TIP3   OH2 8192   0.170   2.884   0.150
 2729TIP3    H1 8193   0.232   2.906   0.219
 2729TIP3    H2 8194   0.132   2.968   0.124
 2730TIP3   OH2 8195   4.255   2.133   0.149
 2730TIP3    H1 8196   4.208   2.079   0.084
 2730TIP3    H2 8197   4.221   2.222   0.135
 2731TIP3   OH2 8198   1.475   2.655   4.995
 2731TIP3    H1 8199   1.429   2.738   4.982
 2731TIP3    H2 8200   1.566   2.674   4.969
 2732TIP3   OH2 8201   4.161   0.294   1.930
 2732TIP3    H1 8202   4.222   0.234   1.887
 2732TIP3    H2 8203   4.112   0.239   1.992
 2733TIP3   OH2 8204   1.458   4.245   1.435
 2733TIP3    H1 8205   1.422   4.209   1.354
 2733TIP3    H2 8206   1.387   4.299   1.470
 2734TIP3   OH2 8207   1.465   4.462   3.772
 2734TIP3    H1 8208   1.439   4.477   3.863
 2734TIP3    H2 8209   1.422   4.533   3.723
 2735TIP3   OH2 8210   3.326   3.722   0.289
 2735TIP3    H1 8211   3.314   3.658   0.218
 2735TIP3    H2 8212   3.239   3.729   0.329
 2736TIP3   OH2 8213   3.094   2.726   0.898
 2736TIP3    H1 8214   3.040   2.681   0.833
 2736TIP3    H2 8215   3.137   2.796   0.850
 2737TIP3   OH2 8216   0.443   3.404   4.097
 2737TIP3    H1 8217   0.475   3.448   4.177
 2737TIP3    H2 8218   0.413   3.318   4.127
 2738TIP3   OH2 8219   0.967   5.891   4.654
 2738TIP3    H1 8220   1.019   5.971   4.647
 2738TIP3    H2 8221   0.997   5.849   4.734
 2739TIP3   OH2 8222   4.665   4.179   2.341
 2739TIP3    H1 8223   4.606   4.108   2.315
 2739TIP3    H2 8224   4.742   4.134   2.375
 2740TIP3   OH2 8225   1.180   5.174   0.693
 2740TIP3    H1 8226   1.085   5.186   0.693
 2740TIP3    H2 8227   1.201   5.147   0.782
 2741TIP3   OH2 8228   3.547   2.884   4.855
 2741TIP3    H1 8229   3.471   2.868   4.799
 2741TIP3    H2 8230   3.607   2.934   4.800
 2742TIP3   OH2 8231   4.269   3.593   4.357
 2742TIP3    H1 8232   4.255   3.618   4.448
 2742TIP3    H2 8233   4.252   3.672   4.307
 2743TIP3   OH2 8234   3.487   2.603   4.460
 2743TIP3    H1 8235   3.494   2.570   4.371
 2743TIP3    H2 8236   3.497   2.525   4.515
 2744TIP3   OH2 8237   2.603   3.929   0.274
 2744TIP3    H1 8238   2.529   3.890   0.227
 2744TIP3    H2 8239   2.600   3.890   0.361
 2745TIP3   OH2 8240   1.358   1.515   1.154
 2745TIP3    H1 8241   1.332   1.577   1.222
 2745TIP3    H2 8242   1.356   1.430   1.196
 2746TIP3   OH2 8243   5.396   4.737   5.131
 2746TIP3    H1 8244   5.440   4.819   5.154
 2746TIP3    H2 8245   5.404   4.732   5.035
 2747TIP3   OH2 8246   0.635   1.240   4.530
 2747TIP3    H1 8247   0.678   1.276   4.452
 2747TIP3    H2 8248   0.626   1.147   4.512
 2748TIP3   OH2 8249   5.692   1.102   3.307
 2748TIP3    H1 8250   5.717   1.089   3.398
 2748TIP3    H2 8251   5.666   1.014   3.277
 2749TIP3   OH2 8252   2.692   1.311   3.382
 2749TIP3    H1 8253   2.596   1.317   3.374
 2749TIP3    H2 8254   2.722   1.298   3.292
 2750TIP3   OH2 8255   5.498   2.463   0.916
 2750TIP3    H1 8256   5.504   2.403   0.841
 2750TIP3    H2 8257   5.423   2.431   0.966
 2751TIP3   OH2 8258   2.961   5.886   1.996
 2751TIP3    H1 8259   2.909   5.924   2.067
 2751TIP3    H2 8260   3.043   5.860   2.037
 2752TIP3   OH2 8261   6.306   5.591   2.982
 2752TIP3    H1 8262   6.226   5.603   3.034
 2752TIP3    H2 8263   6.292   5.643   2.903
 2753TIP3   OH2 8264   0.262   1.171   0.464
 2753TIP3    H1 8265   0.336   1.228   0.485
 2753TIP3    H2 8266   0.280   1.090   0.512
 2754TIP3   OH2 8267   0.367   2.921   4.941
 2754TIP3    H1 8268   0.366   3.015   4.924
 2754TIP3    H2 8269   0.376   2.913   5.036
 2755TIP3   OH2 8270   1.572   0.544   2.444
 2755TIP3    H1 8271   1.639   0.488   2.484
 2755TIP3    H2 8272   1.562   0.508   2.356
 2756TIP3   OH2 8273   1.036   0.899   4.568
 2756TIP3    H1 8274   1.025   0.807   4.592
 2756TIP3    H2 8275   0.961   0.918   4.512
 2757TIP3   OH2 8276   6.298   4.978   0.933
 2757TIP3    H1 8277   6.361   5.044   0.905
 2757TIP3    H2 8278   6.285   4.994   1.026
 2758TIP3   OH2 8279   3.138   3.440   0.514
 2758TIP3    H1 8280   3.147   3.531   0.543
 2758TIP3    H2 8281   3.050   3.435   0.477
 2759TIP3   OH2 8282   0.142   4.294   3.483
 2759TIP3    H1 8283   0.207   4.273   3.550
 2759TIP3    H2 8284   0.192   4.303   3.402
 2760TIP3   OH2 8285   0.232   2.042   2.408
 2760TIP3    H1 8286   0.223   2.133   2.381
 2760TIP3    H2 8287   0.162   2.029   2.473
 2761TIP3   OH2 8288   3.422   2.811   3.956
 2761TIP3    H1 8289   3.381   2.755   3.890
 2761TIP3    H2 8290   3.407   2.766   4.039
 2762TIP3   OH2 8291   0.281   4.200   0.575
 2762TIP3    H1 8292   0.308   4.108   0.581
 2762TIP3    H2 8293   0.322   4.233   0.495
 2763TIP3   OH2 8294   2.117   0.944   1.035
 2763TIP3    H1 8295   2.093   0.922   0.945
 2763TIP3    H2 8296   2.188   0.883   1.056
 2764TIP3   OH2 8297   5.336   4.413   4.045
 2764TIP3    H1 8298   5.367   4.341   4.101
 2764TIP3    H2 8299   5.315   4.483   4.107
 2765TIP3   OH2 8300   2.560   4.342   2.235
 2765TIP3    H1 8301   2.510   4.404   2.288
 2765TIP3    H2 8302   2.643   4.333   2.281
 2766TIP3   OH2 8303   5.425   5.035   2.143
 2766TIP3    H1 8304   5.498   5.079   2.187
 2766TIP3    H2 8305   5.395   4.969   2.205
 2767TIP3   OH2 8306   5.733   3.366   3.328
 2767TIP3    H1 8307   5.709   3.457   3.348
 2767TIP3    H2 8308   5.670   3.340   3.260
 2768TIP3   OH2 8309   5.632   2.434   4.940
 2768TIP3    H1 8310   5.722   2.433   4.973
 2768TIP3    H2 8311   5.628   2.361   4.880
 2769TIP3   OH2 8312   2.492   4.612   4.834
 2769TIP3    H1 8313   2.423   4.618   4.900
 2769TIP3    H2 8314   2.564   4.665   4.869
 2770TIP3   OH2 8315   0.260   5.495   0.412
 2770TIP3    H1 8316   0.250   5.542   0.329
 2770TIP3    H2 8317   0.243   5.561   0.479
 2771TIP3   OH2 8318   2.884   0.521   2.157
 2771TIP3    H1 8319   2.932   0.456   2.209
 2771TIP3    H2 8320   2.825   0.469   2.102
 2772TIP3   OH2 8321   1.951   1.549   1.834
 2772TIP3    H1 8322   1.893   1.587   1.901
 2772TIP3    H2 8323   1.972   1.622   1.776
 2773TIP3   OH2 8324   0.219   4.658   1.039
 2773TIP3    H1 8325   0.130   4.663   1.006
 2773TIP3    H2 8326   0.252   4.747   1.034
 2774TIP3   OH2 8327   4.514   1.298   2.182
 2774TIP3    H1 8328   4.456   1.297   2.258
 2774TIP3    H2 8329   4.499   1.214   2.139
 2775TIP3   OH2 8330   4.584   3.981   0.973
 2775TIP3    H1 8331   4.617   4.040   0.905
 2775TIP3    H2 8332   4.662   3.957   1.023
 2776TIP3   OH2 8333   1.220   5.808   3.806
 2776TIP3    H1 8334   1.218   5.723   3.850
 2776TIP3    H2 8335   1.307   5.812   3.766
 2777TIP3   OH2 8336   2.701   4.722   4.971
 2777TIP3    H1 8337   2.689   4.737   5.065
 2777TIP3    H2 8338   2.789   4.688   4.963
 2778TIP3   OH2 8339   5.096   1.801   0.260
 2778TIP3    H1 8340   5.150   1.769   0.188
 2778TIP3    H2 8341   5.081   1.724   0.315
 2779TIP3   OH2 8342   2.691   1.307   2.561
 2779TIP3    H1 8343   2.598   1.293   2.581
 2779TIP3    H2 8344   2.724   1.357   2.636
 2780TIP3   OH2 8345   2.532   5.199   4.173
 2780TIP3    H1 8346   2.579   5.172   4.252
 2780TIP3    H2 8347   2.598   5.244   4.120
 2781TIP3   OH2 8348   3.667   3.624   0.101
 2781TIP3    H1 8349   3.633   3.712   0.082
 2781TIP3    H2 8350   3.651   3.612   0.194
 2782TIP3   OH2 8351   4.695   5.223   1.184
 2782TIP3    H1 8352   4.624   5.170   1.149
 2782TIP3    H2 8353   4.739   5.165   1.247
 2783TIP3   OH2 8354   0.674   1.126   0.983
 2783TIP3    H1 8355   0.712   1.129   1.071
 2783TIP3    H2 8356   0.653   1.217   0.962
 2784TIP3   OH2 8357   1.052   5.826   3.220
 2784TIP3    H1 8358   1.046   5.849   3.127
 2784TIP3    H2 8359   1.026   5.734   3.223
 2785TIP3   OH2 8360   0.345   0.673   3.166
 2785TIP3    H1 8361   0.303   0.587   3.161
 2785TIP3    H2 8362   0.437   0.652   3.187
 2786TIP3   OH2 8363   0.664   0.640   0.185
 2786TIP3    H1 8364   0.689   0.608   0.099
 2786TIP3    H2 8365   0.742   0.684   0.218
 2787TIP3   OH2 8366   2.562   3.418   2.573
 2787TIP3    H1 8367   2.576   3.339   2.625
 2787TIP3    H2 8368   2.509   3.389   2.499
 2788TIP3   OH2 8369   0.749   2.376   2.723
 2788TIP3    H1 8370   0.801   2.454   2.739
 2788TIP3    H2 8371   0.779   2.344   2.638
 2789TIP3   OH2 8372   5.881   3.346   4.393
 2789TIP3    H1 8373   5.843   3.324   4.308
 2789TIP3    H2 8374   5.953   3.405   4.373
 2790TIP3   OH2 8375   3.684   5.871   2.735
 2790TIP3    H1 8376   3.640   5.812   2.796
 2790TIP3    H2 8377   3.674   5.958   2.774
 2791TIP3   OH2 8378   2.265   2.773   4.495
 2791TIP3    H1 8379   2.304   2.696   4.454
 2791TIP3    H2 8380   2.300   2.773   4.584
 2792TIP3   OH2 8381   6.305   4.618   2.140
 2792TIP3    H1 8382   6.258   4.573   2.070
 2792TIP3    H2 8383   6.248   4.690   2.166
 2793TIP3   OH2 8384   2.370   0.770   0.535
 2793TIP3    H1 8385   2.367   0.865   0.548
 2793TIP3    H2 8386   2.308   0.753   0.464
 2794TIP3   OH2 8387   3.326   0.770   2.419
 2794TIP3    H1 8388   3.417   0.745   2.408
 2794TIP3    H2 8389   3.328   0.864   2.438
 2795TIP3   OH2 8390   3.485   2.866   0.899
 2795TIP3    H1 8391   3.549   2.856   0.828
 2795TIP3    H2 8392   3.518   2.809   0.968
 2796TIP3   OH2 8393   0.409   4.576   0.720
 2796TIP3    H1 8394   0.502   4.596   0.723
 2796TIP3    H2 8395   0.397   4.507   0.786
 2797TIP3   OH2 8396   6.112   3.005   4.815
 2797TIP3    H1 8397   6.020   2.983   4.830
 2797TIP3    H2 8398   6.145   2.935   4.759
 2798TIP3   OH2 8399   4.105   5.438   4.317
 2798TIP3    H1 8400   4.065   5.464   4.401
 2798TIP3    H2 8401   4.056   5.488   4.251
 2799TIP3   OH2 8402   0.522   3.511   3.856
 2799TIP3    H1 8403   0.484   3.488   3.941
 2799TIP3    H2 8404   0.616   3.520   3.874
 2800TIP3   OH2 8405   1.588   1.960   4.960
 2800TIP3    H1 8406   1.499   1.988   4.982
 2800TIP3    H2 8407   1.578   1.877   4.915
 2801TIP3   OH2 8408   4.860   4.356   2.621
 2801TIP3    H1 8409   4.941   4.394   2.654
 2801TIP3    H2 8410   4.803   4.350   2.698
 2802TIP3   OH2 8411   2.942   2.493   3.894
 2802TIP3    H1 8412   2.979   2.452   3.972
 2802TIP3    H2 8413   2.992   2.457   3.821
 2803TIP3   OH2 8414   2.636   2.459   4.170
 2803TIP3    H1 8415   2.654   2.436   4.079
 2803TIP3    H2 8416   2.612   2.376   4.212
 2804TIP3   OH2 8417   1.032   0.760   0.048
 2804TIP3    H1 8418   1.065   0.742   0.136
 2804TIP3    H2 8419   0.967   0.829   0.061
 2805TIP3   OH2 8420   4.883   3.705   1.436
 2805TIP3    H1 8421   4.958   3.718   1.378
 2805TIP3    H2 8422   4.811   3.749   1.392
 2806TIP3   OH2 8423   3.074   0.875   5.085
 2806TIP3    H1 8424   3.167   0.885   5.107
 2806TIP3    H2 8425   3.033   0.952   5.123
 2807TIP3   OH2 8426   0.271   4.101   2.342
 2807TIP3    H1 8427   0.343   4.040   2.358
 2807TIP3    H2 8428   0.227   4.109   2.427
 2808TIP3   OH2 8429   0.746   3.945   2.370
 2808TIP3    H1 8430   0.798   4.026   2.371
 2808TIP3    H2 8431   0.718   3.934   2.461
 2809TIP3   OH2 8432   4.332   0.212   2.541
 2809TIP3    H1 8433   4.253   0.255   2.510
 2809TIP3    H2 8434   4.374   0.278   2.597
 2810TIP3   OH2 8435   5.616   4.416   4.776
 2810TIP3    H1 8436   5.633   4.357   4.702
 2810TIP3    H2 8437   5.689   4.401   4.836
 2811TIP3   OH2 8438   4.124   0.762   0.570
 2811TIP3    H1 8439   4.095   0.770   0.479
 2811TIP3    H2 8440   4.108   0.848   0.608
 2812TIP3   OH2 8441   5.178   3.710   0.968
 2812TIP3    H1 8442   5.181   3.719   0.872
 2812TIP3    H2 8443   5.165   3.617   0.983
 2813TIP3   OH2 8444   0.546   1.319   4.238
 2813TIP3    H1 8445   0.516   1.228   4.235
 2813TIP3    H2 8446   0.641   1.312   4.251
 2814TIP3   OH2 8447   4.865   1.711   1.004
 2814TIP3    H1 8448   4.834   1.802   0.998
 2814TIP3    H2 8449   4.809   1.671   1.070
 2815TIP3   OH2 8450   4.912   1.077   4.307
 2815TIP3    H1 8451   4.957   0.993   4.295
 2815TIP3    H2 8452   4.840   1.057   4.367
 2816TIP3   OH2 8453   3.871   1.703   1.818
 2816TIP3    H1 8454   3.947   1.682   1.873
 2816TIP3    H2 8455   3.908   1.752   1.745
 2817TIP3   OH2 8456   0.520   4.524   1.822
 2817TIP3    H1 8457   0.545   4.435   1.848
 2817TIP3    H2 8458   0.602   4.564   1.793
 2818TIP3   OH2 8459   3.090   1.851   2.075
 2818TIP3    H1 8460   3.024   1.783   2.067
 2818TIP3    H2 8461   3.049   1.919   2.130
 2819TIP3   OH2 8462   0.414   0.120   0.666
 2819TIP3    H1 8463   0.352   0.178   0.623
 2819TIP3    H2 8464   0.365   0.040   0.684
 2820TIP3   OH2 8465   1.650   3.591   3.635
 2820TIP3    H1 8466   1.625   3.681   3.616
 2820TIP3    H2 8467   1.582   3.538   3.593
 2821TIP3   OH2 8468   4.013   3.834   3.837
 2821TIP3    H1 8469   4.030   3.757   3.892
 2821TIP3    H2 8470   3.983   3.798   3.754
 2822TIP3   OH2 8471   0.736   5.443   0.891
 2822TIP3    H1 8472   0.673   5.443   0.963
 2822TIP3    H2 8473   0.787   5.523   0.903
 2823TIP3   OH2 8474   4.010   4.292   4.489
 2823TIP3    H1 8475   3.931   4.316   4.538
 2823TIP3    H2 8476   3.995   4.201   4.464
 2824TIP3   OH2 8477   5.284   2.569   4.502
 2824TIP3    H1 8478   5.266   2.662   4.512
 2824TIP3    H2 8479   5.217   2.537   4.441
 2825TIP3   OH2 8480   3.865   1.846   3.012
 2825TIP3    H1 8481   3.778   1.864   3.046
 2825TIP3    H2 8482   3.917   1.924   3.035
 2826TIP3   OH2 8483   4.911   5.331   2.161
 2826TIP3    H1 8484   4.914   5.235   2.164
 2826TIP3    H2 8485   4.903   5.352   2.068
 2827TIP3   OH2 8486   0.673   5.766   1.535
 2827TIP3    H1 8487   0.763   5.734   1.528
 2827TIP3    H2 8488   0.682   5.852   1.577
 2828TIP3   OH2 8489   1.678   5.439   3.666
 2828TIP3    H1 8490   1.769   5.468   3.663
 2828TIP3    H2 8491   1.629   5.510   3.624
 2829TIP3   OH2 8492   6.097   4.020   0.728
 2829TIP3    H1 8493   6.100   3.934   0.770
 2829TIP3    H2 8494   6.174   4.066   0.762
 2830TIP3   OH2 8495   3.165   3.868   4.261
 2830TIP3    H1 8496   3.170   3.841   4.169
 2830TIP3    H2 8497   3.117   3.797   4.304
 2831TIP3   OH2 8498   4.256   5.062   5.143
 2831TIP3    H1 8499   4.345   5.095   5.149
 2831TIP3    H2 8500   4.261   4.973   5.178
 2832TIP3   OH2 8501   4.132   2.569   3.573
 2832TIP3    H1 8502   4.153   2.481   3.542
 2832TIP3    H2 8503   4.037   2.566   3.589
 2833TIP3   OH2 8504   1.382   2.653   3.498
 2833TIP3    H1 8505   1.407   2.727   3.553
 2833TIP3    H2 8506   1.450   2.650   3.430
 2834TIP3   OH2 8507   3.068   2.145   0.250
 2834TIP3    H1 8508   3.024   2.082   0.307
 2834TIP3    H2 8509   3.003   2.167   0.184
 2835TIP3   OH2 8510   0.015   0.502   2.661
 2835TIP3    H1 8511   0.077   0.474   2.729
 2835TIP3    H2 8512  -0.065   0.452   2.681
 2836TIP3   OH2 8513   6.156   0.292   1.038
 2836TIP3    H1 8514   6.150   0.370   0.983
 2836TIP3    H2 8515   6.067   0.259   1.043
 2837TIP3   OH2 8516   2.842   1.778   4.119
 2837TIP3    H1 8517   2.749   1.764   4.138
 2837TIP3    H2 8518   2.870   1.699   4.074
 2838TIP3   OH2 8519   1.864   0.064   5.132
 2838TIP3    H1 8520   1.921   0.052   5.207
 2838TIP3    H2 8521   1.860  -0.022   5.090
 2839TIP3   OH2 8522   6.068   4.928   3.199
 2839TIP3    H1 8523   6.097   4.837   3.205
 2839TIP3    H2 8524   6.100   4.969   3.279
 2840TIP3   OH2 8525   5.396   4.636   0.731
 2840TIP3    H1 8526   5.407   4.726   0.761
 2840TIP3    H2 8527   5.325   4.641   0.666
 2841TIP3   OH2 8528   4.689   1.193   0.206
 2841TIP3    H1 8529   4.677   1.285   0.231
 2841TIP3    H2 8530   4.765   1.194   0.148
 2842TIP3   OH2 8531   0.942   5.502   0.407
 2842TIP3    H1 8532   0.907   5.467   0.326
 2842TIP3    H2 8533   0.867   5.505   0.467
 2843TIP3   OH2 8534   0.719   2.968   5.149
 2843TIP3    H1 8535   0.682   2.989   5.063
 2843TIP3    H2 8536   0.737   2.875   5.145
 2844TIP3   OH2 8537   0.930   2.302   2.520
 2844TIP3    H1 8538   0.927   2.219   2.473
 2844TIP3    H2 8539   1.020   2.309   2.552
 2845TIP3   OH2 8540   3.016   4.070   0.060
 2845TIP3    H1 8541   2.954   4.135   0.028
 2845TIP3    H2 8542   3.093   4.082   0.004
 2846TIP3   OH2 8543   5.598   3.786   1.970
 2846TIP3    H1 8544   5.618   3.719   2.036
 2846TIP3    H2 8545   5.660   3.856   1.986
 2847TIP3   OH2 8546   2.275   2.011   1.457
 2847TIP3    H1 8547   2.277   1.939   1.520
 2847TIP3    H2 8548   2.353   1.998   1.404
 2848TIP3   OH2 8549   2.027   2.670   0.071
 2848TIP3    H1 8550   1.960   2.738   0.080
 2848TIP3    H2 8551   1.990   2.594   0.116
 2849TIP3   OH2 8552   2.969   5.856   4.219
 2849TIP3    H1 8553   3.021   5.871   4.140
 2849TIP3    H2 8554   2.988   5.765   4.242
 2850TIP3   OH2 8555   0.927   1.301   2.307
 2850TIP3    H1 8556   0.840   1.306   2.347
 2850TIP3    H2 8557   0.921   1.228   2.246
 2851TIP3   OH2 8558   2.790   5.669   2.640
 2851TIP3    H1 8559   2.766   5.731   2.571
 2851TIP3    H2 8560   2.851   5.608   2.598
 2852TIP3   OH2 8561   6.068   1.833   1.676
 2852TIP3    H1 8562   6.056   1.813   1.769
 2852TIP3    H2 8563   6.046   1.751   1.631
 2853TIP3   OH2 8564   2.160   1.795   2.542
 2853TIP3    H1 8565   2.196   1.869   2.492
 2853TIP3    H2 8566   2.073   1.781   2.503
 2854TIP3   OH2 8567   2.782   4.099   1.117
 2854TIP3    H1 8568   2.798   4.108   1.023
 2854TIP3    H2 8569   2.740   4.013   1.125
 2855TIP3   OH2 8570   3.390   2.557   3.093
 2855TIP3    H1 8571   3.339   2.580   3.171
 2855TIP3    H2 8572   3.477   2.537   3.128
 2856TIP3   OH2 8573   3.374   4.140   2.270
 2856TIP3    H1 8574   3.456   4.099   2.242
 2856TIP3    H2 8575   3.392   4.234   2.268
 2857TIP3   OH2 8576   2.827   2.824   0.175
 2857TIP3    H1 8577   2.894   2.777   0.126
 2857TIP3    H2 8578   2.828   2.913   0.138
 2858TIP3   OH2 8579   1.123   1.946   1.719
 2858TIP3    H1 8580   1.208   1.930   1.678
 2858TIP3    H2 8581   1.133   1.914   1.809
 2859TIP3   OH2 8582   5.958   1.558   2.230
 2859TIP3    H1 8583   6.046   1.595   2.245
 2859TIP3    H2 8584   5.975   1.471   2.193
 2860TIP3   OH2 8585   0.614   5.121   0.009
 2860TIP3    H1 8586   0.613   5.169   0.091
 2860TIP3    H2 8587   0.645   5.184  -0.056
 2861TIP3   OH2 8588   0.814   0.616   3.255
 2861TIP3    H1 8589   0.789   0.537   3.208
 2861TIP3    H2 8590   0.890   0.650   3.206
 2862TIP3   OH2 8591   3.396   3.024   1.970
 2862TIP3    H1 8592   3.380   3.088   2.040
 2862TIP3    H2 8593   3.455   2.960   2.009
 2863TIP3   OH2 8594   0.249   3.778   5.040
 2863TIP3    H1 8595   0.302   3.699   5.034
 2863TIP3    H2 8596   0.309   3.849   5.018
 2864TIP3   OH2 8597   0.503   4.358   2.172
 2864TIP3    H1 8598   0.491   4.323   2.260
 2864TIP3    H2 8599   0.470   4.289   2.114
 2865TIP3   OH2 8600   6.115   3.654   4.707
 2865TIP3    H1 8601   6.152   3.598   4.776
 2865TIP3    H2 8602   6.154   3.740   4.722
 2866TIP3   OH2 8603   4.490   2.568   1.542
 2866TIP3    H1 8604   4.550   2.579   1.616
 2866TIP3    H2 8605   4.527   2.623   1.473
 2867TIP3   OH2 8606   1.990   3.178   4.962
 2867TIP3    H1 8607   1.946   3.176   5.047
 2867TIP3    H2 8608   2.079   3.208   4.982
 2868TIP3   OH2 8609   5.611   3.027   0.022
 2868TIP3    H1 8610   5.556   3.099   0.054
 2868TIP3    H2 8611   5.700   3.060   0.029
 2869TIP3   OH2 8612   1.164   5.402   0.157
 2869TIP3    H1 8613   1.080   5.366   0.184
 2869TIP3    H2 8614   1.188   5.352   0.079
 2870TIP3   OH2 8615   5.952   1.194   4.538
 2870TIP3    H1 8616   5.907   1.167   4.458
 2870TIP3    H2 8617   5.932   1.126   4.602
 2871TIP3   OH2 8618   2.843   4.309   4.435
 2871TIP3    H1 8619   2.810   4.350   4.355
 2871TIP3    H2 8620   2.864   4.383   4.492
 2872TIP3   OH2 8621   6.228   1.192   1.919
 2872TIP3    H1 8622   6.298   1.127   1.910
 2872TIP3    H2 8623   6.151   1.141   1.945
 2873TIP3   OH2 8624   1.147   4.683   3.779
 2873TIP3    H1 8625   1.238   4.692   3.750
 2873TIP3    H2 8626   1.100   4.751   3.730
 2874TIP3   OH2 8627   1.103   3.823   3.190
 2874TIP3    H1 8628   1.072   3.750   3.136
 2874TIP3    H2 8629   1.177   3.788   3.239
 2875TIP3   OH2 8630   5.873   3.057   3.079
 2875TIP3    H1 8631   5.902   2.982   3.027
 2875TIP3    H2 8632   5.952   3.088   3.123
 2876TIP3   OH2 8633   1.354   0.725   3.473
 2876TIP3    H1 8634   1.372   0.738   3.380
 2876TIP3    H2 8635   1.390   0.802   3.516
 2877TIP3   OH2 8636   5.095   0.175   3.958
 2877TIP3    H1 8637   5.010   0.216   3.943
 2877TIP3    H2 8638   5.090   0.143   4.048
 2878TIP3   OH2 8639   5.391   4.236   0.320
 2878TIP3    H1 8640   5.372   4.271   0.407
 2878TIP3    H2 8641   5.310   4.248   0.271
 2879TIP3   OH2 8642   2.953   0.662   3.168
 2879TIP3    H1 8643   2.879   0.639   3.224
 2879TIP3    H2 8644   2.963   0.757   3.177
 2880TIP3   OH2 8645   2.326   1.994   2.446
 2880TIP3    H1 8646   2.375   1.932   2.501
 2880TIP3    H2 8647   2.375   1.997   2.364
 2881TIP3   OH2 8648   3.494   0.704   3.042
 2881TIP3    H1 8649   3.469   0.612   3.051
 2881TIP3    H2 8650   3.419   0.746   3.001
 2882TIP3   OH2 8651   2.526   5.895   4.966
 2882TIP3    H1 8652   2.597   5.843   5.005
 2882TIP3    H2 8653   2.566   5.980   4.950
 2883TIP3   OH2 8654   0.130   4.537   2.315
 2883TIP3    H1 8655   0.173   4.464   2.269
 2883TIP3    H2 8656   0.060   4.565   2.256
 2884TIP3   OH2 8657   2.005   2.935   0.564
 2884TIP3    H1 8658   1.978   2.913   0.653
 2884TIP3    H2 8659   1.929   2.977   0.525
 2885TIP3   OH2 8660   2.246   2.261   4.621
 2885TIP3    H1 8661   2.220   2.322   4.552
 2885TIP3    H2 8662   2.164   2.243   4.668
 2886TIP3   OH2 8663   2.942   4.722   0.829
 2886TIP3    H1 8664   3.013   4.707   0.767
 2886TIP3    H2 8665   2.901   4.636   0.842
 2887TIP3   OH2 8666   2.003   4.314   1.597
 2887TIP3    H1 8667   2.064   4.321   1.671
 2887TIP3    H2 8668   1.991   4.220   1.584
 2888TIP3   OH2 8669   2.333   5.671   4.184
 2888TIP3    H1 8670   2.281   5.729   4.240
 2888TIP3    H2 8671   2.308   5.582   4.212
 2889TIP3   OH2 8672   0.522   5.838   3.886
 2889TIP3    H1 8673   0.540   5.918   3.935
 2889TIP3    H2 8674   0.601   5.785   3.895
 2890TIP3   OH2 8675   2.288   4.709   1.918
 2890TIP3    H1 8676   2.362   4.670   1.871
 2890TIP3    H2 8677   2.251   4.772   1.857
 2891TIP3   OH2 8678   3.868   0.168   5.060
 2891TIP3    H1 8679   3.839   0.193   5.148
 2891TIP3    H2 8680   3.787   0.160   5.010
 2892TIP3   OH2 8681   5.765   4.651   0.509
 2892TIP3    H1 8682   5.784   4.707   0.433
 2892TIP3    H2 8683   5.671   4.635   0.504
 2893TIP3   OH2 8684   1.575   1.417   1.941
 2893TIP3    H1 8685   1.632   1.360   1.888
 2893TIP3    H2 8686   1.499   1.434   1.885
 2894TIP3   OH2 8687   0.318   1.228   2.216
 2894TIP3    H1 8688   0.364   1.229   2.300
 2894TIP3    H2 8689   0.310   1.320   2.191
 2895TIP3   OH2 8690   5.284   1.236   4.281
 2895TIP3    H1 8691   5.372   1.215   4.250
 2895TIP3    H2 8692   5.298   1.303   4.348
 2896TIP3   OH2 8693   6.189   2.864   4.523
 2896TIP3    H1 8694   6.275   2.865   4.480
 2896TIP3    H2 8695   6.195   2.791   4.586
 2897TIP3   OH2 8696   5.386   3.498   1.904
 2897TIP3    H1 8697   5.389   3.592   1.883
 2897TIP3    H2 8698   5.304   3.487   1.951
 2898TIP3   OH2 8699   6.132   0.986   0.566
 2898TIP3    H1 8700   6.057   1.045   0.560
 2898TIP3    H2 8701   6.208   1.043   0.560
 2899TIP3   OH2 8702   3.137   5.001   0.205
 2899TIP3    H1 8703   3.216   4.954   0.179
 2899TIP3    H2 8704   3.086   4.938   0.256
 2900TIP3   OH2 8705   0.606   2.793   0.524
 2900TIP3    H1 8706   0.690   2.802   0.479
 2900TIP3    H2 8707   0.541   2.815   0.457
 2901TIP3   OH2 8708   1.791   5.495   2.243
 2901TIP3    H1 8709   1.737   5.561   2.287
 2901TIP3    H2 8710   1.877   5.537   2.235
 2902TIP3   OH2 8711   1.892   3.290   0.347
 2902TIP3    H1 8712   1.834   3.336   0.285
 2902TIP3    H2 8713   1.838   3.219   0.381
 2903TIP3   OH2 8714   3.623   4.440   2.041
 2903TIP3    H1 8715   3.623   4.527   2.001
 2903TIP3    H2 8716   3.540   4.435   2.088
 2904TIP3   OH2 8717   4.249   5.825   4.918
 2904TIP3    H1 8718   4.177   5.764   4.927
 2904TIP3    H2 8719   4.327   5.770   4.911
 2905TIP3   OH2 8720   0.477   4.468   3.156
 2905TIP3    H1 8721   0.440   4.476   3.068
 2905TIP3    H2 8722   0.491   4.559   3.184
 2906TIP3   OH2 8723   1.503   1.777   4.734
 2906TIP3    H1 8724   1.534   1.812   4.651
 2906TIP3    H2 8725   1.570   1.714   4.761
 2907TIP3   OH2 8726   2.566   1.728   0.877
 2907TIP3    H1 8727   2.639   1.779   0.911
 2907TIP3    H2 8728   2.553   1.658   0.941
 2908TIP3   OH2 8729   5.962   1.411   5.023
 2908TIP3    H1 8730   5.952   1.375   4.935
 2908TIP3    H2 8731   5.948   1.336   5.081
 2909TIP3   OH2 8732   0.495   0.976   0.831
 2909TIP3    H1 8733   0.567   1.020   0.876
 2909TIP3    H2 8734   0.480   0.896   0.881
 2910TIP3   OH2 8735   1.972   3.601   1.359
 2910TIP3    H1 8736   1.942   3.515   1.389
 2910TIP3    H2 8737   2.044   3.581   1.299
 2911TIP3   OH2 8738   5.303   1.957   0.504
 2911TIP3    H1 8739   5.240   1.954   0.432
 2911TIP3    H2 8740   5.370   2.019   0.475
 2912TIP3   OH2 8741   4.887   3.366   1.246
 2912TIP3    H1 8742   4.800   3.329   1.233
 2912TIP3    H2 8743   4.920   3.321   1.324
 2913TIP3   OH2 8744   3.653   4.672   4.175
 2913TIP3    H1 8745   3.567   4.646   4.144
 2913TIP3    H2 8746   3.692   4.720   4.102
 2914TIP3   OH2 8747   3.860   4.576   3.876
 2914TIP3    H1 8748   3.860   4.482   3.890
 2914TIP3    H2 8749   3.939   4.608   3.920
 2915TIP3   OH2 8750   2.539   3.290   0.574
 2915TIP3    H1 8751   2.601   3.219   0.590
 2915TIP3    H2 8752   2.459   3.245   0.546
 2916TIP3   OH2 8753   0.800   1.817   4.065
 2916TIP3    H1 8754   0.735   1.762   4.108
 2916TIP3    H2 8755   0.772   1.906   4.083
 2917TIP3   OH2 8756   2.860   3.580   0.728
 2917TIP3    H1 8757   2.831   3.537   0.648
 2917TIP3    H2 8758   2.826   3.525   0.799
 2918TIP3   OH2 8759   0.475   3.050   0.096
 2918TIP3    H1 8760   0.423   3.122   0.061
 2918TIP3    H2 8761   0.549   3.092   0.139
 2919TIP3   OH2 8762   6.080   3.508   5.184
 2919TIP3    H1 8763   6.004   3.500   5.126
 2919TIP3    H2 8764   6.042   3.521   5.271
 2920TIP3   OH2 8765   3.021   3.340   2.377
 2920TIP3    H1 8766   3.107   3.384   2.381
 2920TIP3    H2 8767   3.042   3.247   2.371
 2921TIP3   OH2 8768   2.263   5.846   2.725
 2921TIP3    H1 8769   2.246   5.846   2.819
 2921TIP3    H2 8770   2.332   5.780   2.714
 2922TIP3   OH2 8771   1.376   3.862   1.188
 2922TIP3    H1 8772   1.449   3.877   1.247
 2922TIP3    H2 8773   1.416   3.831   1.106
 2923TIP3   OH2 8774   0.392   3.408   0.518
 2923TIP3    H1 8775   0.312   3.358   0.531
 2923TIP3    H2 8776   0.398   3.419   0.423
 2924TIP3   OH2 8777   0.713   0.525   0.984
 2924TIP3    H1 8778   0.765   0.501   1.061
 2924TIP3    H2 8779   0.727   0.453   0.923
 2925TIP3   OH2 8780   4.761   2.850   1.664
 2925TIP3    H1 8781   4.743   2.825   1.755
 2925TIP3    H2 8782   4.852   2.825   1.649
 2926TIP3   OH2 8783   5.990   3.369   3.920
 2926TIP3    H1 8784   5.949   3.296   3.874
 2926TIP3    H2 8785   6.058   3.328   3.974
 2927TIP3   OH2 8786   4.259   3.900   0.108
 2927TIP3    H1 8787   4.267   3.966   0.177
 2927TIP3    H2 8788   4.210   3.944   0.038
 2928TIP3   OH2 8789   4.559   4.609   5.110
 2928TIP3    H1 8790   4.489   4.616   5.175
 2928TIP3    H2 8791   4.617   4.541   5.143
 2929TIP3   OH2 8792   1.247   2.769   4.635
 2929TIP3    H1 8793   1.328   2.720   4.647
 2929TIP3    H2 8794   1.178   2.709   4.663
 2930TIP3   OH2 8795   6.215   5.271   1.922
 2930TIP3    H1 8796   6.218   5.333   1.849
 2930TIP3    H2 8797   6.289   5.295   1.977
 2931TIP3   OH2 8798   4.114   2.099   2.132
 2931TIP3    H1 8799   4.186   2.060   2.083
 2931TIP3    H2 8800   4.038   2.045   2.112
 2932TIP3   OH2 8801   3.258   0.175   0.085
 2932TIP3    H1 8802   3.217   0.107   0.139
 2932TIP3    H2 8803   3.349   0.145   0.075
 2933TIP3   OH2 8804   0.608   1.996   4.106
 2933TIP3    H1 8805   0.598   2.091   4.098
 2933TIP3    H2 8806   0.529   1.961   4.064
 2934TIP3   OH2 8807   3.331   5.739   1.152
 2934TIP3    H1 8808   3.290   5.825   1.164
 2934TIP3    H2 8809   3.421   5.758   1.129
 2935TIP3   OH2 8810   2.064   0.805   0.752
 2935TIP3    H1 8811   2.140   0.854   0.721
 2935TIP3    H2 8812   1.992   0.868   0.749
 2936TIP3   OH2 8813   4.564   3.728   0.353
 2936TIP3    H1 8814   4.577   3.636   0.374
 2936TIP3    H2 8815   4.610   3.741   0.270
 2937TIP3   OH2 8816   5.233   2.190   4.921
 2937TIP3    H1 8817   5.214   2.276   4.883
 2937TIP3    H2 8818   5.216   2.128   4.851
 2938TIP3   OH2 8819   0.580   0.387   3.293
 2938TIP3    H1 8820   0.597   0.398   3.200
 2938TIP3    H2 8821   0.560   0.475   3.325
 2939TIP3   OH2 8822   5.626   0.814   4.025
 2939TIP3    H1 8823   5.615   0.722   4.000
 2939TIP3    H2 8824   5.720   0.823   4.041
 2940TIP3   OH2 8825   1.892   5.443   1.724
 2940TIP3    H1 8826   1.855   5.411   1.642
 2940TIP3    H2 8827   1.862   5.380   1.790
 2941TIP3   OH2 8828   5.450   0.147   4.976
 2941TIP3    H1 8829   5.413   0.142   5.064
 2941TIP3    H2 8830   5.512   0.074   4.972
 2942TIP3   OH2 8831   2.708   2.077   3.206
 2942TIP3    H1 8832   2.681   2.125   3.284
 2942TIP3    H2 8833   2.626   2.049   3.166
 2943TIP3   OH2 8834   1.743   1.203   1.885
 2943TIP3    H1 8835   1.767   1.173   1.798
 2943TIP3    H2 8836   1.824   1.197   1.936
 2944TIP3   OH2 8837   5.189   0.750   5.110
 2944TIP3    H1 8838   5.263   0.689   5.118
 2944TIP3    H2 8839   5.208   0.819   5.174
 2945TIP3   OH2 8840   5.682   2.650   1.580
 2945TIP3    H1 8841   5.666   2.651   1.486
 2945TIP3    H2 8842   5.729   2.731   1.598
 2946TIP3   OH2 8843   6.274   5.696   2.729
 2946TIP3    H1 8844   6.336   5.730   2.663
 2946TIP3    H2 8845   6.240   5.616   2.690
 2947TIP3   OH2 8846   4.357   0.400   5.215
 2947TIP3    H1 8847   4.353   0.445   5.130
 2947TIP3    H2 8848   4.282   0.341   5.215
 2948TIP3   OH2 8849   5.017   4.769   4.928
 2948TIP3    H1 8850   5.037   4.780   5.022
 2948TIP3    H2 8851   5.026   4.675   4.913
 2949TIP3   OH2 8852   4.816   0.171   1.412
 2949TIP3    H1 8853   4.751   0.152   1.480
 2949TIP3    H2 8854   4.863   0.089   1.400
 2950TIP3   OH2 8855   3.096   2.282   5.078
 2950TIP3    H1 8856   3.074   2.346   5.010
 2950TIP3    H2 8857   3.191   2.268   5.068
 2951TIP3   OH2 8858   1.849   0.061   2.585
 2951TIP3    H1 8859   1.943   0.051   2.567
 2951TIP3    H2 8860   1.821  -0.027   2.612
 2952TIP3   OH2 8861   4.872   2.217   2.990
 2952TIP3    H1 8862   4.935   2.204   2.920
 2952TIP3    H2 8863   4.901   2.296   3.035
 2953TIP3   OH2 8864   3.335   4.921   2.958
 2953TIP3    H1 8865   3.409   4.943   3.014
 2953TIP3    H2 8866   3.309   5.004   2.919
 2954TIP3   OH2 8867   4.910   1.881   3.892
 2954TIP3    H1 8868   4.951   1.794   3.899
 2954TIP3    H2 8869   4.984   1.942   3.888
 2955TIP3   OH2 8870   2.893   5.413   4.842
 2955TIP3    H1 8871   2.949   5.379   4.772
 2955TIP3    H2 8872   2.923   5.369   4.921
 2956TIP3   OH2 8873   2.239   0.315   4.634
 2956TIP3    H1 8874   2.293   0.316   4.713
 2956TIP3    H2 8875   2.150   0.328   4.666
 2957TIP3   OH2 8876   0.339   0.709   1.430
 2957TIP3    H1 8877   0.335   0.616   1.408
 2957TIP3    H2 8878   0.274   0.720   1.499
 2958TIP3   OH2 8879   3.897   0.226   0.542
 2958TIP3    H1 8880   3.810   0.266   0.529
 2958TIP3    H2 8881   3.958   0.294   0.516
 2959TIP3   OH2 8882   5.740   0.486   0.027
 2959TIP3    H1 8883   5.733   0.435   0.108
 2959TIP3    H2 8884   5.771   0.572   0.056
 2960TIP3   OH2 8885   3.168   1.281   3.267
 2960TIP3    H1 8886   3.222   1.307   3.192
 2960TIP3    H2 8887   3.119   1.361   3.289
 2961TIP3   OH2 8888   0.191   1.594   3.447
 2961TIP3    H1 8889   0.102   1.576   3.475
 2961TIP3    H2 8890   0.195   1.565   3.356
 2962TIP3   OH2 8891   1.451   4.546   2.441
 2962TIP3    H1 8892   1.544   4.565   2.431
 2962TIP3    H2 8893   1.439   4.534   2.535
 2963TIP3   OH2 8894   3.587   5.851   1.782
 2963TIP3    H1 8895   3.631   5.882   1.861
 2963TIP3    H2 8896   3.530   5.781   1.813
 2964TIP3   OH2 8897   5.256   5.710   0.967
 2964TIP3    H1 8898   5.196   5.743   1.034
 2964TIP3    H2 8899   5.321   5.780   0.957
 2965TIP3   OH2 8900   3.914   2.360   0.103
 2965TIP3    H1 8901   3.974   2.420   0.147
 2965TIP3    H2 8902   3.930   2.275   0.146
 2966TIP3   OH2 8903   2.005   5.155   3.636
 2966TIP3    H1 8904   2.052   5.074   3.656
 2966TIP3    H2 8905   1.992   5.196   3.722
 2967TIP3   OH2 8906   4.281   2.535   0.930
 2967TIP3    H1 8907   4.291   2.554   1.023
 2967TIP3    H2 8908   4.321   2.610   0.885
 2968TIP3   OH2 8909   2.110   2.216   1.477
 2968TIP3    H1 8910   2.032   2.168   1.504
 2968TIP3    H2 8911   2.179   2.149   1.472
 2969TIP3   OH2 8912   4.746   5.044   3.884
 2969TIP3    H1 8913   4.720   4.954   3.903
 2969TIP3    H2 8914   4.697   5.097   3.946
 2970TIP3   OH2 8915   5.255   3.096   2.499
 2970TIP3    H1 8916   5.311   3.063   2.568
 2970TIP3    H2 8917   5.176   3.127   2.544
 2971TIP3   OH2 8918   0.705   5.317   2.613
 2971TIP3    H1 8919   0.790   5.320   2.658
 2971TIP3    H2 8920   0.705   5.231   2.570
 2972TIP3   OH2 8921   2.000   3.080   0.931
 2972TIP3    H1 8922   1.970   2.991   0.910
 2972TIP3    H2 8923   1.920   3.129   0.950
 2973TIP3   OH2 8924   3.984   5.844   3.256
 2973TIP3    H1 8925   3.939   5.869   3.337
 2973TIP3    H2 8926   4.003   5.926   3.212
 2974TIP3   OH2 8927   6.038   5.259   2.493
 2974TIP3    H1 8928   5.943   5.259   2.505
 2974TIP3    H2 8929   6.054   5.187   2.432
 2975TIP3   OH2 8930   0.960   4.463   4.404
 2975TIP3    H1 8931   0.939   4.463   4.311
 2975TIP3    H2 8932   0.990   4.374   4.421
 2976TIP3   OH2 8933   3.191   0.243   0.885
 2976TIP3    H1 8934   3.174   0.156   0.848
 2976TIP3    H2 8935   3.138   0.303   0.832
 2977TIP3   OH2 8936   3.462   3.897   0.734
 2977TIP3    H1 8937   3.403   3.972   0.724
 2977TIP3    H2 8938   3.469   3.885   0.829
 2978TIP3   OH2 8939   0.911   0.465   1.183
 2978TIP3    H1 8940   0.904   0.549   1.229
 2978TIP3    H2 8941   0.982   0.419   1.227
 2979TIP3   OH2 8942   0.959   1.916   1.469
 2979TIP3    H1 8943   1.011   1.949   1.396
 2979TIP3    H2 8944   1.017   1.920   1.545
 2980TIP3   OH2 8945   3.877   0.761   0.329
 2980TIP3    H1 8946   3.940   0.830   0.309
 2980TIP3    H2 8947   3.899   0.691   0.266
 2981TIP3   OH2 8948   3.134   4.270   4.611
 2981TIP3    H1 8949   3.062   4.206   4.612
 2981TIP3    H2 8950   3.094   4.350   4.578
 2982TIP3   OH2 8951   0.862   5.865   1.350
 2982TIP3    H1 8952   0.825   5.924   1.284
 2982TIP3    H2 8953   0.891   5.923   1.421
 2983TIP3   OH2 8954   2.063   4.800   2.392
 2983TIP3    H1 8955   2.126   4.809   2.463
 2983TIP3    H2 8956   2.114   4.771   2.317
 2984TIP3   OH2 8957   4.292   4.152   2.204
 2984TIP3    H1 8958   4.325   4.221   2.146
 2984TIP3    H2 8959   4.219   4.113   2.156
 2985TIP3   OH2 8960   5.591   2.636   2.315
 2985TIP3    H1 8961   5.507   2.667   2.349
 2985TIP3    H2 8962   5.584   2.648   2.220
 2986TIP3   OH2 8963   3.991   1.812   1.598
 2986TIP3    H1 8964   3.980   1.898   1.560
 2986TIP3    H2 8965   4.077   1.782   1.566
 2987TIP3   OH2 8966   5.844   1.821   2.686
 2987TIP3    H1 8967   5.846   1.733   2.723
 2987TIP3    H2 8968   5.809   1.809   2.597
 2988TIP3   OH2 8969   4.773   2.153   1.144
 2988TIP3    H1 8970   4.706   2.087   1.127
 2988TIP3    H2 8971   4.725   2.227   1.182
 2989TIP3   OH2 8972   4.433   3.889   1.951
 2989TIP3    H1 8973   4.485   3.831   1.896
 2989TIP3    H2 8974   4.344   3.879   1.919
 2990TIP3   OH2 8975   1.162   4.840   2.078
 2990TIP3    H1 8976   1.116   4.818   2.160
 2990TIP3    H2 8977   1.248   4.798   2.087
 2991TIP3   OH2 8978   6.129   2.333   5.000
 2991TIP3    H1 8979   6.199   2.392   4.973
 2991TIP3    H2 8980   6.103   2.287   4.920
 2992TIP3   OH2 8981   1.314   2.582   1.859
 2992TIP3    H1 8982   1.393   2.619   1.898
 2992TIP3    H2 8983   1.332   2.579   1.765
 2993TIP3   OH2 8984   3.252   2.122   2.849
 2993TIP3    H1 8985   3.233   2.191   2.913
 2993TIP3    H2 8986   3.268   2.169   2.767
 2994TIP3   OH2 8987   3.326   5.464   1.561
 2994TIP3    H1 8988   3.314   5.553   1.526
 2994TIP3    H2 8989   3.412   5.438   1.527
 2995TIP3   OH2 8990   0.429   0.439   2.628
 2995TIP3    H1 8991   0.498   0.497   2.596
 2995TIP3    H2 8992   0.384   0.491   2.695
 2996TIP3   OH2 8993   3.303   4.224   4.819
 2996TIP3    H1 8994   3.267   4.247   4.733
 2996TIP3    H2 8995   3.258   4.143   4.843
 2997TIP3   OH2 8996   1.944   0.791   2.686
 2997TIP3    H1 8997   1.937   0.707   2.641
 2997TIP3    H2 8998   1.891   0.851   2.633
 2998TIP3   OH2 8999   0.503   2.775   2.809
 2998TIP3    H1 9000   0.500   2.765   2.714
 2998TIP3    H2 9001   0.419   2.815   2.831
 2999TIP3   OH2 9002   3.123   0.972   0.241
 2999TIP3    H1 9003   3.200   1.022   0.217
 2999TIP3    H2 9004   3.053   1.037   0.247
 3000TIP3   OH2 9005   0.766   2.746   0.253
 3000TIP3    H1 9006   0.842   2.703   0.292
 3000TIP3    H2 9007   0.798   2.832   0.225
 3001TIP3   OH2 9008   5.611   2.185   5.202
 3001TIP3    H1 9009   5.641   2.175   5.112
 3001TIP3    H2 9010   5.543   2.118   5.213
 3002TIP3   OH2 9011   5.864   2.571   3.004
 3002TIP3    H1 9012   5.911   2.488   3.014
 3002TIP3    H2 9013   5.829   2.567   2.915
 3003TIP3   OH2 9014   6.318   1.362   1.586
 3003TIP3    H1 9015   6.300   1.340   1.495
 3003TIP3    H2 9016   6.314   1.278   1.632
 3004TIP3   OH2 9017   4.241   2.662   1.189
 3004TIP3    H1 9018   4.246   2.618   1.274
 3004TIP3    H2 9019   4.158   2.710   1.191
 3005TIP3   OH2 9020   1.812   1.957   0.613
 3005TIP3    H1 9021   1.818   1.947   0.708
 3005TIP3    H2 9022   1.798   2.051   0.600
 3006TIP3   OH2 9023   0.796   3.717   0.401
 3006TIP3    H1 9024   0.849   3.743   0.326
 3006TIP3    H2 9025   0.855   3.667   0.456
 3007TIP3   OH2 9026   3.683   2.233   0.595
 3007TIP3    H1 9027   3.690   2.241   0.500
 3007TIP3    H2 9028   3.609   2.290   0.618
 3008TIP3   OH2 9029   3.347  -0.028   0.998
 3008TIP3    H1 9030   3.436   0.005   1.012
 3008TIP3    H2 9031   3.324  -0.071   1.080
 3009TIP3   OH2 9032   4.356   1.520   5.093
 3009TIP3    H1 9033   4.300   1.558   5.160
 3009TIP3    H2 9034   4.399   1.447   5.138
 3010TIP3   OH2 9035   0.721   3.690   3.501
 3010TIP3    H1 9036   0.706   3.729   3.415
 3010TIP3    H2 9037   0.637   3.698   3.546
 3011TIP3   OH2 9038   2.142   5.891   4.270
 3011TIP3    H1 9039   2.053   5.858   4.264
 3011TIP3    H2 9040   2.171   5.867   4.358
 3012TIP3   OH2 9041   1.030   1.641   3.165
 3012TIP3    H1 9042   0.941   1.607   3.153
 3012TIP3    H2 9043   1.083   1.564   3.184
 3013TIP3   OH2 9044   3.931   1.556   1.165
 3013TIP3    H1 9045   3.864   1.611   1.206
 3013TIP3    H2 9046   3.888   1.521   1.087
 3014TIP3   OH2 9047   2.509   2.228   0.405
 3014TIP3    H1 9048   2.514   2.298   0.470
 3014TIP3    H2 9049   2.422   2.238   0.366
 3015TIP3   OH2 9050   5.414   0.672   2.289
 3015TIP3    H1 9051   5.319   0.666   2.292
 3015TIP3    H2 9052   5.444   0.581   2.289
 3016TIP3   OH2 9053   3.178   1.694   0.412
 3016TIP3    H1 9054   3.224   1.771   0.378
 3016TIP3    H2 9055   3.235   1.661   0.482
 3017TIP3   OH2 9056   5.381   4.996   0.320
 3017TIP3    H1 9057   5.405   4.917   0.272
 3017TIP3    H2 9058   5.297   5.023   0.281
 3018TIP3   OH2 9059   4.514   0.139   3.177
 3018TIP3    H1 9060   4.438   0.091   3.211
 3018TIP3    H2 9061   4.570   0.151   3.253
 3019TIP3   OH2 9062   4.615   3.717   4.214
 3019TIP3    H1 9063   4.599   3.679   4.301
 3019TIP3    H2 9064   4.707   3.700   4.197
 3020TIP3   OH2 9065   3.496   1.243   0.456
 3020TIP3    H1 9066   3.551   1.236   0.378
 3020TIP3    H2 9067   3.558   1.249   0.528
 3021TIP3   OH2 9068   2.599   2.187   3.429
 3021TIP3    H1 9069   2.529   2.230   3.479
 3021TIP3    H2 9070   2.650   2.140   3.495
 3022TIP3   OH2 9071   2.874   2.703   4.575
 3022TIP3    H1 9072   2.926   2.783   4.578
 3022TIP3    H2 9073   2.787   2.731   4.549
 3023TIP3   OH2 9074   0.335   2.471   1.999
 3023TIP3    H1 9075   0.327   2.418   1.919
 3023TIP3    H2 9076   0.376   2.553   1.969
 3024TIP3   OH2 9077   1.580   4.742   4.401
 3024TIP3    H1 9078   1.639   4.689   4.454
 3024TIP3    H2 9079   1.493   4.708   4.422
 3025TIP3   OH2 9080   3.844   0.172   3.036
 3025TIP3    H1 9081   3.919   0.168   3.097
 3025TIP3    H2 9082   3.859   0.251   2.985
 3026TIP3   OH2 9083   0.158   4.235   1.780
 3026TIP3    H1 9084   0.174   4.326   1.804
 3026TIP3    H2 9085   0.080   4.210   1.829
 3027TIP3   OH2 9086   2.754   0.994   4.930
 3027TIP3    H1 9087   2.739   0.920   4.988
 3027TIP3    H2 9088   2.845   0.986   4.903
 3028TIP3   OH2 9089   1.130   3.252   4.751
 3028TIP3    H1 9090   1.208   3.249   4.696
 3028TIP3    H2 9091   1.110   3.345   4.759
 3029TIP3   OH2 9092   0.505   1.461   3.475
 3029TIP3    H1 9093   0.560   1.411   3.414
 3029TIP3    H2 9094   0.434   1.494   3.420
 3030TIP3   OH2 9095   1.056   1.050   1.462
 3030TIP3    H1 9096   1.075   1.080   1.551
 3030TIP3    H2 9097   0.961   1.053   1.456
 3031TIP3   OH2 9098   5.785   5.845   3.523
 3031TIP3    H1 9099   5.815   5.758   3.549
 3031TIP3    H2 9100   5.722   5.829   3.453
 3032TIP3   OH2 9101   2.934   1.137   0.858
 3032TIP3    H1 9102   2.840   1.122   0.866
 3032TIP3    H2 9103   2.948   1.155   0.765
 3033TIP3   OH2 9104   2.333   2.797   2.272
 3033TIP3    H1 9105   2.413   2.845   2.296
 3033TIP3    H2 9106   2.365   2.720   2.226
 3034TIP3   OH2 9107   6.190   5.232   4.534
 3034TIP3    H1 9108   6.224   5.307   4.582
 3034TIP3    H2 9109   6.259   5.212   4.470
 3035TIP3   OH2 9110   1.585   4.890   2.315
 3035TIP3    H1 9111   1.587   4.905   2.410
 3035TIP3    H2 9112   1.658   4.831   2.298
 3036TIP3   OH2 9113   0.521   4.435   4.621
 3036TIP3    H1 9114   0.428   4.445   4.600
 3036TIP3    H2 9115   0.524   4.434   4.717
 3037TIP3   OH2 9116   2.681   4.567   3.652
 3037TIP3    H1 9117   2.635   4.635   3.603
 3037TIP3    H2 9118   2.773   4.592   3.648
 3038TIP3   OH2 9119   2.324   3.283   3.604
 3038TIP3    H1 9120   2.288   3.328   3.680
 3038TIP3    H2 9121   2.332   3.350   3.537
 3039TIP3   OH2 9122   3.885   4.721   2.239
 3039TIP3    H1 9123   3.826   4.731   2.164
 3039TIP3    H2 9124   3.842   4.768   2.310
 3040TIP3   OH2 9125   3.580   0.765   1.779
 3040TIP3    H1 9126   3.573   0.764   1.683
 3040TIP3    H2 9127   3.640   0.837   1.798
 3041TIP3   OH2 9128   5.311   0.982   2.440
 3041TIP3    H1 9129   5.324   0.887   2.438
 3041TIP3    H2 9130   5.220   0.993   2.468
 3042TIP3   OH2 9131   0.873   5.574   2.983
 3042TIP3    H1 9132   0.881   5.495   2.931
 3042TIP3    H2 9133   0.779   5.593   2.985
 3043TIP3   OH2 9134   1.017   0.757   3.754
 3043TIP3    H1 9135   0.947   0.793   3.808
 3043TIP3    H2 9136   0.983   0.673   3.724
 3044TIP3   OH2 9137   1.393   3.610   2.523
 3044TIP3    H1 9138   1.430   3.571   2.603
 3044TIP3    H2 9139   1.452   3.581   2.453
 3045TIP3   OH2 9140   3.944   2.924   3.520
 3045TIP3    H1 9141   3.864   2.962   3.485
 3045TIP3    H2 9142   3.985   2.996   3.569
 3046TIP3   OH2 9143   0.231   0.496   3.523
 3046TIP3    H1 9144   0.177   0.431   3.568
 3046TIP3    H2 9145   0.288   0.532   3.591
 3047TIP3   OH2 9146   2.705   1.780   3.774
 3047TIP3    H1 9147   2.673   1.807   3.860
 3047TIP3    H2 9148   2.788   1.735   3.791
 3048TIP3   OH2 9149   3.356   1.097   0.169
 3048TIP3    H1 9150   3.399   1.014   0.149
 3048TIP3    H2 9151   3.428   1.160   0.175
 3049TIP3   OH2 9152   0.459   2.009   3.124
 3049TIP3    H1 9153   0.430   1.990   3.213
 3049TIP3    H2 9154   0.550   2.037   3.134
 3050TIP3   OH2 9155   5.827   0.899   2.245
 3050TIP3    H1 9156   5.827   0.833   2.314
 3050TIP3    H2 9157   5.735   0.922   2.232
 3051TIP3   OH2 9158   2.057   5.256   5.058
 3051TIP3    H1 9159   2.131   5.253   4.997
 3051TIP3    H2 9160   1.998   5.322   5.021
 3052TIP3   OH2 9161   4.691   1.079   0.470
 3052TIP3    H1 9162   4.724   1.003   0.518
 3052TIP3    H2 9163   4.702   1.152   0.530
 3053TIP3   OH2 9164   2.919   0.462   1.135
 3053TIP3    H1 9165   2.945   0.466   1.227
 3053TIP3    H2 9166   2.853   0.393   1.132
 3054TIP3   OH2 9167   1.533   1.469   3.454
 3054TIP3    H1 9168   1.481   1.542   3.420
 3054TIP3    H2 9169   1.468   1.400   3.471
 3055TIP3   OH2 9170   5.256   4.609   0.056
 3055TIP3    H1 9171   5.201   4.586  -0.019
 3055TIP3    H2 9172   5.338   4.562   0.042
 3056TIP3   OH2 9173   4.226   0.169   2.926
 3056TIP3    H1 9174   4.243   0.083   2.966
 3056TIP3    H2 9175   4.164   0.150   2.856
 3057TIP3   OH2 9176   5.449   3.369   2.982
 3057TIP3    H1 9177   5.374   3.427   2.990
 3057TIP3    H2 9178   5.442   3.332   2.894
 3058TIP3   OH2 9179   5.821   4.680   4.956
 3058TIP3    H1 9180   5.877   4.664   4.880
 3058TIP3    H2 9181   5.763   4.604   4.959
 3059TIP3   OH2 9182   4.600   0.034   0.625
 3059TIP3    H1 9183   4.657   0.090   0.678
 3059TIP3    H2 9184   4.511   0.058   0.652
 3060TIP3   OH2 9185   5.384   5.842   1.378
 3060TIP3    H1 9186   5.480   5.844   1.383
 3060TIP3    H2 9187   5.364   5.757   1.339
 3061TIP3   OH2 9188   3.115   3.946   1.238
 3061TIP3    H1 9189   3.203   3.923   1.269
 3061TIP3    H2 9190   3.093   4.025   1.287
 3062TIP3   OH2 9191   2.200   2.655   2.572
 3062TIP3    H1 9192   2.170   2.630   2.485
 3062TIP3    H2 9193   2.294   2.636   2.571
 3063TIP3   OH2 9194   5.990   4.292   2.598
 3063TIP3    H1 9195   6.034   4.211   2.624
 3063TIP3    H2 9196   5.902   4.285   2.636
 3064TIP3   OH2 9197   2.479   0.281   0.366
 3064TIP3    H1 9198   2.393   0.279   0.408
 3064TIP3    H2 9199   2.464   0.329   0.285
 3065TIP3   OH2 9200   5.702   4.111   3.741
 3065TIP3    H1 9201   5.770   4.171   3.770
 3065TIP3    H2 9202   5.626   4.167   3.724
 3066TIP3   OH2 9203   2.394   5.939   1.044
 3066TIP3    H1 9204   2.386   5.875   0.973
 3066TIP3    H2 9205   2.485   5.968   1.040
 3067TIP3   OH2 9206   2.369   0.089   4.245
 3067TIP3    H1 9207   2.373   0.154   4.315
 3067TIP3    H2 9208   2.453   0.099   4.199
 3068TIP3   OH2 9209   5.918   4.656   0.060
 3068TIP3    H1 9210   5.898   4.742   0.022
 3068TIP3    H2 9211   5.887   4.593  -0.005
 3069TIP3   OH2 9212   2.603   3.159   1.679
 3069TIP3    H1 9213   2.662   3.178   1.606
 3069TIP3    H2 9214   2.519   3.138   1.637
 3070TIP3   OH2 9215   2.138   3.024   4.099
 3070TIP3    H1 9216   2.073   3.094   4.106
 3070TIP3    H2 9217   2.104   2.966   4.031
 3071TIP3   OH2 9218   5.537   5.698   4.397
 3071TIP3    H1 9219   5.603   5.731   4.336
 3071TIP3    H2 9220   5.481   5.774   4.415
 3072TIP3   OH2 9221   0.950   5.758   0.317
 3072TIP3    H1 9222   0.971   5.664   0.315
 3072TIP3    H2 9223   0.854   5.761   0.318
 3073TIP3   OH2 9224   0.715   3.881   4.912
 3073TIP3    H1 9225   0.705   3.793   4.949
 3073TIP3    H2 9226   0.695   3.871   4.819
 3074TIP3   OH2 9227   5.363   4.852   2.361
 3074TIP3    H1 9228   5.282   4.813   2.394
 3074TIP3    H2 9229   5.402   4.785   2.306
 3075TIP3   OH2 9230   2.564   3.098   0.053
 3075TIP3    H1 9231   2.658   3.108   0.041
 3075TIP3    H2 9232   2.533   3.186   0.078
 3076TIP3   OH2 9233   1.740   0.137   4.392
 3076TIP3    H1 9234   1.682   0.102   4.460
 3076TIP3    H2 9235   1.798   0.197   4.439
 3077TIP3   OH2 9236   3.992   3.561   0.714
 3077TIP3    H1 9237   3.926   3.615   0.669
 3077TIP3    H2 9238   3.941   3.506   0.773
 3078TIP3   OH2 9239   2.023   4.937   0.656
 3078TIP3    H1 9240   1.993   4.961   0.744
 3078TIP3    H2 9241   1.982   4.852   0.639
 3079TIP3   OH2 9242   0.232   4.525   4.040
 3079TIP3    H1 9243   0.215   4.455   3.977
 3079TIP3    H2 9244   0.153   4.580   4.036
 3080TIP3   OH2 9245   4.720   0.200   4.135
 3080TIP3    H1 9246   4.742   0.290   4.110
 3080TIP3    H2 9247   4.632   0.207   4.172
 3081TIP3   OH2 9248   6.004   0.507   3.164
 3081TIP3    H1 9249   5.997   0.595   3.126
 3081TIP3    H2 9250   6.047   0.455   3.096
 3082TIP3   OH2 9251   3.008   3.023   0.860
 3082TIP3    H1 9252   2.990   2.983   0.774
 3082TIP3    H2 9253   3.051   3.105   0.839
 3083TIP3   OH2 9254   1.586   2.391   3.545
 3083TIP3    H1 9255   1.576   2.473   3.497
 3083TIP3    H2 9256   1.569   2.323   3.480
 3084TIP3   OH2 9257   3.889   3.419   3.755
 3084TIP3    H1 9258   3.933   3.370   3.686
 3084TIP3    H2 9259   3.951   3.488   3.778
 3085TIP3   OH2 9260   3.106   1.541   4.278
 3085TIP3    H1 9261   3.152   1.614   4.237
 3085TIP3    H2 9262   3.150   1.529   4.362
 3086TIP3   OH2 9263   0.055   3.928   1.594
 3086TIP3    H1 9264   0.060   3.920   1.689
 3086TIP3    H2 9265   0.037   3.839   1.563
 3087TIP3   OH2 9266   2.485   1.764   1.714
 3087TIP3    H1 9267   2.522   1.834   1.768
 3087TIP3    H2 9268   2.477   1.689   1.773
 3088TIP3   OH2 9269   0.158   0.722   2.311
 3088TIP3    H1 9270   0.130   0.707   2.220
 3088TIP3    H2 9271   0.245   0.684   2.316
 3089TIP3   OH2 9272   2.478   0.655   2.104
 3089TIP3    H1 9273   2.392   0.637   2.065
 3089TIP3    H2 9274   2.480   0.601   2.183
 3090TIP3   OH2 9275   5.301   0.147   2.948
 3090TIP3    H1 9276   5.366   0.137   2.878
 3090TIP3    H2 9277   5.225   0.099   2.917
 3091TIP3   OH2 9278   3.575   1.568   0.820
 3091TIP3    H1 9279   3.485   1.543   0.838
 3091TIP3    H2 9280   3.590   1.542   0.730
 3092TIP3   OH2 9281   2.859   3.493   3.435
 3092TIP3    H1 9282   2.941   3.499   3.387
 3092TIP3    H2 9283   2.883   3.462   3.522
 3093TIP3   OH2 9284   2.431   1.356   5.136
 3093TIP3    H1 9285   2.389   1.439   5.156
 3093TIP3    H2 9286   2.371   1.312   5.076
 3094TIP3   OH2 9287   1.802   4.658   4.633
 3094TIP3    H1 9288   1.882   4.657   4.686
 3094TIP3    H2 9289   1.757   4.737   4.660
 3095TIP3   OH2 9290   5.686   2.954   2.233
 3095TIP3    H1 9291   5.726   3.018   2.175
 3095TIP3    H2 9292   5.667   2.879   2.177
 3096TIP3   OH2 9293   5.660   3.738   2.339
 3096TIP3    H1 9294   5.694   3.712   2.425
 3096TIP3    H2 9295   5.680   3.664   2.282
 3097TIP3   OH2 9296   3.172   3.192   3.992
 3097TIP3    H1 9297   3.108   3.127   4.021
 3097TIP3    H2 9298   3.252   3.142   3.975
 3098TIP3   OH2 9299   5.090   5.424   4.344
 3098TIP3    H1 9300   4.998   5.449   4.354
 3098TIP3    H2 9301   5.090   5.362   4.271
 3099TIP3   OH2 9302   2.632   3.142   2.673
 3099TIP3    H1 9303   2.598   3.056   2.646
 3099TIP3    H2 9304   2.725   3.140   2.648
 3100TIP3   OH2 9305   3.859   3.055   1.358
 3100TIP3    H1 9306   3.896   3.120   1.418
 3100TIP3    H2 9307   3.914   3.061   1.279
 3101TIP3   OH2 9308   0.828   1.419   3.948
 3101TIP3    H1 9309   0.848   1.340   3.999
 3101TIP3    H2 9310   0.885   1.414   3.872
 3102TIP3   OH2 9311   3.042   4.119   3.029
 3102TIP3    H1 9312   2.973   4.062   3.063
 3102TIP3    H2 9313   3.012   4.146   2.943
 3103TIP3   OH2 9314   3.334   4.443   1.593
 3103TIP3    H1 9315   3.277   4.520   1.592
 3103TIP3    H2 9316   3.362   4.433   1.502
 3104TIP3   OH2 9317   3.744   4.931   2.868
 3104TIP3    H1 9318   3.702   5.014   2.845
 3104TIP3    H2 9319   3.749   4.933   2.964
 3105TIP3   OH2 9320   1.070   0.101   5.108
 3105TIP3    H1 9321   1.135   0.169   5.123
 3105TIP3    H2 9322   1.118   0.019   5.119
 3106TIP3   OH2 9323   3.666   2.616   4.945
 3106TIP3    H1 9324   3.635   2.707   4.948
 3106TIP3    H2 9325   3.748   2.621   4.896
 3107TIP3   OH2 9326   2.656   1.694   0.394
 3107TIP3    H1 9327   2.586   1.737   0.442
 3107TIP3    H2 9328   2.719   1.666   0.461
 3108TIP3   OH2 9329   0.360   3.884   2.502
 3108TIP3    H1 9330   0.451   3.895   2.532
 3108TIP3    H2 9331   0.312   3.859   2.581
 3109TIP3   OH2 9332   3.932   1.063   4.710
 3109TIP3    H1 9333   3.911   1.142   4.660
 3109TIP3    H2 9334   3.879   1.070   4.790
 3110TIP3   OH2 9335   5.498   5.355   1.101
 3110TIP3    H1 9336   5.451   5.272   1.114
 3110TIP3    H2 9337   5.465   5.389   1.018
 3111TIP3   OH2 9338   4.077   4.004   2.925
 3111TIP3    H1 9339   4.109   4.049   2.846
 3111TIP3    H2 9340   4.022   3.933   2.892
 3112TIP3   OH2 9341   4.587   5.859   4.073
 3112TIP3    H1 9342   4.604   5.883   4.164
 3112TIP3    H2 9343   4.668   5.818   4.043
 3113TIP3   OH2 9344   4.246   5.947   1.455
 3113TIP3    H1 9345   4.187   5.957   1.381
 3113TIP3    H2 9346   4.331   5.925   1.415
 3114TIP3   OH2 9347   4.283   5.309   3.538
 3114TIP3    H1 9348   4.248   5.319   3.626
 3114TIP3    H2 9349   4.266   5.393   3.496
 3115TIP3   OH2 9350   3.689   1.850   4.718
 3115TIP3    H1 9351   3.682   1.815   4.807
 3115TIP3    H2 9352   3.781   1.876   4.709
 3116TIP3   OH2 9353   1.096   3.105   0.043
 3116TIP3    H1 9354   1.010   3.062   0.044
 3116TIP3    H2 9355   1.084   3.184   0.096
 3117TIP3   OH2 9356   5.309   2.056   0.055
 3117TIP3    H1 9357   5.275   2.108  -0.018
 3117TIP3    H2 9358   5.285   1.965   0.033
 3118TIP3   OH2 9359   2.857   3.568   1.375
 3118TIP3    H1 9360   2.811   3.530   1.299
 3118TIP3    H2 9361   2.867   3.660   1.353
 3119TIP3   OH2 9362   2.285   4.296   0.498
 3119TIP3    H1 9363   2.275   4.385   0.534
 3119TIP3    H2 9364   2.355   4.257   0.549
 3120TIP3   OH2 9365   4.871   2.011   3.370
 3120TIP3    H1 9366   4.804   1.968   3.422
 3120TIP3    H2 9367   4.836   2.099   3.354
 3121TIP3   OH2 9368   0.184   0.687   2.035
 3121TIP3    H1 9369   0.120   0.691   1.964
 3121TIP3    H2 9370   0.259   0.736   2.002
 3122TIP3   OH2 9371   0.627   2.413   2.056
 3122TIP3    H1 9372   0.584   2.328   2.050
 3122TIP3    H2 9373   0.687   2.415   1.981
 3123TIP3   OH2 9374   3.592   1.345   1.352
 3123TIP3    H1 9375   3.527   1.365   1.284
 3123TIP3    H2 9376   3.628   1.260   1.326
 3124TIP3   OH2 9377   4.969   0.261   2.590
 3124TIP3    H1 9378   4.902   0.292   2.528
 3124TIP3    H2 9379   4.936   0.176   2.619
 3125TIP3   OH2 9380   0.097   4.273   2.982
 3125TIP3    H1 9381   0.050   4.299   2.902
 3125TIP3    H2 9382   0.097   4.352   3.036
 3126TIP3   OH2 9383   0.780   4.213   2.765
 3126TIP3    H1 9384   0.701   4.200   2.712
 3126TIP3    H2 9385   0.747   4.245   2.849
 3127TIP3   OH2 9386   5.268   2.405   1.796
 3127TIP3    H1 9387   5.349   2.365   1.763
 3127TIP3    H2 9388   5.295   2.492   1.826
 3128TIP3   OH2 9389   0.800   2.698   2.198
 3128TIP3    H1 9390   0.869   2.760   2.173
 3128TIP3    H2 9391   0.847   2.616   2.216
 3129TIP3   OH2 9392   3.784   0.347   1.867
 3129TIP3    H1 9393   3.803   0.294   1.790
 3129TIP3    H2 9394   3.767   0.284   1.937
 3130TIP3   OH2 9395   4.701   0.900   4.039
 3130TIP3    H1 9396   4.684   0.994   4.033
 3130TIP3    H2 9397   4.699   0.881   4.132
 3131TIP3   OH2 9398   2.305   3.939   4.895
 3131TIP3    H1 9399   2.348   3.911   4.977
 3131TIP3    H2 9400   2.378   3.950   4.833
 3132TIP3   OH2 9401   3.635   5.598   1.622
 3132TIP3    H1 9402   3.587   5.660   1.567
 3132TIP3    H2 9403   3.718   5.643   1.640
 3133TIP3   OH2 9404   0.577   3.064   2.878
 3133TIP3    H1 9405   0.490   3.041   2.909
 3133TIP3    H2 9406   0.579   3.035   2.786
 3134TIP3   OH2 9407   3.266   4.792   2.582
 3134TIP3    H1 9408   3.345   4.751   2.548
 3134TIP3    H2 9409   3.285   4.886   2.582
 3135TIP3   OH2 9410   3.710   2.138   2.736
 3135TIP3    H1 9411   3.653   2.119   2.810
 3135TIP3    H2 9412   3.725   2.054   2.694
 3136TIP3   OH2 9413   5.347   5.765   4.632
 3136TIP3    H1 9414   5.279   5.750   4.567
 3136TIP3    H2 9415   5.348   5.859   4.645
 3137TIP3   OH2 9416   4.955   0.657   2.086
 3137TIP3    H1 9417   4.947   0.749   2.059
 3137TIP3    H2 9418   4.865   0.627   2.096
 3138TIP3   OH2 9419   0.925   2.044   3.499
 3138TIP3    H1 9420   0.839   2.058   3.460
 3138TIP3    H2 9421   0.921   2.090   3.583
 3139TIP3   OH2 9422   0.839   4.256   3.533
 3139TIP3    H1 9423   0.817   4.341   3.496
 3139TIP3    H2 9424   0.904   4.220   3.473
 3140TIP3   OH2 9425   4.433   5.794   0.153
 3140TIP3    H1 9426   4.468   5.714   0.194
 3140TIP3    H2 9427   4.497   5.861   0.173
 3141TIP3   OH2 9428   5.081   4.412   5.005
 3141TIP3    H1 9429   5.166   4.398   4.965
 3141TIP3    H2 9430   5.099   4.458   5.086
 3142TIP3   OH2 9431   0.275   0.176   3.294
 3142TIP3    H1 9432   0.331   0.130   3.231
 3142TIP3    H2 9433   0.334   0.196   3.367
 3143TIP3   OH2 9434   3.937   0.855   3.107
 3143TIP3    H1 9435   3.915   0.806   3.186
 3143TIP3    H2 9436   3.863   0.915   3.095
 3144TIP3   OH2 9437   3.202   3.530   2.460
 3144TIP3    H1 9438   3.289   3.548   2.427
 3144TIP3    H2 9439   3.204   3.558   2.552
 3145TIP3   OH2 9440   3.077   0.000   1.617
 3145TIP3    H1 9441   3.046  -0.009   1.707
 3145TIP3    H2 9442   3.030   0.076   1.583
 3146TIP3   OH2 9443   5.209   0.863   1.174
 3146TIP3    H1 9444   5.222   0.849   1.268
 3146TIP3    H2 9445   5.264   0.797   1.132
 3147TIP3   OH2 9446   4.039   0.060   4.856
 3147TIP3    H1 9447   4.017  -0.033   4.852
 3147TIP3    H2 9448   3.970   0.098   4.912
 3148TIP3   OH2 9449   5.903   5.826   1.835
 3148TIP3    H1 9450   5.854   5.908   1.836
 3148TIP3    H2 9451   5.962   5.832   1.910
 3149TIP3   OH2 9452   2.012   3.570   4.963
 3149TIP3    H1 9453   1.944   3.528   5.014
 3149TIP3    H2 9454   2.039   3.645   5.015
 3150TIP3   OH2 9455   6.079   0.339   2.967
 3150TIP3    H1 9456   6.020   0.385   2.907
 3150TIP3    H2 9457   6.145   0.299   2.911
 3151TIP3   OH2 9458   1.292   4.832   4.669
 3151TIP3    H1 9459   1.248   4.794   4.592
 3151TIP3    H2 9460   1.223   4.841   4.734
 3152TIP3   OH2 9461   4.551   3.717   0.929
 3152TIP3    H1 9462   4.623   3.694   0.988
 3152TIP3    H2 9463   4.549   3.812   0.929
 3153TIP3   OH2 9464   0.307   1.992   4.331
 3153TIP3    H1 9465   0.292   2.086   4.339
 3153TIP3    H2 9466   0.247   1.964   4.262
 3154TIP3   OH2 9467   3.553   5.630   3.373
 3154TIP3    H1 9468   3.513   5.632   3.286
 3154TIP3    H2 9469   3.489   5.584   3.428
 3155TIP3   OH2 9470   1.787   5.563   0.839
 3155TIP3    H1 9471   1.708   5.545   0.891
 3155TIP3    H2 9472   1.812   5.477   0.805
 3156TIP3   OH2 9473   1.412   4.275   1.837
 3156TIP3    H1 9474   1.367   4.206   1.787
 3156TIP3    H2 9475   1.430   4.235   1.922
 3157TIP3   OH2 9476   3.257   1.973   0.128
 3157TIP3    H1 9477   3.331   2.028   0.153
 3157TIP3    H2 9478   3.180   2.027   0.142
 3158TIP3   OH2 9479   4.155   4.795   5.160
 3158TIP3    H1 9480   4.128   4.759   5.076
 3158TIP3    H2 9481   4.080   4.779   5.218
 3159TIP3   OH2 9482   2.815   2.999   1.809
 3159TIP3    H1 9483   2.725   3.032   1.808
 3159TIP3    H2 9484   2.812   2.923   1.751
 3160TIP3   OH2 9485   4.109   1.144   0.392
 3160TIP3    H1 9486   4.095   1.191   0.475
 3160TIP3    H2 9487   4.138   1.211   0.331
 3161TIP3   OH2 9488   2.018   2.523   1.992
 3161TIP3    H1 9489   1.999   2.592   2.055
 3161TIP3    H2 9490   2.104   2.489   2.018
 3162TIP3   OH2 9491   0.582   0.651   0.446
 3162TIP3    H1 9492   0.626   0.606   0.373
 3162TIP3    H2 9493   0.548   0.732   0.407
 3163TIP3   OH2 9494   4.703   3.317   3.156
 3163TIP3    H1 9495   4.787   3.357   3.180
 3163TIP3    H2 9496   4.637   3.382   3.179
 3164TIP3   OH2 9497   6.059   0.263   3.326
 3164TIP3    H1 9498   6.146   0.278   3.362
 3164TIP3    H2 9499   6.036   0.346   3.284
 3165TIP3   OH2 9500   0.165   3.903   3.581
 3165TIP3    H1 9501   0.149   3.950   3.499
 3165TIP3    H2 9502   0.083   3.859   3.601
 3166TIP3   OH2 9503   0.985   4.534   4.134
 3166TIP3    H1 9504   1.071   4.569   4.157
 3166TIP3    H2 9505   0.954   4.591   4.064
 3167TIP3   OH2 9506   0.510   0.518   1.979
 3167TIP3    H1 9507   0.450   0.593   1.980
 3167TIP3    H2 9508   0.534   0.507   1.887
 3168TIP3   OH2 9509   2.730   4.389   2.446
 3168TIP3    H1 9510   2.667   4.462   2.445
 3168TIP3    H2 9511   2.779   4.401   2.527
 3169TIP3   OH2 9512   5.308   3.474   4.055
 3169TIP3    H1 9513   5.340   3.407   3.995
 3169TIP3    H2 9514   5.387   3.513   4.092
 3170TIP3   OH2 9515   4.164   5.279   1.155
 3170TIP3    H1 9516   4.106   5.312   1.086
 3170TIP3    H2 9517   4.106   5.265   1.230
 3171TIP3   OH2 9518   5.194   3.108   2.191
 3171TIP3    H1 9519   5.140   3.162   2.133
 3171TIP3    H2 9520   5.209   3.027   2.143
 3172TIP3   OH2 9521   0.683   1.670   0.798
 3172TIP3    H1 9522   0.648   1.741   0.852
 3172TIP3    H2 9523   0.772   1.698   0.777
 3173TIP3   OH2 9524   1.653   1.416   3.908
 3173TIP3    H1 9525   1.652   1.343   3.845
 3173TIP3    H2 9526   1.635   1.374   3.992
 3174TIP3   OH2 9527   4.309   3.783   4.140
 3174TIP3    H1 9528   4.399   3.751   4.140
 3174TIP3    H2 9529   4.316   3.874   4.113
 3175TIP3   OH2 9530   1.155   0.265   4.224
 3175TIP3    H1 9531   1.246   0.282   4.199
 3175TIP3    H2 9532   1.120   0.351   4.249
 3176TIP3   OH2 9533   0.139   1.058   4.664
 3176TIP3    H1 9534   0.200   1.053   4.590
 3176TIP3    H2 9535   0.095   0.973   4.664
 3177TIP3   OH2 9536   0.653   3.871   1.415
 3177TIP3    H1 9537   0.746   3.850   1.415
 3177TIP3    H2 9538   0.649   3.960   1.379
 3178TIP3   OH2 9539   1.596   0.916   3.547
 3178TIP3    H1 9540   1.677   0.938   3.501
 3178TIP3    H2 9541   1.533   0.981   3.516
 3179TIP3   OH2 9542   0.036   2.315   4.822
 3179TIP3    H1 9543   0.004   2.362   4.746
 3179TIP3    H2 9544   0.094   2.248   4.787
 3180TIP3   OH2 9545   4.676   5.193   1.702
 3180TIP3    H1 9546   4.758   5.232   1.668
 3180TIP3    H2 9547   4.702   5.106   1.733
 3181TIP3   OH2 9548   1.172   0.401   2.119
 3181TIP3    H1 9549   1.133   0.370   2.201
 3181TIP3    H2 9550   1.241   0.337   2.100
 3182TIP3   OH2 9551   4.822   1.361   0.563
 3182TIP3    H1 9552   4.766   1.437   0.545
 3182TIP3    H2 9553   4.900   1.375   0.509
 3183TIP3   OH2 9554   0.674   4.572   0.849
 3183TIP3    H1 9555   0.741   4.639   0.836
 3183TIP3    H2 9556   0.679   4.550   0.942
 3184TIP3   OH2 9557   1.901   4.505   4.400
 3184TIP3    H1 9558   1.989   4.537   4.420
 3184TIP3    H2 9559   1.844   4.551   4.461
 3185TIP3   OH2 9560   4.356   1.174   0.013
 3185TIP3    H1 9561   4.349   1.108   0.082
 3185TIP3    H2 9562   4.269   1.176  -0.026
 3186TIP3   OH2 9563   1.561   2.025   0.451
 3186TIP3    H1 9564   1.618   2.013   0.527
 3186TIP3    H2 9565   1.478   1.984   0.476
 3187TIP3   OH2 9566   2.477   4.617   0.274
 3187TIP3    H1 9567   2.535   4.679   0.230
 3187TIP3    H2 9568   2.477   4.645   0.366
 3188TIP3   OH2 9569   5.912   4.573   1.869
 3188TIP3    H1 9570   5.927   4.570   1.774
 3188TIP3    H2 9571   5.817   4.570   1.878
 3189TIP3   OH2 9572   5.909   3.018   0.784
 3189TIP3    H1 9573   5.976   2.998   0.849
 3189TIP3    H2 9574   5.925   3.108   0.759
 3190TIP3   OH2 9575   6.149   0.405   4.512
 3190TIP3    H1 9576   6.187   0.398   4.424
 3190TIP3    H2 9577   6.058   0.377   4.501
 3191TIP3   OH2 9578   3.261   3.248   2.573
 3191TIP3    H1 9579   3.266   3.160   2.611
 3191TIP3    H2 9580   3.189   3.290   2.619
 3192TIP3   OH2 9581   3.471   2.891   2.614
 3192TIP3    H1 9582   3.488   2.811   2.663
 3192TIP3    H2 9583   3.533   2.888   2.541
 3193TIP3   OH2 9584   5.828   0.110   1.808
 3193TIP3    H1 9585   5.783   0.081   1.888
 3193TIP3    H2 9586   5.912   0.144   1.839
 3194TIP3   OH2 9587   4.600   5.272   4.283
 3194TIP3    H1 9588   4.658   5.211   4.328
 3194TIP3    H2 9589   4.582   5.230   4.199
 3195TIP3   OH2 9590   2.879   5.582   1.978
 3195TIP3    H1 9591   2.804   5.581   1.919
 3195TIP3    H2 9592   2.922   5.666   1.962
 3196TIP3   OH2 9593   3.078   5.373   1.664
 3196TIP3    H1 9594   3.167   5.404   1.646
 3196TIP3    H2 9595   3.065   5.301   1.602
 3197TIP3   OH2 9596   1.570   5.061   5.194
 3197TIP3    H1 9597   1.655   5.043   5.153
 3197TIP3    H2 9598   1.551   5.152   5.171
 3198TIP3   OH2 9599   1.982   0.639   1.340
 3198TIP3    H1 9600   2.016   0.549   1.333
 3198TIP3    H2 9601   2.057   0.694   1.316
 3199TIP3   OH2 9602   2.840   2.606   1.386
 3199TIP3    H1 9603   2.801   2.568   1.308
 3199TIP3    H2 9604   2.911   2.662   1.353
 3200TIP3   OH2 9605   0.821   3.469   3.917
 3200TIP3    H1 9606   0.851   3.477   3.826
 3200TIP3    H2 9607   0.824   3.375   3.934
 3201TIP3   OH2 9608   4.803   1.601   4.510
 3201TIP3    H1 9609   4.720   1.649   4.520
 3201TIP3    H2 9610   4.780   1.510   4.524
 3202TIP3   OH2 9611   5.102   1.068   3.904
 3202TIP3    H1 9612   5.163   1.131   3.943
 3202TIP3    H2 9613   5.127   0.984   3.943
 3203TIP3   OH2 9614   0.936   1.137   4.009
 3203TIP3    H1 9615   0.952   1.109   3.919
 3203TIP3    H2 9616   1.021   1.125   4.053
 3204TIP3   OH2 9617   5.286   0.081   4.432
 3204TIP3    H1 9618   5.230   0.057   4.506
 3204TIP3    H2 9619   5.328   0.163   4.459
 3205TIP3   OH2 9620   5.457   0.018   1.106
 3205TIP3    H1 9621   5.374   0.067   1.103
 3205TIP3    H2 9622   5.509   0.064   1.172
 3206TIP3   OH2 9623   4.663   4.145   0.756
 3206TIP3    H1 9624   4.619   4.230   0.749
 3206TIP3    H2 9625   4.652   4.105   0.670
 3207TIP3   OH2 9626   2.068   0.510   2.853
 3207TIP3    H1 9627   2.016   0.493   2.775
 3207TIP3    H2 9628   2.012   0.565   2.908
 3208TIP3   OH2 9629   6.169   4.411   3.152
 3208TIP3    H1 9630   6.143   4.487   3.099
 3208TIP3    H2 9631   6.241   4.443   3.205
 3209TIP3   OH2 9632   5.390   5.280   4.146
 3209TIP3    H1 9633   5.295   5.280   4.130
 3209TIP3    H2 9634   5.408   5.368   4.179
 3210TIP3   OH2 9635   0.164   4.266   2.175
 3210TIP3    H1 9636   0.215   4.205   2.229
 3210TIP3    H2 9637   0.202   4.258   2.088
 3211TIP3   OH2 9638   2.837   1.315   3.610
 3211TIP3    H1 9639   2.862   1.231   3.572
 3211TIP3    H2 9640   2.762   1.344   3.558
 3212TIP3   OH2 9641   2.815   1.470   4.297
 3212TIP3    H1 9642   2.901   1.501   4.269
 3212TIP3    H2 9643   2.757   1.545   4.285
 3213TIP3   OH2 9644   5.240   2.856   3.205
 3213TIP3    H1 9645   5.181   2.927   3.180
 3213TIP3    H2 9646   5.320   2.901   3.233
 3214TIP3   OH2 9647   5.612   0.992   2.959
 3214TIP3    H1 9648   5.528   0.986   2.914
 3214TIP3    H2 9649   5.671   1.030   2.893
 3215TIP3   OH2 9650   2.862   0.401   1.843
 3215TIP3    H1 9651   2.813   0.323   1.818
 3215TIP3    H2 9652   2.905   0.429   1.762
 3216TIP3   OH2 9653   2.180   2.817   3.817
 3216TIP3    H1 9654   2.231   2.854   3.889
 3216TIP3    H2 9655   2.213   2.727   3.808
 3217TIP3   OH2 9656   0.236   4.837   2.242
 3217TIP3    H1 9657   0.298   4.770   2.214
 3217TIP3    H2 9658   0.154   4.790   2.256
 3218TIP3   OH2 9659   1.385   4.748   0.206
 3218TIP3    H1 9660   1.360   4.833   0.244
 3218TIP3    H2 9661   1.317   4.730   0.141
 3219TIP3   OH2 9662   2.142   3.613   4.012
 3219TIP3    H1 9663   2.184   3.677   4.069
 3219TIP3    H2 9664   2.063   3.657   3.980
 3220TIP3   OH2 9665   0.375   2.532   2.359
 3220TIP3    H1 9666   0.460   2.489   2.368
 3220TIP3    H2 9667   0.395   2.618   2.323
 3221TIP3   OH2 9668   6.042   2.659   4.377
 3221TIP3    H1 9669   6.084   2.692   4.297
 3221TIP3    H2 9670   6.107   2.675   4.446
 3222TIP3   OH2 9671   4.052   5.273   3.298
 3222TIP3    H1 9672   4.126   5.332   3.308
 3222TIP3    H2 9673   4.081   5.208   3.234
 3223TIP3   OH2 9674   2.397   4.462   0.928
 3223TIP3    H1 9675   2.476   4.425   0.969
 3223TIP3    H2 9676   2.354   4.510   0.999
 3224TIP3   OH2 9677   1.294   3.081   1.049
 3224TIP3    H1 9678   1.293   3.027   1.128
 3224TIP3    H2 9679   1.373   3.052   1.002
 3225TIP3   OH2 9680   3.120   4.589   4.044
 3225TIP3    H1 9681   3.090   4.680   4.040
 3225TIP3    H2 9682   3.091   4.551   3.961
 3226TIP3   OH2 9683   6.179   2.709   4.742
 3226TIP3    H1 9684   6.198   2.702   4.835
 3226TIP3    H2 9685   6.087   2.735   4.737
 3227TIP3   OH2 9686   0.744   5.038   0.762
 3227TIP3    H1 9687   0.784   4.952   0.780
 3227TIP3    H2 9688   0.712   5.067   0.847
 3228TIP3   OH2 9689   1.496   5.807   3.769
 3228TIP3    H1 9690   1.496   5.728   3.823
 3228TIP3    H2 9691   1.518   5.776   3.681
 3229TIP3   OH2 9692   2.521   4.634   3.214
 3229TIP3    H1 9693   2.539   4.660   3.123
 3229TIP3    H2 9694   2.607   4.607   3.248
 3230TIP3   OH2 9695   0.515   0.849   3.579
 3230TIP3    H1 9696   0.606   0.825   3.565
 3230TIP3    H2 9697   0.476   0.847   3.491
 3231TIP3   OH2 9698   3.281   3.921   0.109
 3231TIP3    H1 9699   3.311   3.866   0.181
 3231TIP3    H2 9700   3.220   3.866   0.060
 3232TIP3   OH2 9701   5.073   4.147   5.159
 3232TIP3    H1 9702   5.110   4.226   5.121
 3232TIP3    H2 9703   5.134   4.077   5.133
 3233TIP3   OH2 9704   5.365   1.678   0.489
 3233TIP3    H1 9705   5.349   1.771   0.506
 3233TIP3    H2 9706   5.458   1.666   0.509
 3234TIP3   OH2 9707   1.512   4.851   4.162
 3234TIP3    H1 9708   1.528   4.824   4.253
 3234TIP3    H2 9709   1.420   4.879   4.162
 3235TIP3   OH2 9710   2.071   0.503   3.794
 3235TIP3    H1 9711   2.035   0.420   3.826
 3235TIP3    H2 9712   2.126   0.478   3.720
 3236TIP3   OH2 9713   1.343   4.887   3.208
 3236TIP3    H1 9714   1.393   4.964   3.235
 3236TIP3    H2 9715   1.403   4.814   3.220
 3237TIP3   OH2 9716   3.633   3.230   4.696
 3237TIP3    H1 9717   3.676   3.170   4.757
 3237TIP3    H2 9718   3.632   3.184   4.613
 3238TIP3   OH2 9719   3.165   3.601   1.811
 3238TIP3    H1 9720   3.208   3.639   1.735
 3238TIP3    H2 9721   3.236   3.566   1.864
 3239TIP3   OH2 9722   4.455   4.607   0.008
 3239TIP3    H1 9723   4.487   4.679  -0.046
 3239TIP3    H2 9724   4.372   4.638   0.045
 3240TIP3   OH2 9725   5.657   1.312   1.664
 3240TIP3    H1 9726   5.603   1.386   1.634
 3240TIP3    H2 9727   5.597   1.260   1.718
 3241TIP3   OH2 9728   2.830   1.014   3.854
 3241TIP3    H1 9729   2.810   0.971   3.770
 3241TIP3    H2 9730   2.745   1.035   3.891
 3242TIP3   OH2 9731   1.123   3.877   1.621
 3242TIP3    H1 9732   1.037   3.877   1.664
 3242TIP3    H2 9733   1.142   3.785   1.605
 3243TIP3   OH2 9734   0.134   1.187   3.383
 3243TIP3    H1 9735   0.044   1.178   3.352
 3243TIP3    H2 9736   0.166   1.267   3.342
 3244TIP3   OH2 9737   5.627   3.296   2.685
 3244TIP3    H1 9738   5.663   3.285   2.773
 3244TIP3    H2 9739   5.682   3.241   2.629
 3245TIP3   OH2 9740   0.564   0.643   4.924
 3245TIP3    H1 9741   0.487   0.589   4.942
 3245TIP3    H2 9742   0.638   0.582   4.931
 3246TIP3   OH2 9743   0.734   4.202   4.264
 3246TIP3    H1 9744   0.791   4.128   4.286
 3246TIP3    H2 9745   0.664   4.164   4.211
 3247TIP3   OH2 9746   1.412   3.142   0.585
 3247TIP3    H1 9747   1.320   3.134   0.608
 3247TIP3    H2 9748   1.445   3.212   0.640
 3248TIP3   OH2 9749   2.170   0.049   2.256
 3248TIP3    H1 9750   2.222   0.011   2.186
 3248TIP3    H2 9751   2.099   0.095   2.211
 3249TIP3   OH2 9752   3.874   3.738   1.482
 3249TIP3    H1 9753   3.831   3.821   1.505
 3249TIP3    H2 9754   3.957   3.764   1.443
 3250TIP3   OH2 9755   3.707   2.425   3.498
 3250TIP3    H1 9756   3.756   2.507   3.506
 3250TIP3    H2 9757   3.769   2.366   3.454
 3251TIP3   OH2 9758   0.086   0.061   3.687
 3251TIP3    H1 9759   0.026  -0.004   3.724
 3251TIP3    H2 9760   0.171   0.039   3.724
 3252TIP3   OH2 9761   0.092   2.327   0.113
 3252TIP3    H1 9762   0.045   2.409   0.128
 3252TIP3    H2 9763   0.070   2.303   0.023
 3253TIP3   OH2 9764   4.409   5.830   3.184
 3253TIP3    H1 9765   4.502   5.838   3.207
 3253TIP3    H2 9766   4.409   5.788   3.098
 3254TIP3   OH2 9767   2.878   1.683   2.023
 3254TIP3    H1 9768   2.811   1.742   2.058
 3254TIP3    H2 9769   2.877   1.607   2.082
 3255TIP3   OH2 9770   4.726   0.406   1.004
 3255TIP3    H1 9771   4.808   0.454   1.013
 3255TIP3    H2 9772   4.685   0.410   1.091
 3256TIP3   OH2 9773   4.735   0.116   1.033
 3256TIP3    H1 9774   4.714   0.203   1.001
 3256TIP3    H2 9775   4.803   0.130   1.099
 3257TIP3   OH2 9776   3.238   3.875   3.570
 3257TIP3    H1 9777   3.289   3.833   3.501
 3257TIP3    H2 9778   3.189   3.803   3.611
 3258TIP3   OH2 9779   1.417   3.230   4.654
 3258TIP3    H1 9780   1.400   3.141   4.623
 3258TIP3    H2 9781   1.415   3.284   4.575
 3259TIP3   OH2 9782   2.710   0.248   4.815
 3259TIP3    H1 9783   2.760   0.171   4.790
 3259TIP3    H2 9784   2.731   0.262   4.907
 3260TIP3   OH2 9785   2.924   0.518   2.755
 3260TIP3    H1 9786   2.928   0.448   2.690
 3260TIP3    H2 9787   3.015   0.545   2.767
 3261TIP3   OH2 9788   5.422   0.429   0.188
 3261TIP3    H1 9789   5.392   0.486   0.118
 3261TIP3    H2 9790   5.412   0.340   0.154
 3262TIP3   OH2 9791   0.805   2.070   4.677
 3262TIP3    H1 9792   0.716   2.100   4.657
 3262TIP3    H2 9793   0.821   2.102   4.766
 3263TIP3   OH2 9794   0.229   5.589   2.177
 3263TIP3    H1 9795   0.270   5.512   2.139
 3263TIP3    H2 9796   0.191   5.558   2.259
 3264TIP3   OH2 9797   3.123   3.319   2.981
 3264TIP3    H1 9798   3.054   3.383   2.999
 3264TIP3    H2 9799   3.110   3.296   2.889
 3265TIP3   OH2 9800   3.130   4.734   2.230
 3265TIP3    H1 9801   3.071   4.659   2.224
 3265TIP3    H2 9802   3.217   4.697   2.213
 3266TIP3   OH2 9803   4.990   5.251   0.105
 3266TIP3    H1 9804   5.061   5.235   0.043
 3266TIP3    H2 9805   4.981   5.347   0.106
 3267TIP3   OH2 9806   4.607   5.190   0.772
 3267TIP3    H1 9807   4.624   5.111   0.822
 3267TIP3    H2 9808   4.586   5.256   0.838
 3268TIP3   OH2 9809   2.358   4.926   1.329
 3268TIP3    H1 9810   2.363   5.005   1.383
 3268TIP3    H2 9811   2.435   4.875   1.355
 3269TIP3   OH2 9812   0.349   4.428   0.940
 3269TIP3    H1 9813   0.312   4.510   0.973
 3269TIP3    H2 9814   0.386   4.386   1.017
 3270TIP3   OH2 9815   3.112   4.137   4.231
 3270TIP3    H1 9816   3.128   4.044   4.247
 3270TIP3    H2 9817   3.086   4.172   4.317
 3271TIP3   OH2 9818   4.469   5.249   0.271
 3271TIP3    H1 9819   4.459   5.295   0.354
 3271TIP3    H2 9820   4.439   5.312   0.205
 3272TIP3   OH2 9821   2.310   5.175   2.580
 3272TIP3    H1 9822   2.258   5.162   2.502
 3272TIP3    H2 9823   2.258   5.233   2.635
 3273TIP3   OH2 9824   0.358   1.034   3.715
 3273TIP3    H1 9825   0.407   1.115   3.728
 3273TIP3    H2 9826   0.423   0.970   3.686
 3274TIP3   OH2 9827   2.880   0.106   3.797
 3274TIP3    H1 9828   2.850   0.044   3.731
 3274TIP3    H2 9829   2.974   0.089   3.805
 3275TIP3   OH2 9830   5.923   0.120   4.768
 3275TIP3    H1 9831   5.837   0.101   4.808
 3275TIP3    H2 9832   5.961   0.034   4.752
 3276TIP3   OH2 9833   1.469   3.239   2.366
 3276TIP3    H1 9834   1.425   3.164   2.327
 3276TIP3    H2 9835   1.562   3.222   2.351
 3277TIP3   OH2 9836   1.762   2.405   4.045
 3277TIP3    H1 9837   1.690   2.351   4.078
 3277TIP3    H2 9838   1.790   2.457   4.120
 3278TIP3   OH2 9839   2.725   5.839   0.484
 3278TIP3    H1 9840   2.762   5.867   0.568
 3278TIP3    H2 9841   2.638   5.878   0.482
 3279TIP3   OH2 9842   3.433   3.857   1.671
 3279TIP3    H1 9843   3.390   3.859   1.757
 3279TIP3    H2 9844   3.414   3.942   1.632
 3280TIP3   OH2 9845   2.024   0.513   2.298
 3280TIP3    H1 9846   1.990   0.423   2.299
 3280TIP3    H2 9847   1.967   0.559   2.236
 3281TIP3   OH2 9848   0.847   4.799   0.887
 3281TIP3    H1 9849   0.842   4.841   0.973
 3281TIP3    H2 9850   0.938   4.813   0.858
 3282TIP3   OH2 9851   1.390   2.448   2.226
 3282TIP3    H1 9852   1.413   2.525   2.174
 3282TIP3    H2 9853   1.437   2.375   2.183
 3283TIP3   OH2 9854   1.203   3.523   4.736
 3283TIP3    H1 9855   1.202   3.484   4.824
 3283TIP3    H2 9856   1.295   3.539   4.718
 3284TIP3   OH2 9857   3.791   2.234   5.156
 3284TIP3    H1 9858   3.880   2.253   5.127
 3284TIP3    H2 9859   3.754   2.318   5.181
 3285TIP3   OH2 9860   4.933   5.270   1.630
 3285TIP3    H1 9861   4.984   5.330   1.575
 3285TIP3    H2 9862   4.981   5.187   1.625
 3286TIP3   OH2 9863   5.751   5.234   2.521
 3286TIP3    H1 9864   5.728   5.255   2.612
 3286TIP3    H2 9865   5.667   5.236   2.475
 3287TIP3   OH2 9866   3.588   3.049   4.483
 3287TIP3    H1 9867   3.508   2.996   4.483
 3287TIP3    H2 9868   3.621   3.042   4.394
 3288TIP3   OH2 9869   0.050   3.381   1.837
 3288TIP3    H1 9870  -0.007   3.350   1.767
 3288TIP3    H2 9871   0.032   3.322   1.910
 3289TIP3   OH2 9872   1.372   4.013   3.226
 3289TIP3    H1 9873   1.333   3.936   3.268
 3289TIP3    H2 9874   1.407   4.065   3.299
 3290TIP3   OH2 9875   4.988   1.354   4.333
 3290TIP3    H1 9876   5.051   1.351   4.405
 3290TIP3    H2 9877   4.970   1.263   4.312
 3291TIP3   OH2 9878   0.422   4.875   4.694
 3291TIP3    H1 9879   0.413   4.946   4.757
 3291TIP3    H2 9880   0.370   4.804   4.730
 3292TIP3   OH2 9881   6.287   4.953   2.756
 3292TIP3    H1 9882   6.338   5.033   2.745
 3292TIP3    H2 9883   6.196   4.981   2.749
 3293TIP3   OH2 9884   1.862   4.945   1.537
 3293TIP3    H1 9885   1.843   4.947   1.443
 3293TIP3    H2 9886   1.802   4.879   1.573
 3294TIP3   OH2 9887   5.795   3.646   2.564
 3294TIP3    H1 9888   5.852   3.715   2.599
 3294TIP3    H2 9889   5.809   3.572   2.623
 3295TIP3   OH2 9890   5.376   5.271   0.300
 3295TIP3    H1 9891   5.364   5.177   0.291
 3295TIP3    H2 9892   5.295   5.302   0.340
 3296TIP3   OH2 9893   5.734   2.557   4.707
 3296TIP3    H1 9894   5.674   2.526   4.775
 3296TIP3    H2 9895   5.678   2.575   4.632
 3297TIP3   OH2 9896   6.258   3.922   0.384
 3297TIP3    H1 9897   6.226   4.012   0.389
 3297TIP3    H2 9898   6.240   3.885   0.471
 3298TIP3   OH2 9899   4.867   4.610   2.075
 3298TIP3    H1 9900   4.816   4.690   2.059
 3298TIP3    H2 9901   4.801   4.541   2.076
 3299TIP3   OH2 9902   3.039   5.291   1.318
 3299TIP3    H1 9903   3.102   5.351   1.277
 3299TIP3    H2 9904   3.092   5.235   1.374
 3300TIP3   OH2 9905   2.177   2.376   4.153
 3300TIP3    H1 9906   2.148   2.316   4.084
 3300TIP3    H2 9907   2.271   2.388   4.137
 3301TIP3   OH2 9908   4.504   5.468   0.067
 3301TIP3    H1 9909   4.588   5.466   0.113
 3301TIP3    H2 9910   4.451   5.530   0.117
 3302TIP3   OH2 9911   3.816   1.094   2.797
 3302TIP3    H1 9912   3.853   1.136   2.874
 3302TIP3    H2 9913   3.828   1.000   2.812
 3303TIP3   OH2 9914   4.092   1.188   4.249
 3303TIP3    H1 9915   4.118   1.263   4.195
 3303TIP3    H2 9916   4.046   1.130   4.188
 3304TIP3   OH2 9917   4.405   5.293   2.590
 3304TIP3    H1 9918   4.457   5.269   2.514
 3304TIP3    H2 9919   4.391   5.210   2.637
 3305TIP3   OH2 9920   1.554   1.438   2.830
 3305TIP3    H1 9921   1.610   1.512   2.808
 3305TIP3    H2 9922   1.560   1.379   2.755
 3306TIP3   OH2 9923   2.954   2.033   4.451
 3306TIP3    H1 9924   3.031   2.074   4.491
 3306TIP3    H2 9925   2.965   1.939   4.468
 3307TIP3   OH2 9926   2.457   3.623   4.107
 3307TIP3    H1 9927   2.505   3.706   4.101
 3307TIP3    H2 9928   2.459   3.588   4.018
 3308TIP3   OH2 9929   5.635   5.166   1.593
 3308TIP3    H1 9930   5.564   5.222   1.624
 3308TIP3    H2 9931   5.626   5.167   1.497
 3309TIP3   OH2 9932   4.809   3.972   1.133
 3309TIP3    H1 9933   4.833   4.064   1.143
 3309TIP3    H2 9934   4.892   3.925   1.140
 3310TIP3   OH2 9935   1.203   4.148   4.966
 3310TIP3    H1 9936   1.162   4.131   5.051
 3310TIP3    H2 9937   1.172   4.077   4.910
 3311TIP3   OH2 9938   0.384   4.104   0.864
 3311TIP3    H1 9939   0.402   4.189   0.822
 3311TIP3    H2 9940   0.366   4.127   0.955
 3312TIP3   OH2 9941   0.327   0.947   0.619
 3312TIP3    H1 9942   0.397   0.942   0.685
 3312TIP3    H2 9943   0.251   0.907   0.661
 3313TIP3   OH2 9944   6.271   0.017   0.511
 3313TIP3    H1 9945   6.184   0.056   0.520
 3313TIP3    H2 9946   6.265  -0.066   0.558
 3314TIP3   OH2 9947   0.974   1.910   3.205
 3314TIP3    H1 9948   0.890   1.888   3.246
 3314TIP3    H2 9949   0.991   1.837   3.146
 3315TIP3   OH2 9950   5.581   2.862   1.382
 3315TIP3    H1 9951   5.585   2.930   1.450
 3315TIP3    H2 9952   5.491   2.832   1.382
 3316TIP3   OH2 9953   0.076   0.716   5.193
 3316TIP3    H1 9954   0.168   0.693   5.180
 3316TIP3    H2 9955   0.077   0.806   5.225
 3317TIP3   OH2 9956   3.520   2.781   0.423
 3317TIP3    H1 9957   3.568   2.848   0.472
 3317TIP3    H2 9958   3.430   2.789   0.455
 3318TIP3   OH2 9959   0.913   3.861   3.611
 3318TIP3    H1 9960   0.830   3.864   3.659
 3318TIP3    H2 9961   0.904   3.786   3.553
 3319TIP3   OH2 9962   3.319   4.894   1.409
 3319TIP3    H1 9963   3.372   4.820   1.379
 3319TIP3    H2 9964   3.382   4.958   1.440
 3320TIP3   OH2 9965   0.694   2.491   4.435
 3320TIP3    H1 9966   0.715   2.411   4.484
 3320TIP3    H2 9967   0.757   2.555   4.466
 3321TIP3   OH2 9968   2.067   0.575   1.651
 3321TIP3    H1 9969   2.146   0.629   1.660
 3321TIP3    H2 9970   1.997   0.637   1.631
 3322TIP3   OH2 9971   3.144   3.327   1.103
 3322TIP3    H1 9972   3.081   3.326   1.175
 3322TIP3    H2 9973   3.228   3.344   1.144
 3323TIP3   OH2 9974   5.141   2.251   1.319
 3323TIP3    H1 9975   5.121   2.223   1.229
 3323TIP3    H2 9976   5.184   2.176   1.359
 3324TIP3   OH2 9977   1.562   5.300   0.493
 3324TIP3    H1 9978   1.526   5.329   0.410
 3324TIP3    H2 9979   1.510   5.223   0.517
 3325TIP3   OH2 9980   1.434   1.610   4.072
 3325TIP3    H1 9981   1.517   1.648   4.041
 3325TIP3    H2 9982   1.461   1.546   4.138
 3326TIP3   OH2 9983   4.505   1.995   0.112
 3326TIP3    H1 9984   4.483   1.902   0.116
 3326TIP3    H2 9985   4.426   2.041   0.143
 3327TIP3   OH2 9986   0.823   5.761   3.550
 3327TIP3    H1 9987   0.846   5.848   3.518
 3327TIP3    H2 9988   0.788   5.716   3.473
 3328TIP3   OH2 9989   6.175   3.752   0.836
 3328TIP3    H1 9990   6.224   3.736   0.917
 3328TIP3    H2 9991   6.225   3.706   0.769
 3329TIP3   OH2 9992   5.134   3.500   2.001
 3329TIP3    H1 9993   5.072   3.565   1.966
 3329TIP3    H2 9994   5.085   3.418   2.001
 3330TIP3   OH2 9995   5.528   3.752   0.495
 3330TIP3    H1 9996   5.535   3.747   0.590
 3330TIP3    H2 9997   5.556   3.841   0.473
 3331TIP3   OH2 9998   2.866   5.242   2.640
 3331TIP3    H1 9999   2.843   5.289   2.720
 3331TIP3    H210000   2.872   5.310   2.573
 3332TIP3   OH210001   0.851   3.005   0.617
 3332TIP3    H110002   0.849   3.075   0.552
 3332TIP3    H210003   0.919   2.946   0.586
 3333TIP3   OH210004   1.681   5.067   4.111
 3333TIP3    H110005   1.616   4.998   4.099
 3333TIP3    H210006   1.719   5.049   4.197
 3334TIP3   OH210007   5.470   5.358   2.436
 3334TIP3    H110008   5.508   5.434   2.480
 3334TIP3    H210009   5.384   5.388   2.407
 3335TIP3   OH210010   4.265   4.565   4.676
 3335TIP3    H110011   4.229   4.599   4.758
 3335TIP3    H210012   4.233   4.625   4.609
 3336TIP3   OH210013   1.655   3.317   1.248
 3336TIP3    H110014   1.698   3.253   1.192
 3336TIP3    H210015   1.584   3.268   1.290
 3337TIP3   OH210016   3.720   2.998   2.877
 3337TIP3    H110017   3.746   3.066   2.939
 3337TIP3    H210018   3.717   3.043   2.792
 3338TIP3   OH210019   4.860   1.040   2.474
 3338TIP3    H110020   4.789   0.983   2.443
 3338TIP3    H210021   4.815   1.116   2.510
 3339TIP3   OH210022   1.380   5.895   2.389
 3339TIP3    H110023   1.326   5.886   2.468
 3339TIP3    H210024   1.463   5.930   2.421
 3340TIP3   OH210025   1.032   0.321   4.741
 3340TIP3    H110026   1.086   0.388   4.783
 3340TIP3    H210027   1.043   0.337   4.647
 3341TIP3   OH210028   3.404   2.886   0.193
 3341TIP3    H110029   3.464   2.850   0.259
 3341TIP3    H210030   3.418   2.981   0.197
 3342TIP3   OH210031   3.912   5.615   2.392
 3342TIP3    H110032   3.911   5.683   2.459
 3342TIP3    H210033   3.956   5.541   2.434
 3343TIP3   OH210034   3.795   5.023   4.484
 3343TIP3    H110035   3.785   5.109   4.443
 3343TIP3    H210036   3.814   5.042   4.576
 3344TIP3   OH210037   3.058   2.090   1.864
 3344TIP3    H110038   3.065   2.000   1.831
 3344TIP3    H210039   2.991   2.084   1.933
 3345TIP3   OH210040   6.104   5.173   4.125
 3345TIP3    H110041   6.102   5.172   4.029
 3345TIP3    H210042   6.092   5.266   4.148
 3346TIP3   OH210043   4.234   5.328   5.080
 3346TIP3    H110044   4.189   5.366   5.156
 3346TIP3    H210045   4.222   5.234   5.089
 3347TIP3   OH210046   0.464   1.202   3.360
 3347TIP3    H110047   0.404   1.188   3.287
 3347TIP3    H210048   0.440   1.134   3.423
 3348TIP3   OH210049   6.032   3.241   2.261
 3348TIP3    H110050   6.121   3.211   2.243
 3348TIP3    H210051   5.976   3.171   2.228
 3349TIP3   OH210052   1.766   4.403   0.236
 3349TIP3    H110053   1.748   4.439   0.323
 3349TIP3    H210054   1.681   4.406   0.192
 3350TIP3   OH210055   4.099   4.565   2.411
 3350TIP3    H110056   4.158   4.535   2.343
 3350TIP3    H210057   4.029   4.611   2.364
 3351TIP3   OH210058   2.356   2.163   1.691
 3351TIP3    H110059   2.325   2.253   1.688
 3351TIP3    H210060   2.350   2.132   1.601
 3352TIP3   OH210061   1.290   2.236   3.184
 3352TIP3    H110062   1.235   2.193   3.250
 3352TIP3    H210063   1.245   2.219   3.101
 3353TIP3   OH210064   3.787   5.244   1.074
 3353TIP3    H110065   3.710   5.300   1.068
 3353TIP3    H210066   3.796   5.207   0.986
 3354TIP3   OH210067   6.249   1.649   3.452
 3354TIP3    H110068   6.224   1.631   3.362
 3354TIP3    H210069   6.169   1.631   3.503
 3355TIP3   OH210070   5.564   5.897   1.639
 3355TIP3    H110071   5.609   5.866   1.561
 3355TIP3    H210072   5.611   5.977   1.664
 3356TIP3   OH210073   3.732   5.886   3.100
 3356TIP3    H110074   3.673   5.961   3.092
 3356TIP3    H210075   3.819   5.925   3.108
 3357TIP3   OH210076   1.715   4.028   5.025
 3357TIP3    H110077   1.686   4.018   4.934
 3357TIP3    H210078   1.752   3.943   5.048
 3358TIP3   OH210079   4.654   5.482   1.660
 3358TIP3    H110080   4.627   5.438   1.579
 3358TIP3    H210081   4.599   5.444   1.728
 3359TIP3   OH210082   1.644   0.560   3.489
 3359TIP3    H110083   1.579   0.557   3.420
 3359TIP3    H210084   1.724   0.589   3.445
 3360TIP3   OH210085   6.106   0.108   4.222
 3360TIP3    H110086   6.103   0.101   4.318
 3360TIP3    H210087   6.021   0.145   4.198
 3361TIP3   OH210088   2.273   3.729   3.075
 3361TIP3    H110089   2.193   3.679   3.057
 3361TIP3    H210090   2.245   3.820   3.075
 3362TIP3   OH210091   4.301   0.499   1.220
 3362TIP3    H110092   4.290   0.581   1.172
 3362TIP3    H210093   4.266   0.517   1.307
 3363TIP3   OH210094   3.705   1.127   1.718
 3363TIP3    H110095   3.736   1.208   1.759
 3363TIP3    H210096   3.763   1.059   1.753
 3364TIP3   OH210097   2.754   5.882   3.282
 3364TIP3    H110098   2.832   5.887   3.227
 3364TIP3    H210099   2.788   5.879   3.372
 3365TIP3   OH210100   3.440   2.736   3.404
 3365TIP3    H110101   3.472   2.813   3.357
 3365TIP3    H210102   3.357   2.714   3.361
 3366TIP3   OH210103   1.460   3.391   0.702
 3366TIP3    H110104   1.517   3.416   0.774
 3366TIP3    H210105   1.489   3.445   0.629
 3367TIP3   OH210106   0.589   1.493   0.042
 3367TIP3    H110107   0.641   1.567   0.009
 3367TIP3    H210108   0.576   1.437  -0.035
 3368TIP3   OH210109   3.746   3.715   1.104
 3368TIP3    H110110   3.840   3.712   1.087
 3368TIP3    H210111   3.709   3.647   1.047
 3369TIP3   OH210112   2.042   3.928   4.842
 3369TIP3    H110113   2.135   3.929   4.866
 3369TIP3    H210114   1.995   3.926   4.925
 3370TIP3   OH210115   2.774   3.775   4.706
 3370TIP3    H110116   2.770   3.734   4.792
 3370TIP3    H210117   2.754   3.705   4.644
 3371TIP3   OH210118   0.384   2.258   2.199
 3371TIP3    H110119   0.326   2.321   2.240
 3371TIP3    H210120   0.472   2.291   2.215
 3372TIP3   OH210121   1.358   3.751   3.350
 3372TIP3    H110122   1.415   3.686   3.307
 3372TIP3    H210123   1.354   3.721   3.441
 3373TIP3   OH210124   0.145   0.837   3.774
 3373TIP3    H110125   0.227   0.886   3.776
 3373TIP3    H210126   0.110   0.850   3.686
 3374TIP3   OH210127   0.886   2.189   0.270
 3374TIP3    H110128   0.952   2.254   0.294
 3374TIP3    H210129   0.821   2.239   0.222
 3375TIP3   OH210130   5.831   2.855   1.625
 3375TIP3    H110131   5.775   2.932   1.630
 3375TIP3    H210132   5.920   2.889   1.631
 3376TIP3   OH210133   4.332   2.677   1.797
 3376TIP3    H110134   4.292   2.701   1.881
 3376TIP3    H210135   4.276   2.608   1.762
 3377TIP3   OH210136   1.071   5.485   0.822
 3377TIP3    H110137   1.029   5.404   0.852
 3377TIP3    H210138   1.103   5.526   0.902
 3378TIP3   OH210139   4.768   1.652   0.600
 3378TIP3    H110140   4.786   1.743   0.578
 3378TIP3    H210141   4.775   1.648   0.695
 3379TIP3   OH210142   4.485   5.994   2.106
 3379TIP3    H110143   4.426   5.939   2.157
 3379TIP3    H210144   4.507   5.941   2.029
 3380TIP3   OH210145   4.410   2.344   0.729
 3380TIP3    H110146   4.396   2.437   0.710
 3380TIP3    H210147   4.427   2.341   0.823
 3381TIP3   OH210148   2.931   4.213   0.405
 3381TIP3    H110149   2.880   4.243   0.480
 3381TIP3    H210150   2.989   4.285   0.384
 3382TIP3   OH210151   5.596   5.271   0.121
 3382TIP3    H110152   5.525   5.278   0.185
 3382TIP3    H210153   5.673   5.305   0.167
 3383TIP3   OH210154   0.046   5.079   3.615
 3383TIP3    H110155  -0.029   5.024   3.591
 3383TIP3    H210156   0.120   5.040   3.569
 3384TIP3   OH210157   1.077   0.835   2.141
 3384TIP3    H110158   1.136   0.838   2.217
 3384TIP3    H210159   1.042   0.746   2.142
 3385TIP3   OH210160   5.323   2.204   0.329
 3385TIP3    H110161   5.394   2.158   0.284
 3385TIP3    H210162   5.244   2.159   0.299
 3386TIP3   OH210163   0.556   4.603   0.301
 3386TIP3    H110164   0.533   4.616   0.209
 3386TIP3    H210165   0.478   4.632   0.349
 3387TIP3   OH210166   5.867   4.776   2.048
 3387TIP3    H110167   5.910   4.706   1.999
 3387TIP3    H210168   5.874   4.852   1.991
 3388TIP3   OH210169   3.536   4.083   3.535
 3388TIP3    H110170   3.614   4.026   3.532
 3388TIP3    H210171   3.487   4.060   3.455
 3389TIP3   OH210172   1.328   0.486   0.837
 3389TIP3    H110173   1.253   0.533   0.873
 3389TIP3    H210174   1.296   0.447   0.756
 3390TIP3   OH210175   1.713   4.294   1.341
 3390TIP3    H110176   1.621   4.283   1.364
 3390TIP3    H210177   1.757   4.217   1.379
 3391TIP3   OH210178   1.527   4.319   0.022
 3391TIP3    H110179   1.498   4.245   0.075
 3391TIP3    H210180   1.451   4.377   0.018
 3392TIP3   OH210181   3.832   0.048   1.154
 3392TIP3    H110182   3.834   0.097   1.072
 3392TIP3    H210183   3.793  -0.036   1.132
 3393TIP3   OH210184   0.696   5.974   4.855
 3393TIP3    H110185   0.701   5.878   4.857
 3393TIP3    H210186   0.674   5.999   4.944
 3394TIP3   OH210187   1.572   3.261   5.041
 3394TIP3    H110188   1.528   3.338   5.077
 3394TIP3    H210189   1.545   3.190   5.099
 3395TIP3   OH210190   3.762   1.415   4.415
 3395TIP3    H110191   3.783   1.384   4.326
 3395TIP3    H210192   3.680   1.462   4.405
 3396TIP3   OH210193   1.360   2.997   4.559
 3396TIP3    H110194   1.292   2.930   4.566
 3396TIP3    H210195   1.432   2.952   4.514
 3397TIP3   OH210196   0.499   3.632   2.821
 3397TIP3    H110197   0.548   3.558   2.785
 3397TIP3    H210198   0.565   3.686   2.864
 3398TIP3   OH210199   4.396   2.182   4.021
 3398TIP3    H110200   4.471   2.208   3.967
 3398TIP3    H210201   4.382   2.257   4.079
 3399TIP3   OH210202   0.774   3.400   4.907
 3399TIP3    H110203   0.830   3.458   4.856
 3399TIP3    H210204   0.771   3.318   4.857
 3400TIP3   OH210205   3.173   4.218   2.764
 3400TIP3    H110206   3.216   4.202   2.680
 3400TIP3    H210207   3.244   4.230   2.827
 3401TIP3   OH210208   3.832   5.760   0.060
 3401TIP3    H110209   3.909   5.767   0.116
 3401TIP3    H210210   3.859   5.703  -0.012
 3402TIP3   OH210211   3.269   2.383   4.355
 3402TIP3    H110212   3.236   2.388   4.445
 3402TIP3    H210213   3.364   2.389   4.364
 3403TIP3   OH210214   5.186   2.835   0.878
 3403TIP3    H110215   5.229   2.875   0.954
 3403TIP3    H210216   5.259   2.802   0.825
 3404TIP3   OH210217   1.297   3.785   4.932
 3404TIP3    H110218   1.345   3.830   5.001
 3404TIP3    H210219   1.317   3.836   4.853
 3405TIP3   OH210220   3.226   3.246   3.468
 3405TIP3    H110221   3.287   3.315   3.446
 3405TIP3    H210222   3.188   3.273   3.552
 3406TIP3   OH210223   4.590   2.968   0.527
 3406TIP3    H110224   4.595   2.981   0.432
 3406TIP3    H210225   4.498   2.983   0.548
 3407TIP3   OH210226   0.464   0.094   1.122
 3407TIP3    H110227   0.442   0.002   1.105
 3407TIP3    H210228   0.556   0.092   1.149
 3408TIP3   OH210229   0.407   2.288   1.097
 3408TIP3    H110230   0.497   2.265   1.118
 3408TIP3    H210231   0.380   2.349   1.166
 3409TIP3   OH210232   1.550   3.526   0.476
 3409TIP3    H110233   1.630   3.578   0.464
 3409TIP3    H210234   1.485   3.568   0.420
 3410TIP3   OH210235   3.757   3.404   2.748
 3410TIP3    H110236   3.739   3.394   2.655
 3410TIP3    H210237   3.758   3.315   2.782
 3411TIP3   OH210238   5.561   2.925   3.547
 3411TIP3    H110239   5.587   3.005   3.502
 3411TIP3    H210240   5.547   2.861   3.477
 3412TIP3   OH210241   3.503   2.137   1.877
 3412TIP3    H110242   3.487   2.160   1.968
 3412TIP3    H210243   3.478   2.215   1.827
 3413TIP3   OH210244   3.727   0.101   4.351
 3413TIP3    H110245   3.661   0.064   4.292
 3413TIP3    H210246   3.678   0.159   4.408
 3414TIP3   OH210247   0.706   3.265   3.547
 3414TIP3    H110248   0.730   3.253   3.455
 3414TIP3    H210249   0.770   3.329   3.580
 3415TIP3   OH210250   3.368   4.122   1.647
 3415TIP3    H110251   3.382   4.177   1.725
 3415TIP3    H210252   3.290   4.158   1.606
 3416TIP3   OH210253   6.297   3.726   2.718
 3416TIP3    H110254   6.258   3.812   2.730
 3416TIP3    H210255   6.389   3.736   2.743
 3417TIP3   OH210256   4.354   0.651   0.951
 3417TIP3    H110257   4.323   0.731   0.909
 3417TIP3    H210258   4.414   0.612   0.886
 3418TIP3   OH210259   5.530   0.307   2.012
 3418TIP3    H110260   5.558   0.216   2.023
 3418TIP3    H210261   5.609   0.359   2.029
 3419TIP3   OH210262   6.145   3.551   2.559
 3419TIP3    H110263   6.175   3.610   2.628
 3419TIP3    H210264   6.060   3.518   2.591
 3420TIP3   OH210265   3.136   0.722   1.007
 3420TIP3    H110266   3.054   0.725   1.056
 3420TIP3    H210267   3.170   0.812   1.012
 3421TIP3   OH210268   4.809   4.713   3.686
 3421TIP3    H110269   4.800   4.731   3.779
 3421TIP3    H210270   4.746   4.644   3.668
 3422TIP3   OH210271   0.223   2.787   1.606
 3422TIP3    H110272   0.255   2.700   1.630
 3422TIP3    H210273   0.302   2.835   1.580
 3423TIP3   OH210274   3.090   0.429   0.679
 3423TIP3    H110275   3.096   0.373   0.601
 3423TIP3    H210276   3.179   0.462   0.691
 3424TIP3   OH210277   2.377   0.411   2.600
 3424TIP3    H110278   2.365   0.485   2.659
 3424TIP3    H210279   2.344   0.336   2.649
 3425TIP3   OH210280   1.102   4.556   0.329
 3425TIP3    H110281   1.113   4.488   0.263
 3425TIP3    H210282   1.155   4.526   0.403
 3426TIP3   OH210283   2.293   5.284   1.501
 3426TIP3    H110284   2.201   5.282   1.477
 3426TIP3    H210285   2.313   5.376   1.514
 3427TIP3   OH210286   5.360   2.928   1.090
 3427TIP3    H110287   5.441   2.980   1.094
 3427TIP3    H210288   5.390   2.840   1.067
 3428TIP3   OH210289   5.295   5.782   3.815
 3428TIP3    H110290   5.347   5.792   3.736
 3428TIP3    H210291   5.320   5.856   3.870
 3429TIP3   OH210292   3.190   5.134   3.737
 3429TIP3    H110293   3.269   5.090   3.705
 3429TIP3    H210294   3.174   5.204   3.673
 3430TIP3   OH210295   0.336   3.882   0.055
 3430TIP3    H110296   0.320   3.813   0.119
 3430TIP3    H210297   0.372   3.837  -0.021
 3431TIP3   OH210298   2.121   2.678   4.099
 3431TIP3    H110299   2.091   2.705   4.012
 3431TIP3    H210300   2.122   2.582   4.095
 3432TIP3   OH210301   3.076   4.600   3.296
 3432TIP3    H110302   3.100   4.548   3.220
 3432TIP3    H210303   3.082   4.691   3.267
 3433TIP3   OH210304   3.417   5.635   1.804
 3433TIP3    H110305   3.479   5.633   1.731
 3433TIP3    H210306   3.357   5.563   1.787
 3434TIP3   OH210307   3.511   4.745   1.641
 3434TIP3    H110308   3.583   4.683   1.632
 3434TIP3    H210309   3.553   4.828   1.665
 3435TIP3   OH210310   6.153   1.739   2.698
 3435TIP3    H110311   6.200   1.746   2.781
 3435TIP3    H210312   6.062   1.755   2.720
 3436TIP3   OH210313   2.223   4.926   5.142
 3436TIP3    H110314   2.205   4.904   5.051
 3436TIP3    H210315   2.138   4.942   5.181
 3437TIP3   OH210316   5.741   4.067   3.164
 3437TIP3    H110317   5.791   4.147   3.149
 3437TIP3    H210318   5.797   4.012   3.218
 3438TIP3   OH210319   0.032   4.723   0.847
 3438TIP3    H110320   0.114   4.748   0.804
 3438TIP3    H210321   0.003   4.803   0.891
 3439TIP3   OH210322   1.185   5.844   1.239
 3439TIP3    H110323   1.235   5.854   1.320
 3439TIP3    H210324   1.137   5.762   1.250
 3440TIP3   OH210325   0.303   2.541   4.109
 3440TIP3    H110326   0.303   2.484   4.031
 3440TIP3    H210327   0.391   2.577   4.112
 3441TIP3   OH210328   0.799   1.525   1.778
 3441TIP3    H110329   0.784   1.579   1.700
 3441TIP3    H210330   0.784   1.436   1.748
 3442TIP3   OH210331   5.069   5.787   3.321
 3442TIP3    H110332   4.993   5.842   3.337
 3442TIP3    H210333   5.043   5.700   3.351
 3443TIP3   OH210334   6.052   4.904   0.642
 3443TIP3    H110335   6.132   4.955   0.626
 3443TIP3    H210336   5.990   4.937   0.576
 3444TIP3   OH210337   0.639   3.732   4.211
 3444TIP3    H110338   0.681   3.766   4.290
 3444TIP3    H210339   0.711   3.722   4.149
 3445TIP3   OH210340   5.067   1.184   5.139
 3445TIP3    H110341   4.987   1.159   5.184
 3445TIP3    H210342   5.092   1.267   5.179
 3446TIP3   OH210343   3.294   2.723   1.102
 3446TIP3    H110344   3.217   2.709   1.157
 3446TIP3    H210345   3.261   2.718   1.013
 3447TIP3   OH210346   3.766   4.876   0.336
 3447TIP3    H110347   3.679   4.895   0.370
 3447TIP3    H210348   3.764   4.908   0.246
 3448TIP3   OH210349   0.757   2.701   2.463
 3448TIP3    H110350   0.832   2.676   2.517
 3448TIP3    H210351   0.786   2.685   2.373
 3449TIP3   OH210352   2.633   1.267   1.565
 3449TIP3    H110353   2.707   1.324   1.542
 3449TIP3    H210354   2.643   1.252   1.659
 3450TIP3   OH210355   3.495   5.053   1.066
 3450TIP3    H110356   3.574   5.058   1.120
 3450TIP3    H210357   3.528   5.049   0.976
 3451TIP3   OH210358   0.238   4.994   3.195
 3451TIP3    H110359   0.305   5.061   3.182
 3451TIP3    H210360   0.254   4.930   3.126
 3452TIP3   OH210361   5.729   4.209   0.862
 3452TIP3    H110362   5.817   4.204   0.901
 3452TIP3    H210363   5.720   4.301   0.836
 3453TIP3   OH210364   1.721   1.501   4.741
 3453TIP3    H110365   1.644   1.485   4.795
 3453TIP3    H210366   1.764   1.575   4.781
 3454TIP3   OH210367   3.053   1.111   1.746
 3454TIP3    H110368   3.139   1.145   1.722
 3454TIP3    H210369   3.011   1.184   1.792
 3455TIP3   OH210370   2.589   3.531   0.475
 3455TIP3    H110371   2.525   3.525   0.404
 3455TIP3    H210372   2.564   3.461   0.535
 3456TIP3   OH210373   4.120   2.487   0.211
 3456TIP3    H110374   4.120   2.576   0.176
 3456TIP3    H210375   4.210   2.456   0.198
 3457TIP3   OH210376   5.681   1.860   3.408
 3457TIP3    H110377   5.624   1.912   3.466
 3457TIP3    H210378   5.718   1.923   3.348
 3458TIP3   OH210379   3.514   2.566   0.990
 3458TIP3    H110380   3.485   2.626   1.059
 3458TIP3    H210381   3.468   2.484   1.010
 3459TIP3   OH210382   2.337   4.630   2.850
 3459TIP3    H110383   2.420   4.678   2.858
 3459TIP3    H210384   2.282   4.665   2.920
 3460TIP3   OH210385   2.524   0.289   3.783
 3460TIP3    H110386   2.572   0.366   3.752
 3460TIP3    H210387   2.495   0.245   3.703
 3461TIP3   OH210388   2.980   3.318   5.180
 3461TIP3    H110389   2.953   3.284   5.266
 3461TIP3    H210390   2.988   3.412   5.193
 3462TIP3   OH210391   5.339   2.989   3.999
 3462TIP3    H110392   5.254   2.995   3.956
 3462TIP3    H210393   5.401   2.975   3.928
 3463TIP3   OH210394   3.757   0.400   2.203
 3463TIP3    H110395   3.842   0.414   2.244
 3463TIP3    H210396   3.770   0.325   2.146
 3464TIP3   OH210397   6.275   3.543   2.951
 3464TIP3    H110398   6.293   3.585   2.867
 3464TIP3    H210399   6.180   3.536   2.954
 3465TIP3   OH210400   4.945   1.781   4.719
 3465TIP3    H110401   5.002   1.855   4.696
 3465TIP3    H210402   4.932   1.735   4.636
 3466TIP3   OH210403   0.542   3.192   0.623
 3466TIP3    H110404   0.554   3.269   0.567
 3466TIP3    H210405   0.631   3.168   0.650
 3467TIP3   OH210406   1.985   3.696   3.393
 3467TIP3    H110407   2.059   3.757   3.386
 3467TIP3    H210408   1.921   3.741   3.447
 3468TIP3   OH210409   3.662   2.835   0.685
 3468TIP3    H110410   3.754   2.813   0.666
 3468TIP3    H210411   3.615   2.753   0.669
 3469TIP3   OH210412   2.047   4.420   2.873
 3469TIP3    H110413   2.093   4.390   2.951
 3469TIP3    H210414   2.048   4.516   2.880
 3470TIP3   OH210415   5.853   5.715   4.536
 3470TIP3    H110416   5.766   5.681   4.559
 3470TIP3    H210417   5.851   5.721   4.440
 3471TIP3   OH210418   1.451   5.742   0.148
 3471TIP3    H110419   1.383   5.722   0.213
 3471TIP3    H210420   1.518   5.675   0.163
 3472TIP3   OH210421   0.643   4.635   1.433
 3472TIP3    H110422   0.617   4.676   1.350
 3472TIP3    H210423   0.594   4.553   1.435
 3473TIP3   OH210424   0.530   3.019   2.605
 3473TIP3    H110425   0.619   3.027   2.570
 3473TIP3    H210426   0.506   2.928   2.588
 3474TIP3   OH210427   1.754   2.275   3.191
 3474TIP3    H110428   1.679   2.257   3.248
 3474TIP3    H210429   1.748   2.211   3.121
 3475TIP3   OH210430   2.297   5.832   2.998
 3475TIP3    H110431   2.381   5.813   3.040
 3475TIP3    H210432   2.235   5.840   3.071
 3476TIP3   OH210433   3.166   5.890   2.643
 3476TIP3    H110434   3.241   5.944   2.666
 3476TIP3    H210435   3.135   5.854   2.726
 3477TIP3   OH210436   1.070   4.681   1.805
 3477TIP3    H110437   1.096   4.593   1.832
 3477TIP3    H210438   1.134   4.738   1.847
 3478TIP3   OH210439   4.151   0.692   2.536
 3478TIP3    H110440   4.101   0.773   2.547
 3478TIP3    H210441   4.164   0.685   2.441
 3479TIP3   OH210442   1.758   0.803   2.489
 3479TIP3    H110443   1.732   0.733   2.549
 3479TIP3    H210444   1.680   0.820   2.437
 3480TIP3   OH210445   2.171   4.964   3.225
 3480TIP3    H110446   2.209   4.935   3.308
 3480TIP3    H210447   2.167   5.059   3.233
 3481TIP3   OH210448   3.273   2.236   0.381
 3481TIP3    H110449   3.280   2.327   0.352
 3481TIP3    H210450   3.192   2.204   0.340
 3482TIP3   OH210451   3.303   1.737   0.818
 3482TIP3    H110452   3.327   1.802   0.884
 3482TIP3    H210453   3.383   1.722   0.768
 3483TIP3   OH210454   6.176   3.236   1.358
 3483TIP3    H110455   6.162   3.260   1.267
 3483TIP3    H210456   6.155   3.143   1.363
 3484TIP3   OH210457   2.625   1.004   1.437
 3484TIP3    H110458   2.690   0.935   1.429
 3484TIP3    H210459   2.674   1.080   1.469
 3485TIP3   OH210460   6.317   5.295   2.938
 3485TIP3    H110461   6.318   5.387   2.963
 3485TIP3    H210462   6.311   5.248   3.022
 3486TIP3   OH210463   5.023   5.951   4.919
 3486TIP3    H110464   5.023   5.925   4.826
 3486TIP3    H210465   4.937   5.924   4.951
 3487TIP3   OH210466   1.547   1.882   0.196
 3487TIP3    H110467   1.506   1.952   0.247
 3487TIP3    H210468   1.638   1.911   0.186
 3488TIP3   OH210469   1.813   2.518   3.800
 3488TIP3    H110470   1.806   2.482   3.888
 3488TIP3    H210471   1.797   2.612   3.811
 3489TIP3   OH210472   0.749   3.979   0.836
 3489TIP3    H110473   0.782   4.064   0.863
 3489TIP3    H210474   0.665   3.971   0.882
 3490TIP3   OH210475   0.103   3.954   1.096
 3490TIP3    H110476   0.192   3.923   1.114
 3490TIP3    H210477   0.096   3.951   1.000
 3491TIP3   OH210478   6.176   1.064   3.921
 3491TIP3    H110479   6.103   1.076   3.983
 3491TIP3    H210480   6.222   1.148   3.923
 3492TIP3   OH210481   5.887   3.676   0.674
 3492TIP3    H110482   5.959   3.656   0.615
 3492TIP3    H210483   5.869   3.769   0.659
 3493TIP3   OH210484   4.141   4.520   1.202
 3493TIP3    H110485   4.078   4.474   1.147
 3493TIP3    H210486   4.089   4.555   1.274
 3494TIP3   OH210487   1.778   1.879   3.223
 3494TIP3    H110488   1.741   1.967   3.226
 3494TIP3    H210489   1.784   1.852   3.315
 3495TIP3   OH210490   2.120   3.450   3.423
 3495TIP3    H110491   2.111   3.407   3.338
 3495TIP3    H210492   2.087   3.538   3.410
 3496TIP3   OH210493   0.687   0.409   1.345
 3496TIP3    H110494   0.723   0.380   1.261
 3496TIP3    H210495   0.595   0.429   1.326
 3497TIP3   OH210496   2.354   1.737   2.270
 3497TIP3    H110497   2.350   1.699   2.358
 3497TIP3    H210498   2.265   1.731   2.236
 3498TIP3   OH210499   6.210   1.260   2.801
 3498TIP3    H110500   6.209   1.230   2.710
 3498TIP3    H210501   6.245   1.350   2.795
 3499TIP3   OH210502   1.273   1.221   0.632
 3499TIP3    H110503   1.313   1.291   0.582
 3499TIP3    H210504   1.201   1.263   0.680
 3500TIP3   OH210505   1.518   4.469   3.428
 3500TIP3    H110506   1.488   4.454   3.338
 3500TIP3    H210507   1.612   4.484   3.420
 3501TIP3   OH210508   4.681   5.869   4.331
 3501TIP3    H110509   4.699   5.924   4.407
 3501TIP3    H210510   4.600   5.822   4.354
 3502TIP3   OH210511   4.939   1.069   2.192
 3502TIP3    H110512   4.988   1.151   2.200
 3502TIP3    H210513   4.896   1.059   2.277
 3503TIP3   OH210514   0.225   4.266   2.693
 3503TIP3    H110515   0.230   4.354   2.730
 3503TIP3    H210516   0.167   4.274   2.618
 3504TIP3   OH210517   5.403   2.094   2.689
 3504TIP3    H110518   5.372   2.123   2.775
 3504TIP3    H210519   5.496   2.077   2.702
 3505TIP3   OH210520   6.010   1.703   1.405
 3505TIP3    H110521   6.079   1.657   1.356
 3505TIP3    H210522   5.967   1.757   1.339
 3506TIP3   OH210523   2.207   5.252   1.791
 3506TIP3    H110524   2.245   5.295   1.714
 3506TIP3    H210525   2.128   5.209   1.758
 3507TIP3   OH210526   2.361   2.812   4.004
 3507TIP3    H110527   2.423   2.865   4.054
 3507TIP3    H210528   2.356   2.729   4.052
 3508TIP3   OH210529   4.996   2.480   0.747
 3508TIP3    H110530   5.064   2.545   0.729
 3508TIP3    H210531   4.945   2.476   0.666
 3509TIP3   OH210532   4.557   3.722   4.551
 3509TIP3    H110533   4.578   3.806   4.510
 3509TIP3    H210534   4.489   3.743   4.615
 3510TIP3   OH210535   3.898   2.517   0.457
 3510TIP3    H110536   3.836   2.589   0.456
 3510TIP3    H210537   3.953   2.531   0.380
 3511TIP3   OH210538   5.590   3.565   1.331
 3511TIP3    H110539   5.601   3.535   1.421
 3511TIP3    H210540   5.496   3.565   1.317
 3512TIP3   OH210541   3.607   3.168   4.178
 3512TIP3    H110542   3.640   3.171   4.089
 3512TIP3    H210543   3.682   3.144   4.232
 3513TIP3   OH210544   0.630   1.528   5.134
 3513TIP3    H110545   0.581   1.540   5.053
 3513TIP3    H210546   0.563   1.509   5.200
 3514TIP3   OH210547   1.184   3.113   2.622
 3514TIP3    H110548   1.114   3.063   2.664
 3514TIP3    H210549   1.260   3.099   2.678
 3515TIP3   OH210550   2.799   5.717   2.332
 3515TIP3    H110551   2.836   5.657   2.268
 3515TIP3    H210552   2.723   5.671   2.367
 3516TIP3   OH210553   4.197   4.734   3.661
 3516TIP3    H110554   4.218   4.822   3.629
 3516TIP3    H210555   4.175   4.748   3.754
 3517TIP3   OH210556   1.246   2.190   1.025
 3517TIP3    H110557   1.320   2.132   1.004
 3517TIP3    H210558   1.195   2.194   0.945
 3518TIP3   OH210559   1.865   1.290   0.775
 3518TIP3    H110560   1.953   1.270   0.809
 3518TIP3    H210561   1.881   1.328   0.689
 3519TIP3   OH210562   0.157   1.036   0.219
 3519TIP3    H110563   0.184   0.955   0.262
 3519TIP3    H210564   0.236   1.090   0.217
 3520TIP3   OH210565   1.508   0.421   2.198
 3520TIP3    H110566   1.452   0.350   2.166
 3520TIP3    H210567   1.478   0.498   2.149
 3521TIP3   OH210568   0.208   2.333   2.464
 3521TIP3    H110569   0.280   2.396   2.472
 3521TIP3    H210570   0.174   2.324   2.553
 3522TIP3   OH210571   0.333   0.718   0.991
 3522TIP3    H110572   0.320   0.624   0.982
 3522TIP3    H210573   0.424   0.728   1.017
 3523TIP3   OH210574   4.480   1.664   0.442
 3523TIP3    H110575   4.504   1.596   0.505
 3523TIP3    H210576   4.558   1.719   0.435
 3524TIP3   OH210577   3.963   4.687   2.618
 3524TIP3    H110578   3.916   4.636   2.684
 3524TIP3    H210579   4.013   4.622   2.568
 3525TIP3   OH210580   1.712   1.844   1.722
 3525TIP3    H110581   1.678   1.918   1.673
 3525TIP3    H210582   1.637   1.787   1.735
 3526TIP3   OH210583   2.871   4.168   1.645
 3526TIP3    H110584   2.794   4.131   1.690
 3526TIP3    H210585   2.835   4.209   1.566
 3527TIP3   OH210586   2.102   2.851   2.953
 3527TIP3    H110587   2.081   2.931   2.905
 3527TIP3    H210588   2.192   2.831   2.929
 3528TIP3   OH210589   2.096   2.536   2.345
 3528TIP3    H110590   2.137   2.450   2.333
 3528TIP3    H210591   2.004   2.516   2.364
 3529TIP3   OH210592   1.941   4.340   4.949
 3529TIP3    H110593   1.953   4.409   4.884
 3529TIP3    H210594   1.850   4.347   4.976
 3530TIP3   OH210595   3.750   0.401   1.298
 3530TIP3    H110596   3.753   0.494   1.273
 3530TIP3    H210597   3.729   0.402   1.391
 3531TIP3   OH210598   0.977   5.042   2.725
 3531TIP3    H110599   0.984   4.947   2.733
 3531TIP3    H210600   1.038   5.065   2.655
 3532TIP3   OH210601   0.267   1.630   1.438
 3532TIP3    H110602   0.315   1.631   1.520
 3532TIP3    H210603   0.256   1.723   1.415
 3533TIP3   OH210604   3.984   4.982   2.156
 3533TIP3    H110605   3.916   4.923   2.188
 3533TIP3    H210606   4.047   4.925   2.113
 3534TIP3   OH210607   3.748   4.701   1.990
 3534TIP3    H110608   3.710   4.772   1.938
 3534TIP3    H210609   3.793   4.646   1.926
 3535TIP3   OH210610   2.921   5.361   0.293
 3535TIP3    H110611   2.884   5.321   0.372
 3535TIP3    H210612   2.904   5.454   0.304
 3536TIP3   OH210613   3.925   2.494   4.166
 3536TIP3    H110614   3.915   2.403   4.137
 3536TIP3    H210615   3.993   2.489   4.234
 3537TIP3   OH210616   3.166   4.467   4.277
 3537TIP3    H110617   3.124   4.527   4.338
 3537TIP3    H210618   3.119   4.480   4.194
 3538TIP3   OH210619   4.667   1.909   4.268
 3538TIP3    H110620   4.734   1.940   4.207
 3538TIP3    H210621   4.584   1.937   4.228
 3539TIP3   OH210622   1.675   0.194   0.172
 3539TIP3    H110623   1.737   0.132   0.133
 3539TIP3    H210624   1.616   0.217   0.101
 3540TIP3   OH210625   2.372   3.206   1.518
 3540TIP3    H110626   2.397   3.297   1.535
 3540TIP3    H210627   2.327   3.179   1.598
 3541TIP3   OH210628   2.866   5.424   2.192
 3541TIP3    H110629   2.789   5.367   2.185
 3541TIP3    H210630   2.854   5.490   2.125
 3542TIP3   OH210631   5.012   5.214   3.163
 3542TIP3    H110632   5.033   5.131   3.206
 3542TIP3    H210633   5.074   5.218   3.090
 3543TIP3   OH210634   1.182   2.887   1.520
 3543TIP3    H110635   1.130   2.968   1.523
 3543TIP3    H210636   1.193   2.870   1.427
 3544TIP3   OH210637   4.080   4.904   3.321
 3544TIP3    H110638   4.104   4.937   3.234
 3544TIP3    H210639   4.137   4.950   3.381
 3545TIP3   OH210640   4.645   1.855   3.786
 3545TIP3    H110641   4.652   1.950   3.779
 3545TIP3    H210642   4.735   1.824   3.778
 3546TIP3   OH210643   0.281   0.458   1.244
 3546TIP3    H110644   0.361   0.475   1.193
 3546TIP3    H210645   0.277   0.362   1.251
 3547TIP3   OH210646   6.294   0.261   0.220
 3547TIP3    H110647   6.206   0.281   0.252
 3547TIP3    H210648   6.284   0.179   0.172
 3548TIP3   OH210649   1.781   1.730   0.088
 3548TIP3    H110650   1.761   1.696   0.175
 3548TIP3    H210651   1.719   1.686   0.030
 3549TIP3   OH210652   0.209   3.663   2.734
 3549TIP3    H110653   0.192   3.588   2.678
 3549TIP3    H210654   0.299   3.650   2.764
 3550TIP3   OH210655   2.647   1.621   1.551
 3550TIP3    H110656   2.583   1.690   1.568
 3550TIP3    H210657   2.634   1.597   1.460
 3551TIP3   OH210658   1.447   1.636   2.596
 3551TIP3    H110659   1.371   1.626   2.653
 3551TIP3    H210660   1.421   1.701   2.531
 3552TIP3   OH210661   3.059   4.752   0.353
 3552TIP3    H110662   3.009   4.711   0.282
 3552TIP3    H210663   2.993   4.781   0.416
 3553TIP3   OH210664   1.564   3.893   2.427
 3553TIP3    H110665   1.506   3.853   2.363
 3553TIP3    H210666   1.542   3.987   2.425
 3554TIP3   OH210667   5.116   4.077   4.498
 3554TIP3    H110668   5.026   4.084   4.530
 3554TIP3    H210669   5.108   4.083   4.403
 3555TIP3   OH210670   1.185   2.799   0.108
 3555TIP3    H110671   1.215   2.887   0.084
 3555TIP3    H210672   1.112   2.782   0.049
 3556TIP3   OH210673   4.452   1.527   4.367
 3556TIP3    H110674   4.407   1.515   4.284
 3556TIP3    H210675   4.485   1.617   4.364
 3557TIP3   OH210676   2.552   5.850   2.121
 3557TIP3    H110677   2.617   5.858   2.051
 3557TIP3    H210678   2.551   5.757   2.142
 3558TIP3   OH210679   4.462   2.487   3.953
 3558TIP3    H110680   4.398   2.558   3.958
 3558TIP3    H210681   4.468   2.454   4.042
 3559TIP3   OH210682   2.031   2.821   3.459
 3559TIP3    H110683   2.124   2.827   3.478
 3559TIP3    H210684   1.990   2.883   3.518
 3560TIP3   OH210685   3.602   1.898   3.076
 3560TIP3    H110686   3.542   1.878   3.004
 3560TIP3    H210687   3.549   1.948   3.138
 3561TIP3   OH210688   4.827   1.047   3.798
 3561TIP3    H110689   4.868   1.087   3.721
 3561TIP3    H210690   4.891   1.057   3.868
 3562TIP3   OH210691   5.294   5.788   2.069
 3562TIP3    H110692   5.365   5.756   2.124
 3562TIP3    H210693   5.320   5.762   1.980
 3563TIP3   OH210694   3.552   0.227   1.464
 3563TIP3    H110695   3.570   0.314   1.500
 3563TIP3    H210696   3.466   0.205   1.498
 3564TIP3   OH210697   5.922   1.436   1.934
 3564TIP3    H110698   5.969   1.409   2.013
 3564TIP3    H210699   5.929   1.362   1.874
 3565TIP3   OH210700   4.604   3.944   1.347
 3565TIP3    H110701   4.612   4.019   1.406
 3565TIP3    H210702   4.676   3.954   1.285
 3566TIP3   OH210703   0.315   4.297   3.284
 3566TIP3    H110704   0.312   4.246   3.203
 3566TIP3    H210705   0.385   4.361   3.270
 3567TIP3   OH210706   5.607   5.800   4.737
 3567TIP3    H110707   5.531   5.791   4.679
 3567TIP3    H210708   5.633   5.710   4.756
 3568TIP3   OH210709   6.354   4.618   1.360
 3568TIP3    H110710   6.380   4.694   1.413
 3568TIP3    H210711   6.287   4.652   1.301
 3569TIP3   OH210712   2.529   1.855   0.615
 3569TIP3    H110713   2.532   1.802   0.695
 3569TIP3    H210714   2.437   1.856   0.591
 3570TIP3   OH210715   4.263   5.214   4.429
 3570TIP3    H110716   4.251   5.306   4.407
 3570TIP3    H210717   4.344   5.211   4.481
 3571TIP3   OH210718   1.739   2.717   0.603
 3571TIP3    H110719   1.667   2.655   0.616
 3571TIP3    H210720   1.765   2.704   0.512
 3572TIP3   OH210721   5.705   4.213   0.239
 3572TIP3    H110722   5.769   4.285   0.237
 3572TIP3    H210723   5.620   4.257   0.242
 3573TIP3   OH210724   5.441   5.940   0.987
 3573TIP3    H110725   5.465   6.015   0.933
 3573TIP3    H210726   5.441   5.975   1.076
 3574TIP3   OH210727   3.624   0.185   2.601
 3574TIP3    H110728   3.546   0.184   2.546
 3574TIP3    H210729   3.593   0.160   2.688
 3575TIP3   OH210730   3.739   0.230   4.779
 3575TIP3    H110731   3.789   0.294   4.729
 3575TIP3    H210732   3.668   0.280   4.818
 3576TIP3   OH210733   0.000   1.693   2.939
 3576TIP3    H110734  -0.005   1.752   3.015
 3576TIP3    H210735   0.083   1.716   2.896
 3577TIP3   OH210736   0.708   0.861   2.209
 3577TIP3    H110737   0.766   0.827   2.278
 3577TIP3    H210738   0.734   0.813   2.130
 3578TIP3   OH210739   5.553   4.114   4.972
 3578TIP3    H110740   5.549   4.028   5.015
 3578TIP3    H210741   5.538   4.094   4.879
 3579TIP3   OH210742   3.267   5.236   0.719
 3579TIP3    H110743   3.282   5.304   0.785
 3579TIP3    H210744   3.313   5.268   0.642
 3580TIP3   OH210745   3.100   5.189   2.211
 3580TIP3    H110746   3.036   5.233   2.156
 3580TIP3    H210747   3.101   5.099   2.180
 3581TIP3   OH210748   1.064   5.218   0.926
 3581TIP3    H110749   1.062   5.123   0.916
 3581TIP3    H210750   1.056   5.232   1.020
 3582TIP3   OH210751   0.900   5.152   0.407
 3582TIP3    H110752   0.910   5.208   0.484
 3582TIP3    H210753   0.990   5.134   0.379
 3583TIP3   OH210754   0.435   5.802   1.400
 3583TIP3    H110755   0.527   5.779   1.414
 3583TIP3    H210756   0.430   5.822   1.306
 3584TIP3   OH210757   5.592   0.792   0.674
 3584TIP3    H110758   5.518   0.732   0.687
 3584TIP3    H210759   5.579   0.827   0.586
 3585TIP3   OH210760   0.705   3.647   0.061
 3585TIP3    H110761   0.773   3.704   0.026
 3585TIP3    H210762   0.624   3.678   0.020
 3586TIP3   OH210763   2.181   0.225   1.496
 3586TIP3    H110764   2.185   0.289   1.424
 3586TIP3    H210765   2.088   0.209   1.508
 3587TIP3   OH210766   1.209   1.601   0.921
 3587TIP3    H110767   1.279   1.574   0.980
 3587TIP3    H210768   1.136   1.541   0.940
 3588TIP3   OH210769   3.764   3.668   2.517
 3588TIP3    H110770   3.786   3.581   2.483
 3588TIP3    H210771   3.680   3.656   2.561
 3589TIP3   OH210772   5.754   1.656   0.053
 3589TIP3    H110773   5.731   1.584   0.111
 3589TIP3    H210774   5.752   1.733   0.110
 3590TIP3   OH210775   4.558   5.671   1.144
 3590TIP3    H110776   4.607   5.644   1.065
 3590TIP3    H210777   4.470   5.689   1.112
 3591TIP3   OH210778   5.122   5.282   2.424
 3591TIP3    H110779   5.044   5.228   2.433
 3591TIP3    H210780   5.132   5.294   2.329
 3592TIP3   OH210781   1.602   1.405   2.518
 3592TIP3    H110782   1.579   1.401   2.425
 3592TIP3    H210783   1.554   1.481   2.551
 3593TIP3   OH210784   0.891   1.686   3.789
 3593TIP3    H110785   0.809   1.677   3.740
 3593TIP3    H210786   0.956   1.639   3.737
 3594TIP3   OH210787   0.455   1.327   3.745
 3594TIP3    H110788   0.431   1.341   3.653
 3594TIP3    H210789   0.412   1.398   3.792
 3595TIP3   OH210790   4.314   3.102   2.877
 3595TIP3    H110791   4.219   3.093   2.871
 3595TIP3    H210792   4.330   3.195   2.861
 3596TIP3   OH210793   3.824   3.136   2.658
 3596TIP3    H110794   3.774   3.087   2.592
 3596TIP3    H210795   3.894   3.179   2.608
 3597TIP3   OH210796   5.982   1.502   3.059
 3597TIP3    H110797   5.940   1.491   2.974
 3597TIP3    H210798   5.973   1.416   3.101
 3598TIP3   OH210799   3.833   3.528   4.353
 3598TIP3    H110800   3.845   3.617   4.320
 3598TIP3    H210801   3.860   3.471   4.281
 3599TIP3   OH210802   4.767   5.272   4.655
 3599TIP3    H110803   4.842   5.228   4.616
 3599TIP3    H210804   4.730   5.208   4.716
 3600TIP3   OH210805   5.506   5.399   2.018
 3600TIP3    H110806   5.517   5.484   2.061
 3600TIP3    H210807   5.546   5.336   2.079
 3601TIP3   OH210808   0.665   3.652   5.068
 3601TIP3    H110809   0.730   3.666   5.137
 3601TIP3    H210810   0.582   3.642   5.116
 3602TIP3   OH210811   1.068   2.304   4.280
 3602TIP3    H110812   1.136   2.367   4.257
 3602TIP3    H210813   1.025   2.343   4.356
 3603TIP3   OH210814   5.024   2.201   0.612
 3603TIP3    H110815   5.098   2.261   0.613
 3603TIP3    H210816   5.008   2.183   0.520
 3604TIP3   OH210817   5.123   2.821   2.326
 3604TIP3    H110818   5.151   2.878   2.398
 3604TIP3    H210819   5.032   2.846   2.309
 3605TIP3   OH210820   3.702   4.413   3.156
 3605TIP3    H110821   3.686   4.401   3.249
 3605TIP3    H210822   3.794   4.392   3.144
 3606TIP3   OH210823   4.952   4.312   0.047
 3606TIP3    H110824   4.999   4.327   0.129
 3606TIP3    H210825   4.859   4.317   0.072
 3607TIP3   OH210826   1.399   5.779   4.992
 3607TIP3    H110827   1.419   5.800   4.901
 3607TIP3    H210828   1.312   5.739   4.988
 3608TIP3   OH210829   2.418   5.420   4.015
 3608TIP3    H110830   2.502   5.374   4.004
 3608TIP3    H210831   2.386   5.431   3.925
 3609TIP3   OH210832   2.504   4.268   0.718
 3609TIP3    H110833   2.488   4.213   0.794
 3609TIP3    H210834   2.453   4.348   0.736
 3610TIP3   OH210835   0.680   3.453   0.562
 3610TIP3    H110836   0.730   3.500   0.629
 3610TIP3    H210837   0.589   3.456   0.593
 3611TIP3   OH210838   0.539   4.324   0.179
 3611TIP3    H110839   0.599   4.294   0.246
 3611TIP3    H210840   0.479   4.251   0.165
 3612TIP3   OH210841   0.544   1.577   4.180
 3612TIP3    H110842   0.564   1.483   4.187
 3612TIP3    H210843   0.528   1.605   4.270
 3613TIP3   OH210844   5.036   5.066   4.587
 3613TIP3    H110845   4.988   5.039   4.665
 3613TIP3    H210846   5.113   5.112   4.621
 3614TIP3   OH210847   1.708   3.424   0.850
 3614TIP3    H110848   1.715   3.519   0.839
 3614TIP3    H210849   1.788   3.389   0.811
 3615TIP3   OH210850   4.963   3.371   3.687
 3615TIP3    H110851   4.955   3.412   3.773
 3615TIP3    H210852   4.975   3.445   3.627
 3616TIP3   OH210853   2.095   5.084   4.762
 3616TIP3    H110854   2.114   4.991   4.773
 3616TIP3    H210855   2.168   5.130   4.804
 3617TIP3   OH210856   0.934   5.800   0.717
 3617TIP3    H110857   1.022   5.795   0.755
 3617TIP3    H210858   0.937   5.877   0.660
 3618TIP3   OH210859   3.050   4.043   3.975
 3618TIP3    H110860   3.068   4.079   4.062
 3618TIP3    H210861   3.097   4.100   3.915
 3619TIP3   OH210862   3.651   3.079   0.999
 3619TIP3    H110863   3.583   3.019   0.968
 3619TIP3    H210864   3.732   3.029   0.991
 3620TIP3   OH210865   2.194   1.612   1.080
 3620TIP3    H110866   2.113   1.562   1.071
 3620TIP3    H210867   2.216   1.605   1.173
 3621TIP3   OH210868   0.529   5.393   1.066
 3621TIP3    H110869   0.470   5.359   1.134
 3621TIP3    H210870   0.472   5.442   1.007
 3622TIP3   OH210871   4.564   3.495   1.405
 3622TIP3    H110872   4.547   3.448   1.324
 3622TIP3    H210873   4.478   3.521   1.437
 3623TIP3   OH210874   0.956   1.898   4.319
 3623TIP3    H110875   0.870   1.856   4.311
 3623TIP3    H210876   0.944   1.985   4.280
 3624TIP3   OH210877   4.196   2.434   1.772
 3624TIP3    H110878   4.155   2.409   1.854
 3624TIP3    H210879   4.274   2.379   1.767
 3625TIP3   OH210880   1.133   4.964   0.934
 3625TIP3    H110881   1.118   4.929   1.022
 3625TIP3    H210882   1.138   4.886   0.879
 3626TIP3   OH210883   0.989   2.035   0.903
 3626TIP3    H110884   1.046   1.959   0.900
 3626TIP3    H210885   1.037   2.104   0.856
 3627TIP3   OH210886   4.770   2.538   4.180
 3627TIP3    H110887   4.789   2.567   4.269
 3627TIP3    H210888   4.703   2.599   4.149
 3628TIP3   OH210889   4.918   1.473   2.964
 3628TIP3    H110890   4.996   1.473   2.908
 3628TIP3    H210891   4.860   1.408   2.926
 3629TIP3   OH210892   3.191   5.583   3.654
 3629TIP3    H110893   3.269   5.638   3.661
 3629TIP3    H210894   3.179   5.546   3.741
 3630TIP3   OH210895   6.199   1.617   3.198
 3630TIP3    H110896   6.112   1.621   3.158
 3630TIP3    H210897   6.241   1.542   3.155
 3631TIP3   OH210898   1.078   3.218   3.316
 3631TIP3    H110899   1.163   3.177   3.332
 3631TIP3    H210900   1.043   3.171   3.240
 3632TIP3   OH210901   0.985   3.965   0.065
 3632TIP3    H110902   1.060   4.021   0.046
 3632TIP3    H210903   0.913   4.003   0.015
 3633TIP3   OH210904   5.191   3.881   3.814
 3633TIP3    H110905   5.166   3.796   3.851
 3633TIP3    H210906   5.108   3.920   3.787
 3634TIP3   OH210907   4.438   2.097   4.931
 3634TIP3    H110908   4.519   2.144   4.950
 3634TIP3    H210909   4.371   2.143   4.982
 3635TIP3   OH210910   2.374   5.191   2.154
 3635TIP3    H110911   2.386   5.097   2.138
 3635TIP3    H210912   2.294   5.196   2.207
 3636TIP3   OH210913   1.442   5.676   0.776
 3636TIP3    H110914   1.438   5.582   0.792
 3636TIP3    H210915   1.462   5.683   0.682
 3637TIP3   OH210916   1.816   1.965   4.792
 3637TIP3    H110917   1.733   1.991   4.833
 3637TIP3    H210918   1.838   2.038   4.734
 3638TIP3   OH210919   1.861   3.503   1.994
 3638TIP3    H110920   1.787   3.467   1.944
 3638TIP3    H210921   1.916   3.427   2.013
 3639TIP3   OH210922   5.097   4.256   0.330
 3639TIP3    H110923   5.101   4.332   0.388
 3639TIP3    H210924   5.035   4.197   0.373
 3640TIP3   OH210925   5.821   0.291   3.564
 3640TIP3    H110926   5.734   0.327   3.583
 3640TIP3    H210927   5.863   0.357   3.509
 3641TIP3   OH210928   1.314   5.826   4.713
 3641TIP3    H110929   1.271   5.904   4.749
 3641TIP3    H210930   1.242   5.768   4.689
 3642TIP3   OH210931   5.435   5.358   3.030
 3642TIP3    H110932   5.423   5.339   2.937
 3642TIP3    H210933   5.496   5.292   3.061
 3643TIP3   OH210934   6.017   0.925   1.022
 3643TIP3    H110935   5.990   0.858   1.085
 3643TIP3    H210936   5.956   0.915   0.949
 3644TIP3   OH210937   2.070   5.676   4.014
 3644TIP3    H110938   2.112   5.598   4.052
 3644TIP3    H210939   1.988   5.685   4.064
 3645TIP3   OH210940   2.964   0.785   0.769
 3645TIP3    H110941   3.048   0.742   0.753
 3645TIP3    H210942   2.954   0.785   0.864
 3646TIP3   OH210943   2.656   3.291   2.233
 3646TIP3    H110944   2.623   3.282   2.144
 3646TIP3    H210945   2.642   3.205   2.273
 3647TIP3   OH210946   4.772   1.130   3.043
 3647TIP3    H110947   4.805   1.087   2.964
 3647TIP3    H210948   4.711   1.196   3.010
 3648TIP3   OH210949   3.094   1.200   4.251
 3648TIP3    H110950   3.014   1.156   4.220
 3648TIP3    H210951   3.073   1.293   4.250
 3649TIP3   OH210952   0.811   1.630   1.115
 3649TIP3    H110953   0.792   1.630   1.209
 3649TIP3    H210954   0.831   1.721   1.094
 3650TIP3   OH210955   1.747   2.275   1.335
 3650TIP3    H110956   1.695   2.236   1.405
 3650TIP3    H210957   1.769   2.362   1.368
 3651TIP3   OH210958   4.408   4.477   4.933
 3651TIP3    H110959   4.457   4.531   4.996
 3651TIP3    H210960   4.465   4.472   4.856
 3652TIP3   OH210961   5.533   1.041   4.150
 3652TIP3    H110962   5.521   1.032   4.244
 3652TIP3    H210963   5.558   0.954   4.120
 3653TIP3   OH210964   3.032   2.968   4.591
 3653TIP3    H110965   3.071   3.036   4.645
 3653TIP3    H210966   3.091   2.960   4.516
 3654TIP3   OH210967   4.127   5.553   3.105
 3654TIP3    H110968   4.193   5.521   3.167
 3654TIP3    H210969   4.044   5.522   3.140
 3655TIP3   OH210970   3.582   4.285   3.986
 3655TIP3    H110971   3.501   4.305   4.032
 3655TIP3    H210972   3.563   4.205   3.936
 3656TIP3   OH210973   4.815   4.394   4.693
 3656TIP3    H110974   4.745   4.377   4.631
 3656TIP3    H210975   4.849   4.480   4.668
 3657TIP3   OH210976   0.474   5.516   0.661
 3657TIP3    H110977   0.432   5.600   0.682
 3657TIP3    H210978   0.565   5.539   0.643
 3658TIP3   OH210979   0.656   1.226   2.308
 3658TIP3    H110980   0.627   1.135   2.316
 3658TIP3    H210981   0.594   1.276   2.361
 3659TIP3   OH210982   0.311   4.847   1.637
 3659TIP3    H110983   0.222   4.813   1.628
 3659TIP3    H210984   0.300   4.937   1.667
 3660TIP3   OH210985   2.503   0.962   2.139
 3660TIP3    H110986   2.481   0.919   2.222
 3660TIP3    H210987   2.598   0.969   2.140
 3661TIP3   OH210988   3.353   3.071   4.197
 3661TIP3    H110989   3.409   3.038   4.126
 3661TIP3    H210990   3.402   3.146   4.233
 3662TIP3   OH210991   3.823   3.983   4.759
 3662TIP3    H110992   3.767   4.053   4.792
 3662TIP3    H210993   3.912   4.011   4.783
 3663TIP3   OH210994   6.270   5.825   4.295
 3663TIP3    H110995   6.292   5.762   4.226
 3663TIP3    H210996   6.333   5.807   4.365
 3664TIP3   OH210997   5.631   1.565   4.843
 3664TIP3    H110998   5.650   1.657   4.824
 3664TIP3    H210999   5.669   1.550   4.930
 3665TIP3   OH211000   5.642   3.898   0.923
 3665TIP3    H111001   5.615   3.867   1.009
 3665TIP3    H211002   5.594   3.842   0.862
 3666TIP3   OH211003   6.227   0.201   3.887
 3666TIP3    H111004   6.241   0.134   3.954
 3666TIP3    H211005   6.239   0.155   3.804
 3667TIP3   OH211006   2.412   0.099   1.240
 3667TIP3    H111007   2.333   0.050   1.218
 3667TIP3    H211008   2.402   0.183   1.194
 3668TIP3   OH211009   0.487   2.577   1.009
 3668TIP3    H111010   0.547   2.570   0.935
 3668TIP3    H211011   0.535   2.541   1.083
 3669TIP3   OH211012   5.737   4.760   0.873
 3669TIP3    H111013   5.738   4.672   0.834
 3669TIP3    H211014   5.764   4.818   0.803
 3670TIP3   OH211015   4.707   4.025   4.962
 3670TIP3    H111016   4.712   4.120   4.970
 3670TIP3    H211017   4.796   3.995   4.979
 3671TIP3   OH211018   5.775   0.278   2.150
 3671TIP3    H111019   5.868   0.269   2.173
 3671TIP3    H211020   5.729   0.232   2.220
 3672TIP3   OH211021   2.429   3.465   2.166
 3672TIP3    H111022   2.505   3.412   2.188
 3672TIP3    H211023   2.440   3.485   2.074
 3673TIP3   OH211024   4.307   2.138   3.061
 3673TIP3    H111025   4.244   2.094   3.003
 3673TIP3    H211026   4.366   2.185   3.001
 3674TIP3   OH211027   4.873   1.562   2.074
 3674TIP3    H111028   4.960   1.532   2.099
 3674TIP3    H211029   4.871   1.556   1.979
 3675TIP3   OH211030   3.983   2.266   4.007
 3675TIP3    H111031   3.936   2.183   4.010
 3675TIP3    H211032   3.930   2.322   3.950
 3676TIP3   OH211033   1.550   3.309   4.065
 3676TIP3    H111034   1.592   3.361   4.135
 3676TIP3    H211035   1.557   3.219   4.096
 3677TIP3   OH211036   3.330   4.298   3.457
 3677TIP3    H111037   3.308   4.290   3.364
 3677TIP3    H211038   3.420   4.329   3.458
 3678TIP3   OH211039   0.834   5.277   0.655
 3678TIP3    H111040   0.803   5.346   0.715
 3678TIP3    H211041   0.791   5.198   0.685
 3679TIP3   OH211042   3.151   1.741   3.622
 3679TIP3    H111043   3.126   1.649   3.622
 3679TIP3    H211044   3.156   1.765   3.714
 3680TIP3   OH211045   3.907   4.454   1.083
 3680TIP3    H111046   3.854   4.432   1.160
 3680TIP3    H211047   3.857   4.418   1.010
 3681TIP3   OH211048   1.629   2.262   0.257
 3681TIP3    H111049   1.662   2.206   0.187
 3681TIP3    H211050   1.600   2.201   0.325
 3682TIP3   OH211051   5.517   2.197   1.445
 3682TIP3    H111052   5.610   2.209   1.463
 3682TIP3    H211053   5.490   2.125   1.502
 3683TIP3   OH211054   3.580   5.474   1.026
 3683TIP3    H111055   3.634   5.553   1.020
 3683TIP3    H211056   3.547   5.462   0.937
 3684TIP3   OH211057   5.551   2.002   3.631
 3684TIP3    H111058   5.458   1.991   3.650
 3684TIP3    H211059   5.586   2.050   3.706
 3685TIP3   OH211060   4.874   5.100   0.941
 3685TIP3    H111061   4.931   5.098   1.018
 3685TIP3    H211062   4.915   5.164   0.883
 3686TIP3   OH211063   1.965   5.805   0.398
 3686TIP3    H111064   1.971   5.876   0.334
 3686TIP3    H211065   1.933   5.847   0.477
 3687TIP3   OH211066   2.151   5.341   2.775
 3687TIP3    H111067   2.119   5.409   2.715
 3687TIP3    H211068   2.111   5.362   2.859
 3688TIP3   OH211069   5.963   2.659   3.515
 3688TIP3    H111070   6.007   2.706   3.444
 3688TIP3    H211071   5.929   2.728   3.572
 3689TIP3   OH211072   0.096   1.960   0.539
 3689TIP3    H111073   0.114   1.992   0.450
 3689TIP3    H211074   0.004   1.983   0.554
 3690TIP3   OH211075   1.972   2.979   2.697
 3690TIP3    H111076   1.918   2.985   2.618
 3690TIP3    H211077   1.912   2.949   2.765
 3691TIP3   OH211078   2.982   1.640   1.082
 3691TIP3    H111079   2.943   1.676   1.003
 3691TIP3    H211080   2.972   1.546   1.073
 3692TIP3   OH211081   4.664   5.863   2.998
 3692TIP3    H111082   4.657   5.898   2.909
 3692TIP3    H211083   4.664   5.940   3.055
 3693TIP3   OH211084   5.060   0.544   1.295
 3693TIP3    H111085   4.976   0.539   1.341
 3693TIP3    H211086   5.106   0.464   1.319
 3694TIP3   OH211087   4.351   2.033   0.445
 3694TIP3    H111088   4.384   2.109   0.397
 3694TIP3    H211089   4.310   2.070   0.523
 3695TIP3   OH211090   6.296   2.794   3.536
 3695TIP3    H111091   6.332   2.801   3.624
 3695TIP3    H211092   6.283   2.700   3.522
 3696TIP3   OH211093   2.598   0.758   5.028
 3696TIP3    H111094   2.562   0.807   5.102
 3696TIP3    H211095   2.522   0.742   4.971
 3697TIP3   OH211096   5.238   2.734   3.774
 3697TIP3    H111097   5.325   2.771   3.792
 3697TIP3    H211098   5.221   2.757   3.683
 3698TIP3   OH211099   1.435   5.544   2.755
 3698TIP3    H111100   1.425   5.616   2.693
 3698TIP3    H211101   1.423   5.465   2.701
 3699TIP3   OH211102   3.822   0.900   1.851
 3699TIP3    H111103   3.860   0.927   1.935
 3699TIP3    H211104   3.872   0.823   1.826
 3700TIP3   OH211105   5.072   2.323   0.099
 3700TIP3    H111106   5.153   2.310   0.050
 3700TIP3    H211107   5.021   2.245   0.082
 3701TIP3   OH211108   1.544   0.760   4.209
 3701TIP3    H111109   1.506   0.727   4.128
 3701TIP3    H211110   1.580   0.846   4.186
 3702TIP3   OH211111   6.098   4.779   1.659
 3702TIP3    H111112   6.088   4.835   1.737
 3702TIP3    H211113   6.063   4.694   1.687
 3703TIP3   OH211114   4.041   0.013   0.571
 3703TIP3    H111115   4.005   0.100   0.554
 3703TIP3    H211116   3.984  -0.024   0.638
 3704TIP3   OH211117   4.461   2.824   2.597
 3704TIP3    H111118   4.482   2.846   2.506
 3704TIP3    H211119   4.483   2.731   2.604
 3705TIP3   OH211120   0.991   0.681   4.136
 3705TIP3    H111121   0.912   0.706   4.088
 3705TIP3    H211122   1.063   0.715   4.084
 3706TIP3   OH211123   3.986   4.355   2.682
 3706TIP3    H111124   4.020   4.269   2.706
 3706TIP3    H211125   3.974   4.351   2.587
 3707TIP3   OH211126   2.048   2.649   0.933
 3707TIP3    H111127   1.962   2.631   0.896
 3707TIP3    H211128   2.043   2.617   1.023
 3708TIP3   OH211129   4.510   5.880   0.649
 3708TIP3    H111130   4.558   5.805   0.614
 3708TIP3    H211131   4.418   5.856   0.640
 3709TIP3   OH211132   5.433   0.621   4.543
 3709TIP3    H111133   5.367   0.685   4.572
 3709TIP3    H211134   5.463   0.579   4.623
 3710TIP3   OH211135   3.808   3.769   3.672
 3710TIP3    H111136   3.730   3.767   3.728
 3710TIP3    H211137   3.773   3.774   3.583
 3711TIP3   OH211138   3.934   4.871   4.919
 3711TIP3    H111139   3.914   4.941   4.857
 3711TIP3    H211140   3.855   4.816   4.919
 3712TIP3   OH211141   4.185   3.673   2.904
 3712TIP3    H111142   4.128   3.616   2.853
 3712TIP3    H211143   4.125   3.726   2.956
 3713TIP3   OH211144   2.953   5.391   0.791
 3713TIP3    H111145   2.961   5.321   0.855
 3713TIP3    H211146   2.862   5.385   0.760
 3714TIP3   OH211147   4.773   3.948   2.711
 3714TIP3    H111148   4.710   3.931   2.641
 3714TIP3    H211149   4.851   3.982   2.667
 3715TIP3   OH211150   6.222   4.794   4.459
 3715TIP3    H111151   6.316   4.796   4.442
 3715TIP3    H211152   6.212   4.840   4.543
 3716TIP3   OH211153   0.143   4.089   0.019
 3716TIP3    H111154   0.214   4.033   0.050
 3716TIP3    H211155   0.181   4.137  -0.055
 3717TIP3   OH211156   3.500   0.678   0.709
 3717TIP3    H111157   3.458   0.739   0.649
 3717TIP3    H211158   3.428   0.628   0.747
 3718TIP3   OH211159   2.338   2.511   0.112
 3718TIP3    H111160   2.261   2.566   0.128
 3718TIP3    H211161   2.367   2.485   0.199
 3719TIP3   OH211162   0.827   4.647   0.342
 3719TIP3    H111163   0.888   4.596   0.395
 3719TIP3    H211164   0.743   4.601   0.352
 3720TIP3   OH211165   4.203   5.444   4.726
 3720TIP3    H111166   4.254   5.396   4.791
 3720TIP3    H211167   4.268   5.494   4.677
 3721TIP3   OH211168   0.532   5.799   3.319
 3721TIP3    H111169   0.463   5.846   3.366
 3721TIP3    H211170   0.551   5.723   3.374
 3722TIP3   OH211171   2.729   4.761   1.955
 3722TIP3    H111172   2.642   4.764   1.916
 3722TIP3    H211173   2.719   4.709   2.034
 3723TIP3   OH211174   0.139   1.852   4.138
 3723TIP3    H111175   0.174   1.764   4.150
 3723TIP3    H211176   0.194   1.891   4.070
 3724TIP3   OH211177   2.150   2.798   4.833
 3724TIP3    H111178   2.151   2.706   4.857
 3724TIP3    H211179   2.195   2.842   4.905
 3725TIP3   OH211180   4.535   1.687   1.131
 3725TIP3    H111181   4.458   1.653   1.177
 3725TIP3    H211182   4.605   1.624   1.152
 3726TIP3   OH211183   1.621   0.839   1.315
 3726TIP3    H111184   1.551   0.848   1.250
 3726TIP3    H211185   1.649   0.929   1.331
 3727TIP3   OH211186   3.680   3.485   4.637
 3727TIP3    H111187   3.725   3.489   4.553
 3727TIP3    H211188   3.639   3.399   4.639
 3728TIP3   OH211189   0.192   1.074   2.042
 3728TIP3    H111190   0.228   1.099   2.127
 3728TIP3    H211191   0.142   0.994   2.060
 3729TIP3   OH211192   4.276   1.497   3.176
 3729TIP3    H111193   4.335   1.465   3.244
 3729TIP3    H211194   4.201   1.533   3.224
 3730TIP3   OH211195   1.503   4.914   3.497
 3730TIP3    H111196   1.504   4.985   3.433
 3730TIP3    H211197   1.596   4.892   3.510
 3731TIP3   OH211198   1.726   4.007   4.040
 3731TIP3    H111199   1.646   4.041   4.079
 3731TIP3    H211200   1.779   3.978   4.115
 3732TIP3   OH211201   2.166   3.517   4.739
 3732TIP3    H111202   2.103   3.527   4.810
 3732TIP3    H211203   2.112   3.492   4.663
 3733TIP3   OH211204   4.167   2.850   2.587
 3733TIP3    H111205   4.252   2.848   2.632
 3733TIP3    H211206   4.145   2.758   2.573
 3734TIP3   OH211207   5.209   4.733   1.847
 3734TIP3    H111208   5.210   4.687   1.931
 3734TIP3    H211209   5.124   4.778   1.846
 3735TIP3   OH211210   2.523   3.305   1.299
 3735TIP3    H111211   2.483   3.254   1.369
 3735TIP3    H211212   2.538   3.242   1.228
 3736TIP3   OH211213   5.061   3.809   1.238
 3736TIP3    H111214   5.127   3.876   1.254
 3736TIP3    H211215   5.105   3.744   1.184
 3737TIP3   OH211216   4.212   1.374   0.263
 3737TIP3    H111217   4.251   1.458   0.284
 3737TIP3    H211218   4.170   1.387   0.178
 3738TIP3   OH211219   5.039   5.640   1.247
 3738TIP3    H111220   5.019   5.586   1.170
 3738TIP3    H211221   4.999   5.593   1.320
 3739TIP3   OH211222   5.006   2.952   3.379
 3739TIP3    H111223   4.911   2.953   3.374
 3739TIP3    H211224   5.032   3.044   3.375
 3740TIP3   OH211225   3.267   0.861   3.260
 3740TIP3    H111226   3.267   0.768   3.286
 3740TIP3    H211227   3.175   0.881   3.244
 3741TIP3   OH211228   4.092   4.717   3.937
 3741TIP3    H111229   4.113   4.764   4.018
 3741TIP3    H211230   4.153   4.643   3.936
 3742TIP3   OH211231   2.471   2.564   2.543
 3742TIP3    H111232   2.439   2.516   2.466
 3742TIP3    H211233   2.538   2.623   2.509
 3743TIP3   OH211234   0.540   1.083   1.864
 3743TIP3    H111235   0.533   1.152   1.929
 3743TIP3    H211236   0.524   1.128   1.780
 3744TIP3   OH211237   6.294   3.234   4.034
 3744TIP3    H111238   6.343   3.183   3.970
 3744TIP3    H211239   6.304   3.325   4.005
 3745TIP3   OH211240   5.557   3.985   2.320
 3745TIP3    H111241   5.475   3.953   2.282
 3745TIP3    H211242   5.613   3.907   2.324
 3746TIP3   OH211243   6.282   5.036   0.579
 3746TIP3    H111244   6.303   5.084   0.659
 3746TIP3    H211245   6.365   5.034   0.531
 3747TIP3   OH211246   1.656   4.207   3.256
 3747TIP3    H111247   1.675   4.184   3.347
 3747TIP3    H211248   1.741   4.205   3.213
 3748TIP3   OH211249   5.862   0.535   3.412
 3748TIP3    H111250   5.771   0.558   3.430
 3748TIP3    H211251   5.873   0.550   3.318
 3749TIP3   OH211252   3.730   3.108   4.954
 3749TIP3    H111253   3.745   3.017   4.979
 3749TIP3    H211254   3.705   3.152   5.035
 3750TIP3   OH211255   1.938   1.475   0.255
 3750TIP3    H111256   1.857   1.520   0.276
 3750TIP3    H211257   1.932   1.455   0.162
 3751TIP3   OH211258   6.006   4.180   2.019
 3751TIP3    H111259   5.985   4.194   2.112
 3751TIP3    H211260   5.968   4.094   1.999
 3752TIP3   OH211261   1.501   5.160   2.240
 3752TIP3    H111262   1.525   5.069   2.254
 3752TIP3    H211263   1.573   5.211   2.279
 3753TIP3   OH211264   6.164   5.790   0.163
 3753TIP3    H111265   6.209   5.775   0.247
 3753TIP3    H211266   6.232   5.829   0.108
 3754TIP3   OH211267   3.755   3.761   2.249
 3754TIP3    H111268   3.772   3.731   2.338
 3754TIP3    H211269   3.836   3.802   2.222
 3755TIP3   OH211270   4.094   1.328   4.532
 3755TIP3    H111271   4.006   1.331   4.569
 3755TIP3    H211272   4.118   1.420   4.518
 3756TIP3   OH211273   0.883   4.069   2.012
 3756TIP3    H111274   0.907   4.005   1.945
 3756TIP3    H211275   0.926   4.038   2.092
 3757TIP3   OH211276   3.922   4.954   1.533
 3757TIP3    H111277   3.947   4.951   1.625
 3757TIP3    H211278   3.962   4.876   1.495
 3758TIP3   OH211279   4.315   4.922   0.961
 3758TIP3    H111280   4.334   4.844   1.012
 3758TIP3    H211281   4.368   4.913   0.882
 3759TIP3   OH211282   0.822   5.549   5.130
 3759TIP3    H111283   0.793   5.480   5.189
 3759TIP3    H211284   0.878   5.504   5.066
 3760TIP3   OH211285   0.341   0.872   3.375
 3760TIP3    H111286   0.252   0.871   3.412
 3760TIP3    H211287   0.340   0.803   3.309
 3761TIP3   OH211288   0.896   4.864   2.262
 3761TIP3    H111289   0.921   4.837   2.350
 3761TIP3    H211290   0.924   4.955   2.256
 3762TIP3   OH211291   2.952   0.350   5.054
 3762TIP3    H111292   2.970   0.435   5.095
 3762TIP3    H211293   2.856   0.343   5.056
 3763TIP3   OH211294   5.066   0.420   3.764
 3763TIP3    H111295   5.111   0.351   3.813
 3763TIP3    H211296   4.997   0.451   3.823
 3764TIP3   OH211297   4.571   3.699   0.647
 3764TIP3    H111298   4.651   3.665   0.685
 3764TIP3    H211299   4.502   3.671   0.707
 3765TIP3   OH211300   5.741   5.933   2.633
 3765TIP3    H111301   5.766   6.022   2.609
 3765TIP3    H211302   5.667   5.912   2.576
 3766TIP3   OH211303   1.230   0.936   0.605
 3766TIP3    H111304   1.222   1.020   0.651
 3766TIP3    H211305   1.148   0.891   0.625
 3767TIP3   OH211306   2.673   0.833   3.066
 3767TIP3    H111307   2.713   0.777   2.999
 3767TIP3    H211308   2.644   0.911   3.018
 3768TIP3   OH211309   3.007   2.803   3.001
 3768TIP3    H111310   2.994   2.841   3.088
 3768TIP3    H211311   2.927   2.752   2.985
 3769TIP3   OH211312   1.895   3.734   3.968
 3769TIP3    H111313   1.804   3.741   3.995
 3769TIP3    H211314   1.892   3.698   3.879
 3770TIP3   OH211315   1.076   2.244   1.405
 3770TIP3    H111316   1.162   2.284   1.423
 3770TIP3    H211317   1.097   2.158   1.370
 3771TIP3   OH211318   5.463   5.877   3.604
 3771TIP3    H111319   5.508   5.876   3.520
 3771TIP3    H211320   5.501   5.950   3.651
 3772TIP3   OH211321   1.974   5.762   2.749
 3772TIP3    H111322   2.060   5.789   2.717
 3772TIP3    H211323   1.926   5.737   2.670
 3773TIP3   OH211324   0.787   5.923   0.994
 3773TIP3    H111325   0.815   5.972   1.072
 3773TIP3    H211326   0.771   5.834   1.026
 3774TIP3   OH211327   1.924   1.849   1.892
 3774TIP3    H111328   1.873   1.847   1.811
 3774TIP3    H211329   1.905   1.935   1.930
 3775TIP3   OH211330   1.878   0.999   0.658
 3775TIP3    H111331   1.870   1.093   0.675
 3775TIP3    H211332   1.849   0.989   0.567
 3776TIP3   OH211333   4.625   3.599   2.555
 3776TIP3    H111334   4.653   3.687   2.531
 3776TIP3    H211335   4.581   3.566   2.477
 3777TIP3   OH211336   5.343   5.424   0.862
 3777TIP3    H111337   5.314   5.449   0.775
 3777TIP3    H211338   5.280   5.465   0.921
 3778TIP3   OH211339   3.239   1.247   2.914
 3778TIP3    H111340   3.281   1.327   2.946
 3778TIP3    H211341   3.238   1.258   2.819
 3779TIP3   OH211342   3.127   5.386   3.237
 3779TIP3    H111343   3.172   5.456   3.189
 3779TIP3    H211344   3.064   5.432   3.292
 3780TIP3   OH211345   4.137   4.814   4.195
 3780TIP3    H111346   4.105   4.730   4.229
 3780TIP3    H211347   4.098   4.880   4.253
 3781TIP3   OH211348   0.486   2.361   2.626
 3781TIP3    H111349   0.578   2.358   2.654
 3781TIP3    H211350   0.464   2.270   2.608
 3782TIP3   OH211351   4.219   2.287   3.815
 3782TIP3    H111352   4.284   2.234   3.861
 3782TIP3    H211353   4.135   2.260   3.853
 3783TIP3   OH211354   4.279   1.972   1.920
 3783TIP3    H111355   4.309   2.042   1.862
 3783TIP3    H211356   4.285   1.892   1.867
 3784TIP3   OH211357   0.405   4.963   3.779
 3784TIP3    H111358   0.351   5.040   3.761
 3784TIP3    H211359   0.482   4.998   3.823
 3785TIP3   OH211360   1.754   4.854   3.603
 3785TIP3    H111361   1.764   4.901   3.686
 3785TIP3    H211362   1.822   4.787   3.606
 3786TIP3   OH211363   3.175   0.371   3.812
 3786TIP3    H111364   3.248   0.317   3.781
 3786TIP3    H211365   3.119   0.310   3.859
 3787TIP3   OH211366   3.540   4.373   4.780
 3787TIP3    H111367   3.481   4.313   4.825
 3787TIP3    H211368   3.516   4.366   4.688
 3788TIP3   OH211369   1.671   3.712   0.757
 3788TIP3    H111370   1.731   3.693   0.686
 3788TIP3    H211371   1.633   3.797   0.735
 3789TIP3   OH211372   3.171   1.311   2.635
 3789TIP3    H111373   3.172   1.376   2.564
 3789TIP3    H211374   3.126   1.236   2.597
 3790TIP3   OH211375   1.794   2.807   3.834
 3790TIP3    H111376   1.743   2.809   3.753
 3790TIP3    H211377   1.869   2.865   3.817
 3791TIP3   OH211378   2.385   5.379   0.293
 3791TIP3    H111379   2.472   5.412   0.316
 3791TIP3    H211380   2.327   5.454   0.306
 3792TIP3   OH211381   3.555   5.664   3.091
 3792TIP3    H111382   3.503   5.690   3.015
 3792TIP3    H211383   3.636   5.715   3.083
 3793TIP3   OH211384   3.462   5.722   4.524
 3793TIP3    H111385   3.368   5.738   4.515
 3793TIP3    H211386   3.501   5.810   4.526
 3794TIP3   OH211387   0.223   0.870   1.235
 3794TIP3    H111388   0.262   0.832   1.156
 3794TIP3    H211389   0.252   0.812   1.306
 3795TIP3   OH211390   3.697   0.360   0.778
 3795TIP3    H111391   3.663   0.364   0.688
 3795TIP3    H211392   3.620   0.371   0.833
 3796TIP3   OH211393   3.565   1.743   5.001
 3796TIP3    H111394   3.580   1.811   5.067
 3796TIP3    H211395   3.473   1.751   4.978
 3797TIP3   OH211396   2.092   4.341   4.149
 3797TIP3    H111397   2.142   4.265   4.118
 3797TIP3    H211398   2.000   4.317   4.134
 3798TIP3   OH211399   2.259   2.984   2.001
 3798TIP3    H111400   2.314   2.913   2.034
 3798TIP3    H211401   2.182   2.939   1.965
 3799TIP3   OH211402   3.856   3.801   4.227
 3799TIP3    H111403   3.829   3.883   4.186
 3799TIP3    H211404   3.910   3.758   4.161
 3800TIP3   OH211405   1.566   5.549   1.015
 3800TIP3    H111406   1.582   5.562   1.109
 3800TIP3    H211407   1.515   5.468   1.011
 3801TIP3   OH211408   6.283   5.145   3.862
 3801TIP3    H111409   6.218   5.075   3.866
 3801TIP3    H211410   6.326   5.133   3.777
 3802TIP3   OH211411   1.145   3.646   1.220
 3802TIP3    H111412   1.203   3.722   1.222
 3802TIP3    H211413   1.100   3.653   1.136
 3803TIP3   OH211414   0.145   5.167   2.754
 3803TIP3    H111415   0.086   5.194   2.824
 3803TIP3    H211416   0.133   5.232   2.685
 3804TIP3   OH211417   3.953   4.342   3.221
 3804TIP3    H111418   3.963   4.318   3.313
 3804TIP3    H211419   4.041   4.336   3.185
 3805TIP3   OH211420   1.755   1.143   1.586
 3805TIP3    H111421   1.800   1.082   1.528
 3805TIP3    H211422   1.693   1.189   1.529
 3806TIP3   OH211423   1.486   0.247   3.651
 3806TIP3    H111424   1.556   0.275   3.709
 3806TIP3    H211425   1.530   0.204   3.578
 3807TIP3   OH211426   6.230   1.555   2.287
 3807TIP3    H111427   6.231   1.643   2.249
 3807TIP3    H211428   6.280   1.502   2.225
 3808TIP3   OH211429   2.535   0.827   3.783
 3808TIP3    H111430   2.502   0.752   3.833
 3808TIP3    H211431   2.554   0.893   3.850
 3809TIP3   OH211432   3.996   1.604   2.292
 3809TIP3    H111433   4.076   1.653   2.312
 3809TIP3    H211434   3.928   1.646   2.345
 3810TIP3   OH211435   4.461   0.472   3.617
 3810TIP3    H111436   4.374   0.474   3.576
 3810TIP3    H211437   4.503   0.553   3.588
 3811TIP3   OH211438   2.170   5.679   3.768
 3811TIP3    H111439   2.259   5.715   3.773
 3811TIP3    H211440   2.144   5.666   3.859
 3812TIP3   OH211441   1.777   0.251   3.548
 3812TIP3    H111442   1.839   0.201   3.600
 3812TIP3    H211443   1.778   0.338   3.587
 3813TIP3   OH211444   5.208   3.960   0.328
 3813TIP3    H111445   5.125   3.917   0.306
 3813TIP3    H211446   5.192   4.053   0.310
 3814TIP3   OH211447   5.794   2.760   3.960
 3814TIP3    H111448   5.817   2.723   4.045
 3814TIP3    H211449   5.700   2.741   3.950
 3815TIP3   OH211450   0.632   1.394   0.959
 3815TIP3    H111451   0.554   1.442   0.931
 3815TIP3    H211452   0.704   1.455   0.946
 3816TIP3   OH211453   3.173   1.387   2.285
 3816TIP3    H111454   3.132   1.302   2.265
 3816TIP3    H211455   3.116   1.451   2.243
 3817TIP3   OH211456   4.923   1.852   1.403
 3817TIP3    H111457   4.930   1.924   1.465
 3817TIP3    H211458   4.917   1.894   1.318
 3818TIP3   OH211459   0.756   1.010   1.535
 3818TIP3    H111460   0.666   1.033   1.512
 3818TIP3    H211461   0.749   0.957   1.614
 3819TIP3   OH211462   1.890   4.503   1.805
 3819TIP3    H111463   1.845   4.434   1.756
 3819TIP3    H211464   1.909   4.570   1.739
 3820TIP3   OH211465   5.376   0.419   1.808
 3820TIP3    H111466   5.414   0.365   1.877
 3820TIP3    H211467   5.436   0.493   1.800
 3821TIP3   OH211468   0.829   0.370   2.353
 3821TIP3    H111469   0.920   0.340   2.350
 3821TIP3    H211470   0.798   0.364   2.263
 3822TIP3   OH211471   5.784   5.834   5.157
 3822TIP3    H111472   5.715   5.890   5.121
 3822TIP3    H211473   5.741   5.750   5.173
 3823TIP3   OH211474   3.799   4.930   2.390
 3823TIP3    H111475   3.755   4.898   2.468
 3823TIP3    H211476   3.851   5.005   2.420
 3824TIP3   OH211477   2.282   3.350   1.043
 3824TIP3    H111478   2.220   3.342   0.970
 3824TIP3    H211479   2.286   3.262   1.081
 3825TIP3   OH211480   4.979   3.141   1.415
 3825TIP3    H111481   4.934   3.094   1.345
 3825TIP3    H211482   5.054   3.086   1.436
 3826TIP3   OH211483   4.664   2.827   4.051
 3826TIP3    H111484   4.616   2.903   4.085
 3826TIP3    H211485   4.756   2.850   4.062
 3827TIP3   OH211486   5.796   0.597   0.933
 3827TIP3    H111487   5.839   0.609   0.848
 3827TIP3    H211488   5.709   0.564   0.911
 3828TIP3   OH211489   1.572   1.603   3.694
 3828TIP3    H111490   1.586   1.537   3.761
 3828TIP3    H211491   1.561   1.552   3.613
 3829TIP3   OH211492   3.731   0.084   1.719
 3829TIP3    H111493   3.726   0.006   1.774
 3829TIP3    H211494   3.646   0.126   1.729
 3830TIP3   OH211495   2.764   4.912   0.988
 3830TIP3    H111496   2.780   4.860   0.909
 3830TIP3    H211497   2.850   4.946   1.012
 3831TIP3   OH211498   2.847   4.652   1.481
 3831TIP3    H111499   2.819   4.744   1.485
 3831TIP3    H211500   2.862   4.627   1.572
 3832TIP3   OH211501   4.973   0.595   3.211
 3832TIP3    H111502   4.970   0.603   3.306
 3832TIP3    H211503   4.885   0.568   3.185
 3833TIP3   OH211504   2.345   3.816   2.532
 3833TIP3    H111505   2.396   3.782   2.458
 3833TIP3    H211506   2.254   3.814   2.502
 3834TIP3   OH211507   3.391   4.762   3.923
 3834TIP3    H111508   3.395   4.677   3.967
 3834TIP3    H211509   3.477   4.773   3.884
 3835TIP3   OH211510   2.264   2.311   2.383
 3835TIP3    H111511   2.325   2.282   2.450
 3835TIP3    H211512   2.198   2.242   2.378
 3836TIP3   OH211513   0.680   1.189   0.076
 3836TIP3    H111514   0.764   1.153   0.104
 3836TIP3    H211515   0.703   1.265   0.022
 3837TIP3   OH211516   0.786   0.774   3.504
 3837TIP3    H111517   0.768   0.740   3.416
 3837TIP3    H211518   0.800   0.696   3.558
 3838TIP3   OH211519   3.564   1.922   1.662
 3838TIP3    H111520   3.544   1.992   1.724
 3838TIP3    H211521   3.558   1.841   1.713
 3839TIP3   OH211522   1.629   1.115   2.243
 3839TIP3    H111523   1.654   1.141   2.331
 3839TIP3    H211524   1.711   1.101   2.197
 3840TIP3   OH211525   2.433   0.194   5.054
 3840TIP3    H111526   2.441   0.177   5.148
 3840TIP3    H211527   2.343   0.172   5.033
 3841TIP3   OH211528   6.278   0.792   1.000
 3841TIP3    H111529   6.282   0.778   1.095
 3841TIP3    H211530   6.194   0.836   0.986
 3842TIP3   OH211531   2.873   2.567   2.146
 3842TIP3    H111532   2.784   2.599   2.134
 3842TIP3    H211533   2.867   2.504   2.218
 3843TIP3   OH211534   6.071   4.323   4.576
 3843TIP3    H111535   6.034   4.284   4.498
 3843TIP3    H211536   6.076   4.417   4.556
 3844TIP3   OH211537   5.045   0.500   0.375
 3844TIP3    H111538   4.991   0.542   0.442
 3844TIP3    H211539   5.048   0.564   0.304
 3845TIP3   OH211540   0.797   0.523   1.583
 3845TIP3    H111541   0.890   0.542   1.589
 3845TIP3    H211542   0.785   0.485   1.496
 3846TIP3   OH211543   1.572   4.312   2.835
 3846TIP3    H111544   1.566   4.406   2.817
 3846TIP3    H211545   1.659   4.300   2.872
 3847TIP3   OH211546   0.976   2.174   3.103
 3847TIP3    H111547   1.037   2.166   3.030
 3847TIP3    H211548   0.989   2.094   3.154
 3848TIP3   OH211549   2.839   2.744   3.827
 3848TIP3    H111550   2.870   2.665   3.871
 3848TIP3    H211551   2.746   2.728   3.813
 3849TIP3   OH211552   4.535   0.035   4.451
 3849TIP3    H111553   4.490   0.059   4.370
 3849TIP3    H211554   4.509  -0.055   4.468
 3850TIP3   OH211555   3.551   0.824   4.427
 3850TIP3    H111556   3.559   0.910   4.386
 3850TIP3    H211557   3.515   0.842   4.514
 3851TIP3   OH211558   6.139   0.888   4.178
 3851TIP3    H111559   6.109   0.798   4.168
 3851TIP3    H211560   6.229   0.879   4.211
 3852TIP3   OH211561   1.248   2.580   2.390
 3852TIP3    H111562   1.278   2.504   2.340
 3852TIP3    H211563   1.319   2.644   2.383
 3853TIP3   OH211564   1.224   5.323   4.569
 3853TIP3    H111565   1.298   5.264   4.584
 3853TIP3    H211566   1.147   5.274   4.598
 3854TIP3   OH211567   5.724   4.797   3.106
 3854TIP3    H111568   5.795   4.736   3.126
 3854TIP3    H211569   5.769   4.874   3.070
 3855TIP3   OH211570   2.926   0.023   2.582
 3855TIP3    H111571   2.864   0.086   2.545
 3855TIP3    H211572   2.938   0.053   2.673
 3856TIP3   OH211573   6.009   1.113   0.229
 3856TIP3    H111574   6.037   1.196   0.267
 3856TIP3    H211575   6.089   1.075   0.192
 3857TIP3   OH211576   5.438   0.290   3.141
 3857TIP3    H111577   5.390   0.242   3.074
 3857TIP3    H211578   5.422   0.382   3.123
 3858TIP3   OH211579   4.496   5.165   4.590
 3858TIP3    H111580   4.468   5.082   4.631
 3858TIP3    H211581   4.577   5.143   4.545
 3859TIP3   OH211582   4.541   3.413   0.617
 3859TIP3    H111583   4.484   3.489   0.627
 3859TIP3    H211584   4.592   3.431   0.538
 3860TIP3   OH211585   3.568   1.765   1.153
 3860TIP3    H111586   3.637   1.800   1.098
 3860TIP3    H211587   3.613   1.726   1.228
 3861TIP3   OH211588   1.017   3.164   3.574
 3861TIP3    H111589   1.064   3.231   3.623
 3861TIP3    H211590   1.031   3.188   3.482
 3862TIP3   OH211591   3.323   1.056   2.000
 3862TIP3    H111592   3.269   1.075   1.924
 3862TIP3    H211593   3.303   0.965   2.021
 3863TIP3   OH211594   2.873   2.376   4.840
 3863TIP3    H111595   2.917   2.445   4.891
 3863TIP3    H211596   2.943   2.328   4.797
 3864TIP3   OH211597   2.009   4.846   4.063
 3864TIP3    H111598   2.049   4.775   4.012
 3864TIP3    H211599   1.954   4.893   4.000
 3865TIP3   OH211600   2.628   5.276   2.102
 3865TIP3    H111601   2.540   5.245   2.123
 3865TIP3    H211602   2.666   5.206   2.049
 3866TIP3   OH211603   1.326   0.986   3.890
 3866TIP3    H111604   1.333   1.062   3.948
 3866TIP3    H211605   1.283   0.919   3.944
 3867TIP3   OH211606   1.541   2.904   1.228
 3867TIP3    H111607   1.542   2.813   1.258
 3867TIP3    H211608   1.581   2.901   1.142
 3868TIP3   OH211609   6.069   4.378   4.267
 3868TIP3    H111610   6.067   4.468   4.300
 3868TIP3    H211611   6.154   4.370   4.224
 3869TIP3   OH211612   5.000   4.996   1.750
 3869TIP3    H111613   4.920   4.963   1.791
 3869TIP3    H211614   5.039   5.053   1.816
 3870TIP3   OH211615   2.330   0.049   4.579
 3870TIP3    H111616   2.291   0.136   4.585
 3870TIP3    H211617   2.269  -0.008   4.626
 3871TIP3   OH211618   0.689   2.771   3.789
 3871TIP3    H111619   0.732   2.856   3.797
 3871TIP3    H211620   0.644   2.775   3.705
 3872TIP3   OH211621   3.780   4.592   0.287
 3872TIP3    H111622   3.763   4.588   0.193
 3872TIP3    H211623   3.769   4.685   0.309
 3873TIP3   OH211624   3.936   2.714   4.828
 3873TIP3    H111625   3.993   2.768   4.774
 3873TIP3    H211626   3.995   2.671   4.890
 3874TIP3   OH211627   4.735   4.368   4.246
 3874TIP3    H111628   4.818   4.324   4.232
 3874TIP3    H211629   4.688   4.360   4.163
 3875TIP3   OH211630   1.674   5.153   1.020
 3875TIP3    H111631   1.690   5.191   0.934
 3875TIP3    H211632   1.754   5.104   1.039
 3876TIP3   OH211633   6.148   3.036   1.974
 3876TIP3    H111634   6.086   3.089   1.924
 3876TIP3    H211635   6.096   3.000   2.046
 3877TIP3   OH211636   3.475   4.877   3.429
 3877TIP3    H111637   3.533   4.882   3.353
 3877TIP3    H211638   3.517   4.813   3.487
 3878TIP3   OH211639   2.430   5.328   0.706
 3878TIP3    H111640   2.469   5.378   0.634
 3878TIP3    H211641   2.381   5.393   0.756
 3879TIP3   OH211642   1.421   5.096   1.158
 3879TIP3    H111643   1.367   5.154   1.105
 3879TIP3    H211644   1.501   5.084   1.107
 3880TIP3   OH211645   0.942   2.940   1.335
 3880TIP3    H111646   0.911   2.943   1.244
 3880TIP3    H211647   0.996   2.861   1.340
 3881TIP3   OH211648   6.121   0.835   0.323
 3881TIP3    H111649   6.147   0.869   0.408
 3881TIP3    H211650   6.147   0.903   0.261
 3882TIP3   OH211651   5.821   3.653   3.446
 3882TIP3    H111652   5.872   3.687   3.373
 3882TIP3    H211653   5.784   3.731   3.488
 3883TIP3   OH211654   2.136   2.478   1.513
 3883TIP3    H111655   2.116   2.391   1.478
 3883TIP3    H211656   2.195   2.462   1.587
 3884TIP3   OH211657   1.202   1.911   1.987
 3884TIP3    H111658   1.196   1.914   2.082
 3884TIP3    H211659   1.202   2.002   1.959
 3885TIP3   OH211660   6.269   4.172   1.086
 3885TIP3    H111661   6.189   4.121   1.100
 3885TIP3    H211662   6.340   4.109   1.100
 3886TIP3   OH211663   0.467   1.582   4.906
 3886TIP3    H111664   0.404   1.565   4.836
 3886TIP3    H211665   0.531   1.641   4.867
 3887TIP3   OH211666   6.130   3.680   0.502
 3887TIP3    H111667   6.152   3.666   0.410
 3887TIP3    H211668   6.189   3.622   0.550
 3888TIP3   OH211669   1.366   2.912   4.867
 3888TIP3    H111670   1.437   2.956   4.821
 3888TIP3    H211671   1.306   2.883   4.798
 3889TIP3   OH211672   2.763   3.181   5.080
 3889TIP3    H111673   2.715   3.260   5.104
 3889TIP3    H211674   2.852   3.197   5.109
 3890TIP3   OH211675   0.444   5.598   4.435
 3890TIP3    H111676   0.369   5.656   4.449
 3890TIP3    H211677   0.503   5.615   4.508
 3891TIP3   OH211678   4.033   2.996   2.853
 3891TIP3    H111679   3.941   3.022   2.849
 3891TIP3    H211680   4.050   2.956   2.768
 3892TIP3   OH211681   3.928   3.403   1.187
 3892TIP3    H111682   3.943   3.497   1.181
 3892TIP3    H211683   3.998   3.371   1.245
 3893TIP3   OH211684   6.009   1.781   2.970
 3893TIP3    H111685   6.011   1.690   3.000
 3893TIP3    H211686   5.921   1.812   2.991
 3894TIP3   OH211687   5.250   3.054   4.986
 3894TIP3    H111688   5.305   2.990   5.031
 3894TIP3    H211689   5.249   3.025   4.894
 3895TIP3   OH211690   5.224   2.876   4.222
 3895TIP3    H111691   5.255   2.943   4.161
 3895TIP3    H211692   5.228   2.795   4.172
 3896TIP3   OH211693   1.156   5.333   2.051
 3896TIP3    H111694   1.063   5.345   2.070
 3896TIP3    H211695   1.164   5.242   2.021
 3897TIP3   OH211696   1.674   4.231   4.507
 3897TIP3    H111697   1.753   4.239   4.561
 3897TIP3    H211698   1.705   4.243   4.417
 3898TIP3   OH211699   0.859   2.583   3.925
 3898TIP3    H111700   0.827   2.575   4.015
 3898TIP3    H211701   0.788   2.627   3.878
 3899TIP3   OH211702   2.088   4.242   3.337
 3899TIP3    H111703   2.053   4.279   3.419
 3899TIP3    H211704   2.159   4.185   3.365
 3900TIP3   OH211705   3.926   3.233   4.806
 3900TIP3    H111706   3.867   3.200   4.873
 3900TIP3    H211707   3.888   3.202   4.724
 3901TIP3   OH211708   2.785   2.436   2.404
 3901TIP3    H111709   2.799   2.526   2.435
 3901TIP3    H211710   2.790   2.382   2.483
 3902TIP3   OH211711   0.404   3.697   3.715
 3902TIP3    H111712   0.456   3.622   3.745
 3902TIP3    H211713   0.318   3.660   3.695
 3903TIP3   OH211714   2.568   5.350   2.895
 3903TIP3    H111715   2.636   5.286   2.919
 3903TIP3    H211716   2.579   5.361   2.801
 3904TIP3   OH211717   3.234   3.648   4.963
 3904TIP3    H111718   3.219   3.692   5.047
 3904TIP3    H211719   3.284   3.569   4.987
 3905TIP3   OH211720   2.699   4.249   3.081
 3905TIP3    H111721   2.747   4.177   3.038
 3905TIP3    H211722   2.766   4.301   3.124
 3906TIP3   OH211723   5.425   2.433   2.907
 3906TIP3    H111724   5.357   2.367   2.922
 3906TIP3    H211725   5.391   2.513   2.947
 3907TIP3   OH211726   0.139   4.333   1.320
 3907TIP3    H111727   0.090   4.281   1.385
 3907TIP3    H211728   0.184   4.400   1.372
 3908TIP3   OH211729   6.045   3.147   4.102
 3908TIP3    H111730   6.047   3.053   4.121
 3908TIP3    H211731   6.133   3.165   4.069
 3909TIP3   OH211732   0.588   2.665   3.467
 3909TIP3    H111733   0.617   2.618   3.388
 3909TIP3    H211734   0.495   2.648   3.472
 3910TIP3   OH211735   3.268   3.564   0.054
 3910TIP3    H111736   3.330   3.567  -0.019
 3910TIP3    H211737   3.193   3.617   0.024
 3911TIP3   OH211738   4.496   1.061   2.899
 3911TIP3    H111739   4.557   1.018   2.840
 3911TIP3    H211740   4.518   1.028   2.986
 3912TIP3   OH211741   4.929   3.724   1.892
 3912TIP3    H111742   4.922   3.812   1.929
 3912TIP3    H211743   4.925   3.737   1.797
 3913TIP3   OH211744   2.226   1.969   2.798
 3913TIP3    H111745   2.176   2.046   2.770
 3913TIP3    H211746   2.237   1.918   2.718
 3914TIP3   OH211747   4.164   2.311   3.535
 3914TIP3    H111748   4.258   2.295   3.525
 3914TIP3    H211749   4.141   2.269   3.617
 3915TIP3   OH211750   5.471   3.007   2.652
 3915TIP3    H111751   5.442   2.917   2.669
 3915TIP3    H211752   5.548   3.019   2.708
 3916TIP3   OH211753   5.601   0.619   3.363
 3916TIP3    H111754   5.516   0.576   3.350
 3916TIP3    H211755   5.588   0.708   3.329
 3917TIP3   OH211756   3.870   0.392   3.623
 3917TIP3    H111757   3.919   0.315   3.650
 3917TIP3    H211758   3.937   0.458   3.604
 3918TIP3   OH211759   5.891   3.644   4.547
 3918TIP3    H111760   5.967   3.653   4.604
 3918TIP3    H211761   5.927   3.612   4.464
 3919TIP3   OH211762   1.284   5.621   0.341
 3919TIP3    H111763   1.248   5.617   0.429
 3919TIP3    H211764   1.214   5.587   0.285
 3920TIP3   OH211765   5.740   2.317   0.324
 3920TIP3    H111766   5.664   2.323   0.383
 3920TIP3    H211767   5.814   2.343   0.378
 3921TIP3   OH211768   3.862   1.796   3.628
 3921TIP3    H111769   3.867   1.730   3.697
 3921TIP3    H211770   3.877   1.747   3.547
 3922TIP3   OH211771   5.995   4.018   4.768
 3922TIP3    H111772   6.066   4.054   4.715
 3922TIP3    H211773   5.921   4.010   4.708
 3923TIP3   OH211774   6.347   0.335   5.065
 3923TIP3    H111775   6.276   0.321   5.003
 3923TIP3    H211776   6.400   0.256   5.059
 3924TIP3   OH211777   4.241   3.817   2.438
 3924TIP3    H111778   4.261   3.814   2.531
 3924TIP3    H211779   4.313   3.867   2.399
 3925TIP3   OH211780   4.570   1.968   2.816
 3925TIP3    H111781   4.554   2.008   2.731
 3925TIP3    H211782   4.573   2.041   2.877
 3926TIP3   OH211783   4.678   3.241   5.119
 3926TIP3    H111784   4.693   3.297   5.043
 3926TIP3    H211785   4.763   3.235   5.162
 3927TIP3   OH211786   4.223   1.255   3.025
 3927TIP3    H111787   4.235   1.341   3.065
 3927TIP3    H211788   4.289   1.251   2.956
 3928TIP3   OH211789   5.834   2.772   0.866
 3928TIP3    H111790   5.829   2.864   0.843
 3928TIP3    H211791   5.927   2.750   0.860
 3929TIP3   OH211792   1.943   3.746   1.860
 3929TIP3    H111793   1.915   3.666   1.905
 3929TIP3    H211794   1.882   3.754   1.786
 3930TIP3   OH211795   2.880   3.850   3.244
 3930TIP3    H111796   2.958   3.825   3.195
 3930TIP3    H211797   2.810   3.794   3.209
 3931TIP3   OH211798   4.197   4.648   0.103
 3931TIP3    H111799   4.142   4.593   0.160
 3931TIP3    H211800   4.145   4.726   0.087
 3932TIP3   OH211801   2.167   4.054   0.709
 3932TIP3    H111802   2.176   4.110   0.787
 3932TIP3    H211803   2.074   4.053   0.690
 3933TIP3   OH211804   2.754   5.796   0.873
 3933TIP3    H111805   2.766   5.877   0.823
 3933TIP3    H211806   2.808   5.808   0.951
 3934TIP3   OH211807   3.821   2.643   1.368
 3934TIP3    H111808   3.831   2.548   1.374
 3934TIP3    H211809   3.821   2.673   1.459
 3935TIP3   OH211810   3.619   3.554   2.095
 3935TIP3    H111811   3.628   3.610   2.172
 3935TIP3    H211812   3.660   3.604   2.024
 3936TIP3   OH211813   4.230   5.510   0.477
 3936TIP3    H111814   4.268   5.587   0.521
 3936TIP3    H211815   4.278   5.504   0.395
 3937TIP3   OH211816   3.137   2.296   2.025
 3937TIP3    H111817   3.067   2.358   2.005
 3937TIP3    H211818   3.123   2.223   1.966
 3938TIP3   OH211819   2.433   1.313   3.306
 3938TIP3    H111820   2.428   1.365   3.226
 3938TIP3    H211821   2.345   1.320   3.344
 3939TIP3   OH211822   1.588   4.364   2.180
 3939TIP3    H111823   1.498   4.392   2.193
 3939TIP3    H211824   1.636   4.403   2.253
 3940TIP3   OH211825   4.631   1.703   3.259
 3940TIP3    H111826   4.613   1.640   3.328
 3940TIP3    H211827   4.726   1.716   3.264
 3941TIP3   OH211828   4.946   1.933   1.158
 3941TIP3    H111829   4.885   2.005   1.140
 3941TIP3    H211830   5.026   1.957   1.112
 3942TIP3   OH211831   3.610   4.167   1.532
 3942TIP3    H111832   3.527   4.199   1.567
 3942TIP3    H211833   3.584   4.110   1.459
 3943TIP3   OH211834   2.142   4.679   4.654
 3943TIP3    H111835   2.107   4.708   4.570
 3943TIP3    H211836   2.147   4.584   4.647
 3944TIP3   OH211837   2.919   4.148   2.762
 3944TIP3    H111838   3.014   4.149   2.767
 3944TIP3    H211839   2.897   4.056   2.746
 3945TIP3   OH211840   4.946   0.902   1.980
 3945TIP3    H111841   4.945   0.967   2.051
 3945TIP3    H211842   5.000   0.941   1.912
 3946TIP3   OH211843   3.636   0.928   3.094
 3946TIP3    H111844   3.563   0.985   3.120
 3946TIP3    H211845   3.596   0.842   3.082
 3947TIP3   OH211846   1.742   1.618   5.133
 3947TIP3    H111847   1.782   1.703   5.149
 3947TIP3    H211848   1.816   1.560   5.115
 3948TIP3   OH211849   4.382   0.896   0.089
 3948TIP3    H111850   4.399   0.855   0.004
 3948TIP3    H211851   4.348   0.825   0.144
 3949TIP3   OH211852   5.371   4.956   2.881
 3949TIP3    H111853   5.412   4.905   2.811
 3949TIP3    H211854   5.323   4.892   2.933
 3950TIP3   OH211855   3.459   2.391   2.749
 3950TIP3    H111856   3.496   2.383   2.661
 3950TIP3    H211857   3.494   2.315   2.796
 3951TIP3   OH211858   5.840   4.604   4.179
 3951TIP3    H111859   5.922   4.612   4.228
 3951TIP3    H211860   5.772   4.604   4.247
 3952TIP3   OH211861   4.279   1.247   2.340
 3952TIP3    H111862   4.206   1.292   2.297
 3952TIP3    H211863   4.261   1.154   2.326
 3953TIP3   OH211864   3.929   0.871   1.082
 3953TIP3    H111865   3.980   0.918   1.148
 3953TIP3    H211866   3.983   0.795   1.060
 3954TIP3   OH211867   3.405   3.863   3.816
 3954TIP3    H111868   3.470   3.794   3.804
 3954TIP3    H211869   3.343   3.851   3.743
 3955TIP3   OH211870   2.998   4.689   4.357
 3955TIP3    H111871   3.044   4.771   4.342
 3955TIP3    H211872   2.914   4.699   4.313
 3956TIP3   OH211873   5.530   2.946   3.021
 3956TIP3    H111874   5.585   2.890   3.076
 3956TIP3    H211875   5.572   2.943   2.935
 3957TIP3   OH211876   3.936   0.354   1.098
 3957TIP3    H111877   3.875   0.347   1.172
 3957TIP3    H211878   3.903   0.292   1.034
 3958TIP3   OH211879   3.256   0.599   3.347
 3958TIP3    H111880   3.204   0.600   3.427
 3958TIP3    H211881   3.253   0.509   3.317
 3959TIP3   OH211882   6.412   0.199   1.571
 3959TIP3    H111883   6.404   0.111   1.536
 3959TIP3    H211884   6.334   0.211   1.624
 3960TIP3   OH211885   3.149   0.361   1.956
 3960TIP3    H111886   3.068   0.320   1.926
 3960TIP3    H211887   3.127   0.454   1.966
 3961TIP3   OH211888   5.378   0.166   0.085
 3961TIP3    H111889   5.291   0.140   0.055
 3961TIP3    H211890   5.435   0.094   0.057
 3962TIP3   OH211891   2.624   4.926   3.815
 3962TIP3    H111892   2.693   4.894   3.757
 3962TIP3    H211893   2.663   4.923   3.903
 3963TIP3   OH211894   5.327   0.227   3.836
 3963TIP3    H111895   5.245   0.192   3.871
 3963TIP3    H211896   5.357   0.290   3.901
 3964TIP3   OH211897   5.365   3.308   2.717
 3964TIP3    H111898   5.456   3.324   2.693
 3964TIP3    H211899   5.315   3.329   2.638
 3965TIP3   OH211900   2.422   1.821   5.026
 3965TIP3    H111901   2.446   1.772   4.948
 3965TIP3    H211902   2.437   1.912   5.003
 3966TIP3   OH211903   5.058   3.467   0.996
 3966TIP3    H111904   5.014   3.446   0.913
 3966TIP3    H211905   5.010   3.417   1.062
 3967TIP3   OH211906   0.892   3.016   1.924
 3967TIP3    H111907   0.835   3.061   1.862
 3967TIP3    H211908   0.946   3.086   1.962
 3968TIP3   OH211909   1.634   3.598   1.219
 3968TIP3    H111910   1.641   3.504   1.231
 3968TIP3    H211911   1.666   3.614   1.130
 3969TIP3   OH211912   4.860   0.061   1.868
 3969TIP3    H111913   4.888   0.145   1.831
 3969TIP3    H211914   4.940   0.008   1.870
 3970TIP3   OH211915   6.098   5.332   0.685
 3970TIP3    H111916   6.086   5.259   0.746
 3970TIP3    H211917   6.050   5.404   0.726
 3971TIP3   OH211918   0.115   5.083   4.868
 3971TIP3    H111919   0.127   5.086   4.774
 3971TIP3    H211920   0.102   5.174   4.894
 3972TIP3   OH211921   1.802   1.451   3.455
 3972TIP3    H111922   1.846   1.521   3.406
 3972TIP3    H211923   1.711   1.480   3.462
 3973TIP3   OH211924   2.214   0.002   3.609
 3973TIP3    H111925   2.153  -0.021   3.539
 3973TIP3    H211926   2.215   0.098   3.609
 3974TIP3   OH211927   2.226   3.163   4.437
 3974TIP3    H111928   2.147   3.139   4.486
 3974TIP3    H211929   2.193   3.209   4.359
 3975TIP3   OH211930   5.500   5.811   0.704
 3975TIP3    H111931   5.409   5.826   0.730
 3975TIP3    H211932   5.539   5.899   0.702
 3976TIP3   OH211933   4.071   2.358   2.012
 3976TIP3    H111934   4.068   2.267   2.043
 3976TIP3    H211935   4.035   2.409   2.085
 3977TIP3   OH211936   5.917   0.525   2.195
 3977TIP3    H111937   5.849   0.463   2.168
 3977TIP3    H211938   5.901   0.540   2.288
 3978TIP3   OH211939   0.294   3.267   1.731
 3978TIP3    H111940   0.229   3.324   1.772
 3978TIP3    H211941   0.378   3.306   1.755
 3979TIP3   OH211942   4.628   1.105   1.732
 3979TIP3    H111943   4.538   1.108   1.701
 3979TIP3    H211944   4.678   1.071   1.657
 3980TIP3   OH211945   1.842   4.256   4.289
 3980TIP3    H111946   1.917   4.204   4.316
 3980TIP3    H211947   1.861   4.344   4.322
 3981TIP3   OH211948   5.895   2.456   4.519
 3981TIP3    H111949   5.858   2.494   4.598
 3981TIP3    H211950   5.955   2.523   4.486
 3982TIP3   OH211951   1.273   5.601   3.380
 3982TIP3    H111952   1.258   5.513   3.345
 3982TIP3    H211953   1.214   5.608   3.455
 3983TIP3   OH211954   1.497   5.323   4.933
 3983TIP3    H111955   1.459   5.396   4.884
 3983TIP3    H211956   1.438   5.309   5.007
 3984TIP3   OH211957   1.842   2.215   1.003
 3984TIP3    H111958   1.890   2.266   0.938
 3984TIP3    H211959   1.891   2.227   1.084
 3985TIP3   OH211960   4.074   2.318   0.961
 3985TIP3    H111961   4.142   2.384   0.949
 3985TIP3    H211962   4.031   2.311   0.876
 3986TIP3   OH211963   0.562   5.506   3.260
 3986TIP3    H111964   0.569   5.445   3.332
 3986TIP3    H211965   0.470   5.500   3.232
 3987TIP3   OH211966   6.196   4.948   3.486
 3987TIP3    H111967   6.159   4.862   3.505
 3987TIP3    H211968   6.121   5.007   3.485
 3988TIP3   OH211969   5.729   2.898   4.352
 3988TIP3    H111970   5.813   2.930   4.320
 3988TIP3    H211971   5.746   2.873   4.443
 3989TIP3   OH211972   0.783   4.478   1.069
 3989TIP3    H111973   0.863   4.528   1.052
 3989TIP3    H211974   0.797   4.439   1.156
 3990TIP3   OH211975   2.610   3.287   3.097
 3990TIP3    H111976   2.562   3.225   3.042
 3990TIP3    H211977   2.544   3.349   3.126
 3991TIP3   OH211978   2.210   5.955   3.315
 3991TIP3    H111979   2.261   5.875   3.302
 3991TIP3    H211980   2.213   5.970   3.409
 3992TIP3   OH211981   5.981   1.945   2.271
 3992TIP3    H111982   6.030   1.993   2.337
 3992TIP3    H211983   6.007   1.984   2.188
 3993TIP3   OH211984   0.114   5.368   2.588
 3993TIP3    H111985   0.138   5.365   2.495
 3993TIP3    H211986   0.137   5.458   2.615
 3994TIP3   OH211987   1.067   1.938   3.924
 3994TIP3    H111988   1.126   1.929   3.850
 3994TIP3    H211989   1.110   2.002   3.981
 3995TIP3   OH211990   5.351   5.225   2.801
 3995TIP3    H111991   5.439   5.238   2.764
 3995TIP3    H211992   5.334   5.131   2.790
 3996TIP3   OH211993   1.328   2.483   1.387
 3996TIP3    H111994   1.244   2.517   1.357
 3996TIP3    H211995   1.331   2.393   1.355
 3997TIP3   OH211996   5.933   5.336   1.474
 3997TIP3    H111997   5.869   5.319   1.405
 3997TIP3    H211998   6.016   5.304   1.438
 3998TIP3   OH211999   3.884   0.396   4.605
 3998TIP3    H112000   3.850   0.341   4.533
 3998TIP3    H212001   3.844   0.482   4.590
 3999TIP3   OH212002   6.294   4.119   2.239
 3999TIP3    H112003   6.372   4.164   2.206
 3999TIP3    H212004   6.268   4.061   2.168
 4000TIP3   OH212005   3.824   3.028   4.311
 4000TIP3    H112006   3.784   2.943   4.329
 4000TIP3    H212007   3.899   3.007   4.255
 4001TIP3   OH212008   1.624   0.413   5.126
 4001TIP3    H112009   1.704   0.442   5.083
 4001TIP3    H212010   1.599   0.486   5.183
 4002TIP3   OH212011   1.666   3.458   1.521
 4002TIP3    H112012   1.686   3.417   1.436
 4002TIP3    H212013   1.601   3.525   1.500
 4003TIP3   OH212014   5.750   3.191   4.132
 4003TIP3    H112015   5.841   3.216   4.115
 4003TIP3    H212016   5.700   3.236   4.063
 4004TIP3   OH212017   1.831   3.889   4.259
 4004TIP3    H112018   1.859   3.809   4.214
 4004TIP3    H212019   1.876   3.886   4.343
 4005TIP3   OH212020   5.141   5.728   1.527
 4005TIP3    H112021   5.180   5.650   1.566
 4005TIP3    H212022   5.182   5.735   1.440
 4006TIP3   OH212023   2.376   5.393   4.331
 4006TIP3    H112024   2.418   5.389   4.245
 4006TIP3    H212025   2.379   5.304   4.364
 4007TIP3   OH212026   3.089   1.053   3.803
 4007TIP3    H112027   3.122   1.005   3.879
 4007TIP3    H212028   2.997   1.071   3.824
 4008TIP3   OH212029   4.350   0.458   3.854
 4008TIP3    H112030   4.411   0.454   3.780
 4008TIP3    H212031   4.364   0.545   3.892
 4009TIP3   OH212032   1.286   2.949   5.157
 4009TIP3    H112033   1.226   2.878   5.180
 4009TIP3    H212034   1.258   2.977   5.070
 4010TIP3   OH212035   0.078   2.542   2.800
 4010TIP3    H112036   0.157   2.573   2.755
 4010TIP3    H212037   0.053   2.463   2.751
 4011TIP3   OH212038   2.986   0.601   5.140
 4011TIP3    H112039   2.974   0.578   5.232
 4011TIP3    H212040   3.016   0.692   5.142
 4012TIP3   OH212041   2.016   2.228   0.378
 4012TIP3    H112042   1.996   2.155   0.319
 4012TIP3    H212043   2.059   2.187   0.453
 4013TIP3   OH212044   3.091   0.116   5.232
 4013TIP3    H112045   3.080   0.097   5.138
 4013TIP3    H212046   3.103   0.210   5.236
 4014TIP3   OH212047   5.956   0.608   4.817
 4014TIP3    H112048   6.049   0.607   4.795
 4014TIP3    H212049   5.953   0.609   4.913
 4015TIP3   OH212050   5.312   3.858   4.130
 4015TIP3    H112051   5.363   3.782   4.157
 4015TIP3    H212052   5.342   3.877   4.042
 4016TIP3   OH212053   5.568   2.629   3.875
 4016TIP3    H112054   5.531   2.559   3.928
 4016TIP3    H212055   5.601   2.585   3.797
 4017TIP3   OH212056   4.785   4.523   1.427
 4017TIP3    H112057   4.706   4.553   1.382
 4017TIP3    H212058   4.819   4.601   1.470
 4018TIP3   OH212059   3.811   3.210   3.943
 4018TIP3    H112060   3.777   3.133   3.897
 4018TIP3    H212061   3.831   3.272   3.873
 4019TIP3   OH212062   6.016   3.464   2.991
 4019TIP3    H112063   5.921   3.474   2.990
 4019TIP3    H212064   6.038   3.453   3.083
 4020TIP3   OH212065   0.665   1.582   3.665
 4020TIP3    H112066   0.606   1.529   3.613
 4020TIP3    H212067   0.624   1.587   3.751
 4021TIP3   OH212068   3.139   1.724   3.904
 4021TIP3    H112069   3.125   1.811   3.942
 4021TIP3    H212070   3.233   1.711   3.907
 4022TIP3   OH212071   4.091   1.426   2.797
 4022TIP3    H112072   4.129   1.395   2.880
 4022TIP3    H212073   4.163   1.420   2.735
 4023TIP3   OH212074   4.092   3.523   2.416
 4023TIP3    H112075   4.134   3.451   2.369
 4023TIP3    H212076   4.078   3.590   2.349
 4024TIP3   OH212077   2.686   4.114   0.093
 4024TIP3    H112078   2.703   4.203   0.127
 4024TIP3    H212079   2.689   4.059   0.171
 4025TIP3   OH212080   6.152   4.900   4.195
 4025TIP3    H112081   6.139   4.994   4.181
 4025TIP3    H212082   6.159   4.890   4.289
 4026TIP3   OH212083   4.205   5.748   3.339
 4026TIP3    H112084   4.120   5.767   3.299
 4026TIP3    H212085   4.269   5.772   3.273
 4027TIP3   OH212086   6.034   2.350   2.516
 4027TIP3    H112087   6.030   2.443   2.539
 4027TIP3    H212088   6.092   2.312   2.581
 4028TIP3   OH212089   0.616   2.827   1.227
 4028TIP3    H112090   0.593   2.886   1.300
 4028TIP3    H212091   0.603   2.880   1.149
 4029TIP3   OH212092  -0.002   1.952   3.094
 4029TIP3    H112093  -0.018   1.919   3.182
 4029TIP3    H212094   0.092   1.943   3.081
 4030TIP3   OH212095   6.005   0.066   1.431
 4030TIP3    H112096   5.970   0.155   1.439
 4030TIP3    H212097   6.067   0.071   1.359
 4031TIP3   OH212098   1.230   4.071   2.676
 4031TIP3    H112099   1.247   3.989   2.629
 4031TIP3    H212100   1.299   4.077   2.741
 4032TIP3   OH212101   2.172   4.249   1.831
 4032TIP3    H112102   2.136   4.180   1.886
 4032TIP3    H212103   2.139   4.330   1.869
 4033TIP3   OH212104   0.071   5.795   0.410
 4033TIP3    H112105   0.156   5.840   0.414
 4033TIP3    H212106   0.011   5.853   0.456
 4034TIP3   OH212107   3.773   1.231   2.563
 4034TIP3    H112108   3.789   1.325   2.567
 4034TIP3    H212109   3.788   1.201   2.653
 4035TIP3   OH212110   1.712   5.981   2.329
 4035TIP3    H112111   1.727   5.995   2.423
 4035TIP3    H212112   1.799   5.970   2.292
 4036TIP3   OH212113   4.233   5.297   2.299
 4036TIP3    H112114   4.159   5.342   2.259
 4036TIP3    H212115   4.271   5.245   2.228
 4037TIP3   OH212116   3.234   2.342   3.577
 4037TIP3    H112117   3.197   2.320   3.492
 4037TIP3    H212118   3.312   2.393   3.558
 4038TIP3   OH212119   1.076   3.016   2.385
 4038TIP3    H112120   1.007   3.068   2.344
 4038TIP3    H212121   1.103   3.067   2.462
 4039TIP3   OH212122   5.745   0.340   0.255
 4039TIP3    H112123   5.690   0.262   0.263
 4039TIP3    H212124   5.822   0.320   0.308
 4040TIP3   OH212125   4.706   0.134   3.378
 4040TIP3    H112126   4.747   0.052   3.351
 4040TIP3    H212127   4.767   0.172   3.440
 4041TIP3   OH212128   4.878   0.545   4.758
 4041TIP3    H112129   4.803   0.556   4.816
 4041TIP3    H212130   4.954   0.546   4.816
 4042TIP3   OH212131   1.675   5.589   0.206
 4042TIP3    H112132   1.688   5.571   0.299
 4042TIP3    H212133   1.636   5.509   0.171
 4043TIP3   OH212134   2.506   1.073   4.831
 4043TIP3    H112135   2.592   1.046   4.864
 4043TIP3    H212136   2.459   0.992   4.815
 4044TIP3   OH212137   3.774   2.243   1.750
 4044TIP3    H112138   3.750   2.183   1.679
 4044TIP3    H212139   3.800   2.185   1.822
 4045TIP3   OH212140   2.789   2.985   4.872
 4045TIP3    H112141   2.767   3.062   4.924
 4045TIP3    H212142   2.859   2.942   4.921
 4046TIP3   OH212143   3.751   1.867   2.650
 4046TIP3    H112144   3.790   1.802   2.708
 4046TIP3    H212145   3.729   1.819   2.571
 4047TIP3   OH212146   4.807   5.571   2.354
 4047TIP3    H112147   4.789   5.487   2.312
 4047TIP3    H212148   4.826   5.548   2.445
 4048TIP3   OH212149   5.963   4.136   2.918
 4048TIP3    H112150   5.887   4.089   2.883
 4048TIP3    H212151   6.037   4.104   2.867
 4049TIP3   OH212152   2.665   4.384   4.992
 4049TIP3    H112153   2.669   4.444   4.917
 4049TIP3    H212154   2.599   4.319   4.967
 4050TIP3   OH212155   6.030   4.632   4.768
 4050TIP3    H112156   6.077   4.570   4.824
 4050TIP3    H212157   6.070   4.717   4.787
 4051TIP3   OH212158   1.486   2.810   2.929
 4051TIP3    H112159   1.480   2.861   2.848
 4051TIP3    H212160   1.397   2.807   2.963
 4052TIP3   OH212161   1.653   2.212   4.650
 4052TIP3    H112162   1.646   2.277   4.720
 4052TIP3    H212163   1.570   2.163   4.655
 4053TIP3   OH212164   3.225   1.336   4.009
 4053TIP3    H112165   3.146   1.382   3.981
 4053TIP3    H212166   3.194   1.255   4.048
 4054TIP3   OH212167   1.520   3.058   4.163
 4054TIP3    H112168   1.523   3.038   4.070
 4054TIP3    H212169   1.530   2.974   4.207
 4055TIP3   OH212170   5.120   1.266   1.713
 4055TIP3    H112171   5.187   1.316   1.759
 4055TIP3    H212172   5.154   1.256   1.624
 4056TIP3   OH212173   6.193   4.972   4.668
 4056TIP3    H112174   6.129   4.958   4.737
 4056TIP3    H212175   6.182   5.064   4.642
 4057TIP3   OH212176   6.312   4.444   1.112
 4057TIP3    H112177   6.388   4.435   1.170
 4057TIP3    H212178   6.280   4.355   1.100
 4058TIP3   OH212179   1.793   5.706   2.547
 4058TIP3    H112180   1.744   5.774   2.593
 4058TIP3    H212181   1.735   5.680   2.474
 4059TIP3   OH212182   2.722   4.573   0.570
 4059TIP3    H112183   2.643   4.605   0.525
 4059TIP3    H212184   2.762   4.652   0.607
 4060TIP3   OH212185   3.521   1.550   3.312
 4060TIP3    H112186   3.572   1.632   3.310
 4060TIP3    H212187   3.580   1.484   3.277
 4061TIP3   OH212188   5.817   1.341   3.506
 4061TIP3    H112189   5.724   1.341   3.526
 4061TIP3    H212190   5.846   1.252   3.528
 4062TIP3   OH212191   0.156   2.779   4.060
 4062TIP3    H112192   0.230   2.837   4.040
 4062TIP3    H212193   0.183   2.694   4.025
 4063TIP3   OH212194   0.542   0.967   2.381
 4063TIP3    H112195   0.571   0.916   2.306
 4063TIP3    H212196   0.588   0.929   2.456
 4064TIP3   OH212197   0.853   3.511   3.637
 4064TIP3    H112198   0.796   3.588   3.627
 4064TIP3    H212199   0.927   3.528   3.579
 4065TIP3   OH212200   5.685   1.598   2.147
 4065TIP3    H112201   5.778   1.579   2.164
 4065TIP3    H212202   5.639   1.519   2.176
 4066TIP3   OH212203   1.755   2.048   3.903
 4066TIP3    H112204   1.767   1.968   3.853
 4066TIP3    H212205   1.839   2.093   3.897
 4067TIP3   OH212206   1.913   4.875   1.902
 4067TIP3    H112207   1.830   4.839   1.933
 4067TIP3    H212208   1.964   4.888   1.982
 4068TIP3   OH212209   4.517   3.044   3.124
 4068TIP3    H112210   4.471   3.007   3.200
 4068TIP3    H212211   4.448   3.084   3.072
 4069TIP3   OH212212   5.673   2.665   0.262
 4069TIP3    H112213   5.615   2.720   0.208
 4069TIP3    H212214   5.703   2.596   0.203
 4070TIP3   OH212215   1.489   0.972   1.099
 4070TIP3    H112216   1.584   0.972   1.088
 4070TIP3    H212217   1.462   0.885   1.070
 4071TIP3   OH212218   6.000   2.314   1.909
 4071TIP3    H112219   5.965   2.339   1.994
 4071TIP3    H212220   5.924   2.315   1.851
 4072TIP3   OH212221   5.640   1.896   5.113
 4072TIP3    H112222   5.622   1.809   5.148
 4072TIP3    H212223   5.728   1.917   5.143
 4073TIP3   OH212224   0.352   2.444   3.164
 4073TIP3    H112225   0.407   2.505   3.115
 4073TIP3    H212226   0.407   2.416   3.237
 4074TIP3   OH212227   4.450   4.863   1.758
 4074TIP3    H112228   4.444   4.846   1.664
 4074TIP3    H212229   4.436   4.957   1.766
 4075TIP3   OH212230   3.284   4.206   2.518
 4075TIP3    H112231   3.369   4.238   2.550
 4075TIP3    H212232   3.306   4.132   2.461
 4076TIP3   OH212233   0.747   4.187   4.871
 4076TIP3    H112234   0.744   4.111   4.928
 4076TIP3    H212235   0.677   4.244   4.903
 4077TIP3   OH212236   3.890   2.098   4.479
 4077TIP3    H112237   3.958   2.051   4.528
 4077TIP3    H212238   3.881   2.048   4.397
 4078TIP3   OH212239   3.178   0.981   0.976
 4078TIP3    H112240   3.232   1.032   0.915
 4078TIP3    H212241   3.094   1.026   0.977
 4079TIP3   OH212242   5.639   5.704   1.034
 4079TIP3    H112243   5.559   5.754   1.051
 4079TIP3    H212244   5.636   5.683   0.941
 4080TIP3   OH212245   1.582   1.174   2.724
 4080TIP3    H112246   1.633   1.211   2.652
 4080TIP3    H212247   1.521   1.114   2.681
 4081TIP3   OH212248   4.268   4.727   2.593
 4081TIP3    H112249   4.242   4.758   2.680
 4081TIP3    H212250   4.190   4.683   2.559
 4082TIP3   OH212251   1.257   0.269   1.514
 4082TIP3    H112252   1.347   0.246   1.489
 4082TIP3    H212253   1.266   0.347   1.569
 4083TIP3   OH212254   4.147   3.343   1.341
 4083TIP3    H112255   4.219   3.300   1.387
 4083TIP3    H212256   4.075   3.341   1.403
 4084TIP3   OH212257   1.078   4.430   5.112
 4084TIP3    H112258   1.095   4.475   5.195
 4084TIP3    H212259   1.160   4.437   5.063
 4085TIP3   OH212260   3.724   1.732   3.296
 4085TIP3    H112261   3.682   1.782   3.225
 4085TIP3    H212262   3.799   1.690   3.254
 4086TIP3   OH212263   2.260   1.898   4.580
 4086TIP3    H112264   2.344   1.932   4.612
 4086TIP3    H212265   2.205   1.893   4.658
 4087TIP3   OH212266   2.104   3.751   1.018
 4087TIP3    H112267   2.182   3.696   1.026
 4087TIP3    H212268   2.079   3.771   1.108
 4088TIP3   OH212269   3.018   4.198   1.220
 4088TIP3    H112270   2.932   4.159   1.203
 4088TIP3    H212271   3.010   4.237   1.307
 4089TIP3   OH212272   6.041   1.760   3.801
 4089TIP3    H112273   6.123   1.714   3.820
 4089TIP3    H212274   5.977   1.721   3.861
 4090TIP3   OH212275   5.510   4.770   1.398
 4090TIP3    H112276   5.490   4.679   1.421
 4090TIP3    H212277   5.589   4.790   1.448
 4091TIP3   OH212278   0.737   5.053   5.236
 4091TIP3    H112279   0.679   5.024   5.166
 4091TIP3    H212280   0.814   4.997   5.227
 4092TIP3   OH212281   6.196   1.709   4.609
 4092TIP3    H112282   6.137   1.640   4.579
 4092TIP3    H212283   6.137   1.778   4.641
 4093TIP3   OH212284   3.389   5.278   0.454
 4093TIP3    H112285   3.330   5.265   0.380
 4093TIP3    H212286   3.444   5.352   0.429
 4094TIP3   OH212287   0.686   5.839   2.408
 4094TIP3    H112288   0.713   5.909   2.467
 4094TIP3    H212289   0.590   5.839   2.413
 4095TIP3   OH212290   4.178   2.566   3.909
 4095TIP3    H112291   4.111   2.594   3.846
 4095TIP3    H212292   4.203   2.478   3.879
 4096TIP3   OH212293   3.369   2.514   1.744
 4096TIP3    H112294   3.401   2.454   1.677
 4096TIP3    H212295   3.275   2.522   1.726
 4097TIP3   OH212296   0.785   4.399   3.188
 4097TIP3    H112297   0.740   4.464   3.134
 4097TIP3    H212298   0.820   4.449   3.261
 4098TIP3   OH212299   4.133   3.364   4.404
 4098TIP3    H112300   4.102   3.338   4.318
 4098TIP3    H212301   4.185   3.443   4.388
 4099TIP3   OH212302   3.171   0.998   1.279
 4099TIP3    H112303   3.094   1.036   1.320
 4099TIP3    H212304   3.165   1.024   1.187
 4100TIP3   OH212305   2.460   1.113   3.061
 4100TIP3    H112306   2.533   1.170   3.037
 4100TIP3    H212307   2.388   1.173   3.081
 4101TIP3   OH212308   1.749   4.996   4.982
 4101TIP3    H112309   1.816   4.936   5.014
 4101TIP3    H212310   1.797   5.071   4.947
 4102TIP3   OH212311   0.780   1.611   1.531
 4102TIP3    H112312   0.739   1.687   1.490
 4102TIP3    H212313   0.712   1.543   1.529
 4103TIP3   OH212314   4.133   2.472   2.758
 4103TIP3    H112315   4.204   2.520   2.800
 4103TIP3    H212316   4.070   2.456   2.828
 4104TIP3   OH212317   6.141   0.482   3.919
 4104TIP3    H112318   6.216   0.530   3.882
 4104TIP3    H212319   6.161   0.390   3.903
 4105TIP3   OH212320   1.864   3.006   3.581
 4105TIP3    H112321   1.799   3.076   3.592
 4105TIP3    H212322   1.930   3.025   3.648
 4106TIP3   OH212323   3.289   1.987   5.172
 4106TIP3    H112324   3.264   2.064   5.120
 4106TIP3    H212325   3.207   1.954   5.208
 4107TIP3   OH212326   2.467   1.238   2.706
 4107TIP3    H112327   2.466   1.143   2.700
 4107TIP3    H212328   2.374   1.264   2.703
 4108TIP3   OH212329   4.507   2.454   3.498
 4108TIP3    H112330   4.446   2.477   3.428
 4108TIP3    H212331   4.483   2.512   3.571
 4109TIP3   OH212332   0.382   5.342   0.215
 4109TIP3    H112333   0.345   5.379   0.295
 4109TIP3    H212334   0.477   5.349   0.227
 4110TIP3   OH212335   3.117   0.421   4.543
 4110TIP3    H112336   3.075   0.464   4.617
 4110TIP3    H212337   3.203   0.463   4.537
 4111TIP3   OH212338   4.469   5.634   3.750
 4111TIP3    H112339   4.436   5.637   3.660
 4111TIP3    H212340   4.404   5.682   3.801
 4112TIP3   OH212341   5.376   4.685   4.867
 4112TIP3    H112342   5.452   4.728   4.828
 4112TIP3    H212343   5.372   4.599   4.824
 4113TIP3   OH212344   1.266   4.958   1.331
 4113TIP3    H112345   1.299   4.944   1.419
 4113TIP3    H212346   1.339   4.995   1.283
 4114TIP3   OH212347   0.859   3.109   2.641
 4114TIP3    H112348   0.823   3.052   2.573
 4114TIP3    H212349   0.867   3.194   2.598
 4115TIP3   OH212350   5.207   3.191   0.455
 4115TIP3    H112351   5.114   3.208   0.465
 4115TIP3    H212352   5.249   3.274   0.479
 4116TIP3   OH212353   4.993   1.113   0.250
 4116TIP3    H112354   4.975   1.140   0.340
 4116TIP3    H212355   5.012   1.195   0.204
 4117TIP3   OH212356   6.131   3.962   3.395
 4117TIP3    H112357   6.118   4.004   3.480
 4117TIP3    H212358   6.221   3.984   3.372
 4118TIP3   OH212359   5.608   3.713   3.247
 4118TIP3    H112360   5.609   3.795   3.296
 4118TIP3    H212361   5.545   3.728   3.176
 4119TIP3   OH212362   0.909   5.094   4.411
 4119TIP3    H112363   0.968   5.061   4.343
 4119TIP3    H212364   0.866   5.170   4.370
 4120TIP3   OH212365   1.818   4.998   3.904
 4120TIP3    H112366   1.767   5.029   3.979
 4120TIP3    H212367   1.855   5.078   3.866
 4121TIP3   OH212368   1.903   1.344   0.488
 4121TIP3    H112369   1.855   1.261   0.482
 4121TIP3    H212370   1.904   1.378   0.398
 4122TIP3   OH212371   5.606   0.129   2.335
 4122TIP3    H112372   5.511   0.113   2.336
 4122TIP3    H212373   5.641   0.069   2.401
 4123TIP3   OH212374   1.000   3.770   4.912
 4123TIP3    H112375   1.095   3.775   4.907
 4123TIP3    H212376   0.969   3.854   4.878
 4124TIP3   OH212377   5.295   0.713   2.578
 4124TIP3    H112378   5.281   0.662   2.658
 4124TIP3    H212379   5.214   0.763   2.567
 4125TIP3   OH212380   2.886   5.859   5.023
 4125TIP3    H112381   2.808   5.862   5.079
 4125TIP3    H212382   2.861   5.803   4.950
 4126TIP3   OH212383   5.825   1.142   4.981
 4126TIP3    H112384   5.774   1.175   5.055
 4126TIP3    H212385   5.801   1.200   4.909
 4127TIP3   OH212386   0.588   2.069   5.107
 4127TIP3    H112387   0.513   2.128   5.109
 4127TIP3    H212388   0.652   2.110   5.165
 4128TIP3   OH212389   2.809   1.594   2.709
 4128TIP3    H112390   2.888   1.648   2.700
 4128TIP3    H212391   2.739   1.657   2.722
 4129TIP3   OH212392   0.803   1.582   2.072
 4129TIP3    H112393   0.847   1.639   2.009
 4129TIP3    H212394   0.869   1.566   2.140
 4130TIP3   OH212395   3.184   2.078   4.213
 4130TIP3    H112396   3.098   2.096   4.252
 4130TIP3    H212397   3.241   2.147   4.247
 4131TIP3   OH212398   4.568   0.974   3.694
 4131TIP3    H112399   4.555   1.014   3.608
 4131TIP3    H212400   4.659   0.992   3.716
 4132TIP3   OH212401   3.725   2.809   4.070
 4132TIP3    H112402   3.781   2.779   4.142
 4132TIP3    H212403   3.645   2.757   4.079
 4133TIP3   OH212404   1.304   3.722   3.619
 4133TIP3    H112405   1.317   3.718   3.714
 4133TIP3    H212406   1.302   3.815   3.599
 4134TIP3   OH212407   5.059   5.684   4.737
 4134TIP3    H112408   5.119   5.656   4.668
 4134TIP3    H212409   5.078   5.625   4.810
 4135TIP3   OH212410   3.894   5.587   4.434
 4135TIP3    H112411   3.887   5.610   4.526
 4135TIP3    H212412   3.902   5.671   4.389
 4136TIP3   OH212413   1.766   4.043   2.563
 4136TIP3    H112414   1.740   3.951   2.569
 4136TIP3    H212415   1.704   4.080   2.501
 4137TIP3   OH212416   1.475   2.558   1.106
 4137TIP3    H112417   1.502   2.473   1.071
 4137TIP3    H212418   1.528   2.569   1.185
 4138TIP3   OH212419   2.911   0.761   2.536
 4138TIP3    H112420   2.908   0.840   2.482
 4138TIP3    H212421   2.821   0.749   2.566
 4139TIP3   OH212422   4.503   3.291   2.553
 4139TIP3    H112423   4.445   3.215   2.543
 4139TIP3    H212424   4.448   3.366   2.531
 4140TIP3   OH212425   5.368   4.519   4.625
 4140TIP3    H112426   5.450   4.482   4.657
 4140TIP3    H212427   5.329   4.450   4.572
 4141TIP3   OH212428   1.550   4.260   4.747
 4141TIP3    H112429   1.588   4.218   4.670
 4141TIP3    H212430   1.459   4.279   4.721
 4142TIP3   OH212431   3.547   2.886   3.621
 4142TIP3    H112432   3.536   2.802   3.577
 4142TIP3    H212433   3.462   2.929   3.612
 4143TIP3   OH212434   4.863   5.562   1.467
 4143TIP3    H112435   4.846   5.645   1.509
 4143TIP3    H212436   4.823   5.496   1.524
 4144TIP3   OH212437   3.552   2.414   4.251
 4144TIP3    H112438   3.614   2.369   4.309
 4144TIP3    H212439   3.600   2.427   4.170
 4145TIP3   OH212440   5.929   4.553   2.865
 4145TIP3    H112441   5.843   4.593   2.877
 4145TIP3    H212442   5.989   4.627   2.856
 4146TIP3   OH212443   2.587   1.361   3.049
 4146TIP3    H112444   2.548   1.409   2.976
 4146TIP3    H212445   2.681   1.357   3.028
 4147TIP3   OH212446   3.004   3.282   0.202
 4147TIP3    H112447   2.951   3.348   0.157
 4147TIP3    H212448   2.960   3.267   0.285
 4148TIP3   OH212449   6.054   5.613   2.212
 4148TIP3    H112450   6.140   5.606   2.172
 4148TIP3    H212451   6.072   5.637   2.303
 4149TIP3   OH212452   0.646   5.415   2.206
 4149TIP3    H112453   0.628   5.472   2.281
 4149TIP3    H212454   0.560   5.385   2.177
 4150TIP3   OH212455   2.625   4.350   1.039
 4150TIP3    H112456   2.648   4.408   1.112
 4150TIP3    H212457   2.692   4.368   0.973
 4151TIP3   OH212458   1.928   4.766   4.984
 4151TIP3    H112459   1.973   4.711   5.048
 4151TIP3    H212460   1.839   4.729   4.979
 4152TIP3   OH212461   0.893   2.676   0.697
 4152TIP3    H112462   0.845   2.720   0.767
 4152TIP3    H212463   0.985   2.694   0.716
 4153TIP3   OH212464   4.581   3.452   3.540
 4153TIP3    H112465   4.560   3.496   3.457
 4153TIP3    H212466   4.576   3.359   3.519
 4154TIP3   OH212467   0.087   4.174   4.134
 4154TIP3    H112468   0.071   4.212   4.047
 4154TIP3    H212469   0.173   4.209   4.159
 4155TIP3   OH212470   1.801   0.510   2.137
 4155TIP3    H112471   1.755   0.586   2.102
 4155TIP3    H212472   1.731   0.449   2.160
 4156TIP3   OH212473   1.425   0.102   0.349
 4156TIP3    H112474   1.382   0.145   0.275
 4156TIP3    H212475   1.516   0.092   0.321
 4157TIP3   OH212476   0.533   4.800   2.358
 4157TIP3    H112477   0.532   4.755   2.274
 4157TIP3    H212478   0.515   4.892   2.337
 4158TIP3   OH212479   1.622   5.021   0.038
 4158TIP3    H112480   1.537   5.060   0.059
 4158TIP3    H212481   1.686   5.087   0.068
 4159TIP3   OH212482   1.596   5.918   4.760
 4159TIP3    H112483   1.591   6.011   4.735
 4159TIP3    H212484   1.524   5.877   4.713
 4160TIP3   OH212485   5.803   3.544   4.064
 4160TIP3    H112486   5.885   3.511   4.027
 4160TIP3    H212487   5.735   3.510   4.006
 4161TIP3   OH212488   2.425   4.292   1.758
 4161TIP3    H112489   2.402   4.358   1.693
 4161TIP3    H212490   2.342   4.270   1.800
 4162TIP3   OH212491   3.717   3.982   5.197
 4162TIP3    H112492   3.784   3.924   5.161
 4162TIP3    H212493   3.656   3.995   5.125
 4163TIP3   OH212494   4.434   0.846   1.535
 4163TIP3    H112495   4.419   0.910   1.466
 4163TIP3    H212496   4.366   0.779   1.521
 4164TIP3   OH212497   4.072   0.564   3.040
 4164TIP3    H112498   4.115   0.616   2.972
 4164TIP3    H212499   3.984   0.601   3.046
 4165TIP3   OH212500   2.922   3.333   4.298
 4165TIP3    H112501   3.013   3.329   4.269
 4165TIP3    H212502   2.871   3.301   4.223
 4166TIP3   OH212503   5.281   2.393   1.052
 4166TIP3    H112504   5.199   2.353   1.080
 4166TIP3    H212505   5.329   2.408   1.133
 4167TIP3   OH212506   5.531   5.970   1.976
 4167TIP3    H112507   5.556   6.007   1.892
 4167TIP3    H212508   5.479   5.893   1.953
 4168TIP3   OH212509   0.309   5.081   0.073
 4168TIP3    H112510   0.394   5.113   0.042
 4168TIP3    H212511   0.268   5.159   0.112
 4169TIP3   OH212512   5.518   4.695   3.251
 4169TIP3    H112513   5.571   4.745   3.188
 4169TIP3    H212514   5.547   4.604   3.239
 4170TIP3   OH212515   0.826   4.057   4.018
 4170TIP3    H112516   0.754   4.098   3.969
 4170TIP3    H212517   0.889   4.030   3.951
 4171TIP3   OH212518   3.967   5.285   1.305
 4171TIP3    H112519   3.932   5.280   1.394
 4171TIP3    H212520   3.896   5.255   1.249
 4172TIP3   OH212521   3.830   4.192   2.000
 4172TIP3    H112522   3.790   4.275   1.975
 4172TIP3    H212523   3.768   4.126   1.971
 4173TIP3   OH212524   4.754   2.247   1.446
 4173TIP3    H112525   4.691   2.176   1.437
 4173TIP3    H212526   4.741   2.300   1.367
 4174TIP3   OH212527   0.875   0.209   3.966
 4174TIP3    H112528   0.834   0.272   4.026
 4174TIP3    H212529   0.845   0.236   3.879
 4175TIP3   OH212530   3.140   4.015   0.968
 4175TIP3    H112531   3.157   3.978   1.055
 4175TIP3    H212532   3.112   3.940   0.915
 4176TIP3   OH212533   2.991   2.889   3.302
 4176TIP3    H112534   2.932   2.881   3.377
 4176TIP3    H212535   2.990   2.983   3.282
 4177TIP3   OH212536   3.570   3.654   3.769
 4177TIP3    H112537   3.510   3.579   3.770
 4177TIP3    H212538   3.621   3.646   3.850
 4178TIP3   OH212539   5.224   3.016   1.460
 4178TIP3    H112540   5.255   2.926   1.467
 4178TIP3    H212541   5.270   3.063   1.530
 4179TIP3   OH212542   3.359   4.285   2.955
 4179TIP3    H112543   3.372   4.211   3.015
 4179TIP3    H212544   3.438   4.339   2.965
 4180TIP3   OH212545   0.092   2.850   4.454
 4180TIP3    H112546   0.133   2.875   4.537
 4180TIP3    H212547   0.123   2.762   4.436
 4181TIP3   OH212548   3.515   3.659   3.123
 4181TIP3    H112549   3.555   3.573   3.108
 4181TIP3    H212550   3.589   3.718   3.135
 4182TIP3   OH212551   4.676   4.782   2.027
 4182TIP3    H112552   4.654   4.867   2.064
 4182TIP3    H212553   4.597   4.729   2.040
 4183TIP3   OH212554   0.585   0.935   4.456
 4183TIP3    H112555   0.575   0.893   4.542
 4183TIP3    H212556   0.674   0.914   4.429
 4184TIP3   OH212557   1.147   4.414   1.835
 4184TIP3    H112558   1.207   4.413   1.910
 4184TIP3    H212559   1.066   4.375   1.869
 4185TIP3   OH212560   5.665   2.027   2.742
 4185TIP3    H112561   5.700   1.938   2.743
 4185TIP3    H212562   5.731   2.079   2.789
 4186TIP3   OH212563   3.030   2.550   3.454
 4186TIP3    H112564   2.954   2.492   3.456
 4186TIP3    H212565   3.033   2.591   3.540
 4187TIP3   OH212566   4.731   0.521   3.745
 4187TIP3    H112567   4.687   0.472   3.676
 4187TIP3    H212568   4.749   0.457   3.813
 4188TIP3   OH212569   4.585   1.042   2.009
 4188TIP3    H112570   4.490   1.030   2.009
 4188TIP3    H212571   4.606   1.065   1.919
 4189TIP3   OH212572   2.817   4.484   0.852
 4189TIP3    H112573   2.883   4.457   0.915
 4189TIP3    H212574   2.827   4.424   0.779
 4190TIP3   OH212575   3.740   3.874   3.226
 4190TIP3    H112576   3.832   3.849   3.235
 4190TIP3    H212577   3.742   3.950   3.168
 4191TIP3   OH212578   5.709   0.924   1.130
 4191TIP3    H112579   5.751   0.991   1.184
 4191TIP3    H212580   5.624   0.962   1.106
 4192TIP3   OH212581   2.240   4.709   2.199
 4192TIP3    H112582   2.232   4.693   2.105
 4192TIP3    H212583   2.315   4.655   2.226
 4193TIP3   OH212584   3.721   4.884   1.221
 4193TIP3    H112585   3.769   4.804   1.240
 4193TIP3    H212586   3.737   4.902   1.129
 4194TIP3   OH212587   0.875   5.762   3.905
 4194TIP3    H112588   0.916   5.824   3.845
 4194TIP3    H212589   0.880   5.805   3.990
 4195TIP3   OH212590   0.106   2.432   3.050
 4195TIP3    H112591   0.109   2.487   2.972
 4195TIP3    H212592   0.198   2.423   3.076
 4196TIP3   OH212593   4.743   4.907   5.121
 4196TIP3    H112594   4.820   4.874   5.168
 4196TIP3    H212595   4.669   4.882   5.176
 4197TIP3   OH212596   5.251   4.312   3.523
 4197TIP3    H112597   5.237   4.308   3.617
 4197TIP3    H212598   5.316   4.381   3.511
 4198TIP3   OH212599   4.753   3.394   2.361
 4198TIP3    H112600   4.803   3.316   2.339
 4198TIP3    H212601   4.804   3.467   2.326
 4199TIP3   OH212602   0.282   4.816   0.725
 4199TIP3    H112603   0.345   4.880   0.758
 4199TIP3    H212604   0.332   4.735   0.715
 4200TIP3   OH212605   2.490   5.133   5.090
 4200TIP3    H112606   2.444   5.076   5.152
 4200TIP3    H212607   2.485   5.221   5.130
 4201TIP3   OH212608   1.568   5.546   1.299
 4201TIP3    H112609   1.596   5.571   1.386
 4201TIP3    H212610   1.477   5.519   1.310
 4202TIP3   OH212611   3.942   3.819   5.149
 4202TIP3    H112612   3.918   3.799   5.239
 4202TIP3    H212613   4.034   3.846   5.154
 4203TIP3   OH212614   4.313   5.160   2.038
 4203TIP3    H112615   4.365   5.153   1.959
 4203TIP3    H212616   4.225   5.134   2.012
 4204TIP3   OH212617   3.471   5.926   3.388
 4204TIP3    H112618   3.391   5.979   3.381
 4204TIP3    H212619   3.449   5.843   3.346
 4205TIP3   OH212620   2.395   1.605   4.086
 4205TIP3    H112621   2.337   1.654   4.145
 4205TIP3    H212622   2.337   1.543   4.041
 4206TIP3   OH212623   1.372   0.610   5.038
 4206TIP3    H112624   1.425   0.667   5.094
 4206TIP3    H212625   1.395   0.635   4.949
 4207TIP3   OH212626   1.242   2.725   2.723
 4207TIP3    H112627   1.227   2.632   2.739
 4207TIP3    H212628   1.164   2.755   2.676
 4208TIP3   OH212629   6.168   4.672   3.223
 4208TIP3    H112630   6.149   4.676   3.317
 4208TIP3    H212631   6.254   4.712   3.214
 4209TIP3   OH212632   2.004   2.251   0.765
 4209TIP3    H112633   2.055   2.326   0.735
 4209TIP3    H212634   2.044   2.176   0.721
 4210TIP3   OH212635   4.705   0.706   1.525
 4210TIP3    H112636   4.618   0.747   1.530
 4210TIP3    H212637   4.723   0.700   1.431
 4211TIP3   OH212638   3.848   4.621   3.604
 4211TIP3    H112639   3.920   4.587   3.551
 4211TIP3    H212640   3.868   4.591   3.693
 4212TIP3   OH212641   4.621   5.378   3.634
 4212TIP3    H112642   4.532   5.411   3.638
 4212TIP3    H212643   4.677   5.455   3.642
 4213TIP3   OH212644   0.806   4.687   2.052
 4213TIP3    H112645   0.855   4.756   2.096
 4213TIP3    H212646   0.778   4.629   2.122
 4214TIP3   OH212647   2.560   4.047   3.212
 4214TIP3    H112648   2.617   3.989   3.161
 4214TIP3    H212649   2.576   4.134   3.177
 4215TIP3   OH212650   3.865   0.324   2.546
 4215TIP3    H112651   3.815   0.402   2.521
 4215TIP3    H212652   3.798   0.260   2.572
 4216TIP3   OH212653   5.668   1.424   0.186
 4216TIP3    H112654   5.582   1.382   0.196
 4216TIP3    H212655   5.728   1.368   0.234
 4217TIP3   OH212656   3.279   5.379   3.846
 4217TIP3    H112657   3.223   5.301   3.841
 4217TIP3    H212658   3.361   5.347   3.885
 4218TIP3   OH212659   3.109   2.981   1.920
 4218TIP3    H112660   3.200   2.988   1.949
 4218TIP3    H212661   3.103   2.893   1.882
 4219TIP3   OH212662   2.879   3.059   0.024
 4219TIP3    H112663   2.924   3.129   0.071
 4219TIP3    H212664   2.918   3.061  -0.064
 4220TIP3   OH212665   5.515   3.979   1.661
 4220TIP3    H112666   5.557   4.040   1.722
 4220TIP3    H212667   5.493   4.033   1.586
 4221TIP3   OH212668   3.789   2.715   1.941
 4221TIP3    H112669   3.845   2.700   2.018
 4221TIP3    H212670   3.813   2.646   1.880
 4222TIP3   OH212671   1.842   5.444   4.091
 4222TIP3    H112672   1.890   5.513   4.137
 4222TIP3    H212673   1.816   5.383   4.160
 4223TIP3   OH212674   0.421   5.852   2.431
 4223TIP3    H112675   0.395   5.934   2.472
 4223TIP3    H212676   0.388   5.784   2.489
 4224TIP3   OH212677   0.830   0.523   0.682
 4224TIP3    H112678   0.882   0.602   0.664
 4224TIP3    H212679   0.747   0.556   0.716
 4225TIP3   OH212680   2.029   5.372   4.772
 4225TIP3    H112681   2.042   5.396   4.680
 4225TIP3    H212682   2.054   5.279   4.776
 4226TIP3   OH212683   3.048   1.443   0.535
 4226TIP3    H112684   2.995   1.508   0.489
 4226TIP3    H212685   3.138   1.474   0.525
 4227TIP3   OH212686   5.012   3.817   3.383
 4227TIP3    H112687   5.063   3.888   3.421
 4227TIP3    H212688   4.956   3.859   3.318
 4228TIP3   OH212689   0.594   2.556   0.652
 4228TIP3    H112690   0.513   2.531   0.696
 4228TIP3    H212691   0.575   2.641   0.612
 4229TIP3   OH212692   3.171   0.205   1.152
 4229TIP3    H112693   3.260   0.171   1.160
 4229TIP3    H212694   3.157   0.216   1.058
 4230TIP3   OH212695   4.178   5.876   1.925
 4230TIP3    H112696   4.196   5.834   2.010
 4230TIP3    H212697   4.265   5.896   1.890
 4231TIP3   OH212698   6.231   1.092   3.319
 4231TIP3    H112699   6.150   1.042   3.329
 4231TIP3    H212700   6.242   1.103   3.224
 4232TIP3   OH212701   2.921   5.455   2.463
 4232TIP3    H112702   2.905   5.440   2.370
 4232TIP3    H212703   2.998   5.512   2.465
 4233TIP3   OH212704   6.164   0.792   3.709
 4233TIP3    H112705   6.212   0.713   3.688
 4233TIP3    H212706   6.089   0.763   3.762
 4234TIP3   OH212707   5.900   1.909   0.224
 4234TIP3    H112708   5.957   1.959   0.282
 4234TIP3    H212709   5.886   1.966   0.149
 4235TIP3   OH212710   0.015   0.160   3.361
 4235TIP3    H112711  -0.008   0.247   3.392
 4235TIP3    H212712   0.109   0.163   3.346
 4236TIP3   OH212713   3.861   3.565   3.318
 4236TIP3    H112714   3.862   3.470   3.305
 4236TIP3    H212715   3.803   3.578   3.393
 4237TIP3   OH212716   3.022   0.851   4.609
 4237TIP3    H112717   3.091   0.874   4.546
 4237TIP3    H212718   2.984   0.770   4.575
 4238TIP3   OH212719   0.166   5.328   2.320
 4238TIP3    H112720   0.247   5.282   2.346
 4238TIP3    H212721   0.098   5.261   2.327
 4239TIP3   OH212722   3.886   1.683   2.797
 4239TIP3    H112723   3.904   1.597   2.835
 4239TIP3    H212724   3.892   1.743   2.871
 4240TIP3   OH212725   3.297   5.437   5.157
 4240TIP3    H112726   3.302   5.378   5.081
 4240TIP3    H212727   3.203   5.446   5.174
 4241TIP3   OH212728   5.140   4.598   2.078
 4241TIP3    H112729   5.046   4.582   2.071
 4241TIP3    H212730   5.174   4.519   2.122
 4242TIP3   OH212731   1.251   5.260   5.079
 4242TIP3    H112732   1.261   5.165   5.076
 4242TIP3    H212733   1.313   5.289   5.145
 4243TIP3   OH212734   1.548   5.683   3.544
 4243TIP3    H112735   1.583   5.753   3.489
 4243TIP3    H212736   1.468   5.654   3.499
 4244TIP3   OH212737   4.760   5.622   2.090
 4244TIP3    H112738   4.687   5.566   2.117
 4244TIP3    H212739   4.819   5.622   2.166
 4245TIP3   OH212740   3.688   4.625   4.451
 4245TIP3    H112741   3.717   4.603   4.362
 4245TIP3    H212742   3.601   4.586   4.458
 4246TIP3   OH212743   3.543   5.759   0.451
 4246TIP3    H112744   3.588   5.769   0.367
 4246TIP3    H212745   3.461   5.807   0.440
 4247TIP3   OH212746   0.406   1.708   0.056
 4247TIP3    H112747   0.457   1.627   0.059
 4247TIP3    H212748   0.333   1.688  -0.003
 4248TIP3   OH212749   3.402   4.640   1.931
 4248TIP3    H112750   3.348   4.564   1.907
 4248TIP3    H212751   3.397   4.698   1.855
 4249TIP3   OH212752   0.182   0.136   2.452
 4249TIP3    H112753   0.256   0.162   2.397
 4249TIP3    H212754   0.112   0.197   2.428
 4250TIP3   OH212755   0.365   2.081   3.749
 4250TIP3    H112756   0.447   2.131   3.752
 4250TIP3    H212757   0.316   2.120   3.676
 4251TIP3   OH212758   1.655   3.722   2.122
 4251TIP3    H112759   1.751   3.717   2.121
 4251TIP3    H212760   1.629   3.696   2.034
 4252TIP3   OH212761   4.717   4.347   2.134
 4252TIP3    H112762   4.703   4.306   2.049
 4252TIP3    H212763   4.706   4.276   2.197
 4253TIP3   OH212764   2.885   1.125   0.268
 4253TIP3    H112765   2.812   1.080   0.226
 4253TIP3    H212766   2.889   1.210   0.224
 4254TIP3   OH212767   4.218   1.956   2.790
 4254TIP3    H112768   4.267   1.887   2.834
 4254TIP3    H212769   4.260   1.966   2.705
 4255TIP3   OH212770   0.960   3.429   2.097
 4255TIP3    H112771   1.041   3.466   2.132
 4255TIP3    H212772   0.981   3.405   2.006
 4256TIP3   OH212773   2.115   3.892   0.331
 4256TIP3    H112774   2.149   3.914   0.245
 4256TIP3    H212775   2.023   3.915   0.328
 4257TIP3   OH212776   0.499   0.863   5.097
 4257TIP3    H112777   0.526   0.803   5.027
 4257TIP3    H212778   0.449   0.808   5.157
 4258TIP3   OH212779   0.584   3.220   2.188
 4258TIP3    H112780   0.629   3.139   2.166
 4258TIP3    H212781   0.500   3.214   2.143
 4259TIP3   OH212782   6.173   0.447   1.879
 4259TIP3    H112783   6.261   0.457   1.843
 4259TIP3    H212784   6.127   0.393   1.816
 4260TIP3   OH212785   0.077   5.246   0.282
 4260TIP3    H112786  -0.005   5.289   0.306
 4260TIP3    H212787   0.105   5.203   0.363
 4261TIP3   OH212788   1.427   4.890   1.551
 4261TIP3    H112789   1.378   4.813   1.577
 4261TIP3    H212790   1.513   4.856   1.526
 4262TIP3   OH212791   6.175   1.335   3.631
 4262TIP3    H112792   6.155   1.244   3.611
 4262TIP3    H212793   6.109   1.385   3.584
 4263TIP3   OH212794   0.467   1.321   1.262
 4263TIP3    H112795   0.466   1.374   1.182
 4263TIP3    H212796   0.386   1.270   1.259
 4264TIP3   OH212797   0.027   4.491   4.337
 4264TIP3    H112798   0.092   4.521   4.401
 4264TIP3    H212799   0.014   4.398   4.358
 4265TIP3   OH212800   0.380   5.855   3.100
 4265TIP3    H112801   0.376   5.763   3.076
 4265TIP3    H212802   0.437   5.858   3.176
 4266TIP3   OH212803   4.321   4.910   0.306
 4266TIP3    H112804   4.228   4.919   0.289
 4266TIP3    H212805   4.363   4.927   0.221
 4267TIP3   OH212806   3.765   0.385   3.343
 4267TIP3    H112807   3.787   0.387   3.436
 4267TIP3    H212808   3.848   0.367   3.299
 4268TIP3   OH212809   2.217   3.672   1.821
 4268TIP3    H112810   2.136   3.705   1.858
 4268TIP3    H212811   2.206   3.679   1.726
 4269TIP3   OH212812   5.069   5.905   0.221
 4269TIP3    H112813   5.046   5.997   0.213
 4269TIP3    H212814   5.125   5.901   0.299
 4270TIP3   OH212815   4.124   2.961   4.427
 4270TIP3    H112816   4.059   2.987   4.493
 4270TIP3    H212817   4.208   2.982   4.467
 4271TIP3   OH212818   2.230   2.371   3.116
 4271TIP3    H112819   2.271   2.285   3.127
 4271TIP3    H212820   2.219   2.381   3.022
 4272TIP3   OH212821   2.842   2.237   2.622
 4272TIP3    H112822   2.818   2.311   2.678
 4272TIP3    H212823   2.853   2.164   2.682
 4273TIP3   OH212824   0.672   2.103   3.429
 4273TIP3    H112825   0.634   2.017   3.447
 4273TIP3    H212826   0.696   2.099   3.336
 4274TIP3   OH212827   3.365   2.232   5.072
 4274TIP3    H112828   3.427   2.223   5.001
 4274TIP3    H212829   3.419   2.243   5.151
 4275TIP3   OH212830   3.780   3.979   1.624
 4275TIP3    H112831   3.739   3.961   1.709
 4275TIP3    H212832   3.721   4.042   1.582
 4276TIP3   OH212833   2.988   5.359   3.897
 4276TIP3    H112834   3.018   5.365   3.988
 4276TIP3    H212835   2.968   5.267   3.884
 4277TIP3   OH212836   5.467   1.760   2.521
 4277TIP3    H112837   5.400   1.756   2.589
 4277TIP3    H212838   5.502   1.671   2.516
 4278TIP3   OH212839   5.537   3.656   0.763
 4278TIP3    H112840   5.500   3.601   0.832
 4278TIP3    H212841   5.624   3.619   0.746
 4279TIP3   OH212842   1.497   3.153   3.670
 4279TIP3    H112843   1.440   3.212   3.720
 4279TIP3    H212844   1.547   3.211   3.613
 4280TIP3   OH212845   5.828   1.635   5.042
 4280TIP3    H112846   5.859   1.544   5.042
 4280TIP3    H212847   5.861   1.671   5.125
 4281TIP3   OH212848   5.640   5.555   2.753
 4281TIP3    H112849   5.675   5.565   2.842
 4281TIP3    H212850   5.582   5.630   2.742
 4282TIP3   OH212851   5.400   2.566   5.015
 4282TIP3    H112852   5.489   2.544   4.989
 4282TIP3    H212853   5.396   2.546   5.108
 4283TIP3   OH212854   4.360   0.646   2.703
 4283TIP3    H112855   4.307   0.668   2.626
 4283TIP3    H212856   4.310   0.677   2.777
 4284TIP3   OH212857   2.585   0.001   4.658
 4284TIP3    H112858   2.575   0.053   4.738
 4284TIP3    H212859   2.500   0.009   4.614
 4285TIP3   OH212860   1.328   3.106   3.363
 4285TIP3    H112861   1.336   3.060   3.447
 4285TIP3    H212862   1.329   3.036   3.298
 4286TIP3   OH212863   6.266   1.810   2.136
 4286TIP3    H112864   6.341   1.767   2.094
 4286TIP3    H212865   6.249   1.887   2.081
 4287TIP3   OH212866   3.294   1.786   4.989
 4287TIP3    H112867   3.290   1.843   5.065
 4287TIP3    H212868   3.207   1.747   4.983
 4288TIP3   OH212869   0.305   5.907   0.486
 4288TIP3    H112870   0.397   5.882   0.487
 4288TIP3    H212871   0.305   6.002   0.497
 4289TIP3   OH212872   2.939   3.981   2.038
 4289TIP3    H112873   2.898   4.068   2.042
 4289TIP3    H212874   3.028   3.996   2.070
 4290TIP3   OH212875   0.067   0.329   3.664
 4290TIP3    H112876  -0.013   0.340   3.612
 4290TIP3    H212877   0.074   0.235   3.677
 4291TIP3   OH212878   5.531   0.436   2.280
 4291TIP3    H112879   5.520   0.359   2.336
 4291TIP3    H212880   5.511   0.404   2.192
 4292TIP3   OH212881   5.612   3.843   3.642
 4292TIP3    H112882   5.536   3.850   3.583
 4292TIP3    H212883   5.622   3.931   3.678
 4293TIP3   OH212884   3.654   4.726   5.117
 4293TIP3    H112885   3.693   4.781   5.184
 4293TIP3    H212886   3.573   4.771   5.093
 4294TIP3   OH212887   1.793   4.701   2.289
 4294TIP3    H112888   1.782   4.610   2.314
 4294TIP3    H212889   1.876   4.727   2.329
 4295TIP3   OH212890   1.333   3.762   0.578
 4295TIP3    H112891   1.392   3.824   0.534
 4295TIP3    H212892   1.318   3.693   0.513
 4296TIP3   OH212893   0.337   1.570   2.959
 4296TIP3    H112894   0.280   1.511   2.910
 4296TIP3    H212895   0.426   1.545   2.933
 4297TIP3   OH212896   3.012   5.902   4.612
 4297TIP3    H112897   2.990   5.851   4.690
 4297TIP3    H212898   2.937   5.889   4.554
 4298TIP3   OH212899   5.498   5.614   3.208
 4298TIP3    H112900   5.434   5.676   3.173
 4298TIP3    H212901   5.458   5.581   3.289
 4299TIP3   OH212902   0.293   2.064   4.738
 4299TIP3    H112903   0.250   2.112   4.668
 4299TIP3    H212904   0.221   2.025   4.788
 4300TIP3   OH212905   3.030   3.043   2.320
 4300TIP3    H112906   2.999   2.959   2.285
 4300TIP3    H212907   3.112   3.021   2.364
 4301TIP3   OH212908   4.259   4.376   0.253
 4301TIP3    H112909   4.211   4.450   0.291
 4301TIP3    H212910   4.350   4.390   0.280
 4302TIP3   OH212911   1.353   4.571   2.710
 4302TIP3    H112912   1.348   4.521   2.791
 4302TIP3    H212913   1.288   4.641   2.721
 4303TIP3   OH212914   6.048   1.265   1.744
 4303TIP3    H112915   6.053   1.346   1.693
 4303TIP3    H212916   6.139   1.246   1.768
 4304TIP3   OH212917   3.396   1.638   0.194
 4304TIP3    H112918   3.344   1.575   0.243
 4304TIP3    H212919   3.331   1.688   0.143
 4305TIP3   OH212920   3.478   0.962   3.405
 4305TIP3    H112921   3.409   0.948   3.340
 4305TIP3    H212922   3.511   0.874   3.424
 4306TIP3   OH212923   5.945   4.163   1.035
 4306TIP3    H112924   5.987   4.244   1.005
 4306TIP3    H212925   5.987   4.143   1.118
 4307TIP3   OH212926   5.657   2.038   2.432
 4307TIP3    H112927   5.591   2.032   2.502
 4307TIP3    H212928   5.647   1.955   2.384
 4308TIP3   OH212929   5.953   5.867   0.784
 4308TIP3    H112930   5.875   5.816   0.763
 4308TIP3    H212931   5.993   5.885   0.699
 4309TIP3   OH212932   1.042   0.508   4.343
 4309TIP3    H112933   1.130   0.541   4.360
 4309TIP3    H212934   1.010   0.561   4.270
 4310TIP3   OH212935   1.811   2.489   1.088
 4310TIP3    H112936   1.829   2.496   0.994
 4310TIP3    H212937   1.735   2.431   1.094
 4311TIP3   OH212938   0.131   1.862   1.097
 4311TIP3    H112939   0.205   1.897   1.048
 4311TIP3    H212940   0.161   1.860   1.188
 4312TIP3   OH212941   4.689   5.903   0.257
 4312TIP3    H112942   4.731   5.988   0.271
 4312TIP3    H212943   4.737   5.842   0.313
 4313TIP3   OH212944   2.292   5.016   2.965
 4313TIP3    H112945   2.229   4.965   3.014
 4313TIP3    H212946   2.244   5.047   2.888
 4314TIP3   OH212947   3.099   3.278   3.694
 4314TIP3    H112948   3.010   3.311   3.706
 4314TIP3    H212949   3.127   3.253   3.782
 4315TIP3   OH212950   3.804   4.956   0.077
 4315TIP3    H112951   3.755   4.948  -0.005
 4315TIP3    H212952   3.778   5.042   0.111
 4316TIP3   OH212953   0.994   5.359   1.183
 4316TIP3    H112954   1.041   5.374   1.265
 4316TIP3    H212955   0.922   5.421   1.185
 4317TIP3   OH212956   3.203   5.272   0.253
 4317TIP3    H112957   3.124   5.307   0.293
 4317TIP3    H212958   3.188   5.178   0.246
 4318TIP3   OH212959   2.637   4.897   0.709
 4318TIP3    H112960   2.559   4.947   0.684
 4318TIP3    H212961   2.606   4.836   0.776
 4319TIP3   OH212962   0.537   2.583   3.034
 4319TIP3    H112963   0.522   2.633   2.954
 4319TIP3    H212964   0.607   2.630   3.079
 4320TIP3   OH212965   4.385   2.049   4.526
 4320TIP3    H112966   4.419   2.023   4.612
 4320TIP3    H212967   4.445   2.117   4.497
 4321TIP3   OH212968   4.722   5.293   3.383
 4321TIP3    H112969   4.798   5.246   3.418
 4321TIP3    H212970   4.677   5.327   3.460
 4322TIP3   OH212971   4.075   1.745   2.597
 4322TIP3    H112972   4.130   1.821   2.618
 4322TIP3    H212973   4.013   1.739   2.670
 4323TIP3   OH212974   0.942   5.316   2.843
 4323TIP3    H112975   0.963   5.256   2.771
 4323TIP3    H212976   1.024   5.325   2.891
 4324TIP3   OH212977   1.172   3.559   5.139
 4324TIP3    H112978   1.255   3.517   5.114
 4324TIP3    H212979   1.155   3.621   5.068
 4325TIP3   OH212980   4.232   1.190   0.937
 4325TIP3    H112981   4.136   1.196   0.928
 4325TIP3    H212982   4.245   1.144   1.020
 4326TIP3   OH212983   1.497   3.438   0.160
 4326TIP3    H112984   1.503   3.378   0.234
 4326TIP3    H212985   1.405   3.465   0.158
 4327TIP3   OH212986   0.869   4.635   0.064
 4327TIP3    H112987   0.803   4.679   0.011
 4327TIP3    H212988   0.832   4.635   0.152
 4328TIP3   OH212989   4.028   5.591   3.753
 4328TIP3    H112990   4.113   5.560   3.783
 4328TIP3    H212991   4.015   5.674   3.799
 4329TIP3   OH212992   3.205   5.286   4.927
 4329TIP3    H112993   3.168   5.199   4.942
 4329TIP3    H212994   3.261   5.276   4.850
 4330TIP3   OH212995   4.188   3.296   3.803
 4330TIP3    H112996   4.256   3.339   3.752
 4330TIP3    H212997   4.235   3.248   3.872
 4331TIP3   OH212998   3.210   2.623   3.686
 4331TIP3    H112999   3.199   2.538   3.729
 4331TIP3    H213000   3.285   2.610   3.627
 4332TIP3   OH213001   2.397   0.236   3.539
 4332TIP3    H113002   2.411   0.194   3.454
 4332TIP3    H213003   2.400   0.330   3.520
 4333TIP3   OH213004   5.562   4.026   0.410
 4333TIP3    H113005   5.492   4.028   0.345
 4333TIP3    H213006   5.631   4.082   0.372
 4334TIP3   OH213007   0.359   3.099   0.777
 4334TIP3    H113008   0.430   3.125   0.718
 4334TIP3    H213009   0.389   3.016   0.814
 4335TIP3   OH213010   2.662   5.299   3.959
 4335TIP3    H113011   2.743   5.249   3.968
 4335TIP3    H213012   2.685   5.371   3.900
 4336TIP3   OH213013   2.542   4.547   4.143
 4336TIP3    H113014   2.477   4.583   4.082
 4336TIP3    H213015   2.491   4.517   4.218
 4337TIP3   OH213016   1.803   3.940   2.204
 4337TIP3    H113017   1.886   3.897   2.184
 4337TIP3    H213018   1.743   3.868   2.223
 4338TIP3   OH213019   6.345   4.834   3.003
 4338TIP3    H113020   6.318   4.896   2.935
 4338TIP3    H213021   6.304   4.751   2.977
 4339TIP3   OH213022   0.021   2.039   1.928
 4339TIP3    H113023   0.101   2.064   1.975
 4339TIP3    H213024   0.042   1.954   1.890
 4340TIP3   OH213025   5.942   5.611   1.393
 4340TIP3    H113026   5.882   5.584   1.323
 4340TIP3    H213027   5.937   5.541   1.458
 4341TIP3   OH213028   3.213   2.405   3.865
 4341TIP3    H113029   3.287   2.466   3.863
 4341TIP3    H213030   3.209   2.375   3.956
 4342TIP3   OH213031   0.286   2.937   2.859
 4342TIP3    H113032   0.226   2.998   2.815
 4342TIP3    H213033   0.239   2.909   2.938
 4343TIP3   OH213034   0.571   2.972   3.547
 4343TIP3    H113035   0.495   2.931   3.587
 4343TIP3    H213036   0.556   2.964   3.453
 4344TIP3   OH213037   1.534   0.296   0.756
 4344TIP3    H113038   1.469   0.366   0.754
 4344TIP3    H213039   1.615   0.338   0.727
 4345TIP3   OH213040   0.527   3.748   1.991
 4345TIP3    H113041   0.612   3.782   2.017
 4345TIP3    H213042   0.464   3.795   2.046
 4346TIP3   OH213043   2.289   5.227   4.912
 4346TIP3    H113044   2.353   5.191   4.973
 4346TIP3    H213045   2.334   5.301   4.871
 4347TIP3   OH213046   1.501   0.804   2.986
 4347TIP3    H113047   1.505   0.759   2.902
 4347TIP3    H213048   1.582   0.854   2.991
 4348TIP3   OH213049   0.218   0.277   2.084
 4348TIP3    H113050   0.289   0.300   2.144
 4348TIP3    H213051   0.210   0.182   2.092
 4349TIP3   OH213052   5.988   5.602   3.670
 4349TIP3    H113053   6.042   5.530   3.701
 4349TIP3    H213054   5.905   5.561   3.645
 4350TIP3   OH213055   2.184   1.370   2.727
 4350TIP3    H113056   2.113   1.372   2.662
 4350TIP3    H213057   2.145   1.330   2.804
 4351TIP3   OH213058   1.507   4.694   4.768
 4351TIP3    H113059   1.578   4.758   4.763
 4351TIP3    H213060   1.431   4.739   4.730
 4352TIP3   OH213061   3.019   1.894  -0.033
 4352TIP3    H113062   2.992   1.887   0.058
 4352TIP3    H213063   3.112   1.917  -0.030
 4353TIP3   OH213064   0.590   2.241   3.679
 4353TIP3    H113065   0.598   2.189   3.599
 4353TIP3    H213066   0.610   2.331   3.651
 4354TIP3   OH213067   1.363   0.411   0.142
 4354TIP3    H113068   1.301   0.355   0.189
 4354TIP3    H213069   1.413   0.455   0.210
 4355TIP3   OH213070   3.963   4.432   4.098
 4355TIP3    H113071   3.990   4.499   4.161
 4355TIP3    H213072   4.041   4.377   4.088
 4356TIP3   OH213073   3.098   5.115   2.727
 4356TIP3    H113074   3.015   5.156   2.703
 4356TIP3    H213075   3.098   5.114   2.822
 4357TIP3   OH213076   4.569   3.398   0.904
 4357TIP3    H113077   4.548   3.490   0.922
 4357TIP3    H213078   4.545   3.385   0.813
 4358TIP3   OH213079   4.976   4.350   0.722
 4358TIP3    H113080   5.034   4.416   0.761
 4358TIP3    H213081   4.984   4.364   0.627
 4359TIP3   OH213082   1.983   2.122   2.974
 4359TIP3    H113083   1.892   2.127   3.003
 4359TIP3    H213084   1.978   2.087   2.885
 4360TIP3   OH213085   5.899   1.260   3.215
 4360TIP3    H113086   5.822   1.204   3.230
 4360TIP3    H213087   5.888   1.333   3.276
 4361TIP3   OH213088   1.141   3.761   0.761
 4361TIP3    H113089   1.223   3.735   0.719
 4361TIP3    H213090   1.102   3.825   0.700
 4362TIP3   OH213091   5.584   3.489   4.913
 4362TIP3    H113092   5.540   3.404   4.913
 4362TIP3    H213093   5.525   3.547   4.961
 4363TIP3   OH213094   1.279   1.266   4.066
 4363TIP3    H113095   1.225   1.215   4.127
 4363TIP3    H213096   1.357   1.289   4.117
 4364TIP3   OH213097   3.381   2.632   4.175
 4364TIP3    H113098   3.288   2.635   4.200
 4364TIP3    H213099   3.411   2.547   4.208
 4365TIP3   OH213100   2.060   5.343   1.399
 4365TIP3    H113101   2.055   5.438   1.386
 4365TIP3    H213102   1.995   5.308   1.338
 4366TIP3   OH213103   3.567   4.163   3.109
 4366TIP3    H113104   3.593   4.248   3.144
 4366TIP3    H213105   3.635   4.142   3.044
 4367TIP3   OH213106   0.138   0.549   0.546
 4367TIP3    H113107   0.232   0.540   0.565
 4367TIP3    H213108   0.111   0.627   0.594
 4368TIP3   OH213109   3.070   3.155   3.260
 4368TIP3    H113110   3.130   3.174   3.332
 4368TIP3    H213111   3.097   3.213   3.189
 4369TIP3   OH213112   6.181   4.150   0.067
 4369TIP3    H113113   6.175   4.183  -0.022
 4369TIP3    H213114   6.274   4.129   0.079
 4370TIP3   OH213115   3.197   0.434   4.264
 4370TIP3    H113116   3.178   0.528   4.257
 4370TIP3    H213117   3.158   0.408   4.348
 4371TIP3   OH213118   0.689   2.084   1.021
 4371TIP3    H113119   0.694   2.137   1.101
 4371TIP3    H213120   0.659   2.145   0.954
 4372TIP3   OH213121   5.064   1.178   3.610
 4372TIP3    H113122   5.089   1.141   3.694
 4372TIP3    H213123   5.128   1.144   3.548
 4373TIP3   OH213124   2.677   1.399   4.672
 4373TIP3    H113125   2.631   1.412   4.755
 4373TIP3    H213126   2.666   1.306   4.653
 4374TIP3   OH213127   3.010   1.112   3.415
 4374TIP3    H113128   3.055   1.171   3.354
 4374TIP3    H213129   3.074   1.095   3.484
 4375TIP3   OH213130   0.188   4.587   3.028
 4375TIP3    H113131   0.133   4.664   3.013
 4375TIP3    H213132   0.209   4.554   2.941
 4376TIP3   OH213133   3.409   3.465   4.378
 4376TIP3    H113134   3.402   3.531   4.446
 4376TIP3    H213135   3.503   3.461   4.357
 4377TIP3   OH213136   0.493   5.923   1.157
 4377TIP3    H113137   0.550   5.980   1.105
 4377TIP3    H213138   0.412   5.973   1.168
 4378TIP3   OH213139   0.422   4.905   0.288
 4378TIP3    H113140   0.506   4.949   0.299
 4378TIP3    H213141   0.402   4.869   0.375
 4379TIP3   OH213142   1.667   2.848   3.585
 4379TIP3    H113143   1.585   2.878   3.626
 4379TIP3    H213144   1.729   2.919   3.602
 4380TIP3   OH213145   2.632   0.964   1.027
 4380TIP3    H113146   2.717   0.974   1.068
 4380TIP3    H213147   2.604   0.875   1.048
 4381TIP3   OH213148   4.447   5.861   2.504
 4381TIP3    H113149   4.364   5.817   2.487
 4381TIP3    H213150   4.426   5.954   2.495
 4382TIP3   OH213151   1.266   1.494   3.814
 4382TIP3    H113152   1.334   1.524   3.874
 4382TIP3    H213153   1.283   1.540   3.732
 4383TIP3   OH213154   1.535   0.671   0.078
 4383TIP3    H113155   1.525   0.749   0.133
 4383TIP3    H213156   1.505   0.699  -0.008
 4384TIP3   OH213157   0.274   5.878   3.973
 4384TIP3    H113158   0.368   5.863   3.964
 4384TIP3    H213159   0.262   5.971   3.956
 4385TIP3   OH213160   5.435   2.078   4.502
 4385TIP3    H113161   5.439   2.027   4.421
 4385TIP3    H213162   5.481   2.159   4.482
 4386TIP3   OH213163   6.111   4.664   3.823
 4386TIP3    H113164   6.129   4.597   3.889
 4386TIP3    H213165   6.015   4.670   3.820
 4387TIP3   OH213166   2.216   5.843   0.108
 4387TIP3    H113167   2.268   5.919   0.084
 4387TIP3    H213168   2.242   5.775   0.046
 4388TIP3   OH213169   0.329   0.880   4.818
 4388TIP3    H113170   0.234   0.877   4.822
 4388TIP3    H213171   0.357   0.887   4.910
 4389TIP3   OH213172   2.322   3.626   0.692
 4389TIP3    H113173   2.357   3.556   0.747
 4389TIP3    H213174   2.353   3.707   0.733
 4390TIP3   OH213175   4.925   5.410   3.988
 4390TIP3    H113176   4.834   5.428   3.965
 4390TIP3    H213177   4.961   5.495   4.012
 4391TIP3   OH213178   1.616   0.701   3.713
 4391TIP3    H113179   1.607   0.786   3.670
 4391TIP3    H213180   1.618   0.638   3.642
 4392TIP3   OH213181   3.402   0.444   3.053
 4392TIP3    H113182   3.432   0.440   2.962
 4392TIP3    H213183   3.437   0.365   3.094
 4393TIP3   OH213184   0.349   2.387   1.746
 4393TIP3    H113185   0.276   2.365   1.688
 4393TIP3    H213186   0.379   2.473   1.716
 4394TIP3   OH213187   3.466   2.662   2.776
 4394TIP3    H113188   3.465   2.569   2.754
 4394TIP3    H213189   3.386   2.675   2.828
 4395TIP3   OH213190   3.119   4.343   0.198
 4395TIP3    H113191   3.057   4.322   0.129
 4395TIP3    H213192   3.198   4.372   0.151
 4396TIP3   OH213193   1.025   1.959   0.079
 4396TIP3    H113194   1.056   1.877   0.118
 4396TIP3    H213195   0.932   1.961   0.098
 4397TIP3   OH213196   1.278   2.985   0.375
 4397TIP3    H113197   1.348   3.012   0.435
 4397TIP3    H213198   1.262   3.062   0.320
 4398TIP3   OH213199   4.738   3.312   4.351
 4398TIP3    H113200   4.785   3.336   4.430
 4398TIP3    H213201   4.652   3.351   4.361
 4399TIP3   OH213202   0.220   4.208   4.797
 4399TIP3    H113203   0.243   4.143   4.731
 4399TIP3    H213204   0.231   4.163   4.881
 4400TIP3   OH213205   5.177   0.992   4.363
 4400TIP3    H113206   5.249   0.963   4.306
 4400TIP3    H213207   5.179   1.088   4.356
 4401TIP3   OH213208   4.098   1.997   4.625
 4401TIP3    H113209   4.081   1.913   4.667
 4401TIP3    H213210   4.192   1.999   4.611
 4402TIP3   OH213211   5.833   1.762   0.443
 4402TIP3    H113212   5.868   1.789   0.528
 4402TIP3    H213213   5.838   1.841   0.389
 4403TIP3   OH213214   4.188   3.246   4.679
 4403TIP3    H113215   4.182   3.265   4.585
 4403TIP3    H213216   4.098   3.226   4.705
 4404TIP3   OH213217   3.521   5.148   0.796
 4404TIP3    H113218   3.532   5.241   0.776
 4404TIP3    H213219   3.429   5.130   0.779
 4405TIP3   OH213220   4.358   0.643   0.662
 4405TIP3    H113221   4.424   0.683   0.606
 4405TIP3    H213222   4.278   0.692   0.644
 4406TIP3   OH213223   2.905   2.837   2.179
 4406TIP3    H113224   2.823   2.882   2.198
 4406TIP3    H213225   2.887   2.745   2.197
 4407TIP3   OH213226   5.114   4.983   4.296
 4407TIP3    H113227   5.200   4.946   4.276
 4407TIP3    H213228   5.125   5.024   4.382
 4408TIP3   OH213229   5.143   3.154   3.698
 4408TIP3    H113230   5.079   3.223   3.717
 4408TIP3    H213231   5.128   3.133   3.606
 4409TIP3   OH213232   0.798   0.698   4.438
 4409TIP3    H113233   0.798   0.629   4.504
 4409TIP3    H213234   0.708   0.699   4.404
 4410TIP3   OH213235   2.358   1.182   1.777
 4410TIP3    H113236   2.267   1.159   1.756
 4410TIP3    H213237   2.384   1.242   1.708
 4411TIP3   OH213238   1.354   2.365   5.005
 4411TIP3    H113239   1.377   2.455   5.028
 4411TIP3    H213240   1.285   2.341   5.067
 4412TIP3   OH213241   1.373   0.490   3.634
 4412TIP3    H113242   1.409   0.543   3.705
 4412TIP3    H213243   1.408   0.402   3.649
 4413TIP3   OH213244   1.592   5.863   2.637
 4413TIP3    H113245   1.499   5.842   2.644
 4413TIP3    H213246   1.603   5.939   2.696
 4414TIP3   OH213247   5.615   0.272   4.256
 4414TIP3    H113248   5.527   0.278   4.219
 4414TIP3    H213249   5.606   0.305   4.346
 4415TIP3   OH213250   5.932   2.061   1.608
 4415TIP3    H113251   5.866   2.053   1.678
 4415TIP3    H213252   5.984   1.982   1.616
 4416TIP3   OH213253   4.268   3.067   0.892
 4416TIP3    H113254   4.349   3.096   0.850
 4416TIP3    H213255   4.296   3.024   0.972
 4417TIP3   OH213256   5.293   4.414   2.218
 4417TIP3    H113257   5.256   4.333   2.254
 4417TIP3    H213258   5.386   4.411   2.241
 4418TIP3   OH213259   1.921   0.908   3.576
 4418TIP3    H113260   1.901   0.850   3.502
 4418TIP3    H213261   1.924   0.995   3.538
 4419TIP3   OH213262   3.267   0.324   5.006
 4419TIP3    H113263   3.273   0.282   4.920
 4419TIP3    H213264   3.175   0.349   5.015
 4420TIP3   OH213265   2.411   1.250   0.145
 4420TIP3    H113266   2.447   1.262   0.234
 4420TIP3    H213267   2.461   1.311   0.091
 4421TIP3   OH213268   3.987   4.010   0.798
 4421TIP3    H113269   3.964   3.936   0.742
 4421TIP3    H213270   3.904   4.050   0.821
 4422TIP3   OH213271   2.755   0.503   3.885
 4422TIP3    H113272   2.665   0.533   3.896
 4422TIP3    H213273   2.809   0.577   3.914
 4423TIP3   OH213274   0.717   2.994   2.133
 4423TIP3    H113275   0.707   2.899   2.137
 4423TIP3    H213276   0.775   3.009   2.058
 4424TIP3   OH213277   5.878   5.966   2.297
 4424TIP3    H113278   5.817   5.895   2.319
 4424TIP3    H213279   5.858   6.035   2.359
 4425TIP3   OH213280   5.530   0.493   0.897
 4425TIP3    H113281   5.496   0.430   0.961
 4425TIP3    H213282   5.532   0.444   0.815
 4426TIP3   OH213283   1.046   1.704   4.521
 4426TIP3    H113284   0.997   1.622   4.515
 4426TIP3    H213285   1.018   1.754   4.444
 4427TIP3   OH213286   5.987   3.357   3.232
 4427TIP3    H113287   5.896   3.357   3.261
 4427TIP3    H213288   6.014   3.266   3.234
 4428TIP3   OH213289   5.595   1.583   3.131
 4428TIP3    H113290   5.582   1.491   3.108
 4428TIP3    H213291   5.641   1.581   3.215
 4429TIP3   OH213292   2.242   2.090   3.120
 4429TIP3    H113293   2.159   2.115   3.079
 4429TIP3    H213294   2.221   2.078   3.212
 4430TIP3   OH213295   4.820   4.296   4.986
 4430TIP3    H113296   4.910   4.325   5.002
 4430TIP3    H213297   4.797   4.335   4.901
 4431TIP3   OH213298   4.251   0.903   0.890
 4431TIP3    H113299   4.175   0.930   0.838
 4431TIP3    H213300   4.326   0.931   0.838
 4432TIP3   OH213301   1.958   2.581   2.704
 4432TIP3    H113302   2.044   2.601   2.667
 4432TIP3    H213303   1.974   2.508   2.763
 4433TIP3   OH213304   4.977   3.961   0.666
 4433TIP3    H113305   5.042   3.907   0.711
 4433TIP3    H213306   4.893   3.931   0.702
 4434TIP3   OH213307   2.147   3.389   0.190
 4434TIP3    H113308   2.078   3.353   0.246
 4434TIP3    H213309   2.116   3.372   0.101
 4435TIP3   OH213310   1.576   2.661   1.660
 4435TIP3    H113311   1.490   2.660   1.619
 4435TIP3    H213312   1.599   2.569   1.670
 4436TIP3   OH213313   4.538   4.344   2.507
 4436TIP3    H113314   4.615   4.391   2.538
 4436TIP3    H213315   4.572   4.280   2.444
 4437TIP3   OH213316   4.035   5.353   2.903
 4437TIP3    H113317   4.069   5.440   2.928
 4437TIP3    H213318   3.954   5.344   2.954
 4438TIP3   OH213319   1.072   5.478   5.023
 4438TIP3    H113320   1.076   5.538   5.098
 4438TIP3    H213321   1.149   5.423   5.032
 4439TIP3   OH213322   1.060   5.554   3.176
 4439TIP3    H113323   1.139   5.529   3.128
 4439TIP3    H213324   0.991   5.553   3.110
 4440TIP3   OH213325   2.001   0.249   2.374
 4440TIP3    H113326   2.074   0.194   2.402
 4440TIP3    H213327   1.940   0.188   2.331
 4441TIP3   OH213328   5.913   3.478   4.977
 4441TIP3    H113329   5.818   3.471   4.986
 4441TIP3    H213330   5.932   3.440   4.891
 4442TIP3   OH213331   0.975   2.634   0.369
 4442TIP3    H113332   1.023   2.551   0.368
 4442TIP3    H213333   1.029   2.693   0.421
 4443TIP3   OH213334   0.067   1.636   0.917
 4443TIP3    H113335   0.068   1.674   1.005
 4443TIP3    H213336   0.153   1.658   0.880
 4444TIP3   OH213337   1.773   1.933   2.201
 4444TIP3    H113338   1.757   2.002   2.136
 4444TIP3    H213339   1.727   1.856   2.165
 4445TIP3   OH213340   3.365   1.957   2.108
 4445TIP3    H113341   3.391   1.943   2.017
 4445TIP3    H213342   3.275   1.926   2.113
 4446TIP3   OH213343   2.899   1.597   3.896
 4446TIP3    H113344   2.980   1.648   3.893
 4446TIP3    H213345   2.927   1.506   3.902
 4447TIP3   OH213346   5.701   2.299   2.588
 4447TIP3    H113347   5.615   2.305   2.545
 4447TIP3    H213348   5.711   2.205   2.607
 4448TIP3   OH213349   2.585   2.954   4.122
 4448TIP3    H113350   2.634   2.970   4.041
 4448TIP3    H213351   2.618   2.869   4.153
 4449TIP3   OH213352   0.987   3.375   1.843
 4449TIP3    H113353   1.051   3.305   1.832
 4449TIP3    H213354   0.929   3.366   1.767
 4450TIP3   OH213355   2.842   4.917   2.327
 4450TIP3    H113356   2.914   4.875   2.375
 4450TIP3    H213357   2.880   4.939   2.242
 4451TIP3   OH213358   2.439   3.871   4.443
 4451TIP3    H113359   2.353   3.903   4.417
 4451TIP3    H213360   2.471   3.822   4.368
 4452TIP3   OH213361   2.621   4.550   2.762
 4452TIP3    H113362   2.622   4.595   2.677
 4452TIP3    H213363   2.698   4.493   2.760
 4453TIP3   OH213364   4.849   3.401   0.824
 4453TIP3    H113365   4.764   3.393   0.867
 4453TIP3    H213366   4.838   3.356   0.740
 4454TIP3   OH213367   4.498   4.375   0.383
 4454TIP3    H113368   4.576   4.427   0.405
 4454TIP3    H213369   4.506   4.297   0.438
 4455TIP3   OH213370   2.283   0.998   0.659
 4455TIP3    H113371   2.343   1.061   0.698
 4455TIP3    H213372   2.236   1.048   0.592
 4456TIP3   OH213373   4.268   4.989   3.585
 4456TIP3    H113374   4.344   4.939   3.555
 4456TIP3    H213375   4.270   5.069   3.532
 4457TIP3   OH213376   3.436   0.068   1.775
 4457TIP3    H113377   3.381  -0.006   1.801
 4457TIP3    H213378   3.399   0.097   1.692
 4458TIP3   OH213379   1.106   0.679   0.857
 4458TIP3    H113380   1.086   0.709   0.768
 4458TIP3    H213381   1.076   0.751   0.913
 4459TIP3   OH213382   3.476   1.251   2.740
 4459TIP3    H113383   3.491   1.158   2.760
 4459TIP3    H213384   3.452   1.252   2.648
 4460TIP3   OH213385   0.340   5.884   5.056
 4460TIP3    H113386   0.426   5.863   5.092
 4460TIP3    H213387   0.345   5.977   5.035
 4461TIP3   OH213388   1.039   2.760   2.503
 4461TIP3    H113389   1.108   2.697   2.481
 4461TIP3    H213390   1.050   2.830   2.439
 4462TIP3   OH213391   1.529   3.954   0.693
 4462TIP3    H113392   1.491   3.991   0.613
 4462TIP3    H213393   1.480   3.996   0.764
 4463TIP3   OH213394   0.463   5.194   3.087
 4463TIP3    H113395   0.535   5.238   3.042
 4463TIP3    H213396   0.498   5.173   3.173
 4464TIP3   OH213397   5.192   4.093   4.217
 4464TIP3    H113398   5.200   3.998   4.211
 4464TIP3    H213399   5.282   4.125   4.219
 4465TIP3   OH213400   4.819   1.667   0.210
 4465TIP3    H113401   4.771   1.746   0.235
 4465TIP3    H213402   4.861   1.689   0.127
 4466TIP3   OH213403   6.037   5.791   5.035
 4466TIP3    H113404   6.017   5.771   4.944
 4466TIP3    H213405   5.955   5.772   5.082
 4467TIP3   OH213406   2.278   3.004   4.676
 4467TIP3    H113407   2.277   3.075   4.740
 4467TIP3    H213408   2.227   2.934   4.717
 4468TIP3   OH213409   4.113   0.819   3.580
 4468TIP3    H113410   4.170   0.823   3.657
 4468TIP3    H213411   4.169   0.843   3.507
 4469TIP3   OH213412   5.303   0.557   2.815
 4469TIP3    H113413   5.329   0.561   2.907
 4469TIP3    H213414   5.207   0.564   2.818
 4470TIP3   OH213415   2.122   5.782   4.779
 4470TIP3    H113416   2.078   5.862   4.747
 4470TIP3    H213417   2.089   5.713   4.722
 4471TIP3   OH213418   4.833   0.480   1.622
 4471TIP3    H113419   4.763   0.414   1.620
 4471TIP3    H213420   4.788   0.562   1.599
 4472TIP3   OH213421   6.068   2.997   1.619
 4472TIP3    H113422   6.071   2.997   1.523
 4472TIP3    H213423   6.160   2.989   1.645
 4473TIP3   OH213424   5.931   5.263   3.925
 4473TIP3    H113425   5.863   5.330   3.922
 4473TIP3    H213426   5.900   5.200   3.990
 4474TIP3   OH213427   1.959   5.452   1.116
 4474TIP3    H113428   1.971   5.402   1.035
 4474TIP3    H213429   1.985   5.542   1.093
 4475TIP3   OH213430   1.990   2.295   3.371
 4475TIP3    H113431   1.904   2.262   3.344
 4475TIP3    H213432   1.971   2.381   3.409
 4476TIP3   OH213433   5.260   5.021   4.791
 4476TIP3    H113434   5.220   5.078   4.857
 4476TIP3    H213435   5.273   4.937   4.837
 4477TIP3   OH213436   5.712   4.973   0.685
 4477TIP3    H113437   5.753   4.984   0.599
 4477TIP3    H213438   5.621   4.999   0.671
 4478TIP3   OH213439   1.286   2.023   0.122
 4478TIP3    H113440   1.320   1.996   0.037
 4478TIP3    H213441   1.192   2.002   0.118
 4479TIP3   OH213442   3.067   2.567   5.017
 4479TIP3    H113443   3.137   2.606   4.963
 4479TIP3    H213444   3.064   2.623   5.094
 4480TIP3   OH213445   2.911   2.173   1.437
 4480TIP3    H113446   2.923   2.086   1.475
 4480TIP3    H213447   2.855   2.219   1.499
 4481TIP3   OH213448   0.546   5.334   1.626
 4481TIP3    H113449   0.498   5.417   1.633
 4481TIP3    H213450   0.625   5.349   1.678
 4482TIP3   OH213451   5.044   4.968   3.342
 4482TIP3    H113452   5.139   4.958   3.332
 4482TIP3    H213453   5.024   4.932   3.428
 4483TIP3   OH213454   0.440   3.201   3.409
 4483TIP3    H113455   0.405   3.257   3.478
 4483TIP3    H213456   0.519   3.162   3.448
 4484TIP3   OH213457   4.651   2.204   3.837
 4484TIP3    H113458   4.734   2.165   3.866
 4484TIP3    H213459   4.666   2.299   3.843
 4485TIP3   OH213460   1.621   1.556   0.719
 4485TIP3    H113461   1.713   1.560   0.747
 4485TIP3    H213462   1.571   1.561   0.800
 4486TIP3   OH213463   2.832   0.027   0.730
 4486TIP3    H113464   2.870   0.114   0.717
 4486TIP3    H213465   2.887  -0.013   0.797
 4487TIP3   OH213466   1.695   2.094   2.986
 4487TIP3    H113467   1.704   2.045   2.904
 4487TIP3    H213468   1.644   2.037   3.043
 4488TIP3   OH213469   5.727   3.517   3.699
 4488TIP3    H113470   5.810   3.515   3.651
 4488TIP3    H213471   5.734   3.593   3.756
 4489TIP3   OH213472   2.229   2.132   3.374
 4489TIP3    H113473   2.141   2.169   3.376
 4489TIP3    H213474   2.284   2.199   3.414
 4490TIP3   OH213475   4.278   3.105   2.502
 4490TIP3    H113476   4.271   3.101   2.406
 4490TIP3    H213477   4.238   3.024   2.532
 4491TIP3   OH213478   6.142   2.401   1.662
 4491TIP3    H113479   6.069   2.393   1.723
 4491TIP3    H213480   6.103   2.440   1.583
 4492TIP3   OH213481   1.099   4.826   3.313
 4492TIP3    H113482   1.110   4.732   3.332
 4492TIP3    H213483   1.183   4.852   3.274
 4493TIP3   OH213484   1.166   5.874   0.179
 4493TIP3    H113485   1.205   5.917   0.255
 4493TIP3    H213486   1.094   5.823   0.215
 4494TIP3   OH213487   3.748   5.840   4.224
 4494TIP3    H113488   3.759   5.900   4.151
 4494TIP3    H213489   3.656   5.817   4.223
 4495TIP3   OH213490   0.896   3.798   1.351
 4495TIP3    H113491   0.885   3.704   1.337
 4495TIP3    H213492   0.930   3.830   1.267
 4496TIP3   OH213493   5.283   3.159   1.243
 4496TIP3    H113494   5.271   3.075   1.199
 4496TIP3    H213495   5.294   3.136   1.336
 4497TIP3   OH213496   5.462   4.766   0.168
 4497TIP3    H113497   5.516   4.708   0.222
 4497TIP3    H213498   5.388   4.711   0.142
 4498TIP3   OH213499   4.612   4.953   2.687
 4498TIP3    H113500   4.631   5.039   2.725
 4498TIP3    H213501   4.667   4.893   2.738
 4499TIP3   OH213502   3.881   5.612   4.716
 4499TIP3    H113503   3.827   5.688   4.698
 4499TIP3    H213504   3.930   5.634   4.795
 4500TIP3   OH213505   4.094   3.351   2.829
 4500TIP3    H113506   4.161   3.409   2.793
 4500TIP3    H213507   4.051   3.314   2.752
 4501TIP3   OH213508   0.946   0.107   4.325
 4501TIP3    H113509   0.872   0.167   4.318
 4501TIP3    H213510   1.018   0.153   4.281
 4502TIP3   OH213511   5.975   5.867   4.272
 4502TIP3    H113512   5.956   5.958   4.294
 4502TIP3    H213513   6.065   5.854   4.300
 4503TIP3   OH213514   5.284   3.088   2.885
 4503TIP3    H113515   5.366   3.066   2.929
 4503TIP3    H213516   5.304   3.166   2.833
 4504TIP3   OH213517   2.709   0.660   0.768
 4504TIP3    H113518   2.719   0.683   0.861
 4504TIP3    H213519   2.795   0.628   0.742
 4505TIP3   OH213520   4.634   0.113   2.249
 4505TIP3    H113521   4.636   0.022   2.220
 4505TIP3    H213522   4.648   0.109   2.343
 4506TIP3   OH213523   5.437   2.972   2.330
 4506TIP3    H113524   5.404   2.887   2.360
 4506TIP3    H213525   5.521   2.952   2.288
 4507TIP3   OH213526   5.484   4.438   0.097
 4507TIP3    H113527   5.478   4.427   0.192
 4507TIP3    H213528   5.442   4.361   0.061
 4508TIP3   OH213529   5.667   4.585   4.424
 4508TIP3    H113530   5.639   4.497   4.450
 4508TIP3    H213531   5.718   4.617   4.498
 4509TIP3   OH213532   2.832   3.748   2.873
 4509TIP3    H113533   2.771   3.681   2.843
 4509TIP3    H213534   2.895   3.701   2.927
 4510TIP3   OH213535   2.409   2.036   1.224
 4510TIP3    H113536   2.330   2.014   1.174
 4510TIP3    H213537   2.468   2.075   1.160
 4511TIP3   OH213538   4.663   0.635   0.065
 4511TIP3    H113539   4.626   0.548   0.054
 4511TIP3    H213540   4.677   0.643   0.159
 4512TIP3   OH213541   6.252   1.374   4.957
 4512TIP3    H113542   6.186   1.431   4.998
 4512TIP3    H213543   6.207   1.334   4.883
 4513TIP3   OH213544   4.316   0.072   1.846
 4513TIP3    H113545   4.399   0.047   1.807
 4513TIP3    H213546   4.253   0.007   1.814
 4514TIP3   OH213547   3.431   5.445   3.538
 4514TIP3    H113548   3.443   5.351   3.522
 4514TIP3    H213549   3.378   5.449   3.618
 4515TIP3   OH213550   2.624   3.646   4.508
 4515TIP3    H113551   2.638   3.604   4.423
 4515TIP3    H213552   2.554   3.596   4.549
 4516TIP3   OH213553   4.302   3.418   4.869
 4516TIP3    H113554   4.302   3.382   4.958
 4516TIP3    H213555   4.301   3.341   4.812
 4517TIP3   OH213556   3.584   3.626   1.642
 4517TIP3    H113557   3.615   3.610   1.553
 4517TIP3    H213558   3.534   3.708   1.635
 4518TIP3   OH213559   0.117   3.380   3.370
 4518TIP3    H113560   0.070   3.457   3.338
 4518TIP3    H213561   0.186   3.416   3.425
 4519TIP3   OH213562   5.955   1.864   4.745
 4519TIP3    H113563   5.894   1.793   4.728
 4519TIP3    H213564   5.930   1.899   4.831
 4520TIP3   OH213565   1.386   5.980   4.194
 4520TIP3    H113566   1.330   6.034   4.250
 4520TIP3    H213567   1.372   5.891   4.225
 4521TIP3   OH213568   1.102   0.173   2.838
 4521TIP3    H113569   1.172   0.218   2.885
 4521TIP3    H213570   1.053   0.243   2.794
 4522TIP3   OH213571   5.386   2.619   0.045
 4522TIP3    H113572   5.411   2.703   0.082
 4522TIP3    H213573   5.377   2.561   0.122
 4523TIP3   OH213574   1.227   3.392   2.417
 4523TIP3    H113575   1.298   3.332   2.439
 4523TIP3    H213576   1.270   3.464   2.371
 4524TIP3   OH213577   2.751   4.990   2.567
 4524TIP3    H113578   2.803   5.061   2.604
 4524TIP3    H213579   2.794   4.971   2.483
 4525TIP3   OH213580   2.450   1.000   1.222
 4525TIP3    H113581   2.509   1.002   1.297
 4525TIP3    H213582   2.508   0.997   1.145
 4526TIP3   OH213583   0.793   0.525   4.996
 4526TIP3    H113584   0.818   0.435   4.978
 4526TIP3    H213585   0.844   0.577   4.934
 4527TIP3   OH213586   2.753   2.876   0.468
 4527TIP3    H113587   2.779   2.843   0.382
 4527TIP3    H213588   2.658   2.887   0.462
 4528TIP3   OH213589   4.118   2.999   3.134
 4528TIP3    H113590   4.072   2.983   3.052
 4528TIP3    H213591   4.196   2.943   3.129
 4529TIP3   OH213592   1.044   1.387   1.289
 4529TIP3    H113593   1.134   1.358   1.306
 4529TIP3    H213594   1.040   1.476   1.325
 4530TIP3   OH213595   4.953   1.415   3.538
 4530TIP3    H113596   4.999   1.393   3.618
 4530TIP3    H213597   4.957   1.336   3.485
 4531TIP3   OH213598   3.388   1.300   1.150
 4531TIP3    H113599   3.395   1.328   1.058
 4531TIP3    H213600   3.415   1.208   1.149
 4532TIP3   OH213601   5.121   4.856   3.013
 4532TIP3    H113602   5.118   4.830   2.920
 4532TIP3    H213603   5.056   4.799   3.055
 4533TIP3   OH213604   5.540   1.339   2.156
 4533TIP3    H113605   5.463   1.310   2.205
 4533TIP3    H213606   5.523   1.310   2.066
 4534TIP3   OH213607   6.019   4.363   0.870
 4534TIP3    H113608   6.032   4.456   0.851
 4534TIP3    H213609   6.100   4.321   0.840
 4535TIP3   OH213610   5.069   0.199   4.657
 4535TIP3    H113611   5.091   0.106   4.655
 4535TIP3    H213612   5.055   0.219   4.749
 4536TIP3   OH213613   1.890   0.811   1.784
 4536TIP3    H113614   1.934   0.888   1.821
 4536TIP3    H213615   1.917   0.739   1.842
 4537TIP3   OH213616   6.176   0.749   3.365
 4537TIP3    H113617   6.148   0.689   3.296
 4537TIP3    H213618   6.157   0.702   3.446
 4538TIP3   OH213619   2.402   0.382   0.667
 4538TIP3    H113620   2.466   0.371   0.738
 4538TIP3    H213621   2.327   0.424   0.708
 4539TIP3   OH213622   4.808   0.723   2.708
 4539TIP3    H113623   4.721   0.760   2.700
 4539TIP3    H213624   4.818   0.668   2.630
 4540TIP3   OH213625   2.404   4.150   1.530
 4540TIP3    H113626   2.406   4.210   1.605
 4540TIP3    H213627   2.493   4.153   1.495
 4541TIP3   OH213628   1.870   5.177   0.056
 4541TIP3    H113629   1.871   5.217  -0.031
 4541TIP3    H213630   1.914   5.240   0.112
 4542TIP3   OH213631   3.397   1.857   4.137
 4542TIP3    H113632   3.411   1.796   4.064
 4542TIP3    H213633   3.310   1.836   4.170
 4543TIP3   OH213634   2.060   1.312   1.893
 4543TIP3    H113635   2.025   1.399   1.877
 4543TIP3    H213636   2.116   1.323   1.970
 4544TIP3   OH213637   3.158   2.017   4.879
 4544TIP3    H113638   3.108   2.054   4.952
 4544TIP3    H213639   3.178   1.927   4.906
 4545TIP3   OH213640   5.017   3.128   5.111
 4545TIP3    H113641   5.101   3.132   5.065
 4545TIP3    H213642   5.024   3.192   5.181
 4546TIP3   OH213643   1.794   0.353   0.628
 4546TIP3    H113644   1.888   0.337   0.641
 4546TIP3    H213645   1.768   0.291   0.560
 4547TIP3   OH213646   4.933   4.752   1.510
 4547TIP3    H113647   4.936   4.765   1.416
 4547TIP3    H213648   4.946   4.839   1.548
 4548TIP3   OH213649   5.242   1.151   1.167
 4548TIP3    H113650   5.248   1.056   1.180
 4548TIP3    H213651   5.199   1.182   1.247
 4549TIP3   OH213652   3.314   3.218   2.143
 4549TIP3    H113653   3.326   3.248   2.233
 4549TIP3    H213654   3.256   3.282   2.103
 4550TIP3   OH213655   2.024   1.055   5.086
 4550TIP3    H113656   1.998   1.134   5.133
 4550TIP3    H213657   2.023   1.080   4.993
 4551TIP3   OH213658   0.332   0.445   0.936
 4551TIP3    H113659   0.263   0.385   0.964
 4551TIP3    H213660   0.381   0.396   0.870
 4552TIP3   OH213661   3.302   0.439   1.732
 4552TIP3    H113662   3.258   0.411   1.812
 4552TIP3    H213663   3.389   0.464   1.760
 4553TIP3   OH213664   4.568   0.657   1.131
 4553TIP3    H113665   4.489   0.665   1.077
 4553TIP3    H213666   4.564   0.568   1.165
 4554TIP3   OH213667   3.314   3.121   1.435
 4554TIP3    H113668   3.300   3.106   1.341
 4554TIP3    H213669   3.410   3.126   1.444
 4555TIP3   OH213670   4.519   1.578   2.455
 4555TIP3    H113671   4.478   1.661   2.430
 4555TIP3    H213672   4.580   1.560   2.383
 4556TIP3   OH213673   4.543   5.917   1.568
 4556TIP3    H113674   4.601   5.970   1.514
 4556TIP3    H213675   4.505   5.853   1.507
 4557TIP3   OH213676   2.181   5.846   1.636
 4557TIP3    H113677   2.111   5.805   1.586
 4557TIP3    H213678   2.193   5.789   1.712
 4558TIP3   OH213679   0.461   1.806   3.963
 4558TIP3    H113680   0.493   1.752   4.035
 4558TIP3    H213681   0.435   1.744   3.895
 4559TIP3   OH213682   6.048   0.648   4.101
 4559TIP3    H113683   5.984   0.587   4.136
 4559TIP3    H213684   6.080   0.606   4.022
 4560TIP3   OH213685   0.686   5.874   0.457
 4560TIP3    H113686   0.715   5.914   0.539
 4560TIP3    H213687   0.683   5.946   0.394
 4561TIP3   OH213688   2.414   2.327   4.289
 4561TIP3    H113689   2.453   2.387   4.351
 4561TIP3    H213690   2.319   2.334   4.304
 4562TIP3   OH213691   3.139   3.667   2.112
 4562TIP3    H113692   3.092   3.745   2.142
 4562TIP3    H213693   3.183   3.695   2.031
 4563TIP3   OH213694   4.323   5.645   2.962
 4563TIP3    H113695   4.246   5.620   3.013
 4563TIP3    H213696   4.344   5.567   2.911
 4564TIP3   OH213697   3.024   4.458   2.233
 4564TIP3    H113698   2.983   4.377   2.204
 4564TIP3    H213699   3.032   4.449   2.327
 4565TIP3   OH213700   5.399   5.556   0.536
 4565TIP3    H113701   5.469   5.491   0.531
 4565TIP3    H213702   5.444   5.640   0.547
 4566TIP3   OH213703   5.470   5.229   5.014
 4566TIP3    H113704   5.514   5.310   5.037
 4566TIP3    H213705   5.380   5.241   5.044
 4567TIP3   OH213706   5.019   5.612   3.745
 4567TIP3    H113707   4.949   5.652   3.693
 4567TIP3    H213708   5.036   5.528   3.702
 4568TIP3   OH213709   2.851   3.479   0.079
 4568TIP3    H113710   2.870   3.475  -0.015
 4568TIP3    H213711   2.859   3.572   0.101
 4569TIP3   OH213712   2.573   3.803   0.520
 4569TIP3    H113713   2.481   3.823   0.537
 4569TIP3    H213714   2.575   3.708   0.505
 4570TIP3   OH213715   4.399   4.761   4.063
 4570TIP3    H113716   4.325   4.814   4.091
 4570TIP3    H213717   4.468   4.780   4.127
 4571TIP3   OH213718   0.966   0.514   1.975
 4571TIP3    H113719   1.022   0.493   2.050
 4571TIP3    H213720   0.964   0.434   1.922
 4572TIP3   OH213721   0.246   0.205   4.397
 4572TIP3    H113722   0.335   0.189   4.430
 4572TIP3    H213723   0.191   0.144   4.447
 4573TIP3   OH213724   4.189   5.858   2.228
 4573TIP3    H113725   4.215   5.805   2.303
 4573TIP3    H213726   4.126   5.921   2.264
 4574TIP3   OH213727   5.127   5.693   0.074
 4574TIP3    H113728   5.221   5.694   0.093
 4574TIP3    H213729   5.090   5.756   0.136
 4575TIP3   OH213730   4.440   0.994   0.716
 4575TIP3    H113731   4.408   1.080   0.691
 4575TIP3    H213732   4.532   0.993   0.687
 4576TIP3   OH213733   4.349   2.632   4.557
 4576TIP3    H113734   4.271   2.638   4.502
 4576TIP3    H213735   4.386   2.721   4.556
 4577TIP3   OH213736   4.061   1.020   0.701
 4577TIP3    H113737   3.984   1.015   0.758
 4577TIP3    H213738   4.046   1.099   0.648
 4578TIP3   OH213739   6.070   1.108   4.832
 4578TIP3    H113740   5.988   1.058   4.835
 4578TIP3    H213741   6.114   1.089   4.915
 4579TIP3   OH213742   5.485   3.281   0.063
 4579TIP3    H113743   5.570   3.321   0.043
 4579TIP3    H213744   5.432   3.298  -0.015
 4580TIP3   OH213745   4.592   0.245   4.613
 4580TIP3    H113746   4.683   0.270   4.598
 4580TIP3    H213747   4.579   0.169   4.557
 4581TIP3   OH213748   1.814   5.367   4.360
 4581TIP3    H113749   1.791   5.459   4.373
 4581TIP3    H213750   1.821   5.332   4.449
 4582TIP3   OH213751   4.747   0.468   3.432
 4582TIP3    H113752   4.733   0.386   3.479
 4582TIP3    H213753   4.828   0.503   3.468
 4583TIP3   OH213754   4.786   0.755   1.275
 4583TIP3    H113755   4.743   0.702   1.208
 4583TIP3    H213756   4.831   0.824   1.226
 4584TIP3   OH213757   6.189   1.226   0.808
 4584TIP3    H113758   6.264   1.171   0.787
 4584TIP3    H213759   6.177   1.281   0.730
 4585TIP3   OH213760   3.081   0.713   3.552
 4585TIP3    H113761   3.071   0.807   3.539
 4585TIP3    H213762   3.132   0.706   3.634
 4586TIP3   OH213763   2.166   2.822   1.129
 4586TIP3    H113764   2.165   2.760   1.056
 4586TIP3    H213765   2.114   2.780   1.197
 4587TIP3   OH213766   5.278   2.203   2.933
 4587TIP3    H113767   5.205   2.169   2.984
 4587TIP3    H213768   5.356   2.176   2.981
 4588TIP3   OH213769   1.409   5.330   1.360
 4588TIP3    H113770   1.439   5.242   1.335
 4588TIP3    H213771   1.313   5.322   1.364
 4589TIP3   OH213772   5.069   0.261   1.337
 4589TIP3    H113773   5.090   0.207   1.261
 4589TIP3    H213774   4.974   0.261   1.341
 4590TIP3   OH213775   4.224   2.180   0.640
 4590TIP3    H113776   4.155   2.160   0.703
 4590TIP3    H213777   4.293   2.221   0.693
 4591TIP3   OH213778   5.353   4.108   3.892
 4591TIP3    H113779   5.314   4.190   3.864
 4591TIP3    H213780   5.299   4.040   3.850
 4592TIP3   OH213781   4.877   2.313   4.959
 4592TIP3    H113782   4.904   2.278   4.875
 4592TIP3    H213783   4.935   2.388   4.974
 4593TIP3   OH213784   2.828   5.764   3.567
 4593TIP3    H113785   2.750   5.736   3.615
 4593TIP3    H213786   2.865   5.835   3.620
 4594TIP3   OH213787   1.507   5.591   3.895
 4594TIP3    H113788   1.440   5.539   3.852
 4594TIP3    H213789   1.559   5.527   3.945
 4595TIP3   OH213790   1.007   2.077   2.330
 4595TIP3    H113791   1.048   1.993   2.311
 4595TIP3    H213792   1.059   2.141   2.281
 4596TIP3   OH213793   2.947   4.065   4.504
 4596TIP3    H113794   2.926   4.146   4.457
 4596TIP3    H213795   2.875   4.006   4.481
 4597TIP3   OH213796   6.207   1.788   4.063
 4597TIP3    H113797   6.123   1.752   4.093
 4597TIP3    H213798   6.265   1.781   4.139
 4598TIP3   OH213799   3.598   1.798   0.319
 4598TIP3    H113800   3.590   1.888   0.290
 4598TIP3    H213801   3.519   1.755   0.288
 4599TIP3   OH213802   0.574   5.117   2.349
 4599TIP3    H113803   0.583   5.100   2.255
 4599TIP3    H213804   0.662   5.108   2.384
 4600TIP3   OH213805   5.734   2.754   2.661
 4600TIP3    H113806   5.756   2.673   2.707
 4600TIP3    H213807   5.786   2.750   2.581
 4601TIP3   OH213808   2.816   4.931   1.381
 4601TIP3    H113809   2.746   4.910   1.319
 4601TIP3    H213810   2.776   4.989   1.445
 4602TIP3   OH213811   3.047   5.840   0.914
 4602TIP3    H113812   3.078   5.760   0.956
 4602TIP3    H213813   3.127   5.884   0.885
 4603TIP3   OH213814   1.390   5.145   3.903
 4603TIP3    H113815   1.465   5.203   3.891
 4603TIP3    H213816   1.382   5.136   3.998
 4604TIP3   OH213817   2.223   3.094   1.107
 4604TIP3    H113818   2.191   3.025   1.165
 4604TIP3    H213819   2.168   3.087   1.029
 4605TIP3   OH213820   1.014   3.393   2.579
 4605TIP3    H113821   1.050   3.392   2.668
 4605TIP3    H213822   1.090   3.379   2.522
 4606TIP3   OH213823   3.063   0.160   4.212
 4606TIP3    H113824   3.008   0.210   4.272
 4606TIP3    H213825   3.062   0.211   4.131
 4607TIP3   OH213826   1.151   0.319   4.508
 4607TIP3    H113827   1.211   0.253   4.473
 4607TIP3    H213828   1.123   0.369   4.431
 4608TIP3   OH213829   1.697   1.816   1.380
 4608TIP3    H113830   1.783   1.803   1.420
 4608TIP3    H213831   1.670   1.903   1.409
 4609TIP3   OH213832   0.614   4.447   4.361
 4609TIP3    H113833   0.621   4.356   4.332
 4609TIP3    H213834   0.589   4.440   4.453
 4610TIP3   OH213835   4.846   0.094   0.215
 4610TIP3    H113836   4.875   0.057   0.132
 4610TIP3    H213837   4.923   0.138   0.250
 4611TIP3   OH213838   3.058   3.486   3.964
 4611TIP3    H113839   3.115   3.541   4.018
 4611TIP3    H213840   3.108   3.406   3.949
 4612TIP3   OH213841   4.102   3.093   3.643
 4612TIP3    H113842   4.191   3.060   3.653
 4612TIP3    H213843   4.097   3.167   3.704
 4613TIP3   OH213844   0.401   4.897   1.917
 4613TIP3    H113845   0.495   4.885   1.922
 4613TIP3    H213846   0.371   4.828   1.859
 4614TIP3   OH213847   0.057   1.111   0.733
 4614TIP3    H113848   0.145   1.116   0.770
 4614TIP3    H213849   0.048   1.021   0.704
 4615TIP3   OH213850   2.410   0.837   1.602
 4615TIP3    H113851   2.468   0.899   1.557
 4615TIP3    H213852   2.379   0.885   1.679
 4616TIP3   OH213853   4.612   2.270   0.544
 4616TIP3    H113854   4.560   2.290   0.622
 4616TIP3    H213855   4.549   2.268   0.472
 4617TIP3   OH213856   3.736   3.975   1.164
 4617TIP3    H113857   3.653   4.010   1.196
 4617TIP3    H213858   3.716   3.885   1.140
 4618TIP3   OH213859   3.082   4.226   1.838
 4618TIP3    H113860   3.127   4.142   1.845
 4618TIP3    H213861   3.002   4.206   1.788
 4619TIP3   OH213862   2.952   5.085   3.506
 4619TIP3    H113863   3.045   5.091   3.531
 4619TIP3    H213864   2.928   4.994   3.526
 4620TIP3   OH213865   0.210   0.926   2.770
 4620TIP3    H113866   0.303   0.924   2.749
 4620TIP3    H213867   0.168   0.883   2.696
 4621TIP3   OH213868   1.298   2.401   4.653
 4621TIP3    H113869   1.345   2.375   4.733
 4621TIP3    H213870   1.340   2.352   4.583
 4622TIP3   OH213871   0.875   1.159   0.262
 4622TIP3    H113872   0.851   1.134   0.351
 4622TIP3    H213873   0.966   1.190   0.269
 4623TIP3   OH213874   3.337   1.639   1.815
 4623TIP3    H113875   3.292   1.558   1.792
 4623TIP3    H213876   3.422   1.633   1.772
 4624TIP3   OH213877   3.087   4.662   1.083
 4624TIP3    H113878   3.030   4.725   1.038
 4624TIP3    H213879   3.091   4.693   1.173
 4625TIP3   OH213880   5.317   1.217   2.289
 4625TIP3    H113881   5.301   1.266   2.370
 4625TIP3    H213882   5.320   1.126   2.316
 4626TIP3   OH213883   3.232   1.269   3.659
 4626TIP3    H113884   3.286   1.254   3.582
 4626TIP3    H213885   3.216   1.181   3.695
 4627TIP3   OH213886   5.137   0.682   3.009
 4627TIP3    H113887   5.074   0.648   3.073
 4627TIP3    H213888   5.222   0.652   3.041
 4628TIP3   OH213889   3.133   5.766   2.882
 4628TIP3    H113890   3.191   5.727   2.947
 4628TIP3    H213891   3.054   5.789   2.930
 4629TIP3   OH213892   5.947   2.292   3.185
 4629TIP3    H113893   5.871   2.273   3.240
 4629TIP3    H213894   6.020   2.251   3.230
 4630TIP3   OH213895   0.492   5.622   4.863
 4630TIP3    H113896   0.553   5.662   4.925
 4630TIP3    H213897   0.525   5.646   4.777
 4631TIP3   OH213898   0.480   1.706   0.622
 4631TIP3    H113899   0.555   1.696   0.679
 4631TIP3    H213900   0.514   1.689   0.534
 4632TIP3   OH213901   2.877   4.670   0.178
 4632TIP3    H113902   2.840   4.589   0.142
 4632TIP3    H213903   2.802   4.728   0.190
 4633TIP3   OH213904   6.216   3.276   2.893
 4633TIP3    H113905   6.293   3.327   2.921
 4633TIP3    H213906   6.142   3.326   2.928
 4634TIP3   OH213907   6.291   1.635   0.026
 4634TIP3    H113908   6.268   1.619   0.117
 4634TIP3    H213909   6.321   1.550  -0.007
 4635TIP3   OH213910   6.161   4.420   1.421
 4635TIP3    H113911   6.233   4.481   1.435
 4635TIP3    H213912   6.177   4.385   1.333
 4636TIP3   OH213913   0.570   5.361   3.862
 4636TIP3    H113914   0.651   5.319   3.892
 4636TIP3    H213915   0.598   5.446   3.829
 4637TIP3   OH213916   1.463   0.704   1.110
 4637TIP3    H113917   1.426   0.639   1.169
 4637TIP3    H213918   1.480   0.656   1.029
 4638TIP3   OH213919   5.744   1.503   4.542
 4638TIP3    H113920   5.713   1.426   4.494
 4638TIP3    H213921   5.667   1.536   4.588
 4639TIP3   OH213922   4.086   1.222   3.305
 4639TIP3    H113923   4.172   1.180   3.307
 4639TIP3    H213924   4.047   1.201   3.390
 4640TIP3   OH213925   3.958   3.626   2.727
 4640TIP3    H113926   3.901   3.550   2.724
 4640TIP3    H213927   3.976   3.647   2.635
 4641TIP3   OH213928   5.473   5.433   4.496
 4641TIP3    H113929   5.513   5.504   4.445
 4641TIP3    H213930   5.492   5.456   4.587
 4642TIP3   OH213931   1.157   0.266   3.394
 4642TIP3    H113932   1.235   0.216   3.369
 4642TIP3    H213933   1.104   0.270   3.314
 4643TIP3   OH213934   4.991   3.201   4.204
 4643TIP3    H113935   5.011   3.112   4.233
 4643TIP3    H213936   4.898   3.212   4.222
 4644TIP3   OH213937   4.729   1.761   2.712
 4644TIP3    H113938   4.785   1.734   2.784
 4644TIP3    H213939   4.652   1.800   2.754
 4645TIP3   OH213940   1.937   3.357   1.453
 4645TIP3    H113941   1.909   3.266   1.460
 4645TIP3    H213942   1.945   3.387   1.543
 4646TIP3   OH213943   2.709   1.439   0.279
 4646TIP3    H113944   2.667   1.525   0.287
 4646TIP3    H213945   2.803   1.458   0.277
 4647TIP3   OH213946   4.442   5.098   1.405
 4647TIP3    H113947   4.384   5.027   1.436
 4647TIP3    H213948   4.435   5.095   1.310
 4648TIP3   OH213949   4.846   3.994   4.286
 4648TIP3    H113950   4.907   4.067   4.285
 4648TIP3    H213951   4.885   3.929   4.228
 4649TIP3   OH213952   1.070   0.397   0.941
 4649TIP3    H113953   1.095   0.489   0.938
 4649TIP3    H213954   1.010   0.390   1.015
 4650TIP3   OH213955   5.619   3.365   1.913
 4650TIP3    H113956   5.532   3.404   1.917
 4650TIP3    H213957   5.604   3.280   1.870
 4651TIP3   OH213958   1.384   6.025   0.052
 4651TIP3    H113959   1.426   6.010  -0.032
 4651TIP3    H213960   1.393   5.941   0.098
 4652TIP3   OH213961   1.754   3.751   1.397
 4652TIP3    H113962   1.836   3.704   1.408
 4652TIP3    H213963   1.708   3.705   1.327
 4653TIP3   OH213964   4.982   4.907   3.613
 4653TIP3    H113965   4.913   4.841   3.623
 4653TIP3    H213966   4.942   4.988   3.643
 4654TIP3   OH213967   3.647   0.435   2.449
 4654TIP3    H113968   3.559   0.399   2.442
 4654TIP3    H213969   3.681   0.435   2.360
 4655TIP3   OH213970   0.268   1.148   1.162
 4655TIP3    H113971   0.274   1.154   1.067
 4655TIP3    H213972   0.264   1.054   1.180
 4656TIP3   OH213973   1.943   0.920   0.412
 4656TIP3    H113974   2.030   0.923   0.452
 4656TIP3    H213975   1.934   1.004   0.367
 4657TIP3   OH213976   3.498   3.250   2.693
 4657TIP3    H113977   3.413   3.276   2.658
 4657TIP3    H213978   3.534   3.190   2.626
 4658TIP3   OH213979   3.940   5.549   1.830
 4658TIP3    H113980   3.941   5.589   1.917
 4658TIP3    H213981   3.909   5.619   1.772
 4659TIP3   OH213982   2.865   2.746   1.657
 4659TIP3    H113983   2.801   2.675   1.664
 4659TIP3    H213984   2.889   2.747   1.564
 4660TIP3   OH213985   3.984   5.722   2.037
 4660TIP3    H113986   4.064   5.707   2.087
 4660TIP3    H213987   4.002   5.803   1.987
 4661TIP3   OH213988   4.566   5.152   3.228
 4661TIP3    H113989   4.621   5.075   3.242
 4661TIP3    H213990   4.605   5.220   3.284
 4662TIP3   OH213991   4.225   0.825   1.191
 4662TIP3    H113992   4.312   0.840   1.227
 4662TIP3    H213993   4.238   0.824   1.096
 4663TIP3   OH213994   1.151   5.587   0.571
 4663TIP3    H113995   1.076   5.568   0.514
 4663TIP3    H213996   1.128   5.544   0.654
 4664TIP3   OH213997   3.820   5.533   3.599
 4664TIP3    H113998   3.787   5.609   3.550
 4664TIP3    H213999   3.905   5.561   3.632
 4665TIP3   OH214000   4.359   3.848   1.341
 4665TIP3    H114001   4.373   3.756   1.360
 4665TIP3    H214002   4.446   3.887   1.342
 4666TIP3   OH214003   0.033   4.832   3.318
 4666TIP3    H114004   0.087   4.888   3.262
 4666TIP3    H214005  -0.019   4.893   3.370
 4667TIP3   OH214006   3.342   3.820   4.769
 4667TIP3    H114007   3.338   3.804   4.675
 4667TIP3    H214008   3.305   3.740   4.808
 4668TIP3   OH214009   6.147   5.094   1.563
 4668TIP3    H114010   6.118   5.003   1.567
 4668TIP3    H214011   6.118   5.124   1.477
 4669TIP3   OH214012   4.499   3.412   4.442
 4669TIP3    H114013   4.412   3.452   4.446
 4669TIP3    H214014   4.554   3.468   4.495
 4670TIP3   OH214015   1.864   3.818   3.655
 4670TIP3    H114016   1.913   3.900   3.654
 4670TIP3    H214017   1.774   3.844   3.673
 4671TIP3   OH214018   4.229   1.658   0.283
 4671TIP3    H114019   4.209   1.746   0.250
 4671TIP3    H214020   4.280   1.673   0.362
 4672TIP3   OH214021   4.962   2.072   1.562
 4672TIP3    H114022   5.013   2.134   1.615
 4672TIP3    H214023   4.919   2.127   1.496
 4673TIP3   OH214024   2.427   4.538   1.329
 4673TIP3    H114025   2.415   4.600   1.257
 4673TIP3    H214026   2.376   4.461   1.302
 4674TIP3   OH214027   3.990   1.732   4.677
 4674TIP3    H114028   3.904   1.691   4.685
 4674TIP3    H214029   4.032   1.686   4.604
 4675TIP3   OH214030   3.879   0.861   4.208
 4675TIP3    H114031   3.894   0.793   4.273
 4675TIP3    H214032   3.808   0.827   4.154
 4676TIP3   OH214033   4.479   1.696   0.833
 4676TIP3    H114034   4.447   1.754   0.764
 4676TIP3    H214035   4.460   1.744   0.914
 4677TIP3   OH214036   6.322   1.325   4.053
 4677TIP3    H114037   6.319   1.281   4.138
 4677TIP3    H214038   6.355   1.413   4.073
 4678TIP3   OH214039   4.320   1.832   5.056
 4678TIP3    H114040   4.263   1.763   5.023
 4678TIP3    H214041   4.406   1.812   5.018
 4679TIP3   OH214042   2.468   4.415   4.630
 4679TIP3    H114043   2.525   4.448   4.560
 4679TIP3    H214044   2.477   4.480   4.700
 4680TIP3   OH214045   5.327   1.707   2.791
 4680TIP3    H114046   5.254   1.645   2.795
 4680TIP3    H214047   5.317   1.761   2.869
 4681TIP3   OH214048   0.504   5.642   3.568
 4681TIP3    H114049   0.448   5.605   3.500
 4681TIP3    H214050   0.458   5.625   3.650
 4682TIP3   OH214051   5.153   3.625   3.885
 4682TIP3    H114052   5.204   3.586   3.814
 4682TIP3    H214053   5.189   3.586   3.965
 4683TIP3   OH214054   1.572   1.375   4.171
 4683TIP3    H114055   1.656   1.342   4.202
 4683TIP3    H214056   1.534   1.418   4.248
 4684TIP3   OH214057   2.956   1.722   2.425
 4684TIP3    H114058   2.975   1.708   2.517
 4684TIP3    H214059   3.009   1.797   2.399
 4685TIP3   OH214060   0.725   5.618   0.596
 4685TIP3    H114061   0.783   5.670   0.651
 4685TIP3    H214062   0.682   5.682   0.539
 4686TIP3   OH214063   0.481   1.063   4.232
 4686TIP3    H114064   0.515   1.008   4.302
 4686TIP3    H214065   0.450   1.001   4.165
 4687TIP3   OH214066   0.884   2.429   4.829
 4687TIP3    H114067   0.911   2.338   4.840
 4687TIP3    H214068   0.817   2.426   4.761
 4688TIP3   OH214069   3.303   4.125   0.610
 4688TIP3    H114070   3.242   4.150   0.680
 4688TIP3    H214071   3.253   4.136   0.530
 4689TIP3   OH214072   1.413   2.933   3.180
 4689TIP3    H114073   1.375   2.871   3.117
 4689TIP3    H214074   1.492   2.890   3.212
 4690TIP3   OH214075   0.541   2.646   2.148
 4690TIP3    H114076   0.633   2.670   2.157
 4690TIP3    H214077   0.543   2.556   2.116
 4691TIP3   OH214078   3.382   3.882   2.419
 4691TIP3    H114079   3.289   3.888   2.438
 4691TIP3    H214080   3.405   3.967   2.381
 4692TIP3   OH214081   1.477   1.856   4.333
 4692TIP3    H114082   1.524   1.898   4.404
 4692TIP3    H214083   1.517   1.891   4.253
 4693TIP3   OH214084   1.376   3.813   4.255
 4693TIP3    H114085   1.338   3.815   4.342
 4693TIP3    H214086   1.355   3.899   4.218
 4694TIP3   OH214087   4.933   3.317   4.541
 4694TIP3    H114088   4.937   3.246   4.606
 4694TIP3    H214089   5.023   3.329   4.513
 4695TIP3   OH214090   0.294   1.427   4.437
 4695TIP3    H114091   0.360   1.497   4.439
 4695TIP3    H214092   0.250   1.434   4.522
 4696TIP3   OH214093   2.682   0.952   2.564
 4696TIP3    H114094   2.598   0.949   2.609
 4696TIP3    H214095   2.744   0.979   2.631
 4697TIP3   OH214096   0.781   3.156   3.030
 4697TIP3    H114097   0.713   3.103   2.989
 4697TIP3    H214098   0.845   3.093   3.063
 4698TIP3   OH214099   4.357   1.087   1.658
 4698TIP3    H114100   4.342   0.993   1.654
 4698TIP3    H214101   4.271   1.126   1.641
 4699TIP3   OH214102   5.241   5.510   1.662
 4699TIP3    H114103   5.330   5.476   1.672
 4699TIP3    H214104   5.194   5.476   1.738
 4700TIP3   OH214105   0.590   1.544   3.921
 4700TIP3    H114106   0.566   1.564   4.011
 4700TIP3    H214107   0.666   1.485   3.929
 4701TIP3   OH214108   1.252   1.564   1.641
 4701TIP3    H114109   1.203   1.621   1.583
 4701TIP3    H214110   1.184   1.517   1.690
 4702TIP3   OH214111   1.037   1.637   1.440
 4702TIP3    H114112   0.951   1.615   1.477
 4702TIP3    H214113   1.028   1.727   1.409
 4703TIP3   OH214114   4.653   5.694   2.645
 4703TIP3    H114115   4.569   5.688   2.599
 4703TIP3    H214116   4.664   5.787   2.664
 4704TIP3   OH214117   5.230   2.860   3.535
 4704TIP3    H114118   5.301   2.920   3.513
 4704TIP3    H214119   5.154   2.896   3.488
 4705TIP3   OH214120   2.146   4.165   2.828
 4705TIP3    H114121   2.075   4.108   2.856
 4705TIP3    H214122   2.220   4.105   2.811
 4706TIP3   OH214123   2.098   2.603   5.163
 4706TIP3    H114124   2.154   2.641   5.094
 4706TIP3    H214125   2.009   2.624   5.135
 4707TIP3   OH214126   6.224   3.275   3.709
 4707TIP3    H114127   6.131   3.292   3.695
 4707TIP3    H214128   6.268   3.352   3.674
 4708TIP3   OH214129   5.016   2.793   4.973
 4708TIP3    H114130   4.996   2.773   4.882
 4708TIP3    H214131   5.063   2.876   4.969
 4709TIP3   OH214132   4.322   2.892   4.901
 4709TIP3    H114133   4.362   2.972   4.868
 4709TIP3    H214134   4.346   2.890   4.994
 4710TIP3   OH214135   3.942   3.176   4.529
 4710TIP3    H114136   3.904   3.116   4.466
 4710TIP3    H214137   3.983   3.244   4.475
 4711TIP3   OH214138   2.087   5.965   3.644
 4711TIP3    H114139   2.129   6.047   3.671
 4711TIP3    H214140   2.124   5.898   3.701
 4712TIP3   OH214141   5.838   4.809   3.987
 4712TIP3    H114142   5.809   4.745   4.053
 4712TIP3    H214143   5.801   4.892   4.016
 4713TIP3   OH214144   5.703   1.277   2.440
 4713TIP3    H114145   5.656   1.261   2.358
 4713TIP3    H214146   5.658   1.222   2.504
 4714TIP3   OH214147   5.772   5.166   0.869
 4714TIP3    H114148   5.756   5.113   0.791
 4714TIP3    H214149   5.864   5.151   0.890
 4715TIP3   OH214150   4.738   2.779   5.077
 4715TIP3    H114151   4.715   2.707   5.018
 4715TIP3    H214152   4.833   2.780   5.079
 4716TIP3   OH214153   3.815   3.097   2.025
 4716TIP3    H114154   3.779   3.010   2.045
 4716TIP3    H214155   3.741   3.157   2.036
 4717TIP3   OH214156   2.662   4.219   1.443
 4717TIP3    H114157   2.670   4.152   1.375
 4717TIP3    H214158   2.689   4.300   1.401
 4718TIP3   OH214159   1.291   1.504   2.229
 4718TIP3    H114160   1.377   1.464   2.218
 4718TIP3    H214161   1.279   1.510   2.324
 4719TIP3   OH214162   1.717   2.763   1.898
 4719TIP3    H114163   1.685   2.727   1.815
 4719TIP3    H214164   1.763   2.843   1.872
 4720TIP3   OH214165   2.057   1.388   4.636
 4720TIP3    H114166   2.005   1.429   4.568
 4720TIP3    H214167   2.070   1.456   4.702
 4721TIP3   OH214168   2.349   0.870   2.972
 4721TIP3    H114169   2.262   0.908   2.966
 4721TIP3    H214170   2.403   0.939   3.012
 4722TIP3   OH214171   0.310   1.551   1.165
 4722TIP3    H114172   0.375   1.616   1.141
 4722TIP3    H214173   0.302   1.558   1.260
 4723TIP3   OH214174   4.526   5.418   3.097
 4723TIP3    H114175   4.516   5.493   3.038
 4723TIP3    H214176   4.613   5.384   3.079
 4724TIP3   OH214177   0.957   2.014   0.487
 4724TIP3    H114178   0.905   2.048   0.559
 4724TIP3    H214179   0.937   2.072   0.413
 4725TIP3   OH214180   4.442   5.313   0.567
 4725TIP3    H114181   4.492   5.281   0.643
 4725TIP3    H214182   4.363   5.352   0.605
 4726TIP3   OH214183   1.576   3.689   1.847
 4726TIP3    H114184   1.566   3.603   1.805
 4726TIP3    H214185   1.626   3.741   1.784
 4727TIP3   OH214186   5.630   4.937   2.711
 4727TIP3    H114187   5.584   4.972   2.635
 4727TIP3    H214188   5.688   5.007   2.739
 4728TIP3   OH214189   3.423   4.586   4.940
 4728TIP3    H114190   3.464   4.562   5.023
 4728TIP3    H214191   3.427   4.506   4.887
 4729TIP3   OH214192   1.208   2.694   1.074
 4729TIP3    H114193   1.301   2.675   1.066
 4729TIP3    H214194   1.170   2.616   1.114
 4730TIP3   OH214195   0.066   0.884   3.472
 4730TIP3    H114196   0.095   0.974   3.486
 4730TIP3    H214197  -0.020   0.893   3.432
 4731TIP3   OH214198   0.793   3.721   0.969
 4731TIP3    H114199   0.789   3.800   0.915
 4731TIP3    H214200   0.836   3.749   1.049
 4732TIP3   OH214201   2.144   1.400   2.142
 4732TIP3    H114202   2.207   1.353   2.198
 4732TIP3    H214203   2.058   1.376   2.177
 4733TIP3   OH214204   0.210   2.502   1.189
 4733TIP3    H114205   0.166   2.559   1.251
 4733TIP3    H214206   0.249   2.562   1.125
 4734TIP3   OH214207   4.051   4.277   4.886
 4734TIP3    H114208   4.121   4.253   4.947
 4734TIP3    H214209   4.098   4.299   4.805
 4735TIP3   OH214210   3.450   3.911   2.686
 4735TIP3    H114211   3.439   3.883   2.595
 4735TIP3    H214212   3.487   3.999   2.680
 4736TIP3   OH214213   1.060   0.625   4.609
 4736TIP3    H114214   1.155   0.622   4.622
 4736TIP3    H214215   1.046   0.582   4.524
 4737TIP3   OH214216   3.360   3.017   1.166
 4737TIP3    H114217   3.433   2.964   1.198
 4737TIP3    H214218   3.299   2.952   1.129
 4738TIP3   OH214219   5.045   2.668   0.201
 4738TIP3    H114220   5.085   2.643   0.118
 4738TIP3    H214221   5.076   2.603   0.264
 4739TIP3   OH214222   4.796   5.537   4.755
 4739TIP3    H114223   4.832   5.455   4.722
 4739TIP3    H214224   4.869   5.598   4.753
 4740TIP3   OH214225   5.415   0.304   4.537
 4740TIP3    H114226   5.499   0.289   4.579
 4740TIP3    H214227   5.377   0.378   4.585
 4741TIP3   OH214228   6.083   5.569   3.197
 4741TIP3    H114229   6.068   5.475   3.198
 4741TIP3    H214230   6.106   5.591   3.288
 4742TIP3   OH214231   1.415   4.086   2.854
 4742TIP3    H114232   1.471   4.163   2.842
 4742TIP3    H214233   1.476   4.013   2.864
 4743TIP3   OH214234   1.101   4.129   0.790
 4743TIP3    H114235   1.087   4.059   0.726
 4743TIP3    H214236   1.013   4.161   0.810
 4744TIP3   OH214237   0.921   5.430   3.918
 4744TIP3    H114238   0.999   5.474   3.953
 4744TIP3    H214239   0.920   5.452   3.825
 4745TIP3   OH214240   3.768   1.488   0.967
 4745TIP3    H114241   3.725   1.403   0.957
 4745TIP3    H214242   3.706   1.550   0.928
 4746TIP3   OH214243   6.297   4.089   4.340
 4746TIP3    H114244   6.356   4.150   4.297
 4746TIP3    H214245   6.286   4.018   4.276
 4747TIP3   OH214246   0.847   3.195   1.367
 4747TIP3    H114247   0.910   3.123   1.375
 4747TIP3    H214248   0.815   3.188   1.277
 4748TIP3   OH214249   1.058   3.856   0.316
 4748TIP3    H114250   1.031   3.884   0.229
 4748TIP3    H214251   1.112   3.779   0.301
 4749TIP3   OH214252   4.129   5.479   2.567
 4749TIP3    H114253   4.129   5.470   2.662
 4749TIP3    H214254   4.159   5.394   2.534
 4750TIP3   OH214255   2.579   0.065   2.035
 4750TIP3    H114256   2.568  -0.009   2.095
 4750TIP3    H214257   2.511   0.053   1.969
 4751TIP3   OH214258   5.097   2.069   3.097
 4751TIP3    H114259   5.085   2.049   3.190
 4751TIP3    H214260   5.021   2.123   3.074
 4752TIP3   OH214261   0.773   0.926   1.812
 4752TIP3    H114262   0.701   0.987   1.830
 4752TIP3    H214263   0.746   0.845   1.855
 4753TIP3   OH214264   5.369   0.148   0.601
 4753TIP3    H114265   5.411   0.137   0.516
 4753TIP3    H214266   5.311   0.072   0.610
 4754TIP3   OH214267   2.071   1.829   4.795
 4754TIP3    H114268   2.098   1.882   4.870
 4754TIP3    H214269   1.991   1.870   4.763
 4755TIP3   OH214270   0.394   4.172   2.014
 4755TIP3    H114271   0.449   4.098   2.041
 4755TIP3    H214272   0.361   4.147   1.928
 4756TIP3   OH214273   2.815   5.075   1.997
 4756TIP3    H114274   2.878   5.140   1.967
 4756TIP3    H214275   2.865   4.994   2.004
 4757TIP3   OH214276   1.700   5.251   0.736
 4757TIP3    H114277   1.624   5.292   0.694
 4757TIP3    H214278   1.776   5.298   0.701
 4758TIP3   OH214279   0.469   0.124   3.575
 4758TIP3    H114280   0.490   0.080   3.657
 4758TIP3    H214281   0.461   0.216   3.598
 4759TIP3   OH214282   4.495   0.395   0.032
 4759TIP3    H114283   4.485   0.377   0.126
 4759TIP3    H214284   4.406   0.397  -0.002
 4760TIP3   OH214285   0.100   3.881   2.233
 4760TIP3    H114286   0.068   3.831   2.308
 4760TIP3    H214287   0.114   3.969   2.268
 4761TIP3   OH214288   4.504   5.995   4.831
 4761TIP3    H114289   4.595   5.972   4.849
 4761TIP3    H214290   4.483   5.949   4.750
 4762TIP3   OH214291   4.316   1.066   1.944
 4762TIP3    H114292   4.235   1.116   1.940
 4762TIP3    H214293   4.331   1.037   1.854
 4763TIP3   OH214294   0.242   5.274   0.921
 4763TIP3    H114295   0.250   5.339   0.991
 4763TIP3    H214296   0.247   5.325   0.840
 4764TIP3   OH214297   6.279   5.472   1.710
 4764TIP3    H114298   6.329   5.535   1.761
 4764TIP3    H214299   6.258   5.518   1.629
 4765TIP3   OH214300   2.293   0.133   0.195
 4765TIP3    H114301   2.224   0.161   0.255
 4765TIP3    H214302   2.373   0.136   0.247
 4766TIP3   OH214303   3.900   1.979   4.866
 4766TIP3    H114304   3.892   1.987   4.961
 4766TIP3    H214305   3.945   2.059   4.839
 4767TIP3   OH214306   4.366   5.044   2.693
 4767TIP3    H114307   4.449   5.003   2.671
 4767TIP3    H214308   4.332   4.992   2.767
 4768TIP3   OH214309   1.723   1.150   0.450
 4768TIP3    H114310   1.664   1.131   0.523
 4768TIP3    H214311   1.665   1.183   0.381
 4769TIP3   OH214312   1.779   1.025   3.330
 4769TIP3    H114313   1.790   0.945   3.279
 4769TIP3    H214314   1.722   1.080   3.276
 4770TIP3   OH214315   0.583   0.758   1.082
 4770TIP3    H114316   0.620   0.670   1.092
 4770TIP3    H214317   0.655   0.817   1.104
 4771TIP3   OH214318   3.462   3.255   0.728
 4771TIP3    H114319   3.415   3.211   0.799
 4771TIP3    H214320   3.529   3.192   0.701
 4772TIP3   OH214321   2.510   1.608   3.696
 4772TIP3    H114322   2.523   1.622   3.602
 4772TIP3    H214323   2.541   1.688   3.737
 4773TIP3   OH214324   3.499   1.494   2.872
 4773TIP3    H114325   3.501   1.429   2.802
 4773TIP3    H214326   3.589   1.496   2.905
 4774TIP3   OH214327   4.304   4.600   3.292
 4774TIP3    H114328   4.311   4.629   3.383
 4774TIP3    H214329   4.300   4.681   3.241
 4775TIP3   OH214330   6.343   5.012   1.902
 4775TIP3    H114331   6.295   5.090   1.929
 4775TIP3    H214332   6.275   4.950   1.875
 4776TIP3   OH214333   1.433   3.911   4.720
 4776TIP3    H114334   1.526   3.935   4.711
 4776TIP3    H214335   1.429   3.821   4.689
 4777TIP3   OH214336   6.005   5.178   1.186
 4777TIP3    H114337   5.920   5.134   1.193
 4777TIP3    H214338   5.993   5.239   1.113
 4778TIP3   OH214339   4.229   1.447   2.560
 4778TIP3    H114340   4.276   1.510   2.505
 4778TIP3    H214341   4.249   1.362   2.520
 4779TIP3   OH214342   3.934   3.244   3.275
 4779TIP3    H114343   3.996   3.172   3.262
 4779TIP3    H214344   3.867   3.207   3.332
 4780TIP3   OH214345   0.825   2.585   1.517
 4780TIP3    H114346   0.770   2.507   1.523
 4780TIP3    H214347   0.896   2.570   1.580
 4781TIP3   OH214348   1.435   4.247   4.157
 4781TIP3    H114349   1.479   4.331   4.159
 4781TIP3    H214350   1.403   4.238   4.067
 4782TIP3   OH214351   3.724   2.644   0.251
 4782TIP3    H114352   3.780   2.700   0.197
 4782TIP3    H214353   3.670   2.705   0.302
 4783TIP3   OH214354   2.088   5.584   0.512
 4783TIP3    H114355   2.084   5.672   0.548
 4783TIP3    H214356   2.160   5.586   0.449
 4784TIP3   OH214357   0.413   4.161   3.485
 4784TIP3    H114358   0.415   4.228   3.553
 4784TIP3    H214359   0.376   4.204   3.409
 4785TIP3   OH214360   4.618   4.631   4.806
 4785TIP3    H114361   4.630   4.686   4.884
 4785TIP3    H214362   4.704   4.627   4.766
 4786TIP3   OH214363  -0.005   2.988   1.700
 4786TIP3    H114364   0.034   3.038   1.772
 4786TIP3    H214365   0.056   2.916   1.686
 4787TIP3   OH214366   1.425   0.992   2.621
 4787TIP3    H114367   1.347   0.941   2.641
 4787TIP3    H214368   1.456   0.956   2.538
 4788TIP3   OH214369   0.165   1.179   2.461
 4788TIP3    H114370   0.072   1.157   2.461
 4788TIP3    H214371   0.185   1.193   2.368
 4789TIP3   OH214372   0.398   0.633   4.611
 4789TIP3    H114373   0.411   0.726   4.629
 4789TIP3    H214374   0.323   0.608   4.665
 4790TIP3   OH214375   3.512   2.979   3.290
 4790TIP3    H114376   3.448   3.017   3.230
 4790TIP3    H214377   3.567   2.923   3.234
 4791TIP3   OH214378   6.272   0.070   4.729
 4791TIP3    H114379   6.292   0.001   4.792
 4791TIP3    H214380   6.246   0.145   4.783
 4792TIP3   OH214381   1.465   5.358   0.229
 4792TIP3    H114382   1.407   5.432   0.243
 4792TIP3    H214383   1.420   5.304   0.163
 4793TIP3   OH214384   0.169   2.398   5.079
 4793TIP3    H114385   0.180   2.342   5.002
 4793TIP3    H214386   0.076   2.392   5.100
 4794TIP3   OH214387   5.478   4.291   2.656
 4794TIP3    H114388   5.449   4.211   2.613
 4794TIP3    H214389   5.566   4.272   2.688
 4795TIP3   OH214390   3.460   1.941   2.384
 4795TIP3    H114391   3.542   1.913   2.344
 4795TIP3    H214392   3.407   1.972   2.310
 4796TIP3   OH214393   2.340   2.908   5.042
 4796TIP3    H114394   2.343   2.994   5.002
 4796TIP3    H214395   2.322   2.925   5.135
 4797TIP3   OH214396   2.038   5.084   2.799
 4797TIP3    H114397   1.994   5.088   2.884
 4797TIP3    H214398   2.081   5.170   2.790
 4798TIP3   OH214399   6.273   5.318   5.137
 4798TIP3    H114400   6.279   5.371   5.058
 4798TIP3    H214401   6.183   5.286   5.138
 4799TIP3   OH214402   5.627   1.593   0.514
 4799TIP3    H114403   5.664   1.520   0.465
 4799TIP3    H214404   5.675   1.670   0.482
 4800TIP3   OH214405   4.237   4.075   3.379
 4800TIP3    H114406   4.257   4.083   3.286
 4800TIP3    H214407   4.294   4.139   3.421
 4801TIP3   OH214408   2.036   0.323   4.406
 4801TIP3    H114409   2.119   0.368   4.423
 4801TIP3    H214410   2.057   0.260   4.337
 4802TIP3   OH214411   5.920   1.994   1.023
 4802TIP3    H114412   5.913   1.924   1.087
 4802TIP3    H214413   5.842   2.048   1.036
 4803TIP3   OH214414   2.376   5.604   2.624
 4803TIP3    H114415   2.290   5.567   2.603
 4803TIP3    H214416   2.382   5.598   2.720
 4804TIP3   OH214417   1.084   1.639   4.009
 4804TIP3    H114418   1.130   1.659   4.091
 4804TIP3    H214419   1.145   1.582   3.961
 4805TIP3   OH214420   1.549   0.265   1.502
 4805TIP3    H114421   1.613   0.296   1.565
 4805TIP3    H214422   1.586   0.289   1.417
 4806TIP3   OH214423   0.544   1.326   4.773
 4806TIP3    H114424   0.457   1.367   4.777
 4806TIP3    H214425   0.555   1.304   4.680
 4807TIP3   OH214426   3.378   3.492   1.957
 4807TIP3    H114427   3.402   3.414   1.908
 4807TIP3    H214428   3.450   3.506   2.018
 4808TIP3   OH214429   3.102   3.383   2.043
 4808TIP3    H114430   3.138   3.472   2.047
 4808TIP3    H214431   3.010   3.393   2.068
 4809TIP3   OH214432   3.402   0.239   3.742
 4809TIP3    H114433   3.461   0.179   3.696
 4809TIP3    H214434   3.394   0.202   3.830
 4810TIP3   OH214435   4.576   1.360   5.081
 4810TIP3    H114436   4.533   1.402   5.007
 4810TIP3    H214437   4.666   1.345   5.051
 4811TIP3   OH214438   0.111   4.749   1.896
 4811TIP3    H114439   0.110   4.844   1.891
 4811TIP3    H214440   0.076   4.729   1.983
 4812TIP3   OH214441   1.581   2.856   4.446
 4812TIP3    H114442   1.606   2.784   4.504
 4812TIP3    H214443   1.538   2.813   4.372
 4813TIP3   OH214444   3.303   3.442   3.166
 4813TIP3    H114445   3.292   3.363   3.113
 4813TIP3    H214446   3.395   3.442   3.192
 4814TIP3   OH214447   4.577   1.926   3.501
 4814TIP3    H114448   4.571   2.022   3.508
 4814TIP3    H214449   4.609   1.898   3.587
 4815TIP3   OH214450   1.535   4.432   3.130
 4815TIP3    H114451   1.504   4.423   3.040
 4815TIP3    H214452   1.586   4.353   3.146
 4816TIP3   OH214453   1.972   1.568   3.224
 4816TIP3    H114454   1.924   1.651   3.222
 4816TIP3    H214455   2.003   1.556   3.134
 4817TIP3   OH214456   3.799   5.428   3.002
 4817TIP3    H114457   3.781   5.488   3.075
 4817TIP3    H214458   3.812   5.486   2.926
 4818TIP3   OH214459   3.833   0.149   0.897
 4818TIP3    H114460   3.800   0.226   0.851
 4818TIP3    H214461   3.779   0.077   0.865
 4819TIP3   OH214462   5.124   5.068   0.260
 4819TIP3    H114463   5.067   5.110   0.196
 4819TIP3    H214464   5.066   5.010   0.309
 4820TIP3   OH214465   1.733   3.819   1.650
 4820TIP3    H114466   1.772   3.802   1.564
 4820TIP3    H214467   1.662   3.882   1.632
 4821TIP3   OH214468   2.404   5.309   3.113
 4821TIP3    H114469   2.410   5.222   3.151
 4821TIP3    H214470   2.455   5.304   3.032
 4822TIP3   OH214471   3.746   2.571   0.813
 4822TIP3    H114472   3.671   2.588   0.869
 4822TIP3    H214473   3.709   2.565   0.725
 4823TIP3   OH214474   6.072   2.972   1.319
 4823TIP3    H114475   6.079   2.880   1.293
 4823TIP3    H214476   6.002   3.008   1.264
 4824TIP3   OH214477   3.836   4.878   4.119
 4824TIP3    H114478   3.915   4.931   4.114
 4824TIP3    H214479   3.824   4.861   4.212
 4825TIP3   OH214480   1.813   4.268   2.027
 4825TIP3    H114481   1.737   4.289   2.081
 4825TIP3    H214482   1.810   4.330   1.955
 4826TIP3   OH214483   5.271   1.321   1.476
 4826TIP3    H114484   5.345   1.267   1.448
 4826TIP3    H214485   5.256   1.381   1.404
 4827TIP3   OH214486   3.945   3.719   0.117
 4827TIP3    H114487   3.929   3.813   0.110
 4827TIP3    H214488   3.859   3.679   0.109
 4828TIP3   OH214489   6.313   0.404   4.760
 4828TIP3    H114490   6.275   0.482   4.800
 4828TIP3    H214491   6.254   0.383   4.687
 4829TIP3   OH214492   5.355   5.522   3.423
 4829TIP3    H114493   5.352   5.427   3.415
 4829TIP3    H214494   5.264   5.548   3.436
 4830TIP3   OH214495   3.865   4.898   0.950
 4830TIP3    H114496   3.791   4.838   0.938
 4830TIP3    H214497   3.933   4.863   0.893
 4831TIP3   OH214498   5.356   1.631   0.946
 4831TIP3    H114499   5.344   1.556   0.887
 4831TIP3    H214500   5.282   1.626   1.006
 4832TIP3   OH214501   3.997   3.139   0.879
 4832TIP3    H114502   4.086   3.103   0.883
 4832TIP3    H214503   3.944   3.078   0.930
 4833TIP3   OH214504   2.074   3.568   3.028
 4833TIP3    H114505   1.987   3.573   2.988
 4833TIP3    H214506   2.111   3.487   2.993
 4834TIP3   OH214507   2.168   1.206   1.392
 4834TIP3    H114508   2.150   1.161   1.474
 4834TIP3    H214509   2.261   1.229   1.397
 4835TIP3   OH214510   3.264   0.473   1.113
 4835TIP3    H114511   3.213   0.393   1.102
 4835TIP3    H214512   3.199   0.543   1.112
 4836TIP3   OH214513   0.463   4.376   0.480
 4836TIP3    H114514   0.416   4.436   0.538
 4836TIP3    H214515   0.493   4.431   0.408
 4837TIP3   OH214516   3.648   5.043   3.989
 4837TIP3    H114517   3.726   5.002   4.027
 4837TIP3    H214518   3.628   4.989   3.913
 4838TIP3   OH214519   3.625   5.471   0.094
 4838TIP3    H114520   3.678   5.493   0.172
 4838TIP3    H214521   3.666   5.522   0.024
 4839TIP3   OH214522   0.171   3.630   4.578
 4839TIP3    H114523   0.166   3.604   4.669
 4839TIP3    H214524   0.263   3.655   4.565
 4840TIP3   OH214525   1.865   4.075   1.779
 4840TIP3    H114526   1.840   3.982   1.780
 4840TIP3    H214527   1.935   4.081   1.843
 4841TIP3   OH214528   0.488   3.848   0.866
 4841TIP3    H114529   0.467   3.778   0.803
 4841TIP3    H214530   0.447   3.926   0.829
 4842TIP3   OH214531   4.554   0.415   1.239
 4842TIP3    H114532   4.462   0.442   1.240
 4842TIP3    H214533   4.570   0.381   1.327
 4843TIP3   OH214534   4.895   3.317   1.756
 4843TIP3    H114535   4.869   3.225   1.748
 4843TIP3    H214536   4.815   3.366   1.741
 4844TIP3   OH214537   5.422   0.350   1.232
 4844TIP3    H114538   5.462   0.280   1.284
 4844TIP3    H214539   5.403   0.419   1.296
 4845TIP3   OH214540   1.368   5.570   2.452
 4845TIP3    H114541   1.404   5.638   2.394
 4845TIP3    H214542   1.350   5.496   2.394
 4846TIP3   OH214543   3.339   5.067   2.599
 4846TIP3    H114544   3.333   5.132   2.529
 4846TIP3    H214545   3.253   5.071   2.642
 4847TIP3   OH214546   2.977   3.592   5.118
 4847TIP3    H114547   3.040   3.656   5.152
 4847TIP3    H214548   2.952   3.627   5.032
 4848TIP3   OH214549   5.695   3.400   0.520
 4848TIP3    H114550   5.671   3.456   0.446
 4848TIP3    H214551   5.774   3.354   0.491
 4849TIP3   OH214552   3.158   0.711   1.299
 4849TIP3    H114553   3.165   0.806   1.288
 4849TIP3    H214554   3.249   0.681   1.307
 4850TIP3   OH214555   0.248   5.336   3.177
 4850TIP3    H114556   0.310   5.273   3.139
 4850TIP3    H214557   0.221   5.295   3.259
 4851TIP3   OH214558   2.145   4.043   2.247
 4851TIP3    H114559   2.223   4.068   2.296
 4851TIP3    H214560   2.097   3.985   2.306
 4852TIP3   OH214561   3.953   3.094   0.595
 4852TIP3    H114562   3.946   3.118   0.688
 4852TIP3    H214563   3.901   3.160   0.549
 4853TIP3   OH214564   5.115   1.759   4.228
 4853TIP3    H114565   5.106   1.664   4.235
 4853TIP3    H214566   5.025   1.789   4.214
 4854TIP3   OH214567   4.183   3.839   1.843
 4854TIP3    H114568   4.176   3.863   1.751
 4854TIP3    H214569   4.189   3.743   1.843
 4855TIP3   OH214570   0.353   4.173   3.040
 4855TIP3    H114571   0.275   4.203   2.993
 4855TIP3    H214572   0.381   4.095   2.992
 4856TIP3   OH214573   2.992   1.732   1.336
 4856TIP3    H114574   2.962   1.705   1.249
 4856TIP3    H214575   3.083   1.702   1.340
 4857TIP3   OH214576   3.476   4.482   5.228
 4857TIP3    H114577   3.437   4.401   5.197
 4857TIP3    H214578   3.570   4.470   5.215
 4858TIP3   OH214579   6.255   3.354   4.708
 4858TIP3    H114580   6.286   3.290   4.644
 4858TIP3    H214581   6.160   3.343   4.708
 4859TIP3   OH214582   1.585   5.174   2.582
 4859TIP3    H114583   1.597   5.079   2.580
 4859TIP3    H214584   1.636   5.205   2.507
 4860TIP3   OH214585   5.294   5.766   3.155
 4860TIP3    H114586   5.284   5.852   3.113
 4860TIP3    H214587   5.229   5.766   3.225
 4861TIP3   OH214588   2.926   5.220   5.068
 4861TIP3    H114589   2.831   5.206   5.075
 4861TIP3    H214590   2.943   5.292   5.129
 4862TIP3   OH214591   0.067   0.767   2.571
 4862TIP3    H114592   0.097   0.732   2.487
 4862TIP3    H214593   0.027   0.691   2.616
 4863TIP3   OH214594   3.931   4.557   1.808
 4863TIP3    H114595   3.969   4.476   1.842
 4863TIP3    H214596   3.984   4.578   1.731
 4864TIP3   OH214597   0.630   1.333   0.365
 4864TIP3    H114598   0.649   1.266   0.299
 4864TIP3    H214599   0.707   1.390   0.364
 4865TIP3   OH214600   4.402   3.251   0.360
 4865TIP3    H114601   4.436   3.306   0.430
 4865TIP3    H214602   4.336   3.196   0.403
 4866TIP3   OH214603   4.281   4.974   2.416
 4866TIP3    H114604   4.311   4.943   2.331
 4866TIP3    H214605   4.274   4.894   2.469
 4867TIP3   OH214606   0.838   0.755   0.367
 4867TIP3    H114607   0.917   0.704   0.383
 4867TIP3    H214608   0.795   0.762   0.452
 4868TIP3   OH214609   5.009   1.383   0.171
 4868TIP3    H114610   4.996   1.432   0.089
 4868TIP3    H214611   4.988   1.446   0.240
 4869TIP3   OH214612   6.218   1.217   2.520
 4869TIP3    H114613   6.225   1.311   2.538
 4869TIP3    H214614   6.229   1.211   2.425
 4870TIP3   OH214615   2.176   1.113   2.580
 4870TIP3    H114616   2.081   1.110   2.567
 4870TIP3    H214617   2.187   1.141   2.670
 4871TIP3   OH214618   4.516   0.399   0.664
 4871TIP3    H114619   4.424   0.423   0.649
 4871TIP3    H214620   4.566   0.475   0.633
 4872TIP3   OH214621   5.853   0.716   0.133
 4872TIP3    H114622   5.902   0.750   0.057
 4872TIP3    H214623   5.847   0.790   0.193
 4873TIP3   OH214624   3.595   4.941   1.845
 4873TIP3    H114625   3.534   5.014   1.840
 4873TIP3    H214626   3.640   4.952   1.928
 4874TIP3   OH214627   1.541   2.531   0.631
 4874TIP3    H114628   1.561   2.509   0.540
 4874TIP3    H214629   1.510   2.449   0.670
 4875TIP3   OH214630   4.507   3.606   2.985
 4875TIP3    H114631   4.495   3.553   3.064
 4875TIP3    H214632   4.491   3.696   3.014
 4876TIP3   OH214633   1.858   1.467   1.295
 4876TIP3    H114634   1.777   1.433   1.333
 4876TIP3    H214635   1.919   1.393   1.296
 4877TIP3   OH214636   2.076   4.505   3.189
 4877TIP3    H114637   2.146   4.441   3.176
 4877TIP3    H214638   2.090   4.539   3.277
 4878TIP3   OH214639   3.271   2.840   4.987
 4878TIP3    H114640   3.359   2.828   5.023
 4878TIP3    H214641   3.285   2.889   4.906
 4879TIP3   OH214642   6.051   0.361   1.296
 4879TIP3    H114643   6.106   0.438   1.312
 4879TIP3    H214644   6.080   0.329   1.211
 4880TIP3   OH214645   4.201   1.808   3.267
 4880TIP3    H114646   4.228   1.768   3.350
 4880TIP3    H214647   4.283   1.842   3.230
 4881TIP3   OH214648   3.064   5.499   2.809
 4881TIP3    H114649   3.159   5.483   2.808
 4881TIP3    H214650   3.056   5.593   2.826
 4882TIP3   OH214651   5.274   1.778   1.723
 4882TIP3    H114652   5.216   1.785   1.799
 4882TIP3    H214653   5.347   1.724   1.753
 4883TIP3   OH214654   1.557   3.582   3.238
 4883TIP3    H114655   1.586   3.491   3.241
 4883TIP3    H214656   1.636   3.632   3.219
 4884TIP3   OH214657   6.301   5.113   3.124
 4884TIP3    H114658   6.389   5.082   3.146
 4884TIP3    H214659   6.243   5.043   3.152
 4885TIP3   OH214660   1.124   1.133   4.853
 4885TIP3    H114661   1.062   1.203   4.873
 4885TIP3    H214662   1.174   1.166   4.779
 4886TIP3   OH214663   5.759   5.519   1.176
 4886TIP3    H114664   5.725   5.605   1.150
 4886TIP3    H214665   5.711   5.456   1.123
 4887TIP3   OH214666   0.113   4.207   0.354
 4887TIP3    H114667   0.136   4.184   0.444
 4887TIP3    H214668   0.018   4.207   0.353
 4888TIP3   OH214669   5.803   2.504   2.441
 4888TIP3    H114670   5.715   2.530   2.412
 4888TIP3    H214671   5.788   2.441   2.511
 4889TIP3   OH214672   4.069   6.008   5.031
 4889TIP3    H114673   4.152   5.967   5.005
 4889TIP3    H214674   4.011   5.935   5.049
 4890TIP3   OH214675   2.624   0.870   1.877
 4890TIP3    H114676   2.647   0.777   1.873
 4890TIP3    H214677   2.531   0.870   1.898
 4891TIP3   OH214678   2.899   0.721   3.911
 4891TIP3    H114679   2.901   0.785   3.839
 4891TIP3    H214680   2.990   0.717   3.941
 4892TIP3   OH214681   2.328   2.223   0.823
 4892TIP3    H114682   2.274   2.295   0.853
 4892TIP3    H214683   2.405   2.265   0.784
 4893TIP3   OH214684   1.682   5.225   1.746
 4893TIP3    H114685   1.587   5.217   1.752
 4893TIP3    H214686   1.699   5.239   1.653
 4894TIP3   OH214687   2.431   3.744   3.335
 4894TIP3    H114688   2.374   3.760   3.259
 4894TIP3    H214689   2.423   3.824   3.387
 4895TIP3   OH214690   1.758   2.222   0.633
 4895TIP3    H114691   1.768   2.298   0.576
 4895TIP3    H214692   1.835   2.224   0.689
 4896TIP3   OH214693   3.936   1.891   2.120
 4896TIP3    H114694   3.980   1.813   2.089
 4896TIP3    H214695   3.879   1.861   2.191
 4897TIP3   OH214696   5.110   2.773   1.907
 4897TIP3    H114697   5.076   2.713   1.973
 4897TIP3    H214698   5.182   2.818   1.950
 4898TIP3   OH214699   4.047   4.080   3.707
 4898TIP3    H114700   4.032   4.006   3.765
 4898TIP3    H214701   4.002   4.153   3.748
 4899TIP3   OH214702   4.391   3.019   4.582
 4899TIP3    H114703   4.349   3.103   4.602
 4899TIP3    H214704   4.473   3.022   4.631
 4900TIP3   OH214705   4.308   5.428   3.280
 4900TIP3    H114706   4.362   5.414   3.203
 4900TIP3    H214707   4.362   5.484   3.337
 4901TIP3   OH214708   3.668   0.474   1.554
 4901TIP3    H114709   3.631   0.484   1.642
 4901TIP3    H214710   3.680   0.564   1.524
 4902TIP3   OH214711   1.274   2.888   2.010
 4902TIP3    H114712   1.319   2.805   2.026
 4902TIP3    H214713   1.311   2.948   2.075
 4903TIP3   OH214714   3.973   5.322   1.610
 4903TIP3    H114715   4.009   5.411   1.613
 4903TIP3    H214716   4.048   5.265   1.626
 4904TIP3   OH214717   5.518   1.489   2.500
 4904TIP3    H114718   5.591   1.432   2.476
 4904TIP3    H214719   5.441   1.431   2.500
 4905TIP3   OH214720   3.153   5.791   0.268
 4905TIP3    H114721   3.187   5.778   0.180
 4905TIP3    H214722   3.192   5.720   0.320
 4906TIP3   OH214723   1.856   0.839   4.957
 4906TIP3    H114724   1.898   0.893   4.890
 4906TIP3    H214725   1.846   0.898   5.032
 4907TIP3   OH214726   4.451   1.485   0.047
 4907TIP3    H114727   4.362   1.453   0.030
 4907TIP3    H214728   4.505   1.444  -0.020
 4908TIP3   OH214729   4.987   3.845   2.307
 4908TIP3    H114730   5.053   3.854   2.376
 4908TIP3    H214731   5.026   3.886   2.230
 4909TIP3   OH214732   0.840   4.806   3.526
 4909TIP3    H114733   0.914   4.830   3.470
 4909TIP3    H214734   0.862   4.843   3.611
 4910TIP3   OH214735   2.526   5.497   1.268
 4910TIP3    H114736   2.453   5.440   1.290
 4910TIP3    H214737   2.535   5.555   1.343
 4911TIP3   OH214738   4.643   0.624   0.449
 4911TIP3    H114739   4.694   0.621   0.531
 4911TIP3    H214740   4.656   0.538   0.409
 4912TIP3   OH214741   2.025   4.386   0.761
 4912TIP3    H114742   2.067   4.336   0.830
 4912TIP3    H214743   2.037   4.477   0.787
 4913TIP3   OH214744   2.895   0.119   4.605
 4913TIP3    H114745   2.830   0.054   4.631
 4913TIP3    H214746   2.977   0.087   4.642
 4914TIP3   OH214747   4.993   1.470   2.562
 4914TIP3    H114748   4.990   1.550   2.509
 4914TIP3    H214749   4.902   1.441   2.568
 4915TIP3   OH214750   6.259   0.411   3.430
 4915TIP3    H114751   6.289   0.473   3.363
 4915TIP3    H214752   6.197   0.462   3.482
 4916TIP3   OH214753   2.981   5.204   4.333
 4916TIP3    H114754   3.058   5.260   4.325
 4916TIP3    H214755   2.964   5.198   4.427
 4917TIP3   OH214756   2.573   2.106   2.794
 4917TIP3    H114757   2.516   2.169   2.839
 4917TIP3    H214758   2.538   2.102   2.705
 4918TIP3   OH214759   5.521   3.415   3.570
 4918TIP3    H114760   5.586   3.473   3.610
 4918TIP3    H214761   5.562   3.386   3.489
 4919TIP3   OH214762   4.303   2.946   1.125
 4919TIP3    H114763   4.372   2.989   1.176
 4919TIP3    H214764   4.311   2.854   1.147
 4920TIP3   OH214765   1.185   3.375   0.775
 4920TIP3    H114766   1.186   3.399   0.868
 4920TIP3    H214767   1.277   3.375   0.749
 4921TIP3   OH214768   0.712   3.499   2.199
 4921TIP3    H114769   0.715   3.592   2.179
 4921TIP3    H214770   0.788   3.463   2.154
 4922TIP3   OH214771   0.845   5.914   0.096
 4922TIP3    H114772   0.921   5.878   0.050
 4922TIP3    H214773   0.806   5.975   0.033
 4923TIP3   OH214774   3.446   5.369   3.178
 4923TIP3    H114775   3.411   5.334   3.260
 4923TIP3    H214776   3.536   5.393   3.199
 4924TIP3   OH214777   2.192   2.962   2.533
 4924TIP3    H114778   2.154   2.915   2.458
 4924TIP3    H214779   2.136   2.938   2.607
 4925TIP3   OH214780   3.508   4.553   0.072
 4925TIP3    H114781   3.498   4.635   0.023
 4925TIP3    H214782   3.445   4.560   0.144
 4926TIP3   OH214783   2.618   3.833   4.078
 4926TIP3    H114784   2.707   3.828   4.042
 4926TIP3    H214785   2.565   3.868   4.006
 4927TIP3   OH214786   4.947   2.682   3.184
 4927TIP3    H114787   4.958   2.735   3.105
 4927TIP3    H214788   4.880   2.727   3.234
 4928TIP3   OH214789   1.574   3.180   1.715
 4928TIP3    H114790   1.589   3.213   1.627
 4928TIP3    H214791   1.505   3.114   1.705
 4929TIP3   OH214792   4.537   1.635   3.895
 4929TIP3    H114793   4.588   1.706   3.855
 4929TIP3    H214794   4.602   1.582   3.941
 4930TIP3   OH214795   5.713   0.920   1.581
 4930TIP3    H114796   5.658   0.911   1.659
 4930TIP3    H214797   5.789   0.970   1.610
 4931TIP3   OH214798   1.928   1.228   3.173
 4931TIP3    H114799   1.838   1.208   3.149
 4931TIP3    H214800   1.948   1.166   3.244
 4932TIP3   OH214801   3.033   5.332   1.923
 4932TIP3    H114802   2.976   5.392   1.971
 4932TIP3    H214803   3.047   5.376   1.839
 4933TIP3   OH214804   0.012   4.696   3.820
 4933TIP3    H114805  -0.082   4.711   3.811
 4933TIP3    H214806   0.030   4.712   3.912
 4934TIP3   OH214807   5.375   1.977   3.302
 4934TIP3    H114808   5.288   1.944   3.322
 4934TIP3    H214809   5.428   1.898   3.288
 4935TIP3   OH214810   5.110   5.660   4.029
 4935TIP3    H114811   5.168   5.632   4.099
 4935TIP3    H214812   5.077   5.746   4.058
 4936TIP3   OH214813   5.401   3.811   4.451
 4936TIP3    H114814   5.444   3.797   4.366
 4936TIP3    H214815   5.462   3.865   4.500
 4937TIP3   OH214816   6.107   2.423   4.155
 4937TIP3    H114817   6.082   2.353   4.215
 4937TIP3    H214818   6.188   2.459   4.193
 4938TIP3   OH214819   6.206   4.464   2.550
 4938TIP3    H114820   6.136   4.399   2.540
 4938TIP3    H214821   6.161   4.548   2.546
 4939TIP3   OH214822   4.743   1.956   4.785
 4939TIP3    H114823   4.811   1.889   4.775
 4939TIP3    H214824   4.788   2.039   4.767
 4940TIP3   OH214825   3.715   3.544   0.643
 4940TIP3    H114826   3.646   3.577   0.586
 4940TIP3    H214827   3.726   3.452   0.617
 4941TIP3   OH214828   0.820   4.929   1.134
 4941TIP3    H114829   0.738   4.968   1.104
 4941TIP3    H214830   0.853   4.989   1.201
 4942TIP3   OH214831   3.162   4.743   2.832
 4942TIP3    H114832   3.202   4.747   2.745
 4942TIP3    H214833   3.228   4.780   2.890
 4943TIP3   OH214834   3.094   4.238   0.808
 4943TIP3    H114835   3.004   4.210   0.787
 4943TIP3    H214836   3.121   4.179   0.878
 4944TIP3   OH214837   3.705   4.577   2.720
 4944TIP3    H114838   3.635   4.554   2.781
 4944TIP3    H214839   3.671   4.553   2.634
 4945TIP3   OH214840   4.622   3.571   3.824
 4945TIP3    H114841   4.615   3.539   3.734
 4945TIP3    H214842   4.716   3.582   3.838
 4946TIP3   OH214843   0.359   2.285   0.287
 4946TIP3    H114844   0.323   2.255   0.371
 4946TIP3    H214845   0.283   2.294   0.230
 4947TIP3   OH214846   0.654   1.268   2.026
 4947TIP3    H114847   0.693   1.353   2.006
 4947TIP3    H214848   0.659   1.261   2.121
 4948TIP3   OH214849   5.855   5.978   4.602
 4948TIP3    H114850   5.856   5.890   4.565
 4948TIP3    H214851   5.834   5.966   4.694
 4949TIP3   OH214852   5.131   0.466   1.947
 4949TIP3    H114853   5.214   0.512   1.931
 4949TIP3    H214854   5.080   0.526   2.002
 4950TIP3   OH214855   3.565   0.078   3.584
 4950TIP3    H114856   3.490   0.024   3.560
 4950TIP3    H214857   3.633   0.056   3.521
 4951TIP3   OH214858   2.634   3.764   3.150
 4951TIP3    H114859   2.604   3.722   3.069
 4951TIP3    H214860   2.569   3.737   3.216
 4952TIP3   OH214861   6.057   1.467   4.214
 4952TIP3    H114862   6.149   1.447   4.196
 4952TIP3    H214863   6.055   1.480   4.309
 4953TIP3   OH214864   1.509   0.902   2.356
 4953TIP3    H114865   1.547   0.980   2.317
 4953TIP3    H214866   1.448   0.869   2.290
 4954TIP3   OH214867   2.024   5.645   4.586
 4954TIP3    H114868   2.081   5.577   4.548
 4954TIP3    H214869   1.936   5.620   4.558
 4955TIP3   OH214870   5.576   1.158   3.870
 4955TIP3    H114871   5.560   1.131   3.960
 4955TIP3    H214872   5.512   1.109   3.818
 4956TIP3   OH214873   6.101   3.749   4.092
 4956TIP3    H114874   6.185   3.791   4.107
 4956TIP3    H214875   6.093   3.744   3.997
 4957TIP3   OH214876   0.698   1.194   3.759
 4957TIP3    H114877   0.617   1.245   3.756
 4957TIP3    H214878   0.741   1.222   3.840
 4958TIP3   OH214879   4.422   5.634   3.468
 4958TIP3    H114880   4.351   5.676   3.421
 4958TIP3    H214881   4.502   5.675   3.433
 4959TIP3   OH214882   2.765   4.547   2.144
 4959TIP3    H114883   2.705   4.473   2.142
 4959TIP3    H214884   2.835   4.519   2.204
 4960TIP3   OH214885   1.675   0.592   0.654
 4960TIP3    H114886   1.695   0.665   0.595
 4960TIP3    H214887   1.718   0.517   0.613
 4961TIP3   OH214888   1.298   4.338   4.808
 4961TIP3    H114889   1.282   4.265   4.868
 4961TIP3    H214890   1.328   4.409   4.865
 4962TIP3   OH214891   4.296   4.189   2.459
 4962TIP3    H114892   4.286   4.181   2.365
 4962TIP3    H214893   4.380   4.234   2.471
 4963TIP3   OH214894   4.852   4.659   4.660
 4963TIP3    H114895   4.837   4.675   4.567
 4963TIP3    H214896   4.927   4.713   4.682
 4964TIP3   OH214897   6.249   4.206   1.872
 4964TIP3    H114898   6.171   4.185   1.924
 4964TIP3    H214899   6.266   4.298   1.893
 4965TIP3   OH214900   3.218   4.783   4.574
 4965TIP3    H114901   3.239   4.693   4.600
 4965TIP3    H214902   3.140   4.805   4.624
 4966TIP3   OH214903   5.337   3.945   2.104
 4966TIP3    H114904   5.379   3.996   2.034
 4966TIP3    H214905   5.243   3.952   2.085
 4967TIP3   OH214906   1.878   0.707   3.863
 4967TIP3    H114907   1.799   0.741   3.821
 4967TIP3    H214908   1.920   0.654   3.796
 4968TIP3   OH214909   2.565   0.494   3.253
 4968TIP3    H114910   2.527   0.574   3.219
 4968TIP3    H214911   2.531   0.487   3.342
 4969TIP3   OH214912   5.444   1.994   1.920
 4969TIP3    H114913   5.358   1.984   1.959
 4969TIP3    H214914   5.503   1.945   1.978
 4970TIP3   OH214915   0.725   0.131   1.180
 4970TIP3    H114916   0.782   0.152   1.106
 4970TIP3    H214917   0.764   0.052   1.218
 4971TIP3   OH214918   0.015   5.244   1.594
 4971TIP3    H114919  -0.057   5.196   1.554
 4971TIP3    H214920  -0.028   5.312   1.647
 4972TIP3   OH214921   2.627   4.851   1.205
 4972TIP3    H114922   2.687   4.864   1.132
 4972TIP3    H214923   2.541   4.842   1.163
 4973TIP3   OH214924   3.519   0.333   0.078
 4973TIP3    H114925   3.540   0.242   0.060
 4973TIP3    H214926   3.460   0.359   0.006
 4974TIP3   OH214927   1.402   0.549   0.401
 4974TIP3    H114928   1.494   0.523   0.404
 4974TIP3    H214929   1.400   0.635   0.444
 4975TIP3   OH214930   3.974   4.636   3.372
 4975TIP3    H114931   4.045   4.700   3.381
 4975TIP3    H214932   4.008   4.571   3.310
 4976TIP3   OH214933   5.683   2.489   2.781
 4976TIP3    H114934   5.698   2.427   2.711
 4976TIP3    H214935   5.608   2.455   2.829
 4977TIP3   OH214936   2.912   4.866   2.932
 4977TIP3    H114937   2.937   4.959   2.923
 4977TIP3    H214938   2.988   4.819   2.898
 4978TIP3   OH214939   2.042   1.601   1.487
 4978TIP3    H114940   2.077   1.512   1.491
 4978TIP3    H214941   1.967   1.594   1.428
 4979TIP3   OH214942   0.177   3.078   5.173
 4979TIP3    H114943   0.167   3.097   5.080
 4979TIP3    H214944   0.268   3.102   5.193
 4980TIP3   OH214945   4.632   0.003   0.357
 4980TIP3    H114946   4.695   0.051   0.304
 4980TIP3    H214947   4.633   0.047   0.441
 4981TIP3   OH214948   5.695   2.119   3.840
 4981TIP3    H114949   5.742   2.117   3.924
 4981TIP3    H214950   5.749   2.176   3.784
 4982TIP3   OH214951   4.738   2.446   2.399
 4982TIP3    H114952   4.740   2.373   2.337
 4982TIP3    H214953   4.791   2.514   2.357
 4983TIP3   OH214954   1.634   2.650   3.384
 4983TIP3    H114955   1.675   2.687   3.306
 4983TIP3    H214956   1.635   2.721   3.447
 4984TIP3   OH214957   2.051   3.335   3.659
 4984TIP3    H114958   2.071   3.357   3.568
 4984TIP3    H214959   1.970   3.384   3.678
 4985TIP3   OH214960   0.066   3.687   1.491
 4985TIP3    H114961   0.027   3.609   1.450
 4985TIP3    H214962   0.159   3.664   1.500
 4986TIP3   OH214963   1.450   4.075   0.469
 4986TIP3    H114964   1.361   4.072   0.432
 4986TIP3    H214965   1.460   4.165   0.500
 4987TIP3   OH214966   4.704   1.917   0.548
 4987TIP3    H114967   4.625   1.968   0.562
 4987TIP3    H214968   4.729   1.936   0.457
 4988TIP3   OH214969   6.051   2.596   3.841
 4988TIP3    H114970   6.115   2.661   3.812
 4988TIP3    H214971   5.991   2.644   3.898
 4989TIP3   OH214972   5.529   3.107   1.868
 4989TIP3    H114973   5.466   3.095   1.796
 4989TIP3    H214974   5.510   3.035   1.928
 4990TIP3   OH214975   4.029   0.891   1.373
 4990TIP3    H114976   3.960   0.836   1.409
 4990TIP3    H214977   4.091   0.830   1.333
 4991TIP3   OH214978   4.076   5.215   0.097
 4991TIP3    H114979   4.170   5.222   0.080
 4991TIP3    H214980   4.068   5.138   0.153
 4992TIP3   OH214981   1.306   4.165   3.926
 4992TIP3    H114982   1.220   4.206   3.929
 4992TIP3    H214983   1.289   4.072   3.943
 4993TIP3   OH214984   0.422   5.061   0.763
 4993TIP3    H114985   0.448   5.067   0.671
 4993TIP3    H214986   0.392   5.149   0.785
 4994TIP3   OH214987   5.921   3.727   0.109
 4994TIP3    H114988   5.838   3.704   0.152
 4994TIP3    H214989   5.953   3.802   0.159
 4995TIP3   OH214990   2.755   3.869   0.706
 4995TIP3    H114991   2.819   3.799   0.704
 4995TIP3    H214992   2.686   3.842   0.645
 4996TIP3   OH214993   0.773   3.624   3.097
 4996TIP3    H114994   0.725   3.691   3.146
 4996TIP3    H214995   0.809   3.567   3.165
 4997TIP3   OH214996   0.835   1.547   3.431
 4997TIP3    H114997   0.900   1.609   3.466
 4997TIP3    H214998   0.774   1.532   3.503
 4998TIP3   OH214999   3.421   2.656  -0.020
 4998TIP3    H115000   3.377   2.664  -0.105
 4998TIP3    H215001   3.393   2.733   0.029
 4999TIP3   OH215002   2.323   4.256   2.111
 4999TIP3    H115003   2.412   4.288   2.093
 4999TIP3    H215004   2.266   4.326   2.078
 5000TIP3   OH215005   4.408   2.485   0.110
 5000TIP3    H115006   4.350   2.463   0.037
 5000TIP3    H215007   4.491   2.507   0.069
 5001TIP3   OH215008   0.139   2.715   5.053
 5001TIP3    H115009   0.192   2.769   4.993
 5001TIP3    H215010   0.194   2.639   5.071
 5002TIP3   OH215011   4.768   0.406   2.867
 5002TIP3    H115012   4.774   0.311   2.865
 5002TIP3    H215013   4.720   0.429   2.788
 5003TIP3   OH215014   1.688   1.658   4.004
 5003TIP3    H115015   1.709   1.714   3.930
 5003TIP3    H215016   1.674   1.571   3.965
 5004TIP3   OH215017   3.228   5.718   0.025
 5004TIP3    H115018   3.293   5.663   0.068
 5004TIP3    H215019   3.176   5.658  -0.028
 5005TIP3   OH215020   5.380   1.866   4.302
 5005TIP3    H115021   5.301   1.855   4.248
 5005TIP3    H215022   5.437   1.922   4.249
 5006TIP3   OH215023   6.257   5.499   4.479
 5006TIP3    H115024   6.189   5.458   4.425
 5006TIP3    H215025   6.332   5.506   4.420
 5007TIP3   OH215026   5.561   4.435   2.284
 5007TIP3    H115027   5.635   4.383   2.254
 5007TIP3    H215028   5.589   4.471   2.368
 5008TIP3   OH215029   4.711   4.420   5.229
 5008TIP3    H115030   4.756   4.366   5.164
 5008TIP3    H215031   4.762   4.409   5.309
 5009TIP3   OH215032   5.091   5.135   1.951
 5009TIP3    H115033   5.009   5.138   2.001
 5009TIP3    H215034   5.153   5.187   2.001
 5010TIP3   OH215035   2.241   4.759   0.592
 5010TIP3    H115036   2.178   4.818   0.632
 5010TIP3    H215037   2.197   4.727   0.513
 5011TIP3   OH215038   4.902   1.882   5.114
 5011TIP3    H115039   4.892   1.974   5.138
 5011TIP3    H215040   4.814   1.847   5.116
 5012TIP3   OH215041   2.331   4.650   5.045
 5012TIP3    H115042   2.275   4.574   5.062
 5012TIP3    H215043   2.272   4.725   5.056
 5013TIP3   OH215044   4.852   0.993   2.831
 5013TIP3    H115045   4.930   0.937   2.833
 5013TIP3    H215046   4.808   0.971   2.750
 5014TIP3   OH215047   2.965   3.655   2.407
 5014TIP3    H115048   2.932   3.599   2.477
 5014TIP3    H215049   3.047   3.614   2.379
 5015TIP3   OH215050   4.659   3.991   1.742
 5015TIP3    H115051   4.625   4.057   1.681
 5015TIP3    H215052   4.613   3.911   1.717
 5016TIP3   OH215053   0.451   3.647   4.590
 5016TIP3    H115054   0.475   3.721   4.646
 5016TIP3    H215055   0.478   3.569   4.638
 5017TIP3   OH215056   2.320   4.135   4.255
 5017TIP3    H115057   2.372   4.109   4.179
 5017TIP3    H215058   2.381   4.185   4.309
 5018TIP3   OH215059   1.103   5.273   2.546
 5018TIP3    H115060   1.187   5.295   2.587
 5018TIP3    H215061   1.110   5.310   2.457
 5019TIP3   OH215062   1.736   2.717   4.660
 5019TIP3    H115063   1.786   2.794   4.685
 5019TIP3    H215064   1.801   2.646   4.657
 5020TIP3   OH215065   2.367   2.349   3.934
 5020TIP3    H115066   2.324   2.335   3.850
 5020TIP3    H215067   2.453   2.307   3.924
 5021TIP3   OH215068   5.908   3.955   3.968
 5021TIP3    H115069   5.935   3.994   4.051
 5021TIP3    H215070   5.950   3.869   3.967
 5022TIP3   OH215071   2.442   1.307   4.008
 5022TIP3    H115072   2.371   1.335   3.951
 5022TIP3    H215073   2.510   1.373   3.996
 5023TIP3   OH215074   3.194   5.144   4.035
 5023TIP3    H115075   3.211   5.123   3.943
 5023TIP3    H215076   3.280   5.147   4.076
 5024TIP3   OH215077   4.012   0.554   1.377
 5024TIP3    H115078   4.019   0.607   1.297
 5024TIP3    H215079   3.930   0.583   1.417
 5025TIP3   OH215080   1.933   2.017   2.741
 5025TIP3    H115081   1.906   2.100   2.701
 5025TIP3    H215082   1.855   1.962   2.736
 5026TIP3   OH215083   5.720   4.507   1.456
 5026TIP3    H115084   5.684   4.527   1.369
 5026TIP3    H215085   5.720   4.591   1.502
 5027TIP3   OH215086   2.378   4.153   2.367
 5027TIP3    H115087   2.361   4.213   2.294
 5027TIP3    H215088   2.466   4.175   2.397
 5028TIP3   OH215089   6.221   4.990   1.235
 5028TIP3    H115090   6.162   5.061   1.258
 5028TIP3    H215091   6.167   4.911   1.240
 5029TIP3   OH215092   6.236   2.245   3.377
 5029TIP3    H115093   6.316   2.282   3.339
 5029TIP3    H215094   6.190   2.320   3.414
 5030TIP3   OH215095   5.914   1.775   0.699
 5030TIP3    H115096   6.010   1.779   0.698
 5030TIP3    H215097   5.891   1.778   0.792
 5031TIP3   OH215098   5.870   2.752   1.150
 5031TIP3    H115099   5.850   2.773   1.059
 5031TIP3    H215100   5.878   2.837   1.193
 5032TIP3   OH215101   1.811   3.187   4.220
 5032TIP3    H115102   1.753   3.170   4.294
 5032TIP3    H215103   1.800   3.111   4.163
 5033TIP3   OH215104   4.209   0.993   4.472
 5033TIP3    H115105   4.272   0.945   4.419
 5033TIP3    H215106   4.196   0.939   4.550
 5034TIP3   OH215107   4.347   3.214   1.458
 5034TIP3    H115108   4.367   3.121   1.446
 5034TIP3    H215109   4.424   3.249   1.503
 5035TIP3   OH215110   0.114   3.450   2.158
 5035TIP3    H115111   0.039   3.400   2.125
 5035TIP3    H215112   0.076   3.508   2.224
 5036TIP3   OH215113   5.851   2.862   3.674
 5036TIP3    H115114   5.772   2.895   3.631
 5036TIP3    H215115   5.824   2.841   3.763
 5037TIP3   OH215116   6.008   0.910   2.790
 5037TIP3    H115117   5.998   0.990   2.842
 5037TIP3    H215118   6.090   0.922   2.743
 5038TIP3   OH215119   4.629   1.794   5.158
 5038TIP3    H115120   4.654   1.704   5.182
 5038TIP3    H215121   4.595   1.786   5.068
 5039TIP3   OH215122   1.975   5.288   0.902
 5039TIP3    H115123   2.010   5.306   0.815
 5039TIP3    H215124   1.974   5.192   0.907
 5040TIP3   OH215125   1.386   3.540   3.014
 5040TIP3    H115126   1.430   3.551   3.098
 5040TIP3    H215127   1.294   3.526   3.036
 5041TIP3   OH215128   0.079   5.852   5.137
 5041TIP3    H115129   0.085   5.909   5.214
 5041TIP3    H215130   0.170   5.836   5.113
 5042TIP3   OH215131   2.173   3.422   1.985
 5042TIP3    H115132   2.203   3.488   1.921
 5042TIP3    H215133   2.254   3.390   2.025
 5043TIP3   OH215134   1.783   5.114   0.439
 5043TIP3    H115135   1.792   5.038   0.497
 5043TIP3    H215136   1.690   5.137   0.442
 5044TIP3   OH215137   2.333   4.690   1.102
 5044TIP3    H115138   2.398   4.751   1.068
 5044TIP3    H215139   2.269   4.745   1.146
 5045TIP3   OH215140   3.824   4.455   5.216
 5045TIP3    H115141   3.917   4.454   5.195
 5045TIP3    H215142   3.781   4.477   5.134
 5046TIP3   OH215143   1.127   2.766   0.829
 5046TIP3    H115144   1.152   2.728   0.914
 5046TIP3    H215145   1.178   2.716   0.765
 5047TIP3   OH215146   2.088   4.882   3.715
 5047TIP3    H115147   2.175   4.847   3.733
 5047TIP3    H215148   2.034   4.805   3.701
 5048TIP3   OH215149   3.627   3.800   4.592
 5048TIP3    H115150   3.596   3.734   4.530
 5048TIP3    H215151   3.549   3.824   4.643
 5049TIP3   OH215152   3.766   3.177   0.074
 5049TIP3    H115153   3.755   3.268   0.046
 5049TIP3    H215154   3.844   3.147   0.027
 5050TIP3   OH215155   6.106   2.864   2.683
 5050TIP3    H115156   6.176   2.843   2.745
 5050TIP3    H215157   6.047   2.921   2.732
 5051TIP3   OH215158   2.767   3.051   4.602
 5051TIP3    H115159   2.787   3.034   4.694
 5051TIP3    H215160   2.851   3.041   4.557
 5052TIP3   OH215161   1.399   4.568   1.961
 5052TIP3    H115162   1.405   4.640   2.024
 5052TIP3    H215163   1.386   4.490   2.014
 5053TIP3   OH215164   5.707   5.568   1.859
 5053TIP3    H115165   5.770   5.637   1.841
 5053TIP3    H215166   5.760   5.489   1.871
 5054TIP3   OH215167   2.673   5.692   4.229
 5054TIP3    H115168   2.765   5.679   4.252
 5054TIP3    H215169   2.664   5.651   4.142
 5055TIP3   OH215170   4.028   5.585   0.849
 5055TIP3    H115171   4.074   5.654   0.897
 5055TIP3    H215172   4.046   5.505   0.899
 5056TIP3   OH215173   3.813   0.608   2.950
 5056TIP3    H115174   3.832   0.693   2.910
 5056TIP3    H215175   3.757   0.629   3.024
 5057TIP3   OH215176   2.220   3.667   1.538
 5057TIP3    H115177   2.187   3.604   1.474
 5057TIP3    H215178   2.300   3.702   1.499
 5058TIP3   OH215179   5.123   4.070   3.410
 5058TIP3    H115180   5.147   4.048   3.320
 5058TIP3    H215181   5.180   4.144   3.432
 5059TIP3   OH215182   3.622   1.639   1.741
 5059TIP3    H115183   3.615   1.549   1.712
 5059TIP3    H215184   3.715   1.652   1.760
 5060TIP3   OH215185   0.417   5.350   4.809
 5060TIP3    H115186   0.330   5.356   4.850
 5060TIP3    H215187   0.449   5.440   4.811
 5061TIP3   OH215188   1.782   2.054   0.142
 5061TIP3    H115189   1.831   1.992   0.196
 5061TIP3    H215190   1.819   2.044   0.055
 5062TIP3   OH215191   3.664   1.206   0.933
 5062TIP3    H115192   3.704   1.124   0.905
 5062TIP3    H215193   3.614   1.182   1.011
 5063TIP3   OH215194   4.560   0.871   3.123
 5063TIP3    H115195   4.479   0.827   3.151
 5063TIP3    H215196   4.621   0.799   3.106
 5064TIP3   OH215197   4.239   0.176   0.185
 5064TIP3    H115198   4.300   0.159   0.113
 5064TIP3    H215199   4.294   0.176   0.263
 5065TIP3   OH215200   5.243   0.825   4.561
 5065TIP3    H115201   5.291   0.904   4.588
 5065TIP3    H215202   5.209   0.847   4.474
 5066TIP3   OH215203   6.277   0.795   2.944
 5066TIP3    H115204   6.340   0.853   2.986
 5066TIP3    H215205   6.250   0.841   2.864
 5067TIP3   OH215206   3.027   4.945   2.098
 5067TIP3    H115207   3.065   4.872   2.147
 5067TIP3    H215208   3.082   4.954   2.021
 5068TIP3   OH215209   1.428   5.058   0.573
 5068TIP3    H115210   1.486   4.996   0.615
 5068TIP3    H215211   1.349   5.059   0.628
 5069TIP3   OH215212   1.808   5.585   0.451
 5069TIP3    H115213   1.885   5.642   0.453
 5069TIP3    H215214   1.843   5.496   0.450
 5070TIP3   OH215215   5.137   5.013   0.707
 5070TIP3    H115216   5.213   5.020   0.648
 5070TIP3    H215217   5.147   5.087   0.767
 5071TIP3   OH215218   5.694   1.588   3.730
 5071TIP3    H115219   5.720   1.553   3.815
 5071TIP3    H215220   5.622   1.532   3.702
 5072TIP3   OH215221   2.598   2.829   1.109
 5072TIP3    H115222   2.545   2.772   1.164
 5072TIP3    H215223   2.660   2.869   1.169
 5073TIP3   OH215224   3.176   1.920   3.002
 5073TIP3    H115225   3.185   1.990   2.937
 5073TIP3    H215226   3.253   1.865   2.988
 5074TIP3   OH215227   2.953   2.371   0.686
 5074TIP3    H115228   2.937   2.450   0.737
 5074TIP3    H215229   2.963   2.403   0.596
 5075TIP3   OH215230   5.331   5.177   1.233
 5075TIP3    H115231   5.328   5.081   1.241
 5075TIP3    H215232   5.319   5.209   1.323
 5076TIP3   OH215233   0.948   3.679   1.784
 5076TIP3    H115234   0.869   3.655   1.736
 5076TIP3    H215235   0.975   3.598   1.828
 5077TIP3   OH215236   2.870   3.478   2.147
 5077TIP3    H115237   2.902   3.512   2.231
 5077TIP3    H215238   2.819   3.401   2.170
 5078TIP3   OH215239   0.233   5.540   2.792
 5078TIP3    H115240   0.263   5.545   2.882
 5078TIP3    H215241   0.184   5.458   2.787
 5079TIP3   OH215242   1.332   0.831   3.193
 5079TIP3    H115243   1.391   0.808   3.121
 5079TIP3    H215244   1.298   0.917   3.170
 5080TIP3   OH215245   1.282   1.036   4.551
 5080TIP3    H115246   1.298   0.997   4.464
 5080TIP3    H215247   1.189   1.023   4.566
 5081TIP3   OH215248   2.153   4.093   4.645
 5081TIP3    H115249   2.124   4.015   4.693
 5081TIP3    H215250   2.246   4.102   4.669
 5082TIP3   OH215251   2.345   5.553   5.131
 5082TIP3    H115252   2.439   5.537   5.127
 5082TIP3    H215253   2.328   5.614   5.059
 5083TIP3   OH215254   3.206   0.729   4.257
 5083TIP3    H115255   3.173   0.761   4.173
 5083TIP3    H215256   3.197   0.803   4.316
 5084TIP3   OH215257   0.163   0.714   0.316
 5084TIP3    H115258   0.251   0.701   0.282
 5084TIP3    H215259   0.140   0.631   0.357
 5085TIP3   OH215260   3.724   2.125   2.155
 5085TIP3    H115261   3.757   2.087   2.074
 5085TIP3    H215262   3.700   2.049   2.209
 5086TIP3   OH215263   2.732   2.270   4.533
 5086TIP3    H115264   2.765   2.187   4.498
 5086TIP3    H215265   2.808   2.310   4.575
 5087TIP3   OH215266   3.022   1.896   5.149
 5087TIP3    H115267   2.982   1.814   5.120
 5087TIP3    H215268   2.949   1.958   5.153
 5088TIP3   OH215269   3.895   3.215   2.958
 5088TIP3    H115270   3.949   3.186   3.031
 5088TIP3    H215271   3.946   3.285   2.916
 5089TIP3   OH215272   2.608   3.666   2.625
 5089TIP3    H115273   2.601   3.571   2.620
 5089TIP3    H215274   2.584   3.697   2.537
 5090TIP3   OH215275   5.480   2.792   4.599
 5090TIP3    H115276   5.564   2.838   4.595
 5090TIP3    H215277   5.482   2.730   4.527
 5091TIP3   OH215278   1.034   1.983   4.999
 5091TIP3    H115279   1.029   1.933   4.918
 5091TIP3    H215280   0.971   1.941   5.057
 5092TIP3   OH215281   5.122   4.638   1.322
 5092TIP3    H115282   5.101   4.732   1.315
 5092TIP3    H215283   5.109   4.618   1.415
 5093TIP3   OH215284   4.330   4.004   1.130
 5093TIP3    H115285   4.308   3.942   1.199
 5093TIP3    H215286   4.424   3.996   1.118
 5094TIP3   OH215287   3.323   3.559   2.908
 5094TIP3    H115288   3.399   3.534   2.961
 5094TIP3    H215289   3.259   3.491   2.926
 5095TIP3   OH215290   4.497   3.192   3.421
 5095TIP3    H115291   4.412   3.217   3.386
 5095TIP3    H215292   4.483   3.105   3.458
 5096TIP3   OH215293   2.335   5.705   3.334
 5096TIP3    H115294   2.311   5.667   3.249
 5096TIP3    H215295   2.275   5.663   3.396
 5097TIP3   OH215296   0.140   0.848   0.830
 5097TIP3    H115297   0.216   0.823   0.884
 5097TIP3    H215298   0.065   0.838   0.888
 5098TIP3   OH215299   0.722   1.459   2.504
 5098TIP3    H115300   0.772   1.541   2.504
 5098TIP3    H215301   0.752   1.414   2.583
 5099TIP3   OH215302   1.602   1.000   4.085
 5099TIP3    H115303   1.650   1.066   4.135
 5099TIP3    H215304   1.591   1.039   3.999
 5100TIP3   OH215305   2.463   3.721   0.106
 5100TIP3    H115306   2.557   3.701   0.104
 5100TIP3    H215307   2.426   3.659   0.168
 5101TIP3   OH215308   5.519   1.189   1.912
 5101TIP3    H115309   5.483   1.124   1.851
 5101TIP3    H215310   5.607   1.158   1.931
 5102TIP3   OH215311   5.783   3.137   2.043
 5102TIP3    H115312   5.704   3.189   2.029
 5102TIP3    H215313   5.829   3.141   1.959
 5103TIP3   OH215314   2.733   3.979   2.998
 5103TIP3    H115315   2.708   3.946   2.912
 5103TIP3    H215316   2.770   3.903   3.044
 5104TIP3   OH215317   4.040   1.875   0.633
 5104TIP3    H115318   3.991   1.896   0.553
 5104TIP3    H215319   3.981   1.817   0.682
 5105TIP3   OH215320   1.358   4.156   0.159
 5105TIP3    H115321   1.372   4.062   0.174
 5105TIP3    H215322   1.278   4.161   0.107
 5106TIP3   OH215323   3.188   5.777   2.181
 5106TIP3    H115324   3.193   5.682   2.184
 5106TIP3    H215325   3.160   5.802   2.269
 5107TIP3   OH215326   1.263   1.719   1.311
 5107TIP3    H115327   1.187   1.667   1.336
 5107TIP3    H215328   1.289   1.764   1.391
 5108TIP3   OH215329   5.673   4.162   1.816
 5108TIP3    H115330   5.750   4.180   1.761
 5108TIP3    H215331   5.710   4.139   1.901
 5109TIP3   OH215332   3.164   0.268   2.837
 5109TIP3    H115333   3.178   0.357   2.803
 5109TIP3    H215334   3.074   0.247   2.812
 5110TIP3   OH215335   5.284   2.928   4.740
 5110TIP3    H115336   5.217   2.865   4.714
 5110TIP3    H215337   5.364   2.898   4.696
 5111TIP3   OH215338   4.349   2.082   1.524
 5111TIP3    H115339   4.345   2.166   1.478
 5111TIP3    H215340   4.285   2.027   1.479
 5112TIP3   OH215341   0.189   1.171   3.934
 5112TIP3    H115342   0.189   1.166   3.839
 5112TIP3    H215343   0.109   1.219   3.955
 5113TIP3   OH215344   6.009   5.118   3.416
 5113TIP3    H115345   6.063   5.188   3.453
 5113TIP3    H215346   5.920   5.141   3.441
 5114TIP3   OH215347   4.021   5.089   4.070
 5114TIP3    H115348   4.001   5.102   3.977
 5114TIP3    H215349   3.980   5.164   4.114
 5115TIP3   OH215350   2.900   0.278   4.363
 5115TIP3    H115351   2.844   0.201   4.366
 5115TIP3    H215352   2.951   0.273   4.445
 5116TIP3   OH215353   2.808   4.135   4.773
 5116TIP3    H115354   2.794   4.155   4.680
 5116TIP3    H215355   2.815   4.039   4.775
 5117TIP3   OH215356   2.084   4.934   2.127
 5117TIP3    H115357   2.095   5.014   2.179
 5117TIP3    H215358   2.159   4.880   2.151
 5118TIP3   OH215359   2.871   3.470   3.060
 5118TIP3    H115360   2.826   3.409   3.119
 5118TIP3    H215361   2.806   3.490   2.992
 5119TIP3   OH215362   4.940   0.823   1.621
 5119TIP3    H115363   4.861   0.792   1.577
 5119TIP3    H215364   4.925   0.916   1.636
 5120TIP3   OH215365   3.790   0.255   0.042
 5120TIP3    H115366   3.774   0.339   0.084
 5120TIP3    H215367   3.841   0.277  -0.036
 5121TIP3   OH215368   1.201   3.571   2.156
 5121TIP3    H115369   1.215   3.612   2.070
 5121TIP3    H215370   1.162   3.641   2.209
 5122TIP3   OH215371   0.210   3.578   1.914
 5122TIP3    H115372   0.149   3.508   1.891
 5122TIP3    H215373   0.167   3.626   1.984
 5123TIP3   OH215374   4.946   4.701   3.162
 5123TIP3    H115375   4.973   4.612   3.140
 5123TIP3    H215376   4.893   4.692   3.241
 5124TIP3   OH215377   1.586   0.573   0.904
 5124TIP3    H115378   1.500   0.534   0.889
 5124TIP3    H215379   1.624   0.581   0.816
 5125TIP3   OH215380   2.861   2.285   4.258
 5125TIP3    H115381   2.870   2.347   4.330
 5125TIP3    H215382   2.846   2.201   4.301
 5126TIP3   OH215383   5.434   4.343   1.278
 5126TIP3    H115384   5.392   4.421   1.313
 5126TIP3    H215385   5.525   4.370   1.262
 5127TIP3   OH215386   0.564   1.885   0.913
 5127TIP3    H115387   0.599   1.965   0.950
 5127TIP3    H215388   0.501   1.915   0.847
 5128TIP3   OH215389   0.525   3.259   4.571
 5128TIP3    H115390   0.541   3.322   4.642
 5128TIP3    H215391   0.431   3.265   4.556
 5129TIP3   OH215392   0.730   1.451   0.630
 5129TIP3    H115393   0.701   1.516   0.694
 5129TIP3    H215394   0.821   1.433   0.653
 5130TIP3   OH215395   5.777   3.529   0.888
 5130TIP3    H115396   5.826   3.472   0.828
 5130TIP3    H215397   5.787   3.617   0.851
 5131TIP3   OH215398   2.861   2.871   1.066
 5131TIP3    H115399   2.916   2.922   1.007
 5131TIP3    H215400   2.836   2.794   1.015
 5132TIP3   OH215401   2.869   0.952   2.774
 5132TIP3    H115402   2.824   0.869   2.790
 5132TIP3    H215403   2.915   0.971   2.855
 5133TIP3   OH215404   0.115   5.608   0.197
 5133TIP3    H115405   0.097   5.691   0.242
 5133TIP3    H215406   0.047   5.548   0.228
 5134TIP3   OH215407   4.343   2.425   4.952
 5134TIP3    H115408   4.413   2.466   5.002
 5134TIP3    H215409   4.307   2.359   5.012
 5135TIP3   OH215410   3.352   5.280   4.715
 5135TIP3    H115411   3.430   5.227   4.728
 5135TIP3    H215412   3.383   5.370   4.723
 5136TIP3   OH215413   3.649   3.303   5.134
 5136TIP3    H115414   3.704   3.381   5.133
 5136TIP3    H215415   3.569   3.330   5.179
 5137TIP3   OH215416   1.258   2.480   4.195
 5137TIP3    H115417   1.340   2.441   4.164
 5137TIP3    H215418   1.242   2.553   4.136
 5138TIP3   OH215419   0.335   5.243   3.763
 5138TIP3    H115420   0.395   5.311   3.794
 5138TIP3    H215421   0.255   5.291   3.741
 5139TIP3   OH215422   0.926   2.963   3.988
 5139TIP3    H115423   0.869   3.001   3.921
 5139TIP3    H215424   0.978   2.898   3.942
 5140TIP3   OH215425   1.986   2.666   1.691
 5140TIP3    H115426   2.002   2.686   1.783
 5140TIP3    H215427   2.054   2.602   1.668
 5141TIP3   OH215428   0.988   2.237   4.571
 5141TIP3    H115429   1.070   2.204   4.607
 5141TIP3    H215430   0.922   2.174   4.601
 5142TIP3   OH215431   2.257   2.399   2.058
 5142TIP3    H115432   2.220   2.317   2.092
 5142TIP3    H215433   2.294   2.442   2.134
 5143TIP3   OH215434   3.580   4.979   4.847
 5143TIP3    H115435   3.519   4.963   4.774
 5143TIP3    H215436   3.526   4.969   4.925
 5144TIP3   OH215437   1.252  -0.001   4.376
 5144TIP3    H115438   1.282  -0.003   4.285
 5144TIP3    H215439   1.162   0.031   4.371
 5145TIP3   OH215440   1.271   1.170   1.068
 5145TIP3    H115441   1.219   1.207   0.997
 5145TIP3    H215442   1.333   1.112   1.025
 5146TIP3   OH215443   6.138   0.112   3.594
 5146TIP3    H115444   6.102   0.167   3.525
 5146TIP3    H215445   6.227   0.092   3.564
 5147TIP3   OH215446   4.133   2.772   3.396
 5147TIP3    H115447   4.157   2.697   3.450
 5147TIP3    H215448   4.065   2.817   3.446
 5148TIP3   OH215449   2.823   0.317   0.145
 5148TIP3    H115450   2.897   0.364   0.184
 5148TIP3    H215451   2.814   0.238   0.198
 5149TIP3   OH215452   5.215   4.218   3.095
 5149TIP3    H115453   5.225   4.222   3.000
 5149TIP3    H215454   5.302   4.197   3.128
 5150TIP3   OH215455   0.915   2.476   0.070
 5150TIP3    H115456   0.845   2.495   0.132
 5150TIP3    H215457   0.945   2.561   0.039
 5151TIP3   OH215458   4.197   4.366   3.099
 5151TIP3    H115459   4.169   4.436   3.040
 5151TIP3    H215460   4.266   4.405   3.153
 5152TIP3   OH215461   3.221   4.202   3.219
 5152TIP3    H115462   3.149   4.174   3.276
 5152TIP3    H215463   3.185   4.198   3.131
 5153TIP3   OH215464   5.104   2.023   3.521
 5153TIP3    H115465   5.048   2.020   3.599
 5153TIP3    H215466   5.042   2.024   3.447
 5154TIP3   OH215467   5.918   3.810   0.985
 5154TIP3    H115468   5.976   3.803   0.909
 5154TIP3    H215469   5.838   3.849   0.951
 5155TIP3   OH215470   1.652   5.141   2.910
 5155TIP3    H115471   1.652   5.051   2.940
 5155TIP3    H215472   1.600   5.140   2.829
 5156TIP3   OH215473   2.602   0.131   0.591
 5156TIP3    H115474   2.628   0.216   0.557
 5156TIP3    H215475   2.683   0.092   0.622
 5157TIP3   OH215476   2.519   3.100   3.749
 5157TIP3    H115477   2.506   3.149   3.668
 5157TIP3    H215478   2.452   3.132   3.809
 5158TIP3   OH215479   0.697   1.778   1.334
 5158TIP3    H115480   0.639   1.830   1.389
 5158TIP3    H215481   0.764   1.839   1.304
 5159TIP3   OH215482   4.891   5.843   1.565
 5159TIP3    H115483   4.904   5.934   1.593
 5159TIP3    H215484   4.979   5.811   1.545
 5160TIP3   OH215485   6.130   1.633   4.902
 5160TIP3    H115486   6.102   1.678   4.982
 5160TIP3    H215487   6.051   1.627   4.849
 5161TIP3   OH215488   6.117   0.109   1.918
 5161TIP3    H115489   6.097   0.130   2.009
 5161TIP3    H215490   6.173   0.032   1.923
 5162TIP3   OH215491   0.690   3.169   0.241
 5162TIP3    H115492   0.748   3.157   0.316
 5162TIP3    H215493   0.703   3.260   0.215
 5163TIP3   OH215494   3.347   3.263   0.486
 5163TIP3    H115495   3.275   3.327   0.481
 5163TIP3    H215496   3.365   3.255   0.580
 5164TIP3   OH215497   3.153   5.403   4.425
 5164TIP3    H115498   3.167   5.494   4.451
 5164TIP3    H215499   3.184   5.352   4.500
 5165TIP3   OH215500   4.258   4.088   0.313
 5165TIP3    H115501   4.252   4.181   0.290
 5165TIP3    H215502   4.334   4.082   0.370
 5166TIP3   OH215503   2.590   0.602   0.526
 5166TIP3    H115504   2.499   0.631   0.520
 5166TIP3    H215505   2.612   0.612   0.618
 5167TIP3   OH215506   1.618   4.920   3.060
 5167TIP3    H115507   1.569   4.888   2.984
 5167TIP3    H215508   1.628   4.843   3.116
 5168TIP3   OH215509   2.734   3.122   0.670
 5168TIP3    H115510   2.793   3.175   0.724
 5168TIP3    H215511   2.694   3.061   0.732
 5169TIP3   OH215512   5.549   0.960   4.693
 5169TIP3    H115513   5.516   0.898   4.757
 5169TIP3    H215514   5.514   1.045   4.722
 5170TIP3   OH215515   0.075   3.125   2.808
 5170TIP3    H115516   0.134   3.199   2.826
 5170TIP3    H215517  -0.009   3.152   2.844
 5171TIP3   OH215518   3.454   2.548   3.858
 5171TIP3    H115519   3.484   2.534   3.768
 5171TIP3    H215520   3.495   2.478   3.909
 5172TIP3   OH215521   2.652   4.564   4.469
 5172TIP3    H115522   2.677   4.626   4.400
 5172TIP3    H215523   2.577   4.605   4.512
 5173TIP3   OH215524   1.459   1.141   1.880
 5173TIP3    H115525   1.427   1.217   1.831
 5173TIP3    H215526   1.525   1.177   1.939
 5174TIP3   OH215527   2.935   3.632   4.369
 5174TIP3    H115528   2.970   3.568   4.431
 5174TIP3    H215529   2.954   3.595   4.283
 5175TIP3   OH215530   0.662   4.077   3.350
 5175TIP3    H115531   0.574   4.070   3.388
 5175TIP3    H215532   0.708   4.140   3.406
 5176TIP3   OH215533   3.510   4.656   2.487
 5176TIP3    H115534   3.483   4.680   2.399
 5176TIP3    H215535   3.558   4.574   2.476
 5177TIP3   OH215536   5.961   4.861   1.009
 5177TIP3    H115537   5.967   4.942   0.958
 5177TIP3    H215538   5.872   4.830   0.993
 5178TIP3   OH215539   3.388   3.240   1.811
 5178TIP3    H115540   3.461   3.211   1.757
 5178TIP3    H215541   3.369   3.166   1.868
 5179TIP3   OH215542   2.301   0.457   2.239
 5179TIP3    H115543   2.218   0.472   2.284
 5179TIP3    H215544   2.286   0.487   2.150
 5180TIP3   OH215545   1.587   3.246   0.401
 5180TIP3    H115546   1.522   3.193   0.447
 5180TIP3    H215547   1.581   3.333   0.442
 5181TIP3   OH215548   5.076   5.517   5.143
 5181TIP3    H115549   5.034   5.452   5.085
 5181TIP3    H215550   5.071   5.599   5.094
 5182TIP3   OH215551   4.608   2.196   2.143
 5182TIP3    H115552   4.524   2.241   2.146
 5182TIP3    H215553   4.608   2.140   2.220
 5183TIP3   OH215554   2.670   2.495   0.098
 5183TIP3    H115555   2.688   2.507   0.191
 5183TIP3    H215556   2.658   2.584   0.065
 5184TIP3   OH215557   4.043   4.271   3.476
 5184TIP3    H115558   4.069   4.202   3.536
 5184TIP3    H215559   4.058   4.352   3.524
 5185TIP3   OH215560   2.128   4.821   1.236
 5185TIP3    H115561   2.050   4.871   1.258
 5185TIP3    H215562   2.199   4.864   1.284
 5186TIP3   OH215563   4.740   3.671   2.080
 5186TIP3    H115564   4.657   3.641   2.044
 5186TIP3    H215565   4.806   3.643   2.016
 5187TIP3   OH215566   1.975   3.113   3.313
 5187TIP3    H115567   1.929   3.081   3.391
 5187TIP3    H215568   2.067   3.098   3.332
 5188TIP3   OH215569   4.875   0.545   0.612
 5188TIP3    H115570   4.898   0.457   0.640
 5188TIP3    H215571   4.928   0.603   0.666
 5189TIP3   OH215572   4.614   2.091   3.083
 5189TIP3    H115573   4.700   2.107   3.044
 5189TIP3    H215574   4.586   2.177   3.117
 5190TIP3   OH215575   2.316   1.357   0.541
 5190TIP3    H115576   2.381   1.320   0.480
 5190TIP3    H215577   2.368   1.401   0.608
 5191TIP3   OH215578   4.860   3.612   4.211
 5191TIP3    H115579   4.913   3.689   4.189
 5191TIP3    H215580   4.923   3.539   4.211
 5192TIP3   OH215581   3.809   0.988   0.838
 5192TIP3    H115582   3.846   0.945   0.915
 5192TIP3    H215583   3.792   0.917   0.776
 5193TIP3   OH215584   1.733   4.028   1.335
 5193TIP3    H115585   1.668   4.028   1.406
 5193TIP3    H215586   1.774   3.942   1.339
 5194TIP3   OH215587   3.139   0.410   0.020
 5194TIP3    H115588   3.209   0.346   0.033
 5194TIP3    H215589   3.123   0.446   0.107
 5195TIP3   OH215590   2.264   5.164   4.403
 5195TIP3    H115591   2.326   5.093   4.421
 5195TIP3    H215592   2.188   5.120   4.364
 5196TIP3   OH215593   4.910   4.570   4.039
 5196TIP3    H115594   4.950   4.533   4.117
 5196TIP3    H215595   4.980   4.568   3.973
 5197TIP3   OH215596   3.504   3.145   0.164
 5197TIP3    H115597   3.591   3.180   0.144
 5197TIP3    H215598   3.444   3.213   0.135
 5198TIP3   OH215599   5.356   3.149   3.536
 5198TIP3    H115600   5.305   3.161   3.617
 5198TIP3    H215601   5.376   3.238   3.508
 5199TIP3   OH215602   3.474   4.608   0.993
 5199TIP3    H115603   3.395   4.559   0.972
 5199TIP3    H215604   3.527   4.547   1.045
 5200TIP3   OH215605   1.111   3.121   4.427
 5200TIP3    H115606   1.140   3.080   4.509
 5200TIP3    H215607   1.114   3.050   4.363
 5201TIP3   OH215608   4.167   0.453   4.441
 5201TIP3    H115609   4.083   0.422   4.407
 5201TIP3    H215610   4.208   0.374   4.478
 5202TIP3   OH215611   5.714   4.180   1.322
 5202TIP3    H115612   5.782   4.184   1.389
 5202TIP3    H215613   5.757   4.210   1.242
 5203TIP3   OH215614   4.517   1.092   4.955
 5203TIP3    H115615   4.572   1.033   5.005
 5203TIP3    H215616   4.436   1.043   4.940
 5204TIP3   OH215617   2.726   4.525   3.949
 5204TIP3    H115618   2.680   4.568   3.877
 5204TIP3    H215619   2.662   4.522   4.020
 5205TIP3   OH215620   4.263   1.538   0.946
 5205TIP3    H115621   4.332   1.578   0.894
 5205TIP3    H215622   4.308   1.478   1.005
 5206TIP3   OH215623   3.360   4.268   5.124
 5206TIP3    H115624   3.370   4.183   5.165
 5206TIP3    H215625   3.360   4.250   5.030
 5207TIP3   OH215626   3.543   0.418   4.801
 5207TIP3    H115627   3.457   0.380   4.783
 5207TIP3    H215628   3.530   0.512   4.792
 5208TIP3   OH215629   4.551   2.696   0.484
 5208TIP3    H115630   4.566   2.790   0.499
 5208TIP3    H215631   4.636   2.656   0.499
 5209TIP3   OH215632   0.774   1.996   0.736
 5209TIP3    H115633   0.852   1.998   0.792
 5209TIP3    H215634   0.735   2.083   0.746
 5210TIP3   OH215635   3.927   4.866   3.760
 5210TIP3    H115636   3.930   4.818   3.677
 5210TIP3    H215637   3.969   4.807   3.823
 5211TIP3   OH215638   5.801   0.688   1.497
 5211TIP3    H115639   5.747   0.680   1.419
 5211TIP3    H215640   5.769   0.767   1.541
 5212TIP3   OH215641   2.812   2.048   5.050
 5212TIP3    H115642   2.822   2.063   4.956
 5212TIP3    H215643   2.749   2.114   5.078
 5213TIP3   OH215644   5.299   3.091   4.439
 5213TIP3    H115645   5.355   3.101   4.362
 5213TIP3    H215646   5.241   3.168   4.436
 5214TIP3   OH215647   0.457   1.346   2.457
 5214TIP3    H115648   0.532   1.389   2.498
 5214TIP3    H215649   0.383   1.365   2.516
 5215TIP3   OH215650   3.880   1.845   0.343
 5215TIP3    H115651   3.924   1.761   0.359
 5215TIP3    H215652   3.788   1.829   0.364
 5216TIP3   OH215653   2.215   3.377   5.053
 5216TIP3    H115654   2.155   3.440   5.011
 5216TIP3    H215655   2.277   3.432   5.100
 5217TIP3   OH215656   5.497   5.612   3.663
 5217TIP3    H115657   5.471   5.696   3.625
 5217TIP3    H215658   5.470   5.548   3.597
 5218TIP3   OH215659   5.563   0.682   2.519
 5218TIP3    H115660   5.559   0.669   2.425
 5218TIP3    H215661   5.472   0.702   2.544
 5219TIP3   OH215662   1.487   3.649   4.685
 5219TIP3    H115663   1.535   3.609   4.758
 5219TIP3    H215664   1.554   3.667   4.619
 5220TIP3   OH215665   4.072   2.721   0.083
 5220TIP3    H115666   4.052   2.758  -0.004
 5220TIP3    H215667   4.114   2.793   0.130
 5221TIP3   OH215668   1.592   5.855   4.062
 5221TIP3    H115669   1.579   5.825   3.972
 5221TIP3    H215670   1.524   5.921   4.075
 5222TIP3   OH215671   0.432   4.642   2.128
 5222TIP3    H115672   0.429   4.558   2.173
 5222TIP3    H215673   0.477   4.624   2.046
 5223TIP3   OH215674   3.583   4.066   3.803
 5223TIP3    H115675   3.550   3.978   3.820
 5223TIP3    H215676   3.557   4.085   3.713
 5224TIP3   OH215677   4.523   1.429   0.650
 5224TIP3    H115678   4.521   1.513   0.696
 5224TIP3    H215679   4.603   1.386   0.682
 5225TIP3   OH215680   3.902   2.910   1.005
 5225TIP3    H115681   3.973   2.881   1.063
 5225TIP3    H215682   3.909   2.854   0.928
 5226TIP3   OH215683   3.818   2.453   2.725
 5226TIP3    H115684   3.771   2.507   2.789
 5226TIP3    H215685   3.816   2.365   2.762
 5227TIP3   OH215686   6.061   1.507   1.587
 5227TIP3    H115687   6.136   1.468   1.542
 5227TIP3    H215688   6.030   1.574   1.527
 5228TIP3   OH215689   2.226   4.891   3.477
 5228TIP3    H115690   2.314   4.928   3.487
 5228TIP3    H215691   2.180   4.918   3.556
 5229TIP3   OH215692   1.520   0.671   2.722
 5229TIP3    H115693   1.557   0.608   2.785
 5229TIP3    H215694   1.520   0.624   2.639
 5230TIP3   OH215695   5.953   1.340   3.889
 5230TIP3    H115696   6.007   1.415   3.866
 5230TIP3    H215697   5.985   1.313   3.975
 5231TIP3   OH215698   6.336   5.970   4.741
 5231TIP3    H115699   6.253   6.017   4.744
 5231TIP3    H215700   6.312   5.879   4.758
 5232TIP3   OH215701   0.067   0.390   3.990
 5232TIP3    H115702   0.093   0.306   4.028
 5232TIP3    H215703  -0.025   0.378   3.966
 5233TIP3   OH215704   5.868   2.115   4.673
 5233TIP3    H115705   5.854   2.091   4.581
 5233TIP3    H215706   5.912   2.040   4.712
 5234TIP3   OH215707   3.290   4.151   1.995
 5234TIP3    H115708   3.291   4.193   2.081
 5234TIP3    H215709   3.238   4.209   1.940
 5235TIP3   OH215710   5.511   1.113   1.045
 5235TIP3    H115711   5.478   1.086   0.959
 5235TIP3    H215712   5.435   1.150   1.089
 5236TIP3   OH215713   5.746   4.271   2.705
 5236TIP3    H115714   5.741   4.177   2.724
 5236TIP3    H215715   5.769   4.311   2.789
 5237TIP3   OH215716   0.845   1.240   1.378
 5237TIP3    H115717   0.834   1.274   1.467
 5237TIP3    H215718   0.909   1.299   1.338
 5238TIP3   OH215719   5.658   4.699   1.851
 5238TIP3    H115720   5.608   4.780   1.854
 5238TIP3    H215721   5.609   4.638   1.907
 5239TIP3   OH215722   2.005   3.321   1.131
 5239TIP3    H115723   2.002   3.230   1.160
 5239TIP3    H215724   2.098   3.343   1.129
 5240TIP3   OH215725   4.905   2.718   3.875
 5240TIP3    H115726   4.934   2.753   3.790
 5240TIP3    H215727   4.908   2.794   3.934
 5241TIP3   OH215728   3.279   5.602   3.088
 5241TIP3    H115729   3.368   5.572   3.105
 5241TIP3    H215730   3.247   5.631   3.174
 5242TIP3   OH215731   2.449   4.568   2.355
 5242TIP3    H115732   2.400   4.607   2.428
 5242TIP3    H215733   2.508   4.638   2.326
 5243TIP3   OH215734   4.123   5.621   4.007
 5243TIP3    H115735   4.211   5.608   4.043
 5243TIP3    H215736   4.093   5.702   4.048
 5244TIP3   OH215737   3.144   3.706   0.528
 5244TIP3    H115738   3.236   3.727   0.545
 5244TIP3    H215739   3.095   3.765   0.585
 5245TIP3   OH215740   0.986   5.091   1.316
 5245TIP3    H115741   1.015   5.181   1.325
 5245TIP3    H215742   1.066   5.041   1.300
 5246TIP3   OH215743   3.114   0.641   2.060
 5246TIP3    H115744   3.090   0.729   2.030
 5246TIP3    H215745   3.033   0.603   2.093
 5247TIP3   OH215746   0.874   3.944   1.751
 5247TIP3    H115747   0.786   3.961   1.716
 5247TIP3    H215748   0.881   3.849   1.752
 5248TIP3   OH215749   5.582   0.411   3.574
 5248TIP3    H115750   5.565   0.493   3.529
 5248TIP3    H215751   5.496   0.369   3.579
 5249TIP3   OH215752   1.292   0.891   4.324
 5249TIP3    H115753   1.379   0.853   4.334
 5249TIP3    H215754   1.231   0.818   4.335
 5250TIP3   OH215755   5.290   5.474   3.872
 5250TIP3    H115756   5.265   5.402   3.931
 5250TIP3    H215757   5.329   5.431   3.796
 5251TIP3   OH215758   1.122   2.228   0.771
 5251TIP3    H115759   1.057   2.297   0.754
 5251TIP3    H215760   1.197   2.252   0.716
 5252TIP3   OH215761   2.665   5.713   1.149
 5252TIP3    H115762   2.652   5.706   1.054
 5252TIP3    H215763   2.630   5.632   1.184
 5253TIP3   OH215764   3.850   2.015   3.970
 5253TIP3    H115765   3.863   1.923   3.948
 5253TIP3    H215766   3.791   2.048   3.902
 5254TIP3   OH215767   4.009   4.831   4.555
 5254TIP3    H115768   3.927   4.790   4.530
 5254TIP3    H215769   4.021   4.902   4.492
 5255TIP3   OH215770   1.098   2.302   5.143
 5255TIP3    H115771   1.040   2.375   5.124
 5255TIP3    H215772   1.108   2.303   5.238
 5256TIP3   OH215773   2.352   2.695   0.467
 5256TIP3    H115774   2.425   2.731   0.418
 5256TIP3    H215775   2.330   2.764   0.531
 5257TIP3   OH215776   5.462   4.572   2.022
 5257TIP3    H115777   5.410   4.653   2.020
 5257TIP3    H215778   5.445   4.534   2.108
 5258TIP3   OH215779   3.658   4.361   0.348
 5258TIP3    H115780   3.612   4.373   0.265
 5258TIP3    H215781   3.727   4.428   0.347
 5259TIP3   OH215782   3.892   1.971   5.149
 5259TIP3    H115783   3.850   2.057   5.141
 5259TIP3    H215784   3.953   1.981   5.222
 5260TIP3   OH215785   1.225   4.313   2.439
 5260TIP3    H115786   1.192   4.244   2.496
 5260TIP3    H215787   1.182   4.393   2.470
 5261TIP3   OH215788   6.191   0.009   1.236
 5261TIP3    H115789   6.140  -0.065   1.202
 5261TIP3    H215790   6.233   0.047   1.159
 5262TIP3   OH215791   1.881   4.427   0.513
 5262TIP3    H115792   1.921   4.362   0.455
 5262TIP3    H215793   1.941   4.433   0.587
 5263TIP3   OH215794   3.176   0.833   2.671
 5263TIP3    H115795   3.087   0.798   2.667
 5263TIP3    H215796   3.177   0.902   2.605
 5264TIP3   OH215797   2.512   0.119   1.485
 5264TIP3    H115798   2.522   0.025   1.502
 5264TIP3    H215799   2.454   0.123   1.409
 5265TIP3   OH215800   1.360   3.241   3.886
 5265TIP3    H115801   1.412   3.272   3.960
 5265TIP3    H215802   1.293   3.185   3.925
 5266TIP3   OH215803   1.753   4.672   0.447
 5266TIP3    H115804   1.837   4.702   0.413
 5266TIP3    H215805   1.776   4.599   0.505
 5267TIP3   OH215806   1.508   4.155   3.770
 5267TIP3    H115807   1.542   4.245   3.767
 5267TIP3    H215808   1.435   4.160   3.833
 5268TIP3   OH215809   1.832   2.208   4.962
 5268TIP3    H115810   1.887   2.270   5.010
 5268TIP3    H215811   1.747   2.251   4.956
 5269TIP3   OH215812   4.283   3.844   3.589
 5269TIP3    H115813   4.256   3.935   3.581
 5269TIP3    H215814   4.203   3.794   3.575
 5270TIP3   OH215815   6.269   5.665   0.634
 5270TIP3    H115816   6.354   5.705   0.651
 5270TIP3    H215817   6.216   5.735   0.596
 5271TIP3   OH215818   2.105   2.000   5.068
 5271TIP3    H115819   2.079   2.091   5.078
 5271TIP3    H215820   2.188   1.993   5.115
 5272TIP3   OH215821   3.500   2.743   1.760
 5272TIP3    H115822   3.423   2.798   1.773
 5272TIP3    H215823   3.471   2.656   1.788
 5273TIP3   OH215824   2.062   4.162   1.198
 5273TIP3    H115825   1.976   4.122   1.181
 5273TIP3    H215826   2.103   4.102   1.260
 5274TIP3   OH215827   1.616   1.422   3.185
 5274TIP3    H115828   1.588   1.494   3.129
 5274TIP3    H215829   1.596   1.451   3.274
 5275TIP3   OH215830   0.790   4.369   2.432
 5275TIP3    H115831   0.708   4.320   2.425
 5275TIP3    H215832   0.821   4.351   2.521
 5276TIP3   OH215833   5.752   0.432   4.832
 5276TIP3    H115834   5.811   0.505   4.820
 5276TIP3    H215835   5.784   0.387   4.910
 5277TIP3   OH215836   4.920   5.681   0.685
 5277TIP3    H115837   4.977   5.616   0.726
 5277TIP3    H215838   4.837   5.675   0.733
 5278TIP3   OH215839   3.589   2.411   3.245
 5278TIP3    H115840   3.633   2.445   3.323
 5278TIP3    H215841   3.603   2.316   3.250
 5279TIP3   OH215842   0.653   0.344   2.135
 5279TIP3    H115843   0.601   0.295   2.198
 5279TIP3    H215844   0.593   0.408   2.098
 5280TIP3   OH215845   2.859   1.391   4.959
 5280TIP3    H115846   2.766   1.392   4.937
 5280TIP3    H215847   2.861   1.368   5.052
 5281TIP3   OH215848   4.914   3.893   1.663
 5281TIP3    H115849   4.902   3.832   1.590
 5281TIP3    H215850   4.825   3.916   1.690
 5282TIP3   OH215851   1.771   4.177   3.539
 5282TIP3    H115852   1.750   4.260   3.581
 5282TIP3    H215853   1.858   4.154   3.573
 5283TIP3   OH215854   4.836   5.247   0.467
 5283TIP3    H115855   4.850   5.267   0.560
 5283TIP3    H215856   4.781   5.169   0.467
 5284TIP3   OH215857   2.446   0.437   0.129
 5284TIP3    H115858   2.478   0.527   0.136
 5284TIP3    H215859   2.495   0.400   0.055
 5285TIP3   OH215860   3.541   5.184   0.136
 5285TIP3    H115861   3.551   5.272   0.100
 5285TIP3    H215862   3.606   5.179   0.206
 5286TIP3   OH215863   2.028   4.186   0.439
 5286TIP3    H115864   2.111   4.224   0.467
 5286TIP3    H215865   1.990   4.148   0.518
 5287TIP3   OH215866   0.661   1.145   0.640
 5287TIP3    H115867   0.575   1.150   0.683
 5287TIP3    H215868   0.687   1.236   0.626
 5288TIP3   OH215869   1.613   1.255   0.170
 5288TIP3    H115870   1.623   1.182   0.109
 5288TIP3    H215871   1.637   1.332   0.118
 5289TIP3   OH215872   0.718   2.462   0.426
 5289TIP3    H115873   0.765   2.530   0.378
 5289TIP3    H215874   0.682   2.507   0.502
 5290TIP3   OH215875   2.122   3.880   4.101
 5290TIP3    H115876   2.131   3.975   4.102
 5290TIP3    H215877   2.046   3.864   4.045
 5291TIP3   OH215878   5.691   3.083   3.344
 5291TIP3    H115879   5.709   3.175   3.364
 5291TIP3    H215880   5.744   3.066   3.266
 5292TIP3   OH215881   3.891   1.500   2.594
 5292TIP3    H115882   3.824   1.528   2.656
 5292TIP3    H215883   3.973   1.532   2.631
 5293TIP3   OH215884   3.285   1.626   2.656
 5293TIP3    H115885   3.305   1.716   2.634
 5293TIP3    H215886   3.359   1.597   2.710
 5294TIP3   OH215887   1.194   3.807   2.575
 5294TIP3    H115888   1.258   3.738   2.562
 5294TIP3    H215889   1.151   3.816   2.490
 5295TIP3   OH215890   2.135   3.858   4.397
 5295TIP3    H115891   2.149   3.763   4.401
 5295TIP3    H215892   2.129   3.878   4.304
 5296TIP3   OH215893   0.253   1.839   3.057
 5296TIP3    H115894   0.264   1.744   3.053
 5296TIP3    H215895   0.328   1.870   3.107
 5297TIP3   OH215896   3.357   3.334   4.760
 5297TIP3    H115897   3.439   3.289   4.738
 5297TIP3    H215898   3.385   3.408   4.814
 5298TIP3   OH215899   3.714   4.703   3.223
 5298TIP3    H115900   3.783   4.703   3.289
 5298TIP3    H215901   3.703   4.611   3.199
 5299TIP3   OH215902   5.651   4.702   2.831
 5299TIP3    H115903   5.644   4.786   2.785
 5299TIP3    H215904   5.620   4.720   2.920
 5300TIP3   OH215905   1.663   3.172   4.803
 5300TIP3    H115906   1.666   3.196   4.895
 5300TIP3    H215907   1.572   3.182   4.778
 5301TIP3   OH215908   0.493   1.754   1.131
 5301TIP3    H115909   0.508   1.821   1.066
 5301TIP3    H215910   0.568   1.759   1.190
 5302TIP3   OH215911   0.513   0.335   0.771
 5302TIP3    H115912   0.474   0.255   0.738
 5302TIP3    H215913   0.603   0.311   0.793
 5303TIP3   OH215914   0.392   0.722   0.174
 5303TIP3    H115915   0.417   0.800   0.225
 5303TIP3    H215916   0.474   0.690   0.138
 5304TIP3   OH215917   4.882   2.195   2.236
 5304TIP3    H115918   4.887   2.167   2.327
 5304TIP3    H215919   4.802   2.153   2.203
 5305TIP3   OH215920   5.388   4.558   2.639
 5305TIP3    H115921   5.353   4.469   2.632
 5305TIP3    H215922   5.457   4.561   2.572
 5306TIP3   OH215923   3.132   2.001   3.919
 5306TIP3    H115924   3.171   2.045   3.994
 5306TIP3    H215925   3.182   2.034   3.844
 5307TIP3   OH215926   1.203   1.551   0.521
 5307TIP3    H115927   1.112   1.522   0.530
 5307TIP3    H215928   1.215   1.615   0.591
 5308TIP3   OH215929   5.943   0.459   2.477
 5308TIP3    H115930   6.033   0.430   2.460
 5308TIP3    H215931   5.920   0.416   2.559
 5309TIP3   OH215932   4.304   4.875   1.248
 5309TIP3    H115933   4.238   4.932   1.209
 5309TIP3    H215934   4.303   4.796   1.193
 5310TIP3   OH215935   5.103   0.384   4.209
 5310TIP3    H115936   5.070   0.421   4.126
 5310TIP3    H215937   5.048   0.307   4.224
 5311TIP3   OH215938   1.736   2.109   2.007
 5311TIP3    H115939   1.660   2.167   2.008
 5311TIP3    H215940   1.793   2.144   1.938
 5312TIP3   OH215941   1.194   5.601   4.562
 5312TIP3    H115942   1.209   5.507   4.555
 5312TIP3    H215943   1.100   5.609   4.582
 5313TIP3   OH215944   0.115   2.421   2.167
 5313TIP3    H115945   0.046   2.431   2.102
 5313TIP3    H215946   0.196   2.430   2.117
 5314TIP3   OH215947   3.862   5.743   1.614
 5314TIP3    H115948   3.882   5.832   1.587
 5314TIP3    H215949   3.937   5.691   1.585
 5315TIP3   OH215950   6.023   0.172   2.188
 5315TIP3    H115951   6.089   0.229   2.227
 5315TIP3    H215952   6.010   0.102   2.252
 5316TIP3   OH215953   2.479   3.614   3.754
 5316TIP3    H115954   2.472   3.705   3.783
 5316TIP3    H215955   2.394   3.595   3.715
 5317TIP3   OH215956   6.191   2.012   4.621
 5317TIP3    H115957   6.096   1.999   4.614
 5317TIP3    H215958   6.218   1.951   4.690
 5318TIP3   OH215959   1.543   1.385   2.205
 5318TIP3    H115960   1.575   1.296   2.218
 5318TIP3    H215961   1.555   1.401   2.111
 5319TIP3   OH215962   4.307   3.522   2.624
 5319TIP3    H115963   4.341   3.609   2.648
 5319TIP3    H215964   4.260   3.536   2.542
 5320TIP3   OH215965   3.957   4.589   4.769
 5320TIP3    H115966   3.901   4.666   4.758
 5320TIP3    H215967   3.911   4.519   4.722
 5321TIP3   OH215968   1.111   4.808   1.176
 5321TIP3    H115969   1.172   4.845   1.240
 5321TIP3    H215970   1.024   4.837   1.206
 5322TIP3   OH215971   3.397   5.577   0.174
 5322TIP3    H115972   3.470   5.521   0.148
 5322TIP3    H215973   3.373   5.546   0.261
 5323TIP3   OH215974   5.507  -0.012   3.835
 5323TIP3    H115975   5.444   0.059   3.820
 5323TIP3    H215976   5.592   0.028   3.817
 5324TIP3   OH215977   5.183   5.290   3.432
 5324TIP3    H115978   5.184   5.292   3.337
 5324TIP3    H215979   5.239   5.216   3.455
 5325TIP3   OH215980   3.017   3.237   1.819
 5325TIP3    H115981   3.064   3.291   1.882
 5325TIP3    H215982   3.039   3.274   1.734
 5326TIP3   OH215983   4.115   1.935   4.158
 5326TIP3    H115984   4.082   1.847   4.138
 5326TIP3    H215985   4.179   1.953   4.090
 5327TIP3   OH215986   1.755   1.991   0.888
 5327TIP3    H115987   1.803   1.927   0.942
 5327TIP3    H215988   1.787   2.076   0.919
 5328TIP3   OH215989   3.755   1.667   2.440
 5328TIP3    H115990   3.670   1.624   2.430
 5328TIP3    H215991   3.807   1.605   2.492
 5329TIP3   OH215992   3.988   2.715   1.645
 5329TIP3    H115993   3.949   2.640   1.688
 5329TIP3    H215994   3.913   2.767   1.615
 5330TIP3   OH215995   3.721   2.145   3.766
 5330TIP3    H115996   3.653   2.095   3.721
 5330TIP3    H215997   3.802   2.123   3.720
 5331TIP3   OH215998   1.367   2.989   1.728
 5331TIP3    H115999   1.362   2.934   1.650
 5331TIP3    H216000   1.335   2.934   1.799
 5332TIP3   OH216001   6.236   2.845   0.749
 5332TIP3    H116002   6.289   2.849   0.829
 5332TIP3    H216003   6.182   2.768   0.761
 5333TIP3   OH216004   3.199   0.956   4.392
 5333TIP3    H116005   3.288   0.974   4.421
 5333TIP3    H216006   3.167   1.040   4.359
 5334TIP3   OH216007   2.979   0.879   1.979
 5334TIP3    H116008   2.904   0.890   2.039
 5334TIP3    H216009   2.962   0.941   1.908
 5335TIP3   OH216010   1.904   5.728   1.626
 5335TIP3    H116011   1.815   5.718   1.660
 5335TIP3    H216012   1.906   5.673   1.548
 5336TIP3   OH216013   4.978   0.290   0.573
 5336TIP3    H116014   4.985   0.239   0.654
 5336TIP3    H216015   5.042   0.250   0.514
 5337TIP3   OH216016   2.244   1.224   1.083
 5337TIP3    H116017   2.169   1.260   1.131
 5337TIP3    H216018   2.282   1.159   1.142
 5338TIP3   OH216019   3.296   0.038   4.553
 5338TIP3    H116020   3.297   0.087   4.471
 5338TIP3    H216021   3.369  -0.024   4.545
 5339TIP3   OH216022   3.854   5.337   3.833
 5339TIP3    H116023   3.868   5.384   3.751
 5339TIP3    H216024   3.831   5.248   3.805
 5340TIP3   OH216025   3.626   5.633   3.826
 5340TIP3    H116026   3.680   5.573   3.774
 5340TIP3    H216027   3.549   5.650   3.771
 5341TIP3   OH216028   2.207   0.824   3.390
 5341TIP3    H116029   2.224   0.791   3.479
 5341TIP3    H216030   2.216   0.919   3.398
 5342TIP3   OH216031   2.649   4.258   3.897
 5342TIP3    H116032   2.554   4.260   3.883
 5342TIP3    H216033   2.674   4.350   3.905
 5343TIP3   OH216034   0.111   0.140   4.149
 5343TIP3    H116035   0.174   0.165   4.216
 5343TIP3    H216036   0.079   0.054   4.176
 5344TIP3   OH216037   5.076   0.249   0.309
 5344TIP3    H116038   5.113   0.261   0.221
 5344TIP3    H216039   5.048   0.337   0.335
 5345TIP3   OH216040   3.236   2.501   0.338
 5345TIP3    H116041   3.173   2.553   0.289
 5345TIP3    H216042   3.321   2.527   0.302
 5346TIP3   OH216043   2.588   0.605   1.849
 5346TIP3    H116044   2.602   0.513   1.874
 5346TIP3    H216045   2.536   0.641   1.921
 5347TIP3   OH216046   2.288   4.462   4.302
 5347TIP3    H116047   2.267   4.554   4.318
 5347TIP3    H216048   2.207   4.424   4.268
 5348TIP3   OH216049   0.291   1.436   4.739
 5348TIP3    H116050   0.219   1.484   4.697
 5348TIP3    H216051   0.249   1.361   4.780
 5349TIP3   OH216052   0.937   2.773   3.091
 5349TIP3    H116053   0.875   2.767   3.163
 5349TIP3    H216054   0.892   2.733   3.016
 5350TIP3   OH216055   3.665   5.898   0.666
 5350TIP3    H116056   3.627   5.984   0.650
 5350TIP3    H216057   3.658   5.853   0.582
 5351TIP3   OH216058   2.392   2.417   4.784
 5351TIP3    H116059   2.478   2.387   4.815
 5351TIP3    H216060   2.363   2.350   4.723
 5352TIP3   OH216061   3.838   2.854   5.120
 5352TIP3    H116062   3.900   2.791   5.084
 5352TIP3    H216063   3.852   2.851   5.214
 5353TIP3   OH216064   5.859   4.686   3.677
 5353TIP3    H116065   5.781   4.711   3.728
 5353TIP3    H216066   5.824   4.636   3.604
 5354TIP3   OH216067   4.098   1.690   1.960
 5354TIP3    H116068   4.176   1.682   1.905
 5354TIP3    H216069   4.120   1.640   2.039
 5355TIP3   OH216070   3.307   0.168   4.323
 5355TIP3    H116071   3.345   0.253   4.344
 5355TIP3    H216072   3.225   0.189   4.278
 5356TIP3   OH216073   2.608   3.221   3.439
 5356TIP3    H116074   2.638   3.234   3.349
 5356TIP3    H216075   2.567   3.304   3.464
 5357TIP3   OH216076   5.798   5.379   4.379
 5357TIP3    H116077   5.796   5.396   4.473
 5357TIP3    H216078   5.817   5.285   4.373
 5358TIP3   OH216079   3.132   0.564   2.463
 5358TIP3    H116080   3.185   0.638   2.435
 5358TIP3    H216081   3.042   0.593   2.453
 5359TIP3   OH216082   4.427   2.973   1.444
 5359TIP3    H116083   4.471   2.896   1.409
 5359TIP3    H216084   4.428   2.960   1.539
 5360TIP3   OH216085   5.814   4.929   4.534
 5360TIP3    H116086   5.868   5.003   4.505
 5360TIP3    H216087   5.781   4.889   4.453
 5361TIP3   OH216088   1.915   0.933   1.449
 5361TIP3    H116089   1.893   0.958   1.359
 5361TIP3    H216090   1.955   0.846   1.441
 5362TIP3   OH216091   5.015   2.275   1.051
 5362TIP3    H116092   4.939   2.225   1.081
 5362TIP3    H216093   4.984   2.320   0.972
 5363TIP3   OH216094   2.225   4.716   1.596
 5363TIP3    H116095   2.246   4.802   1.559
 5363TIP3    H216096   2.131   4.705   1.580
 5364TIP3   OH216097   4.493   3.522   3.267
 5364TIP3    H116098   4.417   3.474   3.234
 5364TIP3    H216099   4.462   3.610   3.284
 5365TIP3   OH216100   2.271   5.366   3.750
 5365TIP3    H116101   2.292   5.278   3.720
 5365TIP3    H216102   2.338   5.422   3.711
 5366TIP3   OH216103   3.120   0.055   3.532
 5366TIP3    H116104   3.089   0.145   3.536
 5366TIP3    H216105   3.080   0.019   3.453
 5367TIP3   OH216106   2.907   1.406   1.471
 5367TIP3    H116107   2.901   1.476   1.535
 5367TIP3    H216108   2.897   1.449   1.386
 5368TIP3   OH216109   4.515   5.607   0.340
 5368TIP3    H116110   4.592   5.557   0.315
 5368TIP3    H216111   4.528   5.627   0.433
 5369TIP3   OH216112   2.896   0.232   2.819
 5369TIP3    H116113   2.833   0.299   2.793
 5369TIP3    H216114   2.850   0.180   2.885
 5370TIP3   OH216115   1.703   3.125   3.901
 5370TIP3    H116116   1.779   3.171   3.937
 5370TIP3    H216117   1.648   3.194   3.865
 5371TIP3   OH216118   0.513   0.119   4.039
 5371TIP3    H116119   0.546   0.115   4.129
 5371TIP3    H216120   0.533   0.208   4.010
 5372TIP3   OH216121   4.765   2.620   4.814
 5372TIP3    H116122   4.697   2.561   4.780
 5372TIP3    H216123   4.845   2.567   4.816
 5373TIP3   OH216124   1.007   1.393   3.754
 5373TIP3    H116125   1.006   1.326   3.685
 5373TIP3    H216126   1.096   1.427   3.753
 5374TIP3   OH216127   5.272   3.697   0.401
 5374TIP3    H116128   5.366   3.695   0.420
 5374TIP3    H216129   5.258   3.779   0.355
 5375TIP3   OH216130   2.034   3.385   0.563
 5375TIP3    H116131   1.977   3.356   0.492
 5375TIP3    H216132   2.083   3.458   0.526
 5376TIP3   OH216133   2.867   3.403   3.695
 5376TIP3    H116134   2.796   3.342   3.718
 5376TIP3    H216135   2.845   3.484   3.741
 5377TIP3   OH216136   4.141   4.671   1.652
 5377TIP3    H116137   4.154   4.758   1.690
 5377TIP3    H216138   4.108   4.687   1.564
 5378TIP3   OH216139   5.175   5.588   0.399
 5378TIP3    H116140   5.266   5.565   0.418
 5378TIP3    H216141   5.178   5.680   0.374
 5379TIP3   OH216142   4.460   3.861   3.109
 5379TIP3    H116143   4.383   3.914   3.086
 5379TIP3    H216144   4.532   3.924   3.112
 5380TIP3   OH216145   1.775   0.185   0.418
 5380TIP3    H116146   1.748   0.193   0.326
 5380TIP3    H216147   1.804   0.094   0.426
 5381TIP3   OH216148   4.647   2.753   1.409
 5381TIP3    H116149   4.711   2.708   1.354
 5381TIP3    H216150   4.696   2.775   1.489
 5382TIP3   OH216151   2.566  -0.016   0.101
 5382TIP3    H116152   2.577  -0.079   0.029
 5382TIP3    H216153   2.499   0.045   0.069
 5383TIP3   OH216154   1.262   1.351   4.709
 5383TIP3    H116155   1.337   1.292   4.708
 5383TIP3    H216156   1.263   1.390   4.796
 5384TIP3   OH216157   4.547   4.161   1.580
 5384TIP3    H116158   4.608   4.236   1.575
 5384TIP3    H216159   4.464   4.196   1.548
 5385TIP3   OH216160   5.253   0.037   1.828
 5385TIP3    H116161   5.173   0.008   1.872
 5385TIP3    H216162   5.319   0.038   1.898
 5386TIP3   OH216163   4.772   1.183   4.102
 5386TIP3    H116164   4.834   1.131   4.153
 5386TIP3    H216165   4.821   1.260   4.074
 5387TIP3   OH216166   0.809   1.490   3.086
 5387TIP3    H116167   0.715   1.482   3.070
 5387TIP3    H216168   0.830   1.420   3.147
 5388TIP3   OH216169   3.177   0.617   3.027
 5388TIP3    H116170   3.243   0.565   3.073
 5388TIP3    H216171   3.105   0.626   3.089
 5389TIP3   OH216172   4.879   2.939   2.018
 5389TIP3    H116173   4.952   2.893   1.976
 5389TIP3    H216174   4.808   2.875   2.019
 5390TIP3   OH216175   1.886   0.102   0.017
 5390TIP3    H116176   1.851   0.029  -0.034
 5390TIP3    H216177   1.978   0.079   0.030
 5391TIP3   OH216178   3.729   2.318   4.450
 5391TIP3    H116179   3.752   2.225   4.448
 5391TIP3    H216180   3.794   2.357   4.509
 5392TIP3   OH216181   2.684   1.944   1.983
 5392TIP3    H116182   2.627   2.021   1.983
 5392TIP3    H216183   2.655   1.893   2.058
 5393TIP3   OH216184   2.580   4.773   2.266
 5393TIP3    H116185   2.653   4.712   2.271
 5393TIP3    H216186   2.616   4.857   2.293
 5394TIP3   OH216187   2.725   2.409   3.323
 5394TIP3    H116188   2.699   2.477   3.385
 5394TIP3    H216189   2.691   2.328   3.359
 5395TIP3   OH216190   0.317   3.344   1.462
 5395TIP3    H116191   0.326   3.438   1.475
 5395TIP3    H216192   0.312   3.308   1.551
 5396TIP3   OH216193   2.460   0.739   0.815
 5396TIP3    H116194   2.548   0.719   0.782
 5396TIP3    H216195   2.409   0.758   0.736
 5397TIP3   OH216196   4.479   1.845   2.391
 5397TIP3    H116197   4.549   1.908   2.406
 5397TIP3    H216198   4.465   1.847   2.296
 5398TIP3   OH216199   4.502   3.917   3.428
 5398TIP3    H116200   4.446   3.869   3.489
 5398TIP3    H216201   4.449   3.927   3.349
 5399TIP3   OH216202   2.268   0.468   3.115
 5399TIP3    H116203   2.316   0.538   3.159
 5399TIP3    H216204   2.336   0.411   3.079
 5400TIP3   OH216205   0.924   4.703   1.366
 5400TIP3    H116206   0.858   4.668   1.307
 5400TIP3    H216207   0.874   4.742   1.437
 5401TIP3   OH216208   5.485   3.657   4.179
 5401TIP3    H116209   5.518   3.642   4.268
 5401TIP3    H216210   5.563   3.668   4.125
 5402TIP3   OH216211   2.871   1.388   1.005
 5402TIP3    H116212   2.911   1.305   0.978
 5402TIP3    H216213   2.828   1.421   0.926
 5403TIP3   OH216214   3.394   3.938   4.442
 5403TIP3    H116215   3.307   3.918   4.408
 5403TIP3    H216216   3.435   3.991   4.374
 5404TIP3   OH216217   4.724   5.959   2.737
 5404TIP3    H116218   4.759   5.937   2.650
 5404TIP3    H216219   4.668   6.035   2.722
 5405TIP3   OH216220   0.088   3.657   0.429
 5405TIP3    H116221   0.149   3.612   0.371
 5405TIP3    H216222   0.060   3.734   0.379
 5406TIP3   OH216223   1.371   1.892   1.542
 5406TIP3    H116224   1.408   1.979   1.557
 5406TIP3    H216225   1.439   1.832   1.571
 5407TIP3   OH216226   3.317   3.013   3.617
 5407TIP3    H116227   3.290   3.091   3.567
 5407TIP3    H216228   3.249   2.948   3.599
 5408TIP3   OH216229   5.866   5.365   4.657
 5408TIP3    H116230   5.957   5.390   4.674
 5408TIP3    H216231   5.863   5.271   4.674
 5409TIP3   OH216232   2.474   2.028   2.209
 5409TIP3    H116233   2.446   2.051   2.120
 5409TIP3    H216234   2.454   1.935   2.217
 5410TIP3   OH216235   2.498   3.765   2.886
 5410TIP3    H116236   2.542   3.741   2.805
 5410TIP3    H216237   2.418   3.713   2.886
 5411TIP3   OH216238   5.802   0.873   4.944
 5411TIP3    H116239   5.821   0.961   4.976
 5411TIP3    H216240   5.882   0.823   4.961
 5412TIP3   OH216241   3.767   4.039   4.112
 5412TIP3    H116242   3.756   3.993   4.028
 5412TIP3    H216243   3.858   4.069   4.110
 5413TIP3   OH216244   2.314   3.595   4.351
 5413TIP3    H116245   2.235   3.564   4.306
 5413TIP3    H216246   2.386   3.576   4.291
 5414TIP3   OH216247   0.971   5.515   1.605
 5414TIP3    H116248   0.892   5.464   1.623
 5414TIP3    H216249   1.000   5.547   1.690
 5415TIP3   OH216250   0.977   4.186   1.629
 5415TIP3    H116251   0.944   4.271   1.658
 5415TIP3    H216252   0.950   4.125   1.697
 5416TIP3   OH216253   2.456   1.860   2.661
 5416TIP3    H116254   2.527   1.871   2.724
 5416TIP3    H216255   2.415   1.777   2.685
 5417TIP3   OH216256   0.913   3.235   2.306
 5417TIP3    H116257   0.933   3.284   2.225
 5417TIP3    H216258   0.896   3.303   2.371
 5418TIP3   OH216259   4.097   4.452   0.820
 5418TIP3    H116260   4.120   4.368   0.861
 5418TIP3    H216261   4.001   4.452   0.817
 5419TIP3   OH216262   4.024   0.735   3.888
 5419TIP3    H116263   4.007   0.819   3.846
 5419TIP3    H216264   4.115   0.741   3.918
 5420TIP3   OH216265   3.759   2.695   4.576
 5420TIP3    H116266   3.788   2.678   4.666
 5420TIP3    H216267   3.691   2.629   4.560
 5421TIP3   OH216268   3.978   4.323   0.477
 5421TIP3    H116269   3.895   4.301   0.520
 5421TIP3    H216270   4.042   4.264   0.518
 5422TIP3   OH216271   5.555   5.215   4.753
 5422TIP3    H116272   5.530   5.216   4.845
 5422TIP3    H216273   5.480   5.253   4.707
 5423TIP3   OH216274   2.649   5.403   0.994
 5423TIP3    H116275   2.706   5.335   1.031
 5423TIP3    H216276   2.569   5.397   1.045
 5424TIP3   OH216277   0.533   0.824   4.066
 5424TIP3    H116278   0.526   0.780   4.151
 5424TIP3    H216279   0.445   0.819   4.030
 5425TIP3   OH216280   1.966   0.677   4.159
 5425TIP3    H116281   1.904   0.666   4.086
 5425TIP3    H216282   2.005   0.763   4.144
 5426TIP3   OH216283   4.786   3.133   1.599
 5426TIP3    H116284   4.848   3.128   1.526
 5426TIP3    H216285   4.775   3.042   1.626
 5427TIP3   OH216286   6.295   1.404   1.031
 5427TIP3    H116287   6.353   1.467   0.989
 5427TIP3    H216288   6.271   1.342   0.962
 5428TIP3   OH216289   2.588   5.307   2.570
 5428TIP3    H116290   2.499   5.273   2.560
 5428TIP3    H216291   2.645   5.230   2.559
 5429TIP3   OH216292   5.427   3.036   0.355
 5429TIP3    H116293   5.350   3.093   0.354
 5429TIP3    H216294   5.396   2.955   0.396
 5430TIP3   OH216295   1.407   0.870   2.094
 5430TIP3    H116296   1.410   0.774   2.091
 5430TIP3    H216297   1.452   0.898   2.015
 5431TIP3   OH216298   4.001   2.305   1.614
 5431TIP3    H116299   4.072   2.346   1.662
 5431TIP3    H216300   3.927   2.307   1.675
 5432TIP3   OH216301   4.479   2.942   3.580
 5432TIP3    H116302   4.564   2.913   3.614
 5432TIP3    H216303   4.417   2.923   3.650
 5433TIP3   OH216304   3.436   0.989   3.961
 5433TIP3    H116305   3.435   0.964   3.869
 5433TIP3    H216306   3.449   1.084   3.961
 5434TIP3   OH216307   6.207   3.941   2.060
 5434TIP3    H116308   6.236   3.851   2.050
 5434TIP3    H216309   6.131   3.949   2.002
 5435TIP3   OH216310   5.672   5.412   3.904
 5435TIP3    H116311   5.669   5.506   3.885
 5435TIP3    H216312   5.657   5.406   3.998
 5436TIP3   OH216313   0.112   0.386   1.834
 5436TIP3    H116314   0.173   0.327   1.791
 5436TIP3    H216315   0.126   0.372   1.928
 5437TIP3   OH216316   1.967   3.971   2.887
 5437TIP3    H116317   1.872   3.964   2.879
 5437TIP3    H216318   1.988   3.924   2.967
 5438TIP3   OH216319   5.742   5.727   4.173
 5438TIP3    H116320   5.763   5.821   4.177
 5438TIP3    H216321   5.802   5.691   4.108
 5439TIP3   OH216322   3.855   3.967   0.048
 5439TIP3    H116323   3.765   3.935   0.051
 5439TIP3    H216324   3.859   4.032   0.118
 5440TIP3   OH216325   3.714   4.354   4.244
 5440TIP3    H116326   3.801   4.382   4.218
 5440TIP3    H216327   3.675   4.321   4.163
 5441TIP3   OH216328   3.567   2.334   2.220
 5441TIP3    H116329   3.634   2.268   2.203
 5441TIP3    H216330   3.532   2.356   2.134
 5442TIP3   OH216331   4.328   0.704   3.178
 5442TIP3    H116332   4.388   0.630   3.185
 5442TIP3    H216333   4.261   0.675   3.115
 5443TIP3   OH216334   3.178   3.603   3.641
 5443TIP3    H116335   3.106   3.619   3.703
 5443TIP3    H216336   3.193   3.508   3.647
 5444TIP3   OH216337   3.708   4.515   4.948
 5444TIP3    H116338   3.694   4.603   4.982
 5444TIP3    H216339   3.662   4.514   4.864
 5445TIP3   OH216340   5.903   2.268   3.698
 5445TIP3    H116341   5.917   2.205   3.627
 5445TIP3    H216342   5.990   2.288   3.731
 5446TIP3   OH216343   1.141   0.061   4.670
 5446TIP3    H116344   1.236   0.075   4.664
 5446TIP3    H216345   1.108   0.140   4.713
 5447TIP3   OH216346   3.171   0.118   2.270
 5447TIP3    H116347   3.113   0.082   2.203
 5447TIP3    H216348   3.206   0.042   2.315
 5448TIP3   OH216349   2.578   1.874   4.018
 5448TIP3    H116350   2.561   1.943   4.081
 5448TIP3    H216351   2.499   1.819   4.021
 5449TIP3   OH216352   4.835   5.793   3.649
 5449TIP3    H116353   4.828   5.873   3.701
 5449TIP3    H216354   4.798   5.817   3.564
 5450TIP3   OH216355   4.340   4.031   4.037
 5450TIP3    H116356   4.434   4.034   4.059
 5450TIP3    H216357   4.338   3.993   3.949
 5451TIP3   OH216358   2.742   3.674   3.740
 5451TIP3    H116359   2.747   3.708   3.651
 5451TIP3    H216360   2.652   3.643   3.748
 5452TIP3   OH216361   5.448   2.224   3.379
 5452TIP3    H116362   5.426   2.143   3.334
 5452TIP3    H216363   5.540   2.214   3.404
 5453TIP3   OH216364   2.857   0.984   1.182
 5453TIP3    H116365   2.879   1.069   1.222
 5453TIP3    H216366   2.858   0.923   1.256
 5454TIP3   OH216367   4.809   2.362   1.686
 5454TIP3    H116368   4.903   2.340   1.688
 5454TIP3    H216369   4.779   2.333   1.600
 5455TIP3   OH216370   4.775   2.279   0.249
 5455TIP3    H116371   4.846   2.338   0.274
 5455TIP3    H216372   4.731   2.258   0.332
 5456TIP3   OH216373   1.887   0.797   2.223
 5456TIP3    H116374   1.922   0.886   2.219
 5456TIP3    H216375   1.853   0.789   2.312
 5457TIP3   OH216376   3.310   2.880   2.271
 5457TIP3    H116377   3.360   2.879   2.189
 5457TIP3    H216378   3.232   2.827   2.252
 5458TIP3   OH216379   1.075   2.865   0.512
 5458TIP3    H116380   1.130   2.843   0.588
 5458TIP3    H216381   1.137   2.898   0.447
 5459TIP3   OH216382   1.288   5.345   2.279
 5459TIP3    H116383   1.355   5.281   2.255
 5459TIP3    H216384   1.238   5.359   2.198
 5460TIP3   OH216385   3.617   0.562   4.288
 5460TIP3    H116386   3.568   0.595   4.213
 5460TIP3    H216387   3.607   0.629   4.355
 5461TIP3   OH216388   5.816   4.334   2.237
 5461TIP3    H116389   5.898   4.309   2.279
 5461TIP3    H216390   5.816   4.430   2.239
 5462TIP3   OH216391   3.210   2.135   1.621
 5462TIP3    H116392   3.148   2.116   1.693
 5462TIP3    H216393   3.222   2.050   1.578
 5463TIP3   OH216394   2.450   1.307   3.680
 5463TIP3    H116395   2.484   1.395   3.664
 5463TIP3    H216396   2.525   1.250   3.663
 5464TIP3   OH216397   3.088   2.345   4.108
 5464TIP3    H116398   2.995   2.332   4.125
 5464TIP3    H216399   3.130   2.336   4.194
 5465TIP3   OH216400   4.346   3.499   3.670
 5465TIP3    H116401   4.324   3.581   3.627
 5465TIP3    H216402   4.432   3.476   3.635
 5466TIP3   OH216403   6.076   2.987   3.520
 5466TIP3    H116404   6.133   2.913   3.542
 5466TIP3    H216405   5.990   2.963   3.555
 5467TIP3   OH216406   1.114   0.952   3.584
 5467TIP3    H116407   1.124   0.900   3.504
 5467TIP3    H216408   1.092   0.888   3.652
 5468TIP3   OH216409   1.327   5.015   5.049
 5468TIP3    H116410   1.291   4.931   5.021
 5468TIP3    H216411   1.406   4.991   5.099
 5469TIP3   OH216412   5.407   4.965   4.567
 5469TIP3    H116413   5.420   5.021   4.490
 5469TIP3    H216414   5.356   5.018   4.627
 5470TIP3   OH216415   4.891   4.137   0.464
 5470TIP3    H116416   4.796   4.128   0.469
 5470TIP3    H216417   4.925   4.069   0.522
 5471TIP3   OH216418   5.996   2.321   0.464
 5471TIP3    H116419   6.047   2.240   0.476
 5471TIP3    H216420   6.062   2.390   0.456
 5472TIP3   OH216421   5.289   5.619   2.917
 5472TIP3    H116422   5.332   5.555   2.972
 5472TIP3    H216423   5.257   5.686   2.977
 5473TIP3   OH216424   1.886   2.276   3.658
 5473TIP3    H116425   1.943   2.261   3.582
 5473TIP3    H216426   1.871   2.370   3.659
 5474TIP3   OH216427   3.563   1.560   4.324
 5474TIP3    H116428   3.514   1.610   4.390
 5474TIP3    H216429   3.499   1.496   4.291
 5475TIP3   OH216430   5.983   1.579   3.565
 5475TIP3    H116431   5.959   1.629   3.643
 5475TIP3    H216432   5.923   1.504   3.565
 5476TIP3   OH216433   4.443   3.313   1.891
 5476TIP3    H116434   4.453   3.220   1.911
 5476TIP3    H216435   4.476   3.323   1.802
 5477TIP3   OH216436   2.815   1.922   4.796
 5477TIP3    H116437   2.899   1.906   4.754
 5477TIP3    H216438   2.811   1.858   4.868
 5478TIP3   OH216439   2.269   5.892   0.414
 5478TIP3    H116440   2.222   5.870   0.334
 5478TIP3    H216441   2.361   5.894   0.388
 5479TIP3   OH216442   5.394   3.529   1.579
 5479TIP3    H116443   5.310   3.486   1.599
 5479TIP3    H216444   5.398   3.603   1.639
 5480TIP3   OH216445   3.004   2.911   5.049
 5480TIP3    H116446   2.975   2.894   5.139
 5480TIP3    H216447   3.087   2.863   5.041
 5481TIP3   OH216448   3.175   3.354   4.226
 5481TIP3    H116449   3.208   3.289   4.164
 5481TIP3    H216450   3.243   3.360   4.293
 5482TIP3   OH216451   6.256   4.659   0.029
 5482TIP3    H116452   6.213   4.671  -0.056
 5482TIP3    H216453   6.185   4.650   0.092
 5483TIP3   OH216454   3.139   1.339   4.620
 5483TIP3    H116455   3.044   1.337   4.606
 5483TIP3    H216456   3.153   1.288   4.700
 5484TIP3   OH216457   1.249   4.738   4.968
 5484TIP3    H116458   1.186   4.679   4.927
 5484TIP3    H216459   1.325   4.683   4.988
 5485TIP3   OH216460   0.798   5.080   2.508
 5485TIP3    H116461   0.886   5.109   2.485
 5485TIP3    H216462   0.808   5.034   2.590
 5486TIP3   OH216463   5.194   3.906   4.705
 5486TIP3    H116464   5.177   3.974   4.639
 5486TIP3    H216465   5.132   3.836   4.683
 5487TIP3   OH216466   4.279   4.477   2.208
 5487TIP3    H116467   4.253   4.430   2.129
 5487TIP3    H216468   4.363   4.518   2.185
 5488TIP3   OH216469   2.200   2.127   0.563
 5488TIP3    H116470   2.238   2.075   0.493
 5488TIP3    H216471   2.272   2.142   0.624
 5489TIP3   OH216472   3.580   0.470   2.820
 5489TIP3    H116473   3.518   0.533   2.783
 5489TIP3    H216474   3.663   0.516   2.825
 5490TIP3   OH216475   1.705   0.218   2.219
 5490TIP3    H116476   1.682   0.128   2.240
 5490TIP3    H216477   1.622   0.266   2.227
 5491TIP3   OH216478   3.114   5.580   0.937
 5491TIP3    H116479   3.202   5.578   0.898
 5491TIP3    H216480   3.065   5.512   0.890
 5492TIP3   OH216481   3.130   4.943   4.247
 5492TIP3    H116482   3.215   4.972   4.278
 5492TIP3    H216483   3.117   4.989   4.164
 5493TIP3   OH216484   3.843   4.640   1.309
 5493TIP3    H116485   3.847   4.612   1.217
 5493TIP3    H216486   3.837   4.558   1.358
 5494TIP3   OH216487   4.614   4.746   2.879
 5494TIP3    H116488   4.616   4.678   2.946
 5494TIP3    H216489   4.586   4.700   2.800
 5495TIP3   OH216490   0.385   5.320   2.091
 5495TIP3    H116491   0.425   5.289   2.009
 5495TIP3    H216492   0.325   5.250   2.117
 5496TIP3   OH216493   1.907   0.158   1.522
 5496TIP3    H116494   1.824   0.160   1.473
 5496TIP3    H216495   1.924   0.065   1.536
 5497TIP3   OH216496   5.975   5.636   1.667
 5497TIP3    H116497   6.056   5.646   1.617
 5497TIP3    H216498   5.957   5.723   1.701
 5498TIP3   OH216499   6.057   3.719   3.279
 5498TIP3    H116500   6.039   3.759   3.194
 5498TIP3    H216501   6.072   3.793   3.338
 5499TIP3   OH216502   4.038   4.333   1.876
 5499TIP3    H116503   4.126   4.295   1.877
 5499TIP3    H216504   3.984   4.271   1.926
 5500TIP3   OH216505   2.976   1.126   1.405
 5500TIP3    H116506   2.980   1.062   1.476
 5500TIP3    H216507   2.943   1.206   1.448
 5501TIP3   OH216508   5.033   3.368   2.869
 5501TIP3    H116509   5.052   3.298   2.806
 5501TIP3    H216510   4.962   3.418   2.829
 5502TIP3   OH216511   4.078   2.942   0.301
 5502TIP3    H116512   3.987   2.971   0.307
 5502TIP3    H216513   4.094   2.897   0.384
 5503TIP3   OH216514   2.965   4.315   3.581
 5503TIP3    H116515   2.946   4.304   3.488
 5503TIP3    H216516   3.018   4.239   3.604
 5504TIP3   OH216517   0.348   4.733   4.211
 5504TIP3    H116518   0.388   4.696   4.290
 5504TIP3    H216519   0.351   4.661   4.148
 5505TIP3   OH216520   0.934   2.413   3.248
 5505TIP3    H116521   0.943   2.404   3.343
 5505TIP3    H216522   0.935   2.323   3.215
 5506TIP3   OH216523   0.452   1.623   4.471
 5506TIP3    H116524   0.541   1.625   4.506
 5506TIP3    H216525   0.411   1.703   4.504
 5507TIP3   OH216526   3.651   4.421   2.448
 5507TIP3    H116527   3.718   4.408   2.381
 5507TIP3    H216528   3.639   4.334   2.486
 5508TIP3   OH216529   0.110   3.227   0.732
 5508TIP3    H116530   0.178   3.173   0.772
 5508TIP3    H216531   0.152   3.266   0.655
 5509TIP3   OH216532   3.305   2.930   4.736
 5509TIP3    H116533   3.333   2.927   4.644
 5509TIP3    H216534   3.271   3.019   4.747
 5510TIP3   OH216535   0.518   0.177   0.328
 5510TIP3    H116536   0.477   0.250   0.282
 5510TIP3    H216537   0.479   0.179   0.415
 5511TIP3   OH216538   5.007   5.377   3.648
 5511TIP3    H116539   4.930   5.330   3.680
 5511TIP3    H216540   5.053   5.313   3.593
 5512TIP3   OH216541  -0.017   3.922   4.102
 5512TIP3    H116542   0.031   3.866   4.163
 5512TIP3    H216543   0.046   3.991   4.080
 5513TIP3   OH216544   1.121   3.401   4.399
 5513TIP3    H116545   1.212   3.387   4.424
 5513TIP3    H216546   1.083   3.313   4.400
 5514TIP3   OH216547   5.001   4.491   3.787
 5514TIP3    H116548   5.022   4.520   3.699
 5514TIP3    H216549   4.911   4.458   3.781
 5515TIP3   OH216550   1.111   5.136   1.648
 5515TIP3    H116551   1.033   5.085   1.626
 5515TIP3    H216552   1.117   5.131   1.743
 5516TIP3   OH216553   5.606   2.661   3.434
 5516TIP3    H116554   5.670   2.600   3.470
 5516TIP3    H216555   5.523   2.636   3.476
 5517TIP3   OH216556   4.267   0.715   4.050
 5517TIP3    H116557   4.182   0.687   4.084
 5517TIP3    H216558   4.331   0.672   4.107
 5518TIP3   OH216559   0.551   2.123   4.796
 5518TIP3    H116560   0.456   2.117   4.785
 5518TIP3    H216561   0.567   2.104   4.888
 5519TIP3   OH216562   2.538   1.278   0.406
 5519TIP3    H116563   2.613   1.322   0.366
 5519TIP3    H216564   2.571   1.193   0.434
 5520TIP3   OH216565   2.093   0.997   2.227
 5520TIP3    H116566   2.158   1.033   2.167
 5520TIP3    H216567   2.128   0.911   2.251
 5521TIP3   OH216568   4.818   2.922   2.313
 5521TIP3    H116569   4.829   2.966   2.229
 5521TIP3    H216570   4.727   2.895   2.314
 5522TIP3   OH216571   5.346   1.139   0.519
 5522TIP3    H116572   5.254   1.165   0.514
 5522TIP3    H216573   5.361   1.121   0.611
 5523TIP3   OH216574   4.422   2.016   0.899
 5523TIP3    H116575   4.395   2.108   0.894
 5523TIP3    H216576   4.485   2.006   0.828
 5524TIP3   OH216577   0.951   2.168   3.739
 5524TIP3    H116578   0.967   2.226   3.814
 5524TIP3    H216579   0.900   2.096   3.776
 5525TIP3   OH216580   1.223   5.617   1.062
 5525TIP3    H116581   1.263   5.668   0.992
 5525TIP3    H216582   1.183   5.682   1.120
 5526TIP3   OH216583   0.045   0.888   4.281
 5526TIP3    H116584   0.029   0.888   4.187
 5526TIP3    H216585   0.102   0.812   4.296
 5527TIP3   OH216586   3.072   4.444   2.507
 5527TIP3    H116587   3.049   4.445   2.600
 5527TIP3    H216588   3.112   4.359   2.494
 5528TIP3   OH216589   2.855   4.426   2.709
 5528TIP3    H116590   2.870   4.332   2.718
 5528TIP3    H216591   2.888   4.463   2.790
 5529TIP3   OH216592   4.540   4.322   1.215
 5529TIP3    H116593   4.571   4.340   1.126
 5529TIP3    H216594   4.614   4.280   1.258
 5530TIP3   OH216595   1.592   0.452   4.674
 5530TIP3    H116596   1.651   0.403   4.730
 5530TIP3    H216597   1.504   0.421   4.698
 5531TIP3   OH216598   1.967   0.448   0.356
 5531TIP3    H116599   2.010   0.475   0.274
 5531TIP3    H216600   2.013   0.497   0.424
 5532TIP3   OH216601   0.509   0.373   1.134
 5532TIP3    H116602   0.529   0.280   1.122
 5532TIP3    H216603   0.456   0.397   1.059
 5533TIP3   OH216604   0.349   1.690   5.127
 5533TIP3    H116605   0.387   1.665   5.042
 5533TIP3    H216606   0.277   1.628   5.140
 5534TIP3   OH216607   3.379   5.202   3.383
 5534TIP3    H116608   3.399   5.134   3.447
 5534TIP3    H216609   3.298   5.172   3.341
 5535TIP3   OH216610   1.621   4.695   3.211
 5535TIP3    H116611   1.582   4.629   3.155
 5535TIP3    H216612   1.666   4.645   3.280
 5536TIP3   OH216613   2.286   3.641   2.772
 5536TIP3    H116614   2.305   3.676   2.686
 5536TIP3    H216615   2.213   3.580   2.759
 5537TIP3   OH216616   4.269   0.460   3.416
 5537TIP3    H116617   4.339   0.504   3.368
 5537TIP3    H216618   4.243   0.388   3.359
 5538TIP3   OH216619   2.235   3.413   3.863
 5538TIP3    H116620   2.162   3.389   3.806
 5538TIP3    H216621   2.200   3.484   3.917
 5539TIP3   OH216622   0.695   3.603   1.674
 5539TIP3    H116623   0.617   3.643   1.713
 5539TIP3    H216624   0.669   3.581   1.585
 5540TIP3   OH216625   0.381   3.725   3.263
 5540TIP3    H116626   0.333   3.732   3.181
 5540TIP3    H216627   0.332   3.779   3.325
 5541TIP3   OH216628   2.091   4.174   4.392
 5541TIP3    H116629   2.160   4.130   4.343
 5541TIP3    H216630   2.099   4.139   4.481
 5542TIP3   OH216631   2.134   1.291   4.242
 5542TIP3    H116632   2.095   1.372   4.273
 5542TIP3    H216633   2.142   1.302   4.147
 5543TIP3   OH216634   3.397   0.522   1.372
 5543TIP3    H116635   3.395   0.435   1.412
 5543TIP3    H216636   3.379   0.507   1.279
 5544TIP3   OH216637   0.995   5.832   2.974
 5544TIP3    H116638   0.961   5.754   2.930
 5544TIP3    H216639   1.066   5.862   2.916
 5545TIP3   OH216640   3.552   4.770   0.630
 5545TIP3    H116641   3.517   4.840   0.575
 5545TIP3    H216642   3.478   4.712   0.646
 5546TIP3   OH216643   5.126   3.767   4.419
 5546TIP3    H116644   5.218   3.760   4.444
 5546TIP3    H216645   5.078   3.732   4.494
 5547TIP3   OH216646   1.054   4.806   0.483
 5547TIP3    H116647   1.010   4.855   0.413
 5547TIP3    H216648   1.073   4.721   0.443
 5548TIP3   OH216649   6.176   1.499   3.865
 5548TIP3    H116650   6.271   1.506   3.877
 5548TIP3    H216651   6.166   1.449   3.784
 5549TIP3   OH216652   5.024   2.069   0.300
 5549TIP3    H116653   4.989   2.085   0.212
 5549TIP3    H216654   5.046   1.976   0.301
 5550TIP3   OH216655   0.305   4.683   0.385
 5550TIP3    H116656   0.278   4.637   0.306
 5550TIP3    H216657   0.241   4.657   0.451
 5551TIP3   OH216658   4.372   2.891   3.305
 5551TIP3    H116659   4.287   2.858   3.333
 5551TIP3    H216660   4.419   2.909   3.387
 5552TIP3   OH216661   5.205   2.063   4.183
 5552TIP3    H116662   5.224   2.147   4.142
 5552TIP3    H216663   5.236   2.072   4.273
 5553TIP3   OH216664   2.679   3.794   1.840
 5553TIP3    H116665   2.752   3.732   1.840
 5553TIP3    H216666   2.677   3.829   1.929
 5554TIP3   OH216667   5.653   3.532   4.638
 5554TIP3    H116668   5.657   3.517   4.732
 5554TIP3    H216669   5.737   3.572   4.617
 5555TIP3   OH216670   1.388   4.351   1.079
 5555TIP3    H116671   1.382   4.427   1.137
 5555TIP3    H216672   1.331   4.286   1.119
 5556TIP3   OH216673   4.229   3.893   0.881
 5556TIP3    H116674   4.283   3.926   0.952
 5556TIP3    H216675   4.150   3.946   0.884
 5557TIP3   OH216676   4.531   4.635   2.651
 5557TIP3    H116677   4.565   4.590   2.573
 5557TIP3    H216678   4.458   4.688   2.618
 5558TIP3   OH216679   2.529   4.578   1.840
 5558TIP3    H116680   2.587   4.503   1.850
 5558TIP3    H216681   2.476   4.557   1.763
 5559TIP3   OH216682   1.672   0.396   3.788
 5559TIP3    H116683   1.675   0.492   3.796
 5559TIP3    H216684   1.742   0.365   3.846
 5560TIP3   OH216685   3.036   5.109   3.233
 5560TIP3    H116686   2.991   5.114   3.317
 5560TIP3    H216687   3.086   5.191   3.228
 5561TIP3   OH216688   0.328   0.490   4.911
 5561TIP3    H116689   0.303   0.404   4.877
 5561TIP3    H216690   0.268   0.551   4.866
 5562TIP3   OH216691   2.390   0.569   1.633
 5562TIP3    H116692   2.443   0.553   1.711
 5562TIP3    H216693   2.389   0.664   1.625
 5563TIP3   OH216694   3.337   1.929   0.406
 5563TIP3    H116695   3.404   1.959   0.466
 5563TIP3    H216696   3.323   2.002   0.346
 5564TIP3   OH216697   5.114   0.555   4.924
 5564TIP3    H116698   5.143   0.466   4.944
 5564TIP3    H216699   5.180   0.611   4.964
 5565TIP3   OH216700   0.249   1.553   1.863
 5565TIP3    H116701   0.297   1.475   1.891
 5565TIP3    H216702   0.161   1.521   1.842
 5566TIP3   OH216703   3.780   1.426   2.881
 5566TIP3    H116704   3.859   1.375   2.862
 5566TIP3    H216705   3.734   1.375   2.947
 5567TIP3   OH216706   3.782   2.951   3.830
 5567TIP3    H116707   3.734   2.917   3.754
 5567TIP3    H216708   3.739   2.910   3.906
 5568TIP3   OH216709   2.992   1.816   3.199
 5568TIP3    H116710   3.061   1.864   3.153
 5568TIP3    H216711   2.950   1.763   3.132
 5569TIP3   OH216712   0.777   5.495   1.176
 5569TIP3    H116713   0.729   5.577   1.161
 5569TIP3    H216714   0.713   5.426   1.155
 5570TIP3   OH216715   2.687   3.857   0.977
 5570TIP3    H116716   2.691   3.896   0.890
 5570TIP3    H216717   2.663   3.765   0.961
 5571TIP3   OH216718   1.973   4.099   5.076
 5571TIP3    H116719   1.992   4.176   5.022
 5571TIP3    H216720   1.878   4.087   5.069
 5572TIP3   OH216721   2.338   5.116   0.397
 5572TIP3    H116722   2.329   5.064   0.316
 5572TIP3    H216723   2.370   5.201   0.367
 5573TIP3   OH216724   3.572   2.499   1.505
 5573TIP3    H116725   3.538   2.410   1.504
 5573TIP3    H216726   3.632   2.502   1.431
 5574TIP3   OH216727   4.506   5.370   5.060
 5574TIP3    H116728   4.504   5.420   5.142
 5574TIP3    H216729   4.414   5.356   5.039
 5575TIP3   OH216730   2.194   1.327   3.612
 5575TIP3    H116731   2.284   1.308   3.636
 5575TIP3    H216732   2.200   1.405   3.557
 5576TIP3   OH216733   0.701   4.712   3.095
 5576TIP3    H116734   0.662   4.720   3.182
 5576TIP3    H216735   0.680   4.794   3.051
 5577TIP3   OH216736   4.484   1.467   1.364
 5577TIP3    H116737   4.452   1.501   1.448
 5577TIP3    H216738   4.572   1.505   1.356
 5578TIP3   OH216739   0.944   0.685   1.332
 5578TIP3    H116740   1.022   0.731   1.301
 5578TIP3    H216741   0.969   0.651   1.418
 5579TIP3   OH216742   3.030   1.540   3.213
 5579TIP3    H116743   3.037   1.601   3.140
 5579TIP3    H216744   3.049   1.594   3.290
 5580TIP3   OH216745   3.537   1.386   1.620
 5580TIP3    H116746   3.592   1.348   1.552
 5580TIP3    H216747   3.450   1.389   1.582
 5581TIP3   OH216748   4.028   3.684   1.156
 5581TIP3    H116749   4.034   3.779   1.147
 5581TIP3    H216750   4.112   3.651   1.122
 5582TIP3   OH216751   1.653   5.884   1.998
 5582TIP3    H116752   1.602   5.822   2.052
 5582TIP3    H216753   1.700   5.828   1.936
 5583TIP3   OH216754   5.005   4.851   0.403
 5583TIP3    H116755   4.916   4.880   0.422
 5583TIP3    H216756   4.997   4.796   0.325
 5584TIP3   OH216757   2.246   4.281   0.030
 5584TIP3    H116758   2.229   4.263   0.123
 5584TIP3    H216759   2.165   4.320  -0.002
 5585TIP3   OH216760   2.178   4.229   0.924
 5585TIP3    H116761   2.268   4.256   0.939
 5585TIP3    H216762   2.144   4.208   1.012
 5586TIP3   OH216763   5.483   5.166   4.387
 5586TIP3    H116764   5.469   5.188   4.294
 5586TIP3    H216765   5.488   5.251   4.431
 5587TIP3   OH216766   6.016   4.863   1.396
 5587TIP3    H116767   6.040   4.815   1.476
 5587TIP3    H216768   5.920   4.865   1.398
 5588TIP3   OH216769   5.956   1.458   0.627
 5588TIP3    H116770   5.955   1.550   0.655
 5588TIP3    H216771   5.931   1.409   0.705
 5589TIP3   OH216772   1.884   1.166   2.146
 5589TIP3    H116773   1.875   1.251   2.189
 5589TIP3    H216774   1.948   1.119   2.199
 5590TIP3   OH216775   0.205   5.435   1.582
 5590TIP3    H116776   0.143   5.363   1.570
 5590TIP3    H216777   0.214   5.443   1.677
 5591TIP3   OH216778   5.443   2.859   0.768
 5591TIP3    H116779   5.517   2.799   0.765
 5591TIP3    H216780   5.472   2.929   0.826
 5592TIP3   OH216781   2.126   5.234   3.352
 5592TIP3    H116782   2.086   5.191   3.427
 5592TIP3    H216783   2.151   5.321   3.383
 5593TIP3   OH216784   6.253   5.546   4.985
 5593TIP3    H116785   6.243   5.630   4.941
 5593TIP3    H216786   6.239   5.565   5.078
 5594TIP3   OH216787   1.930   3.835   3.134
 5594TIP3    H116788   1.843   3.839   3.174
 5594TIP3    H216789   1.971   3.758   3.173
 5595TIP3   OH216790   3.943   3.231   2.263
 5595TIP3    H116791   3.875   3.187   2.212
 5595TIP3    H216792   4.016   3.170   2.263
 5596TIP3   OH216793   3.793   1.285   3.482
 5596TIP3    H116794   3.820   1.356   3.424
 5596TIP3    H216795   3.749   1.222   3.425
 5597TIP3   OH216796   6.149   0.751   0.711
 5597TIP3    H116797   6.158   0.837   0.671
 5597TIP3    H216798   6.237   0.730   0.743
 5598TIP3   OH216799   1.450   1.165   2.956
 5598TIP3    H116800   1.403   1.083   2.939
 5598TIP3    H216801   1.487   1.189   2.871
 5599TIP3   OH216802   6.022   1.492   4.525
 5599TIP3    H116803   6.053   1.412   4.568
 5599TIP3    H216804   5.927   1.481   4.522
 5600TIP3   OH216805   2.880   3.136   0.398
 5600TIP3    H116806   2.818   3.085   0.451
 5600TIP3    H216807   2.964   3.127   0.444
 5601TIP3   OH216808   0.001   1.414   3.081
 5601TIP3    H116809   0.023   1.432   2.990
 5601TIP3    H216810  -0.018   1.321   3.084
 5602TIP3   OH216811   6.184   2.042   0.001
 5602TIP3    H116812   6.165   2.093   0.080
 5602TIP3    H216813   6.220   2.106  -0.061
 5603TIP3   OH216814   0.271   5.652   4.699
 5603TIP3    H116815   0.336   5.659   4.768
 5603TIP3    H216816   0.279   5.561   4.668
 5604TIP3   OH216817   1.920   5.589   3.313
 5604TIP3    H116818   1.926   5.621   3.223
 5604TIP3    H216819   1.839   5.628   3.347
 5605TIP3   OH216820   6.230   0.942   2.668
 5605TIP3    H116821   6.299   0.886   2.632
 5605TIP3    H216822   6.240   1.025   2.621
 5606TIP3   OH216823   1.828   2.478   2.349
 5606TIP3    H116824   1.817   2.383   2.345
 5606TIP3    H216825   1.795   2.510   2.265
 5607TIP3   OH216826   5.758   0.078   0.360
 5607TIP3    H116827   5.753   0.100   0.453
 5607TIP3    H216828   5.803  -0.006   0.357
 5608TIP3   OH216829   6.209   2.173   2.697
 5608TIP3    H116830   6.119   2.142   2.684
 5608TIP3    H216831   6.222   2.170   2.792
 5609TIP3   OH216832   3.207   4.975   3.471
 5609TIP3    H116833   3.263   4.919   3.525
 5609TIP3    H216834   3.211   4.936   3.383
 5610TIP3   OH216835   2.039   5.097   4.278
 5610TIP3    H116836   1.970   5.111   4.342
 5610TIP3    H216837   2.003   5.033   4.216
 5611TIP3   OH216838   2.037   2.383   2.896
 5611TIP3    H116839   1.984   2.439   2.952
 5611TIP3    H216840   2.044   2.300   2.944
 5612TIP3   OH216841   3.851   2.461   2.189
 5612TIP3    H116842   3.837   2.421   2.275
 5612TIP3    H216843   3.768   2.448   2.143
 5613TIP3   OH216844   0.612   4.735   5.126
 5613TIP3    H116845   0.683   4.715   5.067
 5613TIP3    H216846   0.533   4.733   5.071
 5614TIP3   OH216847   5.405   1.174   5.133
 5614TIP3    H116848   5.386   1.136   5.047
 5614TIP3    H216849   5.358   1.257   5.134
 5615TIP3   OH216850   6.143   5.732   2.440
 5615TIP3    H116851   6.173   5.822   2.430
 5615TIP3    H216852   6.091   5.734   2.520
 5616TIP3   OH216853   5.426   1.589   3.502
 5616TIP3    H116854   5.387   1.676   3.508
 5616TIP3    H216855   5.517   1.605   3.480
 5617TIP3   OH216856   6.051   4.615   4.361
 5617TIP3    H116857   5.989   4.629   4.433
 5617TIP3    H216858   6.130   4.662   4.387
 5618TIP3   OH216859   0.339   4.981   4.976
 5618TIP3    H116860   0.356   5.048   5.041
 5618TIP3    H216861   0.254   5.005   4.938
 5619TIP3   OH216862   2.449   4.987   4.483
 5619TIP3    H116863   2.524   4.977   4.425
 5619TIP3    H216864   2.440   4.902   4.525
 5620TIP3   OH216865   0.044   5.728   0.980
 5620TIP3    H116866  -0.012   5.655   0.953
 5620TIP3    H216867   0.039   5.790   0.907
 5621TIP3   OH216868   5.713   4.861   5.162
 5621TIP3    H116869   5.735   4.953   5.157
 5621TIP3    H216870   5.759   4.821   5.088
 5622TIP3   OH216871   2.722   2.477   2.713
 5622TIP3    H116872   2.652   2.484   2.648
 5622TIP3    H216873   2.704   2.547   2.776
 5623TIP3   OH216874   1.689   1.666   2.744
 5623TIP3    H116875   1.714   1.756   2.761
 5623TIP3    H216876   1.629   1.671   2.670
 5624TIP3   OH216877   1.037   3.911   2.896
 5624TIP3    H116878   0.965   3.941   2.951
 5624TIP3    H216879   1.102   3.981   2.901
 5625TIP3   OH216880   3.525   3.536   4.877
 5625TIP3    H116881   3.586   3.555   4.805
 5625TIP3    H216882   3.573   3.474   4.933
 5626TIP3   OH216883   1.335   2.231   4.444
 5626TIP3    H116884   1.261   2.174   4.424
 5626TIP3    H216885   1.380   2.242   4.360
 5627TIP3   OH216886   3.522   5.276   3.935
 5627TIP3    H116887   3.583   5.215   3.978
 5627TIP3    H216888   3.575   5.353   3.916
 5628TIP3   OH216889   6.033   4.546   0.457
 5628TIP3    H116890   6.048   4.468   0.509
 5628TIP3    H216891   5.956   4.587   0.496
 5629TIP3   OH216892   5.396   0.539   1.437
 5629TIP3    H116893   5.436   0.599   1.500
 5629TIP3    H216894   5.304   0.535   1.463
 5630TIP3   OH216895   1.003   1.828   4.745
 5630TIP3    H116896   0.927   1.874   4.709
 5630TIP3    H216897   1.023   1.761   4.681
 5631TIP3   OH216898   5.206   5.804   5.075
 5631TIP3    H116899   5.259   5.779   4.999
 5631TIP3    H216900   5.144   5.868   5.041
 5632TIP3   OH216901   4.012   0.249   1.401
 5632TIP3    H116902   4.108   0.252   1.411
 5632TIP3    H216903   3.985   0.341   1.400
 5633TIP3   OH216904   6.083   2.265   4.745
 5633TIP3    H116905   5.993   2.246   4.721
 5633TIP3    H216906   6.136   2.213   4.683
 5634TIP3   OH216907   2.010   5.064   1.735
 5634TIP3    H116908   1.962   5.043   1.656
 5634TIP3    H216909   1.979   5.000   1.800
 5635TIP3   OH216910   5.165   0.551   1.574
 5635TIP3    H116911   5.154   0.530   1.666
 5635TIP3    H216912   5.081   0.585   1.546
 5636TIP3   OH216913   1.972   5.627   1.349
 5636TIP3    H116914   2.013   5.647   1.265
 5636TIP3    H216915   1.878   5.623   1.330
 5637TIP3   OH216916   0.071   0.604   3.311
 5637TIP3    H116917   0.127   0.598   3.389
 5637TIP3    H216918   0.056   0.698   3.299
 5638TIP3   OH216919   3.898   0.362   2.846
 5638TIP3    H116920   3.891   0.399   2.758
 5638TIP3    H216921   3.886   0.438   2.905
 5639TIP3   OH216922   4.499   3.568   1.979
 5639TIP3    H116923   4.483   3.477   1.953
 5639TIP3    H216924   4.413   3.602   2.003
 5640TIP3   OH216925   2.454   2.318   2.913
 5640TIP3    H116926   2.455   2.379   2.839
 5640TIP3    H216927   2.454   2.374   2.991
 5641TIP3   OH216928   5.415   4.938   1.887
 5641TIP3    H116929   5.421   4.981   1.972
 5641TIP3    H216930   5.321   4.932   1.870
 5642TIP3   OH216931   4.689   4.662   3.302
 5642TIP3    H116932   4.688   4.608   3.224
 5642TIP3    H216933   4.669   4.602   3.374
 5643TIP3   OH216934   4.734   3.025   3.375
 5643TIP3    H116935   4.749   3.057   3.463
 5643TIP3    H216936   4.667   3.083   3.339
 5644TIP3   OH216937   4.816   1.223   3.319
 5644TIP3    H116938   4.764   1.185   3.390
 5644TIP3    H216939   4.786   1.179   3.240
 5645TIP3   OH216940   0.646   5.102   3.623
 5645TIP3    H116941   0.639   5.171   3.688
 5645TIP3    H216942   0.708   5.136   3.558
 5646TIP3   OH216943   1.430   5.397   0.708
 5646TIP3    H116944   1.338   5.373   0.697
 5646TIP3    H216945   1.474   5.360   0.631
 5647TIP3   OH216946   0.350   2.227   2.920
 5647TIP3    H116947   0.429   2.278   2.901
 5647TIP3    H216948   0.324   2.257   3.008
 5648TIP3   OH216949   3.260   1.394   1.574
 5648TIP3    H116950   3.281   1.318   1.628
 5648TIP3    H216951   3.183   1.432   1.616
 5649TIP3   OH216952   2.271   1.486   1.367
 5649TIP3    H116953   2.286   1.459   1.457
 5649TIP3    H216954   2.327   1.428   1.315
 5650TIP3   OH216955   6.143   2.348   3.787
 5650TIP3    H116956   6.233   2.344   3.820
 5650TIP3    H216957   6.111   2.434   3.816
 5651TIP3   OH216958   0.032   1.986   2.603
 5651TIP3    H116959   0.036   1.943   2.688
 5651TIP3    H216960  -0.047   2.040   2.607
 5652TIP3   OH216961   4.116   1.889   0.200
 5652TIP3    H116962   4.025   1.881   0.227
 5652TIP3    H216963   4.143   1.975   0.233
 5653TIP3   OH216964   4.056   0.558   3.526
 5653TIP3    H116965   4.130   0.521   3.478
 5653TIP3    H216966   4.077   0.651   3.535
 5654TIP3   OH216967   5.729   2.986   2.809
 5654TIP3    H116968   5.735   2.914   2.746
 5654TIP3    H216969   5.820   3.011   2.826
 5655TIP3   OH216970   0.725   1.810   3.237
 5655TIP3    H116971   0.675   1.773   3.163
 5655TIP3    H216972   0.723   1.741   3.303
 5656TIP3   OH216973   2.283   1.698   4.365
 5656TIP3    H116974   2.326   1.650   4.435
 5656TIP3    H216975   2.266   1.785   4.402
 5657TIP3   OH216976   0.857   2.420   1.016
 5657TIP3    H116977   0.794   2.405   0.945
 5657TIP3    H216978   0.868   2.515   1.019
 5658TIP3   OH216979   1.266   4.435   0.830
 5658TIP3    H116980   1.320   4.508   0.799
 5658TIP3    H216981   1.318   4.393   0.898
 5659TIP3   OH216982   3.863   5.601   3.207
 5659TIP3    H116983   3.798   5.627   3.272
 5659TIP3    H216984   3.914   5.681   3.192
 5660TIP3   OH216985   5.775   3.297   2.915
 5660TIP3    H116986   5.775   3.344   2.998
 5660TIP3    H216987   5.799   3.208   2.938
 5661TIP3   OH216988   3.861   1.450   2.065
 5661TIP3    H116989   3.813   1.379   2.108
 5661TIP3    H216990   3.908   1.494   2.136
 5662TIP3   OH216991   2.298   2.891   0.642
 5662TIP3    H116992   2.349   2.958   0.595
 5662TIP3    H216993   2.207   2.919   0.632
 5663TIP3   OH216994   6.024   5.556   0.836
 5663TIP3    H116995   6.084   5.622   0.802
 5663TIP3    H216996   5.937   5.591   0.816
 5664TIP3   OH216997   2.695   5.476   0.512
 5664TIP3    H116998   2.724   5.385   0.510
 5664TIP3    H216999   2.698   5.501   0.605
 5665TIP3   OH217000   1.898   3.016   1.210
 5665TIP3    H117001   1.918   2.922   1.213
 5665TIP3    H217002   1.829   3.024   1.145
 5666TIP3   OH217003   2.612   2.961   1.438
 5666TIP3    H117004   2.588   2.962   1.530
 5666TIP3    H217005   2.682   3.026   1.430
 5667TIP3   OH217006   5.635   0.907   1.841
 5667TIP3    H117007   5.699   0.864   1.898
 5667TIP3    H217008   5.551   0.897   1.886
 5668TIP3   OH217009   1.046   3.566   0.971
 5668TIP3    H117010   0.957   3.542   0.945
 5668TIP3    H217011   1.078   3.622   0.901
 5669TIP3   OH217012   1.954   5.638   0.140
 5669TIP3    H117013   1.861   5.621   0.157
 5669TIP3    H217014   1.983   5.687   0.217
 5670TIP3   OH217015   4.443   5.704   1.400
 5670TIP3    H117016   4.499   5.678   1.327
 5670TIP3    H217017   4.402   5.623   1.430
 5671TIP3   OH217018   4.329   4.893   3.108
 5671TIP3    H117019   4.326   4.987   3.091
 5671TIP3    H217020   4.418   4.876   3.138
 5672TIP3   OH217021   0.518   4.364   2.469
 5672TIP3    H117022   0.468   4.446   2.472
 5672TIP3    H217023   0.477   4.309   2.536
 5673TIP3   OH217024   2.234   1.781   1.604
 5673TIP3    H117025   2.321   1.740   1.611
 5673TIP3    H217026   2.179   1.713   1.566
 5674TIP3   OH217027   5.701  -0.002   4.522
 5674TIP3    H117028   5.651   0.074   4.551
 5674TIP3    H217029   5.727   0.019   4.432
 5675TIP3   OH217030   5.906   2.097   3.476
 5675TIP3    H117031   5.831   2.132   3.428
 5675TIP3    H217032   5.935   2.022   3.424
 5676TIP3   OH217033   1.605   0.177   3.333
 5676TIP3    H117034   1.647   0.139   3.256
 5676TIP3    H217035   1.676   0.221   3.380
 5677TIP3   OH217036   5.543   5.615   2.214
 5677TIP3    H117037   5.563   5.669   2.290
 5677TIP3    H217038   5.628   5.580   2.187
 5678TIP3   OH217039   3.575   3.820   2.912
 5678TIP3    H117040   3.507   3.856   2.855
 5678TIP3    H217041   3.527   3.768   2.976
 5679TIP3   OH217042   3.288   4.816   0.795
 5679TIP3    H117043   3.307   4.835   0.887
 5679TIP3    H217044   3.243   4.731   0.796
 5680TIP3   OH217045   4.044   1.158   1.857
 5680TIP3    H117046   3.994   1.236   1.836
 5680TIP3    H217047   4.072   1.124   1.772
 5681TIP3   OH217048   1.476   2.485   3.812
 5681TIP3    H117049   1.504   2.469   3.722
 5681TIP3    H217050   1.490   2.401   3.856
 5682TIP3   OH217051   0.403   3.458   2.306
 5682TIP3    H117052   0.318   3.417   2.294
 5682TIP3    H217053   0.388   3.551   2.289
 5683TIP3   OH217054   1.915   3.340   3.106
 5683TIP3    H117055   2.009   3.324   3.113
 5683TIP3    H217056   1.896   3.333   3.013
 5684TIP3   OH217057   1.228   4.303   3.657
 5684TIP3    H117058   1.278   4.328   3.735
 5684TIP3    H217059   1.292   4.308   3.586
 5685TIP3   OH217060   4.778   0.749   2.981
 5685TIP3    H117061   4.800   0.742   2.888
 5685TIP3    H217062   4.765   0.659   3.010
 5686TIP3   OH217063   3.399   1.619   2.102
 5686TIP3    H117064   3.394   1.531   2.064
 5686TIP3    H217065   3.317   1.661   2.077
 5687TIP3   OH217066   6.401   0.647   1.253
 5687TIP3    H117067   6.350   0.591   1.311
 5687TIP3    H217068   6.465   0.588   1.213
 5688TIP3   OH217069   3.547   5.505   0.419
 5688TIP3    H117070   3.541   5.600   0.426
 5688TIP3    H217071   3.639   5.487   0.399
 5689TIP3   OH217072   0.757   1.698   0.034
 5689TIP3    H117073   0.763   1.791   0.054
 5689TIP3    H217074   0.846   1.674   0.007
 5690TIP3   OH217075   1.631   2.377   1.700
 5690TIP3    H117076   1.702   2.335   1.748
 5690TIP3    H217077   1.577   2.305   1.667
 5691TIP3   OH217078   5.069   1.574   4.514
 5691TIP3    H117079   5.095   1.586   4.606
 5691TIP3    H217080   4.973   1.567   4.517
 5692TIP3   OH217081   1.475   4.621   0.449
 5692TIP3    H117082   1.428   4.662   0.376
 5692TIP3    H217083   1.567   4.642   0.433
 5693TIP3   OH217084   0.974   1.451   1.010
 5693TIP3    H117085   0.929   1.528   1.043
 5693TIP3    H217086   0.982   1.393   1.086
 5694TIP3   OH217087   3.014   3.768   4.857
 5694TIP3    H117088   3.002   3.778   4.763
 5694TIP3    H217089   3.094   3.714   4.865
 5695TIP3   OH217090   1.147   1.864   0.628
 5695TIP3    H117091   1.080   1.905   0.574
 5695TIP3    H217092   1.215   1.838   0.566
 5696TIP3   OH217093   1.839   2.908   4.120
 5696TIP3    H117094   1.783   2.897   4.043
 5696TIP3    H217095   1.831   2.825   4.167
 5697TIP3   OH217096   4.086   1.055   1.598
 5697TIP3    H117097   4.025   1.044   1.525
 5697TIP3    H217098   4.094   0.967   1.634
 5698TIP3   OH217099   3.277   3.296   0.131
 5698TIP3    H117100   3.190   3.278   0.166
 5698TIP3    H217101   3.270   3.384   0.093
 5699TIP3   OH217102   5.350   4.351   0.565
 5699TIP3    H117103   5.382   4.382   0.650
 5699TIP3    H217104   5.283   4.286   0.588
 5700TIP3   OH217105   2.297   5.795   4.521
 5700TIP3    H117106   2.252   5.784   4.605
 5700TIP3    H217107   2.362   5.725   4.519
 5701TIP3   OH217108   0.793   0.287   1.755
 5701TIP3    H117109   0.754   0.373   1.739
 5701TIP3    H217110   0.791   0.244   1.669
 5702TIP3   OH217111   0.921   1.098   0.542
 5702TIP3    H117112   0.958   1.054   0.618
 5702TIP3    H217113   0.827   1.099   0.558
 5703TIP3   OH217114   1.624   0.853   0.478
 5703TIP3    H117115   1.556   0.793   0.509
 5703TIP3    H217116   1.623   0.924   0.541
 5704TIP3   OH217117   6.077   2.620   0.846
 5704TIP3    H117118   6.067   2.549   0.910
 5704TIP3    H217119   6.044   2.584   0.764
 5705TIP3   OH217120   5.516   5.089   3.072
 5705TIP3    H117121   5.479   5.048   3.151
 5705TIP3    H217122   5.466   5.050   3.000
 5706TIP3   OH217123   3.299   0.011   2.810
 5706TIP3    H117124   3.258   0.097   2.800
 5706TIP3    H217125   3.316   0.004   2.904
 5707TIP3   OH217126   5.778   5.408   0.265
 5707TIP3    H117127   5.836   5.438   0.196
 5707TIP3    H217128   5.836   5.388   0.338
 5708TIP3   OH217129   3.821   5.256   3.452
 5708TIP3    H117130   3.905   5.258   3.406
 5708TIP3    H217131   3.803   5.348   3.471
 5709TIP3   OH217132   6.022   2.571   1.433
 5709TIP3    H117133   5.943   2.594   1.482
 5709TIP3    H217134   5.996   2.581   1.341
 5710TIP3   OH217135   5.417   3.801   3.447
 5710TIP3    H117136   5.433   3.741   3.375
 5710TIP3    H217137   5.348   3.859   3.415
 5711TIP3   OH217138   3.531   2.057   4.778
 5711TIP3    H117139   3.505   2.080   4.689
 5711TIP3    H217140   3.581   1.976   4.768
 5712TIP3   OH217141   2.169   1.459   3.373
 5712TIP3    H117142   2.204   1.548   3.374
 5712TIP3    H217143   2.089   1.465   3.322
 5713TIP3   OH217144   0.079   5.646   1.861
 5713TIP3    H117145   0.110   5.731   1.832
 5713TIP3    H217146   0.156   5.589   1.858
 5714TIP3   OH217147   2.775   4.874   1.692
 5714TIP3    H117148   2.718   4.950   1.701
 5714TIP3    H217149   2.754   4.819   1.767
 5715TIP3   OH217150   3.674   0.662   2.573
 5715TIP3    H117151   3.669   0.713   2.492
 5715TIP3    H217152   3.677   0.571   2.544
 5716TIP3   OH217153   0.961   3.607   2.412
 5716TIP3    H117154   1.007   3.534   2.454
 5716TIP3    H217155   0.870   3.595   2.437
 5717TIP3   OH217156   0.147   1.376   0.266
 5717TIP3    H117157   0.217   1.414   0.320
 5717TIP3    H217158   0.177   1.288   0.246
 5718TIP3   OH217159   3.579   0.374   5.065
 5718TIP3    H117160   3.660   0.416   5.094
 5718TIP3    H217161   3.569   0.402   4.974
 5719TIP3   OH217162   4.943   1.930   0.695
 5719TIP3    H117163   4.867   1.915   0.640
 5719TIP3    H217164   4.974   2.017   0.672
 5720TIP3   OH217165   3.637   3.799   3.465
 5720TIP3    H117166   3.673   3.857   3.399
 5720TIP3    H217167   3.550   3.776   3.432
 5721TIP3   OH217168   1.389   5.744   1.550
 5721TIP3    H117169   1.310   5.780   1.589
 5721TIP3    H217170   1.415   5.673   1.609
 5722TIP3   OH217171   4.536   0.599   2.315
 5722TIP3    H117172   4.442   0.612   2.324
 5722TIP3    H217173   4.563   0.660   2.247
 5723TIP3   OH217174   1.640   4.765   0.113
 5723TIP3    H117175   1.650   4.856   0.083
 5723TIP3    H217176   1.565   4.767   0.172
 5724TIP3   OH217177   3.397   4.876   5.014
 5724TIP3    H117178   3.304   4.902   5.017
 5724TIP3    H217179   3.395   4.785   4.985
 5725TIP3   OH217180   0.644   3.886   2.616
 5725TIP3    H117181   0.683   3.903   2.702
 5725TIP3    H217182   0.644   3.791   2.609
 5726TIP3   OH217183   4.503   2.975   4.236
 5726TIP3    H117184   4.538   2.966   4.324
 5726TIP3    H217185   4.492   3.070   4.224
 5727TIP3   OH217186   5.382   0.566   3.096
 5727TIP3    H117187   5.478   0.576   3.095
 5727TIP3    H217188   5.357   0.583   3.186
 5728TIP3   OH217189   1.683   3.753   0.157
 5728TIP3    H117190   1.600   3.800   0.162
 5728TIP3    H217191   1.682   3.695   0.233
 5729TIP3   OH217192   5.116   3.092   3.114
 5729TIP3    H117193   5.176   3.073   3.042
 5729TIP3    H217194   5.118   3.187   3.122
 5730TIP3   OH217195   5.123   5.908   1.261
 5730TIP3    H117196   5.207   5.898   1.306
 5730TIP3    H217197   5.088   5.819   1.257
 5731TIP3   OH217198   0.700   4.180   4.598
 5731TIP3    H117199   0.719   4.163   4.690
 5731TIP3    H217200   0.668   4.270   4.597
 5732TIP3   OH217201   1.660   4.889   0.586
 5732TIP3    H117202   1.695   4.831   0.519
 5732TIP3    H217203   1.708   4.865   0.666
 5733TIP3   OH217204   5.763   3.619   1.806
 5733TIP3    H117205   5.723   3.704   1.790
 5733TIP3    H217206   5.748   3.602   1.899
 5734TIP3   OH217207   1.650   1.167   3.136
 5734TIP3    H117208   1.577   1.153   3.075
 5734TIP3    H217209   1.645   1.260   3.158
 5735TIP3   OH217210   3.426   0.772   0.193
 5735TIP3    H117211   3.507   0.822   0.192
 5735TIP3    H217212   3.410   0.750   0.101
 5736TIP3   OH217213   4.287   1.996   3.625
 5736TIP3    H117214   4.308   2.000   3.718
 5736TIP3    H217215   4.354   2.049   3.583
 5737TIP3   OH217216   4.984   2.135   4.682
 5737TIP3    H117217   4.952   2.139   4.592
 5737TIP3    H217218   5.077   2.113   4.673
 5738TIP3   OH217219   3.944   1.196   3.022
 5738TIP3    H117220   4.038   1.214   3.015
 5738TIP3    H217221   3.933   1.161   3.111
 5739TIP3   OH217222   4.049   3.661   4.055
 5739TIP3    H117223   4.044   3.566   4.049
 5739TIP3    H217224   4.142   3.680   4.065
 5740TIP3   OH217225   2.277   2.343   0.314
 5740TIP3    H117226   2.206   2.405   0.297
 5740TIP3    H217227   2.238   2.257   0.299
 5741TIP3   OH217228   4.416   1.370   1.128
 5741TIP3    H117229   4.428   1.391   1.221
 5741TIP3    H217230   4.389   1.278   1.128
 5742TIP3   OH217231   2.250   0.718   3.879
 5742TIP3    H117232   2.172   0.663   3.889
 5742TIP3    H217233   2.234   0.768   3.800
 5743TIP3   OH217234   5.588   4.847   4.733
 5743TIP3    H117235   5.661   4.902   4.761
 5743TIP3    H217236   5.547   4.897   4.661
 5744TIP3   OH217237   1.486   2.671   4.675
 5744TIP3    H117238   1.580   2.691   4.675
 5744TIP3    H217239   1.472   2.623   4.757
 5745TIP3   OH217240   5.185   4.159   0.700
 5745TIP3    H117241   5.119   4.210   0.749
 5745TIP3    H217242   5.136   4.086   0.664
 5746TIP3   OH217243   0.716   3.846   2.908
 5746TIP3    H117244   0.771   3.769   2.923
 5746TIP3    H217245   0.755   3.915   2.962
 5747TIP3   OH217246   5.733   4.758   1.591
 5747TIP3    H117247   5.708   4.727   1.677
 5747TIP3    H217248   5.794   4.831   1.608
 5748TIP3   OH217249   3.798   0.037   3.732
 5748TIP3    H117250   3.714   0.083   3.740
 5748TIP3    H217251   3.774  -0.055   3.720
 5749TIP3   OH217252   2.809   0.639   4.634
 5749TIP3    H117253   2.738   0.599   4.685
 5749TIP3    H217254   2.888   0.621   4.684
 5750TIP3   OH217255   4.285   4.094   3.113
 5750TIP3    H117256   4.267   4.188   3.122
 5750TIP3    H217257   4.247   4.071   3.028
 5751TIP3   OH217258   0.903   3.489   3.300
 5751TIP3    H117259   0.948   3.524   3.377
 5751TIP3    H217260   0.903   3.394   3.313
 5752TIP3   OH217261   2.708   2.725   4.248
 5752TIP3    H117262   2.682   2.634   4.234
 5752TIP3    H217263   2.663   2.750   4.329
 5753TIP3   OH217264   0.824   4.488   5.075
 5753TIP3    H117265   0.793   4.492   4.984
 5753TIP3    H217266   0.919   4.479   5.067
 5754TIP3   OH217267   2.615   3.595   1.000
 5754TIP3    H117268   2.680   3.535   1.036
 5754TIP3    H217269   2.558   3.540   0.946
 5755TIP3   OH217270   2.558   2.802   4.908
 5755TIP3    H117271   2.493   2.843   4.965
 5755TIP3    H217272   2.628   2.867   4.901
 5756TIP3   OH217273   3.677   4.313   3.426
 5756TIP3    H117274   3.770   4.319   3.445
 5756TIP3    H217275   3.635   4.311   3.512
 5757TIP3   OH217276   1.829   3.094   1.478
 5757TIP3    H117277   1.852   3.087   1.385
 5757TIP3    H217278   1.810   3.005   1.505
 5758TIP3   OH217279   5.558   0.784   4.355
 5758TIP3    H117280   5.647   0.775   4.319
 5758TIP3    H217281   5.551   0.716   4.421
 5759TIP3   OH217282   5.976   3.863   1.893
 5759TIP3    H117283   5.991   3.770   1.875
 5759TIP3    H217284   5.938   3.898   1.813
 5760TIP3   OH217285   2.339   3.985   2.790
 5760TIP3    H117286   2.428   3.962   2.818
 5760TIP3    H217287   2.311   3.912   2.736
 5761TIP3   OH217288   4.196   4.449   3.638
 5761TIP3    H117289   4.175   4.539   3.613
 5761TIP3    H217290   4.291   4.450   3.653
 5762TIP3   OH217291   5.804   1.998   3.213
 5762TIP3    H117292   5.897   1.985   3.229
 5762TIP3    H217293   5.787   1.960   3.127
 5763TIP3   OH217294   6.250   1.243   4.675
 5763TIP3    H117295   6.289   1.197   4.601
 5763TIP3    H217296   6.169   1.194   4.693
 5764TIP3   OH217297   5.160   2.449   2.599
 5764TIP3    H117298   5.106   2.508   2.652
 5764TIP3    H217299   5.133   2.361   2.628
 5765TIP3   OH217300   5.924   3.392   2.656
 5765TIP3    H117301   5.936   3.311   2.607
 5765TIP3    H217302   5.882   3.364   2.738
 5766TIP3   OH217303   1.146   3.498   3.992
 5766TIP3    H117304   1.084   3.533   4.056
 5766TIP3    H217305   1.138   3.403   4.002
 5767TIP3   OH217306   4.515   3.043   1.900
 5767TIP3    H117307   4.517   2.971   1.963
 5767TIP3    H217308   4.458   3.012   1.830
 5768TIP3   OH217309   1.543   4.012   1.553
 5768TIP3    H117310   1.491   3.994   1.631
 5768TIP3    H217311   1.502   4.089   1.514
 5769TIP3   OH217312   4.824   5.746   3.977
 5769TIP3    H117313   4.865   5.711   3.898
 5769TIP3    H217314   4.895   5.791   4.023
 5770TIP3   OH217315   2.760   5.347   1.666
 5770TIP3    H117316   2.756   5.422   1.607
 5770TIP3    H217317   2.854   5.332   1.680
 5771TIP3   OH217318   4.205   2.830   4.013
 5771TIP3    H117319   4.147   2.760   3.983
 5771TIP3    H217320   4.148   2.889   4.062
 5772TIP3   OH217321   0.860   1.488   0.283
 5772TIP3    H117322   0.920   1.435   0.230
 5772TIP3    H217323   0.823   1.551   0.221
 5773TIP3   OH217324   6.195   4.959   0.163
 5773TIP3    H117325   6.174   4.873   0.198
 5773TIP3    H217326   6.164   5.020   0.230
 5774TIP3   OH217327   4.223   3.348   2.286
 5774TIP3    H117328   4.221   3.265   2.237
 5774TIP3    H217329   4.306   3.389   2.261
 5775TIP3   OH217330   0.324   2.681   3.793
 5775TIP3    H117331   0.351   2.591   3.812
 5775TIP3    H217332   0.229   2.676   3.786
 5776TIP3   OH217333   3.251   1.568   4.513
 5776TIP3    H117334   3.319   1.617   4.560
 5776TIP3    H217335   3.227   1.498   4.573
 5777TIP3   OH217336   0.267   5.509   1.070
 5777TIP3    H117337   0.183   5.553   1.055
 5777TIP3    H217338   0.272   5.501   1.165
 5778TIP3   OH217339   4.169   4.872   0.566
 5778TIP3    H117340   4.085   4.828   0.560
 5778TIP3    H217341   4.229   4.817   0.516
 5779TIP3   OH217342   0.466   4.799   2.695
 5779TIP3    H117343   0.404   4.832   2.629
 5779TIP3    H217344   0.533   4.868   2.701
 5780TIP3   OH217345   0.136   4.778   2.738
 5780TIP3    H117346   0.174   4.810   2.656
 5780TIP3    H217347   0.048   4.817   2.740
 5781TIP3   OH217348   5.140   5.328   0.452
 5781TIP3    H117349   5.124   5.422   0.443
 5781TIP3    H217350   5.062   5.287   0.416
 5782TIP3   OH217351   0.527   0.304   4.711
 5782TIP3    H117352   0.432   0.317   4.703
 5782TIP3    H217353   0.539   0.279   4.803
 5783TIP3   OH217354   1.432   1.970   1.189
 5783TIP3    H117355   1.425   1.888   1.237
 5783TIP3    H217356   1.526   1.985   1.180
 5784TIP3   OH217357   4.742   0.507   5.054
 5784TIP3    H117358   4.810   0.472   5.111
 5784TIP3    H217359   4.682   0.434   5.040
 5785TIP3   OH217360   3.486   5.416   2.300
 5785TIP3    H117361   3.574   5.381   2.286
 5785TIP3    H217362   3.481   5.492   2.243
 5786TIP3   OH217363   0.472   2.537   4.794
 5786TIP3    H117364   0.489   2.631   4.788
 5786TIP3    H217365   0.479   2.517   4.888
 5787TIP3   OH217366   4.992   2.975   0.534
 5787TIP3    H117367   5.017   2.944   0.447
 5787TIP3    H217368   4.902   2.943   0.546
 5788TIP3   OH217369   5.256   0.295   3.471
 5788TIP3    H117370   5.286   0.248   3.549
 5788TIP3    H217371   5.288   0.243   3.397
 5789TIP3   OH217372   3.895   1.370   1.795
 5789TIP3    H117373   3.904   1.437   1.726
 5789TIP3    H217374   3.892   1.420   1.876
 5790TIP3   OH217375   0.079   5.890   0.753
 5790TIP3    H117376   0.022   5.961   0.724
 5790TIP3    H217377   0.167   5.927   0.747
 5791TIP3   OH217378   4.949   2.865   2.879
 5791TIP3    H117379   5.005   2.787   2.880
 5791TIP3    H217380   4.919   2.872   2.788
 5792TIP3   OH217381   5.257   3.559   2.922
 5792TIP3    H117382   5.189   3.494   2.906
 5792TIP3    H217383   5.285   3.587   2.835
 5793TIP3   OH217384   6.288   3.683   1.997
 5793TIP3    H117385   6.245   3.620   2.055
 5793TIP3    H217386   6.227   3.694   1.924
 5794TIP3   OH217387   4.519   1.577   3.026
 5794TIP3    H117388   4.441   1.552   3.075
 5794TIP3    H217389   4.568   1.634   3.085
 5795TIP3   OH217390   4.626   3.039   0.923
 5795TIP3    H117391   4.614   3.041   1.018
 5795TIP3    H217392   4.720   3.053   0.911
 5796TIP3   OH217393   2.842   3.317   0.869
 5796TIP3    H117394   2.930   3.296   0.840
 5796TIP3    H217395   2.834   3.277   0.956
 5797TIP3   OH217396   5.117   1.253   2.110
 5797TIP3    H117397   5.179   1.244   2.182
 5797TIP3    H217398   5.122   1.346   2.087
 5798TIP3   OH217399   1.175   5.768   1.714
 5798TIP3    H117400   1.124   5.809   1.643
 5798TIP3    H217401   1.110   5.720   1.765
 5799TIP3   OH217402   2.866   5.977   2.249
 5799TIP3    H117403   2.923   6.009   2.318
 5799TIP3    H217404   2.830   5.895   2.284
 5800TIP3   OH217405   4.305   2.949   3.778
 5800TIP3    H117406   4.337   3.029   3.820
 5800TIP3    H217407   4.282   2.891   3.851
 5801TIP3   OH217408   5.733   0.292   1.610
 5801TIP3    H117409   5.768   0.379   1.630
 5801TIP3    H217410   5.762   0.237   1.684
 5802TIP3   OH217411   1.825   1.706   3.039
 5802TIP3    H117412   1.824   1.780   3.099
 5802TIP3    H217413   1.739   1.665   3.050
 5803TIP3   OH217414   4.535   3.810   0.064
 5803TIP3    H117415   4.597   3.873   0.027
 5803TIP3    H217416   4.456   3.861   0.079
 5804TIP3   OH217417   2.616   3.945   2.595
 5804TIP3    H117418   2.650   3.868   2.640
 5804TIP3    H217419   2.531   3.918   2.562
 5805TIP3   OH217420   0.470   0.964   1.470
 5805TIP3    H117421   0.507   0.962   1.381
 5805TIP3    H217422   0.396   0.904   1.467
 5806TIP3   OH217423   4.465   1.513   1.684
 5806TIP3    H117424   4.389   1.455   1.678
 5806TIP3    H217425   4.527   1.465   1.740
 5807TIP3   OH217426   1.379   3.800   2.260
 5807TIP3    H117427   1.283   3.797   2.260
 5807TIP3    H217428   1.405   3.708   2.263
 5808TIP3   OH217429   4.310   0.830   3.790
 5808TIP3    H117430   4.396   0.818   3.749
 5808TIP3    H217431   4.314   0.777   3.870
 5809TIP3   OH217432   1.613   5.881   5.128
 5809TIP3    H117433   1.608   5.975   5.110
 5809TIP3    H217434   1.531   5.845   5.093
 5810TIP3   OH217435   0.790   0.290   3.415
 5810TIP3    H117436   0.700   0.306   3.387
 5810TIP3    H217437   0.836   0.266   3.334
 5811TIP3   OH217438   1.335   1.098   2.196
 5811TIP3    H117439   1.419   1.143   2.204
 5811TIP3    H217440   1.356   1.014   2.154
 5812TIP3   OH217441   3.436   5.104   1.525
 5812TIP3    H117442   3.447   5.137   1.614
 5812TIP3    H217443   3.523   5.112   1.486
 5813TIP3   OH217444   5.101   5.455   0.722
 5813TIP3    H117445   5.020   5.418   0.758
 5813TIP3    H217446   5.107   5.418   0.634
 5814TIP3   OH217447   2.154   1.178   4.491
 5814TIP3    H117448   2.094   1.236   4.537
 5814TIP3    H217449   2.174   1.224   4.409
 5815TIP3   OH217450   2.107   1.011   2.923
 5815TIP3    H117451   2.126   1.082   2.984
 5815TIP3    H217452   2.023   1.034   2.883
 5816TIP3   OH217453   6.253   2.770   2.920
 5816TIP3    H117454   6.300   2.701   2.873
 5816TIP3    H217455   6.318   2.807   2.979
 5817TIP3   OH217456   5.301   1.753   4.749
 5817TIP3    H117457   5.275   1.661   4.760
 5817TIP3    H217458   5.364   1.751   4.677
 5818TIP3   OH217459   4.392   0.571   1.684
 5818TIP3    H117460   4.389   0.539   1.774
 5818TIP3    H217461   4.434   0.657   1.691
 5819TIP3   OH217462   3.866   4.169   0.250
 5819TIP3    H117463   3.808   4.242   0.230
 5819TIP3    H217464   3.905   4.191   0.334
 5820TIP3   OH217465   1.865   3.335   4.776
 5820TIP3    H117466   1.919   3.277   4.831
 5820TIP3    H217467   1.784   3.286   4.763
 5821TIP3   OH217468   1.407   3.429   2.042
 5821TIP3    H117469   1.334   3.478   2.079
 5821TIP3    H217470   1.389   3.427   1.948
 5822TIP3   OH217471   3.592   0.757   2.342
 5822TIP3    H117472   3.585   0.850   2.319
 5822TIP3    H217473   3.587   0.711   2.258
 5823TIP3   OH217474   0.582   1.717   2.087
 5823TIP3    H117475   0.554   1.746   2.001
 5823TIP3    H217476   0.640   1.643   2.070
 5824TIP3   OH217477   1.601   2.383   4.869
 5824TIP3    H117478   1.644   2.453   4.919
 5824TIP3    H217479   1.528   2.356   4.925
 5825TIP3   OH217480   4.917   0.942   0.859
 5825TIP3    H117481   4.843   1.001   0.847
 5825TIP3    H217482   4.973   0.985   0.924
 5826TIP3   OH217483   5.336   0.923   3.848
 5826TIP3    H117484   5.261   0.935   3.789
 5826TIP3    H217485   5.324   0.836   3.885
 5827TIP3   OH217486   1.273   5.586   1.938
 5827TIP3    H117487   1.229   5.658   1.984
 5827TIP3    H217488   1.213   5.512   1.946
 5828TIP3   OH217489   2.024   3.356   4.325
 5828TIP3    H117490   1.955   3.294   4.302
 5828TIP3    H217491   2.004   3.383   4.414
 5829TIP3   OH217492   3.619   4.814   0.895
 5829TIP3    H117493   3.560   4.752   0.937
 5829TIP3    H217494   3.604   4.801   0.801
 5830TIP3   OH217495   4.927   0.181   3.537
 5830TIP3    H117496   4.967   0.158   3.620
 5830TIP3    H217497   4.980   0.255   3.505
 5831TIP3   OH217498   5.201   3.901   3.213
 5831TIP3    H117499   5.148   3.822   3.207
 5831TIP3    H217500   5.246   3.906   3.128
 5832TIP3   OH217501   2.248   5.263   1.182
 5832TIP3    H117502   2.261   5.186   1.236
 5832TIP3    H217503   2.175   5.310   1.222
 5833TIP3   OH217504   4.066   2.262   0.442
 5833TIP3    H117505   4.124   2.235   0.513
 5833TIP3    H217506   4.027   2.343   0.472
 5834TIP3   OH217507   5.273   2.426   4.741
 5834TIP3    H117508   5.341   2.467   4.794
 5834TIP3    H217509   5.285   2.462   4.654
 5835TIP3   OH217510   4.040   4.538   0.317
 5835TIP3    H117511   4.023   4.459   0.368
 5835TIP3    H217512   3.957   4.587   0.320
 5836TIP3   OH217513   1.068   5.711   4.195
 5836TIP3    H117514   1.101   5.662   4.120
 5836TIP3    H217515   1.002   5.770   4.157
 5837TIP3   OH217516   1.290   2.624   0.627
 5837TIP3    H117517   1.383   2.609   0.638
 5837TIP3    H217518   1.275   2.615   0.532
 5838TIP3   OH217519   5.411   2.070   1.668
 5838TIP3    H117520   5.424   2.039   1.757
 5838TIP3    H217521   5.382   1.992   1.620
 5839TIP3   OH217522   0.558   0.124   2.371
 5839TIP3    H117523   0.515   0.038   2.372
 5839TIP3    H217524   0.641   0.109   2.416
 5840TIP3   OH217525   0.271   4.900   2.528
 5840TIP3    H117526   0.258   4.993   2.546
 5840TIP3    H217527   0.253   4.891   2.435
 5841TIP3   OH217528   3.850   5.082   4.757
 5841TIP3    H117529   3.879   5.161   4.713
 5841TIP3    H217530   3.762   5.102   4.788
 5842TIP3   OH217531   5.074   0.033   1.104
 5842TIP3    H117532   5.134   0.103   1.077
 5842TIP3    H217533   5.099  -0.041   1.049
 5843TIP3   OH217534   5.673   4.971   0.020
 5843TIP3    H117535   5.693   5.057   0.058
 5843TIP3    H217536   5.578   4.964   0.025
 5844TIP3   OH217537   5.374   1.506   3.753
 5844TIP3    H117538   5.369   1.532   3.661
 5844TIP3    H217539   5.335   1.580   3.800
 5845TIP3   OH217540   3.358   0.153   2.526
 5845TIP3    H117541   3.338   0.072   2.571
 5845TIP3    H217542   3.304   0.150   2.446
 5846TIP3   OH217543   3.373   1.880   2.637
 5846TIP3    H117544   3.366   1.973   2.658
 5846TIP3    H217545   3.374   1.878   2.541
 5847TIP3   OH217546   2.281   5.965   5.060
 5847TIP3    H117547   2.214   5.899   5.077
 5847TIP3    H217548   2.350   5.918   5.013
 5848TIP3   OH217549   5.223   4.739   0.944
 5848TIP3    H117550   5.276   4.807   0.904
 5848TIP3    H217551   5.256   4.732   1.034
 5849TIP3   OH217552   2.762   3.736   3.489
 5849TIP3    H117553   2.810   3.656   3.470
 5849TIP3    H217554   2.795   3.800   3.426
 5850TIP3   OH217555   5.605   4.775   3.771
 5850TIP3    H117556   5.538   4.838   3.743
 5850TIP3    H217557   5.636   4.810   3.855
 5851TIP3   OH217558   2.184   0.869   3.670
 5851TIP3    H117559   2.193   0.947   3.616
 5851TIP3    H217560   2.090   0.853   3.673
 5852TIP3   OH217561   4.522   5.447   1.892
 5852TIP3    H117562   4.511   5.451   1.987
 5852TIP3    H217563   4.441   5.483   1.857
 5853TIP3   OH217564   2.017   3.539   2.672
 5853TIP3    H117565   2.049   3.497   2.592
 5853TIP3    H217566   1.999   3.466   2.732
 5854TIP3   OH217567   4.259   4.236   1.266
 5854TIP3    H117568   4.284   4.163   1.211
 5854TIP3    H217569   4.329   4.300   1.254
 5855TIP3   OH217570   1.972   3.303   2.818
 5855TIP3    H117571   2.024   3.247   2.761
 5855TIP3    H217572   1.886   3.261   2.821
 5856TIP3   OH217573   0.974   5.011   3.150
 5856TIP3    H117574   1.016   4.943   3.204
 5856TIP3    H217575   1.047   5.054   3.105
 5857TIP3   OH217576   0.368   0.622   2.844
 5857TIP3    H117577   0.419   0.615   2.925
 5857TIP3    H217578   0.403   0.699   2.800
 5858TIP3   OH217579   5.152   4.635   1.607
 5858TIP3    H117580   5.067   4.679   1.604
 5858TIP3    H217581   5.183   4.648   1.696
 5859TIP3   OH217582   5.817   1.253   1.449
 5859TIP3    H117583   5.879   1.183   1.468
 5859TIP3    H217584   5.781   1.277   1.534
 5860TIP3   OH217585   2.198   4.872   0.881
 5860TIP3    H117586   2.223   4.961   0.906
 5860TIP3    H217587   2.279   4.821   0.889
 5861TIP3   OH217588   5.669   3.551   2.101
 5861TIP3    H117589   5.743   3.532   2.159
 5861TIP3    H217590   5.662   3.473   2.045
 5862TIP3   OH217591   0.509   0.130   3.182
 5862TIP3    H117592   0.594   0.163   3.211
 5862TIP3    H217593   0.486   0.185   3.107
 5863TIP3   OH217594   2.373   0.704   3.211
 5863TIP3    H117595   2.334   0.752   3.285
 5863TIP3    H217596   2.392   0.772   3.147
 5864TIP3   OH217597   1.018   0.937   1.036
 5864TIP3    H117598   0.949   0.915   1.098
 5864TIP3    H217599   1.096   0.949   1.090
 5865TIP3   OH217600   1.353   3.743   3.922
 5865TIP3    H117601   1.358   3.819   3.980
 5865TIP3    H217602   1.275   3.695   3.952
 5866TIP3   OH217603   0.329   3.816   1.093
 5866TIP3    H117604   0.413   3.829   1.049
 5866TIP3    H217605   0.323   3.722   1.107
 5867TIP3   OH217606   3.558   4.684   3.607
 5867TIP3    H117607   3.636   4.639   3.575
 5867TIP3    H217608   3.584   4.720   3.691
 5868TIP3   OH217609   1.614   1.271   1.387
 5868TIP3    H117610   1.529   1.231   1.367
 5868TIP3    H217611   1.592   1.362   1.409
 5869TIP3   OH217612   4.726   1.831   1.650
 5869TIP3    H117613   4.791   1.900   1.632
 5869TIP3    H217614   4.763   1.752   1.610
 5870TIP3   OH217615   2.710   0.369   0.493
 5870TIP3    H117616   2.663   0.343   0.413
 5870TIP3    H217617   2.679   0.458   0.511
 5871TIP3   OH217618   5.896   0.615   0.684
 5871TIP3    H117619   5.977   0.664   0.668
 5871TIP3    H217620   5.846   0.624   0.603
 5872TIP3   OH217621   3.593   3.171   3.641
 5872TIP3    H117622   3.547   3.210   3.715
 5872TIP3    H217623   3.561   3.080   3.637
 5873TIP3   OH217624   5.664   0.456   4.462
 5873TIP3    H117625   5.571   0.475   4.475
 5873TIP3    H217626   5.709   0.518   4.520
 5874TIP3   OH217627   6.002   4.201   3.336
 5874TIP3    H117628   6.010   4.106   3.337
 5874TIP3    H217629   6.058   4.229   3.264
 5875TIP3   OH217630   1.061   2.489   4.489
 5875TIP3    H117631   1.012   2.421   4.534
 5875TIP3    H217632   1.152   2.473   4.513
 5876TIP3   OH217633   5.035   4.748   4.407
 5876TIP3    H117634   5.053   4.838   4.382
 5876TIP3    H217635   5.084   4.736   4.489
 5877TIP3   OH217636   0.081   2.457   1.602
 5877TIP3    H117637   0.039   2.543   1.607
 5877TIP3    H217638   0.008   2.395   1.603
 5878TIP3   OH217639   1.018   0.629   2.308
 5878TIP3    H117640   0.980   0.708   2.346
 5878TIP3    H217641   0.955   0.559   2.329
 5879TIP3   OH217642   0.316   3.165   4.857
 5879TIP3    H117643   0.230   3.206   4.859
 5879TIP3    H217644   0.372   3.223   4.909
 5880TIP3   OH217645   1.426   5.130   1.712
 5880TIP3    H117646   1.420   5.049   1.662
 5880TIP3    H217647   1.336   5.162   1.718
 5881TIP3   OH217648   6.080   2.412   1.039
 5881TIP3    H117649   6.156   2.443   1.089
 5881TIP3    H217650   6.036   2.351   1.099
 5882TIP3   OH217651   1.647   5.760   1.484
 5882TIP3    H117652   1.556   5.758   1.511
 5882TIP3    H217653   1.668   5.852   1.474
 5883TIP3   OH217654   3.195   5.431   2.178
 5883TIP3    H117655   3.203   5.489   2.254
 5883TIP3    H217656   3.155   5.352   2.213
 5884TIP3   OH217657   0.964   2.934   1.029
 5884TIP3    H117658   1.037   2.905   0.975
 5884TIP3    H217659   0.979   3.028   1.041
 5885TIP3   OH217660   0.234   2.648   3.479
 5885TIP3    H117661   0.247   2.738   3.507
 5885TIP3    H217662   0.164   2.652   3.414
 5886TIP3   OH217663   4.596   4.100   3.121
 5886TIP3    H117664   4.653   4.127   3.049
 5886TIP3    H217665   4.543   4.177   3.141
 5887TIP3   OH217666   4.361   4.460   1.651
 5887TIP3    H117667   4.315   4.536   1.614
 5887TIP3    H217668   4.306   4.385   1.626
 5888TIP3   OH217669   2.177   3.467   2.359
 5888TIP3    H117670   2.093   3.507   2.379
 5888TIP3    H217671   2.220   3.529   2.301
 5889TIP3   OH217672   6.254   1.044   5.069
 5889TIP3    H117673   6.182   1.030   5.130
 5889TIP3    H217674   6.247   1.136   5.045
 5890TIP3   OH217675   2.337   5.683   4.890
 5890TIP3    H117676   2.253   5.709   4.852
 5890TIP3    H217677   2.394   5.760   4.878
 5891TIP3   OH217678   6.142   6.047   0.908
 5891TIP3    H117679   6.079   5.983   0.875
 5891TIP3    H217680   6.170   6.013   0.993
 5892TIP3   OH217681   3.514   0.691   4.781
 5892TIP3    H117682   3.492   0.780   4.755
 5892TIP3    H217683   3.539   0.698   4.873
 5893TIP3   OH217684   1.294   5.531   3.696
 5893TIP3    H117685   1.217   5.553   3.644
 5893TIP3    H217686   1.333   5.456   3.650
 5894TIP3   OH217687   1.591   3.877   3.673
 5894TIP3    H117688   1.537   3.871   3.751
 5894TIP3    H217689   1.620   3.969   3.671
 5895TIP3   OH217690   1.895   1.422   2.862
 5895TIP3    H117691   1.948   1.501   2.860
 5895TIP3    H217692   1.838   1.433   2.939
 5896TIP3   OH217693   3.328   5.990   2.034
 5896TIP3    H117694   3.421   5.968   2.026
 5896TIP3    H217695   3.299   5.944   2.112
 5897TIP3   OH217696   6.006   2.124   0.798
 5897TIP3    H117697   6.015   2.068   0.875
 5897TIP3    H217698   5.946   2.193   0.825
 5898TIP3   OH217699   1.195   3.222   1.442
 5898TIP3    H117700   1.279   3.234   1.486
 5898TIP3    H217701   1.210   3.255   1.353
 5899TIP3   OH217702   1.364   2.905   3.622
 5899TIP3    H117703   1.395   2.990   3.654
 5899TIP3    H217704   1.274   2.898   3.653
 5900TIP3   OH217705   1.179   1.864   0.999
 5900TIP3    H117706   1.264   1.898   1.028
 5900TIP3    H217707   1.199   1.781   0.957
 5901TIP3   OH217708   1.530   1.600   0.974
 5901TIP3    H117709   1.608   1.640   1.014
 5901TIP3    H217710   1.468   1.592   1.046
 5902TIP3   OH217711   0.377   3.143   1.294
 5902TIP3    H117712   0.343   3.214   1.348
 5902TIP3    H217713   0.410   3.079   1.357
 5903TIP3   OH217714   3.368   1.611   3.971
 5903TIP3    H117715   3.314   1.533   3.988
 5903TIP3    H217716   3.453   1.576   3.944
 5904TIP3   OH217717   5.606   0.543   2.769
 5904TIP3    H117718   5.519   0.570   2.800
 5904TIP3    H217719   5.609   0.572   2.678
 5905TIP3   OH217720   3.848   1.327   4.683
 5905TIP3    H117721   3.813   1.394   4.743
 5905TIP3    H217722   3.801   1.342   4.601
 5906TIP3   OH217723   3.379   0.412   2.409
 5906TIP3    H117724   3.380   0.319   2.432
 5906TIP3    H217725   3.299   0.446   2.450
 5907TIP3   OH217726   5.063   5.897   2.180
 5907TIP3    H117727   5.151   5.871   2.152
 5907TIP3    H217728   5.017   5.917   2.099
 5908TIP3   OH217729   1.116   2.568   4.794
 5908TIP3    H117730   1.034   2.529   4.825
 5908TIP3    H217731   1.168   2.494   4.762
 5909TIP3   OH217732   1.804   4.240   2.942
 5909TIP3    H117733   1.825   4.181   2.870
 5909TIP3    H217734   1.838   4.197   3.020
 5910TIP3   OH217735   4.719   4.649   0.725
 5910TIP3    H117736   4.633   4.691   0.727
 5910TIP3    H217737   4.781   4.719   0.745
 5911TIP3   OH217738   2.490   0.609   3.917
 5911TIP3    H117739   2.396   0.626   3.905
 5911TIP3    H217740   2.495   0.567   4.003
 5912TIP3   OH217741   0.407   4.332   3.672
 5912TIP3    H117742   0.400   4.284   3.754
 5912TIP3    H217743   0.438   4.419   3.697
 5913TIP3   OH217744   0.788   2.521   4.180
 5913TIP3    H117745   0.873   2.560   4.200
 5913TIP3    H217746   0.751   2.497   4.265
 5914TIP3   OH217747   5.882   5.945   3.975
 5914TIP3    H117748   5.945   5.946   3.902
 5914TIP3    H217749   5.797   5.938   3.932
 5915TIP3   OH217750   4.665   1.364   2.938
 5915TIP3    H117751   4.613   1.424   2.992
 5915TIP3    H217752   4.654   1.396   2.849
 5916TIP3   OH217753   1.580   0.029   1.367
 5916TIP3    H117754   1.656  -0.010   1.409
 5916TIP3    H217755   1.558   0.103   1.424
 5917TIP3   OH217756   2.700   0.480   3.611
 5917TIP3    H117757   2.773   0.508   3.556
 5917TIP3    H217758   2.732   0.494   3.701
 5918TIP3   OH217759   2.771   1.868   2.686
 5918TIP3    H117760   2.834   1.940   2.694
 5918TIP3    H217761   2.704   1.888   2.751
 5919TIP3   OH217762   1.139   4.052   4.337
 5919TIP3    H117763   1.226   4.084   4.359
 5919TIP3    H217764   1.084   4.081   4.410
 5920TIP3   OH217765   3.804   1.734   3.926
 5920TIP3    H117766   3.760   1.746   4.010
 5920TIP3    H217767   3.735   1.705   3.867
 5921TIP3   OH217768   4.556   0.670   4.598
 5921TIP3    H117769   4.461   0.665   4.588
 5921TIP3    H217770   4.579   0.590   4.646
 5922TIP3   OH217771   4.699   3.246   3.854
 5922TIP3    H117772   4.779   3.197   3.877
 5922TIP3    H217773   4.721   3.337   3.872
 5923TIP3   OH217774   4.173   4.873   4.780
 5923TIP3    H117775   4.097   4.870   4.838
 5923TIP3    H217776   4.135   4.868   4.692
 5924TIP3   OH217777   2.437   4.939   2.618
 5924TIP3    H117778   2.375   5.008   2.640
 5924TIP3    H217779   2.520   4.984   2.606
 5925TIP3   OH217780   1.605   4.377   0.911
 5925TIP3    H117781   1.667   4.397   0.981
 5925TIP3    H217782   1.525   4.352   0.956
 5926TIP3   OH217783   5.369   0.699   0.814
 5926TIP3    H117784   5.405   0.642   0.882
 5926TIP3    H217785   5.350   0.640   0.741
 5927TIP3   OH217786   0.783   1.231   4.270
 5927TIP3    H117787   0.875   1.250   4.252
 5927TIP3    H217788   0.769   1.144   4.233
 5928TIP3   OH217789   6.289   3.825   3.705
 5928TIP3    H117790   6.252   3.913   3.707
 5928TIP3    H217791   6.229   3.772   3.758
 5929TIP3   OH217792   0.629   3.873   4.645
 5929TIP3    H117793   0.662   3.818   4.574
 5929TIP3    H217794   0.651   3.962   4.619
 5930TIP3   OH217795   0.233   4.507   1.816
 5930TIP3    H117796   0.328   4.522   1.817
 5930TIP3    H217797   0.196   4.584   1.860
 5931TIP3   OH217798   4.305   4.672   1.904
 5931TIP3    H117799   4.372   4.729   1.866
 5931TIP3    H217800   4.262   4.632   1.828
 5932TIP3   OH217801   5.685   4.334   4.205
 5932TIP3    H117802   5.742   4.345   4.130
 5932TIP3    H217803   5.607   4.290   4.170
 5933TIP3   OH217804   2.209   3.310   3.025
 5933TIP3    H117805   2.245   3.245   3.086
 5933TIP3    H217806   2.235   3.278   2.938
 5934TIP3   OH217807   1.781   5.913   2.870
 5934TIP3    H117808   1.827   5.996   2.861
 5934TIP3    H217809   1.834   5.850   2.822
 5935TIP3   OH217810   6.071   0.666   1.994
 5935TIP3    H117811   6.018   0.627   2.064
 5935TIP3    H217812   6.122   0.593   1.959
 5936TIP3   OH217813   4.984   3.996   3.673
 5936TIP3    H117814   4.899   4.039   3.672
 5936TIP3    H217815   5.027   4.027   3.593
 5937TIP3   OH217816   2.751   5.622   1.543
 5937TIP3    H117817   2.685   5.656   1.483
 5937TIP3    H217818   2.834   5.639   1.500
 5938TIP3   OH217819   4.812   0.136   3.860
 5938TIP3    H117820   4.752   0.184   3.803
 5938TIP3    H217821   4.755   0.092   3.922
 5939TIP3   OH217822   4.517   5.250   2.318
 5939TIP3    H117823   4.534   5.163   2.280
 5939TIP3    H217824   4.422   5.252   2.331
 5940TIP3   OH217825   3.052   1.650   4.967
 5940TIP3    H117826   3.101   1.590   4.912
 5940TIP3    H217827   2.961   1.643   4.937
 5941TIP3   OH217828   1.394   4.652   0.715
 5941TIP3    H117829   1.431   4.644   0.627
 5941TIP3    H217830   1.313   4.701   0.702
 5942TIP3   OH217831   3.449   0.966   3.695
 5942TIP3    H117832   3.504   1.030   3.649
 5942TIP3    H217833   3.482   0.881   3.666
 5943TIP3   OH217834   5.017   3.229   1.985
 5943TIP3    H117835   4.945   3.170   2.009
 5943TIP3    H217836   4.994   3.262   1.899
 5944TIP3   OH217837   5.426   1.300   0.221
 5944TIP3    H117838   5.449   1.242   0.295
 5944TIP3    H217839   5.390   1.241   0.155
 5945TIP3   OH217840   3.109   2.948   0.260
 5945TIP3    H117841   3.054   3.004   0.204
 5945TIP3    H217842   3.114   2.996   0.343
 5946TIP3   OH217843   2.628   2.809   4.492
 5946TIP3    H117844   2.635   2.896   4.531
 5946TIP3    H217845   2.583   2.756   4.559
 5947TIP3   OH217846   2.907   5.606   3.350
 5947TIP3    H117847   2.844   5.534   3.343
 5947TIP3    H217848   2.885   5.649   3.432
 5948TIP3   OH217849   3.915   4.030   2.237
 5948TIP3    H117850   3.903   4.109   2.185
 5948TIP3    H217851   3.898   4.058   2.327
 5949TIP3   OH217852   0.891   1.311   4.657
 5949TIP3    H117853   0.877   1.391   4.707
 5949TIP3    H217854   0.817   1.255   4.679
 5950TIP3   OH217855   1.393   0.736   0.601
 5950TIP3    H117856   1.358   0.681   0.671
 5950TIP3    H217857   1.353   0.821   0.615
 5951TIP3   OH217858   5.435   4.028   2.574
 5951TIP3    H117859   5.484   4.021   2.492
 5951TIP3    H217860   5.345   4.002   2.551
 5952TIP3   OH217861   1.303   4.371   2.161
 5952TIP3    H117862   1.260   4.390   2.244
 5952TIP3    H217863   1.334   4.281   2.169
 5953TIP3   OH217864   5.037   0.336   3.285
 5953TIP3    H117865   5.067   0.360   3.372
 5953TIP3    H217866   5.005   0.418   3.247
 5954TIP3   OH217867   0.411   2.815   4.325
 5954TIP3    H117868   0.437   2.903   4.350
 5954TIP3    H217869   0.378   2.776   4.406
 5955TIP3   OH217870   2.360   2.502   1.295
 5955TIP3    H117871   2.410   2.502   1.214
 5955TIP3    H217872   2.365   2.592   1.326
 5956TIP3   OH217873   2.754   0.196   3.543
 5956TIP3    H117874   2.719   0.255   3.610
 5956TIP3    H217875   2.719   0.110   3.565
 5957TIP3   OH217876   2.400   0.452   4.154
 5957TIP3    H117877   2.305   0.446   4.144
 5957TIP3    H217878   2.414   0.442   4.248
 5958TIP3   OH217879   0.112   4.845   4.360
 5958TIP3    H117880   0.187   4.801   4.321
 5958TIP3    H217881   0.094   4.919   4.303
 5959TIP3   OH217882   2.625   2.723   0.692
 5959TIP3    H117883   2.697   2.759   0.641
 5959TIP3    H217884   2.587   2.798   0.738
 5960TIP3   OH217885   4.242   3.661   2.101
 5960TIP3    H117886   4.169   3.690   2.156
 5960TIP3    H217887   4.214   3.576   2.066
 5961TIP3   OH217888   2.736   2.616   3.494
 5961TIP3    H117889   2.674   2.603   3.566
 5961TIP3    H217890   2.792   2.689   3.524
 5962TIP3   OH217891   0.884   4.517   2.790
 5962TIP3    H117892   0.798   4.558   2.782
 5962TIP3    H217893   0.866   4.426   2.814
 5963TIP3   OH217894   2.941   1.518   2.219
 5963TIP3    H117895   2.949   1.598   2.271
 5963TIP3    H217896   2.871   1.468   2.262
 5964TIP3   OH217897   4.381   2.189   1.787
 5964TIP3    H117898   4.374   2.161   1.696
 5964TIP3    H217899   4.474   2.208   1.799
 5965TIP3   OH217900   5.984   2.831   2.952
 5965TIP3    H117901   5.941   2.754   2.992
 5965TIP3    H217902   6.077   2.811   2.957
 5966TIP3   OH217903   2.613   2.944   3.447
 5966TIP3    H117904   2.706   2.923   3.440
 5966TIP3    H217905   2.609   3.039   3.433
 5967TIP3   OH217906   2.275   1.788   0.622
 5967TIP3    H117907   2.265   1.762   0.714
 5967TIP3    H217908   2.189   1.770   0.583
 5968TIP3   OH217909   4.487   1.151   4.151
 5968TIP3    H117910   4.569   1.193   4.127
 5968TIP3    H217911   4.435   1.152   4.071
 5969TIP3   OH217912   1.739   3.179   1.011
 5969TIP3    H117913   1.722   3.265   0.972
 5969TIP3    H217914   1.668   3.124   0.979
 5970TIP3   OH217915   5.903   0.700   1.149
 5970TIP3    H117916   5.882   0.636   1.081
 5970TIP3    H217917   5.825   0.756   1.153
 5971TIP3   OH217918   1.863   5.442   2.633
 5971TIP3    H117919   1.846   5.528   2.595
 5971TIP3    H217920   1.821   5.446   2.719
 5972TIP3   OH217921   4.334   0.665   0.278
 5972TIP3    H117922   4.247   0.636   0.252
 5972TIP3    H217923   4.385   0.584   0.285
 5973TIP3   OH217924   1.330   0.485   1.687
 5973TIP3    H117925   1.301   0.571   1.717
 5973TIP3    H217926   1.408   0.466   1.739
 5974TIP3   OH217927   2.839   0.845   1.433
 5974TIP3    H117928   2.824   0.760   1.475
 5974TIP3    H217929   2.908   0.886   1.485
 5975TIP3   OH217930   1.697   3.911   2.846
 5975TIP3    H117931   1.702   3.846   2.777
 5975TIP3    H217932   1.642   3.871   2.913
 5976TIP3   OH217933   4.913   1.072   1.726
 5976TIP3    H117934   4.976   1.144   1.718
 5976TIP3    H217935   4.846   1.106   1.785
 5977TIP3   OH217936   1.945   1.509   1.042
 5977TIP3    H117937   1.934   1.519   1.137
 5977TIP3    H217938   1.888   1.435   1.019
 5978TIP3   OH217939   0.048   5.720   4.074
 5978TIP3    H117940   0.078   5.630   4.085
 5978TIP3    H217941   0.129   5.771   4.069
 5979TIP3   OH217942   4.595   2.036   1.410
 5979TIP3    H117943   4.581   2.006   1.320
 5979TIP3    H217944   4.510   2.025   1.453
 5980TIP3   OH217945   0.046   3.877   4.572
 5980TIP3    H117946   0.055   3.867   4.477
 5980TIP3    H217947   0.074   3.793   4.607
 5981TIP3   OH217948   5.069   4.489   0.488
 5981TIP3    H117949   5.099   4.556   0.549
 5981TIP3    H217950   5.065   4.534   0.403
 5982TIP3   OH217951   0.169   5.455   3.609
 5982TIP3    H117952   0.180   5.483   3.518
 5982TIP3    H217953   0.101   5.513   3.644
 5983TIP3   OH217954   5.512   3.276   1.143
 5983TIP3    H117955   5.482   3.367   1.138
 5983TIP3    H217956   5.435   3.227   1.174
 5984TIP3   OH217957   5.581   3.348   1.614
 5984TIP3    H117958   5.519   3.415   1.585
 5984TIP3    H217959   5.623   3.386   1.691
 5985TIP3   OH217960   5.327   0.018   3.385
 5985TIP3    H117961   5.255   0.018   3.322
 5985TIP3    H217962   5.289  -0.016   3.466
 5986TIP3   OH217963   1.233   1.772   5.130
 5986TIP3    H117964   1.236   1.792   5.037
 5986TIP3    H217965   1.156   1.716   5.140
 5987TIP3   OH217966   0.800   0.335   4.350
 5987TIP3    H117967   0.848   0.411   4.384
 5987TIP3    H217968   0.710   0.347   4.383
 5988TIP3   OH217969   3.190   1.264   5.167
 5988TIP3    H117970   3.180   1.279   5.073
 5988TIP3    H217971   3.114   1.211   5.191
 5989TIP3   OH217972   3.939   2.123   0.232
 5989TIP3    H117973   3.874   2.077   0.286
 5989TIP3    H217974   3.985   2.180   0.294
 5990TIP3   OH217975   2.608   0.463   2.755
 5990TIP3    H117976   2.546   0.466   2.682
 5990TIP3    H217977   2.574   0.396   2.813
 5991TIP3   OH217978   5.143   3.430   2.541
 5991TIP3    H117979   5.050   3.411   2.555
 5991TIP3    H217980   5.152   3.431   2.446
 5992TIP3   OH217981   5.262   1.283   3.998
 5992TIP3    H117982   5.335   1.334   3.964
 5992TIP3    H217983   5.277   1.280   4.093
 5993TIP3   OH217984   1.041   4.662   4.587
 5993TIP3    H117985   1.037   4.582   4.535
 5993TIP3    H217986   0.963   4.712   4.562
 5994TIP3   OH217987   0.768   3.766   2.124
 5994TIP3    H117988   0.738   3.832   2.186
 5994TIP3    H217989   0.860   3.787   2.109
 5995TIP3   OH217990   4.105   4.046   2.037
 5995TIP3    H117991   4.118   3.966   1.985
 5995TIP3    H217992   4.050   4.017   2.110
 5996TIP3   OH217993   2.154   6.001   1.145
 5996TIP3    H117994   2.146   6.095   1.161
 5996TIP3    H217995   2.246   5.988   1.124
 5997TIP3   OH217996   4.538   4.359   4.045
 5997TIP3    H117997   4.564   4.303   3.972
 5997TIP3    H217998   4.549   4.448   4.011
 5998TIP3   OH217999   3.276   2.891   0.750
 5998TIP3    H118000   3.283   2.857   0.661
 5998TIP3    H218001   3.365   2.885   0.786
 5999TIP3   OH218002   5.192   2.863   2.677
 5999TIP3    H118003   5.154   2.796   2.735
 5999TIP3    H218004   5.282   2.834   2.662
 6000TIP3   OH218005   5.708   3.961   0.012
 6000TIP3    H118006   5.794   3.940   0.047
 6000TIP3    H218007   5.708   4.056   0.003
 6001TIP3   OH218008   3.408   2.347   0.606
 6001TIP3    H118009   3.358   2.309   0.533
 6001TIP3    H218010   3.347   2.409   0.646
 6002TIP3   OH218011   0.114   2.279   2.711
 6002TIP3    H118012   0.156   2.249   2.791
 6002TIP3    H218013   0.028   2.237   2.712
 6003TIP3   OH218014   4.361   0.756   4.864
 6003TIP3    H118015   4.342   0.850   4.866
 6003TIP3    H218016   4.351   0.732   4.772
 6004TIP3   OH218017   1.206   3.618  -0.029
 6004TIP3    H118018   1.248   3.651   0.050
 6004TIP3    H218019   1.244   3.531  -0.042
 6005TIP3   OH218020   5.616   3.003   4.927
 6005TIP3    H118021   5.523   3.005   4.949
 6005TIP3    H218022   5.630   2.918   4.886
 6006TIP3   OH218023   1.301   0.079   1.212
 6006TIP3    H118024   1.310   0.013   1.280
 6006TIP3    H218025   1.390   0.108   1.194
 6007TIP3   OH218026   1.410   4.751   2.174
 6007TIP3    H118027   1.380   4.706   2.253
 6007TIP3    H218028   1.472   4.816   2.206
 6008TIP3   OH218029   5.021   2.435   3.109
 6008TIP3    H118030   5.001   2.517   3.154
 6008TIP3    H218031   5.111   2.415   3.135
 6009TIP3   OH218032   3.042   1.139   2.263
 6009TIP3    H118033   2.952   1.128   2.294
 6009TIP3    H218034   3.083   1.053   2.275
 6010TIP3   OH218035   0.926   4.363   1.995
 6010TIP3    H118036   0.916   4.269   2.012
 6010TIP3    H218037   0.931   4.403   2.082
 6011TIP3   OH218038   5.382   0.336   4.133
 6011TIP3    H118039   5.308   0.374   4.180
 6011TIP3    H218040   5.366   0.242   4.136
 6012TIP3   OH218041   6.129   4.462   1.985
 6012TIP3    H118042   6.118   4.411   2.066
 6012TIP3    H218043   6.041   4.483   1.957
 6013TIP3   OH218044   2.101   2.552   3.789
 6013TIP3    H118045   2.126   2.474   3.740
 6013TIP3    H218046   2.006   2.554   3.784
 6014TIP3   OH218047   0.241   1.433   3.228
 6014TIP3    H118048   0.273   1.346   3.207
 6014TIP3    H218049   0.171   1.449   3.165
 6015TIP3   OH218050   1.231   3.179   2.075
 6015TIP3    H118051   1.286   3.133   2.139
 6015TIP3    H218052   1.232   3.270   2.104
 6016TIP3   OH218053   5.238   2.626   3.362
 6016TIP3    H118054   5.220   2.702   3.417
 6016TIP3    H218055   5.261   2.663   3.277
 6017TIP3   OH218056   5.572   4.818   3.490
 6017TIP3    H118057   5.610   4.740   3.532
 6017TIP3    H218058   5.579   4.800   3.396
 6018TIP3   OH218059   0.850   3.399   0.017
 6018TIP3    H118060   0.938   3.375   0.047
 6018TIP3    H218061   0.838   3.489   0.046
 6019TIP3   OH218062   4.426   1.477   3.615
 6019TIP3    H118063   4.486   1.503   3.685
 6019TIP3    H218064   4.353   1.436   3.660
 6020TIP3   OH218065   5.066   4.138   2.739
 6020TIP3    H118066   5.098   4.081   2.669
 6020TIP3    H218067   5.143   4.190   2.764
 6021TIP3   OH218068   0.619   4.025   1.687
 6021TIP3    H118069   0.618   3.969   1.609
 6021TIP3    H218070   0.529   4.025   1.718
 6022TIP3   OH218071   1.481   4.164   2.389
 6022TIP3    H118072   1.394   4.198   2.410
 6022TIP3    H218073   1.525   4.238   2.346
 6023TIP3   OH218074   1.509   2.877   0.313
 6023TIP3    H118075   1.512   2.926   0.231
 6023TIP3    H218076   1.419   2.885   0.343
 6024TIP3   OH218077   5.611   2.552   4.317
 6024TIP3    H118078   5.698   2.550   4.277
 6024TIP3    H218079   5.588   2.645   4.320
 6025TIP3   OH218080   2.478   3.277   4.743
 6025TIP3    H118081   2.450   3.368   4.731
 6025TIP3    H218082   2.573   3.279   4.733
 6026TIP3   OH218083   4.573   0.680   3.918
 6026TIP3    H118084   4.608   0.768   3.933
 6026TIP3    H218085   4.622   0.647   3.842
 6027TIP3   OH218086   1.800   2.839   2.870
 6027TIP3    H118087   1.856   2.762   2.878
 6027TIP3    H218088   1.817   2.889   2.950
 6028TIP3   OH218089   2.454   2.139   1.951
 6028TIP3    H118090   2.422   2.217   1.996
 6028TIP3    H218091   2.412   2.142   1.865
 6029TIP3   OH218092   4.899   2.235   3.965
 6029TIP3    H118093   4.975   2.182   3.942
 6029TIP3    H218094   4.929   2.325   3.954
 6030TIP3   OH218095   3.559   3.092   0.475
 6030TIP3    H118096   3.478   3.143   0.467
 6030TIP3    H218097   3.629   3.157   0.480
 6031TIP3   OH218098   5.399   4.327   1.864
 6031TIP3    H118099   5.478   4.292   1.822
 6031TIP3    H218100   5.428   4.408   1.906
 6032TIP3   OH218101   6.357   5.567   3.801
 6032TIP3    H118102   6.430   5.618   3.766
 6032TIP3    H218103   6.344   5.600   3.890
 6033TIP3   OH218104   6.033   4.686   2.513
 6033TIP3    H118105   6.013   4.620   2.446
 6033TIP3    H218106   5.971   4.756   2.495
 6034TIP3   OH218107   5.924   4.989   2.940
 6034TIP3    H118108   5.993   4.971   3.004
 6034TIP3    H218109   5.948   5.074   2.903
 6035TIP3   OH218110   1.887   0.961   1.193
 6035TIP3    H118111   1.812   0.959   1.133
 6035TIP3    H218112   1.960   0.926   1.141
 6036TIP3   OH218113   0.569   0.825   4.698
 6036TIP3    H118114   0.600   0.748   4.745
 6036TIP3    H218115   0.487   0.848   4.741
 6037TIP3   OH218116   0.200   5.839   1.719
 6037TIP3    H118117   0.168   5.853   1.630
 6037TIP3    H218118   0.292   5.814   1.708
 6038TIP3   OH218119   3.864   1.079   0.113
 6038TIP3    H118120   3.919   1.006   0.139
 6038TIP3    H218121   3.844   1.062   0.020
 6039TIP3   OH218122   2.109   5.919   2.523
 6039TIP3    H118123   2.181   5.899   2.582
 6039TIP3    H218124   2.099   6.015   2.528
 6040TIP3   OH218125   4.155   5.332   3.791
 6040TIP3    H118126   4.083   5.374   3.838
 6040TIP3    H218127   4.133   5.239   3.791
 6041TIP3   OH218128   2.155   4.409   5.076
 6041TIP3    H118129   2.078   4.383   5.025
 6041TIP3    H218130   2.213   4.333   5.073
 6042TIP3   OH218131   3.804   5.150   0.805
 6042TIP3    H118132   3.713   5.140   0.777
 6042TIP3    H218133   3.830   5.062   0.832
 6043TIP3   OH218134   3.900   2.074   1.917
 6043TIP3    H118135   3.905   2.013   1.990
 6043TIP3    H218136   3.985   2.067   1.873
 6044TIP3   OH218137   1.185   1.210   2.398
 6044TIP3    H118138   1.237   1.171   2.328
 6044TIP3    H218139   1.107   1.245   2.354
 6045TIP3   OH218140   2.647   0.411   4.531
 6045TIP3    H118141   2.721   0.471   4.522
 6045TIP3    H218142   2.678   0.344   4.592
 6046TIP3   OH218143   6.198   4.180   5.135
 6046TIP3    H118144   6.136   4.234   5.087
 6046TIP3    H218145   6.148   4.103   5.162
 6047TIP3   OH218146   2.479   2.072   4.647
 6047TIP3    H118147   2.545   2.044   4.584
 6047TIP3    H218148   2.452   2.159   4.618
 6048TIP3   OH218149   6.278   1.160   2.252
 6048TIP3    H118150   6.333   1.120   2.185
 6048TIP3    H218151   6.190   1.129   2.232
 6049TIP3   OH218152   0.185   3.457   2.569
 6049TIP3    H118153   0.260   3.416   2.612
 6049TIP3    H218154   0.110   3.404   2.595
 6050TIP3   OH218155   4.400   4.418   4.332
 6050TIP3    H118156   4.423   4.354   4.399
 6050TIP3    H218157   4.444   4.386   4.253
 6051TIP3   OH218158   1.918   1.189   3.547
 6051TIP3    H118159   1.834   1.176   3.503
 6051TIP3    H218160   1.933   1.284   3.542
 6052TIP3   OH218161   3.267   0.863   2.933
 6052TIP3    H118162   3.209   0.816   2.992
 6052TIP3    H218163   3.224   0.857   2.847
 6053TIP3   OH218164   1.054   3.849   1.975
 6053TIP3    H118165   1.147   3.827   1.972
 6053TIP3    H218166   1.019   3.819   1.891
 6054TIP3   OH218167   6.354   2.000   3.619
 6054TIP3    H118168   6.260   1.995   3.636
 6054TIP3    H218169   6.393   1.939   3.682
 6055TIP3   OH218170   5.618   5.080   3.546
 6055TIP3    H118171   5.614   4.984   3.543
 6055TIP3    H218172   5.689   5.099   3.608
 6056TIP3   OH218173   0.834   2.395   1.847
 6056TIP3    H118174   0.899   2.440   1.793
 6056TIP3    H218175   0.853   2.302   1.835
 6057TIP3   OH218176   4.148   4.099   2.679
 6057TIP3    H118177   4.230   4.100   2.727
 6057TIP3    H218178   4.174   4.104   2.587
 6058TIP3   OH218179   5.260   2.356   0.550
 6058TIP3    H118180   5.338   2.371   0.603
 6058TIP3    H218181   5.282   2.282   0.494
 6059TIP3   OH218182   0.913   2.103   4.142
 6059TIP3    H118183   0.894   2.141   4.057
 6059TIP3    H218184   0.978   2.161   4.181
 6060TIP3   OH218185   5.176   3.749   0.686
 6060TIP3    H118186   5.121   3.671   0.676
 6060TIP3    H218187   5.219   3.759   0.601
 6061TIP3   OH218188   5.589   0.463   0.608
 6061TIP3    H118189   5.503   0.467   0.567
 6061TIP3    H218190   5.638   0.535   0.568
 6062TIP3   OH218191   1.138   5.070   1.943
 6062TIP3    H118192   1.057   5.059   1.994
 6062TIP3    H218193   1.192   4.996   1.967
 6063TIP3   OH218194   6.319   1.139   0.458
 6063TIP3    H118195   6.408   1.154   0.427
 6063TIP3    H218196   6.292   1.224   0.495
 6064TIP3   OH218197   2.688   0.339   5.084
 6064TIP3    H118198   2.701   0.301   5.171
 6064TIP3    H218199   2.597   0.319   5.063
 6065TIP3   OH218200   4.885   3.134   4.826
 6065TIP3    H118201   4.834   3.213   4.846
 6065TIP3    H218202   4.926   3.111   4.909
 6066TIP3   OH218203   1.337   0.614   2.041
 6066TIP3    H118204   1.278   0.566   2.099
 6066TIP3    H218205   1.281   0.642   1.968
 6067TIP3   OH218206   3.638   2.858   2.357
 6067TIP3    H118207   3.600   2.793   2.298
 6067TIP3    H218208   3.707   2.810   2.403
 6068TIP3   OH218209   5.742   0.126   2.822
 6068TIP3    H118210   5.779   0.211   2.797
 6068TIP3    H218211   5.745   0.126   2.918
 6069TIP3   OH218212   2.493   4.735   0.524
 6069TIP3    H118213   2.398   4.746   0.538
 6069TIP3    H218214   2.532   4.812   0.566
 6070TIP3   OH218215   4.067   5.304   0.856
 6070TIP3    H118216   4.111   5.241   0.799
 6070TIP3    H218217   3.975   5.278   0.852
 6071TIP3   OH218218   1.428   1.351   1.687
 6071TIP3    H118219   1.380   1.433   1.675
 6071TIP3    H218220   1.401   1.296   1.614
 6072TIP3   OH218221   2.922   3.728   0.389
 6072TIP3    H118222   3.009   3.715   0.426
 6072TIP3    H218223   2.920   3.820   0.363
 6073TIP3   OH218224   2.772   5.424   3.608
 6073TIP3    H118225   2.773   5.426   3.513
 6073TIP3    H218226   2.856   5.383   3.632
 6074TIP3   OH218227   1.014   5.013   4.146
 6074TIP3    H118228   1.070   5.054   4.080
 6074TIP3    H218229   0.938   4.981   4.097
 6075TIP3   OH218230   3.189   2.685   3.290
 6075TIP3    H118231   3.138   2.765   3.276
 6075TIP3    H218232   3.129   2.626   3.335
 6076TIP3   OH218233   4.560   3.280   1.636
 6076TIP3    H118234   4.631   3.218   1.651
 6076TIP3    H218235   4.603   3.358   1.602
 6077TIP3   OH218236   1.331   0.900   4.872
 6077TIP3    H118237   1.356   0.978   4.822
 6077TIP3    H218238   1.414   0.853   4.885
 6078TIP3   OH218239   0.705   4.258   1.820
 6078TIP3    H118240   0.677   4.170   1.798
 6078TIP3    H218241   0.783   4.247   1.875
 6079TIP3   OH218242   2.991   5.137   2.967
 6079TIP3    H118243   2.943   5.217   2.947
 6079TIP3    H218244   2.994   5.134   3.063
 6080TIP3   OH218245   5.796   0.281   5.069
 6080TIP3    H118246   5.780   0.197   5.025
 6080TIP3    H218247   5.822   0.256   5.158
 6081TIP3   OH218248   2.562   4.219   3.594
 6081TIP3    H118249   2.546   4.274   3.518
 6081TIP3    H218250   2.568   4.280   3.667
 6082TIP3   OH218251   2.216   0.624   0.032
 6082TIP3    H118252   2.154   0.554   0.014
 6082TIP3    H218253   2.302   0.583   0.023
 6083TIP3   OH218254   2.454   0.032   2.615
 6083TIP3    H118255   2.376   0.086   2.623
 6083TIP3    H218256   2.488   0.024   2.704
 6084TIP3   OH218257   1.211   3.932   4.066
 6084TIP3    H118258   1.138   3.903   4.010
 6084TIP3    H218259   1.168   3.960   4.148
 6085TIP3   OH218260   5.775   2.273   0.847
 6085TIP3    H118261   5.698   2.259   0.791
 6085TIP3    H218262   5.742   2.327   0.919
 6086TIP3   OH218263   5.139   4.693   4.662
 6086TIP3    H118264   5.206   4.626   4.657
 6086TIP3    H218265   5.182   4.768   4.702
 6087TIP3   OH218266   2.192   4.135   3.947
 6087TIP3    H118267   2.255   4.188   3.899
 6087TIP3    H218268   2.205   4.046   3.914
 6088TIP3   OH218269   5.368   3.173   1.640
 6088TIP3    H118270   5.298   3.236   1.622
 6088TIP3    H218271   5.448   3.226   1.644
 6089TIP3   OH218272   5.394   4.980   3.763
 6089TIP3    H118273   5.387   5.075   3.762
 6089TIP3    H218274   5.329   4.950   3.699
 6090TIP3   OH218275   2.973   5.243   4.624
 6090TIP3    H118276   3.053   5.196   4.600
 6090TIP3    H218277   2.922   5.179   4.675
 6091TIP3   OH218278   1.771   2.865   1.591
 6091TIP3    H118279   1.855   2.834   1.627
 6091TIP3    H218280   1.712   2.791   1.602
 6092TIP3   OH218281   3.064   3.910   0.723
 6092TIP3    H118282   2.999   3.861   0.773
 6092TIP3    H218283   3.034   4.000   0.727
 6093TIP3   OH218284   0.026   5.372   0.552
 6093TIP3    H118285  -0.067   5.356   0.570
 6093TIP3    H218286   0.027   5.431   0.477
 6094TIP3   OH218287   4.264   1.857   4.373
 6094TIP3    H118288   4.306   1.924   4.427
 6094TIP3    H218289   4.203   1.905   4.318
 6095TIP3   OH218290   4.947   5.029   4.840
 6095TIP3    H118291   4.969   4.954   4.896
 6095TIP3    H218292   4.854   5.018   4.820
 6096TIP3   OH218293   2.393   0.351   4.417
 6096TIP3    H118294   2.343   0.358   4.499
 6096TIP3    H218295   2.484   0.368   4.443
 6097TIP3   OH218296   2.853   5.693   4.804
 6097TIP3    H118297   2.865   5.600   4.824
 6097TIP3    H218298   2.760   5.701   4.783
 6098TIP3   OH218299   2.483   4.126   0.953
 6098TIP3    H118300   2.448   4.068   1.022
 6098TIP3    H218301   2.529   4.194   1.001
 6099TIP3   OH218302   5.370   2.731   2.434
 6099TIP3    H118303   5.370   2.689   2.520
 6099TIP3    H218304   5.278   2.731   2.408
 6100TIP3   OH218305   4.347   1.158   3.262
 6100TIP3    H118306   4.342   1.187   3.171
 6100TIP3    H218307   4.376   1.236   3.310
 6101TIP3   OH218308   4.520   1.313   4.793
 6101TIP3    H118309   4.518   1.268   4.708
 6101TIP3    H218310   4.510   1.243   4.857
 6102TIP3   OH218311   1.684   5.333   1.499
 6102TIP3    H118312   1.745   5.305   1.430
 6102TIP3    H218313   1.597   5.322   1.459
 6103TIP3   OH218314   0.956   2.316   3.971
 6103TIP3    H118315   0.996   2.350   4.051
 6103TIP3    H218316   0.918   2.394   3.929
 6104TIP3   OH218317   5.958   3.887   3.055
 6104TIP3    H118318   5.924   3.884   2.966
 6104TIP3    H218319   6.040   3.935   3.049
 6105TIP3   OH218320   2.459   3.455   3.402
 6105TIP3    H118321   2.405   3.440   3.324
 6105TIP3    H218322   2.489   3.545   3.394
 6106TIP3   OH218323   5.111   4.475   0.939
 6106TIP3    H118324   5.100   4.464   1.034
 6106TIP3    H218325   5.166   4.552   0.930
 6107TIP3   OH218326   0.176   0.447   2.902
 6107TIP3    H118327   0.176   0.438   2.997
 6107TIP3    H218328   0.263   0.482   2.881
 6108TIP3   OH218329   5.194   5.799   0.694
 6108TIP3    H118330   5.105   5.826   0.672
 6108TIP3    H218331   5.182   5.729   0.759
 6109TIP3   OH218332   2.251   0.836   1.345
 6109TIP3    H118333   2.308   0.900   1.303
 6109TIP3    H218334   2.298   0.810   1.424
 6110TIP3   OH218335   0.673   5.592   1.756
 6110TIP3    H118336   0.632   5.648   1.690
 6110TIP3    H218337   0.685   5.648   1.832
 6111TIP3   OH218338   3.670   1.170   3.703
 6111TIP3    H118339   3.702   1.194   3.616
 6111TIP3    H218340   3.748   1.177   3.760
 6112TIP3   OH218341   4.662   0.672   0.825
 6112TIP3    H118342   4.639   0.752   0.873
 6112TIP3    H218343   4.699   0.614   0.891
 6113TIP3   OH218344   3.204   3.589   1.550
 6113TIP3    H118345   3.238   3.546   1.471
 6113TIP3    H218346   3.167   3.517   1.602
 6114TIP3   OH218347   5.301   5.953   2.664
 6114TIP3    H118348   5.205   5.956   2.660
 6114TIP3    H218349   5.325   6.028   2.717
 6115TIP3   OH218350   3.359   1.340   2.009
 6115TIP3    H118351   3.341   1.246   2.018
 6115TIP3    H218352   3.336   1.361   1.919
 6116TIP3   OH218353   4.517   2.585   2.499
 6116TIP3    H118354   4.584   2.538   2.451
 6116TIP3    H218355   4.472   2.518   2.551
 6117TIP3   OH218356   1.920   1.290   2.603
 6117TIP3    H118357   1.909   1.358   2.537
 6117TIP3    H218358   1.886   1.329   2.684
 6118TIP3   OH218359   3.392   1.232   2.358
 6118TIP3    H118360   3.322   1.287   2.322
 6118TIP3    H218361   3.472   1.282   2.342
 6119TIP3   OH218362   2.386   4.237   4.935
 6119TIP3    H118363   2.406   4.192   4.853
 6119TIP3    H218364   2.366   4.167   4.997
 6120TIP3   OH218365   2.686   2.057   3.644
 6120TIP3    H118366   2.686   1.972   3.688
 6120TIP3    H218367   2.671   2.121   3.714
 6121TIP3   OH218368   1.014   1.548   2.235
 6121TIP3    H118369   1.107   1.556   2.215
 6121TIP3    H218370   0.996   1.455   2.227
 6122TIP3   OH218371   4.986   3.868   0.178
 6122TIP3    H118372   4.895   3.895   0.189
 6122TIP3    H218373   4.984   3.773   0.193
 6123TIP3   OH218374   1.057   1.366   0.139
 6123TIP3    H118375   1.111   1.345   0.063
 6123TIP3    H218376   1.114   1.349   0.214
 6124TIP3   OH218377   5.105   3.355   3.171
 6124TIP3    H118378   5.077   3.375   3.082
 6124TIP3    H218379   5.032   3.384   3.226
 6125TIP3   OH218380   3.039   1.984   2.696
 6125TIP3    H118381   3.092   1.987   2.617
 6125TIP3    H218382   3.093   2.024   2.764
 6126TIP3   OH218383   2.154   5.513   3.433
 6126TIP3    H118384   2.088   5.534   3.367
 6126TIP3    H218385   2.105   5.504   3.514
 6127TIP3   OH218386   1.465   5.338   3.530
 6127TIP3    H118387   1.542   5.338   3.587
 6127TIP3    H218388   1.499   5.359   3.443
 6128TIP3   OH218389   2.469   4.304   2.922
 6128TIP3    H118390   2.473   4.380   2.864
 6128TIP3    H218391   2.556   4.301   2.962
 6129TIP3   OH218392   2.418   4.517   1.610
 6129TIP3    H118393   2.356   4.588   1.596
 6129TIP3    H218394   2.456   4.500   1.524
 6130TIP3   OH218395   3.537   2.443   4.682
 6130TIP3    H118396   3.548   2.525   4.730
 6130TIP3    H218397   3.557   2.375   4.746
 6131TIP3   OH218398   4.710   2.241   4.177
 6131TIP3    H118399   4.778   2.212   4.116
 6131TIP3    H218400   4.714   2.336   4.173
 6132TIP3   OH218401   3.340   1.195   1.753
 6132TIP3    H118402   3.361   1.112   1.712
 6132TIP3    H218403   3.423   1.227   1.789
 6133TIP3   OH218404   2.835   3.426   2.557
 6133TIP3    H118405   2.741   3.437   2.544
 6133TIP3    H218406   2.862   3.369   2.484
 6134TIP3   OH218407   3.458   5.799   4.209
 6134TIP3    H118408   3.449   5.723   4.153
 6134TIP3    H218409   3.376   5.802   4.259
 6135TIP3   OH218410   3.984   2.712   2.145
 6135TIP3    H118411   3.932   2.635   2.168
 6135TIP3    H218412   4.012   2.748   2.230
 6136TIP3   OH218413   4.642   4.812   2.442
 6136TIP3    H118414   4.688   4.730   2.460
 6136TIP3    H218415   4.598   4.833   2.524
 6137TIP3   OH218416   5.318   1.551   0.202
 6137TIP3    H118417   5.344   1.459   0.213
 6137TIP3    H218418   5.343   1.592   0.285
 6138TIP3   OH218419   4.576   4.505   3.054
 6138TIP3    H118420   4.496   4.496   3.002
 6138TIP3    H218421   4.553   4.472   3.140
 6139TIP3   OH218422   0.238   1.753   0.729
 6139TIP3    H118423   0.328   1.728   0.710
 6139TIP3    H218424   0.192   1.744   0.645
 6140TIP3   OH218425   0.788   1.092   3.516
 6140TIP3    H118426   0.736   1.117   3.592
 6140TIP3    H218427   0.793   0.997   3.519
 6141TIP3   OH218428   5.060   5.958   4.092
 6141TIP3    H118429   5.076   5.976   4.185
 6141TIP3    H218430   5.086   6.039   4.047
 6142TIP3   OH218431   4.365   4.663   1.051
 6142TIP3    H118432   4.443   4.631   1.005
 6142TIP3    H218433   4.299   4.596   1.036
 6143TIP3   OH218434   1.779   1.195   4.222
 6143TIP3    H118435   1.790   1.142   4.302
 6143TIP3    H218436   1.867   1.227   4.202
 6144TIP3   OH218437   4.270   5.739   0.705
 6144TIP3    H118438   4.308   5.670   0.760
 6144TIP3    H218439   4.252   5.811   0.765
 6145TIP3   OH218440   1.806   2.624   4.235
 6145TIP3    H118441   1.885   2.652   4.281
 6145TIP3    H218442   1.749   2.589   4.303
 6146TIP3   OH218443   6.042   5.872   1.415
 6146TIP3    H118444   6.063   5.869   1.321
 6146TIP3    H218445   6.009   5.785   1.436
 6147TIP3   OH218446   1.453   0.934   0.221
 6147TIP3    H118447   1.479   0.955   0.310
 6147TIP3    H218448   1.530   0.955   0.168
 6148TIP3   OH218449   3.300   5.942   0.818
 6148TIP3    H118450   3.349   6.010   0.772
 6148TIP3    H218451   3.320   5.956   0.910
 6149TIP3   OH218452   0.652   3.098   4.930
 6149TIP3    H118453   0.621   3.175   4.976
 6149TIP3    H218454   0.708   3.132   4.860
 6150TIP3   OH218455   4.961   1.454   0.807
 6150TIP3    H118456   5.002   1.541   0.809
 6150TIP3    H218457   4.888   1.464   0.746
 6151TIP3   OH218458   5.429   4.075   4.723
 6151TIP3    H118459   5.354   4.017   4.739
 6151TIP3    H218460   5.465   4.045   4.640
 6152TIP3   OH218461   4.620   2.438   2.019
 6152TIP3    H118462   4.535   2.461   2.058
 6152TIP3    H218463   4.628   2.344   2.035
 6153TIP3   OH218464   0.026   4.696   0.477
 6153TIP3    H118465   0.008   4.774   0.530
 6153TIP3    H218466   0.009   4.622   0.535
 6154TIP3   OH218467   2.824   2.171   1.154
 6154TIP3    H118468   2.875   2.126   1.087
 6154TIP3    H218469   2.868   2.149   1.236
 6155TIP3   OH218470   0.826   5.284   1.699
 6155TIP3    H118471   0.789   5.273   1.786
 6155TIP3    H218472   0.863   5.198   1.677
 6156TIP3   OH218473   0.041   3.428   1.397
 6156TIP3    H118474   0.123   3.383   1.417
 6156TIP3    H218475  -0.025   3.359   1.396
 6157TIP3   OH218476   0.424   2.549   4.519
 6157TIP3    H118477   0.409   2.560   4.613
 6157TIP3    H218478   0.515   2.521   4.512
 6158TIP3   OH218479   5.920   4.152   1.505
 6158TIP3    H118480   5.952   4.193   1.586
 6158TIP3    H218481   5.999   4.137   1.453
 6159TIP3   OH218482   1.543   5.634   4.267
 6159TIP3    H118483   1.567   5.697   4.199
 6159TIP3    H218484   1.457   5.662   4.296
 6160TIP3   OH218485   1.159   0.142   0.791
 6160TIP3    H118486   1.124   0.231   0.800
 6160TIP3    H218487   1.209   0.144   0.710
 6161TIP3   OH218488   5.090   0.830   2.787
 6161TIP3    H118489   5.100   0.789   2.872
 6161TIP3    H218490   5.035   0.769   2.737
 6162TIP3   OH218491   5.441   1.961   3.948
 6162TIP3    H118492   5.450   2.042   3.899
 6162TIP3    H218493   5.530   1.926   3.954
 6163TIP3   OH218494   6.051   4.893   4.889
 6163TIP3    H118495   6.124   4.901   4.951
 6163TIP3    H218496   5.973   4.907   4.942
 6164TIP3   OH218497   6.296   5.925   3.406
 6164TIP3    H118498   6.340   5.946   3.324
 6164TIP3    H218499   6.210   5.891   3.380
 6165TIP3   OH218500   0.424   3.674   1.755
 6165TIP3    H118501   0.337   3.652   1.786
 6165TIP3    H218502   0.467   3.717   1.830
 6166TIP3   OH218503   1.138   5.300   1.430
 6166TIP3    H118504   1.113   5.369   1.491
 6166TIP3    H218505   1.128   5.219   1.481
 6167TIP3   OH218506   0.188   0.273   0.473
 6167TIP3    H118507   0.141   0.260   0.391
 6167TIP3    H218508   0.178   0.367   0.492
 6168TIP3   OH218509   1.107   5.159   3.890
 6168TIP3    H118510   1.202   5.168   3.896
 6168TIP3    H218511   1.080   5.230   3.831
 6169TIP3   OH218512   3.303   4.502   1.333
 6169TIP3    H118513   3.216   4.540   1.328
 6169TIP3    H218514   3.360   4.568   1.292
 6170TIP3   OH218515   1.422   0.166   4.554
 6170TIP3    H118516   1.371   0.105   4.502
 6170TIP3    H218517   1.499   0.117   4.582
 6171TIP3   OH218518   2.413   3.984   1.181
 6171TIP3    H118519   2.347   3.915   1.186
 6171TIP3    H218520   2.494   3.941   1.207
 6172TIP3   OH218521   3.232   2.078   3.673
 6172TIP3    H118522   3.285   2.032   3.608
 6172TIP3    H218523   3.238   2.170   3.649
 6173TIP3   OH218524   1.115   2.613   2.054
 6173TIP3    H118525   1.193   2.604   1.998
 6173TIP3    H218526   1.042   2.592   1.996
 6174TIP3   OH218527   1.502   4.654   1.329
 6174TIP3    H118528   1.519   4.653   1.424
 6174TIP3    H218529   1.409   4.632   1.322
 6175TIP3   OH218530   1.668   4.750   1.535
 6175TIP3    H118531   1.732   4.682   1.517
 6175TIP3    H218532   1.623   4.722   1.614
 6176TIP3   OH218533   4.985   2.496   4.018
 6176TIP3    H118534   4.905   2.504   4.069
 6176TIP3    H218535   4.971   2.553   3.942
 6177TIP3   OH218536   4.779   4.431   2.904
 6177TIP3    H118537   4.805   4.349   2.946
 6177TIP3    H218538   4.710   4.466   2.961
 6178TIP3   OH218539   5.254   0.958   3.163
 6178TIP3    H118540   5.274   1.032   3.220
 6178TIP3    H218541   5.166   0.976   3.129
 6179TIP3   OH218542   3.960   2.963   4.064
 6179TIP3    H118543   3.941   3.050   4.028
 6179TIP3    H218544   3.888   2.908   4.034
 6180TIP3   OH218545   5.055   1.081   4.889
 6180TIP3    H118546   5.056   1.127   4.973
 6180TIP3    H218547   4.993   1.010   4.901
 6181TIP3   OH218548   6.217   0.538   5.164
 6181TIP3    H118549   6.273   0.473   5.122
 6181TIP3    H218550   6.277   0.596   5.211
 6182TIP3   OH218551   4.324   3.022   0.555
 6182TIP3    H118552   4.282   2.938   0.541
 6182TIP3    H218553   4.294   3.051   0.641
 6183TIP3   OH218554   1.108   0.057   3.888
 6183TIP3    H118555   1.031   0.089   3.935
 6183TIP3    H218556   1.093   0.084   3.797
 6184TIP3   OH218557   0.692   3.818   3.788
 6184TIP3    H118558   0.642   3.786   3.863
 6184TIP3    H218559   0.664   3.909   3.776
 6185TIP3   OH218560   2.341   2.390   3.504
 6185TIP3    H118561   2.324   2.436   3.422
 6185TIP3    H218562   2.344   2.459   3.570
 6186TIP3   OH218563   0.555   0.545   1.708
 6186TIP3    H118564   0.528   0.475   1.649
 6186TIP3    H218565   0.633   0.582   1.668
 6187TIP3   OH218566   2.905   3.073   2.603
 6187TIP3    H118567   2.911   2.982   2.632
 6187TIP3    H218568   2.894   3.068   2.508
 6188TIP3   OH218569   1.185   0.182   0.204
 6188TIP3    H118570   1.179   0.162   0.110
 6188TIP3    H218571   1.183   0.096   0.246
 6189TIP3   OH218572   2.028   2.725   4.348
 6189TIP3    H118573   2.088   2.785   4.392
 6189TIP3    H218574   2.060   2.722   4.257
 6190TIP3   OH218575   0.144   1.752   2.015
 6190TIP3    H118576   0.182   1.690   1.953
 6190TIP3    H218577   0.218   1.786   2.065
 6191TIP3   OH218578   0.769   1.963   0.150
 6191TIP3    H118579   0.795   2.046   0.190
 6191TIP3    H218580   0.678   1.951   0.177
 6192TIP3   OH218581   1.330   2.074   4.985
 6192TIP3    H118582   1.241   2.064   5.021
 6192TIP3    H218583   1.362   2.156   5.022
 6193TIP3   OH218584   0.010   1.600   0.319
 6193TIP3    H118585   0.040   1.515   0.287
 6193TIP3    H218586   0.085   1.636   0.366
 6194TIP3   OH218587   5.275   5.557   4.214
 6194TIP3    H118588   5.216   5.518   4.278
 6194TIP3    H218589   5.335   5.610   4.267
 6195TIP3   OH218590   1.660   0.239   4.874
 6195TIP3    H118591   1.615   0.296   4.936
 6195TIP3    H218592   1.628   0.151   4.894
 6196TIP3   OH218593   0.698   3.456   0.248
 6196TIP3    H118594   0.700   3.484   0.340
 6196TIP3    H218595   0.715   3.537   0.199
 6197TIP3   OH218596   4.930   0.952   0.048
 6197TIP3    H118597   5.001   0.938  -0.016
 6197TIP3    H218598   4.972   0.999   0.120
 6198TIP3   OH218599   2.672   1.744   2.445
 6198TIP3    H118600   2.679   1.824   2.497
 6198TIP3    H218601   2.761   1.709   2.443
 6199TIP3   OH218602   3.002   0.278   3.090
 6199TIP3    H118603   3.084   0.312   3.126
 6199TIP3    H218604   3.023   0.260   2.998
 6200TIP3   OH218605   4.692   2.509   3.110
 6200TIP3    H118606   4.725   2.448   3.176
 6200TIP3    H218607   4.609   2.540   3.145
 6201TIP3   OH218608   0.290   1.732   2.664
 6201TIP3    H118609   0.294   1.820   2.699
 6201TIP3    H218610   0.283   1.744   2.569
 6202TIP3   OH218611   5.594   5.372   0.505
 6202TIP3    H118612   5.643   5.388   0.425
 6202TIP3    H218613   5.556   5.285   0.494
 6203TIP3   OH218614   6.358   4.279   4.570
 6203TIP3    H118615   6.273   4.271   4.614
 6203TIP3    H218616   6.372   4.193   4.531
 6204TIP3   OH218617   2.562   2.480   0.857
 6204TIP3    H118618   2.517   2.504   0.775
 6204TIP3    H218619   2.617   2.405   0.833
 6205TIP3   OH218620   1.074   5.638   3.599
 6205TIP3    H118621   0.989   5.673   3.574
 6205TIP3    H218622   1.110   5.703   3.660
 6206TIP3   OH218623   2.794   5.554   3.870
 6206TIP3    H118624   2.787   5.608   3.792
 6206TIP3    H218625   2.882   5.516   3.866
 6207TIP3   OH218626   4.008   4.252   2.436
 6207TIP3    H118627   4.103   4.265   2.437
 6207TIP3    H218628   3.977   4.315   2.370
 6208TIP3   OH218629   3.124   2.409   2.702
 6208TIP3    H118630   3.208   2.402   2.748
 6208TIP3    H218631   3.060   2.422   2.771
 6209TIP3   OH218632   3.735   2.812   1.614
 6209TIP3    H118633   3.712   2.799   1.706
 6209TIP3    H218634   3.659   2.782   1.565
 6210TIP3   OH218635   4.426   5.636   4.905
 6210TIP3    H118636   4.504   5.628   4.960
 6210TIP3    H218637   4.438   5.569   4.837
 6211TIP3   OH218638   2.802   5.655  -0.020
 6211TIP3    H118639   2.817   5.682   0.071
 6211TIP3    H218640   2.742   5.581  -0.013
 6212TIP3   OH218641   5.018   4.150   1.660
 6212TIP3    H118642   5.022   4.145   1.565
 6212TIP3    H218643   4.990   4.062   1.687
 6213TIP3   OH218644   1.292   5.788   4.374
 6213TIP3    H118645   1.279   5.744   4.458
 6213TIP3    H218646   1.217   5.761   4.321
 6214TIP3   OH218647   6.027   5.883   3.751
 6214TIP3    H118648   6.011   5.793   3.721
 6214TIP3    H218649   6.121   5.895   3.742
 6215TIP3   OH218650   0.260   3.458   3.589
 6215TIP3    H118651   0.253   3.410   3.671
 6215TIP3    H218652   0.353   3.476   3.580
 6216TIP3   OH218653   5.487   2.116   3.101
 6216TIP3    H118654   5.461   2.055   3.171
 6216TIP3    H218655   5.551   2.067   3.050
 6217TIP3   OH218656   4.030   2.281   5.026
 6217TIP3    H118657   4.094   2.213   5.049
 6217TIP3    H218658   4.040   2.292   4.932
 6218TIP3   OH218659   2.698   5.128   3.381
 6218TIP3    H118660   2.699   5.073   3.303
 6218TIP3    H218661   2.764   5.089   3.439
 6219TIP3   OH218662   5.968   1.302   2.187
 6219TIP3    H118663   5.893   1.284   2.245
 6219TIP3    H218664   6.007   1.216   2.173
 6220TIP3   OH218665   1.417   2.109   4.701
 6220TIP3    H118666   1.344   2.097   4.641
 6220TIP3    H218667   1.387   2.069   4.783
 6221TIP3   OH218668   0.368   2.394   0.701
 6221TIP3    H118669   0.342   2.303   0.686
 6221TIP3    H218670   0.314   2.445   0.641
 6222TIP3   OH218671   1.705   4.483   4.114
 6222TIP3    H118672   1.737   4.399   4.080
 6222TIP3    H218673   1.748   4.492   4.199
 6223TIP3   OH218674   5.830   2.210   2.318
 6223TIP3    H118675   5.792   2.137   2.366
 6223TIP3    H218676   5.862   2.269   2.386
 6224TIP3   OH218677   4.468   0.083   3.902
 6224TIP3    H118678   4.460  -0.011   3.918
 6224TIP3    H218679   4.426   0.124   3.978
 6225TIP3   OH218680   4.123   5.852   2.861
 6225TIP3    H118681   4.126   5.911   2.936
 6225TIP3    H218682   4.200   5.796   2.871
 6226TIP3   OH218683   4.296   3.838   4.829
 6226TIP3    H118684   4.241   3.900   4.780
 6226TIP3    H218685   4.269   3.850   4.920
 6227TIP3   OH218686   2.424   4.746   4.605
 6227TIP3    H118687   2.334   4.764   4.575
 6227TIP3    H218688   2.413   4.708   4.692
 6228TIP3   OH218689   4.385   0.930   2.506
 6228TIP3    H118690   4.324   0.918   2.433
 6228TIP3    H218691   4.336   0.980   2.571
 6229TIP3   OH218692   5.256   1.423   5.154
 6229TIP3    H118693   5.304   1.452   5.076
 6229TIP3    H218694   5.197   1.495   5.175
 6230TIP3   OH218695   4.758   1.528   1.210
 6230TIP3    H118696   4.781   1.438   1.234
 6230TIP3    H218697   4.815   1.582   1.265
 6231TIP3   OH218698   3.260   4.139   0.302
 6231TIP3    H118699   3.185   4.185   0.262
 6231TIP3    H218700   3.282   4.070   0.239
 6232TIP3   OH218701   0.009   3.559   2.377
 6232TIP3    H118702   0.092   3.558   2.423
 6232TIP3    H218703  -0.057   3.548   2.445
 6233TIP3   OH218704   2.624   1.919   4.384
 6233TIP3    H118705   2.656   1.854   4.322
 6233TIP3    H218706   2.559   1.969   4.334
 6234TIP3   OH218707   4.856   2.540   2.877
 6234TIP3    H118708   4.799   2.611   2.847
 6234TIP3    H218709   4.812   2.505   2.955
 6235TIP3   OH218710   3.321   1.918   1.504
 6235TIP3    H118711   3.392   1.911   1.567
 6235TIP3    H218712   3.337   1.846   1.442
 6236TIP3   OH218713   0.774   1.012   4.753
 6236TIP3    H118714   0.833   1.007   4.678
 6236TIP3    H218715   0.711   0.941   4.739
 6237TIP3   OH218716   4.473   1.904   3.198
 6237TIP3    H118717   4.518   1.969   3.144
 6237TIP3    H218718   4.535   1.831   3.205
 6238TIP3   OH218719   4.827   1.403   4.974
 6238TIP3    H118720   4.854   1.335   4.913
 6238TIP3    H218721   4.884   1.477   4.956
 6239TIP3   OH218722   2.753   0.618   1.629
 6239TIP3    H118723   2.692   0.618   1.703
 6239TIP3    H218724   2.838   0.637   1.667
 6240TIP3   OH218725   1.951   3.458   4.565
 6240TIP3    H118726   1.895   3.535   4.579
 6240TIP3    H218727   1.912   3.390   4.619
 6241TIP3   OH218728   0.244   3.754   3.022
 6241TIP3    H118729   0.224   3.710   2.940
 6241TIP3    H218730   0.170   3.813   3.037
 6242TIP3   OH218731   0.622   2.339   2.964
 6242TIP3    H118732   0.655   2.355   2.875
 6242TIP3    H218733   0.599   2.426   2.997
 6243TIP3   OH218734   2.926   5.787   3.088
 6243TIP3    H118735   2.938   5.730   3.164
 6243TIP3    H218736   2.864   5.741   3.032
 6244TIP3   OH218737   6.146   4.710   0.278
 6244TIP3    H118738   6.081   4.669   0.333
 6244TIP3    H218739   6.230   4.690   0.320
 6245TIP3   OH218740   4.986   4.461   2.308
 6245TIP3    H118741   4.925   4.452   2.235
 6245TIP3    H218742   5.015   4.371   2.326
 6246TIP3   OH218743   4.081   5.033   4.363
 6246TIP3    H118744   4.004   5.088   4.351
 6246TIP3    H218745   4.144   5.089   4.408
 6247TIP3   OH218746   4.200   0.179   5.169
 6247TIP3    H118747   4.110   0.191   5.141
 6247TIP3    H218748   4.217   0.085   5.156
 6248TIP3   OH218749   0.697   4.397   1.597
 6248TIP3    H118750   0.732   4.477   1.635
 6248TIP3    H218751   0.679   4.340   1.672
 6249TIP3   OH218752   2.811   3.549   4.041
 6249TIP3    H118753   2.761   3.512   3.968
 6249TIP3    H218754   2.901   3.521   4.024
 6250TIP3   OH218755   4.475   2.319   2.957
 6250TIP3    H118756   4.548   2.353   2.905
 6250TIP3    H218757   4.483   2.363   3.041
 6251TIP3   OH218758   4.809   4.159   2.954
 6251TIP3    H118759   4.857   4.154   2.872
 6251TIP3    H218760   4.877   4.158   3.022
 6252TIP3   OH218761   4.267   1.347   1.593
 6252TIP3    H118762   4.247   1.356   1.500
 6252TIP3    H218763   4.184   1.365   1.637
 6253TIP3   OH218764   1.887   0.596   4.572
 6253TIP3    H118765   1.911   0.525   4.631
 6253TIP3    H218766   1.964   0.653   4.570
 6254TIP3   OH218767   2.428   5.950   3.569
 6254TIP3    H118768   2.466   6.033   3.542
 6254TIP3    H218769   2.504   5.894   3.587
 6255TIP3   OH218770   2.221   4.662   0.225
 6255TIP3    H118771   2.183   4.632   0.143
 6255TIP3    H218772   2.307   4.620   0.229
 6256TIP3   OH218773   4.360   1.736   2.852
 6256TIP3    H118774   4.363   1.641   2.863
 6256TIP3    H218775   4.427   1.769   2.912
 6257TIP3   OH218776   5.282   4.013   1.280
 6257TIP3    H118777   5.294   3.966   1.198
 6257TIP3    H218778   5.360   3.992   1.331
 6258TIP3   OH218779   5.729   4.826   0.278
 6258TIP3    H118780   5.802   4.811   0.218
 6258TIP3    H218781   5.658   4.860   0.222
 6259TIP3   OH218782   3.967   4.950   2.668
 6259TIP3    H118783   3.882   4.947   2.710
 6259TIP3    H218784   3.977   4.864   2.627
 6260TIP3   OH218785   4.357   0.179   0.453
 6260TIP3    H118786   4.384   0.091   0.427
 6260TIP3    H218787   4.345   0.174   0.548
 6261TIP3   OH218788   3.922   2.519   3.039
 6261TIP3    H118789   3.834   2.523   3.002
 6261TIP3    H218790   3.943   2.426   3.045
 6262TIP3   OH218791   2.936   2.398   1.838
 6262TIP3    H118792   2.900   2.436   1.757
 6262TIP3    H218793   2.860   2.385   1.894
 6263TIP3   OH218794   4.960   4.616   2.796
 6263TIP3    H118795   5.034   4.561   2.821
 6263TIP3    H218796   4.885   4.575   2.839
 6264TIP3   OH218797   4.714   0.500   4.386
 6264TIP3    H118798   4.660   0.549   4.448
 6264TIP3    H218799   4.782   0.459   4.439
 6265TIP3   OH218800   5.488   2.890   3.800
 6265TIP3    H118801   5.522   2.801   3.808
 6265TIP3    H218802   5.514   2.917   3.712
 6266TIP3   OH218803   4.026   3.744   3.153
 6266TIP3    H118804   3.982   3.667   3.190
 6266TIP3    H218805   4.027   3.807   3.225
 6267TIP3   OH218806   3.771   3.289   0.484
 6267TIP3    H118807   3.837   3.333   0.431
 6267TIP3    H218808   3.689   3.332   0.460
 6268TIP3   OH218809   2.308   0.178   3.926
 6268TIP3    H118810   2.380   0.201   3.867
 6268TIP3    H218811   2.316   0.240   3.998
 6269TIP3   OH218812   3.008   2.470   2.962
 6269TIP3    H118813   3.027   2.529   3.035
 6269TIP3    H218814   2.919   2.438   2.979
 6270TIP3   OH218815   1.810   3.086   5.155
 6270TIP3    H118816   1.729   3.055   5.197
 6270TIP3    H218817   1.818   3.031   5.077
 6271TIP3   OH218818   3.414   5.696   0.769
 6271TIP3    H118819   3.502   5.731   0.753
 6271TIP3    H218820   3.364   5.771   0.800
 6272TIP3   OH218821   6.195   2.528   3.554
 6272TIP3    H118822   6.205   2.460   3.621
 6272TIP3    H218823   6.103   2.555   3.560
 6273TIP3   OH218824   0.108   1.096   1.756
 6273TIP3    H118825   0.170   1.151   1.804
 6273TIP3    H218826   0.133   1.006   1.778
 6274TIP3   OH218827   4.042   3.324   0.385
 6274TIP3    H118828   4.072   3.233   0.388
 6274TIP3    H218829   4.061   3.353   0.296
 6275TIP3   OH218830   2.303   4.980   1.654
 6275TIP3    H118831   2.391   4.995   1.689
 6275TIP3    H218832   2.246   5.034   1.709
 6276TIP3   OH218833   2.502   1.545   4.493
 6276TIP3    H118834   2.570   1.519   4.555
 6276TIP3    H218835   2.456   1.464   4.472
 6277TIP3   OH218836   1.538   3.261   3.295
 6277TIP3    H118837   1.548   3.235   3.203
 6277TIP3    H218838   1.472   3.202   3.330
 6278TIP3   OH218839   3.649   3.547   0.904
 6278TIP3    H118840   3.665   3.585   0.817
 6278TIP3    H218841   3.716   3.479   0.913
 6279TIP3   OH218842   0.019   5.198   0.771
 6279TIP3    H118843   0.062   5.228   0.691
 6279TIP3    H218844   0.080   5.221   0.841
 6280TIP3   OH218845   1.884   1.872   0.369
 6280TIP3    H118846   1.943   1.800   0.387
 6280TIP3    H218847   1.853   1.900   0.455
 6281TIP3   OH218848   5.610   3.823   5.035
 6281TIP3    H118849   5.565   3.739   5.039
 6281TIP3    H218850   5.688   3.806   4.983
 6282TIP3   OH218851   6.345   5.619   4.725
 6282TIP3    H118852   6.419   5.673   4.696
 6282TIP3    H218853   6.311   5.580   4.644
 6283TIP3   OH218854   2.927   0.110   1.211
 6283TIP3    H118855   2.859   0.176   1.199
 6283TIP3    H218856   3.008   0.160   1.216
 6284TIP3   OH218857   3.604   5.952   1.516
 6284TIP3    H118858   3.671   6.019   1.504
 6284TIP3    H218859   3.609   5.929   1.609
 6285TIP3   OH218860   3.338   3.560   1.308
 6285TIP3    H118861   3.351   3.466   1.321
 6285TIP3    H218862   3.346   3.574   1.214
 6286TIP3   OH218863   5.198   5.393   1.123
 6286TIP3    H118864   5.105   5.384   1.144
 6286TIP3    H218865   5.237   5.310   1.150
 6287TIP3   OH218866   5.483   5.907   0.380
 6287TIP3    H118867   5.525   5.821   0.387
 6287TIP3    H218868   5.556   5.969   0.390
 6288TIP3   OH218869   2.219   2.888   0.105
 6288TIP3    H118870   2.194   2.951   0.036
 6288TIP3    H218871   2.160   2.814   0.091
 6289TIP3   OH218872   2.537   4.388   0.098
 6289TIP3    H118873   2.455   4.350   0.066
 6289TIP3    H218874   2.511   4.438   0.175
 6290TIP3   OH218875   3.619   5.779   1.232
 6290TIP3    H118876   3.665   5.863   1.220
 6290TIP3    H218877   3.685   5.720   1.267
 6291TIP3   OH218878   5.928   3.392   1.730
 6291TIP3    H118879   5.949   3.435   1.647
 6291TIP3    H218880   5.868   3.452   1.774
 6292TIP3   OH218881   4.897   0.758   0.317
 6292TIP3    H118882   4.876   0.850   0.300
 6292TIP3    H218883   4.856   0.739   0.402
 6293TIP3   OH218884   0.528   4.419   4.906
 6293TIP3    H118885   0.498   4.510   4.911
 6293TIP3    H218886   0.473   4.372   4.968
 6294TIP3   OH218887   4.381   3.788   2.729
 6294TIP3    H118888   4.409   3.868   2.773
 6294TIP3    H218889   4.304   3.759   2.778
 6295TIP3   OH218890   4.256   3.081   2.197
 6295TIP3    H118891   4.351   3.075   2.188
 6295TIP3    H218892   4.222   3.047   2.114
 6296TIP3   OH218893   0.024   5.315   0.030
 6296TIP3    H118894  -0.006   5.225   0.015
 6296TIP3    H218895   0.062   5.313   0.118
 6297TIP3   OH218896   4.271   3.343   0.965
 6297TIP3    H118897   4.196   3.296   0.928
 6297TIP3    H218898   4.343   3.323   0.905
 6298TIP3   OH218899   2.232   4.417   2.625
 6298TIP3    H118900   2.253   4.494   2.572
 6298TIP3    H218901   2.315   4.368   2.630
 6299TIP3   OH218902   3.436   1.792   2.900
 6299TIP3    H118903   3.451   1.807   2.807
 6299TIP3    H218904   3.452   1.698   2.912
 6300TIP3   OH218905   0.392   1.096   2.588
 6300TIP3    H118906   0.310   1.113   2.542
 6300TIP3    H218907   0.460   1.105   2.521
 6301TIP3   OH218908   2.983   1.168   2.991
 6301TIP3    H118909   2.962   1.170   2.897
 6301TIP3    H218910   3.076   1.192   2.994
 6302TIP3   OH218911   3.108   1.439   1.808
 6302TIP3    H118912   3.037   1.500   1.789
 6302TIP3    H218913   3.086   1.401   1.892
 6303TIP3   OH218914   2.790   1.022   2.320
 6303TIP3    H118915   2.806   0.938   2.279
 6303TIP3    H218916   2.763   1.001   2.410
 6304TIP3   OH218917   6.094   4.681   3.474
 6304TIP3    H118918   6.021   4.670   3.535
 6304TIP3    H218919   6.157   4.614   3.501
 6305TIP3   OH218920   6.309   2.517   4.308
 6305TIP3    H118921   6.387   2.563   4.340
 6305TIP3    H218922   6.328   2.425   4.324
 6306TIP3   OH218923   4.562   5.602   0.626
 6306TIP3    H118924   4.568   5.509   0.603
 6306TIP3    H218925   4.576   5.603   0.721
 6307TIP3   OH218926   6.118   2.938   2.419
 6307TIP3    H118927   6.127   2.919   2.512
 6307TIP3    H218928   6.031   2.906   2.396
 6308TIP3   OH218929   6.175   3.079   0.424
 6308TIP3    H118930   6.092   3.033   0.411
 6308TIP3    H218931   6.181   3.092   0.519
 6309TIP3   OH218932   3.532   0.254   3.194
 6309TIP3    H118933   3.564   0.165   3.177
 6309TIP3    H218934   3.609   0.301   3.225
 6310TIP3   OH218935   0.976   3.365   1.540
 6310TIP3    H118936   0.901   3.310   1.522
 6310TIP3    H218937   1.052   3.314   1.510
 6311TIP3   OH218938   1.356   5.370   1.019
 6311TIP3    H118939   1.325   5.355   0.929
 6311TIP3    H218940   1.294   5.431   1.056
 6312TIP3   OH218941   5.859   1.360   4.775
 6312TIP3    H118942   5.879   1.322   4.689
 6312TIP3    H218943   5.794   1.428   4.755
 6313TIP3   OH218944   4.664   3.476   0.368
 6313TIP3    H118945   4.633   3.453   0.280
 6313TIP3    H218946   4.748   3.431   0.376
 6314TIP3   OH218947   5.739   4.350   5.007
 6314TIP3    H118948   5.712   4.405   5.081
 6314TIP3    H218949   5.672   4.281   5.003
 6315TIP3   OH218950   4.702   4.029   3.609
 6315TIP3    H118951   4.610   4.040   3.584
 6315TIP3    H218952   4.720   3.937   3.592
 6316TIP3   OH218953   6.244   1.392   0.558
 6316TIP3    H118954   6.165   1.442   0.536
 6316TIP3    H218955   6.316   1.448   0.529
 6317TIP3   OH218956   5.561   0.963   2.292
 6317TIP3    H118957   5.493   1.011   2.339
 6317TIP3    H218958   5.563   0.877   2.333
 6318TIP3   OH218959   1.363   5.235   2.714
 6318TIP3    H118960   1.375   5.154   2.763
 6318TIP3    H218961   1.446   5.247   2.667
 6319TIP3   OH218962   3.278   5.213   3.001
 6319TIP3    H118963   3.329   5.264   3.064
 6319TIP3    H218964   3.204   5.269   2.978
 6320TIP3   OH218965   4.758   1.994   0.888
 6320TIP3    H118966   4.809   1.956   0.817
 6320TIP3    H218967   4.767   2.089   0.877
 6321TIP3   OH218968   5.481   4.546   0.435
 6321TIP3    H118969   5.431   4.472   0.470
 6321TIP3    H218970   5.424   4.622   0.447
 6322TIP3   OH218971   1.599   4.658   0.903
 6322TIP3    H118972   1.612   4.568   0.934
 6322TIP3    H218973   1.533   4.649   0.834
 6323TIP3   OH218974   2.454   5.947   1.309
 6323TIP3    H118975   2.544   5.979   1.299
 6323TIP3    H218976   2.425   5.931   1.219
 6324TIP3   OH218977   3.417   4.645   3.084
 6324TIP3    H118978   3.434   4.738   3.067
 6324TIP3    H218979   3.431   4.635   3.178
 6325TIP3   OH218980   2.475   2.061   4.919
 6325TIP3    H118981   2.462   2.076   4.826
 6325TIP3    H218982   2.534   2.131   4.947
 6326TIP3   OH218983   1.957   1.346   1.616
 6326TIP3    H118984   1.893   1.275   1.611
 6326TIP3    H218985   1.957   1.372   1.708
 6327TIP3   OH218986   6.248   4.609   4.934
 6327TIP3    H118987   6.302   4.538   4.899
 6327TIP3    H218988   6.279   4.621   5.024
 6328TIP3   OH218989   2.256   1.769   0.161
 6328TIP3    H118990   2.174   1.777   0.111
 6328TIP3    H218991   2.257   1.677   0.190
 6329TIP3   OH218992   1.268   1.581   3.556
 6329TIP3    H118993   1.301   1.517   3.493
 6329TIP3    H218994   1.225   1.647   3.501
 6330TIP3   OH218995   5.647   5.527   4.718
 6330TIP3    H118996   5.626   5.495   4.806
 6330TIP3    H218997   5.709   5.464   4.683
 6331TIP3   OH218998   1.851   0.970   3.847
 6331TIP3    H118999   1.921   0.928   3.897
 6331TIP3    H219000   1.871   0.950   3.755
 6332TIP3   OH219001   3.815   0.419   4.120
 6332TIP3    H119002   3.811   0.444   4.028
 6332TIP3    H219003   3.742   0.466   4.161
 6333TIP3   OH219004   5.867   3.941   0.602
 6333TIP3    H119005   5.899   4.023   0.640
 6333TIP3    H219006   5.922   3.927   0.525
 6334TIP3   OH219007   5.493   0.041   2.790
 6334TIP3    H119008   5.579   0.083   2.780
 6334TIP3    H219009   5.512  -0.053   2.794
 6335TIP3   OH219010   5.177   5.157   5.028
 6335TIP3    H119011   5.128   5.079   5.055
 6335TIP3    H219012   5.150   5.225   5.091
 6336TIP3   OH219013   3.934   0.993   3.409
 6336TIP3    H119014   4.017   0.953   3.383
 6336TIP3    H219015   3.875   0.919   3.421
 6337TIP3   OH219016   0.556   2.380   1.501
 6337TIP3    H119017   0.461   2.381   1.488
 6337TIP3    H219018   0.577   2.290   1.522
 6338TIP3   OH219019   5.667   3.086   1.561
 6338TIP3    H119020   5.619   3.160   1.599
 6338TIP3    H219021   5.734   3.127   1.506
 6339TIP3   OH219022   6.005   2.001   0.456
 6339TIP3    H119023   5.940   2.004   0.527
 6339TIP3    H219024   6.089   1.995   0.501
 6340TIP3   OH219025   3.725   4.092   0.888
 6340TIP3    H119026   3.762   4.045   0.963
 6340TIP3    H219027   3.636   4.114   0.914
 6341TIP3   OH219028   5.070   3.128   2.714
 6341TIP3    H119029   5.138   3.071   2.751
 6341TIP3    H219030   4.993   3.071   2.705
 6342TIP3   OH219031   5.394   1.645   2.005
 6342TIP3    H119032   5.377   1.701   2.081
 6342TIP3    H219033   5.489   1.634   2.004
 6343TIP3   OH219034   2.248   1.791   3.139
 6343TIP3    H119035   2.157   1.789   3.109
 6343TIP3    H219036   2.282   1.875   3.107
 6344TIP3   OH219037   3.278   3.011   3.108
 6344TIP3    H119038   3.255   2.924   3.075
 6344TIP3    H219039   3.210   3.031   3.173
 6345TIP3   OH219040   2.289   1.839   3.956
 6345TIP3    H119041   2.197   1.849   3.978
 6345TIP3    H219042   2.300   1.744   3.944
 6346TIP3   OH219043   5.130   1.131   0.894
 6346TIP3    H119044   5.215   1.115   0.853
 6346TIP3    H219045   5.150   1.151   0.985
 6347TIP3   OH219046   3.720   1.280   2.209
 6347TIP3    H119047   3.734   1.232   2.290
 6347TIP3    H219048   3.635   1.251   2.178
 6348TIP3   OH219049   0.918   2.581   2.695
 6348TIP3    H119050   0.954   2.561   2.608
 6348TIP3    H219051   0.986   2.554   2.756
 6349TIP3   OH219052   3.983   2.080   1.469
 6349TIP3    H119053   3.991   2.160   1.522
 6349TIP3    H219054   4.037   2.097   1.392
 6350TIP3   OH219055   3.908   4.647   2.910
 6350TIP3    H119056   3.829   4.616   2.866
 6350TIP3    H219057   3.903   4.742   2.905
 6351TIP3   OH219058   4.032   3.495   4.828
 6351TIP3    H119059   4.119   3.467   4.858
 6351TIP3    H219060   3.978   3.416   4.833
 6352TIP3   OH219061   1.845   5.769   4.139
 6352TIP3    H119062   1.768   5.788   4.086
 6352TIP3    H219063   1.824   5.805   4.226
 6353TIP3   OH219064   4.490   5.707   4.455
 6353TIP3    H119065   4.519   5.705   4.546
 6353TIP3    H219066   4.479   5.615   4.431
 6354TIP3   OH219067   5.338   1.113   4.857
 6354TIP3    H119068   5.311   1.179   4.793
 6354TIP3    H219069   5.256   1.069   4.881
 6355TIP3   OH219070   5.591   1.775   0.785
 6355TIP3    H119071   5.663   1.743   0.730
 6355TIP3    H219072   5.555   1.696   0.826
 6356TIP3   OH219073   6.279   5.557   2.090
 6356TIP3    H119074   6.336   5.503   2.145
 6356TIP3    H219075   6.334   5.586   2.018
 6357TIP3   OH219076   4.542   5.370   1.410
 6357TIP3    H119077   4.536   5.275   1.398
 6357TIP3    H219078   4.619   5.395   1.359
 6358TIP3   OH219079   4.851   5.151   3.643
 6358TIP3    H119080   4.788   5.120   3.578
 6358TIP3    H219081   4.813   5.127   3.727
 6359TIP3   OH219082   5.963   0.664   5.095
 6359TIP3    H119083   5.934   0.708   5.176
 6359TIP3    H219084   6.038   0.611   5.123
 6360TIP3   OH219085   0.672   4.126   1.352
 6360TIP3    H119086   0.602   4.179   1.390
 6360TIP3    H219087   0.746   4.187   1.345
 6361TIP3   OH219088   0.498   2.744   2.540
 6361TIP3    H119089   0.450   2.792   2.472
 6361TIP3    H219090   0.581   2.719   2.499
 6362TIP3   OH219091   1.043   4.930   3.700
 6362TIP3    H119092   1.136   4.914   3.713
 6362TIP3    H219093   1.029   5.018   3.736
 6363TIP3   OH219094   4.011   0.541   2.325
 6363TIP3    H119095   4.024   0.521   2.417
 6363TIP3    H219096   3.975   0.630   2.324
 6364TIP3   OH219097   6.328   2.243   1.372
 6364TIP3    H119098   6.236   2.220   1.361
 6364TIP3    H219099   6.367   2.166   1.416
 6365TIP3   OH219100   1.323   2.229   0.301
 6365TIP3    H119101   1.311   2.166   0.230
 6365TIP3    H219102   1.406   2.204   0.342
 6366TIP3   OH219103   1.834   4.634   2.608
 6366TIP3    H119104   1.902   4.637   2.674
 6366TIP3    H219105   1.804   4.724   2.599
 6367TIP3   OH219106   4.024   3.887   3.375
 6367TIP3    H119107   4.019   3.876   3.470
 6367TIP3    H219108   4.065   3.973   3.363
 6368TIP3   OH219109   0.532   1.670   0.366
 6368TIP3    H119110   0.621   1.702   0.382
 6368TIP3    H219111   0.520   1.679   0.271
 6369TIP3   OH219112   4.502   2.445   4.732
 6369TIP3    H119113   4.439   2.488   4.675
 6369TIP3    H219114   4.451   2.416   4.808
 6370TIP3   OH219115   5.745   3.897   4.677
 6370TIP3    H119116   5.672   3.842   4.704
 6370TIP3    H219117   5.807   3.836   4.637
 6371TIP3   OH219118   3.187   4.409   0.507
 6371TIP3    H119119   3.184   4.384   0.415
 6371TIP3    H219120   3.280   4.410   0.529
 6372TIP3   OH219121   0.223   5.583   3.059
 6372TIP3    H119122   0.257   5.504   3.100
 6372TIP3    H219123   0.129   5.570   3.052
 6373TIP3   OH219124   4.820   1.246   1.301
 6373TIP3    H119125   4.906   1.216   1.330
 6373TIP3    H219126   4.777   1.276   1.381
 6374TIP3   OH219127   6.051   0.110   3.088
 6374TIP3    H119128   6.041   0.174   3.018
 6374TIP3    H219129   6.053   0.162   3.168
 6375TIP3   OH219130   0.086   4.449   4.839
 6375TIP3    H119131   0.153   4.396   4.883
 6375TIP3    H219132   0.072   4.404   4.756
 6376TIP3   OH219133   2.092   0.932   4.004
 6376TIP3    H119134   2.166   0.883   3.968
 6376TIP3    H219135   2.116   0.949   4.095
 6377TIP3   OH219136   4.687   2.877   3.733
 6377TIP3    H119137   4.669   2.841   3.820
 6377TIP3    H219138   4.721   2.804   3.683
 6378TIP3   OH219139   2.496   5.496   3.620
 6378TIP3    H119140   2.465   5.483   3.531
 6378TIP3    H219141   2.578   5.446   3.625
 6379TIP3   OH219142   3.107   5.865   3.947
 6379TIP3    H119143   3.171   5.922   3.904
 6379TIP3    H219144   3.158   5.814   4.010
 6380TIP3   OH219145   0.431   5.670   2.623
 6380TIP3    H119146   0.500   5.728   2.655
 6380TIP3    H219147   0.418   5.607   2.694
 6381TIP3   OH219148   4.107   0.044   0.904
 6381TIP3    H119149   4.157   0.101   0.963
 6381TIP3    H219150   4.026   0.092   0.887
 6382TIP3   OH219151   2.255   5.838   2.165
 6382TIP3    H119152   2.342   5.822   2.128
 6382TIP3    H219153   2.271   5.897   2.238
 6383TIP3   OH219154   5.855   3.461   2.288
 6383TIP3    H119155   5.866   3.483   2.381
 6383TIP3    H219156   5.895   3.375   2.279
 6384TIP3   OH219157   4.385   2.663   3.611
 6384TIP3    H119158   4.293   2.640   3.620
 6384TIP3    H219159   4.386   2.759   3.616
 6385TIP3   OH219160   4.033   1.679   4.120
 6385TIP3    H119161   3.962   1.689   4.056
 6385TIP3    H219162   4.016   1.594   4.160
 6386TIP3   OH219163   4.437   3.260   4.203
 6386TIP3    H119164   4.451   3.339   4.151
 6386TIP3    H219165   4.461   3.286   4.292
 6387TIP3   OH219166   4.989   2.145   2.472
 6387TIP3    H119167   5.028   2.180   2.552
 6387TIP3    H219168   5.063   2.106   2.425
 6388TIP3   OH219169   2.405   5.408   3.378
 6388TIP3    H119170   2.395   5.386   3.286
 6388TIP3    H219171   2.318   5.432   3.407
 6389TIP3   OH219172   4.439   3.824   3.833
 6389TIP3    H119173   4.495   3.750   3.858
 6389TIP3    H219174   4.415   3.806   3.742
 6390TIP3   OH219175   4.618   2.271   5.038
 6390TIP3    H119176   4.702   2.299   5.003
 6390TIP3    H219177   4.591   2.343   5.095
 6391TIP3   OH219178   5.627   1.986   0.978
 6391TIP3    H119179   5.597   1.946   0.896
 6391TIP3    H219180   5.571   1.947   1.045
 6392TIP3   OH219181   3.712   5.954   1.004
 6392TIP3    H119182   3.690   5.953   0.910
 6392TIP3    H219183   3.699   5.864   1.032
 6393TIP3   OH219184   4.331   3.760   0.506
 6393TIP3    H119185   4.312   3.674   0.544
 6393TIP3    H219186   4.244   3.798   0.488
 6394TIP3   OH219187   2.687   3.339   4.473
 6394TIP3    H119188   2.720   3.387   4.397
 6394TIP3    H219189   2.728   3.253   4.465
 6395TIP3   OH219190   5.848   0.429   2.819
 6395TIP3    H119191   5.759   0.448   2.788
 6395TIP3    H219192   5.891   0.514   2.821
 6396TIP3   OH219193   5.559   1.260   1.320
 6396TIP3    H119194   5.637   1.266   1.375
 6396TIP3    H219195   5.554   1.344   1.276
 6397TIP3   OH219196   3.131   1.812   4.193
 6397TIP3    H119197   3.038   1.790   4.186
 6397TIP3    H219198   3.131   1.904   4.219
 6398TIP3   OH219199   6.153   2.716   1.183
 6398TIP3    H119200   6.068   2.720   1.140
 6398TIP3    H219201   6.171   2.622   1.192
 6399TIP3   OH219202   3.799   5.591   1.328
 6399TIP3    H119203   3.714   5.548   1.329
 6399TIP3    H219204   3.832   5.582   1.417
 6400TIP3   OH219205   3.553   2.355   2.511
 6400TIP3    H119206   3.645   2.373   2.532
 6400TIP3    H219207   3.554   2.329   2.419
 6401TIP3   OH219208   0.776   5.188   3.919
 6401TIP3    H119209   0.797   5.102   3.956
 6401TIP3    H219210   0.859   5.235   3.918
 6402TIP3   OH219211   0.098   5.015   4.598
 6402TIP3    H119212   0.114   5.001   4.504
 6402TIP3    H219213   0.011   4.980   4.614
 6403TIP3   OH219214   2.976   0.500   1.399
 6403TIP3    H119215   3.036   0.574   1.398
 6403TIP3    H219216   2.904   0.528   1.456
 6404TIP3   OH219217   5.060   2.126   2.032
 6404TIP3    H119218   4.996   2.132   2.103
 6404TIP3    H219219   5.123   2.195   2.050
 6405TIP3   OH219220   1.303   4.971   3.677
 6405TIP3    H119221   1.377   4.961   3.617
 6405TIP3    H219222   1.338   5.016   3.753
 6406TIP3   OH219223   6.191   0.396   2.415
 6406TIP3    H119224   6.262   0.454   2.443
 6406TIP3    H219225   6.204   0.384   2.321
 6407TIP3   OH219226   6.321   2.233   4.355
 6407TIP3    H119227   6.338   2.183   4.276
 6407TIP3    H219228   6.225   2.229   4.365
 6408TIP3   OH219229   2.768   4.080   2.411
 6408TIP3    H119230   2.843   4.132   2.439
 6408TIP3    H219231   2.732   4.043   2.491
 6409TIP3   OH219232   6.387   2.603   2.392
 6409TIP3    H119233   6.348   2.660   2.458
 6409TIP3    H219234   6.425   2.663   2.328
 6410TIP3   OH219235   2.237   3.674   3.620
 6410TIP3    H119236   2.233   3.740   3.550
 6410TIP3    H219237   2.196   3.596   3.583
 6411TIP3   OH219238   2.727   0.550   4.912
 6411TIP3    H119239   2.694   0.628   4.958
 6411TIP3    H219240   2.699   0.476   4.966
 6412TIP3   OH219241   1.097   4.574   4.823
 6412TIP3    H119242   1.067   4.483   4.830
 6412TIP3    H219243   1.078   4.599   4.733
 6413TIP3   OH219244   5.645   4.037   4.002
 6413TIP3    H119245   5.614   4.039   3.911
 6413TIP3    H219246   5.739   4.020   3.995
 6414TIP3   OH219247   3.420   3.240   2.976
 6414TIP3    H119248   3.443   3.255   2.884
 6414TIP3    H219249   3.356   3.169   2.974
 6415TIP3   OH219250   2.120   3.130   0.375
 6415TIP3    H119251   2.103   3.041   0.406
 6415TIP3    H219252   2.032   3.167   0.361
 6416TIP3   OH219253   1.905   2.738   0.367
 6416TIP3    H119254   1.948   2.813   0.408
 6416TIP3    H219255   1.866   2.774   0.287
 6417TIP3   OH219256   5.612   1.194   0.417
 6417TIP3    H119257   5.567   1.110   0.429
 6417TIP3    H219258   5.572   1.252   0.482
 6418TIP3   OH219259   6.338   0.605   4.526
 6418TIP3    H119260   6.257   0.559   4.546
 6418TIP3    H219261   6.335   0.618   4.431
 6419TIP3   OH219262   2.147   5.824   0.642
 6419TIP3    H119263   2.082   5.893   0.629
 6419TIP3    H219264   2.211   5.838   0.572
 6420TIP3   OH219265   4.510   3.438   2.222
 6420TIP3    H119266   4.588   3.439   2.278
 6420TIP3    H219267   4.524   3.510   2.160
 6421TIP3   OH219268   3.749   3.116   3.435
 6421TIP3    H119269   3.709   3.139   3.518
 6421TIP3    H219270   3.675   3.091   3.379
 6422TIP3   OH219271   5.147   3.430   4.750
 6422TIP3    H119272   5.113   3.342   4.733
 6422TIP3    H219273   5.240   3.424   4.727
 6423TIP3   OH219274   1.468   0.618   3.945
 6423TIP3    H119275   1.526   0.673   3.892
 6423TIP3    H219276   1.525   0.547   3.976
 6424TIP3   OH219277   2.005   5.232   2.488
 6424TIP3    H119278   1.961   5.316   2.501
 6424TIP3    H219279   1.945   5.168   2.526
 6425TIP3   OH219280   4.871   3.867   2.985
 6425TIP3    H119281   4.862   3.951   3.030
 6425TIP3    H219282   4.843   3.885   2.895
 6426TIP3   OH219283   0.513   5.447   2.771
 6426TIP3    H119284   0.456   5.371   2.757
 6426TIP3    H219285   0.600   5.417   2.743
 6427TIP3   OH219286   5.661   5.441   5.037
 6427TIP3    H119287   5.624   5.498   5.105
 6427TIP3    H219288   5.751   5.472   5.027
 6428TIP3   OH219289   2.628   0.054   2.844
 6428TIP3    H119290   2.565   0.110   2.890
 6428TIP3    H219291   2.697   0.037   2.909
 6429TIP3   OH219292   2.943   5.593   4.291
 6429TIP3    H119293   2.991   5.513   4.269
 6429TIP3    H219294   2.914   5.580   4.381
 6430TIP3   OH219295   5.809   0.903   0.810
 6430TIP3    H119296   5.727   0.853   0.808
 6430TIP3    H219297   5.857   0.874   0.733
 6431TIP3   OH219298   2.451   2.673   4.691
 6431TIP3    H119299   2.422   2.590   4.730
 6431TIP3    H219300   2.492   2.720   4.764
 6432TIP3   OH219301   3.128   0.261   0.468
 6432TIP3    H119302   3.111   0.319   0.394
 6432TIP3    H219303   3.088   0.177   0.443
 6433TIP3   OH219304   4.799   4.312   0.924
 6433TIP3    H119305   4.866   4.340   0.862
 6433TIP3    H219306   4.750   4.244   0.878
 6434TIP3   OH219307   3.132   4.627   0.652
 6434TIP3    H119308   3.169   4.679   0.580
 6434TIP3    H219309   3.142   4.537   0.624
 6435TIP3   OH219310   4.038   5.015   0.282
 6435TIP3    H119311   3.954   4.983   0.314
 6435TIP3    H219312   4.078   5.059   0.357
 6436TIP3   OH219313   3.327   0.792   2.016
 6436TIP3    H119314   3.275   0.712   2.011
 6436TIP3    H219315   3.401   0.776   1.957
 6437TIP3   OH219316   0.078   5.924   1.210
 6437TIP3    H119317   0.102   5.844   1.163
 6437TIP3    H219318  -0.010   5.945   1.178
 6438TIP3   OH219319   3.324   5.338   0.986
 6438TIP3    H119320   3.306   5.253   1.027
 6438TIP3    H219321   3.413   5.360   1.014
 6439TIP3   OH219322   5.913   0.287   4.497
 6439TIP3    H119323   5.867   0.232   4.560
 6439TIP3    H219324   5.847   0.350   4.467
 6440TIP3   OH219325   3.442   4.952   4.589
 6440TIP3    H119326   3.489   4.957   4.507
 6440TIP3    H219327   3.375   4.884   4.574
 6441TIP3   OH219328   5.128   1.501   2.784
 6441TIP3    H119329   5.097   1.486   2.695
 6441TIP3    H219330   5.152   1.415   2.816
 6442TIP3   OH219331   5.147   3.357   1.574
 6442TIP3    H119332   5.131   3.354   1.480
 6442TIP3    H219333   5.064   3.327   1.613
 6443TIP3   OH219334   5.987   3.062   4.503
 6443TIP3    H119335   6.069   3.029   4.539
 6443TIP3    H219336   6.012   3.137   4.449
 6444TIP3   OH219337   1.356   1.957   3.388
 6444TIP3    H119338   1.268   1.995   3.392
 6444TIP3    H219339   1.391   1.967   3.477
 6445TIP3   OH219340   3.093   0.747   0.450
 6445TIP3    H119341   3.094   0.818   0.387
 6445TIP3    H219342   3.000   0.727   0.463
 6446TIP3   OH219343   2.411   3.313   4.295
 6446TIP3    H119344   2.379   3.262   4.369
 6446TIP3    H219345   2.503   3.331   4.316
 6447TIP3   OH219346   0.485   3.298   3.700
 6447TIP3    H119347   0.477   3.384   3.741
 6447TIP3    H219348   0.571   3.299   3.658
 6448TIP3   OH219349   4.430   0.932   4.328
 6448TIP3    H119350   4.430   0.999   4.260
 6448TIP3    H219351   4.522   0.905   4.336
 6449TIP3   OH219352   4.471   4.798   1.481
 6449TIP3    H119353   4.424   4.832   1.405
 6449TIP3    H219354   4.524   4.726   1.447
 6450TIP3   OH219355   0.296   4.329   4.220
 6450TIP3    H119356   0.362   4.376   4.271
 6450TIP3    H219357   0.275   4.388   4.148
 6451TIP3   OH219358   3.987   4.025   4.411
 6451TIP3    H119359   3.895   3.998   4.408
 6451TIP3    H219360   4.022   3.999   4.326
 6452TIP3   OH219361   5.137   1.775   2.484
 6452TIP3    H119362   5.156   1.707   2.548
 6452TIP3    H219363   5.043   1.766   2.467
 6453TIP3   OH219364   0.358   4.943   1.329
 6453TIP3    H119365   0.441   4.972   1.367
 6453TIP3    H219366   0.349   4.852   1.357
 6454TIP3   OH219367   6.038   0.783   3.097
 6454TIP3    H119368   6.007   0.866   3.060
 6454TIP3    H219369   6.129   0.776   3.066
 6455TIP3   OH219370   6.274   2.705   2.041
 6455TIP3    H119371   6.234   2.628   2.082
 6455TIP3    H219372   6.208   2.733   1.977
 6456TIP3   OH219373   4.412   3.400   2.851
 6456TIP3    H119374   4.455   3.464   2.907
 6456TIP3    H219375   4.446   3.417   2.764
 6457TIP3   OH219376   0.145   2.989   1.169
 6457TIP3    H119377   0.079   2.932   1.211
 6457TIP3    H219378   0.224   2.976   1.221
 6458TIP3   OH219379   4.906   5.526   0.064
 6458TIP3    H119380   4.853   5.567  -0.004
 6458TIP3    H219381   4.989   5.573   0.061
 6459TIP3   OH219382   3.783   2.368   1.359
 6459TIP3    H119383   3.771   2.289   1.411
 6459TIP3    H219384   3.820   2.338   1.276
 6460TIP3   OH219385   0.409   4.030   4.376
 6460TIP3    H119386   0.408   3.966   4.305
 6460TIP3    H219387   0.479   4.091   4.353
 6461TIP3   OH219388   2.243   3.732   2.175
 6461TIP3    H119389   2.300   3.657   2.154
 6461TIP3    H219390   2.288   3.807   2.136
 6462TIP3   OH219391   4.063   4.748   1.400
 6462TIP3    H119392   3.979   4.716   1.366
 6462TIP3    H219393   4.120   4.751   1.323
 6463TIP3   OH219394   5.364   4.963   1.580
 6463TIP3    H119395   5.411   4.970   1.663
 6463TIP3    H219396   5.399   4.883   1.540
 6464TIP3   OH219397   0.811   4.092   0.571
 6464TIP3    H119398   0.751   4.066   0.642
 6464TIP3    H219399   0.758   4.087   0.492
 6465TIP3   OH219400   5.906   2.696   0.391
 6465TIP3    H119401   5.821   2.672   0.355
 6465TIP3    H219402   5.930   2.622   0.447
 6466TIP3   OH219403   5.121   1.556   1.596
 6466TIP3    H119404   5.185   1.485   1.588
 6466TIP3    H219405   5.173   1.632   1.625
 6467TIP3   OH219406   2.171   5.414   4.549
 6467TIP3    H119407   2.251   5.426   4.601
 6467TIP3    H219408   2.194   5.349   4.483
 6468TIP3   OH219409   5.217   2.664   4.051
 6468TIP3    H119410   5.239   2.663   3.958
 6468TIP3    H219411   5.155   2.592   4.062
 6469TIP3   OH219412   0.038   1.501   4.634
 6469TIP3    H119413  -0.010   1.418   4.636
 6469TIP3    H219414  -0.028   1.566   4.609
 6470TIP3   OH219415   3.922   4.738   0.523
 6470TIP3    H119416   3.860   4.796   0.479
 6470TIP3    H219417   3.880   4.652   0.522
 6471TIP3   OH219418   2.197   0.775   2.314
 6471TIP3    H119419   2.182   0.696   2.364
 6471TIP3    H219420   2.280   0.810   2.348
 6472TIP3   OH219421   4.712   3.066   4.408
 6472TIP3    H119422   4.744   3.152   4.383
 6472TIP3    H219423   4.685   3.076   4.499
 6473TIP3   OH219424   3.778   5.314   2.603
 6473TIP3    H119425   3.734   5.248   2.657
 6473TIP3    H219426   3.868   5.284   2.597
 6474TIP3   OH219427   4.415   1.163   0.332
 6474TIP3    H119428   4.409   1.259   0.331
 6474TIP3    H219429   4.340   1.136   0.386
 6475TIP3   OH219430   5.093   3.472   0.681
 6475TIP3    H119431   5.046   3.431   0.608
 6475TIP3    H219432   5.159   3.408   0.705
 6476TIP3   OH219433   2.950   2.443   4.468
 6476TIP3    H119434   2.924   2.524   4.513
 6476TIP3    H219435   3.041   2.429   4.495
 6477TIP3   OH219436   3.007   4.243   4.971
 6477TIP3    H119437   3.060   4.164   4.983
 6477TIP3    H219438   2.936   4.216   4.912
 6478TIP3   OH219439   5.954   3.141   1.819
 6478TIP3    H119440   5.955   3.231   1.786
 6478TIP3    H219441   5.960   3.086   1.741
 6479TIP3   OH219442   3.924   3.343   1.487
 6479TIP3    H119443   3.948   3.397   1.563
 6479TIP3    H219444   3.834   3.370   1.467
 6480TIP3   OH219445   1.745   5.248   2.337
 6480TIP3    H119446   1.770   5.338   2.315
 6480TIP3    H219447   1.755   5.200   2.255
 6481TIP3   OH219448   2.266   0.189   2.755
 6481TIP3    H119449   2.175   0.179   2.783
 6481TIP3    H219450   2.317   0.178   2.836
 6482TIP3   OH219451   5.312   4.261   4.545
 6482TIP3    H119452   5.256   4.187   4.522
 6482TIP3    H219453   5.351   4.236   4.629
 6483TIP3   OH219454   4.242   0.651   1.480
 6483TIP3    H119455   4.272   0.609   1.561
 6483TIP3    H219456   4.152   0.621   1.468
 6484TIP3   OH219457   4.776   4.613   0.117
 6484TIP3    H119458   4.688   4.610   0.154
 6484TIP3    H219459   4.800   4.705   0.119
 6485TIP3   OH219460   3.927   5.749   1.157
 6485TIP3    H119461   3.887   5.695   1.225
 6485TIP3    H219462   4.020   5.730   1.163
 6486TIP3   OH219463   0.229   0.418   3.167
 6486TIP3    H119464   0.260   0.332   3.198
 6486TIP3    H219465   0.162   0.443   3.230
 6487TIP3   OH219466   1.991   4.302   2.267
 6487TIP3    H119467   2.053   4.230   2.260
 6487TIP3    H219468   1.942   4.301   2.185
 6488TIP3   OH219469   3.560   0.330   4.440
 6488TIP3    H119470   3.485   0.358   4.493
 6488TIP3    H219471   3.593   0.411   4.400
 6489TIP3   OH219472   2.476   1.092   4.175
 6489TIP3    H119473   2.467   1.181   4.141
 6489TIP3    H219474   2.513   1.103   4.262
 6490TIP3   OH219475   1.335   5.178   4.233
 6490TIP3    H119476   1.276   5.112   4.269
 6490TIP3    H219477   1.412   5.176   4.290
 6491TIP3   OH219478   3.586   1.571  -0.005
 6491TIP3    H119479   3.584   1.658  -0.046
 6491TIP3    H219480   3.532   1.580   0.073
 6492TIP3   OH219481   3.002   0.973   4.841
 6492TIP3    H119482   3.006   0.905   4.908
 6492TIP3    H219483   3.000   0.925   4.758
 6493TIP3   OH219484   5.367   2.085   1.220
 6493TIP3    H119485   5.311   2.051   1.290
 6493TIP3    H219486   5.430   2.141   1.266
 6494TIP3   OH219487   4.308   1.115   1.186
 6494TIP3    H119488   4.270   1.125   1.273
 6494TIP3    H219489   4.350   1.029   1.188
 6495TIP3   OH219490   5.872   1.603   0.948
 6495TIP3    H119491   5.838   1.670   1.007
 6495TIP3    H219492   5.966   1.600   0.966
 6496TIP3   OH219493   3.849   5.092   0.511
 6496TIP3    H119494   3.824   5.101   0.603
 6496TIP3    H219495   3.944   5.105   0.511
 6497TIP3   OH219496   4.713   4.976   2.974
 6497TIP3    H119497   4.740   4.964   3.065
 6497TIP3    H219498   4.669   4.894   2.951
 6498TIP3   OH219499   2.238   4.334   3.080
 6498TIP3    H119500   2.232   4.243   3.111
 6498TIP3    H219501   2.324   4.339   3.038
 6499TIP3   OH219502   5.040   3.822   4.179
 6499TIP3    H119503   5.066   3.795   4.267
 6499TIP3    H219504   5.122   3.829   4.130
 6500TIP3   OH219505   5.718   1.817   3.016
 6500TIP3    H119506   5.705   1.746   3.079
 6500TIP3    H219507   5.692   1.779   2.932
 6501TIP3   OH219508   0.732   3.737   0.662
 6501TIP3    H119509   0.766   3.761   0.576
 6501TIP3    H219510   0.747   3.815   0.716
 6502TIP3   OH219511   0.587   4.718   1.147
 6502TIP3    H119512   0.535   4.766   1.083
 6502TIP3    H219513   0.663   4.686   1.097
 6503TIP3   OH219514   5.656   5.783   1.401
 6503TIP3    H119515   5.747   5.801   1.379
 6503TIP3    H219516   5.659   5.703   1.453
 6504TIP3   OH219517   3.812   2.675   3.544
 6504TIP3    H119518   3.835   2.699   3.454
 6504TIP3    H219519   3.777   2.755   3.583
 6505TIP3   OH219520   3.871   0.699   4.852
 6505TIP3    H119521   3.784   0.679   4.887
 6505TIP3    H219522   3.912   0.753   4.919
 6506TIP3   OH219523   4.059   4.020   1.625
 6506TIP3    H119524   3.964   4.029   1.626
 6506TIP3    H219525   4.078   3.970   1.546
 6507TIP3   OH219526   4.530   0.436   1.509
 6507TIP3    H119527   4.581   0.373   1.560
 6507TIP3    H219528   4.500   0.500   1.574
 6508TIP3   OH219529   5.241   1.997   1.444
 6508TIP3    H119530   5.244   2.059   1.518
 6508TIP3    H219531   5.175   1.933   1.470
 6509TIP3   OH219532   0.084   0.812   1.770
 6509TIP3    H119533   0.148   0.741   1.765
 6509TIP3    H219534   0.038   0.809   1.686
 6510TIP3   OH219535   2.694   4.490   1.283
 6510TIP3    H119536   2.602   4.515   1.275
 6510TIP3    H219537   2.731   4.552   1.346
 6511TIP3   OH219538   4.842   2.352   3.663
 6511TIP3    H119539   4.785   2.413   3.710
 6511TIP3    H219540   4.892   2.407   3.603
 6512TIP3   OH219541   4.567   5.124   3.553
 6512TIP3    H119542   4.586   5.205   3.601
 6512TIP3    H219543   4.494   5.147   3.496
 6513TIP3   OH219544   0.255   4.473   1.529
 6513TIP3    H119545   0.242   4.500   1.620
 6513TIP3    H219546   0.277   4.554   1.483
 6514TIP3   OH219547   3.468   5.221   1.756
 6514TIP3    H119548   3.547   5.276   1.753
 6514TIP3    H219549   3.409   5.267   1.815
 6515TIP3   OH219550   1.782   3.429   0.142
 6515TIP3    H119551   1.818   3.491   0.079
 6515TIP3    H219552   1.690   3.453   0.150
 6516TIP3   OH219553   6.409   2.850   2.229
 6516TIP3    H119554   6.368   2.804   2.156
 6516TIP3    H219555   6.363   2.934   2.233
 6517TIP3   OH219556   2.498   5.750   1.755
 6517TIP3    H119557   2.547   5.684   1.805
 6517TIP3    H219558   2.407   5.740   1.784
 6518TIP3   OH219559   3.366   5.620   4.016
 6518TIP3    H119560   3.427   5.603   3.944
 6518TIP3    H219561   3.325   5.535   4.033
 6519TIP3   OH219562   4.295   3.577   1.362
 6519TIP3    H119563   4.318   3.591   1.270
 6519TIP3    H219564   4.227   3.509   1.360
 6520TIP3   OH219565   3.750   0.833   2.790
 6520TIP3    H119566   3.752   0.753   2.736
 6520TIP3    H219567   3.658   0.841   2.817
 6521TIP3   OH219568   1.909   2.052   1.633
 6521TIP3    H119569   1.814   2.064   1.627
 6521TIP3    H219570   1.930   1.991   1.563
 6522TIP3   OH219571   3.897   2.258   1.140
 6522TIP3    H119572   3.883   2.165   1.119
 6522TIP3    H219573   3.966   2.286   1.080
 6523TIP3   OH219574   3.103   2.389   1.100
 6523TIP3    H119575   3.192   2.376   1.069
 6523TIP3    H219576   3.105   2.361   1.192
 6524TIP3   OH219577   3.492   5.278   4.429
 6524TIP3    H119578   3.519   5.352   4.373
 6524TIP3    H219579   3.534   5.296   4.513
 6525TIP3   OH219580   4.857   2.963   1.234
 6525TIP3    H119581   4.889   2.884   1.277
 6525TIP3    H219582   4.821   2.933   1.151
 6526TIP3   OH219583   4.358   0.544   4.243
 6526TIP3    H119584   4.306   0.548   4.323
 6526TIP3    H219585   4.357   0.452   4.218
 6527TIP3   OH219586   3.260   2.530   0.769
 6527TIP3    H119587   3.309   2.481   0.835
 6527TIP3    H219588   3.224   2.605   0.815
 6528TIP3   OH219589   6.199   5.452   2.591
 6528TIP3    H119590   6.289   5.447   2.560
 6528TIP3    H219591   6.155   5.377   2.552
 6529TIP3   OH219592   4.639   2.205   0.011
 6529TIP3    H119593   4.572   2.152   0.055
 6529TIP3    H219594   4.689   2.244   0.083
 6530TIP3   OH219595   0.857   4.521   3.446
 6530TIP3    H119596   0.815   4.593   3.492
 6530TIP3    H219597   0.949   4.546   3.439
 6531TIP3   OH219598   1.347   0.495   3.288
 6531TIP3    H119599   1.427   0.469   3.242
 6531TIP3    H219600   1.289   0.527   3.219
 6532TIP3   OH219601   5.563   0.756   4.934
 6532TIP3    H119602   5.649   0.798   4.934
 6532TIP3    H219603   5.549   0.729   5.025
 6533TIP3   OH219604   6.247   5.481   0.314
 6533TIP3    H119605   6.189   5.552   0.339
 6533TIP3    H219606   6.205   5.439   0.239
 6534TIP3   OH219607   2.795   5.206   0.526
 6534TIP3    H119608   2.756   5.200   0.613
 6534TIP3    H219609   2.779   5.120   0.487
 6535TIP3   OH219610   6.233   0.595   1.581
 6535TIP3    H119611   6.281   0.522   1.540
 6535TIP3    H219612   6.167   0.619   1.516
 6536TIP3   OH219613   6.236   4.614   2.848
 6536TIP3    H119614   6.232   4.629   2.754
 6536TIP3    H219615   6.228   4.519   2.858
 6537TIP3   OH219616   1.149   2.164   3.406
 6537TIP3    H119617   1.061   2.131   3.426
 6537TIP3    H219618   1.168   2.225   3.477
 6538TIP3   OH219619   3.232   5.412   4.147
 6538TIP3    H119620   3.278   5.416   4.231
 6538TIP3    H219621   3.201   5.322   4.141
 6539TIP3   OH219622   0.516   4.208   2.708
 6539TIP3    H119623   0.428   4.244   2.722
 6539TIP3    H219624   0.507   4.115   2.731
 6540TIP3   OH219625   3.142   1.909   3.397
 6540TIP3    H119626   3.072   1.872   3.344
 6540TIP3    H219627   3.138   1.862   3.480
 6541TIP3   OH219628   4.516   4.549   2.094
 6541TIP3    H119629   4.521   4.528   2.000
 6541TIP3    H219630   4.557   4.473   2.137
 6542TIP3   OH219631   4.309   1.838   3.915
 6542TIP3    H119632   4.265   1.763   3.875
 6542TIP3    H219633   4.398   1.835   3.880
 6543TIP3   OH219634   0.513   4.578   3.747
 6543TIP3    H119635   0.452   4.651   3.734
 6543TIP3    H219636   0.539   4.586   3.839
 6544TIP3   OH219637   0.298   1.113   4.437
 6544TIP3    H119638   0.316   1.207   4.438
 6544TIP3    H219639   0.363   1.077   4.376
 6545TIP3   OH219640   4.344   2.601   0.656
 6545TIP3    H119641   4.390   2.604   0.572
 6545TIP3    H219642   4.392   2.663   0.712
 6546TIP3   OH219643   0.309   1.959   5.098
 6546TIP3    H119644   0.346   1.871   5.101
 6546TIP3    H219645   0.243   1.955   5.029
 6547TIP3   OH219646   3.431   4.012   3.286
 6547TIP3    H119647   3.350   4.061   3.269
 6547TIP3    H219648   3.496   4.052   3.228
 6548TIP3   OH219649   6.029   5.449   4.227
 6548TIP3    H119650   6.026   5.521   4.164
 6548TIP3    H219651   5.937   5.433   4.250
 6549TIP3   OH219652   2.131   2.077   1.863
 6549TIP3    H119653   2.194   2.040   1.801
 6549TIP3    H219654   2.046   2.053   1.828
 6550TIP3   OH219655   3.832   5.172   3.103
 6550TIP3    H119656   3.766   5.149   3.168
 6550TIP3    H219657   3.836   5.268   3.105
 6551TIP3   OH219658   2.053   0.630   0.546
 6551TIP3    H119659   2.069   0.703   0.486
 6551TIP3    H219660   2.051   0.670   0.633
 6552TIP3   OH219661   1.834   1.067   4.500
 6552TIP3    H119662   1.913   1.026   4.535
 6552TIP3    H219663   1.774   0.995   4.484
 6553TIP3   OH219664   3.346   3.833   1.366
 6553TIP3    H119665   3.333   3.742   1.339
 6553TIP3    H219666   3.356   3.830   1.461
 6554TIP3   OH219667   4.768   2.547   3.437
 6554TIP3    H119668   4.683   2.503   3.447
 6554TIP3    H219669   4.745   2.637   3.416
 6555TIP3   OH219670   6.333   5.490   0.842
 6555TIP3    H119671   6.273   5.416   0.832
 6555TIP3    H219672   6.353   5.517   0.752
 6556TIP3   OH219673   1.110   5.642   2.519
 6556TIP3    H119674   1.027   5.634   2.471
 6556TIP3    H219675   1.163   5.569   2.488
 6557TIP3   OH219676   0.139   3.251   3.101
 6557TIP3    H119677   0.089   3.170   3.106
 6557TIP3    H219678   0.139   3.284   3.191
 6558TIP3   OH219679   6.001   4.105   4.209
 6558TIP3    H119680   5.996   4.061   4.294
 6558TIP3    H219681   6.018   4.197   4.231
 6559TIP3   OH219682   0.928   5.528   4.366
 6559TIP3    H119683   0.912   5.445   4.321
 6559TIP3    H219684   0.959   5.587   4.298
 6560TIP3   OH219685   6.164   0.210   1.675
 6560TIP3    H119686   6.120   0.144   1.622
 6560TIP3    H219687   6.144   0.185   1.766
 6561TIP3   OH219688   4.313   4.671   4.412
 6561TIP3    H119689   4.386   4.706   4.464
 6561TIP3    H219690   4.341   4.582   4.388
 6562TIP3   OH219691   3.577   0.809   1.203
 6562TIP3    H119692   3.597   0.756   1.126
 6562TIP3    H219693   3.651   0.795   1.262
 6563TIP3   OH219694   4.684   0.488   4.116
 6563TIP3    H119695   4.677   0.504   4.210
 6563TIP3    H219696   4.617   0.543   4.077
 6564TIP3   OH219697   0.382   1.543   0.901
 6564TIP3    H119698   0.323   1.495   0.959
 6564TIP3    H219699   0.412   1.617   0.954
 6565TIP3   OH219700   2.549   0.850   0.240
 6565TIP3    H119701   2.586   0.903   0.168
 6565TIP3    H219702   2.520   0.770   0.197
 6566TIP3   OH219703   5.376   1.019   0.766
 6566TIP3    H119704   5.385   0.931   0.801
 6566TIP3    H219705   5.465   1.056   0.770
 6567TIP3   OH219706   0.160   2.221   4.555
 6567TIP3    H119707   0.095   2.197   4.490
 6567TIP3    H219708   0.208   2.294   4.516
 6568TIP3   OH219709   2.291   0.165   0.530
 6568TIP3    H119710   2.358   0.223   0.568
 6568TIP3    H219711   2.212   0.184   0.579
 6569TIP3   OH219712   3.366   0.779   0.468
 6569TIP3    H119713   3.274   0.758   0.480
 6569TIP3    H219714   3.372   0.815   0.380
 6570TIP3   OH219715   6.290   1.411   4.316
 6570TIP3    H119716   6.299   1.328   4.363
 6570TIP3    H219717   6.377   1.451   4.321
 6571TIP3   OH219718   5.098   4.089   0.047
 6571TIP3    H119719   5.047   4.022   0.094
 6571TIP3    H219720   5.036   4.162   0.037
 6572TIP3   OH219721   1.239   2.747   3.069
 6572TIP3    H119722   1.234   2.652   3.080
 6572TIP3    H219723   1.150   2.779   3.084
 6573TIP3   OH219724   1.131   3.141   0.629
 6573TIP3    H119725   1.143   3.220   0.682
 6573TIP3    H219726   1.042   3.113   0.647
 6574TIP3   OH219727   3.295   4.220   1.213
 6574TIP3    H119728   3.301   4.315   1.207
 6574TIP3    H219729   3.205   4.200   1.189
 6575TIP3   OH219730   2.858   2.600   3.186
 6575TIP3    H119731   2.814   2.521   3.217
 6575TIP3    H219732   2.878   2.649   3.265
 6576TIP3   OH219733   4.818   5.736   0.433
 6576TIP3    H119734   4.857   5.732   0.521
 6576TIP3    H219735   4.893   5.726   0.374
 6577TIP3   OH219736   1.827   4.704   0.738
 6577TIP3    H119737   1.753   4.661   0.780
 6577TIP3    H219738   1.903   4.679   0.790
 6578TIP3   OH219739   3.899   1.415   3.246
 6578TIP3    H119740   3.924   1.507   3.246
 6578TIP3    H219741   3.982   1.367   3.244
 6579TIP3   OH219742   0.638   1.127   4.980
 6579TIP3    H119743   0.652   1.090   4.893
 6579TIP3    H219744   0.618   1.219   4.964
 6580TIP3   OH219745   1.980   1.184   4.829
 6580TIP3    H119746   1.946   1.129   4.759
 6580TIP3    H219747   2.004   1.266   4.785
 6581TIP3   OH219748   6.068   4.962   1.849
 6581TIP3    H119749   6.001   5.000   1.906
 6581TIP3    H219750   6.115   5.037   1.814
 6582TIP3   OH219751   0.266   4.438   0.249
 6582TIP3    H119752   0.225   4.360   0.285
 6582TIP3    H219753   0.344   4.406   0.204
 6583TIP3   OH219754   0.069   3.967   3.071
 6583TIP3    H119755   0.074   3.979   2.976
 6583TIP3    H219756  -0.018   3.997   3.095
 6584TIP3   OH219757   0.583   5.075   0.997
 6584TIP3    H119758   0.532   5.069   0.916
 6584TIP3    H219759   0.565   5.163   1.030
 6585TIP3   OH219760   4.167   5.649   1.204
 6585TIP3    H119761   4.229   5.691   1.145
 6585TIP3    H219762   4.220   5.623   1.280
 6586TIP3   OH219763   5.946   5.433   2.737
 6586TIP3    H119764   6.017   5.458   2.678
 6586TIP3    H219765   5.939   5.506   2.798
 6587TIP3   OH219766   1.995   4.851  -0.043
 6587TIP3    H119767   1.955   4.774  -0.001
 6587TIP3    H219768   2.017   4.909   0.029
 6588TIP3   OH219769   0.099   1.402   1.307
 6588TIP3    H119770   0.099   1.322   1.254
 6588TIP3    H219771   0.179   1.447   1.281
 6589TIP3   OH219772   3.594   4.040   1.876
 6589TIP3    H119773   3.544   3.958   1.873
 6589TIP3    H219774   3.533   4.107   1.847
 6590TIP3   OH219775   1.965   1.177   0.239
 6590TIP3    H119776   1.979   1.270   0.225
 6590TIP3    H219777   1.906   1.151   0.168
 6591TIP3   OH219778   4.312   4.224   5.056
 6591TIP3    H119779   4.375   4.155   5.038
 6591TIP3    H219780   4.352   4.303   5.018
 6592TIP3   OH219781   3.501   1.741   4.514
 6592TIP3    H119782   3.538   1.807   4.455
 6592TIP3    H219783   3.541   1.760   4.599
 6593TIP3   OH219784   1.088   3.832   2.296
 6593TIP3    H119785   1.016   3.776   2.324
 6593TIP3    H219786   1.050   3.920   2.291
 6594TIP3   OH219787   1.688   0.503   0.338
 6594TIP3    H119788   1.766   0.458   0.369
 6594TIP3    H219789   1.721   0.577   0.286
 6595TIP3   OH219790   3.101   1.976   2.402
 6595TIP3    H119791   3.018   2.021   2.385
 6595TIP3    H219792   3.167   2.034   2.365
 6596TIP3   OH219793   2.813   0.726   0.398
 6596TIP3    H119794   2.735   0.693   0.443
 6596TIP3    H219795   2.826   0.814   0.434
 6597TIP3   OH219796   0.259   5.080   2.081
 6597TIP3    H119797   0.303   5.018   2.139
 6597TIP3    H219798   0.236   5.028   2.004
 6598TIP3   OH219799   4.472   4.953   0.076
 6598TIP3    H119800   4.511   4.883   0.023
 6598TIP3    H219801   4.536   5.024   0.073
 6599TIP3   OH219802   3.296   0.582   0.835
 6599TIP3    H119803   3.223   0.642   0.853
 6599TIP3    H219804   3.312   0.539   0.919
 6600TIP3   OH219805   2.074   2.818   2.302
 6600TIP3    H119806   2.167   2.809   2.282
 6600TIP3    H219807   2.042   2.728   2.308
 6601TIP3   OH219808   4.872   3.581   5.089
 6601TIP3    H119809   4.898   3.624   5.171
 6601TIP3    H219810   4.938   3.514   5.075
 6602TIP3   OH219811   5.014  -0.027   0.702
 6602TIP3    H119812   5.079  -0.066   0.761
 6602TIP3    H219813   5.063  -0.007   0.622
 6603TIP3   OH219814   2.192   0.745   0.306
 6603TIP3    H119815   2.211   0.688   0.232
 6603TIP3    H219816   2.220   0.832   0.278
 6604TIP3   OH219817   3.797   0.503   5.167
 6604TIP3    H119818   3.834   0.587   5.194
 6604TIP3    H219819   3.871   0.442   5.171
 6605TIP3   OH219820   2.924   4.588   3.540
 6605TIP3    H119821   2.975   4.608   3.461
 6605TIP3    H219822   2.963   4.507   3.574
 6606TIP3   OH219823   0.887   1.016   0.812
 6606TIP3    H119824   0.797   0.992   0.834
 6606TIP3    H219825   0.939   0.981   0.884
 6607TIP3   OH219826   1.281   0.383   0.552
 6607TIP3    H119827   1.195   0.366   0.512
 6607TIP3    H219828   1.330   0.429   0.484
 6608TIP3   OH219829   5.833   0.698   2.415
 6608TIP3    H119830   5.752   0.679   2.462
 6608TIP3    H219831   5.894   0.631   2.446
 6609TIP3   OH219832   1.615   3.643   3.928
 6609TIP3    H119833   1.524   3.671   3.916
 6609TIP3    H219834   1.621   3.560   3.880
 6610TIP3   OH219835   5.814   2.213   2.936
 6610TIP3    H119836   5.890   2.211   2.877
 6610TIP3    H219837   5.853   2.221   3.024
 6611TIP3   OH219838   2.033   3.168   2.307
 6611TIP3    H119839   2.067   3.079   2.318
 6611TIP3    H219840   2.108   3.225   2.322
 6612TIP3   OH219841   4.758   3.662   4.720
 6612TIP3    H119842   4.688   3.642   4.782
 6612TIP3    H219843   4.713   3.681   4.638
 6613TIP3   OH219844   5.960   3.510   1.496
 6613TIP3    H119845   5.971   3.496   1.402
 6613TIP3    H219846   5.958   3.606   1.506
 6614TIP3   OH219847   2.615   1.761   2.176
 6614TIP3    H119848   2.556   1.685   2.177
 6614TIP3    H219849   2.649   1.766   2.266
 6615TIP3   OH219850   1.045   5.644   1.347
 6615TIP3    H119851   0.961   5.687   1.332
 6615TIP3    H219852   1.032   5.592   1.426
 6616TIP3   OH219853   3.070   4.982   5.001
 6616TIP3    H119854   3.099   4.978   5.092
 6616TIP3    H219855   3.013   5.059   4.997
 6617TIP3   OH219856   1.752   1.119   2.474
 6617TIP3    H119857   1.781   1.029   2.488
 6617TIP3    H219858   1.820   1.172   2.515
 6618TIP3   OH219859   1.978   2.230   3.965
 6618TIP3    H119860   1.988   2.274   3.881
 6618TIP3    H219861   1.899   2.268   4.003
 6619TIP3   OH219862   0.877   5.654   2.376
 6619TIP3    H119863   0.809   5.714   2.409
 6619TIP3    H219864   0.852   5.639   2.285
 6620TIP3   OH219865   0.983   4.415   2.256
 6620TIP3    H119866   0.916   4.402   2.323
 6620TIP3    H219867   1.058   4.451   2.304
 6621TIP3   OH219868   4.555   4.483   1.844
 6621TIP3    H119869   4.490   4.475   1.774
 6621TIP3    H219870   4.635   4.447   1.805
 6622TIP3   OH219871   2.522   3.714   2.346
 6622TIP3    H119872   2.505   3.629   2.306
 6622TIP3    H219873   2.611   3.736   2.317
 6623TIP3   OH219874   6.160   5.634   3.457
 6623TIP3    H119875   6.098   5.608   3.526
 6623TIP3    H219876   6.133   5.722   3.432
 6624TIP3   OH219877   3.982   5.829   4.338
 6624TIP3    H119878   3.900   5.836   4.288
 6624TIP3    H219879   3.979   5.902   4.399
 6625TIP3   OH219880   2.766   0.722   2.830
 6625TIP3    H119881   2.674   0.698   2.814
 6625TIP3    H219882   2.814   0.639   2.819
 6626TIP3   OH219883   1.678   0.237   1.019
 6626TIP3    H119884   1.638   0.243   0.933
 6626TIP3    H219885   1.727   0.155   1.018
 6627TIP3   OH219886   1.422   1.208   0.358
 6627TIP3    H119887   1.452   1.209   0.267
 6627TIP3    H219888   1.451   1.292   0.394
 6628TIP3   OH219889   4.268   2.777   2.046
 6628TIP3    H119890   4.172   2.782   2.052
 6628TIP3    H219891   4.294   2.726   2.123
 6629TIP3   OH219892   0.308   5.233   4.351
 6629TIP3    H119893   0.366   5.159   4.372
 6629TIP3    H219894   0.333   5.259   4.263
 6630TIP3   OH219895   3.588   5.145   2.749
 6630TIP3    H119896   3.523   5.211   2.774
 6630TIP3    H219897   3.542   5.088   2.687
 6631TIP3   OH219898   5.867   0.480   4.232
 6631TIP3    H119899   5.894   0.392   4.207
 6631TIP3    H219900   5.773   0.473   4.250
 6632TIP3   OH219901   2.432   4.914   2.072
 6632TIP3    H119902   2.471   4.864   2.144
 6632TIP3    H219903   2.370   4.854   2.031
 6633TIP3   OH219904   5.997   5.632   0.330
 6633TIP3    H119905   5.991   5.706   0.391
 6633TIP3    H219906   6.027   5.671   0.248
 6634TIP3   OH219907   1.259   0.724   0.254
 6634TIP3    H119908   1.303   0.643   0.278
 6634TIP3    H219909   1.328   0.780   0.219
 6635TIP3   OH219910   0.600   0.041   3.795
 6635TIP3    H119911   0.586   0.065   3.887
 6635TIP3    H219912   0.691   0.064   3.778
 6636TIP3   OH219913   3.424   1.783   3.654
 6636TIP3    H119914   3.329   1.794   3.660
 6636TIP3    H219915   3.436   1.693   3.625
 6637TIP3   OH219916   3.601   3.385   3.099
 6637TIP3    H119917   3.684   3.340   3.115
 6637TIP3    H219918   3.547   3.321   3.052
 6638TIP3   OH219919   1.640   1.750   0.544
 6638TIP3    H119920   1.721   1.796   0.567
 6638TIP3    H219921   1.629   1.684   0.612
 6639TIP3   OH219922   0.864   0.291   0.508
 6639TIP3    H119923   0.814   0.212   0.531
 6639TIP3    H219924   0.838   0.356   0.574
 6640TIP3   OH219925   3.668   3.270   1.184
 6640TIP3    H119926   3.758   3.249   1.211
 6640TIP3    H219927   3.646   3.203   1.120
 6641TIP3   OH219928   4.574   2.172   2.618
 6641TIP3    H119929   4.490   2.216   2.629
 6641TIP3    H219930   4.639   2.237   2.645
 6642TIP3   OH219931   0.609   5.801   2.749
 6642TIP3    H119932   0.597   5.896   2.756
 6642TIP3    H219933   0.604   5.770   2.840
 6643TIP3   OH219934   2.511   1.481   2.817
 6643TIP3    H119935   2.440   1.544   2.807
 6643TIP3    H219936   2.476   1.400   2.780
 6644TIP3   OH219937   3.122   5.733   5.087
 6644TIP3    H119938   3.177   5.704   5.014
 6644TIP3    H219939   3.046   5.773   5.045
 6645TIP3   OH219940   5.849   3.104   3.862
 6645TIP3    H119941   5.804   3.035   3.813
 6645TIP3    H219942   5.883   3.060   3.939
   6.35263   5.98931   5.18690   0.00000   0.00000  -2.11755   0.00000  -2.11755  -2.99466
