Title t=   1.00000 step= 500
19927
    1ASP      N    1   2.009   0.425   2.905
    1ASP    HT1    2   2.036   0.325   2.898
    1ASP    HT2    3   1.905   0.433   2.905
    1ASP    HT3    4   2.039   0.445   3.003
    1ASP     CA    5   2.066   0.525   2.806
    1ASP     HA    6   2.171   0.536   2.831
    1ASP     CB    7   2.047   0.472   2.668
    1ASP    HB1    8   1.949   0.499   2.625
    1ASP    HB2    9   2.057   0.361   2.665
    1ASP     CG   10   2.142   0.533   2.562
    1ASP    OD1   11   2.223   0.624   2.583
    1ASP    OD2   12   2.137   0.478   2.450
    1ASP      C   13   2.007   0.662   2.826
    1ASP      O   14   1.908   0.675   2.901
    2ALA      N   15   2.050   0.765   2.755
    2ALA     HN   16   2.123   0.743   2.692
    2ALA     CA   17   2.000   0.900   2.763
    2ALA     HA   18   2.011   0.922   2.868
    2ALA     CB   19   2.083   0.980   2.667
    2ALA    HB1   20   2.076   0.945   2.561
    2ALA    HB2   21   2.191   0.969   2.690
    2ALA    HB3   22   2.050   1.083   2.692
    2ALA      C   23   1.845   0.918   2.732
    2ALA      O   24   1.786   0.851   2.649
    3ASP      N   25   1.780   1.009   2.810
    3ASP     HN   26   1.829   1.070   2.871
    3ASP     CA   27   1.644   1.038   2.786
    3ASP     HA   28   1.582   0.949   2.783
    3ASP     CB   29   1.586   1.140   2.897
    3ASP    HB1   30   1.488   1.189   2.876
    3ASP    HB2   31   1.668   1.214   2.903
    3ASP     CG   32   1.577   1.076   3.033
    3ASP    OD1   33   1.585   0.951   3.049
    3ASP    OD2   34   1.552   1.150   3.129
    3ASP      C   35   1.616   1.089   2.642
    3ASP      O   36   1.699   1.153   2.576
    4GLY      N   37   1.494   1.051   2.587
    4GLY     HN   38   1.428   0.996   2.637
    4GLY     CA   39   1.442   1.102   2.456
    4GLY    HA1   40   1.350   1.049   2.439
    4GLY    HA2   41   1.520   1.090   2.383
    4GLY      C   42   1.402   1.248   2.452
    4GLY      O   43   1.439   1.325   2.536
    5PRO      N   44   1.318   1.282   2.357
    5PRO     CD   45   1.282   1.207   2.236
    5PRO    HD1   46   1.206   1.130   2.262
    5PRO    HD2   47   1.371   1.153   2.199
    5PRO     CA   48   1.267   1.420   2.349
    5PRO     HA   49   1.346   1.492   2.364
    5PRO     CB   50   1.180   1.428   2.218
    5PRO    HB1   51   1.194   1.525   2.165
    5PRO    HB2   52   1.069   1.425   2.212
    5PRO     CG   53   1.234   1.315   2.137
    5PRO    HG1   54   1.168   1.276   2.056
    5PRO    HG2   55   1.328   1.350   2.090
    5PRO      C   56   1.170   1.441   2.464
    5PRO      O   57   1.099   1.350   2.497
    6GLY      N   58   1.176   1.554   2.538
    6GLY     HN   59   1.239   1.625   2.508
    6GLY     CA   60   1.093   1.588   2.648
    6GLY    HA1   61   1.125   1.682   2.691
    6GLY    HA2   62   1.083   1.517   2.729
    6GLY      C   63   0.953   1.606   2.601
    6GLY      O   64   0.915   1.604   2.485
    7ASP      N   65   0.860   1.618   2.702
    7ASP     HN   66   0.889   1.611   2.798
    7ASP     CA   67   0.720   1.639   2.681
    7ASP     HA   68   0.691   1.545   2.636
    7ASP     CB   69   0.652   1.656   2.829
    7ASP    HB1   70   0.544   1.682   2.820
    7ASP    HB2   71   0.703   1.742   2.878
    7ASP     CG   72   0.660   1.532   2.916
    7ASP    OD1   73   0.605   1.537   3.025
    7ASP    OD2   74   0.710   1.427   2.874
    7ASP      C   75   0.681   1.765   2.603
    7ASP      O   76   0.741   1.871   2.615
    8PRO      N   77   0.578   1.760   2.514
    8PRO     CD   78   0.503   1.636   2.476
    8PRO    HD1   79   0.464   1.579   2.563
    8PRO    HD2   80   0.562   1.561   2.420
    8PRO     CA   81   0.520   1.875   2.444
    8PRO     HA   82   0.582   1.888   2.357
    8PRO     CB   83   0.378   1.822   2.405
    8PRO    HB1   84   0.336   1.885   2.324
    8PRO    HB2   85   0.319   1.836   2.499
    8PRO     CG   86   0.397   1.673   2.378
    8PRO    HG1   87   0.305   1.610   2.384
    8PRO    HG2   88   0.444   1.653   2.280
    8PRO      C   89   0.512   2.010   2.520
    8PRO      O   90   0.490   2.014   2.636
    9ASP      N   91   0.536   2.120   2.457
    9ASP     HN   92   0.532   2.127   2.358
    9ASP     CA   93   0.539   2.246   2.530
    9ASP     HA   94   0.598   2.238   2.620
    9ASP     CB   95   0.595   2.358   2.436
    9ASP    HB1   96   0.576   2.463   2.467
    9ASP    HB2   97   0.547   2.337   2.339
    9ASP     CG   98   0.737   2.338   2.413
    9ASP    OD1   99   0.804   2.284   2.507
    9ASP    OD2  100   0.787   2.393   2.311
    9ASP      C  101   0.400   2.291   2.578
    9ASP      O  102   0.302   2.274   2.513
   10ALA      N  103   0.388   2.348   2.702
   10ALA     HN  104   0.463   2.375   2.762
   10ALA     CA  105   0.259   2.375   2.756
   10ALA     HA  106   0.198   2.286   2.754
   10ALA     CB  107   0.260   2.413   2.904
   10ALA    HB1  108   0.303   2.515   2.912
   10ALA    HB2  109   0.324   2.349   2.970
   10ALA    HB3  110   0.161   2.428   2.951
   10ALA      C  111   0.181   2.483   2.673
   10ALA      O  112   0.235   2.581   2.629
   11GLY      N  113   0.046   2.471   2.659
   11GLY     HN  114  -0.001   2.396   2.705
   11GLY     CA  115   6.324   2.561   2.568
   11GLY    HA1  116   6.378   2.646   2.529
   11GLY    HA2  117   6.230   2.584   2.615
   11GLY      C  118   6.274   2.484   2.445
   11GLY    OT1  119   6.274   2.354   2.435
   11GLY    OT2  120   6.225   2.555   2.358
   12SOD    SOD  121   4.861   2.987   4.393
   13SOD    SOD  122   2.907   5.276   0.208
   14SOD    SOD  123   0.762   0.223   3.064
   15SOD    SOD  124   6.115   1.407   1.301
   16SOD    SOD  125   1.637   2.545   3.218
   17SOD    SOD  126   2.740   2.941   2.980
   18SOD    SOD  127   1.708   3.174   0.910
   19SOD    SOD  128   6.132   0.225   4.863
   20SOD    SOD  129   0.531   3.924   1.901
   21SOD    SOD  130   4.460   5.005   3.392
   22SOD    SOD  131   0.635   2.065   1.405
   23SOD    SOD  132   2.339   5.341   1.277
   24SOD    SOD  133   2.695   0.337   1.963
   25SOD    SOD  134   0.178   0.844   1.699
   26SOD    SOD  135   2.362   4.660   1.785
   27SOD    SOD  136   0.378   3.797   2.996
   28SOD    SOD  137   3.201   0.099   3.921
   29SOD    SOD  138   0.093   2.954   0.446
   30SOD    SOD  139   0.939   2.588   3.488
   31SOD    SOD  140   3.534   4.027   0.384
   32SOD    SOD  141   5.122   0.817   0.062
   33SOD    SOD  142   5.384   1.034   4.618
   34CLA    CLA  143   1.699   2.811   3.772
   35CLA    CLA  144   0.529   1.248   1.951
   36CLA    CLA  145   0.337   4.599   2.035
   37CLA    CLA  146   2.523   2.607   3.515
   38CLA    CLA  147   3.795   2.046   4.880
   39CLA    CLA  148   3.362   5.867   1.053
   40CLA    CLA  149   1.688   1.192   4.614
   41CLA    CLA  150   1.970   2.377   1.033
   42CLA    CLA  151   0.111   3.223   0.923
   43CLA    CLA  152   5.193   4.520   2.292
   44CLA    CLA  153   4.493   1.905   0.035
   45CLA    CLA  154   5.823   3.047   3.562
   46CLA    CLA  155   5.171   0.320   0.318
   47CLA    CLA  156   5.859   1.081   1.385
   48CLA    CLA  157   3.465   0.693   4.774
   49CLA    CLA  158   0.703   2.535   1.899
   50CLA    CLA  159   5.036   0.538   3.777
   51CLA    CLA  160   0.027   2.764   0.864
   52TIP3   OH2  161   0.142   2.846   1.339
   52TIP3    H1  162   0.233   2.816   1.345
   52TIP3    H2  163   0.117   2.865   1.430
   53TIP3   OH2  164   5.364   1.224   5.144
   53TIP3    H1  165   5.318   1.151   5.186
   53TIP3    H2  166   5.419   1.183   5.077
   54TIP3   OH2  167   1.095   0.275   2.751
   54TIP3    H1  168   1.174   0.262   2.803
   54TIP3    H2  169   1.123   0.260   2.660
   55TIP3   OH2  170   3.624   2.452   1.674
   55TIP3    H1  171   3.693   2.402   1.630
   55TIP3    H2  172   3.543   2.403   1.656
   56TIP3   OH2  173   3.555   1.352   3.880
   56TIP3    H1  174   3.487   1.323   3.941
   56TIP3    H2  175   3.603   1.419   3.929
   57TIP3   OH2  176   4.197   3.601   1.654
   57TIP3    H1  177   4.161   3.667   1.712
   57TIP3    H2  178   4.291   3.618   1.654
   58TIP3   OH2  179   0.684   0.312   0.874
   58TIP3    H1  180   0.717   0.223   0.865
   58TIP3    H2  181   0.702   0.335   0.965
   59TIP3   OH2  182   2.836   2.329   0.965
   59TIP3    H1  183   2.815   2.416   0.932
   59TIP3    H2  184   2.799   2.327   1.054
   60TIP3   OH2  185   4.716   2.313   1.737
   60TIP3    H1  186   4.666   2.322   1.656
   60TIP3    H2  187   4.650   2.299   1.805
   61TIP3   OH2  188   5.250   3.030   4.111
   61TIP3    H1  189   5.248   3.125   4.104
   61TIP3    H2  190   5.216   2.999   4.026
   62TIP3   OH2  191   2.805   0.636   3.188
   62TIP3    H1  192   2.789   0.616   3.096
   62TIP3    H2  193   2.718   0.637   3.228
   63TIP3   OH2  194   3.060   4.579   2.647
   63TIP3    H1  195   2.988   4.634   2.678
   63TIP3    H2  196   3.095   4.539   2.727
   64TIP3   OH2  197   5.801   0.980   4.877
   64TIP3    H1  198   5.837   0.949   4.794
   64TIP3    H2  199   5.873   0.972   4.939
   65TIP3   OH2  200   5.913   2.403   1.622
   65TIP3    H1  201   5.861   2.483   1.611
   65TIP3    H2  202   5.848   2.332   1.626
   66TIP3   OH2  203   3.497   3.535   4.139
   66TIP3    H1  204   3.416   3.541   4.088
   66TIP3    H2  205   3.545   3.463   4.099
   67TIP3   OH2  206   1.341   0.690   0.319
   67TIP3    H1  207   1.408   0.622   0.326
   67TIP3    H2  208   1.324   0.697   0.225
   68TIP3   OH2  209   2.596   3.727   0.379
   68TIP3    H1  210   2.649   3.793   0.335
   68TIP3    H2  211   2.654   3.687   0.444
   69TIP3   OH2  212   3.331   2.581   1.574
   69TIP3    H1  213   3.357   2.489   1.574
   69TIP3    H2  214   3.240   2.580   1.544
   70TIP3   OH2  215   2.984   4.967   3.075
   70TIP3    H1  216   2.998   5.008   3.161
   70TIP3    H2  217   2.966   4.875   3.096
   71TIP3   OH2  218   1.127   5.771   2.827
   71TIP3    H1  219   1.220   5.775   2.803
   71TIP3    H2  220   1.100   5.683   2.802
   72TIP3   OH2  221   2.697   1.516   2.985
   72TIP3    H1  222   2.731   1.466   3.059
   72TIP3    H2  223   2.683   1.604   3.021
   73TIP3   OH2  224   4.382   1.688   3.474
   73TIP3    H1  225   4.445   1.638   3.526
   73TIP3    H2  226   4.386   1.649   3.387
   74TIP3   OH2  227   2.164   0.310   1.229
   74TIP3    H1  228   2.214   0.276   1.304
   74TIP3    H2  229   2.230   0.334   1.165
   75TIP3   OH2  230   5.996   0.857   0.372
   75TIP3    H1  231   5.981   0.945   0.336
   75TIP3    H2  232   6.068   0.869   0.434
   76TIP3   OH2  233   2.118   3.235   2.589
   76TIP3    H1  234   2.172   3.187   2.527
   76TIP3    H2  235   2.159   3.219   2.674
   77TIP3   OH2  236   2.813   3.338   3.311
   77TIP3    H1  237   2.732   3.299   3.278
   77TIP3    H2  238   2.800   3.343   3.406
   78TIP3   OH2  239   2.465   1.296   2.464
   78TIP3    H1  240   2.530   1.334   2.522
   78TIP3    H2  241   2.450   1.207   2.497
   79TIP3   OH2  242   5.694   3.094   4.033
   79TIP3    H1  243   5.648   3.048   4.104
   79TIP3    H2  244   5.772   3.041   4.017
   80TIP3   OH2  245   0.145   0.656   2.660
   80TIP3    H1  246   0.197   0.684   2.735
   80TIP3    H2  247   0.167   0.719   2.591
   81TIP3   OH2  248   3.568   4.643   3.141
   81TIP3    H1  249   3.495   4.622   3.200
   81TIP3    H2  250   3.526   4.671   3.060
   82TIP3   OH2  251   4.075   0.949   3.339
   82TIP3    H1  252   4.097   0.867   3.384
   82TIP3    H2  253   4.158   0.994   3.327
   83TIP3   OH2  254   4.624   5.393   3.070
   83TIP3    H1  255   4.580   5.321   3.116
   83TIP3    H2  256   4.556   5.459   3.058
   84TIP3   OH2  257   1.210   0.829   4.001
   84TIP3    H1  258   1.300   0.862   4.006
   84TIP3    H2  259   1.185   0.840   3.909
   85TIP3   OH2  260   0.465   0.509   1.532
   85TIP3    H1  261   0.493   0.431   1.485
   85TIP3    H2  262   0.447   0.479   1.621
   86TIP3   OH2  263   4.171   0.775   4.284
   86TIP3    H1  264   4.086   0.750   4.247
   86TIP3    H2  265   4.171   0.870   4.284
   87TIP3   OH2  266   4.921   4.021   2.201
   87TIP3    H1  267   4.998   4.073   2.224
   87TIP3    H2  268   4.849   4.083   2.199
   88TIP3   OH2  269   2.143   1.004   1.910
   88TIP3    H1  270   2.219   1.051   1.944
   88TIP3    H2  271   2.077   1.072   1.898
   89TIP3   OH2  272   3.038   3.943   2.421
   89TIP3    H1  273   3.039   4.039   2.413
   89TIP3    H2  274   3.112   3.914   2.369
   90TIP3   OH2  275   4.316   2.028   1.329
   90TIP3    H1  276   4.302   1.966   1.400
   90TIP3    H2  277   4.407   2.016   1.304
   91TIP3   OH2  278   1.503   4.438   2.800
   91TIP3    H1  279   1.488   4.498   2.873
   91TIP3    H2  280   1.518   4.353   2.841
   92TIP3   OH2  281   0.840   0.123   1.990
   92TIP3    H1  282   0.831   0.060   1.919
   92TIP3    H2  283   0.753   0.161   2.001
   93TIP3   OH2  284   1.452   5.644   3.862
   93TIP3    H1  285   1.465   5.553   3.836
   93TIP3    H2  286   1.365   5.666   3.830
   94TIP3   OH2  287   0.373   5.829   0.090
   94TIP3    H1  288   0.344   5.872   0.009
   94TIP3    H2  289   0.375   5.736   0.068
   95TIP3   OH2  290   5.517   2.386   4.655
   95TIP3    H1  291   5.436   2.336   4.642
   95TIP3    H2  292   5.586   2.319   4.658
   96TIP3   OH2  293   6.292   5.734   2.564
   96TIP3    H1  294   6.363   5.671   2.581
   96TIP3    H2  295   6.264   5.716   2.475
   97TIP3   OH2  296   4.618   0.246   3.943
   97TIP3    H1  297   4.699   0.283   3.977
   97TIP3    H2  298   4.558   0.321   3.938
   98TIP3   OH2  299   2.490   0.612   5.070
   98TIP3    H1  300   2.499   0.569   5.155
   98TIP3    H2  301   2.447   0.695   5.090
   99TIP3   OH2  302   5.770   1.617   0.580
   99TIP3    H1  303   5.755   1.626   0.486
   99TIP3    H2  304   5.854   1.661   0.595
  100TIP3   OH2  305   6.271   4.091   0.291
  100TIP3    H1  306   6.257   4.169   0.344
  100TIP3    H2  307   6.188   4.078   0.245
  101TIP3   OH2  308   5.930   5.809   1.562
  101TIP3    H1  309   5.997   5.854   1.614
  101TIP3    H2  310   5.920   5.864   1.484
  102TIP3   OH2  311   6.077   2.220   4.231
  102TIP3    H1  312   6.115   2.267   4.157
  102TIP3    H2  313   5.986   2.250   4.233
  103TIP3   OH2  314   5.276   5.597   2.102
  103TIP3    H1  315   5.231   5.592   2.186
  103TIP3    H2  316   5.239   5.525   2.051
  104TIP3   OH2  317   1.477   1.221   1.956
  104TIP3    H1  318   1.526   1.234   2.037
  104TIP3    H2  319   1.543   1.226   1.887
  105TIP3   OH2  320   6.201   5.333   2.514
  105TIP3    H1  321   6.110   5.333   2.544
  105TIP3    H2  322   6.219   5.423   2.489
  106TIP3   OH2  323   3.563   4.159   2.196
  106TIP3    H1  324   3.637   4.103   2.174
  106TIP3    H2  325   3.495   4.135   2.133
  107TIP3   OH2  326   2.974   5.911   3.673
  107TIP3    H1  327   2.974   5.913   3.768
  107TIP3    H2  328   2.886   5.941   3.648
  108TIP3   OH2  329   5.883   1.629   2.397
  108TIP3    H1  330   5.902   1.651   2.488
  108TIP3    H2  331   5.804   1.576   2.401
  109TIP3   OH2  332   2.594   1.065   1.768
  109TIP3    H1  333   2.669   1.007   1.780
  109TIP3    H2  334   2.626   1.134   1.710
  110TIP3   OH2  335   5.843   2.511   3.644
  110TIP3    H1  336   5.832   2.603   3.617
  110TIP3    H2  337   5.777   2.498   3.712
  111TIP3   OH2  338   0.701   4.313   1.376
  111TIP3    H1  339   0.635   4.281   1.314
  111TIP3    H2  340   0.782   4.269   1.350
  112TIP3   OH2  341   2.913   2.473   2.748
  112TIP3    H1  342   2.827   2.515   2.743
  112TIP3    H2  343   2.929   2.441   2.660
  113TIP3   OH2  344   3.885   3.491   1.174
  113TIP3    H1  345   3.910   3.435   1.248
  113TIP3    H2  346   3.805   3.452   1.140
  114TIP3   OH2  347   1.672   2.392   1.163
  114TIP3    H1  348   1.641   2.302   1.151
  114TIP3    H2  349   1.760   2.393   1.126
  115TIP3   OH2  350   0.432   3.573   3.035
  115TIP3    H1  351   0.380   3.500   3.069
  115TIP3    H2  352   0.523   3.545   3.048
  116TIP3   OH2  353   1.071   0.495   2.907
  116TIP3    H1  354   1.094   0.419   2.853
  116TIP3    H2  355   1.043   0.562   2.845
  117TIP3   OH2  356   3.830   2.261   1.580
  117TIP3    H1  357   3.809   2.168   1.580
  117TIP3    H2  358   3.894   2.271   1.510
  118TIP3   OH2  359   0.203   5.733   2.493
  118TIP3    H1  360   0.153   5.814   2.483
  118TIP3    H2  361   0.285   5.761   2.535
  119TIP3   OH2  362   5.332   1.080   3.503
  119TIP3    H1  363   5.428   1.077   3.511
  119TIP3    H2  364   5.300   1.049   3.587
  120TIP3   OH2  365   1.753   2.233   1.929
  120TIP3    H1  366   1.685   2.167   1.934
  120TIP3    H2  367   1.833   2.188   1.956
  121TIP3   OH2  368   0.526   2.621   0.290
  121TIP3    H1  369   0.579   2.627   0.370
  121TIP3    H2  370   0.459   2.689   0.302
  122TIP3   OH2  371   2.864   4.655   1.153
  122TIP3    H1  372   2.915   4.631   1.230
  122TIP3    H2  373   2.780   4.684   1.187
  123TIP3   OH2  374   4.446   1.257   3.710
  123TIP3    H1  375   4.406   1.314   3.776
  123TIP3    H2  376   4.384   1.259   3.636
  124TIP3   OH2  377   0.563   0.435   4.319
  124TIP3    H1  378   0.594   0.510   4.371
  124TIP3    H2  379   0.642   0.395   4.285
  125TIP3   OH2  380   5.054   3.065   3.519
  125TIP3    H1  381   5.147   3.084   3.531
  125TIP3    H2  382   5.016   3.146   3.487
  126TIP3   OH2  383   3.324   3.943   3.632
  126TIP3    H1  384   3.246   3.931   3.686
  126TIP3    H2  385   3.298   3.914   3.545
  127TIP3   OH2  386   4.527   0.851   2.019
  127TIP3    H1  387   4.461   0.802   1.970
  127TIP3    H2  388   4.559   0.790   2.085
  128TIP3   OH2  389   0.050   0.924   1.530
  128TIP3    H1  390  -0.013   0.868   1.485
  128TIP3    H2  391   0.029   1.013   1.502
  129TIP3   OH2  392   2.412   0.947   0.166
  129TIP3    H1  393   2.355   0.884   0.210
  129TIP3    H2  394   2.432   1.012   0.233
  130TIP3   OH2  395   3.130   3.775   1.556
  130TIP3    H1  396   3.075   3.765   1.634
  130TIP3    H2  397   3.071   3.813   1.490
  131TIP3   OH2  398   2.848   5.425   3.903
  131TIP3    H1  399   2.877   5.453   3.817
  131TIP3    H2  400   2.870   5.331   3.906
  132TIP3   OH2  401   6.237   3.840   0.431
  132TIP3    H1  402   6.287   3.910   0.388
  132TIP3    H2  403   6.212   3.781   0.359
  133TIP3   OH2  404   0.838   1.333   4.837
  133TIP3    H1  405   0.795   1.254   4.804
  133TIP3    H2  406   0.912   1.299   4.888
  134TIP3   OH2  407   2.517   2.089   4.290
  134TIP3    H1  408   2.546   2.103   4.380
  134TIP3    H2  409   2.452   2.158   4.275
  135TIP3   OH2  410   5.128   5.486   3.340
  135TIP3    H1  411   5.113   5.435   3.261
  135TIP3    H2  412   5.133   5.421   3.410
  136TIP3   OH2  413   6.186   4.786   1.857
  136TIP3    H1  414   6.155   4.743   1.777
  136TIP3    H2  415   6.157   4.877   1.849
  137TIP3   OH2  416   0.343   4.805   4.928
  137TIP3    H1  417   0.317   4.840   5.014
  137TIP3    H2  418   0.263   4.806   4.876
  138TIP3   OH2  419   0.601   3.732   4.110
  138TIP3    H1  420   0.694   3.753   4.119
  138TIP3    H2  421   0.580   3.757   4.020
  139TIP3   OH2  422   1.675   1.573   1.286
  139TIP3    H1  423   1.667   1.668   1.274
  139TIP3    H2  424   1.597   1.537   1.243
  140TIP3   OH2  425   1.457   1.406   3.072
  140TIP3    H1  426   1.376   1.443   3.106
  140TIP3    H2  427   1.431   1.322   3.034
  141TIP3   OH2  428   5.149   1.032   5.153
  141TIP3    H1  429   5.112   1.045   5.240
  141TIP3    H2  430   5.148   0.937   5.140
  142TIP3   OH2  431   2.116   0.893   4.477
  142TIP3    H1  432   2.064   0.897   4.558
  142TIP3    H2  433   2.190   0.836   4.500
  143TIP3   OH2  434   0.000   5.667   2.891
  143TIP3    H1  435   0.062   5.690   2.960
  143TIP3    H2  436   0.051   5.617   2.828
  144TIP3   OH2  437   0.241   4.688   1.648
  144TIP3    H1  438   0.256   4.599   1.679
  144TIP3    H2  439   0.190   4.678   1.568
  145TIP3   OH2  440   5.255   0.446   2.835
  145TIP3    H1  441   5.299   0.475   2.915
  145TIP3    H2  442   5.257   0.351   2.840
  146TIP3   OH2  443   2.325   1.301   5.102
  146TIP3    H1  444   2.270   1.251   5.162
  146TIP3    H2  445   2.295   1.274   5.015
  147TIP3   OH2  446   1.699   0.828   0.930
  147TIP3    H1  447   1.616   0.843   0.975
  147TIP3    H2  448   1.740   0.757   0.979
  148TIP3   OH2  449   0.666   5.809   2.534
  148TIP3    H1  450   0.728   5.881   2.535
  148TIP3    H2  451   0.660   5.783   2.442
  149TIP3   OH2  452   1.501   1.921   2.863
  149TIP3    H1  453   1.567   1.956   2.923
  149TIP3    H2  454   1.539   1.932   2.776
  150TIP3   OH2  455   3.643   1.652   0.343
  150TIP3    H1  456   3.634   1.557   0.331
  150TIP3    H2  457   3.737   1.668   0.337
  151TIP3   OH2  458   4.624   1.342   4.080
  151TIP3    H1  459   4.630   1.416   4.140
  151TIP3    H2  460   4.542   1.298   4.104
  152TIP3   OH2  461   1.035   1.027   3.131
  152TIP3    H1  462   1.130   1.027   3.143
  152TIP3    H2  463   1.005   1.106   3.174
  153TIP3   OH2  464   1.791   5.335   5.116
  153TIP3    H1  465   1.854   5.349   5.186
  153TIP3    H2  466   1.806   5.408   5.056
  154TIP3   OH2  467   5.678   4.155   4.040
  154TIP3    H1  468   5.714   4.068   4.026
  154TIP3    H2  469   5.740   4.214   3.997
  155TIP3   OH2  470   3.886   4.282   0.587
  155TIP3    H1  471   3.924   4.366   0.561
  155TIP3    H2  472   3.899   4.277   0.681
  156TIP3   OH2  473   4.218   5.196   3.690
  156TIP3    H1  474   4.175   5.177   3.774
  156TIP3    H2  475   4.207   5.290   3.678
  157TIP3   OH2  476   1.219   3.535   3.667
  157TIP3    H1  477   1.240   3.521   3.575
  157TIP3    H2  478   1.243   3.453   3.710
  158TIP3   OH2  479   4.902   4.436   4.133
  158TIP3    H1  480   4.825   4.392   4.167
  158TIP3    H2  481   4.876   4.528   4.127
  159TIP3   OH2  482   6.097   1.265   1.481
  159TIP3    H1  483   6.035   1.197   1.454
  159TIP3    H2  484   6.140   1.230   1.558
  160TIP3   OH2  485   1.635   1.125   0.833
  160TIP3    H1  486   1.718   1.094   0.867
  160TIP3    H2  487   1.657   1.203   0.782
  161TIP3   OH2  488   5.681   3.542   4.620
  161TIP3    H1  489   5.649   3.460   4.581
  161TIP3    H2  490   5.611   3.571   4.678
  162TIP3   OH2  491   5.921   0.736   3.358
  162TIP3    H1  492   5.938   0.751   3.451
  162TIP3    H2  493   5.887   0.646   3.354
  163TIP3   OH2  494   2.612   1.230   5.139
  163TIP3    H1  495   2.646   1.220   5.050
  163TIP3    H2  496   2.519   1.252   5.127
  164TIP3   OH2  497   4.478   5.893   4.291
  164TIP3    H1  498   4.425   5.930   4.220
  164TIP3    H2  499   4.561   5.938   4.287
  165TIP3   OH2  500   1.634   2.279   4.457
  165TIP3    H1  501   1.640   2.184   4.447
  165TIP3    H2  502   1.565   2.291   4.522
  166TIP3   OH2  503   3.571   0.184   3.858
  166TIP3    H1  504   3.571   0.207   3.951
  166TIP3    H2  505   3.509   0.111   3.852
  167TIP3   OH2  506   0.391   3.078   2.564
  167TIP3    H1  507   0.342   3.083   2.646
  167TIP3    H2  508   0.333   3.115   2.498
  168TIP3   OH2  509   2.982   4.595   0.836
  168TIP3    H1  510   3.048   4.634   0.894
  168TIP3    H2  511   2.924   4.668   0.814
  169TIP3   OH2  512   1.667   5.852   2.117
  169TIP3    H1  513   1.750   5.888   2.150
  169TIP3    H2  514   1.692   5.800   2.041
  170TIP3   OH2  515   0.834   0.420   3.618
  170TIP3    H1  516   0.783   0.478   3.562
  170TIP3    H2  517   0.862   0.476   3.691
  171TIP3   OH2  518   4.571   2.238   3.299
  171TIP3    H1  519   4.605   2.279   3.220
  171TIP3    H2  520   4.482   2.210   3.275
  172TIP3   OH2  521   5.470   4.218   0.023
  172TIP3    H1  522   5.557   4.179   0.015
  172TIP3    H2  523   5.418   4.152   0.069
  173TIP3   OH2  524   3.155   2.515   0.755
  173TIP3    H1  525   3.178   2.430   0.717
  173TIP3    H2  526   3.060   2.510   0.769
  174TIP3   OH2  527   2.858   3.282   4.079
  174TIP3    H1  528   2.845   3.223   4.152
  174TIP3    H2  529   2.810   3.362   4.104
  175TIP3   OH2  530   5.233   5.634   1.606
  175TIP3    H1  531   5.284   5.673   1.535
  175TIP3    H2  532   5.275   5.550   1.622
  176TIP3   OH2  533   0.153   4.356   2.717
  176TIP3    H1  534   0.128   4.424   2.780
  176TIP3    H2  535   0.123   4.390   2.633
  177TIP3   OH2  536   0.070   3.402   2.766
  177TIP3    H1  537   0.050   3.448   2.684
  177TIP3    H2  538   0.096   3.470   2.827
  178TIP3   OH2  539   1.994   5.392   2.258
  178TIP3    H1  540   1.926   5.342   2.214
  178TIP3    H2  541   1.974   5.384   2.352
  179TIP3   OH2  542   3.942   2.733   0.887
  179TIP3    H1  543   3.875   2.769   0.945
  179TIP3    H2  544   4.002   2.686   0.945
  180TIP3   OH2  545   5.027   3.621   3.495
  180TIP3    H1  546   5.043   3.570   3.574
  180TIP3    H2  547   5.035   3.712   3.523
  181TIP3   OH2  548   5.753   4.925   1.249
  181TIP3    H1  549   5.801   4.944   1.168
  181TIP3    H2  550   5.683   4.866   1.222
  182TIP3   OH2  551   4.510   2.414   0.843
  182TIP3    H1  552   4.591   2.363   0.856
  182TIP3    H2  553   4.523   2.458   0.759
  183TIP3   OH2  554   0.350   1.279   4.297
  183TIP3    H1  555   0.325   1.340   4.228
  183TIP3    H2  556   0.268   1.233   4.318
  184TIP3   OH2  557   4.732   5.749   2.093
  184TIP3    H1  558   4.664   5.686   2.068
  184TIP3    H2  559   4.808   5.696   2.114
  185TIP3   OH2  560   3.559   5.682   1.205
  185TIP3    H1  561   3.498   5.732   1.150
  185TIP3    H2  562   3.517   5.679   1.291
  186TIP3   OH2  563   4.481   3.713   1.377
  186TIP3    H1  564   4.431   3.651   1.432
  186TIP3    H2  565   4.570   3.709   1.412
  187TIP3   OH2  566   4.857   3.944   0.499
  187TIP3    H1  567   4.790   3.919   0.436
  187TIP3    H2  568   4.920   3.994   0.449
  188TIP3   OH2  569   4.744   5.883   1.502
  188TIP3    H1  570   4.783   5.920   1.423
  188TIP3    H2  571   4.809   5.820   1.534
  189TIP3   OH2  572   2.063   5.182   1.733
  189TIP3    H1  573   2.018   5.098   1.744
  189TIP3    H2  574   2.155   5.161   1.745
  190TIP3   OH2  575   0.422   1.052   3.132
  190TIP3    H1  576   0.451   0.963   3.114
  190TIP3    H2  577   0.481   1.107   3.080
  191TIP3   OH2  578   5.944   0.342   4.774
  191TIP3    H1  579   5.867   0.307   4.818
  191TIP3    H2  580   5.909   0.394   4.702
  192TIP3   OH2  581   5.666   5.399   2.714
  192TIP3    H1  582   5.625   5.313   2.715
  192TIP3    H2  583   5.756   5.383   2.684
  193TIP3   OH2  584   6.076   2.617   3.118
  193TIP3    H1  585   5.997   2.572   3.088
  193TIP3    H2  586   6.044   2.693   3.166
  194TIP3   OH2  587   4.939   5.642   3.053
  194TIP3    H1  588   5.011   5.630   2.990
  194TIP3    H2  589   4.927   5.556   3.092
  195TIP3   OH2  590   4.979   0.250   0.603
  195TIP3    H1  591   4.952   0.168   0.561
  195TIP3    H2  592   5.063   0.271   0.562
  196TIP3   OH2  593   4.952   0.233   1.196
  196TIP3    H1  594   4.910   0.225   1.282
  196TIP3    H2  595   4.966   0.327   1.184
  197TIP3   OH2  596   3.016   1.042   1.794
  197TIP3    H1  597   3.002   1.133   1.822
  197TIP3    H2  598   2.930   1.012   1.765
  198TIP3   OH2  599   3.324   5.661   0.831
  198TIP3    H1  600   3.229   5.653   0.821
  198TIP3    H2  601   3.336   5.726   0.901
  199TIP3   OH2  602   3.108   5.044   4.732
  199TIP3    H1  603   3.022   5.040   4.690
  199TIP3    H2  604   3.092   5.089   4.815
  200TIP3   OH2  605   3.816   5.784   4.488
  200TIP3    H1  606   3.764   5.711   4.455
  200TIP3    H2  607   3.905   5.766   4.459
  201TIP3   OH2  608   1.420   3.277   2.611
  201TIP3    H1  609   1.486   3.234   2.665
  201TIP3    H2  610   1.444   3.370   2.612
  202TIP3   OH2  611   5.044   2.912   1.894
  202TIP3    H1  612   5.072   2.953   1.976
  202TIP3    H2  613   5.092   2.830   1.891
  203TIP3   OH2  614   4.820   5.472   0.416
  203TIP3    H1  615   4.841   5.395   0.468
  203TIP3    H2  616   4.752   5.517   0.467
  204TIP3   OH2  617   5.778   5.762   0.248
  204TIP3    H1  618   5.752   5.685   0.298
  204TIP3    H2  619   5.798   5.728   0.161
  205TIP3   OH2  620   4.935   1.248   2.747
  205TIP3    H1  621   4.914   1.335   2.782
  205TIP3    H2  622   4.990   1.208   2.814
  206TIP3   OH2  623   3.047   3.180   0.943
  206TIP3    H1  624   3.104   3.147   0.873
  206TIP3    H2  625   3.106   3.198   1.016
  207TIP3   OH2  626   6.167   5.682   5.042
  207TIP3    H1  627   6.215   5.752   4.998
  207TIP3    H2  628   6.230   5.609   5.046
  208TIP3   OH2  629   3.012   4.919   5.136
  208TIP3    H1  630   2.959   4.926   5.216
  208TIP3    H2  631   2.955   4.874   5.074
  209TIP3   OH2  632   3.437   5.519   2.518
  209TIP3    H1  633   3.399   5.548   2.601
  209TIP3    H2  634   3.494   5.446   2.542
  210TIP3   OH2  635   2.043   0.471   4.872
  210TIP3    H1  636   2.062   0.378   4.861
  210TIP3    H2  637   2.018   0.480   4.964
  211TIP3   OH2  638   2.162   0.110   4.022
  211TIP3    H1  639   2.142   0.198   3.987
  211TIP3    H2  640   2.087   0.057   3.994
  212TIP3   OH2  641   4.627   3.547   4.621
  212TIP3    H1  642   4.537   3.580   4.623
  212TIP3    H2  643   4.681   3.626   4.627
  213TIP3   OH2  644   6.189   3.970   2.284
  213TIP3    H1  645   6.268   3.923   2.314
  213TIP3    H2  646   6.118   3.907   2.297
  214TIP3   OH2  647   1.361   2.787   3.350
  214TIP3    H1  648   1.386   2.868   3.307
  214TIP3    H2  649   1.390   2.798   3.440
  215TIP3   OH2  650   2.518   2.004   0.642
  215TIP3    H1  651   2.549   2.022   0.730
  215TIP3    H2  652   2.477   1.918   0.647
  216TIP3   OH2  653   2.688   5.907   3.745
  216TIP3    H1  654   2.656   5.817   3.742
  216TIP3    H2  655   2.648   5.949   3.669
  217TIP3   OH2  656   6.104   5.200   3.477
  217TIP3    H1  657   6.104   5.155   3.393
  217TIP3    H2  658   6.012   5.221   3.493
  218TIP3   OH2  659   3.611   2.203   4.106
  218TIP3    H1  660   3.653   2.197   4.021
  218TIP3    H2  661   3.519   2.224   4.087
  219TIP3   OH2  662   0.375   1.864   4.191
  219TIP3    H1  663   0.321   1.872   4.113
  219TIP3    H2  664   0.326   1.806   4.249
  220TIP3   OH2  665   4.092   5.694   3.669
  220TIP3    H1  666   4.093   5.727   3.579
  220TIP3    H2  667   4.032   5.752   3.715
  221TIP3   OH2  668   3.795   2.548   0.473
  221TIP3    H1  669   3.854   2.564   0.546
  221TIP3    H2  670   3.708   2.544   0.514
  222TIP3   OH2  671   1.287   5.974   3.746
  222TIP3    H1  672   1.338   5.982   3.666
  222TIP3    H2  673   1.275   5.880   3.758
  223TIP3   OH2  674   3.015   4.754   1.394
  223TIP3    H1  675   3.024   4.802   1.311
  223TIP3    H2  676   3.024   4.820   1.462
  224TIP3   OH2  677   4.491   0.868   2.662
  224TIP3    H1  678   4.566   0.893   2.717
  224TIP3    H2  679   4.414   0.888   2.716
  225TIP3   OH2  680   5.822   3.736   4.487
  225TIP3    H1  681   5.761   3.721   4.414
  225TIP3    H2  682   5.821   3.654   4.537
  226TIP3   OH2  683   2.469   4.321   0.930
  226TIP3    H1  684   2.419   4.263   0.987
  226TIP3    H2  685   2.560   4.312   0.960
  227TIP3   OH2  686   1.692   0.418   0.752
  227TIP3    H1  687   1.777   0.400   0.711
  227TIP3    H2  688   1.712   0.426   0.845
  228TIP3   OH2  689   2.006   5.698   5.021
  228TIP3    H1  690   2.095   5.690   5.055
  228TIP3    H2  691   1.992   5.618   4.970
  229TIP3   OH2  692   1.206   2.162   0.997
  229TIP3    H1  693   1.158   2.155   1.079
  229TIP3    H2  694   1.164   2.233   0.950
  230TIP3   OH2  695   1.233   5.221   2.864
  230TIP3    H1  696   1.260   5.153   2.926
  230TIP3    H2  697   1.224   5.300   2.917
  231TIP3   OH2  698   4.518   2.655   3.079
  231TIP3    H1  699   4.607   2.672   3.049
  231TIP3    H2  700   4.464   2.713   3.026
  232TIP3   OH2  701   1.166   4.927   3.778
  232TIP3    H1  702   1.097   4.891   3.834
  232TIP3    H2  703   1.125   5.003   3.736
  233TIP3   OH2  704   3.820   4.340   4.937
  233TIP3    H1  705   3.772   4.336   4.854
  233TIP3    H2  706   3.778   4.275   4.993
  234TIP3   OH2  707   5.843   4.236   0.797
  234TIP3    H1  708   5.751   4.212   0.811
  234TIP3    H2  709   5.841   4.330   0.781
  235TIP3   OH2  710   3.273   3.400   0.372
  235TIP3    H1  711   3.197   3.453   0.348
  235TIP3    H2  712   3.277   3.406   0.467
  236TIP3   OH2  713   0.396   5.230   3.751
  236TIP3    H1  714   0.305   5.217   3.725
  236TIP3    H2  715   0.411   5.324   3.739
  237TIP3   OH2  716   2.303   3.270   3.279
  237TIP3    H1  717   2.336   3.352   3.243
  237TIP3    H2  718   2.382   3.224   3.311
  238TIP3   OH2  719   2.645   2.551   2.714
  238TIP3    H1  720   2.615   2.539   2.805
  238TIP3    H2  721   2.587   2.495   2.663
  239TIP3   OH2  722   2.030   0.552   3.407
  239TIP3    H1  723   2.062   0.642   3.420
  239TIP3    H2  724   2.095   0.498   3.453
  240TIP3   OH2  725   3.159   3.766   3.850
  240TIP3    H1  726   3.084   3.824   3.838
  240TIP3    H2  727   3.157   3.742   3.943
  241TIP3   OH2  728   5.801   4.932   0.433
  241TIP3    H1  729   5.800   5.017   0.389
  241TIP3    H2  730   5.730   4.936   0.497
  242TIP3   OH2  731   5.917   5.713   5.128
  242TIP3    H1  732   5.896   5.622   5.148
  242TIP3    H2  733   6.011   5.720   5.140
  243TIP3   OH2  734   5.330   5.004   4.552
  243TIP3    H1  735   5.261   5.020   4.488
  243TIP3    H2  736   5.406   5.051   4.518
  244TIP3   OH2  737   2.629   5.033   4.905
  244TIP3    H1  738   2.680   4.959   4.936
  244TIP3    H2  739   2.585   5.001   4.826
  245TIP3   OH2  740   3.614   0.975   3.236
  245TIP3    H1  741   3.582   1.041   3.174
  245TIP3    H2  742   3.676   1.023   3.292
  246TIP3   OH2  743   2.656   1.818   3.035
  246TIP3    H1  744   2.717   1.832   3.107
  246TIP3    H2  745   2.579   1.870   3.059
  247TIP3   OH2  746   5.839   2.542   1.929
  247TIP3    H1  747   5.755   2.513   1.892
  247TIP3    H2  748   5.816   2.572   2.018
  248TIP3   OH2  749   6.217   3.420   0.538
  248TIP3    H1  750   6.179   3.349   0.589
  248TIP3    H2  751   6.157   3.431   0.464
  249TIP3   OH2  752   0.687   0.941   0.245
  249TIP3    H1  753   0.630   1.012   0.217
  249TIP3    H2  754   0.755   0.935   0.177
  250TIP3   OH2  755   3.654   2.727   1.719
  250TIP3    H1  756   3.654   2.633   1.736
  250TIP3    H2  757   3.628   2.735   1.627
  251TIP3   OH2  758   0.666   3.289   3.698
  251TIP3    H1  759   0.716   3.224   3.648
  251TIP3    H2  760   0.725   3.314   3.770
  252TIP3   OH2  761   2.415   0.019   2.843
  252TIP3    H1  762   2.326  -0.013   2.825
  252TIP3    H2  763   2.472  -0.048   2.805
  253TIP3   OH2  764   0.506   0.314   3.371
  253TIP3    H1  765   0.471   0.244   3.425
  253TIP3    H2  766   0.561   0.270   3.306
  254TIP3   OH2  767   0.716   3.960   3.974
  254TIP3    H1  768   0.781   3.945   3.904
  254TIP3    H2  769   0.764   4.011   4.040
  255TIP3   OH2  770   1.151   1.402   3.960
  255TIP3    H1  771   1.200   1.483   3.948
  255TIP3    H2  772   1.211   1.345   4.010
  256TIP3   OH2  773   3.562   5.397   4.163
  256TIP3    H1  774   3.511   5.319   4.186
  256TIP3    H2  775   3.650   5.378   4.194
  257TIP3   OH2  776   1.733   0.415   1.247
  257TIP3    H1  777   1.663   0.437   1.309
  257TIP3    H2  778   1.803   0.381   1.303
  258TIP3   OH2  779   4.224   2.385   2.697
  258TIP3    H1  780   4.314   2.388   2.666
  258TIP3    H2  781   4.172   2.420   2.625
  259TIP3   OH2  782   0.771   3.635   5.110
  259TIP3    H1  783   0.709   3.570   5.141
  259TIP3    H2  784   0.738   3.662   5.025
  260TIP3   OH2  785   3.352   4.946   2.162
  260TIP3    H1  786   3.395   4.902   2.090
  260TIP3    H2  787   3.289   4.882   2.195
  261TIP3   OH2  788   3.733   0.087   3.426
  261TIP3    H1  789   3.705   0.150   3.492
  261TIP3    H2  790   3.778   0.019   3.476
  262TIP3   OH2  791   4.612   3.356   2.491
  262TIP3    H1  792   4.645   3.266   2.500
  262TIP3    H2  793   4.533   3.347   2.437
  263TIP3   OH2  794   3.398   0.175   3.009
  263TIP3    H1  795   3.384   0.167   2.914
  263TIP3    H2  796   3.482   0.132   3.024
  264TIP3   OH2  797   1.781   5.795   4.096
  264TIP3    H1  798   1.811   5.780   4.185
  264TIP3    H2  799   1.685   5.799   4.103
  265TIP3   OH2  800   1.054   3.290   3.246
  265TIP3    H1  801   1.016   3.377   3.251
  265TIP3    H2  802   1.141   3.304   3.209
  266TIP3   OH2  803   2.102   0.963   0.593
  266TIP3    H1  804   2.050   0.938   0.669
  266TIP3    H2  805   2.037   0.988   0.527
  267TIP3   OH2  806   1.933   3.601   4.588
  267TIP3    H1  807   1.978   3.660   4.528
  267TIP3    H2  808   1.862   3.563   4.536
  268TIP3   OH2  809   0.130   3.594   0.284
  268TIP3    H1  810   0.180   3.620   0.206
  268TIP3    H2  811   0.040   3.587   0.253
  269TIP3   OH2  812   2.544   2.953   4.475
  269TIP3    H1  813   2.475   2.886   4.475
  269TIP3    H2  814   2.626   2.903   4.478
  270TIP3   OH2  815   3.861   0.156   0.867
  270TIP3    H1  816   3.939   0.101   0.864
  270TIP3    H2  817   3.881   0.224   0.932
  271TIP3   OH2  818   1.939   4.980   2.149
  271TIP3    H1  819   1.894   5.063   2.160
  271TIP3    H2  820   1.873   4.914   2.172
  272TIP3   OH2  821   2.014   3.632   4.845
  272TIP3    H1  822   1.962   3.640   4.765
  272TIP3    H2  823   2.024   3.722   4.876
  273TIP3   OH2  824   0.479   1.054   2.534
  273TIP3    H1  825   0.562   1.006   2.532
  273TIP3    H2  826   0.494   1.130   2.478
  274TIP3   OH2  827   4.695   1.214   3.124
  274TIP3    H1  828   4.726   1.195   3.036
  274TIP3    H2  829   4.762   1.175   3.181
  275TIP3   OH2  830   4.083   3.700   4.221
  275TIP3    H1  831   4.014   3.658   4.170
  275TIP3    H2  832   4.137   3.627   4.251
  276TIP3   OH2  833   1.823   0.030   3.275
  276TIP3    H1  834   1.870  -0.014   3.346
  276TIP3    H2  835   1.885   0.032   3.202
  277TIP3   OH2  836   3.070   3.272   3.619
  277TIP3    H1  837   3.003   3.237   3.560
  277TIP3    H2  838   3.068   3.214   3.695
  278TIP3   OH2  839   1.168   2.097   2.734
  278TIP3    H1  840   1.197   2.006   2.729
  278TIP3    H2  841   1.085   2.093   2.782
  279TIP3   OH2  842   2.434   2.858   5.067
  279TIP3    H1  843   2.443   2.951   5.046
  279TIP3    H2  844   2.419   2.856   5.161
  280TIP3   OH2  845   2.164   2.272   2.552
  280TIP3    H1  846   2.247   2.249   2.510
  280TIP3    H2  847   2.142   2.195   2.604
  281TIP3   OH2  848   6.040   2.735   2.812
  281TIP3    H1  849   6.066   2.797   2.743
  281TIP3    H2  850   6.118   2.682   2.826
  282TIP3   OH2  851   3.356   5.882   0.113
  282TIP3    H1  852   3.279   5.900   0.059
  282TIP3    H2  853   3.416   5.836   0.054
  283TIP3   OH2  854   6.041   4.920   3.852
  283TIP3    H1  855   6.133   4.944   3.845
  283TIP3    H2  856   5.994   5.003   3.846
  284TIP3   OH2  857   4.433   3.400   0.015
  284TIP3    H1  858   4.340   3.413  -0.004
  284TIP3    H2  859   4.468   3.359  -0.064
  285TIP3   OH2  860   4.116   4.907   2.504
  285TIP3    H1  861   4.037   4.944   2.543
  285TIP3    H2  862   4.155   4.855   2.574
  286TIP3   OH2  863   0.188   5.116   2.734
  286TIP3    H1  864   0.123   5.184   2.749
  286TIP3    H2  865   0.146   5.055   2.674
  287TIP3   OH2  866   5.749   4.387   3.227
  287TIP3    H1  867   5.689   4.396   3.153
  287TIP3    H2  868   5.713   4.314   3.277
  288TIP3   OH2  869   3.247   0.048   4.612
  288TIP3    H1  870   3.325   0.044   4.667
  288TIP3    H2  871   3.225   0.142   4.607
  289TIP3   OH2  872   2.210   1.388   4.007
  289TIP3    H1  873   2.302   1.396   3.981
  289TIP3    H2  874   2.161   1.430   3.937
  290TIP3   OH2  875   5.203   0.946   2.585
  290TIP3    H1  876   5.268   0.905   2.643
  290TIP3    H2  877   5.224   1.039   2.587
  291TIP3   OH2  878   0.372   5.613   1.879
  291TIP3    H1  879   0.356   5.703   1.852
  291TIP3    H2  880   0.291   5.566   1.856
  292TIP3   OH2  881   3.179   2.438   2.894
  292TIP3    H1  882   3.112   2.467   2.956
  292TIP3    H2  883   3.131   2.383   2.832
  293TIP3   OH2  884   0.521   1.225   5.159
  293TIP3    H1  885   0.428   1.229   5.139
  293TIP3    H2  886   0.562   1.287   5.099
  294TIP3   OH2  887   5.346   1.797   1.214
  294TIP3    H1  888   5.315   1.860   1.279
  294TIP3    H2  889   5.359   1.716   1.264
  295TIP3   OH2  890   5.097   2.305   2.427
  295TIP3    H1  891   5.066   2.369   2.363
  295TIP3    H2  892   5.182   2.278   2.393
  296TIP3   OH2  893   5.426   0.738   0.473
  296TIP3    H1  894   5.403   0.686   0.396
  296TIP3    H2  895   5.442   0.825   0.439
  297TIP3   OH2  896   4.414   2.500   1.101
  297TIP3    H1  897   4.487   2.497   1.163
  297TIP3    H2  898   4.455   2.491   1.015
  298TIP3   OH2  899   4.948   4.657   5.008
  298TIP3    H1  900   4.912   4.713   5.077
  298TIP3    H2  901   5.029   4.701   4.982
  299TIP3   OH2  902   5.529   5.153   4.293
  299TIP3    H1  903   5.585   5.077   4.308
  299TIP3    H2  904   5.552   5.182   4.204
  300TIP3   OH2  905   6.340   2.329   4.353
  300TIP3    H1  906   6.380   2.359   4.272
  300TIP3    H2  907   6.251   2.306   4.329
  301TIP3   OH2  908   2.245   0.672   1.436
  301TIP3    H1  909   2.202   0.736   1.492
  301TIP3    H2  910   2.337   0.672   1.465
  302TIP3   OH2  911   0.224   2.215   1.652
  302TIP3    H1  912   0.220   2.264   1.570
  302TIP3    H2  913   0.263   2.131   1.628
  303TIP3   OH2  914   3.671   4.860   2.810
  303TIP3    H1  915   3.587   4.818   2.828
  303TIP3    H2  916   3.729   4.789   2.785
  304TIP3   OH2  917   2.162   2.162   4.773
  304TIP3    H1  918   2.111   2.090   4.811
  304TIP3    H2  919   2.103   2.204   4.712
  305TIP3   OH2  920   0.105   1.589   3.456
  305TIP3    H1  921   0.031   1.531   3.439
  305TIP3    H2  922   0.117   1.586   3.551
  306TIP3   OH2  923   2.403   0.667   2.792
  306TIP3    H1  924   2.447   0.586   2.815
  306TIP3    H2  925   2.356   0.647   2.711
  307TIP3   OH2  926   2.215   2.830   1.298
  307TIP3    H1  927   2.210   2.756   1.358
  307TIP3    H2  928   2.147   2.813   1.232
  308TIP3   OH2  929   3.207   4.390   1.970
  308TIP3    H1  930   3.253   4.310   1.945
  308TIP3    H2  931   3.116   4.374   1.946
  309TIP3   OH2  932   4.788   2.780   0.247
  309TIP3    H1  933   4.725   2.816   0.309
  309TIP3    H2  934   4.814   2.854   0.193
  310TIP3   OH2  935   0.978   4.531   1.728
  310TIP3    H1  936   1.045   4.548   1.661
  310TIP3    H2  937   0.976   4.435   1.735
  311TIP3   OH2  938   1.631   2.551   4.386
  311TIP3    H1  939   1.630   2.467   4.432
  311TIP3    H2  940   1.637   2.528   4.294
  312TIP3   OH2  941   0.620   4.415   0.533
  312TIP3    H1  942   0.699   4.368   0.507
  312TIP3    H2  943   0.629   4.501   0.493
  313TIP3   OH2  944   3.368   2.716   5.152
  313TIP3    H1  945   3.388   2.629   5.185
  313TIP3    H2  946   3.447   2.743   5.105
  314TIP3   OH2  947   0.828   3.513   4.839
  314TIP3    H1  948   0.771   3.589   4.830
  314TIP3    H2  949   0.831   3.475   4.751
  315TIP3   OH2  950   2.042   1.940   1.445
  315TIP3    H1  951   2.135   1.958   1.459
  315TIP3    H2  952   1.997   2.018   1.478
  316TIP3   OH2  953   3.557   3.193   2.552
  316TIP3    H1  954   3.506   3.188   2.633
  316TIP3    H2  955   3.615   3.118   2.555
  317TIP3   OH2  956   1.271   3.570   2.064
  317TIP3    H1  957   1.252   3.664   2.061
  317TIP3    H2  958   1.200   3.533   2.116
  318TIP3   OH2  959   4.393   0.847   4.611
  318TIP3    H1  960   4.424   0.798   4.535
  318TIP3    H2  961   4.303   0.871   4.590
  319TIP3   OH2  962   0.610   4.891   1.356
  319TIP3    H1  963   0.574   4.838   1.427
  319TIP3    H2  964   0.533   4.919   1.306
  320TIP3   OH2  965   2.134   1.660   2.270
  320TIP3    H1  966   2.168   1.588   2.323
  320TIP3    H2  967   2.178   1.737   2.304
  321TIP3   OH2  968   0.056   1.047   3.910
  321TIP3    H1  969   0.039   0.977   3.974
  321TIP3    H2  970   0.110   1.005   3.843
  322TIP3   OH2  971   3.662   5.884   4.203
  322TIP3    H1  972   3.702   5.954   4.253
  322TIP3    H2  973   3.732   5.820   4.188
  323TIP3   OH2  974   1.226   2.950   3.579
  323TIP3    H1  975   1.190   2.937   3.492
  323TIP3    H2  976   1.321   2.946   3.567
  324TIP3   OH2  977   3.459   1.021   1.887
  324TIP3    H1  978   3.540   1.014   1.937
  324TIP3    H2  979   3.456   0.940   1.836
  325TIP3   OH2  980   1.970   1.793   3.640
  325TIP3    H1  981   2.001   1.862   3.698
  325TIP3    H2  982   1.875   1.793   3.650
  326TIP3   OH2  983   0.918   2.667   0.236
  326TIP3    H1  984   0.928   2.673   0.331
  326TIP3    H2  985   0.824   2.666   0.221
  327TIP3   OH2  986   1.255   0.736   1.721
  327TIP3    H1  987   1.247   0.767   1.811
  327TIP3    H2  988   1.284   0.645   1.729
  328TIP3   OH2  989   3.647   1.714   2.734
  328TIP3    H1  990   3.653   1.630   2.779
  328TIP3    H2  991   3.664   1.694   2.642
  329TIP3   OH2  992   6.007   3.161   4.165
  329TIP3    H1  993   6.081   3.187   4.220
  329TIP3    H2  994   6.039   3.172   4.075
  330TIP3   OH2  995   0.248   5.950   4.963
  330TIP3    H1  996   0.242   6.044   4.982
  330TIP3    H2  997   0.316   5.943   4.896
  331TIP3   OH2  998   2.785   4.500   1.540
  331TIP3    H1  999   2.700   4.541   1.558
  331TIP3    H2 1000   2.837   4.569   1.498
  332TIP3   OH2 1001   1.144   5.374   3.071
  332TIP3    H1 1002   1.167   5.461   3.105
  332TIP3    H2 1003   1.068   5.348   3.123
  333TIP3   OH2 1004   0.949   5.312   4.368
  333TIP3    H1 1005   1.036   5.307   4.329
  333TIP3    H2 1006   0.938   5.227   4.411
  334TIP3   OH2 1007   4.486   3.799   4.382
  334TIP3    H1 1008   4.506   3.803   4.475
  334TIP3    H2 1009   4.391   3.810   4.377
  335TIP3   OH2 1010   1.685   2.168   3.353
  335TIP3    H1 1011   1.606   2.128   3.389
  335TIP3    H2 1012   1.741   2.093   3.331
  336TIP3   OH2 1013   2.655   5.532   0.849
  336TIP3    H1 1014   2.598   5.599   0.810
  336TIP3    H2 1015   2.734   5.580   0.873
  337TIP3   OH2 1016   5.895   4.499   5.014
  337TIP3    H1 1017   5.946   4.565   4.969
  337TIP3    H2 1018   5.808   4.505   4.975
  338TIP3   OH2 1019   1.209   2.388   0.733
  338TIP3    H1 1020   1.175   2.322   0.672
  338TIP3    H2 1021   1.285   2.346   0.773
  339TIP3   OH2 1022   3.995   3.271   4.687
  339TIP3    H1 1023   3.941   3.344   4.717
  339TIP3    H2 1024   3.986   3.272   4.591
  340TIP3   OH2 1025   2.912   5.622   0.400
  340TIP3    H1 1026   2.822   5.639   0.429
  340TIP3    H2 1027   2.958   5.704   0.418
  341TIP3   OH2 1028   5.458   5.892   3.741
  341TIP3    H1 1029   5.503   5.944   3.808
  341TIP3    H2 1030   5.381   5.858   3.786
  342TIP3   OH2 1031   2.686   4.028   4.358
  342TIP3    H1 1032   2.631   3.965   4.312
  342TIP3    H2 1033   2.626   4.071   4.419
  343TIP3   OH2 1034   6.085   2.846   0.454
  343TIP3    H1 1035   6.032   2.921   0.481
  343TIP3    H2 1036   6.130   2.819   0.535
  344TIP3   OH2 1037   5.175   2.980   0.012
  344TIP3    H1 1038   5.082   2.975   0.035
  344TIP3    H2 1039   5.219   2.991   0.096
  345TIP3   OH2 1040   2.000   2.970   4.742
  345TIP3    H1 1041   1.954   3.024   4.678
  345TIP3    H2 1042   1.931   2.920   4.786
  346TIP3   OH2 1043   2.266   0.747   3.841
  346TIP3    H1 1044   2.257   0.830   3.887
  346TIP3    H2 1045   2.335   0.762   3.777
  347TIP3   OH2 1046   3.130   3.161   4.252
  347TIP3    H1 1047   3.134   3.141   4.346
  347TIP3    H2 1048   3.068   3.098   4.216
  348TIP3   OH2 1049   4.827   1.695   5.042
  348TIP3    H1 1050   4.873   1.703   4.958
  348TIP3    H2 1051   4.755   1.634   5.024
  349TIP3   OH2 1052   2.140   1.064   3.490
  349TIP3    H1 1053   2.219   1.059   3.543
  349TIP3    H2 1054   2.090   1.136   3.529
  350TIP3   OH2 1055   2.368   4.890   4.812
  350TIP3    H1 1056   2.403   4.811   4.772
  350TIP3    H2 1057   2.354   4.868   4.904
  351TIP3   OH2 1058   2.282   3.383   4.129
  351TIP3    H1 1059   2.210   3.336   4.088
  351TIP3    H2 1060   2.288   3.346   4.217
  352TIP3   OH2 1061   5.102   0.670   2.810
  352TIP3    H1 1062   5.176   0.612   2.830
  352TIP3    H2 1063   5.037   0.612   2.772
  353TIP3   OH2 1064   3.949   5.401   3.399
  353TIP3    H1 1065   3.915   5.485   3.428
  353TIP3    H2 1066   3.877   5.362   3.349
  354TIP3   OH2 1067   4.572   4.348   1.545
  354TIP3    H1 1068   4.575   4.306   1.459
  354TIP3    H2 1069   4.628   4.425   1.535
  355TIP3   OH2 1070   4.382   0.247   3.613
  355TIP3    H1 1071   4.363   0.169   3.562
  355TIP3    H2 1072   4.300   0.296   3.614
  356TIP3   OH2 1073   3.660   4.145   5.058
  356TIP3    H1 1074   3.589   4.187   5.010
  356TIP3    H2 1075   3.628   4.057   5.076
  357TIP3   OH2 1076   1.617   4.223   2.518
  357TIP3    H1 1077   1.668   4.203   2.439
  357TIP3    H2 1078   1.620   4.318   2.524
  358TIP3   OH2 1079   6.271   0.627   3.643
  358TIP3    H1 1080   6.274   0.533   3.624
  358TIP3    H2 1081   6.363   0.654   3.642
  359TIP3   OH2 1082   5.190   5.200   0.507
  359TIP3    H1 1083   5.241   5.142   0.450
  359TIP3    H2 1084   5.254   5.237   0.567
  360TIP3   OH2 1085   1.588   5.333   4.594
  360TIP3    H1 1086   1.514   5.384   4.626
  360TIP3    H2 1087   1.568   5.243   4.620
  361TIP3   OH2 1088   2.267   1.072   1.222
  361TIP3    H1 1089   2.259   0.989   1.174
  361TIP3    H2 1090   2.200   1.129   1.183
  362TIP3   OH2 1091   1.998   1.029   3.199
  362TIP3    H1 1092   2.012   1.020   3.293
  362TIP3    H2 1093   1.905   1.013   3.186
  363TIP3   OH2 1094   4.728   5.150   4.923
  363TIP3    H1 1095   4.646   5.159   4.972
  363TIP3    H2 1096   4.722   5.063   4.883
  364TIP3   OH2 1097   4.986   2.887   3.979
  364TIP3    H1 1098   4.949   2.812   3.931
  364TIP3    H2 1099   4.965   2.963   3.924
  365TIP3   OH2 1100   1.643   4.493   1.024
  365TIP3    H1 1101   1.727   4.528   0.997
  365TIP3    H2 1102   1.627   4.533   1.110
  366TIP3   OH2 1103   4.995   0.106   4.391
  366TIP3    H1 1104   5.086   0.135   4.389
  366TIP3    H2 1105   4.986   0.060   4.475
  367TIP3   OH2 1106   5.806   0.838   3.111
  367TIP3    H1 1107   5.753   0.842   3.190
  367TIP3    H2 1108   5.895   0.860   3.140
  368TIP3   OH2 1109   5.012   2.260   1.728
  368TIP3    H1 1110   5.002   2.220   1.641
  368TIP3    H2 1111   4.931   2.308   1.742
  369TIP3   OH2 1112  -0.019   3.782   4.320
  369TIP3    H1 1113  -0.005   3.688   4.328
  369TIP3    H2 1114   0.041   3.809   4.250
  370TIP3   OH2 1115   3.946   0.402   0.682
  370TIP3    H1 1116   3.907   0.322   0.647
  370TIP3    H2 1117   3.990   0.374   0.763
  371TIP3   OH2 1118   4.809   1.347   1.947
  371TIP3    H1 1119   4.744   1.387   1.889
  371TIP3    H2 1120   4.888   1.397   1.932
  372TIP3   OH2 1121   2.545   1.996   1.509
  372TIP3    H1 1122   2.556   1.941   1.587
  372TIP3    H2 1123   2.604   2.070   1.523
  373TIP3   OH2 1124   3.372   1.170   2.375
  373TIP3    H1 1125   3.401   1.241   2.318
  373TIP3    H2 1126   3.357   1.212   2.460
  374TIP3   OH2 1127   1.940   1.139   1.751
  374TIP3    H1 1128   1.953   1.083   1.674
  374TIP3    H2 1129   1.849   1.169   1.744
  375TIP3   OH2 1130   5.307   1.549   1.352
  375TIP3    H1 1131   5.393   1.508   1.361
  375TIP3    H2 1132   5.267   1.506   1.276
  376TIP3   OH2 1133   3.584   5.945   4.591
  376TIP3    H1 1134   3.658   5.885   4.599
  376TIP3    H2 1135   3.539   5.939   4.676
  377TIP3   OH2 1136   6.057   1.775   0.843
  377TIP3    H1 1137   6.147   1.806   0.847
  377TIP3    H2 1138   6.044   1.751   0.751
  378TIP3   OH2 1139   0.031   2.944   4.261
  378TIP3    H1 1140   0.102   3.000   4.229
  378TIP3    H2 1141  -0.010   2.910   4.181
  379TIP3   OH2 1142   3.376   0.057   2.231
  379TIP3    H1 1143   3.362   0.013   2.315
  379TIP3    H2 1144   3.335  -0.002   2.167
  380TIP3   OH2 1145   4.436   5.760   1.179
  380TIP3    H1 1146   4.465   5.780   1.268
  380TIP3    H2 1147   4.364   5.821   1.162
  381TIP3   OH2 1148   2.566   5.178   3.551
  381TIP3    H1 1149   2.563   5.095   3.598
  381TIP3    H2 1150   2.600   5.156   3.464
  382TIP3   OH2 1151   3.153   2.622   2.393
  382TIP3    H1 1152   3.114   2.700   2.434
  382TIP3    H2 1153   3.177   2.650   2.305
  383TIP3   OH2 1154   4.265   4.070   3.815
  383TIP3    H1 1155   4.269   3.979   3.846
  383TIP3    H2 1156   4.224   4.064   3.728
  384TIP3   OH2 1157   5.607   1.846   1.478
  384TIP3    H1 1158   5.586   1.770   1.533
  384TIP3    H2 1159   5.543   1.912   1.504
  385TIP3   OH2 1160   6.056   2.687   1.827
  385TIP3    H1 1161   5.992   2.724   1.767
  385TIP3    H2 1162   6.003   2.640   1.892
  386TIP3   OH2 1163   5.821   0.924   0.761
  386TIP3    H1 1164   5.767   1.002   0.746
  386TIP3    H2 1165   5.810   0.871   0.682
  387TIP3   OH2 1166   1.693   2.157   2.296
  387TIP3    H1 1167   1.601   2.140   2.277
  387TIP3    H2 1168   1.715   2.233   2.243
  388TIP3   OH2 1169   3.043   2.698   1.083
  388TIP3    H1 1170   2.949   2.713   1.070
  388TIP3    H2 1171   3.073   2.777   1.128
  389TIP3   OH2 1172   4.664   1.856   3.920
  389TIP3    H1 1173   4.664   1.926   3.855
  389TIP3    H2 1174   4.708   1.894   3.996
  390TIP3   OH2 1175   0.513   5.141   1.492
  390TIP3    H1 1176   0.569   5.091   1.433
  390TIP3    H2 1177   0.436   5.087   1.504
  391TIP3   OH2 1178   1.085   5.537   4.479
  391TIP3    H1 1179   1.044   5.600   4.538
  391TIP3    H2 1180   1.066   5.452   4.519
  392TIP3   OH2 1181   2.055   0.748   5.153
  392TIP3    H1 1182   2.011   0.829   5.179
  392TIP3    H2 1183   2.126   0.738   5.216
  393TIP3   OH2 1184   5.966   3.088   4.848
  393TIP3    H1 1185   5.918   3.036   4.783
  393TIP3    H2 1186   5.945   3.178   4.827
  394TIP3   OH2 1187   4.007   5.513   0.491
  394TIP3    H1 1188   3.947   5.570   0.539
  394TIP3    H2 1189   4.044   5.569   0.423
  395TIP3   OH2 1190   1.439   4.835   2.822
  395TIP3    H1 1191   1.370   4.871   2.878
  395TIP3    H2 1192   1.504   4.905   2.815
  396TIP3   OH2 1193   3.173   3.035   2.157
  396TIP3    H1 1194   3.250   2.999   2.114
  396TIP3    H2 1195   3.201   3.120   2.190
  397TIP3   OH2 1196   6.023   5.411   5.007
  397TIP3    H1 1197   5.942   5.375   5.044
  397TIP3    H2 1198   6.012   5.506   5.014
  398TIP3   OH2 1199   2.884   4.311   2.944
  398TIP3    H1 1200   2.951   4.245   2.930
  398TIP3    H2 1201   2.814   4.288   2.882
  399TIP3   OH2 1202   1.450   3.637   1.514
  399TIP3    H1 1203   1.458   3.560   1.569
  399TIP3    H2 1204   1.366   3.627   1.470
  400TIP3   OH2 1205   2.327   5.582   1.952
  400TIP3    H1 1206   2.277   5.639   2.011
  400TIP3    H2 1207   2.416   5.616   1.957
  401TIP3   OH2 1208   0.028   5.365   2.770
  401TIP3    H1 1209  -0.057   5.397   2.800
  401TIP3    H2 1210   0.018   5.355   2.676
  402TIP3   OH2 1211   0.716   5.688   4.787
  402TIP3    H1 1212   0.690   5.611   4.838
  402TIP3    H2 1213   0.648   5.697   4.721
  403TIP3   OH2 1214   5.444   4.644   2.044
  403TIP3    H1 1215   5.403   4.683   2.121
  403TIP3    H2 1216   5.503   4.577   2.079
  404TIP3   OH2 1217   0.071   1.930   2.239
  404TIP3    H1 1218   0.113   1.962   2.159
  404TIP3    H2 1219   0.082   2.001   2.302
  405TIP3   OH2 1220   5.351   2.246   0.680
  405TIP3    H1 1221   5.443   2.262   0.701
  405TIP3    H2 1222   5.343   2.269   0.588
  406TIP3   OH2 1223   0.579   3.870   2.912
  406TIP3    H1 1224   0.667   3.907   2.919
  406TIP3    H2 1225   0.593   3.783   2.875
  407TIP3   OH2 1226   2.132   3.621   1.758
  407TIP3    H1 1227   2.058   3.561   1.768
  407TIP3    H2 1228   2.093   3.703   1.728
  408TIP3   OH2 1229   5.890   2.200   0.974
  408TIP3    H1 1230   5.895   2.283   0.928
  408TIP3    H2 1231   5.981   2.179   0.995
  409TIP3   OH2 1232   5.058   4.976   3.459
  409TIP3    H1 1233   5.052   4.961   3.553
  409TIP3    H2 1234   5.028   5.066   3.447
  410TIP3   OH2 1235   4.483   1.691   4.024
  410TIP3    H1 1236   4.534   1.637   4.085
  410TIP3    H2 1237   4.547   1.749   3.985
  411TIP3   OH2 1238   0.810   2.780   3.471
  411TIP3    H1 1239   0.783   2.871   3.482
  411TIP3    H2 1240   0.740   2.740   3.420
  412TIP3   OH2 1241   3.335   4.828   1.266
  412TIP3    H1 1242   3.271   4.788   1.208
  412TIP3    H2 1243   3.357   4.911   1.223
  413TIP3   OH2 1244   0.087   1.823   4.913
  413TIP3    H1 1245   0.012   1.803   4.968
  413TIP3    H2 1246   0.060   1.899   4.861
  414TIP3   OH2 1247   2.481   5.108   1.601
  414TIP3    H1 1248   2.412   5.172   1.617
  414TIP3    H2 1249   2.445   5.025   1.632
  415TIP3   OH2 1250   5.160   3.513   2.372
  415TIP3    H1 1251   5.105   3.489   2.298
  415TIP3    H2 1252   5.154   3.439   2.432
  416TIP3   OH2 1253   5.418   4.186   2.858
  416TIP3    H1 1254   5.400   4.186   2.764
  416TIP3    H2 1255   5.408   4.094   2.884
  417TIP3   OH2 1256   3.308   0.899   0.258
  417TIP3    H1 1257   3.399   0.919   0.280
  417TIP3    H2 1258   3.264   0.984   0.261
  418TIP3   OH2 1259   4.478   1.279   3.317
  418TIP3    H1 1260   4.531   1.323   3.383
  418TIP3    H2 1261   4.530   1.284   3.237
  419TIP3   OH2 1262   3.082   3.564   3.467
  419TIP3    H1 1263   3.019   3.636   3.461
  419TIP3    H2 1264   3.045   3.506   3.533
  420TIP3   OH2 1265   2.118   1.533   4.267
  420TIP3    H1 1266   2.061   1.485   4.207
  420TIP3    H2 1267   2.060   1.593   4.314
  421TIP3   OH2 1268   1.295   0.209   2.291
  421TIP3    H1 1269   1.275   0.225   2.384
  421TIP3    H2 1270   1.391   0.204   2.288
  422TIP3   OH2 1271   4.158   2.546   1.291
  422TIP3    H1 1272   4.217   2.620   1.275
  422TIP3    H2 1273   4.214   2.469   1.287
  423TIP3   OH2 1274   5.980   5.304   1.545
  423TIP3    H1 1275   5.929   5.251   1.484
  423TIP3    H2 1276   5.959   5.394   1.521
  424TIP3   OH2 1277   1.193   3.031   3.319
  424TIP3    H1 1278   1.105   3.067   3.324
  424TIP3    H2 1279   1.190   2.970   3.245
  425TIP3   OH2 1280   5.356   3.199   3.864
  425TIP3    H1 1281   5.306   3.118   3.854
  425TIP3    H2 1282   5.445   3.176   3.836
  426TIP3   OH2 1283   0.665   4.733   0.943
  426TIP3    H1 1284   0.586   4.678   0.947
  426TIP3    H2 1285   0.703   4.714   0.858
  427TIP3   OH2 1286   5.595   4.617   3.910
  427TIP3    H1 1287   5.507   4.583   3.925
  427TIP3    H2 1288   5.584   4.689   3.849
  428TIP3   OH2 1289   2.066   0.215   4.889
  428TIP3    H1 1290   2.042   0.153   4.957
  428TIP3    H2 1291   2.027   0.180   4.809
  429TIP3   OH2 1292   1.357   1.292   4.147
  429TIP3    H1 1293   1.405   1.253   4.074
  429TIP3    H2 1294   1.343   1.219   4.207
  430TIP3   OH2 1295   6.137   0.872   1.433
  430TIP3    H1 1296   6.177   0.863   1.346
  430TIP3    H2 1297   6.068   0.937   1.420
  431TIP3   OH2 1298   1.557   4.921   4.940
  431TIP3    H1 1299   1.630   4.926   5.002
  431TIP3    H2 1300   1.596   4.889   4.859
  432TIP3   OH2 1301   6.251   5.333   1.624
  432TIP3    H1 1302   6.251   5.416   1.576
  432TIP3    H2 1303   6.159   5.308   1.629
  433TIP3   OH2 1304   6.225   0.665   4.497
  433TIP3    H1 1305   6.194   0.657   4.587
  433TIP3    H2 1306   6.196   0.584   4.455
  434TIP3   OH2 1307   3.262   0.764   4.307
  434TIP3    H1 1308   3.279   0.781   4.399
  434TIP3    H2 1309   3.340   0.716   4.276
  435TIP3   OH2 1310   0.387   5.273   4.426
  435TIP3    H1 1311   0.456   5.253   4.363
  435TIP3    H2 1312   0.310   5.227   4.391
  436TIP3   OH2 1313   4.175   3.378   3.365
  436TIP3    H1 1314   4.170   3.295   3.318
  436TIP3    H2 1315   4.267   3.401   3.364
  437TIP3   OH2 1316   5.023   1.195   4.698
  437TIP3    H1 1317   4.949   1.154   4.653
  437TIP3    H2 1318   5.087   1.125   4.708
  438TIP3   OH2 1319   1.550   2.077   0.840
  438TIP3    H1 1320   1.550   2.170   0.819
  438TIP3    H2 1321   1.636   2.062   0.880
  439TIP3   OH2 1322   4.872   2.977   1.610
  439TIP3    H1 1323   4.944   3.038   1.629
  439TIP3    H2 1324   4.810   3.028   1.559
  440TIP3   OH2 1325   4.008   4.888   1.498
  440TIP3    H1 1326   3.986   4.982   1.501
  440TIP3    H2 1327   4.097   4.884   1.532
  441TIP3   OH2 1328   0.074   2.995   3.030
  441TIP3    H1 1329   0.036   3.042   2.955
  441TIP3    H2 1330   0.095   2.909   2.995
  442TIP3   OH2 1331   3.934   5.424   3.759
  442TIP3    H1 1332   3.960   5.484   3.689
  442TIP3    H2 1333   3.846   5.451   3.782
  443TIP3   OH2 1334   1.725   4.670   1.545
  443TIP3    H1 1335   1.814   4.652   1.575
  443TIP3    H2 1336   1.734   4.748   1.490
  444TIP3   OH2 1337   4.338   0.409   1.389
  444TIP3    H1 1338   4.413   0.402   1.330
  444TIP3    H2 1339   4.313   0.502   1.384
  445TIP3   OH2 1340   4.360   5.553   4.224
  445TIP3    H1 1341   4.393   5.641   4.206
  445TIP3    H2 1342   4.416   5.520   4.294
  446TIP3   OH2 1343   1.860   3.034   4.513
  446TIP3    H1 1344   1.793   2.995   4.457
  446TIP3    H2 1345   1.941   3.028   4.463
  447TIP3   OH2 1346   1.370   0.463   2.640
  447TIP3    H1 1347   1.361   0.489   2.549
  447TIP3    H2 1348   1.337   0.373   2.643
  448TIP3   OH2 1349   5.606   2.439   2.170
  448TIP3    H1 1350   5.654   2.401   2.244
  448TIP3    H2 1351   5.633   2.387   2.094
  449TIP3   OH2 1352   4.050   2.298   1.098
  449TIP3    H1 1353   3.955   2.308   1.084
  449TIP3    H2 1354   4.079   2.386   1.124
  450TIP3   OH2 1355   3.034   1.865   1.198
  450TIP3    H1 1356   3.028   1.772   1.222
  450TIP3    H2 1357   2.944   1.893   1.187
  451TIP3   OH2 1358   0.920   0.754   3.136
  451TIP3    H1 1359   0.884   0.735   3.049
  451TIP3    H2 1360   0.969   0.836   3.124
  452TIP3   OH2 1361   3.894   0.312   1.097
  452TIP3    H1 1362   3.835   0.384   1.119
  452TIP3    H2 1363   3.978   0.337   1.137
  453TIP3   OH2 1364   4.262   1.239   5.148
  453TIP3    H1 1365   4.331   1.246   5.082
  453TIP3    H2 1366   4.240   1.146   5.150
  454TIP3   OH2 1367   1.469   3.130   2.888
  454TIP3    H1 1368   1.449   3.207   2.941
  454TIP3    H2 1369   1.558   3.106   2.914
  455TIP3   OH2 1370   4.238   1.464   4.782
  455TIP3    H1 1371   4.280   1.463   4.868
  455TIP3    H2 1372   4.145   1.456   4.801
  456TIP3   OH2 1373   3.163   1.859   4.799
  456TIP3    H1 1374   3.093   1.804   4.833
  456TIP3    H2 1375   3.153   1.856   4.704
  457TIP3   OH2 1376   4.493   4.442   4.993
  457TIP3    H1 1377   4.410   4.441   4.946
  457TIP3    H2 1378   4.470   4.422   5.084
  458TIP3   OH2 1379   2.870   4.858   0.832
  458TIP3    H1 1380   2.820   4.894   0.759
  458TIP3    H2 1381   2.953   4.905   0.830
  459TIP3   OH2 1382   0.264   3.311   5.088
  459TIP3    H1 1383   0.262   3.222   5.122
  459TIP3    H2 1384   0.279   3.366   5.166
  460TIP3   OH2 1385   6.118   4.611   2.465
  460TIP3    H1 1386   6.065   4.550   2.414
  460TIP3    H2 1387   6.206   4.603   2.427
  461TIP3   OH2 1388   3.680   1.541   4.050
  461TIP3    H1 1389   3.683   1.636   4.066
  461TIP3    H2 1390   3.771   1.514   4.049
  462TIP3   OH2 1391   2.389   2.547   3.228
  462TIP3    H1 1392   2.427   2.533   3.315
  462TIP3    H2 1393   2.417   2.471   3.178
  463TIP3   OH2 1394   5.177   0.177   3.876
  463TIP3    H1 1395   5.088   0.154   3.903
  463TIP3    H2 1396   5.164   0.253   3.819
  464TIP3   OH2 1397   5.567   4.474   5.088
  464TIP3    H1 1398   5.515   4.468   5.168
  464TIP3    H2 1399   5.504   4.502   5.021
  465TIP3   OH2 1400   0.406   3.429   3.764
  465TIP3    H1 1401   0.360   3.345   3.754
  465TIP3    H2 1402   0.488   3.417   3.715
  466TIP3   OH2 1403   5.266   3.482   4.379
  466TIP3    H1 1404   5.198   3.426   4.341
  466TIP3    H2 1405   5.336   3.482   4.313
  467TIP3   OH2 1406   4.008   2.408   4.211
  467TIP3    H1 1407   3.996   2.320   4.247
  467TIP3    H2 1408   3.961   2.465   4.271
  468TIP3   OH2 1409   0.550   4.090   3.586
  468TIP3    H1 1410   0.575   4.004   3.553
  468TIP3    H2 1411   0.505   4.072   3.669
  469TIP3   OH2 1412   3.078   5.575   2.905
  469TIP3    H1 1413   3.001   5.535   2.865
  469TIP3    H2 1414   3.142   5.580   2.834
  470TIP3   OH2 1415   3.301   4.038   1.368
  470TIP3    H1 1416   3.247   4.065   1.294
  470TIP3    H2 1417   3.254   4.068   1.445
  471TIP3   OH2 1418   5.304   0.194   5.114
  471TIP3    H1 1419   5.324   0.133   5.043
  471TIP3    H2 1420   5.236   0.251   5.078
  472TIP3   OH2 1421   0.713   3.813   0.223
  472TIP3    H1 1422   0.679   3.888   0.273
  472TIP3    H2 1423   0.693   3.737   0.278
  473TIP3   OH2 1424   6.180   1.561   1.117
  473TIP3    H1 1425   6.151   1.543   1.027
  473TIP3    H2 1426   6.204   1.654   1.116
  474TIP3   OH2 1427   3.115   5.906   3.947
  474TIP3    H1 1428   3.115   5.991   3.990
  474TIP3    H2 1429   3.207   5.891   3.923
  475TIP3   OH2 1430   1.874   4.590   0.946
  475TIP3    H1 1431   1.945   4.537   0.983
  475TIP3    H2 1432   1.889   4.587   0.852
  476TIP3   OH2 1433   4.448   0.981   4.153
  476TIP3    H1 1434   4.509   1.014   4.220
  476TIP3    H2 1435   4.364   1.019   4.177
  477TIP3   OH2 1436   1.738   0.469   2.956
  477TIP3    H1 1437   1.730   0.563   2.970
  477TIP3    H2 1438   1.648   0.436   2.961
  478TIP3   OH2 1439   5.620   5.617   5.100
  478TIP3    H1 1440   5.676   5.558   5.050
  478TIP3    H2 1441   5.562   5.657   5.035
  479TIP3   OH2 1442   4.560   3.341   3.657
  479TIP3    H1 1443   4.488   3.323   3.717
  479TIP3    H2 1444   4.577   3.435   3.667
  480TIP3   OH2 1445   4.977   4.079   3.433
  480TIP3    H1 1446   4.985   3.998   3.483
  480TIP3    H2 1447   4.896   4.118   3.463
  481TIP3   OH2 1448   4.170   4.419   1.002
  481TIP3    H1 1449   4.148   4.497   0.951
  481TIP3    H2 1450   4.257   4.437   1.036
  482TIP3   OH2 1451   1.099   0.061   0.171
  482TIP3    H1 1452   1.074   0.053   0.263
  482TIP3    H2 1453   1.174   0.003   0.160
  483TIP3   OH2 1454   3.578   5.531   3.553
  483TIP3    H1 1455   3.650   5.488   3.505
  483TIP3    H2 1456   3.606   5.528   3.645
  484TIP3   OH2 1457   3.187   2.271   2.626
  484TIP3    H1 1458   3.237   2.291   2.548
  484TIP3    H2 1459   3.181   2.175   2.626
  485TIP3   OH2 1460   1.021   2.705   3.309
  485TIP3    H1 1461   1.057   2.660   3.233
  485TIP3    H2 1462   1.027   2.798   3.288
  486TIP3   OH2 1463   5.273   3.331   1.162
  486TIP3    H1 1464   5.366   3.328   1.138
  486TIP3    H2 1465   5.272   3.330   1.258
  487TIP3   OH2 1466   0.330   1.325   3.061
  487TIP3    H1 1467   0.419   1.290   3.051
  487TIP3    H2 1468   0.303   1.297   3.149
  488TIP3   OH2 1469   4.437   5.513   3.355
  488TIP3    H1 1470   4.458   5.606   3.366
  488TIP3    H2 1471   4.416   5.504   3.262
  489TIP3   OH2 1472   2.285   2.601   2.606
  489TIP3    H1 1473   2.299   2.648   2.688
  489TIP3    H2 1474   2.357   2.538   2.602
  490TIP3   OH2 1475   6.035   3.830   1.654
  490TIP3    H1 1476   6.085   3.875   1.721
  490TIP3    H2 1477   5.946   3.826   1.689
  491TIP3   OH2 1478   3.167   1.473   0.342
  491TIP3    H1 1479   3.240   1.413   0.357
  491TIP3    H2 1480   3.182   1.545   0.403
  492TIP3   OH2 1481   5.512   3.937   0.509
  492TIP3    H1 1482   5.464   3.965   0.432
  492TIP3    H2 1483   5.570   4.010   0.530
  493TIP3   OH2 1484   1.002   5.056   2.102
  493TIP3    H1 1485   0.961   4.976   2.135
  493TIP3    H2 1486   0.937   5.093   2.042
  494TIP3   OH2 1487   6.254   2.455   0.065
  494TIP3    H1 1488   6.296   2.470   0.149
  494TIP3    H2 1489   6.326   2.459   0.001
  495TIP3   OH2 1490   1.122   5.557   1.814
  495TIP3    H1 1491   1.162   5.507   1.742
  495TIP3    H2 1492   1.068   5.622   1.770
  496TIP3   OH2 1493   4.910   4.034   5.051
  496TIP3    H1 1494   4.845   4.098   5.021
  496TIP3    H2 1495   4.887   4.018   5.142
  497TIP3   OH2 1496   5.034   4.711   1.879
  497TIP3    H1 1497   5.039   4.726   1.785
  497TIP3    H2 1498   4.971   4.776   1.911
  498TIP3   OH2 1499   0.104   2.856   3.565
  498TIP3    H1 1500   0.154   2.900   3.496
  498TIP3    H2 1501   0.019   2.899   3.564
  499TIP3   OH2 1502   3.363   3.333   3.715
  499TIP3    H1 1503   3.350   3.424   3.743
  499TIP3    H2 1504   3.286   3.313   3.663
  500TIP3   OH2 1505   0.201   4.733   3.016
  500TIP3    H1 1506   0.266   4.802   3.006
  500TIP3    H2 1507   0.242   4.670   3.076
  501TIP3   OH2 1508   3.427   4.380   3.936
  501TIP3    H1 1509   3.409   4.293   3.901
  501TIP3    H2 1510   3.341   4.412   3.965
  502TIP3   OH2 1511   6.232   0.831   3.477
  502TIP3    H1 1512   6.227   0.736   3.477
  502TIP3    H2 1513   6.260   0.854   3.388
  503TIP3   OH2 1514   0.307   4.983   1.544
  503TIP3    H1 1515   0.229   5.037   1.542
  503TIP3    H2 1516   0.277   4.896   1.517
  504TIP3   OH2 1517   4.063   1.182   3.654
  504TIP3    H1 1518   4.089   1.090   3.654
  504TIP3    H2 1519   3.983   1.184   3.707
  505TIP3   OH2 1520   0.869   5.124   3.033
  505TIP3    H1 1521   0.864   5.178   2.953
  505TIP3    H2 1522   0.885   5.036   3.001
  506TIP3   OH2 1523   2.362   5.361   1.730
  506TIP3    H1 1524   2.373   5.290   1.793
  506TIP3    H2 1525   2.374   5.441   1.782
  507TIP3   OH2 1526   4.663   1.187   4.899
  507TIP3    H1 1527   4.699   1.124   4.837
  507TIP3    H2 1528   4.703   1.163   4.983
  508TIP3   OH2 1529   2.753   5.907   0.216
  508TIP3    H1 1530   2.754   5.811   0.217
  508TIP3    H2 1531   2.842   5.932   0.240
  509TIP3   OH2 1532   3.857   4.726   2.200
  509TIP3    H1 1533   3.792   4.728   2.129
  509TIP3    H2 1534   3.935   4.689   2.159
  510TIP3   OH2 1535   2.938   3.714   3.027
  510TIP3    H1 1536   2.846   3.703   3.002
  510TIP3    H2 1537   2.949   3.808   3.038
  511TIP3   OH2 1538   5.668   4.322   4.802
  511TIP3    H1 1539   5.671   4.416   4.784
  511TIP3    H2 1540   5.725   4.283   4.736
  512TIP3   OH2 1541   3.740   0.616   4.731
  512TIP3    H1 1542   3.735   0.611   4.636
  512TIP3    H2 1543   3.656   0.653   4.758
  513TIP3   OH2 1544   1.205   5.257   1.308
  513TIP3    H1 1545   1.273   5.297   1.363
  513TIP3    H2 1546   1.224   5.163   1.312
  514TIP3   OH2 1547   4.489   4.807   4.018
  514TIP3    H1 1548   4.503   4.887   3.967
  514TIP3    H2 1549   4.530   4.738   3.967
  515TIP3   OH2 1550   0.362   4.194   2.448
  515TIP3    H1 1551   0.289   4.190   2.509
  515TIP3    H2 1552   0.353   4.278   2.404
  516TIP3   OH2 1553   0.421   3.928   1.145
  516TIP3    H1 1554   0.492   3.877   1.105
  516TIP3    H2 1555   0.342   3.877   1.127
  517TIP3   OH2 1556   2.202   5.217   4.592
  517TIP3    H1 1557   2.190   5.167   4.511
  517TIP3    H2 1558   2.186   5.153   4.662
  518TIP3   OH2 1559   0.912   4.965   0.411
  518TIP3    H1 1560   0.911   4.986   0.318
  518TIP3    H2 1561   0.925   5.050   0.454
  519TIP3   OH2 1562   0.440   5.342   1.966
  519TIP3    H1 1563   0.469   5.342   1.875
  519TIP3    H2 1564   0.410   5.431   1.982
  520TIP3   OH2 1565   3.505   4.065   4.546
  520TIP3    H1 1566   3.552   4.088   4.466
  520TIP3    H2 1567   3.413   4.074   4.524
  521TIP3   OH2 1568   3.376   4.058   2.008
  521TIP3    H1 1569   3.395   4.092   1.920
  521TIP3    H2 1570   3.300   4.002   1.997
  522TIP3   OH2 1571   3.949   2.750   5.003
  522TIP3    H1 1572   3.957   2.763   4.908
  522TIP3    H2 1573   3.986   2.663   5.018
  523TIP3   OH2 1574   5.373   2.329   1.218
  523TIP3    H1 1575   5.425   2.288   1.149
  523TIP3    H2 1576   5.282   2.319   1.190
  524TIP3   OH2 1577   4.186   0.077   4.359
  524TIP3    H1 1578   4.248   0.134   4.315
  524TIP3    H2 1579   4.190  -0.006   4.311
  525TIP3   OH2 1580   5.247   4.802   2.201
  525TIP3    H1 1581   5.280   4.835   2.285
  525TIP3    H2 1582   5.252   4.707   2.209
  526TIP3   OH2 1583   5.164   3.182   0.920
  526TIP3    H1 1584   5.193   3.092   0.906
  526TIP3    H2 1585   5.172   3.195   1.014
  527TIP3   OH2 1586   5.861   5.058   1.799
  527TIP3    H1 1587   5.843   4.979   1.748
  527TIP3    H2 1588   5.955   5.052   1.820
  528TIP3   OH2 1589   4.871   5.369   1.096
  528TIP3    H1 1590   4.831   5.423   1.164
  528TIP3    H2 1591   4.928   5.309   1.144
  529TIP3   OH2 1592   2.212   0.117   0.277
  529TIP3    H1 1593   2.151   0.128   0.204
  529TIP3    H2 1594   2.263   0.198   0.277
  530TIP3   OH2 1595   1.803   2.216   0.839
  530TIP3    H1 1596   1.838   2.240   0.924
  530TIP3    H2 1597   1.850   2.271   0.777
  531TIP3   OH2 1598   5.617   0.325   0.248
  531TIP3    H1 1599   5.684   0.292   0.189
  531TIP3    H2 1600   5.664   0.346   0.329
  532TIP3   OH2 1601   4.813   0.245   5.173
  532TIP3    H1 1602   4.853   0.190   5.241
  532TIP3    H2 1603   4.773   0.184   5.112
  533TIP3   OH2 1604   4.872   1.066   4.307
  533TIP3    H1 1605   4.921   1.022   4.377
  533TIP3    H2 1606   4.862   0.999   4.239
  534TIP3   OH2 1607   6.107   0.313   1.688
  534TIP3    H1 1608   6.172   0.336   1.622
  534TIP3    H2 1609   6.029   0.361   1.662
  535TIP3   OH2 1610   4.309   2.593   4.901
  535TIP3    H1 1611   4.294   2.656   4.830
  535TIP3    H2 1612   4.402   2.571   4.894
  536TIP3   OH2 1613   2.420   4.910   3.592
  536TIP3    H1 1614   2.421   4.829   3.540
  536TIP3    H2 1615   2.362   4.969   3.544
  537TIP3   OH2 1616   4.344   4.894   1.330
  537TIP3    H1 1617   4.390   4.823   1.285
  537TIP3    H2 1618   4.263   4.905   1.280
  538TIP3   OH2 1619   0.605   1.268   2.405
  538TIP3    H1 1620   0.656   1.334   2.358
  538TIP3    H2 1621   0.566   1.215   2.335
  539TIP3   OH2 1622   0.554   2.257   3.446
  539TIP3    H1 1623   0.580   2.325   3.507
  539TIP3    H2 1624   0.536   2.181   3.502
  540TIP3   OH2 1625   0.385   2.152   1.348
  540TIP3    H1 1626   0.365   2.231   1.399
  540TIP3    H2 1627   0.302   2.127   1.307
  541TIP3   OH2 1628   3.576   2.676   0.774
  541TIP3    H1 1629   3.491   2.660   0.817
  541TIP3    H2 1630   3.622   2.735   0.833
  542TIP3   OH2 1631   2.111   5.586   3.041
  542TIP3    H1 1632   2.026   5.564   3.079
  542TIP3    H2 1633   2.134   5.671   3.078
  543TIP3   OH2 1634   1.098   3.466   5.156
  543TIP3    H1 1635   1.049   3.543   5.186
  543TIP3    H2 1636   1.052   3.392   5.196
  544TIP3   OH2 1637   0.662   2.974   2.286
  544TIP3    H1 1638   0.678   2.901   2.226
  544TIP3    H2 1639   0.629   2.933   2.366
  545TIP3   OH2 1640   5.197   4.220   3.354
  545TIP3    H1 1641   5.116   4.174   3.373
  545TIP3    H2 1642   5.176   4.277   3.280
  546TIP3   OH2 1643   3.338   0.217   2.683
  546TIP3    H1 1644   3.406   0.247   2.623
  546TIP3    H2 1645   3.373   0.136   2.720
  547TIP3   OH2 1646   6.257   4.795   2.126
  547TIP3    H1 1647   6.260   4.813   2.032
  547TIP3    H2 1648   6.276   4.879   2.167
  548TIP3   OH2 1649   2.682   1.163   0.277
  548TIP3    H1 1650   2.710   1.247   0.312
  548TIP3    H2 1651   2.598   1.146   0.319
  549TIP3   OH2 1652   4.328   4.295   4.372
  549TIP3    H1 1653   4.374   4.313   4.454
  549TIP3    H2 1654   4.259   4.234   4.397
  550TIP3   OH2 1655   6.252   4.278   2.116
  550TIP3    H1 1656   6.292   4.198   2.150
  550TIP3    H2 1657   6.200   4.312   2.189
  551TIP3   OH2 1658   3.328   1.203   3.387
  551TIP3    H1 1659   3.326   1.180   3.294
  551TIP3    H2 1660   3.345   1.297   3.389
  552TIP3   OH2 1661   5.257   4.887   1.002
  552TIP3    H1 1662   5.254   4.914   1.094
  552TIP3    H2 1663   5.222   4.798   1.002
  553TIP3   OH2 1664   3.879   2.977   4.451
  553TIP3    H1 1665   3.903   3.069   4.438
  553TIP3    H2 1666   3.848   2.973   4.542
  554TIP3   OH2 1667   0.187   1.737   2.716
  554TIP3    H1 1668   0.228   1.650   2.714
  554TIP3    H2 1669   0.111   1.729   2.658
  555TIP3   OH2 1670   0.606   3.597   0.354
  555TIP3    H1 1671   0.540   3.662   0.374
  555TIP3    H2 1672   0.567   3.542   0.286
  556TIP3   OH2 1673   5.772   3.756   4.211
  556TIP3    H1 1674   5.746   3.673   4.171
  556TIP3    H2 1675   5.862   3.741   4.240
  557TIP3   OH2 1676   0.539   3.365   4.021
  557TIP3    H1 1677   0.633   3.348   4.016
  557TIP3    H2 1678   0.520   3.415   3.942
  558TIP3   OH2 1679   3.256   3.574   4.700
  558TIP3    H1 1680   3.195   3.499   4.698
  558TIP3    H2 1681   3.208   3.642   4.747
  559TIP3   OH2 1682   2.327   4.304   4.230
  559TIP3    H1 1683   2.390   4.361   4.273
  559TIP3    H2 1684   2.257   4.362   4.201
  560TIP3   OH2 1685   0.854   2.154   5.208
  560TIP3    H1 1686   0.860   2.062   5.182
  560TIP3    H2 1687   0.830   2.200   5.128
  561TIP3   OH2 1688   3.343   4.661   3.634
  561TIP3    H1 1689   3.348   4.688   3.726
  561TIP3    H2 1690   3.403   4.587   3.628
  562TIP3   OH2 1691   4.839   0.996   2.413
  562TIP3    H1 1692   4.781   0.936   2.368
  562TIP3    H2 1693   4.851   0.958   2.500
  563TIP3   OH2 1694   5.774   0.526   0.056
  563TIP3    H1 1695   5.865   0.551   0.073
  563TIP3    H2 1696   5.777   0.431   0.044
  564TIP3   OH2 1697   4.143   4.010   2.060
  564TIP3    H1 1698   4.075   4.038   2.121
  564TIP3    H2 1699   4.221   4.057   2.088
  565TIP3   OH2 1700   5.461   4.363   3.732
  565TIP3    H1 1701   5.550   4.357   3.697
  565TIP3    H2 1702   5.455   4.290   3.794
  566TIP3   OH2 1703   1.067   2.937   1.248
  566TIP3    H1 1704   1.156   2.935   1.284
  566TIP3    H2 1705   1.053   3.028   1.223
  567TIP3   OH2 1706   0.223   1.046   0.896
  567TIP3    H1 1707   0.294   1.054   0.833
  567TIP3    H2 1708   0.179   0.964   0.873
  568TIP3   OH2 1709   0.134   1.324   1.739
  568TIP3    H1 1710   0.071   1.396   1.748
  568TIP3    H2 1711   0.123   1.272   1.819
  569TIP3   OH2 1712   2.864   0.933   2.556
  569TIP3    H1 1713   2.785   0.958   2.603
  569TIP3    H2 1714   2.847   0.957   2.465
  570TIP3   OH2 1715   2.864   5.614   1.551
  570TIP3    H1 1716   2.942   5.563   1.528
  570TIP3    H2 1717   2.874   5.696   1.501
  571TIP3   OH2 1718   3.358   4.210   3.675
  571TIP3    H1 1719   3.450   4.235   3.660
  571TIP3    H2 1720   3.361   4.116   3.692
  572TIP3   OH2 1721   3.756   3.221   0.090
  572TIP3    H1 1722   3.770   3.275   0.012
  572TIP3    H2 1723   3.761   3.131   0.058
  573TIP3   OH2 1724   0.643   5.943   5.201
  573TIP3    H1 1725   0.657   5.935   5.107
  573TIP3    H2 1726   0.557   5.903   5.216
  574TIP3   OH2 1727   1.101   4.112   3.943
  574TIP3    H1 1728   1.160   4.182   3.914
  574TIP3    H2 1729   1.156   4.034   3.945
  575TIP3   OH2 1730   1.894   0.708   2.257
  575TIP3    H1 1731   1.889   0.740   2.167
  575TIP3    H2 1732   1.982   0.731   2.287
  576TIP3   OH2 1733   3.508   0.641   5.078
  576TIP3    H1 1734   3.424   0.625   5.119
  576TIP3    H2 1735   3.490   0.636   4.984
  577TIP3   OH2 1736   4.629   1.649   1.433
  577TIP3    H1 1737   4.607   1.678   1.345
  577TIP3    H2 1738   4.563   1.583   1.454
  578TIP3   OH2 1739   1.570   4.741   2.590
  578TIP3    H1 1740   1.497   4.754   2.651
  578TIP3    H2 1741   1.537   4.773   2.506
  579TIP3   OH2 1742   5.038   5.050   5.169
  579TIP3    H1 1743   5.019   5.133   5.127
  579TIP3    H2 1744   4.956   5.025   5.211
  580TIP3   OH2 1745   5.604   3.883   4.663
  580TIP3    H1 1746   5.533   3.822   4.683
  580TIP3    H2 1747   5.651   3.843   4.590
  581TIP3   OH2 1748   5.110   2.085   4.049
  581TIP3    H1 1749   5.183   2.146   4.051
  581TIP3    H2 1750   5.050   2.120   3.983
  582TIP3   OH2 1751   5.532   2.373   4.962
  582TIP3    H1 1752   5.603   2.408   4.907
  582TIP3    H2 1753   5.551   2.406   5.050
  583TIP3   OH2 1754   4.063   0.200   0.051
  583TIP3    H1 1755   4.123   0.263   0.091
  583TIP3    H2 1756   4.107   0.172  -0.029
  584TIP3   OH2 1757   3.620   3.005   1.232
  584TIP3    H1 1758   3.579   3.091   1.229
  584TIP3    H2 1759   3.695   3.012   1.172
  585TIP3   OH2 1760   5.714   5.751   3.940
  585TIP3    H1 1761   5.642   5.693   3.917
  585TIP3    H2 1762   5.672   5.836   3.954
  586TIP3   OH2 1763   0.497   4.470   5.123
  586TIP3    H1 1764   0.458   4.486   5.208
  586TIP3    H2 1765   0.577   4.420   5.142
  587TIP3   OH2 1766   5.174   1.276   1.282
  587TIP3    H1 1767   5.214   1.266   1.368
  587TIP3    H2 1768   5.091   1.228   1.289
  588TIP3   OH2 1769   0.050   1.182   1.490
  588TIP3    H1 1770   0.047   1.218   1.578
  588TIP3    H2 1771   0.013   1.252   1.435
  589TIP3   OH2 1772   2.701   4.765   2.030
  589TIP3    H1 1773   2.749   4.722   2.101
  589TIP3    H2 1774   2.656   4.694   1.984
  590TIP3   OH2 1775   2.380   2.086   0.951
  590TIP3    H1 1776   2.448   2.121   1.009
  590TIP3    H2 1777   2.398   1.992   0.947
  591TIP3   OH2 1778   2.298   0.655   1.156
  591TIP3    H1 1779   2.361   0.727   1.158
  591TIP3    H2 1780   2.268   0.646   1.246
  592TIP3   OH2 1781   5.293   0.476   4.322
  592TIP3    H1 1782   5.216   0.427   4.352
  592TIP3    H2 1783   5.361   0.410   4.312
  593TIP3   OH2 1784   3.531   1.712   0.841
  593TIP3    H1 1785   3.615   1.754   0.826
  593TIP3    H2 1786   3.553   1.626   0.879
  594TIP3   OH2 1787   3.487   4.459   0.723
  594TIP3    H1 1788   3.562   4.517   0.735
  594TIP3    H2 1789   3.428   4.508   0.665
  595TIP3   OH2 1790   5.561   4.638   4.560
  595TIP3    H1 1791   5.475   4.677   4.545
  595TIP3    H2 1792   5.549   4.582   4.636
  596TIP3   OH2 1793   0.682   3.126   1.348
  596TIP3    H1 1794   0.723   3.061   1.406
  596TIP3    H2 1795   0.610   3.079   1.306
  597TIP3   OH2 1796   5.980   0.578   0.409
  597TIP3    H1 1797   5.986   0.668   0.378
  597TIP3    H2 1798   6.024   0.579   0.494
  598TIP3   OH2 1799   4.621   4.786   1.903
  598TIP3    H1 1800   4.535   4.791   1.945
  598TIP3    H2 1801   4.635   4.692   1.888
  599TIP3   OH2 1802   3.720   0.762   5.160
  599TIP3    H1 1803   3.637   0.719   5.137
  599TIP3    H2 1804   3.754   0.793   5.076
  600TIP3   OH2 1805   4.523   3.251   2.123
  600TIP3    H1 1806   4.560   3.201   2.195
  600TIP3    H2 1807   4.428   3.245   2.136
  601TIP3   OH2 1808   5.057   0.307   5.019
  601TIP3    H1 1809   5.014   0.305   4.934
  601TIP3    H2 1810   4.989   0.284   5.082
  602TIP3   OH2 1811   6.388   0.101   0.877
  602TIP3    H1 1812   6.295   0.124   0.872
  602TIP3    H2 1813   6.395   0.049   0.957
  603TIP3   OH2 1814   2.253   1.957   3.550
  603TIP3    H1 1815   2.187   1.967   3.619
  603TIP3    H2 1816   2.218   2.008   3.477
  604TIP3   OH2 1817   4.759   3.803   4.407
  604TIP3    H1 1818   4.773   3.891   4.441
  604TIP3    H2 1819   4.665   3.796   4.395
  605TIP3   OH2 1820   1.239   4.178   3.509
  605TIP3    H1 1821   1.230   4.086   3.533
  605TIP3    H2 1822   1.334   4.195   3.511
  606TIP3   OH2 1823   0.707   3.243   5.070
  606TIP3    H1 1824   0.784   3.216   5.120
  606TIP3    H2 1825   0.648   3.169   5.076
  607TIP3   OH2 1826   5.236   1.812   0.478
  607TIP3    H1 1827   5.252   1.728   0.434
  607TIP3    H2 1828   5.310   1.866   0.451
  608TIP3   OH2 1829   3.249   1.317   1.095
  608TIP3    H1 1830   3.178   1.273   1.141
  608TIP3    H2 1831   3.206   1.387   1.045
  609TIP3   OH2 1832   4.423   2.337   2.545
  609TIP3    H1 1833   4.379   2.390   2.478
  609TIP3    H2 1834   4.512   2.370   2.546
  610TIP3   OH2 1835   5.631   4.386   1.080
  610TIP3    H1 1836   5.716   4.430   1.074
  610TIP3    H2 1837   5.603   4.401   1.170
  611TIP3   OH2 1838   5.891   2.293   1.245
  611TIP3    H1 1839   5.954   2.248   1.301
  611TIP3    H2 1840   5.931   2.292   1.158
  612TIP3   OH2 1841   3.331   2.172   0.448
  612TIP3    H1 1842   3.255   2.189   0.393
  612TIP3    H2 1843   3.402   2.153   0.387
  613TIP3   OH2 1844   4.315   1.540   2.345
  613TIP3    H1 1845   4.258   1.466   2.365
  613TIP3    H2 1846   4.341   1.574   2.430
  614TIP3   OH2 1847   2.949   5.100   1.882
  614TIP3    H1 1848   3.041   5.077   1.893
  614TIP3    H2 1849   2.936   5.177   1.939
  615TIP3   OH2 1850   2.618   5.474   3.474
  615TIP3    H1 1851   2.685   5.409   3.452
  615TIP3    H2 1852   2.546   5.423   3.511
  616TIP3   OH2 1853   4.192   5.707   1.682
  616TIP3    H1 1854   4.235   5.772   1.738
  616TIP3    H2 1855   4.221   5.623   1.716
  617TIP3   OH2 1856   2.478   1.058   2.595
  617TIP3    H1 1857   2.548   1.033   2.655
  617TIP3    H2 1858   2.463   0.979   2.542
  618TIP3   OH2 1859   0.797   3.490   1.979
  618TIP3    H1 1860   0.868   3.515   1.920
  618TIP3    H2 1861   0.832   3.415   2.028
  619TIP3   OH2 1862   0.456   5.111   3.159
  619TIP3    H1 1863   0.523   5.178   3.145
  619TIP3    H2 1864   0.379   5.143   3.110
  620TIP3   OH2 1865   5.152   1.218   3.351
  620TIP3    H1 1866   5.203   1.298   3.342
  620TIP3    H2 1867   5.212   1.155   3.390
  621TIP3   OH2 1868   4.310   2.312   1.275
  621TIP3    H1 1869   4.357   2.341   1.197
  621TIP3    H2 1870   4.322   2.218   1.276
  622TIP3   OH2 1871   1.397   5.781   0.660
  622TIP3    H1 1872   1.463   5.839   0.698
  622TIP3    H2 1873   1.316   5.833   0.662
  623TIP3   OH2 1874   5.333   3.528   0.599
  623TIP3    H1 1875   5.370   3.442   0.618
  623TIP3    H2 1876   5.259   3.536   0.659
  624TIP3   OH2 1877   0.080   0.933   0.078
  624TIP3    H1 1878   0.042   0.994   0.014
  624TIP3    H2 1879   0.118   0.864   0.024
  625TIP3   OH2 1880   2.378   2.190   2.401
  625TIP3    H1 1881   2.369   2.167   2.308
  625TIP3    H2 1882   2.434   2.121   2.438
  626TIP3   OH2 1883   1.307   1.695   4.271
  626TIP3    H1 1884   1.236   1.639   4.302
  626TIP3    H2 1885   1.269   1.783   4.268
  627TIP3   OH2 1886   1.657   5.986   2.611
  627TIP3    H1 1887   1.694   5.898   2.602
  627TIP3    H2 1888   1.588   5.990   2.545
  628TIP3   OH2 1889   5.537   2.522   4.401
  628TIP3    H1 1890   5.570   2.606   4.430
  628TIP3    H2 1891   5.537   2.467   4.479
  629TIP3   OH2 1892   4.703   4.773   0.508
  629TIP3    H1 1893   4.741   4.845   0.457
  629TIP3    H2 1894   4.664   4.716   0.442
  630TIP3   OH2 1895   6.258   3.570   3.984
  630TIP3    H1 1896   6.285   3.561   4.075
  630TIP3    H2 1897   6.290   3.656   3.958
  631TIP3   OH2 1898   6.034   2.291   3.940
  631TIP3    H1 1899   5.966   2.354   3.966
  631TIP3    H2 1900   5.986   2.209   3.931
  632TIP3   OH2 1901   4.343   3.320   4.462
  632TIP3    H1 1902   4.278   3.251   4.474
  632TIP3    H2 1903   4.410   3.281   4.406
  633TIP3   OH2 1904   4.662   1.595   0.773
  633TIP3    H1 1905   4.715   1.576   0.696
  633TIP3    H2 1906   4.587   1.645   0.740
  634TIP3   OH2 1907   2.670   3.403   0.736
  634TIP3    H1 1908   2.620   3.323   0.723
  634TIP3    H2 1909   2.761   3.374   0.743
  635TIP3   OH2 1910   3.299   3.236   3.025
  635TIP3    H1 1911   3.210   3.216   3.053
  635TIP3    H2 1912   3.305   3.201   2.936
  636TIP3   OH2 1913   2.398   1.658   0.439
  636TIP3    H1 1914   2.403   1.565   0.417
  636TIP3    H2 1915   2.477   1.696   0.401
  637TIP3   OH2 1916   2.984   1.202   0.146
  637TIP3    H1 1917   2.911   1.245   0.102
  637TIP3    H2 1918   2.996   1.251   0.227
  638TIP3   OH2 1919   1.944   0.554   0.876
  638TIP3    H1 1920   1.986   0.476   0.911
  638TIP3    H2 1921   1.863   0.562   0.926
  639TIP3   OH2 1922   0.116   4.257   5.139
  639TIP3    H1 1923   0.077   4.170   5.131
  639TIP3    H2 1924   0.059   4.303   5.201
  640TIP3   OH2 1925   3.356   5.500   4.731
  640TIP3    H1 1926   3.430   5.439   4.734
  640TIP3    H2 1927   3.395   5.584   4.708
  641TIP3   OH2 1928   6.285   2.938   0.634
  641TIP3    H1 1929   6.311   2.889   0.712
  641TIP3    H2 1930   6.281   3.029   0.664
  642TIP3   OH2 1931   6.045   1.327   3.834
  642TIP3    H1 1932   5.952   1.309   3.849
  642TIP3    H2 1933   6.049   1.421   3.820
  643TIP3   OH2 1934   6.334   1.340   0.069
  643TIP3    H1 1935   6.276   1.412   0.093
  643TIP3    H2 1936   6.416   1.359   0.114
  644TIP3   OH2 1937   2.553   4.983   4.537
  644TIP3    H1 1938   2.477   4.934   4.568
  644TIP3    H2 1939   2.525   5.074   4.536
  645TIP3   OH2 1940   2.909   3.929   1.012
  645TIP3    H1 1941   2.915   3.846   1.060
  645TIP3    H2 1942   2.962   3.915   0.933
  646TIP3   OH2 1943   4.400   3.770   2.636
  646TIP3    H1 1944   4.318   3.818   2.644
  646TIP3    H2 1945   4.468   3.837   2.637
  647TIP3   OH2 1946   6.315   5.927   1.868
  647TIP3    H1 1947   6.259   5.998   1.900
  647TIP3    H2 1948   6.271   5.847   1.897
  648TIP3   OH2 1949   4.575   1.588   4.936
  648TIP3    H1 1950   4.548   1.521   4.873
  648TIP3    H2 1951   4.568   1.670   4.888
  649TIP3   OH2 1952   1.748   2.028   2.668
  649TIP3    H1 1953   1.782   1.946   2.702
  649TIP3    H2 1954   1.790   2.039   2.583
  650TIP3   OH2 1955   6.199   2.159   1.036
  650TIP3    H1 1956   6.243   2.092   0.984
  650TIP3    H2 1957   6.252   2.166   1.115
  651TIP3   OH2 1958   6.133   4.728   4.607
  651TIP3    H1 1959   6.224   4.732   4.577
  651TIP3    H2 1960   6.086   4.685   4.536
  652TIP3   OH2 1961   4.482   2.821   4.272
  652TIP3    H1 1962   4.533   2.753   4.228
  652TIP3    H2 1963   4.437   2.867   4.202
  653TIP3   OH2 1964   0.314   1.595   3.116
  653TIP3    H1 1965   0.338   1.509   3.082
  653TIP3    H2 1966   0.344   1.656   3.048
  654TIP3   OH2 1967   3.793   5.850   1.231
  654TIP3    H1 1968   3.790   5.860   1.326
  654TIP3    H2 1969   3.717   5.795   1.211
  655TIP3   OH2 1970   3.845   3.037   1.684
  655TIP3    H1 1971   3.774   2.995   1.635
  655TIP3    H2 1972   3.921   2.980   1.670
  656TIP3   OH2 1973   3.068   3.372   4.660
  656TIP3    H1 1974   2.999   3.347   4.599
  656TIP3    H2 1975   3.104   3.289   4.691
  657TIP3   OH2 1976   4.530   0.763   3.416
  657TIP3    H1 1977   4.461   0.773   3.351
  657TIP3    H2 1978   4.519   0.674   3.449
  658TIP3   OH2 1979   4.697   4.998   0.178
  658TIP3    H1 1980   4.726   5.005   0.269
  658TIP3    H2 1981   4.768   5.037   0.127
  659TIP3   OH2 1982   5.197   1.018   0.711
  659TIP3    H1 1983   5.141   0.955   0.757
  659TIP3    H2 1984   5.187   1.100   0.760
  660TIP3   OH2 1985   3.686   2.501   2.165
  660TIP3    H1 1986   3.694   2.593   2.142
  660TIP3    H2 1987   3.681   2.500   2.261
  661TIP3   OH2 1988   3.661   5.224   2.262
  661TIP3    H1 1989   3.718   5.296   2.289
  661TIP3    H2 1990   3.720   5.149   2.251
  662TIP3   OH2 1991   3.789   1.518   2.565
  662TIP3    H1 1992   3.851   1.537   2.495
  662TIP3    H2 1993   3.828   1.443   2.610
  663TIP3   OH2 1994   3.608   4.030   1.477
  663TIP3    H1 1995   3.532   4.054   1.531
  663TIP3    H2 1996   3.571   4.012   1.391
  664TIP3   OH2 1997   2.915   3.018   0.425
  664TIP3    H1 1998   2.977   3.090   0.434
  664TIP3    H2 1999   2.961   2.942   0.460
  665TIP3   OH2 2000   5.758   1.688   1.308
  665TIP3    H1 2001   5.700   1.709   1.381
  665TIP3    H2 2002   5.713   1.721   1.230
  666TIP3   OH2 2003   4.555   3.958   5.090
  666TIP3    H1 2004   4.622   3.900   5.053
  666TIP3    H2 2005   4.541   3.926   5.179
  667TIP3   OH2 2006   1.427   0.419   2.102
  667TIP3    H1 2007   1.340   0.418   2.064
  667TIP3    H2 2008   1.467   0.500   2.069
  668TIP3   OH2 2009   6.053   3.773   4.235
  668TIP3    H1 2010   6.052   3.869   4.246
  668TIP3    H2 2011   6.144   3.749   4.254
  669TIP3   OH2 2012   0.051   1.999   1.253
  669TIP3    H1 2013   0.042   2.072   1.315
  669TIP3    H2 2014   0.100   1.933   1.301
  670TIP3   OH2 2015   3.819   3.741   1.025
  670TIP3    H1 2016   3.839   3.834   1.034
  670TIP3    H2 2017   3.811   3.709   1.115
  671TIP3   OH2 2018   2.914   3.746   0.429
  671TIP3    H1 2019   2.943   3.736   0.519
  671TIP3    H2 2020   2.951   3.670   0.383
  672TIP3   OH2 2021   4.809   5.845   4.905
  672TIP3    H1 2022   4.838   5.931   4.935
  672TIP3    H2 2023   4.784   5.857   4.814
  673TIP3   OH2 2024   1.363   2.893   4.259
  673TIP3    H1 2025   1.389   2.861   4.345
  673TIP3    H2 2026   1.385   2.822   4.198
  674TIP3   OH2 2027   6.060   1.823   4.888
  674TIP3    H1 2028   6.110   1.770   4.948
  674TIP3    H2 2029   5.971   1.824   4.924
  675TIP3   OH2 2030   5.954   5.780   4.056
  675TIP3    H1 2031   5.951   5.868   4.093
  675TIP3    H2 2032   5.870   5.770   4.011
  676TIP3   OH2 2033   3.752   4.692   1.022
  676TIP3    H1 2034   3.671   4.691   1.073
  676TIP3    H2 2035   3.771   4.599   1.006
  677TIP3   OH2 2036   5.034   2.953   0.324
  677TIP3    H1 2037   4.956   2.941   0.379
  677TIP3    H2 2038   5.025   3.040   0.287
  678TIP3   OH2 2039   5.488   0.293   2.993
  678TIP3    H1 2040   5.471   0.280   3.086
  678TIP3    H2 2041   5.500   0.387   2.983
  679TIP3   OH2 2042   2.604   3.555   0.045
  679TIP3    H1 2043   2.540   3.573   0.114
  679TIP3    H2 2044   2.553   3.547  -0.035
  680TIP3   OH2 2045   2.940   1.342   0.396
  680TIP3    H1 2046   2.966   1.339   0.488
  680TIP3    H2 2047   3.009   1.391   0.353
  681TIP3   OH2 2048   5.712   5.735   2.683
  681TIP3    H1 2049   5.687   5.735   2.590
  681TIP3    H2 2050   5.807   5.733   2.682
  682TIP3   OH2 2051   0.820   0.871   3.458
  682TIP3    H1 2052   0.785   0.836   3.376
  682TIP3    H2 2053   0.890   0.930   3.430
  683TIP3   OH2 2054   4.327   4.395   2.840
  683TIP3    H1 2055   4.283   4.406   2.756
  683TIP3    H2 2056   4.404   4.453   2.835
  684TIP3   OH2 2057   2.672   2.822   2.332
  684TIP3    H1 2058   2.610   2.879   2.377
  684TIP3    H2 2059   2.735   2.797   2.399
  685TIP3   OH2 2060   4.402   4.307   3.830
  685TIP3    H1 2061   4.336   4.241   3.808
  685TIP3    H2 2062   4.424   4.289   3.922
  686TIP3   OH2 2063   5.961   4.891   4.306
  686TIP3    H1 2064   5.914   4.959   4.257
  686TIP3    H2 2065   5.977   4.931   4.391
  687TIP3   OH2 2066   4.654   3.583   3.682
  687TIP3    H1 2067   4.618   3.622   3.761
  687TIP3    H2 2068   4.624   3.639   3.610
  688TIP3   OH2 2069   2.404   4.926   2.770
  688TIP3    H1 2070   2.343   4.901   2.839
  688TIP3    H2 2071   2.473   4.860   2.775
  689TIP3   OH2 2072   4.067   5.171   4.963
  689TIP3    H1 2073   4.071   5.127   4.878
  689TIP3    H2 2074   4.024   5.108   5.021
  690TIP3   OH2 2075   3.488   3.020   0.019
  690TIP3    H1 2076   3.482   2.961   0.094
  690TIP3    H2 2077   3.489   3.107   0.057
  691TIP3   OH2 2078   0.643   4.736   1.903
  691TIP3    H1 2079   0.552   4.710   1.918
  691TIP3    H2 2080   0.665   4.699   1.818
  692TIP3   OH2 2081   5.365   3.916   2.990
  692TIP3    H1 2082   5.389   3.826   2.968
  692TIP3    H2 2083   5.308   3.908   3.067
  693TIP3   OH2 2084   2.824   5.267   3.422
  693TIP3    H1 2085   2.803   5.254   3.330
  693TIP3    H2 2086   2.916   5.294   3.422
  694TIP3   OH2 2087   5.025   4.885   0.530
  694TIP3    H1 2088   5.074   4.899   0.611
  694TIP3    H2 2089   5.060   4.803   0.495
  695TIP3   OH2 2090   2.392   0.222   2.289
  695TIP3    H1 2091   2.410   0.316   2.292
  695TIP3    H2 2092   2.296   0.217   2.283
  696TIP3   OH2 2093   1.177   2.346   3.815
  696TIP3    H1 2094   1.226   2.307   3.743
  696TIP3    H2 2095   1.090   2.307   3.809
  697TIP3   OH2 2096   0.810   2.357   2.793
  697TIP3    H1 2097   0.904   2.372   2.804
  697TIP3    H2 2098   0.800   2.336   2.700
  698TIP3   OH2 2099   5.428   2.807   3.173
  698TIP3    H1 2100   5.514   2.775   3.197
  698TIP3    H2 2101   5.442   2.857   3.093
  699TIP3   OH2 2102   4.857   1.467   1.017
  699TIP3    H1 2103   4.878   1.537   0.955
  699TIP3    H2 2104   4.935   1.411   1.017
  700TIP3   OH2 2105   0.142   1.759   1.772
  700TIP3    H1 2106   0.178   1.847   1.786
  700TIP3    H2 2107   0.172   1.735   1.684
  701TIP3   OH2 2108   3.218   1.067   0.483
  701TIP3    H1 2109   3.257   0.994   0.531
  701TIP3    H2 2110   3.293   1.120   0.457
  702TIP3   OH2 2111   2.575   3.773   4.352
  702TIP3    H1 2112   2.495   3.722   4.363
  702TIP3    H2 2113   2.595   3.805   4.440
  703TIP3   OH2 2114   5.219   3.848   1.508
  703TIP3    H1 2115   5.174   3.886   1.433
  703TIP3    H2 2116   5.150   3.810   1.562
  704TIP3   OH2 2117   1.278   0.542   2.388
  704TIP3    H1 2118   1.338   0.541   2.313
  704TIP3    H2 2119   1.255   0.634   2.399
  705TIP3   OH2 2120   5.552   4.874   3.804
  705TIP3    H1 2121   5.618   4.943   3.800
  705TIP3    H2 2122   5.528   4.859   3.713
  706TIP3   OH2 2123   4.408   5.174   4.152
  706TIP3    H1 2124   4.381   5.265   4.147
  706TIP3    H2 2125   4.389   5.148   4.242
  707TIP3   OH2 2126   3.736   4.002   2.078
  707TIP3    H1 2127   3.691   3.924   2.045
  707TIP3    H2 2128   3.767   4.046   1.999
  708TIP3   OH2 2129   1.742   5.732   2.569
  708TIP3    H1 2130   1.783   5.675   2.634
  708TIP3    H2 2131   1.712   5.672   2.500
  709TIP3   OH2 2132   2.483   2.887   1.387
  709TIP3    H1 2133   2.391   2.897   1.362
  709TIP3    H2 2134   2.491   2.795   1.413
  710TIP3   OH2 2135   2.252   3.704   0.631
  710TIP3    H1 2136   2.240   3.725   0.724
  710TIP3    H2 2137   2.165   3.678   0.601
  711TIP3   OH2 2138   4.880   1.230   0.660
  711TIP3    H1 2139   4.805   1.272   0.703
  711TIP3    H2 2140   4.842   1.155   0.613
  712TIP3   OH2 2141   0.388   0.655   0.090
  712TIP3    H1 2142   0.427   0.730   0.045
  712TIP3    H2 2143   0.374   0.590   0.021
  713TIP3   OH2 2144   2.328   1.528   4.464
  713TIP3    H1 2145   2.299   1.614   4.494
  713TIP3    H2 2146   2.271   1.508   4.389
  714TIP3   OH2 2147   0.487   2.828   0.681
  714TIP3    H1 2148   0.519   2.761   0.621
  714TIP3    H2 2149   0.391   2.820   0.677
  715TIP3   OH2 2150   3.762   4.712   1.687
  715TIP3    H1 2151   3.765   4.630   1.637
  715TIP3    H2 2152   3.827   4.768   1.645
  716TIP3   OH2 2153   5.267   2.750   2.573
  716TIP3    H1 2154   5.359   2.728   2.558
  716TIP3    H2 2155   5.256   2.741   2.668
  717TIP3   OH2 2156   1.710   4.019   4.305
  717TIP3    H1 2157   1.668   4.057   4.382
  717TIP3    H2 2158   1.669   3.933   4.295
  718TIP3   OH2 2159   0.082   0.325   4.405
  718TIP3    H1 2160   0.128   0.409   4.399
  718TIP3    H2 2161   0.126   0.278   4.475
  719TIP3   OH2 2162   3.913   4.653   2.939
  719TIP3    H1 2163   3.849   4.602   2.889
  719TIP3    H2 2164   3.916   4.610   3.025
  720TIP3   OH2 2165   5.924   3.214   2.981
  720TIP3    H1 2166   5.910   3.305   3.005
  720TIP3    H2 2167   5.957   3.173   3.061
  721TIP3   OH2 2168   1.948   2.203   5.019
  721TIP3    H1 2169   2.013   2.249   5.071
  721TIP3    H2 2170   1.938   2.256   4.940
  722TIP3   OH2 2171   4.638   3.591   2.649
  722TIP3    H1 2172   4.616   3.516   2.594
  722TIP3    H2 2173   4.563   3.650   2.643
  723TIP3   OH2 2174   2.578   0.460   3.661
  723TIP3    H1 2175   2.563   0.375   3.619
  723TIP3    H2 2176   2.506   0.470   3.723
  724TIP3   OH2 2177   4.736   4.280   3.514
  724TIP3    H1 2178   4.705   4.197   3.550
  724TIP3    H2 2179   4.657   4.326   3.487
  725TIP3   OH2 2180   2.713   4.017   0.724
  725TIP3    H1 2181   2.665   3.964   0.787
  725TIP3    H2 2182   2.691   4.108   0.747
  726TIP3   OH2 2183   2.361   4.351   0.017
  726TIP3    H1 2184   2.377   4.368   0.110
  726TIP3    H2 2185   2.386   4.432  -0.027
  727TIP3   OH2 2186   6.127   1.534   2.337
  727TIP3    H1 2187   6.159   1.619   2.307
  727TIP3    H2 2188   6.037   1.551   2.365
  728TIP3   OH2 2189   6.046   0.515   4.370
  728TIP3    H1 2190   6.020   0.443   4.312
  728TIP3    H2 2191   6.025   0.594   4.321
  729TIP3   OH2 2192   1.504   2.341   3.240
  729TIP3    H1 2193   1.563   2.269   3.259
  729TIP3    H2 2194   1.440   2.305   3.178
  730TIP3   OH2 2195   4.914   2.008   0.788
  730TIP3    H1 2196   4.993   1.986   0.738
  730TIP3    H2 2197   4.932   1.976   0.876
  731TIP3   OH2 2198   6.011   1.800   1.908
  731TIP3    H1 2199   5.960   1.874   1.941
  731TIP3    H2 2200   6.102   1.829   1.918
  732TIP3   OH2 2201   3.223   0.145   3.208
  732TIP3    H1 2202   3.267   0.160   3.125
  732TIP3    H2 2203   3.140   0.191   3.200
  733TIP3   OH2 2204   3.061   1.849   4.286
  733TIP3    H1 2205   3.055   1.838   4.381
  733TIP3    H2 2206   2.976   1.821   4.253
  734TIP3   OH2 2207   4.946   5.736   1.589
  734TIP3    H1 2208   4.912   5.666   1.645
  734TIP3    H2 2209   5.041   5.732   1.601
  735TIP3   OH2 2210   5.692   3.175   0.685
  735TIP3    H1 2211   5.633   3.170   0.610
  735TIP3    H2 2212   5.728   3.264   0.682
  736TIP3   OH2 2213   3.984   0.825   3.101
  736TIP3    H1 2214   3.997   0.849   3.193
  736TIP3    H2 2215   3.949   0.905   3.060
  737TIP3   OH2 2216   5.255   5.137   4.227
  737TIP3    H1 2217   5.291   5.089   4.152
  737TIP3    H2 2218   5.331   5.163   4.278
  738TIP3   OH2 2219   2.918   1.340   4.402
  738TIP3    H1 2220   2.845   1.283   4.427
  738TIP3    H2 2221   2.879   1.404   4.343
  739TIP3   OH2 2222   3.035   4.764   3.832
  739TIP3    H1 2223   3.104   4.793   3.891
  739TIP3    H2 2224   2.978   4.709   3.887
  740TIP3   OH2 2225   2.409   5.430   5.057
  740TIP3    H1 2226   2.433   5.349   5.101
  740TIP3    H2 2227   2.342   5.404   4.994
  741TIP3   OH2 2228   2.558   2.853   4.100
  741TIP3    H1 2229   2.624   2.783   4.100
  741TIP3    H2 2230   2.482   2.814   4.057
  742TIP3   OH2 2231   6.078   4.208   2.334
  742TIP3    H1 2232   6.118   4.136   2.286
  742TIP3    H2 2233   6.033   4.167   2.407
  743TIP3   OH2 2234   5.628   0.733   0.156
  743TIP3    H1 2235   5.674   0.679   0.091
  743TIP3    H2 2236   5.560   0.676   0.191
  744TIP3   OH2 2237   6.328   0.590   3.313
  744TIP3    H1 2238   6.242   0.596   3.271
  744TIP3    H2 2239   6.360   0.503   3.291
  745TIP3   OH2 2240   6.290   3.273   0.168
  745TIP3    H1 2241   6.384   3.280   0.178
  745TIP3    H2 2242   6.277   3.255   0.075
  746TIP3   OH2 2243   1.075   0.521   0.617
  746TIP3    H1 2244   1.093   0.605   0.659
  746TIP3    H2 2245   0.990   0.493   0.653
  747TIP3   OH2 2246   5.547   0.612   2.489
  747TIP3    H1 2247   5.528   0.552   2.417
  747TIP3    H2 2248   5.472   0.604   2.547
  748TIP3   OH2 2249   3.473   1.209   0.891
  748TIP3    H1 2250   3.404   1.257   0.937
  748TIP3    H2 2251   3.553   1.258   0.909
  749TIP3   OH2 2252   1.160   1.803   4.008
  749TIP3    H1 2253   1.133   1.792   4.099
  749TIP3    H2 2254   1.210   1.724   3.988
  750TIP3   OH2 2255   4.128   4.578   2.181
  750TIP3    H1 2256   4.210   4.608   2.219
  750TIP3    H2 2257   4.148   4.566   2.088
  751TIP3   OH2 2258   3.601   4.971   4.314
  751TIP3    H1 2259   3.605   4.995   4.222
  751TIP3    H2 2260   3.508   4.972   4.336
  752TIP3   OH2 2261   2.242   1.254   4.854
  752TIP3    H1 2262   2.298   1.277   4.780
  752TIP3    H2 2263   2.269   1.164   4.877
  753TIP3   OH2 2264   6.339   1.322   2.137
  753TIP3    H1 2265   6.394   1.401   2.138
  753TIP3    H2 2266   6.254   1.353   2.106
  754TIP3   OH2 2267   3.756   5.796   1.512
  754TIP3    H1 2268   3.837   5.748   1.527
  754TIP3    H2 2269   3.773   5.884   1.547
  755TIP3   OH2 2270   2.813   0.161   2.104
  755TIP3    H1 2271   2.890   0.200   2.143
  755TIP3    H2 2272   2.762   0.127   2.178
  756TIP3   OH2 2273   0.718   5.432   2.665
  756TIP3    H1 2274   0.685   5.422   2.576
  756TIP3    H2 2275   0.706   5.525   2.685
  757TIP3   OH2 2276   2.825   3.688   2.679
  757TIP3    H1 2277   2.828   3.625   2.606
  757TIP3    H2 2278   2.906   3.737   2.671
  758TIP3   OH2 2279   5.730   0.206   1.222
  758TIP3    H1 2280   5.646   0.192   1.178
  758TIP3    H2 2281   5.708   0.201   1.315
  759TIP3   OH2 2282   2.558   3.327   4.123
  759TIP3    H1 2283   2.564   3.310   4.217
  759TIP3    H2 2284   2.466   3.352   4.109
  760TIP3   OH2 2285   4.325   5.408   0.355
  760TIP3    H1 2286   4.333   5.502   0.339
  760TIP3    H2 2287   4.358   5.366   0.276
  761TIP3   OH2 2288   5.552   4.185   0.618
  761TIP3    H1 2289   5.528   4.221   0.704
  761TIP3    H2 2290   5.648   4.181   0.620
  762TIP3   OH2 2291   0.703   2.487   0.704
  762TIP3    H1 2292   0.627   2.443   0.741
  762TIP3    H2 2293   0.743   2.532   0.778
  763TIP3   OH2 2294   1.514   0.428   1.423
  763TIP3    H1 2295   1.512   0.427   1.518
  763TIP3    H2 2296   1.476   0.513   1.399
  764TIP3   OH2 2297   0.585   3.498   2.572
  764TIP3    H1 2298   0.528   3.456   2.637
  764TIP3    H2 2299   0.582   3.438   2.497
  765TIP3   OH2 2300   5.261   0.304   2.470
  765TIP3    H1 2301   5.345   0.261   2.480
  765TIP3    H2 2302   5.233   0.283   2.381
  766TIP3   OH2 2303   0.398   2.969   3.856
  766TIP3    H1 2304   0.428   2.983   3.767
  766TIP3    H2 2305   0.476   2.941   3.904
  767TIP3   OH2 2306   0.866   1.408   2.038
  767TIP3    H1 2307   0.787   1.441   2.080
  767TIP3    H2 2308   0.900   1.343   2.098
  768TIP3   OH2 2309   0.875   1.179   2.309
  768TIP3    H1 2310   0.930   1.170   2.386
  768TIP3    H2 2311   0.841   1.269   2.314
  769TIP3   OH2 2312   5.523   1.015   3.121
  769TIP3    H1 2313   5.599   1.038   3.175
  769TIP3    H2 2314   5.553   1.027   3.031
  770TIP3   OH2 2315   5.875   1.095   3.424
  770TIP3    H1 2316   5.962   1.123   3.396
  770TIP3    H2 2317   5.824   1.175   3.429
  771TIP3   OH2 2318   0.783   0.342   1.768
  771TIP3    H1 2319   0.745   0.261   1.736
  771TIP3    H2 2320   0.767   0.341   1.862
  772TIP3   OH2 2321   1.720   2.849   2.134
  772TIP3    H1 2322   1.680   2.785   2.076
  772TIP3    H2 2323   1.780   2.899   2.078
  773TIP3   OH2 2324   5.074   5.370   3.621
  773TIP3    H1 2325   5.013   5.430   3.663
  773TIP3    H2 2326   5.020   5.296   3.594
  774TIP3   OH2 2327   5.330   3.613   2.596
  774TIP3    H1 2328   5.300   3.556   2.667
  774TIP3    H2 2329   5.274   3.588   2.521
  775TIP3   OH2 2330   4.505   3.912   1.663
  775TIP3    H1 2331   4.494   3.925   1.569
  775TIP3    H2 2332   4.554   3.989   1.692
  776TIP3   OH2 2333   0.822   0.696   2.887
  776TIP3    H1 2334   0.779   0.613   2.862
  776TIP3    H2 2335   0.818   0.749   2.807
  777TIP3   OH2 2336   3.635   5.351   1.875
  777TIP3    H1 2337   3.602   5.425   1.926
  777TIP3    H2 2338   3.557   5.311   1.837
  778TIP3   OH2 2339   0.225   0.408   1.320
  778TIP3    H1 2340   0.279   0.330   1.309
  778TIP3    H2 2341   0.244   0.438   1.409
  779TIP3   OH2 2342   4.587   1.123   0.023
  779TIP3    H1 2343   4.533   1.075   0.085
  779TIP3    H2 2344   4.530   1.191  -0.012
  780TIP3   OH2 2345   4.262   0.574   2.266
  780TIP3    H1 2346   4.213   0.492   2.257
  780TIP3    H2 2347   4.350   0.547   2.292
  781TIP3   OH2 2348   1.635   4.253   2.973
  781TIP3    H1 2349   1.649   4.254   3.068
  781TIP3    H2 2350   1.581   4.176   2.958
  782TIP3   OH2 2351   3.744   3.453   2.248
  782TIP3    H1 2352   3.714   3.413   2.166
  782TIP3    H2 2353   3.802   3.524   2.220
  783TIP3   OH2 2354   3.161   4.177   3.933
  783TIP3    H1 2355   3.135   4.101   3.880
  783TIP3    H2 2356   3.130   4.253   3.883
  784TIP3   OH2 2357   2.811   4.884   4.555
  784TIP3    H1 2358   2.728   4.914   4.520
  784TIP3    H2 2359   2.827   4.940   4.632
  785TIP3   OH2 2360   6.223   5.837   3.477
  785TIP3    H1 2361   6.317   5.853   3.487
  785TIP3    H2 2362   6.217   5.760   3.420
  786TIP3   OH2 2363   0.561   5.994   0.800
  786TIP3    H1 2364   0.621   5.920   0.800
  786TIP3    H2 2365   0.474   5.955   0.810
  787TIP3   OH2 2366   5.054   1.194   1.923
  787TIP3    H1 2367   4.989   1.161   1.861
  787TIP3    H2 2368   5.007   1.201   2.006
  788TIP3   OH2 2369   4.784   0.815   0.474
  788TIP3    H1 2370   4.879   0.815   0.467
  788TIP3    H2 2371   4.764   0.898   0.518
  789TIP3   OH2 2372   5.057   5.966   2.459
  789TIP3    H1 2373   5.001   6.041   2.436
  789TIP3    H2 2374   5.059   5.912   2.380
  790TIP3   OH2 2375   5.806   0.698   1.196
  790TIP3    H1 2376   5.736   0.742   1.244
  790TIP3    H2 2377   5.814   0.747   1.114
  791TIP3   OH2 2378   1.432   4.161   4.914
  791TIP3    H1 2379   1.430   4.227   4.982
  791TIP3    H2 2380   1.348   4.170   4.869
  792TIP3   OH2 2381   5.174   2.728   4.106
  792TIP3    H1 2382   5.107   2.768   4.050
  792TIP3    H2 2383   5.248   2.712   4.046
  793TIP3   OH2 2384   0.948   2.115   1.805
  793TIP3    H1 2385   0.916   2.059   1.877
  793TIP3    H2 2386   1.043   2.107   1.810
  794TIP3   OH2 2387   0.684   5.489   3.302
  794TIP3    H1 2388   0.778   5.478   3.311
  794TIP3    H2 2389   0.666   5.475   3.209
  795TIP3   OH2 2390   3.462   3.272   0.175
  795TIP3    H1 2391   3.553   3.252   0.198
  795TIP3    H2 2392   3.419   3.286   0.259
  796TIP3   OH2 2393   0.692   5.442   4.060
  796TIP3    H1 2394   0.685   5.472   4.150
  796TIP3    H2 2395   0.676   5.521   4.007
  797TIP3   OH2 2396   2.538   5.862   2.145
  797TIP3    H1 2397   2.633   5.856   2.156
  797TIP3    H2 2398   2.521   5.956   2.137
  798TIP3   OH2 2399   6.124   4.661   2.852
  798TIP3    H1 2400   6.138   4.726   2.921
  798TIP3    H2 2401   6.207   4.614   2.846
  799TIP3   OH2 2402   5.208   0.466   0.871
  799TIP3    H1 2403   5.296   0.437   0.893
  799TIP3    H2 2404   5.211   0.481   0.776
  800TIP3   OH2 2405   0.863   5.603   0.419
  800TIP3    H1 2406   0.949   5.567   0.396
  800TIP3    H2 2407   0.815   5.528   0.454
  801TIP3   OH2 2408   5.122   5.229   3.183
  801TIP3    H1 2409   5.160   5.228   3.271
  801TIP3    H2 2410   5.066   5.152   3.181
  802TIP3   OH2 2411   3.222   5.786   1.887
  802TIP3    H1 2412   3.168   5.806   1.963
  802TIP3    H2 2413   3.311   5.780   1.922
  803TIP3   OH2 2414   5.592   4.702   1.189
  803TIP3    H1 2415   5.525   4.665   1.246
  803TIP3    H2 2416   5.564   4.679   1.100
  804TIP3   OH2 2417   1.509   4.337   1.878
  804TIP3    H1 2418   1.420   4.305   1.864
  804TIP3    H2 2419   1.517   4.345   1.973
  805TIP3   OH2 2420   5.260   4.416   0.716
  805TIP3    H1 2421   5.247   4.350   0.784
  805TIP3    H2 2422   5.341   4.460   0.741
  806TIP3   OH2 2423   5.278   1.298   2.446
  806TIP3    H1 2424   5.343   1.254   2.391
  806TIP3    H2 2425   5.304   1.390   2.445
  807TIP3   OH2 2426   3.610   1.833   1.314
  807TIP3    H1 2427   3.695   1.871   1.292
  807TIP3    H2 2428   3.566   1.820   1.230
  808TIP3   OH2 2429   0.202   1.205   1.983
  808TIP3    H1 2430   0.295   1.220   1.999
  808TIP3    H2 2431   0.158   1.246   2.057
  809TIP3   OH2 2432   1.199   1.357   3.685
  809TIP3    H1 2433   1.191   1.288   3.751
  809TIP3    H2 2434   1.160   1.435   3.726
  810TIP3   OH2 2435   2.528   0.976   4.043
  810TIP3    H1 2436   2.547   1.013   4.129
  810TIP3    H2 2437   2.460   0.910   4.060
  811TIP3   OH2 2438   0.027   4.602   2.313
  811TIP3    H1 2439  -0.017   4.627   2.231
  811TIP3    H2 2440   0.112   4.645   2.308
  812TIP3   OH2 2441   5.181   4.190   2.225
  812TIP3    H1 2442   5.252   4.147   2.272
  812TIP3    H2 2443   5.168   4.273   2.270
  813TIP3   OH2 2444   5.030   4.454   1.983
  813TIP3    H1 2445   5.032   4.543   1.949
  813TIP3    H2 2446   5.090   4.455   2.057
  814TIP3   OH2 2447   1.359   2.876   2.840
  814TIP3    H1 2448   1.305   2.877   2.920
  814TIP3    H2 2449   1.415   2.952   2.848
  815TIP3   OH2 2450   0.923   1.018   1.318
  815TIP3    H1 2451   0.848   1.070   1.348
  815TIP3    H2 2452   0.897   0.927   1.334
  816TIP3   OH2 2453   5.417   0.523   0.283
  816TIP3    H1 2454   5.494   0.476   0.251
  816TIP3    H2 2455   5.346   0.459   0.279
  817TIP3   OH2 2456   0.582   3.350   4.842
  817TIP3    H1 2457   0.628   3.331   4.923
  817TIP3    H2 2458   0.634   3.418   4.799
  818TIP3   OH2 2459   2.237   5.426   0.628
  818TIP3    H1 2460   2.186   5.500   0.661
  818TIP3    H2 2461   2.205   5.412   0.539
  819TIP3   OH2 2462   5.977   2.676   4.483
  819TIP3    H1 2463   6.016   2.628   4.556
  819TIP3    H2 2464   6.051   2.718   4.440
  820TIP3   OH2 2465   5.736   0.492   0.503
  820TIP3    H1 2466   5.829   0.492   0.479
  820TIP3    H2 2467   5.704   0.578   0.477
  821TIP3   OH2 2468   5.750   2.209   4.568
  821TIP3    H1 2469   5.833   2.257   4.571
  821TIP3    H2 2470   5.772   2.122   4.601
  822TIP3   OH2 2471   0.092   0.393   2.913
  822TIP3    H1 2472   0.011   0.395   2.862
  822TIP3    H2 2473   0.099   0.481   2.951
  823TIP3   OH2 2474   0.678   4.679   0.391
  823TIP3    H1 2475   0.598   4.668   0.340
  823TIP3    H2 2476   0.747   4.644   0.335
  824TIP3   OH2 2477   0.686   0.151   0.598
  824TIP3    H1 2478   0.652   0.204   0.671
  824TIP3    H2 2479   0.619   0.158   0.530
  825TIP3   OH2 2480   1.762   5.417   0.217
  825TIP3    H1 2481   1.778   5.499   0.171
  825TIP3    H2 2482   1.699   5.439   0.285
  826TIP3   OH2 2483   2.766   2.648   4.139
  826TIP3    H1 2484   2.761   2.558   4.107
  826TIP3    H2 2485   2.853   2.678   4.113
  827TIP3   OH2 2486   0.833   0.484   1.299
  827TIP3    H1 2487   0.785   0.425   1.241
  827TIP3    H2 2488   0.867   0.428   1.369
  828TIP3   OH2 2489   3.188   0.516   2.394
  828TIP3    H1 2490   3.228   0.453   2.334
  828TIP3    H2 2491   3.095   0.494   2.393
  829TIP3   OH2 2492   3.528   0.315   1.800
  829TIP3    H1 2493   3.464   0.278   1.740
  829TIP3    H2 2494   3.610   0.272   1.778
  830TIP3   OH2 2495   5.614   4.296   1.778
  830TIP3    H1 2496   5.546   4.275   1.713
  830TIP3    H2 2497   5.659   4.214   1.792
  831TIP3   OH2 2498   1.389   4.244   2.347
  831TIP3    H1 2499   1.445   4.169   2.368
  831TIP3    H2 2500   1.366   4.281   2.432
  832TIP3   OH2 2501   3.423   4.842   0.866
  832TIP3    H1 2502   3.487   4.906   0.897
  832TIP3    H2 2503   3.471   4.790   0.802
  833TIP3   OH2 2504   0.144   5.070   3.005
  833TIP3    H1 2505   0.135   5.165   3.016
  833TIP3    H2 2506   0.180   5.060   2.917
  834TIP3   OH2 2507   0.215   5.161   2.169
  834TIP3    H1 2508   0.165   5.137   2.091
  834TIP3    H2 2509   0.292   5.104   2.167
  835TIP3   OH2 2510   0.760   4.875   4.788
  835TIP3    H1 2511   0.848   4.839   4.777
  835TIP3    H2 2512   0.715   4.813   4.845
  836TIP3   OH2 2513   4.542   5.864   0.426
  836TIP3    H1 2514   4.611   5.924   0.396
  836TIP3    H2 2515   4.525   5.892   0.516
  837TIP3   OH2 2516   0.445   2.512   4.495
  837TIP3    H1 2517   0.364   2.562   4.486
  837TIP3    H2 2518   0.483   2.542   4.577
  838TIP3   OH2 2519   0.882   4.597   4.555
  838TIP3    H1 2520   0.848   4.573   4.469
  838TIP3    H2 2521   0.813   4.573   4.616
  839TIP3   OH2 2522   2.931   1.069   1.391
  839TIP3    H1 2523   3.017   1.096   1.423
  839TIP3    H2 2524   2.939   1.068   1.296
  840TIP3   OH2 2525   1.662   5.299   0.869
  840TIP3    H1 2526   1.612   5.220   0.891
  840TIP3    H2 2527   1.647   5.312   0.776
  841TIP3   OH2 2528   3.426   4.724   1.687
  841TIP3    H1 2529   3.417   4.649   1.628
  841TIP3    H2 2530   3.515   4.756   1.670
  842TIP3   OH2 2531   2.800   2.770   1.359
  842TIP3    H1 2532   2.765   2.764   1.271
  842TIP3    H2 2533   2.785   2.861   1.385
  843TIP3   OH2 2534   2.056   4.380   1.018
  843TIP3    H1 2535   2.063   4.356   1.110
  843TIP3    H2 2536   2.002   4.312   0.979
  844TIP3   OH2 2537   4.865   0.729   4.653
  844TIP3    H1 2538   4.804   0.667   4.613
  844TIP3    H2 2539   4.885   0.690   4.739
  845TIP3   OH2 2540   0.998   1.274   0.497
  845TIP3    H1 2541   1.035   1.214   0.432
  845TIP3    H2 2542   0.915   1.303   0.458
  846TIP3   OH2 2543   4.757   0.861   1.757
  846TIP3    H1 2544   4.700   0.802   1.807
  846TIP3    H2 2545   4.753   0.944   1.805
  847TIP3   OH2 2546   1.189   4.362   0.207
  847TIP3    H1 2547   1.218   4.271   0.207
  847TIP3    H2 2548   1.125   4.367   0.136
  848TIP3   OH2 2549   1.978   2.432   3.731
  848TIP3    H1 2550   2.061   2.405   3.771
  848TIP3    H2 2551   1.913   2.371   3.765
  849TIP3   OH2 2552   4.740   3.571   0.146
  849TIP3    H1 2553   4.816   3.618   0.180
  849TIP3    H2 2554   4.687   3.552   0.224
  850TIP3   OH2 2555   3.486   3.771   4.511
  850TIP3    H1 2556   3.395   3.784   4.483
  850TIP3    H2 2557   3.532   3.743   4.432
  851TIP3   OH2 2558   0.625   1.925   4.304
  851TIP3    H1 2559   0.556   1.910   4.239
  851TIP3    H2 2560   0.626   2.020   4.316
  852TIP3   OH2 2561   4.580  -0.033   3.908
  852TIP3    H1 2562   4.584   0.060   3.932
  852TIP3    H2 2563   4.668  -0.052   3.875
  853TIP3   OH2 2564   3.504   3.488   2.921
  853TIP3    H1 2565   3.556   3.568   2.926
  853TIP3    H2 2566   3.567   3.417   2.938
  854TIP3   OH2 2567   2.673   2.295   3.466
  854TIP3    H1 2568   2.612   2.368   3.463
  854TIP3    H2 2569   2.619   2.219   3.486
  855TIP3   OH2 2570   2.024   4.920   1.796
  855TIP3    H1 2571   2.063   4.904   1.882
  855TIP3    H2 2572   1.935   4.885   1.804
  856TIP3   OH2 2573   1.374   0.966   0.269
  856TIP3    H1 2574   1.461   1.006   0.261
  856TIP3    H2 2575   1.392   0.874   0.289
  857TIP3   OH2 2576   2.950   2.176   3.020
  857TIP3    H1 2577   2.967   2.134   2.936
  857TIP3    H2 2578   2.871   2.133   3.054
  858TIP3   OH2 2579   3.044   3.546   1.322
  858TIP3    H1 2580   2.982   3.615   1.346
  858TIP3    H2 2581   3.078   3.573   1.237
  859TIP3   OH2 2582   3.268   3.418   2.759
  859TIP3    H1 2583   3.330   3.360   2.803
  859TIP3    H2 2584   3.260   3.494   2.817
  860TIP3   OH2 2585   2.464   5.539   1.258
  860TIP3    H1 2586   2.559   5.534   1.257
  860TIP3    H2 2587   2.443   5.579   1.343
  861TIP3   OH2 2588   2.828   2.751   2.587
  861TIP3    H1 2589   2.804   2.664   2.617
  861TIP3    H2 2590   2.779   2.811   2.643
  862TIP3   OH2 2591   1.822   1.931   3.290
  862TIP3    H1 2592   1.916   1.924   3.272
  862TIP3    H2 2593   1.809   1.874   3.366
  863TIP3   OH2 2594   3.628   5.441   0.721
  863TIP3    H1 2595   3.545   5.472   0.685
  863TIP3    H2 2596   3.612   5.431   0.815
  864TIP3   OH2 2597   1.482   4.756  -0.005
  864TIP3    H1 2598   1.433   4.836   0.014
  864TIP3    H2 2599   1.441   4.689   0.049
  865TIP3   OH2 2600   1.463   5.439   1.385
  865TIP3    H1 2601   1.417   5.467   1.306
  865TIP3    H2 2602   1.549   5.480   1.378
  866TIP3   OH2 2603   1.086   1.803   0.951
  866TIP3    H1 2604   1.154   1.831   0.889
  866TIP3    H2 2605   1.122   1.827   1.037
  867TIP3   OH2 2606   4.263   5.881   2.728
  867TIP3    H1 2607   4.307   5.869   2.644
  867TIP3    H2 2608   4.334   5.897   2.790
  868TIP3   OH2 2609   1.593   3.499   3.465
  868TIP3    H1 2610   1.616   3.573   3.410
  868TIP3    H2 2611   1.666   3.490   3.526
  869TIP3   OH2 2612   0.711   5.421   4.334
  869TIP3    H1 2613   0.795   5.375   4.331
  869TIP3    H2 2614   0.678   5.404   4.423
  870TIP3   OH2 2615   4.981   2.390   0.967
  870TIP3    H1 2616   5.018   2.353   0.887
  870TIP3    H2 2617   5.038   2.464   0.989
  871TIP3   OH2 2618   1.061   0.224   4.428
  871TIP3    H1 2619   1.088   0.309   4.462
  871TIP3    H2 2620   1.129   0.199   4.366
  872TIP3   OH2 2621   2.187   1.305   1.728
  872TIP3    H1 2622   2.114   1.257   1.768
  872TIP3    H2 2623   2.239   1.238   1.685
  873TIP3   OH2 2624   1.378   0.818   2.294
  873TIP3    H1 2625   1.430   0.840   2.216
  873TIP3    H2 2626   1.441   0.820   2.366
  874TIP3   OH2 2627   0.336   2.902   3.321
  874TIP3    H1 2628   0.430   2.922   3.318
  874TIP3    H2 2629   0.326   2.825   3.265
  875TIP3   OH2 2630   4.516   0.063  -0.024
  875TIP3    H1 2631   4.516  -0.031  -0.041
  875TIP3    H2 2632   4.582   0.075   0.045
  876TIP3   OH2 2633   0.146   1.848   0.879
  876TIP3    H1 2634   0.181   1.759   0.874
  876TIP3    H2 2635   0.204   1.900   0.823
  877TIP3   OH2 2636   0.930   5.286   1.292
  877TIP3    H1 2637   1.003   5.225   1.302
  877TIP3    H2 2638   0.855   5.231   1.270
  878TIP3   OH2 2639   5.299   3.548   1.478
  878TIP3    H1 2640   5.322   3.576   1.390
  878TIP3    H2 2641   5.211   3.585   1.493
  879TIP3   OH2 2642   4.576   4.702   4.999
  879TIP3    H1 2643   4.547   4.612   4.987
  879TIP3    H2 2644   4.529   4.751   4.931
  880TIP3   OH2 2645   3.544   3.337   4.927
  880TIP3    H1 2646   3.534   3.284   4.847
  880TIP3    H2 2647   3.460   3.380   4.939
  881TIP3   OH2 2648   5.628   5.686   4.357
  881TIP3    H1 2649   5.659   5.613   4.303
  881TIP3    H2 2650   5.698   5.751   4.351
  882TIP3   OH2 2651   1.274   1.800   2.971
  882TIP3    H1 2652   1.300   1.712   2.999
  882TIP3    H2 2653   1.351   1.836   2.928
  883TIP3   OH2 2654   2.607   3.368   0.351
  883TIP3    H1 2655   2.571   3.346   0.437
  883TIP3    H2 2656   2.548   3.434   0.317
  884TIP3   OH2 2657   1.825   0.565   3.655
  884TIP3    H1 2658   1.770   0.617   3.715
  884TIP3    H2 2659   1.774   0.485   3.639
  885TIP3   OH2 2660   2.528   2.889   3.778
  885TIP3    H1 2661   2.471   2.833   3.831
  885TIP3    H2 2662   2.616   2.855   3.794
  886TIP3   OH2 2663   1.043   4.278   1.785
  886TIP3    H1 2664   1.025   4.242   1.698
  886TIP3    H2 2665   1.075   4.204   1.835
  887TIP3   OH2 2666   0.683   1.860   5.219
  887TIP3    H1 2667   0.631   1.888   5.145
  887TIP3    H2 2668   0.773   1.885   5.196
  888TIP3   OH2 2669   3.565   4.755   2.224
  888TIP3    H1 2670   3.647   4.720   2.258
  888TIP3    H2 2671   3.581   4.769   2.131
  889TIP3   OH2 2672   4.741   5.674   4.661
  889TIP3    H1 2673   4.833   5.647   4.666
  889TIP3    H2 2674   4.738   5.737   4.589
  890TIP3   OH2 2675   5.519   3.435   3.135
  890TIP3    H1 2676   5.423   3.431   3.141
  890TIP3    H2 2677   5.543   3.356   3.086
  891TIP3   OH2 2678   4.437   5.185   3.223
  891TIP3    H1 2679   4.377   5.260   3.221
  891TIP3    H2 2680   4.445   5.158   3.132
  892TIP3   OH2 2681   5.157   0.942   4.694
  892TIP3    H1 2682   5.112   0.908   4.617
  892TIP3    H2 2683   5.179   0.864   4.745
  893TIP3   OH2 2684   4.703   5.416   3.338
  893TIP3    H1 2685   4.615   5.450   3.357
  893TIP3    H2 2686   4.698   5.388   3.247
  894TIP3   OH2 2687   3.954   5.110   2.546
  894TIP3    H1 2688   3.918   5.117   2.457
  894TIP3    H2 2689   3.912   5.179   2.595
  895TIP3   OH2 2690   3.332   4.611   0.532
  895TIP3    H1 2691   3.250   4.591   0.487
  895TIP3    H2 2692   3.357   4.697   0.499
  896TIP3   OH2 2693   2.110   4.846   0.847
  896TIP3    H1 2694   2.145   4.833   0.759
  896TIP3    H2 2695   2.187   4.857   0.902
  897TIP3   OH2 2696   2.121   0.497   3.143
  897TIP3    H1 2697   2.213   0.478   3.125
  897TIP3    H2 2698   2.120   0.531   3.232
  898TIP3   OH2 2699   5.061   3.619   5.116
  898TIP3    H1 2700   5.088   3.663   5.196
  898TIP3    H2 2701   5.044   3.689   5.053
  899TIP3   OH2 2702   1.678   5.478   4.400
  899TIP3    H1 2703   1.635   5.426   4.468
  899TIP3    H2 2704   1.652   5.436   4.318
  900TIP3   OH2 2705   0.021   1.491   0.858
  900TIP3    H1 2706   0.063   1.517   0.777
  900TIP3    H2 2707  -0.073   1.499   0.840
  901TIP3   OH2 2708   5.397   2.864   4.315
  901TIP3    H1 2709   5.409   2.950   4.275
  901TIP3    H2 2710   5.347   2.814   4.250
  902TIP3   OH2 2711   0.891   3.655   4.573
  902TIP3    H1 2712   0.912   3.687   4.661
  902TIP3    H2 2713   0.922   3.724   4.514
  903TIP3   OH2 2714   0.227   2.062   0.091
  903TIP3    H1 2715   0.291   2.101   0.032
  903TIP3    H2 2716   0.142   2.085   0.054
  904TIP3   OH2 2717   1.313   5.071   1.666
  904TIP3    H1 2718   1.334   5.149   1.718
  904TIP3    H2 2719   1.349   4.999   1.717
  905TIP3   OH2 2720   1.718   2.911   4.315
  905TIP3    H1 2721   1.650   2.870   4.368
  905TIP3    H2 2722   1.766   2.838   4.278
  906TIP3   OH2 2723   5.012   4.025   4.428
  906TIP3    H1 2724   4.990   4.012   4.335
  906TIP3    H2 2725   5.012   4.120   4.439
  907TIP3   OH2 2726   5.490   5.811   4.845
  907TIP3    H1 2727   5.579   5.828   4.877
  907TIP3    H2 2728   5.498   5.813   4.750
  908TIP3   OH2 2729   4.585   4.790   4.513
  908TIP3    H1 2730   4.537   4.732   4.453
  908TIP3    H2 2731   4.623   4.730   4.578
  909TIP3   OH2 2732   4.309   1.908   2.317
  909TIP3    H1 2733   4.241   1.854   2.358
  909TIP3    H2 2734   4.323   1.980   2.379
  910TIP3   OH2 2735   2.639   5.604   5.032
  910TIP3    H1 2736   2.661   5.549   4.957
  910TIP3    H2 2737   2.561   5.563   5.070
  911TIP3   OH2 2738   6.116   5.512   0.108
  911TIP3    H1 2739   6.135   5.527   0.015
  911TIP3    H2 2740   6.170   5.575   0.154
  912TIP3   OH2 2741   0.482   1.660   0.266
  912TIP3    H1 2742   0.514   1.750   0.268
  912TIP3    H2 2743   0.494   1.628   0.356
  913TIP3   OH2 2744   2.258   5.626   5.131
  913TIP3    H1 2745   2.330   5.575   5.092
  913TIP3    H2 2746   2.265   5.609   5.225
  914TIP3   OH2 2747   4.512   5.448   2.402
  914TIP3    H1 2748   4.524   5.486   2.489
  914TIP3    H2 2749   4.586   5.389   2.390
  915TIP3   OH2 2750   1.539   4.206   3.245
  915TIP3    H1 2751   1.473   4.141   3.222
  915TIP3    H2 2752   1.617   4.154   3.266
  916TIP3   OH2 2753   1.780   1.940   1.006
  916TIP3    H1 2754   1.859   1.897   0.972
  916TIP3    H2 2755   1.718   1.869   1.020
  917TIP3   OH2 2756   3.468   2.609   1.232
  917TIP3    H1 2757   3.515   2.580   1.154
  917TIP3    H2 2758   3.447   2.529   1.280
  918TIP3   OH2 2759   3.889   4.187   2.742
  918TIP3    H1 2760   3.904   4.236   2.661
  918TIP3    H2 2761   3.977   4.174   2.779
  919TIP3   OH2 2762   3.700   2.425   3.336
  919TIP3    H1 2763   3.713   2.469   3.252
  919TIP3    H2 2764   3.656   2.490   3.391
  920TIP3   OH2 2765   3.220   5.631   1.673
  920TIP3    H1 2766   3.225   5.719   1.711
  920TIP3    H2 2767   3.160   5.584   1.732
  921TIP3   OH2 2768   2.803   2.375   3.128
  921TIP3    H1 2769   2.877   2.348   3.075
  921TIP3    H2 2770   2.765   2.293   3.160
  922TIP3   OH2 2771   1.905   5.144   3.058
  922TIP3    H1 2772   1.834   5.097   3.102
  922TIP3    H2 2773   1.965   5.168   3.129
  923TIP3   OH2 2774   5.150   4.896   4.972
  923TIP3    H1 2775   5.235   4.936   4.955
  923TIP3    H2 2776   5.112   4.951   5.041
  924TIP3   OH2 2777   5.066   3.594   3.007
  924TIP3    H1 2778   5.141   3.628   3.056
  924TIP3    H2 2779   4.999   3.576   3.073
  925TIP3   OH2 2780   2.358   4.880   2.290
  925TIP3    H1 2781   2.273   4.922   2.278
  925TIP3    H2 2782   2.337   4.789   2.311
  926TIP3   OH2 2783   3.231   3.110   4.497
  926TIP3    H1 2784   3.190   3.125   4.582
  926TIP3    H2 2785   3.236   3.015   4.489
  927TIP3   OH2 2786   0.349   0.485   1.053
  927TIP3    H1 2787   0.305   0.496   1.137
  927TIP3    H2 2788   0.308   0.407   1.015
  928TIP3   OH2 2789   2.458   5.176   2.679
  928TIP3    H1 2790   2.439   5.088   2.712
  928TIP3    H2 2791   2.379   5.201   2.630
  929TIP3   OH2 2792   4.747   1.794   0.996
  929TIP3    H1 2793   4.693   1.818   0.921
  929TIP3    H2 2794   4.796   1.717   0.966
  930TIP3   OH2 2795   3.346   1.333   2.910
  930TIP3    H1 2796   3.284   1.368   2.846
  930TIP3    H2 2797   3.312   1.362   2.994
  931TIP3   OH2 2798   6.101   4.200   4.838
  931TIP3    H1 2799   6.068   4.121   4.796
  931TIP3    H2 2800   6.094   4.268   4.770
  932TIP3   OH2 2801   3.380   3.872   2.970
  932TIP3    H1 2802   3.324   3.795   2.959
  932TIP3    H2 2803   3.463   3.836   3.003
  933TIP3   OH2 2804   2.928   0.403   1.976
  933TIP3    H1 2805   2.987   0.465   2.020
  933TIP3    H2 2806   2.974   0.320   1.978
  934TIP3   OH2 2807   0.718   4.543   0.074
  934TIP3    H1 2808   0.695   4.603   0.003
  934TIP3    H2 2809   0.634   4.521   0.115
  935TIP3   OH2 2810   2.618   5.939   0.801
  935TIP3    H1 2811   2.565   5.861   0.819
  935TIP3    H2 2812   2.704   5.919   0.838
  936TIP3   OH2 2813   3.727   1.254   3.199
  936TIP3    H1 2814   3.653   1.265   3.140
  936TIP3    H2 2815   3.717   1.322   3.265
  937TIP3   OH2 2816   5.617   3.060   4.956
  937TIP3    H1 2817   5.634   2.971   4.987
  937TIP3    H2 2818   5.527   3.078   4.984
  938TIP3   OH2 2819   5.421   1.192   0.417
  938TIP3    H1 2820   5.447   1.253   0.486
  938TIP3    H2 2821   5.332   1.218   0.395
  939TIP3   OH2 2822   4.386   1.607   0.960
  939TIP3    H1 2823   4.300   1.585   0.925
  939TIP3    H2 2824   4.371   1.617   1.054
  940TIP3   OH2 2825   4.633   4.221   1.267
  940TIP3    H1 2826   4.623   4.294   1.206
  940TIP3    H2 2827   4.548   4.178   1.267
  941TIP3   OH2 2828   1.742   3.135   2.912
  941TIP3    H1 2829   1.782   3.051   2.935
  941TIP3    H2 2830   1.766   3.147   2.820
  942TIP3   OH2 2831   4.297   1.016   2.806
  942TIP3    H1 2832   4.246   0.944   2.843
  942TIP3    H2 2833   4.247   1.046   2.731
  943TIP3   OH2 2834   4.680   4.791   2.693
  943TIP3    H1 2835   4.680   4.812   2.786
  943TIP3    H2 2836   4.712   4.871   2.650
  944TIP3   OH2 2837   3.154   5.812   3.182
  944TIP3    H1 2838   3.088   5.807   3.113
  944TIP3    H2 2839   3.107   5.792   3.263
  945TIP3   OH2 2840   5.888   2.895   2.992
  945TIP3    H1 2841   5.844   2.958   2.935
  945TIP3    H2 2842   5.938   2.840   2.932
  946TIP3   OH2 2843   2.919   3.350   1.145
  946TIP3    H1 2844   2.961   3.409   1.209
  946TIP3    H2 2845   2.982   3.345   1.073
  947TIP3   OH2 2846   4.599   2.541   3.797
  947TIP3    H1 2847   4.535   2.547   3.727
  947TIP3    H2 2848   4.549   2.514   3.874
  948TIP3   OH2 2849   3.391   1.031   3.870
  948TIP3    H1 2850   3.383   1.068   3.958
  948TIP3    H2 2851   3.332   1.084   3.817
  949TIP3   OH2 2852   1.555   4.617   0.456
  949TIP3    H1 2853   1.649   4.623   0.444
  949TIP3    H2 2854   1.529   4.704   0.485
  950TIP3   OH2 2855   3.630   4.758   0.680
  950TIP3    H1 2856   3.661   4.805   0.603
  950TIP3    H2 2857   3.689   4.683   0.689
  951TIP3   OH2 2858   6.343   4.481   4.110
  951TIP3    H1 2859   6.290   4.482   4.190
  951TIP3    H2 2860   6.375   4.391   4.104
  952TIP3   OH2 2861   2.009   5.625   1.339
  952TIP3    H1 2862   2.074   5.691   1.315
  952TIP3    H2 2863   2.016   5.618   1.434
  953TIP3   OH2 2864   0.970   5.380   1.573
  953TIP3    H1 2865   0.947   5.364   1.481
  953TIP3    H2 2866   1.064   5.399   1.572
  954TIP3   OH2 2867   5.928   2.048   2.013
  954TIP3    H1 2868   5.840   2.036   2.048
  954TIP3    H2 2869   5.963   2.125   2.059
  955TIP3   OH2 2870   1.892   3.048   0.886
  955TIP3    H1 2871   1.937   3.115   0.836
  955TIP3    H2 2872   1.947   2.970   0.876
  956TIP3   OH2 2873   1.793   3.458   0.685
  956TIP3    H1 2874   1.703   3.488   0.686
  956TIP3    H2 2875   1.800   3.403   0.607
  957TIP3   OH2 2876   3.842   3.060   1.014
  957TIP3    H1 2877   3.874   3.065   1.104
  957TIP3    H2 2878   3.895   3.122   0.965
  958TIP3   OH2 2879   4.369   1.614   0.301
  958TIP3    H1 2880   4.429   1.643   0.369
  958TIP3    H2 2881   4.308   1.687   0.290
  959TIP3   OH2 2882   3.476   1.430   3.429
  959TIP3    H1 2883   3.438   1.436   3.517
  959TIP3    H2 2884   3.569   1.415   3.443
  960TIP3   OH2 2885   5.303   5.418   0.033
  960TIP3    H1 2886   5.252   5.475   0.091
  960TIP3    H2 2887   5.393   5.424   0.065
  961TIP3   OH2 2888   4.541   5.148   1.296
  961TIP3    H1 2889   4.474   5.087   1.327
  961TIP3    H2 2890   4.624   5.103   1.312
  962TIP3   OH2 2891   0.965   2.031   0.689
  962TIP3    H1 2892   1.056   2.003   0.698
  962TIP3    H2 2893   0.921   1.996   0.767
  963TIP3   OH2 2894   2.780   5.090   0.272
  963TIP3    H1 2895   2.779   5.047   0.186
  963TIP3    H2 2896   2.736   5.028   0.330
  964TIP3   OH2 2897   3.938   5.864   2.723
  964TIP3    H1 2898   4.029   5.889   2.738
  964TIP3    H2 2899   3.943   5.789   2.664
  965TIP3   OH2 2900   1.612   1.187   3.710
  965TIP3    H1 2901   1.681   1.248   3.684
  965TIP3    H2 2902   1.604   1.127   3.636
  966TIP3   OH2 2903   3.326   0.881   3.303
  966TIP3    H1 2904   3.352   0.802   3.351
  966TIP3    H2 2905   3.404   0.936   3.304
  967TIP3   OH2 2906   3.570   0.942   0.858
  967TIP3    H1 2907   3.617   0.910   0.935
  967TIP3    H2 2908   3.566   1.036   0.869
  968TIP3   OH2 2909   4.603   1.518   1.784
  968TIP3    H1 2910   4.682   1.570   1.770
  968TIP3    H2 2911   4.563   1.555   1.862
  969TIP3   OH2 2912   3.292   2.486   2.089
  969TIP3    H1 2913   3.204   2.450   2.102
  969TIP3    H2 2914   3.302   2.491   1.994
  970TIP3   OH2 2915   3.997   2.573   0.673
  970TIP3    H1 2916   3.993   2.643   0.738
  970TIP3    H2 2917   4.082   2.585   0.630
  971TIP3   OH2 2918   0.685   1.564   3.983
  971TIP3    H1 2919   0.623   1.543   3.914
  971TIP3    H2 2920   0.759   1.505   3.968
  972TIP3   OH2 2921   4.468   5.023   0.391
  972TIP3    H1 2922   4.563   5.011   0.385
  972TIP3    H2 2923   4.438   5.026   0.300
  973TIP3   OH2 2924   0.171   3.784   5.151
  973TIP3    H1 2925   0.156   3.775   5.245
  973TIP3    H2 2926   0.108   3.724   5.110
  974TIP3   OH2 2927   2.849   5.501   2.760
  974TIP3    H1 2928   2.782   5.558   2.722
  974TIP3    H2 2929   2.921   5.503   2.697
  975TIP3   OH2 2930   2.958   3.920   4.988
  975TIP3    H1 2931   2.984   4.002   4.945
  975TIP3    H2 2932   2.881   3.891   4.939
  976TIP3   OH2 2933   5.347   5.026   4.828
  976TIP3    H1 2934   5.350   5.042   4.733
  976TIP3    H2 2935   5.351   5.114   4.867
  977TIP3   OH2 2936   4.350   5.898   3.712
  977TIP3    H1 2937   4.275   5.954   3.691
  977TIP3    H2 2938   4.312   5.823   3.757
  978TIP3   OH2 2939   5.590   0.783   1.865
  978TIP3    H1 2940   5.564   0.841   1.937
  978TIP3    H2 2941   5.642   0.839   1.807
  979TIP3   OH2 2942   2.365   2.876   0.427
  979TIP3    H1 2943   2.300   2.898   0.494
  979TIP3    H2 2944   2.386   2.784   0.443
  980TIP3   OH2 2945   0.719   3.902   3.270
  980TIP3    H1 2946   0.634   3.899   3.225
  980TIP3    H2 2947   0.699   3.873   3.359
  981TIP3   OH2 2948   0.465   2.326   0.495
  981TIP3    H1 2949   0.433   2.283   0.416
  981TIP3    H2 2950   0.462   2.419   0.475
  982TIP3   OH2 2951   4.280   4.866   5.143
  982TIP3    H1 2952   4.284   4.772   5.160
  982TIP3    H2 2953   4.256   4.905   5.227
  983TIP3   OH2 2954   2.574   3.184   4.368
  983TIP3    H1 2955   2.645   3.206   4.428
  983TIP3    H2 2956   2.542   3.099   4.398
  984TIP3   OH2 2957   5.137   4.512   4.460
  984TIP3    H1 2958   5.164   4.601   4.442
  984TIP3    H2 2959   5.218   4.463   4.472
  985TIP3   OH2 2960   5.032   1.220   4.970
  985TIP3    H1 2961   5.093   1.159   5.011
  985TIP3    H2 2962   5.054   1.218   4.877
  986TIP3   OH2 2963   6.072   3.459   3.226
  986TIP3    H1 2964   5.983   3.471   3.258
  986TIP3    H2 2965   6.128   3.473   3.303
  987TIP3   OH2 2966   1.877   0.606   4.553
  987TIP3    H1 2967   1.866   0.699   4.574
  987TIP3    H2 2968   1.938   0.605   4.480
  988TIP3   OH2 2969   4.037   4.316   2.040
  988TIP3    H1 2970   4.118   4.304   2.090
  988TIP3    H2 2971   4.050   4.398   1.994
  989TIP3   OH2 2972   0.071   0.862   2.859
  989TIP3    H1 2973   0.014   0.938   2.853
  989TIP3    H2 2974   0.027   0.794   2.807
  990TIP3   OH2 2975   4.042   2.609   3.712
  990TIP3    H1 2976   3.993   2.546   3.659
  990TIP3    H2 2977   4.052   2.566   3.797
  991TIP3   OH2 2978   6.200   4.160   3.252
  991TIP3    H1 2979   6.160   4.141   3.337
  991TIP3    H2 2980   6.125   4.164   3.191
  992TIP3   OH2 2981   2.095   1.565   3.823
  992TIP3    H1 2982   2.077   1.600   3.736
  992TIP3    H2 2983   2.043   1.619   3.882
  993TIP3   OH2 2984   6.147   1.096   3.965
  993TIP3    H1 2985   6.239   1.118   3.958
  993TIP3    H2 2986   6.102   1.159   3.909
  994TIP3   OH2 2987   4.243   1.360   3.845
  994TIP3    H1 2988   4.213   1.310   3.769
  994TIP3    H2 2989   4.170   1.416   3.868
  995TIP3   OH2 2990   5.597   0.556   4.458
  995TIP3    H1 2991   5.577   0.634   4.407
  995TIP3    H2 2992   5.582   0.483   4.397
  996TIP3   OH2 2993   5.468   1.460   0.911
  996TIP3    H1 2994   5.401   1.483   0.975
  996TIP3    H2 2995   5.511   1.543   0.891
  997TIP3   OH2 2996   6.210   1.097   2.535
  997TIP3    H1 2997   6.252   1.171   2.492
  997TIP3    H2 2998   6.157   1.056   2.467
  998TIP3   OH2 2999   2.101   5.010   3.318
  998TIP3    H1 3000   2.189   4.971   3.310
  998TIP3    H2 3001   2.042   4.935   3.319
  999TIP3   OH2 3002   5.555   3.354   1.136
  999TIP3    H1 3003   5.585   3.438   1.171
  999TIP3    H2 3004   5.606   3.342   1.056
 1000TIP3   OH2 3005   4.778   2.953   3.493
 1000TIP3    H1 3006   4.856   3.009   3.493
 1000TIP3    H2 3007   4.783   2.906   3.576
 1001TIP3   OH2 3008   3.597   4.973   4.036
 1001TIP3    H1 3009   3.649   4.916   3.979
 1001TIP3    H2 3010   3.543   5.024   3.975
 1002TIP3   OH2 3011   1.488   0.525   0.588
 1002TIP3    H1 3012   1.551   0.536   0.517
 1002TIP3    H2 3013   1.540   0.494   0.662
 1003TIP3   OH2 3014   0.147   4.418   4.853
 1003TIP3    H1 3015   0.118   4.333   4.885
 1003TIP3    H2 3016   0.122   4.480   4.922
 1004TIP3   OH2 3017   3.191   1.513   1.506
 1004TIP3    H1 3018   3.135   1.462   1.565
 1004TIP3    H2 3019   3.147   1.509   1.421
 1005TIP3   OH2 3020   4.973   1.860   1.231
 1005TIP3    H1 3021   4.975   1.777   1.279
 1005TIP3    H2 3022   4.905   1.848   1.165
 1006TIP3   OH2 3023   5.386   3.093   5.154
 1006TIP3    H1 3024   5.379   3.000   5.131
 1006TIP3    H2 3025   5.298   3.128   5.140
 1007TIP3   OH2 3026   4.460   0.174   1.682
 1007TIP3    H1 3027   4.505   0.245   1.636
 1007TIP3    H2 3028   4.454   0.104   1.617
 1008TIP3   OH2 3029   6.253   2.007   4.124
 1008TIP3    H1 3030   6.204   2.082   4.158
 1008TIP3    H2 3031   6.244   1.940   4.191
 1009TIP3   OH2 3032   4.379   3.642   2.233
 1009TIP3    H1 3033   4.451   3.603   2.183
 1009TIP3    H2 3034   4.351   3.573   2.292
 1010TIP3   OH2 3035   2.766   3.276   1.372
 1010TIP3    H1 3036   2.822   3.292   1.296
 1010TIP3    H2 3037   2.718   3.196   1.352
 1011TIP3   OH2 3038   4.660   1.879   3.490
 1011TIP3    H1 3039   4.648   1.812   3.423
 1011TIP3    H2 3040   4.615   1.845   3.567
 1012TIP3   OH2 3041   0.088   1.664   4.614
 1012TIP3    H1 3042   0.127   1.577   4.626
 1012TIP3    H2 3043  -0.002   1.654   4.644
 1013TIP3   OH2 3044   1.490   1.359   4.436
 1013TIP3    H1 3045   1.557   1.298   4.468
 1013TIP3    H2 3046   1.407   1.313   4.449
 1014TIP3   OH2 3047   1.118   5.563   0.023
 1014TIP3    H1 3048   1.146   5.473   0.039
 1014TIP3    H2 3049   1.077   5.591   0.105
 1015TIP3   OH2 3050   5.883   5.588   3.252
 1015TIP3    H1 3051   5.944   5.599   3.325
 1015TIP3    H2 3052   5.894   5.496   3.226
 1016TIP3   OH2 3053   2.411   5.631   2.538
 1016TIP3    H1 3054   2.330   5.679   2.555
 1016TIP3    H2 3055   2.431   5.650   2.447
 1017TIP3   OH2 3056   3.245   1.740   0.804
 1017TIP3    H1 3057   3.268   1.681   0.732
 1017TIP3    H2 3058   3.310   1.811   0.799
 1018TIP3   OH2 3059   5.342   1.419   0.143
 1018TIP3    H1 3060   5.378   1.453   0.061
 1018TIP3    H2 3061   5.317   1.329   0.123
 1019TIP3   OH2 3062   3.335   0.042   4.094
 1019TIP3    H1 3063   3.376   0.111   4.146
 1019TIP3    H2 3064   3.350  -0.038   4.143
 1020TIP3   OH2 3065   6.070   2.493   1.392
 1020TIP3    H1 3066   6.031   2.424   1.446
 1020TIP3    H2 3067   6.026   2.573   1.421
 1021TIP3   OH2 3068   3.312   0.303   0.365
 1021TIP3    H1 3069   3.260   0.380   0.342
 1021TIP3    H2 3070   3.248   0.240   0.398
 1022TIP3   OH2 3071   6.293   1.325   2.399
 1022TIP3    H1 3072   6.290   1.327   2.303
 1022TIP3    H2 3073   6.256   1.410   2.426
 1023TIP3   OH2 3074   1.934   3.386   4.226
 1023TIP3    H1 3075   1.964   3.336   4.150
 1023TIP3    H2 3076   1.893   3.464   4.189
 1024TIP3   OH2 3077   1.543   4.003   0.940
 1024TIP3    H1 3078   1.501   4.088   0.932
 1024TIP3    H2 3079   1.548   3.969   0.851
 1025TIP3   OH2 3080   0.532   1.066   3.394
 1025TIP3    H1 3081   0.603   1.012   3.359
 1025TIP3    H2 3082   0.499   1.113   3.318
 1026TIP3   OH2 3083   1.485   1.623   2.642
 1026TIP3    H1 3084   1.440   1.548   2.602
 1026TIP3    H2 3085   1.526   1.586   2.720
 1027TIP3   OH2 3086   1.668   0.264   0.403
 1027TIP3    H1 3087   1.604   0.335   0.409
 1027TIP3    H2 3088   1.687   0.258   0.309
 1028TIP3   OH2 3089   0.205   3.693   0.049
 1028TIP3    H1 3090   0.158   3.749  -0.012
 1028TIP3    H2 3091   0.286   3.739   0.067
 1029TIP3   OH2 3092   1.300   4.613   2.231
 1029TIP3    H1 3093   1.222   4.658   2.198
 1029TIP3    H2 3094   1.274   4.580   2.317
 1030TIP3   OH2 3095   2.873   3.296   1.845
 1030TIP3    H1 3096   2.822   3.335   1.917
 1030TIP3    H2 3097   2.874   3.203   1.864
 1031TIP3   OH2 3098   5.163   0.718   2.399
 1031TIP3    H1 3099   5.164   0.792   2.460
 1031TIP3    H2 3100   5.218   0.652   2.441
 1032TIP3   OH2 3101   0.512   4.406   0.269
 1032TIP3    H1 3102   0.474   4.494   0.271
 1032TIP3    H2 3103   0.491   4.369   0.355
 1033TIP3   OH2 3104   3.807   2.034   1.019
 1033TIP3    H1 3105   3.888   1.987   0.997
 1033TIP3    H2 3106   3.795   2.096   0.948
 1034TIP3   OH2 3107   3.697   0.418   1.283
 1034TIP3    H1 3108   3.689   0.347   1.347
 1034TIP3    H2 3109   3.716   0.496   1.336
 1035TIP3   OH2 3110   5.047   1.500   1.839
 1035TIP3    H1 3111   4.968   1.552   1.829
 1035TIP3    H2 3112   5.099   1.518   1.761
 1036TIP3   OH2 3113   0.835   3.150   1.597
 1036TIP3    H1 3114   0.879   3.065   1.604
 1036TIP3    H2 3115   0.886   3.208   1.654
 1037TIP3   OH2 3116   1.463   2.727   3.602
 1037TIP3    H1 3117   1.529   2.746   3.668
 1037TIP3    H2 3118   1.383   2.710   3.652
 1038TIP3   OH2 3119   2.999   0.580   2.834
 1038TIP3    H1 3120   3.068   0.590   2.900
 1038TIP3    H2 3121   2.999   0.487   2.812
 1039TIP3   OH2 3122   0.269   3.672   0.678
 1039TIP3    H1 3123   0.180   3.657   0.710
 1039TIP3    H2 3124   0.313   3.587   0.686
 1040TIP3   OH2 3125   2.426   4.264   2.048
 1040TIP3    H1 3126   2.397   4.215   2.125
 1040TIP3    H2 3127   2.512   4.227   2.027
 1041TIP3   OH2 3128   4.981   1.856   1.676
 1041TIP3    H1 3129   5.032   1.925   1.720
 1041TIP3    H2 3130   5.043   1.817   1.614
 1042TIP3   OH2 3131   3.934   0.749   4.152
 1042TIP3    H1 3132   3.934   0.793   4.067
 1042TIP3    H2 3133   3.938   0.656   4.131
 1043TIP3   OH2 3134  -0.015   5.543   3.496
 1043TIP3    H1 3135   0.051   5.610   3.479
 1043TIP3    H2 3136  -0.009   5.483   3.421
 1044TIP3   OH2 3137   2.051   3.134   0.465
 1044TIP3    H1 3138   2.110   3.064   0.493
 1044TIP3    H2 3139   2.109   3.210   0.457
 1045TIP3   OH2 3140   5.340   2.601   0.506
 1045TIP3    H1 3141   5.395   2.617   0.582
 1045TIP3    H2 3142   5.277   2.535   0.536
 1046TIP3   OH2 3143   0.864   4.376   3.348
 1046TIP3    H1 3144   0.816   4.343   3.272
 1046TIP3    H2 3145   0.808   4.356   3.423
 1047TIP3   OH2 3146   2.596   1.665   5.185
 1047TIP3    H1 3147   2.552   1.723   5.247
 1047TIP3    H2 3148   2.689   1.673   5.205
 1048TIP3   OH2 3149   0.550   2.405   0.108
 1048TIP3    H1 3150   0.536   2.478   0.167
 1048TIP3    H2 3151   0.486   2.339   0.137
 1049TIP3   OH2 3152   1.219   2.052   0.282
 1049TIP3    H1 3153   1.229   2.122   0.347
 1049TIP3    H2 3154   1.175   2.094   0.208
 1050TIP3   OH2 3155   2.309   3.855   2.908
 1050TIP3    H1 3156   2.226   3.889   2.939
 1050TIP3    H2 3157   2.375   3.913   2.947
 1051TIP3   OH2 3158   0.190   4.403   1.149
 1051TIP3    H1 3159   0.268   4.452   1.123
 1051TIP3    H2 3160   0.218   4.350   1.224
 1052TIP3   OH2 3161   0.912   5.079   4.534
 1052TIP3    H1 3162   0.969   5.008   4.562
 1052TIP3    H2 3163   0.837   5.035   4.495
 1053TIP3   OH2 3164   0.351   3.406   0.713
 1053TIP3    H1 3165   0.295   3.348   0.766
 1053TIP3    H2 3166   0.321   3.394   0.623
 1054TIP3   OH2 3167   2.177   4.125   0.883
 1054TIP3    H1 3168   2.098   4.118   0.829
 1054TIP3    H2 3169   2.203   4.216   0.876
 1055TIP3   OH2 3170   0.340   2.735   1.489
 1055TIP3    H1 3171   0.321   2.823   1.522
 1055TIP3    H2 3172   0.396   2.696   1.556
 1056TIP3   OH2 3173   3.116   0.125   4.971
 1056TIP3    H1 3174   3.109   0.220   4.977
 1056TIP3    H2 3175   3.106   0.094   5.061
 1057TIP3   OH2 3176   4.989   1.577   1.331
 1057TIP3    H1 3177   5.011   1.535   1.415
 1057TIP3    H2 3178   4.946   1.508   1.281
 1058TIP3   OH2 3179   5.641   3.949   4.374
 1058TIP3    H1 3180   5.707   3.905   4.320
 1058TIP3    H2 3181   5.690   4.013   4.425
 1059TIP3   OH2 3182   5.603   0.292   3.424
 1059TIP3    H1 3183   5.632   0.203   3.444
 1059TIP3    H2 3184   5.540   0.281   3.353
 1060TIP3   OH2 3185   3.261   3.727   0.757
 1060TIP3    H1 3186   3.348   3.729   0.797
 1060TIP3    H2 3187   3.277   3.710   0.665
 1061TIP3   OH2 3188   3.006   1.722   3.123
 1061TIP3    H1 3189   2.994   1.658   3.193
 1061TIP3    H2 3190   3.007   1.670   3.042
 1062TIP3   OH2 3191   0.216   4.280   3.611
 1062TIP3    H1 3192   0.285   4.337   3.647
 1062TIP3    H2 3193   0.167   4.252   3.688
 1063TIP3   OH2 3194   3.279   2.386   1.837
 1063TIP3    H1 3195   3.301   2.296   1.862
 1063TIP3    H2 3196   3.303   2.391   1.745
 1064TIP3   OH2 3197   5.543   1.257   3.974
 1064TIP3    H1 3198   5.531   1.306   4.055
 1064TIP3    H2 3199   5.483   1.182   3.982
 1065TIP3   OH2 3200   2.995   1.088   1.149
 1065TIP3    H1 3201   2.943   1.030   1.093
 1065TIP3    H2 3202   2.984   1.175   1.111
 1066TIP3   OH2 3203   4.995   0.511   1.205
 1066TIP3    H1 3204   5.001   0.552   1.292
 1066TIP3    H2 3205   4.902   0.510   1.185
 1067TIP3   OH2 3206   5.933   1.504   1.397
 1067TIP3    H1 3207   5.953   1.567   1.467
 1067TIP3    H2 3208   5.863   1.546   1.347
 1068TIP3   OH2 3209   0.187   3.800   2.548
 1068TIP3    H1 3210   0.111   3.745   2.569
 1068TIP3    H2 3211   0.214   3.772   2.461
 1069TIP3   OH2 3212   3.052   0.601   2.103
 1069TIP3    H1 3213   3.132   0.602   2.156
 1069TIP3    H2 3214   3.068   0.668   2.036
 1070TIP3   OH2 3215   1.303   4.785   3.279
 1070TIP3    H1 3216   1.280   4.696   3.307
 1070TIP3    H2 3217   1.348   4.823   3.355
 1071TIP3   OH2 3218   3.675   0.750   2.581
 1071TIP3    H1 3219   3.590   0.731   2.541
 1071TIP3    H2 3220   3.738   0.709   2.522
 1072TIP3   OH2 3221   4.016   0.255   3.230
 1072TIP3    H1 3222   3.989   0.329   3.285
 1072TIP3    H2 3223   3.934   0.221   3.194
 1073TIP3   OH2 3224   3.201   1.355   0.032
 1073TIP3    H1 3225   3.126   1.414   0.021
 1073TIP3    H2 3226   3.165   1.280   0.078
 1074TIP3   OH2 3227   1.338   5.131   3.844
 1074TIP3    H1 3228   1.300   5.057   3.797
 1074TIP3    H2 3229   1.273   5.152   3.912
 1075TIP3   OH2 3230   1.224   5.125   2.597
 1075TIP3    H1 3231   1.224   5.210   2.552
 1075TIP3    H2 3232   1.247   5.146   2.688
 1076TIP3   OH2 3233   6.258   5.667   3.242
 1076TIP3    H1 3234   6.348   5.687   3.216
 1076TIP3    H2 3235   6.244   5.576   3.213
 1077TIP3   OH2 3236   3.570   4.689   2.565
 1077TIP3    H1 3237   3.482   4.695   2.603
 1077TIP3    H2 3238   3.583   4.774   2.522
 1078TIP3   OH2 3239   3.489   1.583   1.429
 1078TIP3    H1 3240   3.457   1.671   1.410
 1078TIP3    H2 3241   3.413   1.538   1.466
 1079TIP3   OH2 3242   0.427   0.080   5.106
 1079TIP3    H1 3243   0.479   0.121   5.174
 1079TIP3    H2 3244   0.472   0.102   5.024
 1080TIP3   OH2 3245   1.401   0.339   4.098
 1080TIP3    H1 3246   1.390   0.373   4.009
 1080TIP3    H2 3247   1.420   0.417   4.151
 1081TIP3   OH2 3248   1.118   5.932   3.378
 1081TIP3    H1 3249   1.133   5.999   3.311
 1081TIP3    H2 3250   1.206   5.904   3.403
 1082TIP3   OH2 3251   1.355   0.186   2.644
 1082TIP3    H1 3252   1.348   0.103   2.692
 1082TIP3    H2 3253   1.414   0.167   2.571
 1083TIP3   OH2 3254   1.673   4.207   4.763
 1083TIP3    H1 3255   1.682   4.172   4.675
 1083TIP3    H2 3256   1.601   4.157   4.802
 1084TIP3   OH2 3257   0.043   0.312   1.930
 1084TIP3    H1 3258  -0.007   0.391   1.949
 1084TIP3    H2 3259  -0.009   0.267   1.862
 1085TIP3   OH2 3260   0.273   5.886   0.353
 1085TIP3    H1 3261   0.207   5.952   0.332
 1085TIP3    H2 3262   0.306   5.857   0.268
 1086TIP3   OH2 3263   0.294   3.717   3.352
 1086TIP3    H1 3264   0.241   3.639   3.366
 1086TIP3    H2 3265   0.303   3.756   3.439
 1087TIP3   OH2 3266   4.888   3.795   3.924
 1087TIP3    H1 3267   4.837   3.831   3.851
 1087TIP3    H2 3268   4.977   3.827   3.909
 1088TIP3   OH2 3269   0.687   2.690   0.057
 1088TIP3    H1 3270   0.634   2.659  -0.017
 1088TIP3    H2 3271   0.628   2.685   0.132
 1089TIP3   OH2 3272   3.569   0.343   2.078
 1089TIP3    H1 3273   3.550   0.341   1.984
 1089TIP3    H2 3274   3.585   0.252   2.101
 1090TIP3   OH2 3275   5.022   1.717   4.826
 1090TIP3    H1 3276   4.949   1.756   4.779
 1090TIP3    H2 3277   5.015   1.623   4.808
 1091TIP3   OH2 3278   5.389   1.911   4.997
 1091TIP3    H1 3279   5.330   1.906   4.923
 1091TIP3    H2 3280   5.471   1.944   4.961
 1092TIP3   OH2 3281   3.169   3.636   1.109
 1092TIP3    H1 3282   3.158   3.613   1.017
 1092TIP3    H2 3283   3.192   3.729   1.108
 1093TIP3   OH2 3284   2.004   3.085   1.257
 1093TIP3    H1 3285   2.072   3.033   1.300
 1093TIP3    H2 3286   1.922   3.044   1.285
 1094TIP3   OH2 3287   1.487   3.247   0.400
 1094TIP3    H1 3288   1.521   3.158   0.400
 1094TIP3    H2 3289   1.394   3.237   0.380
 1095TIP3   OH2 3290   6.004   4.573   0.075
 1095TIP3    H1 3291   6.070   4.618   0.022
 1095TIP3    H2 3292   5.963   4.512   0.015
 1096TIP3   OH2 3293   2.167   1.321   0.925
 1096TIP3    H1 3294   2.107   1.299   0.996
 1096TIP3    H2 3295   2.241   1.363   0.968
 1097TIP3   OH2 3296   4.934   1.525   4.029
 1097TIP3    H1 3297   4.958   1.540   3.938
 1097TIP3    H2 3298   5.002   1.467   4.063
 1098TIP3   OH2 3299   4.816   0.662   3.152
 1098TIP3    H1 3300   4.752   0.599   3.117
 1098TIP3    H2 3301   4.817   0.733   3.088
 1099TIP3   OH2 3302   4.410   4.495   1.101
 1099TIP3    H1 3303   4.465   4.520   1.027
 1099TIP3    H2 3304   4.430   4.561   1.168
 1100TIP3   OH2 3305   6.020   5.899   2.869
 1100TIP3    H1 3306   5.947   5.875   2.927
 1100TIP3    H2 3307   6.042   5.818   2.824
 1101TIP3   OH2 3308   5.516   2.632   0.707
 1101TIP3    H1 3309   5.580   2.586   0.762
 1101TIP3    H2 3310   5.534   2.725   0.721
 1102TIP3   OH2 3311   3.562   2.866   3.708
 1102TIP3    H1 3312   3.581   2.792   3.765
 1102TIP3    H2 3313   3.483   2.904   3.744
 1103TIP3   OH2 3314   1.970   4.159   4.724
 1103TIP3    H1 3315   1.875   4.159   4.709
 1103TIP3    H2 3316   1.980   4.196   4.811
 1104TIP3   OH2 3317   4.837   2.627   2.072
 1104TIP3    H1 3318   4.792   2.704   2.107
 1104TIP3    H2 3319   4.801   2.615   1.984
 1105TIP3   OH2 3320   1.064   3.248   2.280
 1105TIP3    H1 3321   1.051   3.342   2.268
 1105TIP3    H2 3322   1.004   3.207   2.217
 1106TIP3   OH2 3323   2.053   4.798   0.209
 1106TIP3    H1 3324   2.036   4.714   0.252
 1106TIP3    H2 3325   2.146   4.797   0.190
 1107TIP3   OH2 3326   4.591   4.836   0.765
 1107TIP3    H1 3327   4.623   4.800   0.682
 1107TIP3    H2 3328   4.654   4.905   0.787
 1108TIP3   OH2 3329   5.528   3.647   0.415
 1108TIP3    H1 3330   5.557   3.736   0.435
 1108TIP3    H2 3331   5.465   3.625   0.484
 1109TIP3   OH2 3332   5.328   1.332   3.752
 1109TIP3    H1 3333   5.235   1.317   3.769
 1109TIP3    H2 3334   5.366   1.349   3.838
 1110TIP3   OH2 3335   1.781   4.407   0.230
 1110TIP3    H1 3336   1.720   4.361   0.288
 1110TIP3    H2 3337   1.746   4.496   0.225
 1111TIP3   OH2 3338   4.965   5.038   0.030
 1111TIP3    H1 3339   4.968   4.954   0.075
 1111TIP3    H2 3340   4.966   5.016  -0.063
 1112TIP3   OH2 3341   5.849   3.729   4.935
 1112TIP3    H1 3342   5.884   3.709   5.022
 1112TIP3    H2 3343   5.810   3.647   4.906
 1113TIP3   OH2 3344   3.408   2.354   0.889
 1113TIP3    H1 3345   3.457   2.369   0.969
 1113TIP3    H2 3346   3.323   2.395   0.905
 1114TIP3   OH2 3347   2.876   3.992   4.616
 1114TIP3    H1 3348   2.792   4.017   4.577
 1114TIP3    H2 3349   2.865   3.900   4.640
 1115TIP3   OH2 3350   2.644   4.343   2.261
 1115TIP3    H1 3351   2.564   4.339   2.312
 1115TIP3    H2 3352   2.641   4.265   2.205
 1116TIP3   OH2 3353   2.130   5.717   4.725
 1116TIP3    H1 3354   2.106   5.635   4.682
 1116TIP3    H2 3355   2.119   5.784   4.657
 1117TIP3   OH2 3356   4.340   3.386   3.885
 1117TIP3    H1 3357   4.282   3.458   3.862
 1117TIP3    H2 3358   4.405   3.425   3.944
 1118TIP3   OH2 3359   4.054   3.170   3.014
 1118TIP3    H1 3360   3.971   3.210   3.039
 1118TIP3    H2 3361   4.034   3.117   2.937
 1119TIP3   OH2 3362   1.653   3.064   0.036
 1119TIP3    H1 3363   1.639   3.021   0.120
 1119TIP3    H2 3364   1.567   3.098   0.011
 1120TIP3   OH2 3365   4.038   4.210   1.147
 1120TIP3    H1 3366   4.069   4.268   1.078
 1120TIP3    H2 3367   4.014   4.268   1.219
 1121TIP3   OH2 3368   2.321   5.724   4.209
 1121TIP3    H1 3369   2.395   5.756   4.259
 1121TIP3    H2 3370   2.307   5.789   4.141
 1122TIP3   OH2 3371   1.507   1.667   3.218
 1122TIP3    H1 3372   1.496   1.679   3.313
 1122TIP3    H2 3373   1.448   1.596   3.195
 1123TIP3   OH2 3374   2.044   2.474   4.868
 1123TIP3    H1 3375   2.079   2.562   4.879
 1123TIP3    H2 3376   2.100   2.418   4.921
 1124TIP3   OH2 3377   5.197   4.194   1.952
 1124TIP3    H1 3378   5.139   4.270   1.949
 1124TIP3    H2 3379   5.200   4.169   2.045
 1125TIP3   OH2 3380   0.254   4.605   3.458
 1125TIP3    H1 3381   0.186   4.604   3.526
 1125TIP3    H2 3382   0.302   4.687   3.474
 1126TIP3   OH2 3383   4.839   5.870   0.847
 1126TIP3    H1 3384   4.838   5.809   0.774
 1126TIP3    H2 3385   4.915   5.843   0.899
 1127TIP3   OH2 3386   1.203   0.086   0.513
 1127TIP3    H1 3387   1.217   0.179   0.497
 1127TIP3    H2 3388   1.123   0.066   0.464
 1128TIP3   OH2 3389   2.384   3.085   3.076
 1128TIP3    H1 3390   2.353   3.002   3.110
 1128TIP3    H2 3391   2.334   3.151   3.124
 1129TIP3   OH2 3392   0.436   0.034   3.414
 1129TIP3    H1 3393   0.501  -0.009   3.358
 1129TIP3    H2 3394   0.411  -0.033   3.478
 1130TIP3   OH2 3395   2.391   5.753   4.876
 1130TIP3    H1 3396   2.307   5.734   4.833
 1130TIP3    H2 3397   2.367   5.800   4.956
 1131TIP3   OH2 3398   3.097   4.952   3.660
 1131TIP3    H1 3399   3.123   4.896   3.586
 1131TIP3    H2 3400   3.074   4.891   3.730
 1132TIP3   OH2 3401   0.573   2.506   2.840
 1132TIP3    H1 3402   0.659   2.488   2.801
 1132TIP3    H2 3403   0.535   2.573   2.783
 1133TIP3   OH2 3404   3.848   5.315   0.307
 1133TIP3    H1 3405   3.898   5.242   0.344
 1133TIP3    H2 3406   3.879   5.392   0.356
 1134TIP3   OH2 3407   3.422   2.399   2.757
 1134TIP3    H1 3408   3.346   2.405   2.814
 1134TIP3    H2 3409   3.389   2.416   2.669
 1135TIP3   OH2 3410   4.902   2.518   2.609
 1135TIP3    H1 3411   4.886   2.593   2.666
 1135TIP3    H2 3412   4.996   2.501   2.618
 1136TIP3   OH2 3413   2.802   1.179   1.612
 1136TIP3    H1 3414   2.838   1.141   1.532
 1136TIP3    H2 3415   2.733   1.238   1.582
 1137TIP3   OH2 3416   1.561   1.530   2.203
 1137TIP3    H1 3417   1.567   1.527   2.299
 1137TIP3    H2 3418   1.586   1.442   2.175
 1138TIP3   OH2 3419   5.893   0.195   2.841
 1138TIP3    H1 3420   5.906   0.173   2.749
 1138TIP3    H2 3421   5.927   0.284   2.849
 1139TIP3   OH2 3422   6.304   0.116   4.975
 1139TIP3    H1 3423   6.323   0.125   5.068
 1139TIP3    H2 3424   6.391   0.110   4.934
 1140TIP3   OH2 3425   0.621   4.897   4.059
 1140TIP3    H1 3426   0.612   4.960   3.988
 1140TIP3    H2 3427   0.698   4.926   4.108
 1141TIP3   OH2 3428   1.673   3.779   1.427
 1141TIP3    H1 3429   1.675   3.818   1.340
 1141TIP3    H2 3430   1.590   3.732   1.430
 1142TIP3   OH2 3431   3.263   2.017   2.691
 1142TIP3    H1 3432   3.347   1.994   2.730
 1142TIP3    H2 3433   3.273   1.995   2.598
 1143TIP3   OH2 3434   5.707   1.787   1.055
 1143TIP3    H1 3435   5.662   1.740   0.985
 1143TIP3    H2 3436   5.674   1.876   1.050
 1144TIP3   OH2 3437   1.652   5.815   1.042
 1144TIP3    H1 3438   1.744   5.835   1.057
 1144TIP3    H2 3439   1.647   5.719   1.046
 1145TIP3   OH2 3440   3.250   3.755   0.457
 1145TIP3    H1 3441   3.339   3.732   0.485
 1145TIP3    H2 3442   3.242   3.721   0.368
 1146TIP3   OH2 3443   0.671   4.925  -0.031
 1146TIP3    H1 3444   0.656   4.939   0.062
 1146TIP3    H2 3445   0.677   4.830  -0.041
 1147TIP3   OH2 3446   1.380   3.925   1.569
 1147TIP3    H1 3447   1.408   3.840   1.535
 1147TIP3    H2 3448   1.415   3.988   1.507
 1148TIP3   OH2 3449   5.534   0.719   0.931
 1148TIP3    H1 3450   5.581   0.785   0.982
 1148TIP3    H2 3451   5.495   0.768   0.858
 1149TIP3   OH2 3452   5.511   1.638   1.654
 1149TIP3    H1 3453   5.432   1.646   1.708
 1149TIP3    H2 3454   5.554   1.559   1.686
 1150TIP3   OH2 3455   4.920   2.040   0.329
 1150TIP3    H1 3456   4.940   2.113   0.269
 1150TIP3    H2 3457   4.828   2.021   0.313
 1151TIP3   OH2 3458   0.828   5.554   5.054
 1151TIP3    H1 3459   0.880   5.620   5.101
 1151TIP3    H2 3460   0.862   5.557   4.965
 1152TIP3   OH2 3461   4.568   4.761   1.096
 1152TIP3    H1 3462   4.612   4.840   1.065
 1152TIP3    H2 3463   4.498   4.746   1.031
 1153TIP3   OH2 3464   1.135   5.518   4.031
 1153TIP3    H1 3465   1.055   5.540   4.078
 1153TIP3    H2 3466   1.189   5.472   4.096
 1154TIP3   OH2 3467   4.408   4.673   2.693
 1154TIP3    H1 3468   4.391   4.613   2.620
 1154TIP3    H2 3469   4.483   4.725   2.664
 1155TIP3   OH2 3470   6.373   0.659   1.666
 1155TIP3    H1 3471   6.338   0.662   1.755
 1155TIP3    H2 3472   6.306   0.613   1.615
 1156TIP3   OH2 3473   1.587   2.448   4.080
 1156TIP3    H1 3474   1.532   2.373   4.057
 1156TIP3    H2 3475   1.669   2.432   4.032
 1157TIP3   OH2 3476   5.110   2.646   1.854
 1157TIP3    H1 3477   5.014   2.648   1.858
 1157TIP3    H2 3478   5.130   2.618   1.764
 1158TIP3   OH2 3479   0.744   3.539   2.944
 1158TIP3    H1 3480   0.763   3.467   2.884
 1158TIP3    H2 3481   0.703   3.606   2.889
 1159TIP3   OH2 3482   0.129   3.336   1.898
 1159TIP3    H1 3483   0.046   3.369   1.866
 1159TIP3    H2 3484   0.173   3.302   1.819
 1160TIP3   OH2 3485   5.343   4.307   3.089
 1160TIP3    H1 3486   5.255   4.345   3.088
 1160TIP3    H2 3487   5.351   4.262   3.005
 1161TIP3   OH2 3488   1.488   0.907   4.347
 1161TIP3    H1 3489   1.573   0.894   4.305
 1161TIP3    H2 3490   1.433   0.944   4.279
 1162TIP3   OH2 3491   2.496   5.906   3.484
 1162TIP3    H1 3492   2.429   5.898   3.552
 1162TIP3    H2 3493   2.494   5.822   3.438
 1163TIP3   OH2 3494   0.545   4.037   5.065
 1163TIP3    H1 3495   0.476   4.086   5.110
 1163TIP3    H2 3496   0.498   3.983   5.001
 1164TIP3   OH2 3497   2.891   5.727   2.506
 1164TIP3    H1 3498   2.893   5.799   2.569
 1164TIP3    H2 3499   2.884   5.770   2.421
 1165TIP3   OH2 3500   5.494   4.784   4.861
 1165TIP3    H1 3501   5.424   4.747   4.915
 1165TIP3    H2 3502   5.471   4.876   4.850
 1166TIP3   OH2 3503   5.178   4.344   4.181
 1166TIP3    H1 3504   5.092   4.349   4.139
 1166TIP3    H2 3505   5.172   4.406   4.255
 1167TIP3   OH2 3506   4.768   0.309   2.915
 1167TIP3    H1 3507   4.839   0.271   2.967
 1167TIP3    H2 3508   4.716   0.359   2.979
 1168TIP3   OH2 3509   0.740   0.949   2.354
 1168TIP3    H1 3510   0.773   0.914   2.437
 1168TIP3    H2 3511   0.788   1.031   2.342
 1169TIP3   OH2 3512   3.914   3.726   2.890
 1169TIP3    H1 3513   4.000   3.755   2.920
 1169TIP3    H2 3514   3.931   3.688   2.804
 1170TIP3   OH2 3515   3.607   3.073   4.053
 1170TIP3    H1 3516   3.663   3.027   4.114
 1170TIP3    H2 3517   3.518   3.059   4.085
 1171TIP3   OH2 3518   4.533   0.531   3.961
 1171TIP3    H1 3519   4.472   0.605   3.963
 1171TIP3    H2 3520   4.615   0.569   3.930
 1172TIP3   OH2 3521   4.159   5.881   1.431
 1172TIP3    H1 3522   4.254   5.894   1.439
 1172TIP3    H2 3523   4.138   5.815   1.497
 1173TIP3   OH2 3524   0.046   0.659   3.026
 1173TIP3    H1 3525   0.038   0.671   3.121
 1173TIP3    H2 3526   0.074   0.745   2.994
 1174TIP3   OH2 3527   4.201   0.012   1.958
 1174TIP3    H1 3528   4.221   0.019   1.864
 1174TIP3    H2 3529   4.221  -0.079   1.979
 1175TIP3   OH2 3530   0.812   1.723   0.894
 1175TIP3    H1 3531   0.756   1.791   0.932
 1175TIP3    H2 3532   0.901   1.756   0.905
 1176TIP3   OH2 3533   0.817   3.495   0.501
 1176TIP3    H1 3534   0.851   3.566   0.554
 1176TIP3    H2 3535   0.732   3.527   0.469
 1177TIP3   OH2 3536   4.753   5.871   1.184
 1177TIP3    H1 3537   4.783   5.789   1.223
 1177TIP3    H2 3538   4.659   5.874   1.204
 1178TIP3   OH2 3539   6.305   2.528   1.698
 1178TIP3    H1 3540   6.266   2.527   1.785
 1178TIP3    H2 3541   6.258   2.597   1.652
 1179TIP3   OH2 3542   0.407   5.305   3.475
 1179TIP3    H1 3543   0.400   5.392   3.514
 1179TIP3    H2 3544   0.336   5.255   3.515
 1180TIP3   OH2 3545   0.377   2.711   1.048
 1180TIP3    H1 3546   0.304   2.754   1.005
 1180TIP3    H2 3547   0.452   2.769   1.032
 1181TIP3   OH2 3548   5.595   4.035   3.116
 1181TIP3    H1 3549   5.630   3.964   3.170
 1181TIP3    H2 3550   5.542   3.989   3.050
 1182TIP3   OH2 3551   0.998   0.470   5.218
 1182TIP3    H1 3552   1.004   0.538   5.150
 1182TIP3    H2 3553   1.000   0.387   5.169
 1183TIP3   OH2 3554   1.179   5.702   0.976
 1183TIP3    H1 3555   1.221   5.788   0.983
 1183TIP3    H2 3556   1.088   5.718   1.000
 1184TIP3   OH2 3557   4.136   3.706   1.393
 1184TIP3    H1 3558   4.158   3.642   1.326
 1184TIP3    H2 3559   4.108   3.653   1.468
 1185TIP3   OH2 3560   3.446   0.385   0.722
 1185TIP3    H1 3561   3.421   0.353   0.809
 1185TIP3    H2 3562   3.472   0.306   0.675
 1186TIP3   OH2 3563   5.392   4.622   0.573
 1186TIP3    H1 3564   5.358   4.680   0.506
 1186TIP3    H2 3565   5.398   4.537   0.530
 1187TIP3   OH2 3566   0.013   1.234   0.948
 1187TIP3    H1 3567   0.036   1.326   0.967
 1187TIP3    H2 3568   0.088   1.184   0.979
 1188TIP3   OH2 3569   4.819   0.455  -0.007
 1188TIP3    H1 3570   4.830   0.429   0.084
 1188TIP3    H2 3571   4.872   0.392  -0.057
 1189TIP3   OH2 3572   4.607   4.601   0.317
 1189TIP3    H1 3573   4.545   4.667   0.285
 1189TIP3    H2 3574   4.591   4.524   0.263
 1190TIP3   OH2 3575   5.625   3.319   3.684
 1190TIP3    H1 3576   5.717   3.300   3.703
 1190TIP3    H2 3577   5.617   3.307   3.589
 1191TIP3   OH2 3578   4.209   3.466   4.273
 1191TIP3    H1 3579   4.163   3.391   4.235
 1191TIP3    H2 3580   4.222   3.442   4.365
 1192TIP3   OH2 3581   3.161   1.120   1.550
 1192TIP3    H1 3582   3.229   1.177   1.587
 1192TIP3    H2 3583   3.099   1.106   1.621
 1193TIP3   OH2 3584   2.895   4.590   3.985
 1193TIP3    H1 3585   2.938   4.627   4.062
 1193TIP3    H2 3586   2.816   4.548   4.019
 1194TIP3   OH2 3587   1.424   3.527   1.089
 1194TIP3    H1 3588   1.419   3.619   1.113
 1194TIP3    H2 3589   1.392   3.481   1.167
 1195TIP3   OH2 3590   5.069   5.257   0.223
 1195TIP3    H1 3591   5.107   5.228   0.306
 1195TIP3    H2 3592   5.059   5.177   0.172
 1196TIP3   OH2 3593   2.481   1.972   2.200
 1196TIP3    H1 3594   2.566   1.966   2.244
 1196TIP3    H2 3595   2.436   1.890   2.223
 1197TIP3   OH2 3596   3.574   2.196   1.882
 1197TIP3    H1 3597   3.661   2.173   1.914
 1197TIP3    H2 3598   3.531   2.236   1.957
 1198TIP3   OH2 3599   5.669   1.060   2.912
 1198TIP3    H1 3600   5.690   1.153   2.917
 1198TIP3    H2 3601   5.719   1.028   2.836
 1199TIP3   OH2 3602   5.375   0.368   3.268
 1199TIP3    H1 3603   5.362   0.462   3.256
 1199TIP3    H2 3604   5.287   0.333   3.278
 1200TIP3   OH2 3605   5.867   2.459   3.004
 1200TIP3    H1 3606   5.784   2.472   3.050
 1200TIP3    H2 3607   5.848   2.484   2.914
 1201TIP3   OH2 3608   4.008   1.419   0.819
 1201TIP3    H1 3609   3.945   1.363   0.773
 1201TIP3    H2 3610   4.063   1.358   0.869
 1202TIP3   OH2 3611   1.200   5.197   1.019
 1202TIP3    H1 3612   1.167   5.274   0.973
 1202TIP3    H2 3613   1.209   5.226   1.110
 1203TIP3   OH2 3614   2.744   4.329   0.581
 1203TIP3    H1 3615   2.749   4.419   0.610
 1203TIP3    H2 3616   2.835   4.301   0.570
 1204TIP3   OH2 3617   5.061   3.054   4.946
 1204TIP3    H1 3618   5.153   3.044   4.974
 1204TIP3    H2 3619   5.033   3.137   4.985
 1205TIP3   OH2 3620   0.643   2.023   0.520
 1205TIP3    H1 3621   0.729   2.049   0.487
 1205TIP3    H2 3622   0.657   1.937   0.559
 1206TIP3   OH2 3623   2.111   4.313   4.960
 1206TIP3    H1 3624   2.114   4.321   5.055
 1206TIP3    H2 3625   2.063   4.390   4.931
 1207TIP3   OH2 3626   1.769   5.207   2.239
 1207TIP3    H1 3627   1.720   5.246   2.310
 1207TIP3    H2 3628   1.713   5.217   2.162
 1208TIP3   OH2 3629   4.290   2.969   4.115
 1208TIP3    H1 3630   4.210   2.967   4.061
 1208TIP3    H2 3631   4.353   3.019   4.063
 1209TIP3   OH2 3632   0.100   5.680   0.053
 1209TIP3    H1 3633   0.123   5.761   0.006
 1209TIP3    H2 3634   0.068   5.621  -0.016
 1210TIP3   OH2 3635   4.050   3.970   0.064
 1210TIP3    H1 3636   4.025   3.959   0.155
 1210TIP3    H2 3637   3.979   4.021   0.025
 1211TIP3   OH2 3638   0.553   1.840   0.961
 1211TIP3    H1 3639   0.520   1.835   0.871
 1211TIP3    H2 3640   0.538   1.931   0.987
 1212TIP3   OH2 3641   2.796   3.982   4.017
 1212TIP3    H1 3642   2.704   3.990   3.992
 1212TIP3    H2 3643   2.808   3.890   4.041
 1213TIP3   OH2 3644   1.702   3.890   3.009
 1213TIP3    H1 3645   1.717   3.956   2.941
 1213TIP3    H2 3646   1.758   3.917   3.082
 1214TIP3   OH2 3647   4.255   3.572   2.554
 1214TIP3    H1 3648   4.168   3.608   2.538
 1214TIP3    H2 3649   4.306   3.646   2.587
 1215TIP3   OH2 3650   2.843   1.362   3.177
 1215TIP3    H1 3651   2.883   1.275   3.176
 1215TIP3    H2 3652   2.905   1.417   3.225
 1216TIP3   OH2 3653   5.884   2.078   0.160
 1216TIP3    H1 3654   5.885   2.105   0.251
 1216TIP3    H2 3655   5.806   2.119   0.123
 1217TIP3   OH2 3656   1.311   5.514   1.161
 1217TIP3    H1 3657   1.278   5.564   1.087
 1217TIP3    H2 3658   1.391   5.473   1.129
 1218TIP3   OH2 3659   3.586   1.450   2.777
 1218TIP3    H1 3660   3.557   1.444   2.686
 1218TIP3    H2 3661   3.520   1.402   2.826
 1219TIP3   OH2 3662   5.648   5.235   0.934
 1219TIP3    H1 3663   5.710   5.167   0.957
 1219TIP3    H2 3664   5.644   5.292   1.011
 1220TIP3   OH2 3665   3.918   4.828   0.854
 1220TIP3    H1 3666   3.837   4.791   0.890
 1220TIP3    H2 3667   3.986   4.765   0.877
 1221TIP3   OH2 3668   4.723   5.285   2.325
 1221TIP3    H1 3669   4.810   5.324   2.323
 1221TIP3    H2 3670   4.738   5.191   2.330
 1222TIP3   OH2 3671   2.527   1.452   4.144
 1222TIP3    H1 3672   2.464   1.383   4.164
 1222TIP3    H2 3673   2.609   1.421   4.182
 1223TIP3   OH2 3674   1.934   5.850   4.533
 1223TIP3    H1 3675   2.003   5.844   4.467
 1223TIP3    H2 3676   1.852   5.841   4.482
 1224TIP3   OH2 3677   4.489   4.656   4.260
 1224TIP3    H1 3678   4.488   4.694   4.173
 1224TIP3    H2 3679   4.528   4.569   4.248
 1225TIP3   OH2 3680   5.271   2.642   3.863
 1225TIP3    H1 3681   5.245   2.550   3.862
 1225TIP3    H2 3682   5.224   2.681   3.790
 1226TIP3   OH2 3683   4.140   0.545   0.969
 1226TIP3    H1 3684   4.204   0.614   0.984
 1226TIP3    H2 3685   4.129   0.542   0.874
 1227TIP3   OH2 3686   4.146   1.399   1.262
 1227TIP3    H1 3687   4.240   1.389   1.277
 1227TIP3    H2 3688   4.138   1.468   1.196
 1228TIP3   OH2 3689   0.315   3.193   2.297
 1228TIP3    H1 3690   0.277   3.264   2.247
 1228TIP3    H2 3691   0.292   3.114   2.249
 1229TIP3   OH2 3692   4.269   0.522   1.662
 1229TIP3    H1 3693   4.223   0.578   1.598
 1229TIP3    H2 3694   4.258   0.433   1.628
 1230TIP3   OH2 3695   4.690   4.185   2.888
 1230TIP3    H1 3696   4.763   4.182   2.826
 1230TIP3    H2 3697   4.662   4.094   2.897
 1231TIP3   OH2 3698   2.726   1.071   2.760
 1231TIP3    H1 3699   2.711   1.002   2.825
 1231TIP3    H2 3700   2.796   1.124   2.796
 1232TIP3   OH2 3701   1.267   0.544   3.617
 1232TIP3    H1 3702   1.244   0.523   3.527
 1232TIP3    H2 3703   1.275   0.639   3.619
 1233TIP3   OH2 3704   6.066   3.475   0.287
 1233TIP3    H1 3705   6.079   3.395   0.236
 1233TIP3    H2 3706   6.084   3.546   0.224
 1234TIP3   OH2 3707   3.386   4.317   4.279
 1234TIP3    H1 3708   3.330   4.245   4.249
 1234TIP3    H2 3709   3.335   4.396   4.260
 1235TIP3   OH2 3710   5.521   1.500   5.067
 1235TIP3    H1 3711   5.554   1.552   5.140
 1235TIP3    H2 3712   5.493   1.418   5.107
 1236TIP3   OH2 3713   2.320   2.564   2.165
 1236TIP3    H1 3714   2.400   2.579   2.217
 1236TIP3    H2 3715   2.342   2.490   2.109
 1237TIP3   OH2 3716   4.721   2.726   0.556
 1237TIP3    H1 3717   4.800   2.684   0.521
 1237TIP3    H2 3718   4.755   2.800   0.608
 1238TIP3   OH2 3719   3.659   1.429   0.585
 1238TIP3    H1 3720   3.648   1.360   0.520
 1238TIP3    H2 3721   3.753   1.447   0.585
 1239TIP3   OH2 3722   3.475   0.842   1.652
 1239TIP3    H1 3723   3.412   0.841   1.580
 1239TIP3    H2 3724   3.502   0.751   1.662
 1240TIP3   OH2 3725   1.512   5.630   3.532
 1240TIP3    H1 3726   1.448   5.672   3.589
 1240TIP3    H2 3727   1.594   5.633   3.583
 1241TIP3   OH2 3728   4.735   1.984   2.579
 1241TIP3    H1 3729   4.772   1.897   2.560
 1241TIP3    H2 3730   4.674   2.000   2.507
 1242TIP3   OH2 3731   2.778   1.508   1.327
 1242TIP3    H1 3732   2.763   1.476   1.416
 1242TIP3    H2 3733   2.690   1.519   1.291
 1243TIP3   OH2 3734   1.969   1.455   0.160
 1243TIP3    H1 3735   1.877   1.459   0.188
 1243TIP3    H2 3736   2.017   1.504   0.226
 1244TIP3   OH2 3737   3.760   2.775   2.188
 1244TIP3    H1 3738   3.746   2.801   2.097
 1244TIP3    H2 3739   3.838   2.823   2.215
 1245TIP3   OH2 3740   2.506   1.835   0.862
 1245TIP3    H1 3741   2.460   1.756   0.888
 1245TIP3    H2 3742   2.599   1.813   0.867
 1246TIP3   OH2 3743   0.054   4.357   0.236
 1246TIP3    H1 3744   0.032   4.295   0.166
 1246TIP3    H2 3745  -0.007   4.336   0.307
 1247TIP3   OH2 3746   4.150   3.246   5.157
 1247TIP3    H1 3747   4.138   3.171   5.098
 1247TIP3    H2 3748   4.194   3.312   5.103
 1248TIP3   OH2 3749   3.846   3.457   4.283
 1248TIP3    H1 3750   3.888   3.482   4.200
 1248TIP3    H2 3751   3.828   3.540   4.326
 1249TIP3   OH2 3752   5.923   3.508   1.163
 1249TIP3    H1 3753   6.003   3.560   1.157
 1249TIP3    H2 3754   5.924   3.472   1.252
 1250TIP3   OH2 3755   0.725   0.127   4.925
 1250TIP3    H1 3756   0.734   0.169   4.839
 1250TIP3    H2 3757   0.803   0.152   4.973
 1251TIP3   OH2 3758   4.667   1.073   3.683
 1251TIP3    H1 3759   4.593   1.134   3.677
 1251TIP3    H2 3760   4.668   1.047   3.775
 1252TIP3   OH2 3761   3.593   0.796   1.207
 1252TIP3    H1 3762   3.686   0.813   1.193
 1252TIP3    H2 3763   3.556   0.881   1.232
 1253TIP3   OH2 3764   1.951   1.794   0.516
 1253TIP3    H1 3765   1.873   1.826   0.471
 1253TIP3    H2 3766   1.991   1.873   0.554
 1254TIP3   OH2 3767   1.766   5.622   3.631
 1254TIP3    H1 3768   1.812   5.549   3.591
 1254TIP3    H2 3769   1.783   5.612   3.725
 1255TIP3   OH2 3770   1.126   2.180   2.277
 1255TIP3    H1 3771   1.078   2.213   2.353
 1255TIP3    H2 3772   1.088   2.094   2.260
 1256TIP3   OH2 3773   2.377   0.262   4.984
 1256TIP3    H1 3774   2.451   0.303   4.939
 1256TIP3    H2 3775   2.310   0.251   4.916
 1257TIP3   OH2 3776   2.253   3.279   1.593
 1257TIP3    H1 3777   2.259   3.265   1.498
 1257TIP3    H2 3778   2.309   3.354   1.610
 1258TIP3   OH2 3779   0.088   3.781   4.002
 1258TIP3    H1 3780   0.166   3.819   4.044
 1258TIP3    H2 3781   0.124   3.717   3.940
 1259TIP3   OH2 3782   4.499   5.308   0.164
 1259TIP3    H1 3783   4.483   5.216   0.143
 1259TIP3    H2 3784   4.593   5.313   0.181
 1260TIP3   OH2 3785   5.471   0.190   1.113
 1260TIP3    H1 3786   5.487   0.122   1.047
 1260TIP3    H2 3787   5.417   0.254   1.067
 1261TIP3   OH2 3788   2.424   4.339   3.226
 1261TIP3    H1 3789   2.338   4.355   3.186
 1261TIP3    H2 3790   2.409   4.353   3.320
 1262TIP3   OH2 3791   0.665   1.101   1.414
 1262TIP3    H1 3792   0.650   1.117   1.507
 1262TIP3    H2 3793   0.629   1.178   1.370
 1263TIP3   OH2 3794   5.190   3.289   2.528
 1263TIP3    H1 3795   5.122   3.221   2.525
 1263TIP3    H2 3796   5.196   3.313   2.620
 1264TIP3   OH2 3797   1.545   0.882   1.790
 1264TIP3    H1 3798   1.508   0.852   1.707
 1264TIP3    H2 3799   1.567   0.974   1.774
 1265TIP3   OH2 3800   1.553   4.172   4.486
 1265TIP3    H1 3801   1.466   4.209   4.471
 1265TIP3    H2 3802   1.537   4.083   4.517
 1266TIP3   OH2 3803   0.982   4.454   0.372
 1266TIP3    H1 3804   1.053   4.437   0.311
 1266TIP3    H2 3805   0.973   4.549   0.373
 1267TIP3   OH2 3806   0.199   2.969   0.227
 1267TIP3    H1 3807   0.194   3.047   0.172
 1267TIP3    H2 3808   0.293   2.953   0.237
 1268TIP3   OH2 3809   1.300   2.299   3.577
 1268TIP3    H1 3810   1.298   2.365   3.508
 1268TIP3    H2 3811   1.361   2.233   3.545
 1269TIP3   OH2 3812   5.431   3.672   0.141
 1269TIP3    H1 3813   5.392   3.759   0.136
 1269TIP3    H2 3814   5.485   3.674   0.220
 1270TIP3   OH2 3815   6.064   3.281   0.969
 1270TIP3    H1 3816   6.091   3.269   1.060
 1270TIP3    H2 3817   6.014   3.202   0.948
 1271TIP3   OH2 3818   1.731   3.462   4.427
 1271TIP3    H1 3819   1.723   3.413   4.345
 1271TIP3    H2 3820   1.670   3.419   4.487
 1272TIP3   OH2 3821   1.915   5.805   1.052
 1272TIP3    H1 3822   1.906   5.833   0.961
 1272TIP3    H2 3823   2.003   5.767   1.057
 1273TIP3   OH2 3824   3.857   5.705   2.504
 1273TIP3    H1 3825   3.918   5.733   2.436
 1273TIP3    H2 3826   3.896   5.625   2.540
 1274TIP3   OH2 3827   5.123   5.914   1.419
 1274TIP3    H1 3828   5.218   5.923   1.413
 1274TIP3    H2 3829   5.098   5.869   1.338
 1275TIP3   OH2 3830   1.096   5.678   3.119
 1275TIP3    H1 3831   1.025   5.684   3.184
 1275TIP3    H2 3832   1.067   5.736   3.048
 1276TIP3   OH2 3833   2.987   3.003   3.400
 1276TIP3    H1 3834   2.926   2.947   3.351
 1276TIP3    H2 3835   2.935   3.037   3.473
 1277TIP3   OH2 3836   1.249   0.808   4.813
 1277TIP3    H1 3837   1.264   0.860   4.734
 1277TIP3    H2 3838   1.336   0.797   4.851
 1278TIP3   OH2 3839   5.605   1.511   2.403
 1278TIP3    H1 3840   5.584   1.432   2.354
 1278TIP3    H2 3841   5.548   1.508   2.480
 1279TIP3   OH2 3842   0.602   4.534   3.801
 1279TIP3    H1 3843   0.621   4.459   3.857
 1279TIP3    H2 3844   0.510   4.523   3.777
 1280TIP3   OH2 3845   2.192   4.556   0.818
 1280TIP3    H1 3846   2.167   4.515   0.901
 1280TIP3    H2 3847   2.110   4.585   0.780
 1281TIP3   OH2 3848   5.608   1.110   3.591
 1281TIP3    H1 3849   5.662   1.180   3.553
 1281TIP3    H2 3850   5.599   1.135   3.683
 1282TIP3   OH2 3851   2.354   3.466   2.053
 1282TIP3    H1 3852   2.293   3.407   2.097
 1282TIP3    H2 3853   2.439   3.420   2.057
 1283TIP3   OH2 3854   6.290   1.815   1.074
 1283TIP3    H1 3855   6.323   1.865   1.149
 1283TIP3    H2 3856   6.361   1.816   1.011
 1284TIP3   OH2 3857   5.242   1.262   0.805
 1284TIP3    H1 3858   5.326   1.269   0.850
 1284TIP3    H2 3859   5.182   1.315   0.858
 1285TIP3   OH2 3860   0.278   0.225   0.311
 1285TIP3    H1 3861   0.223   0.219   0.233
 1285TIP3    H2 3862   0.219   0.206   0.384
 1286TIP3   OH2 3863   2.362   3.902   4.157
 1286TIP3    H1 3864   2.376   3.839   4.228
 1286TIP3    H2 3865   2.315   3.974   4.199
 1287TIP3   OH2 3866   0.820   5.979   1.004
 1287TIP3    H1 3867   0.870   5.944   1.078
 1287TIP3    H2 3868   0.750   5.916   0.990
 1288TIP3   OH2 3869   0.573   1.511   3.296
 1288TIP3    H1 3870   0.576   1.513   3.201
 1288TIP3    H2 3871   0.492   1.557   3.319
 1289TIP3   OH2 3872   5.748   4.432   2.524
 1289TIP3    H1 3873   5.686   4.370   2.485
 1289TIP3    H2 3874   5.780   4.483   2.450
 1290TIP3   OH2 3875   6.268   4.369   3.067
 1290TIP3    H1 3876   6.258   4.318   3.147
 1290TIP3    H2 3877   6.183   4.364   3.023
 1291TIP3   OH2 3878   0.227   3.374   3.141
 1291TIP3    H1 3879   0.148   3.390   3.089
 1291TIP3    H2 3880   0.239   3.279   3.139
 1292TIP3   OH2 3881   2.430   1.485   3.570
 1292TIP3    H1 3882   2.435   1.578   3.592
 1292TIP3    H2 3883   2.338   1.470   3.548
 1293TIP3   OH2 3884   0.557   1.170   1.005
 1293TIP3    H1 3885   0.651   1.187   1.017
 1293TIP3    H2 3886   0.546   1.079   1.033
 1294TIP3   OH2 3887   3.703   2.418   5.136
 1294TIP3    H1 3888   3.735   2.333   5.168
 1294TIP3    H2 3889   3.779   2.476   5.143
 1295TIP3   OH2 3890   3.921   4.082   3.040
 1295TIP3    H1 3891   4.001   4.120   3.004
 1295TIP3    H2 3892   3.860   4.081   2.966
 1296TIP3   OH2 3893   1.631   3.214   2.319
 1296TIP3    H1 3894   1.588   3.244   2.399
 1296TIP3    H2 3895   1.657   3.124   2.338
 1297TIP3   OH2 3896   4.658   2.367   1.221
 1297TIP3    H1 3897   4.725   2.302   1.201
 1297TIP3    H2 3898   4.706   2.440   1.260
 1298TIP3   OH2 3899   6.019   3.251   2.719
 1298TIP3    H1 3900   5.961   3.227   2.791
 1298TIP3    H2 3901   6.068   3.326   2.753
 1299TIP3   OH2 3902   1.797   3.889   0.597
 1299TIP3    H1 3903   1.733   3.851   0.537
 1299TIP3    H2 3904   1.857   3.817   0.618
 1300TIP3   OH2 3905   5.509   2.891   1.730
 1300TIP3    H1 3906   5.519   2.796   1.739
 1300TIP3    H2 3907   5.435   2.902   1.671
 1301TIP3   OH2 3908   1.323   4.680   3.971
 1301TIP3    H1 3909   1.280   4.687   3.886
 1301TIP3    H2 3910   1.282   4.605   4.013
 1302TIP3   OH2 3911   5.123   3.491   4.039
 1302TIP3    H1 3912   5.152   3.579   4.065
 1302TIP3    H2 3913   5.034   3.505   4.005
 1303TIP3   OH2 3914   5.196   0.245   0.012
 1303TIP3    H1 3915   5.212   0.151   0.009
 1303TIP3    H2 3916   5.191   0.265   0.105
 1304TIP3   OH2 3917   5.028   4.990   4.720
 1304TIP3    H1 3918   4.947   4.948   4.748
 1304TIP3    H2 3919   5.086   4.983   4.796
 1305TIP3   OH2 3920   2.855   1.916   0.271
 1305TIP3    H1 3921   2.815   1.962   0.345
 1305TIP3    H2 3922   2.885   1.986   0.213
 1306TIP3   OH2 3923   0.795   2.809   1.693
 1306TIP3    H1 3924   0.823   2.860   1.769
 1306TIP3    H2 3925   0.742   2.739   1.730
 1307TIP3   OH2 3926   5.549   1.901   3.471
 1307TIP3    H1 3927   5.586   1.970   3.415
 1307TIP3    H2 3928   5.488   1.947   3.528
 1308TIP3   OH2 3929   2.534   5.221   1.362
 1308TIP3    H1 3930   2.623   5.255   1.368
 1308TIP3    H2 3931   2.519   5.179   1.447
 1309TIP3   OH2 3932   5.942   5.688   4.779
 1309TIP3    H1 3933   5.865   5.640   4.809
 1309TIP3    H2 3934   6.002   5.688   4.854
 1310TIP3   OH2 3935   2.952   0.308   0.255
 1310TIP3    H1 3936   3.022   0.373   0.263
 1310TIP3    H2 3937   2.960   0.254   0.334
 1311TIP3   OH2 3938   4.673   4.540   1.822
 1311TIP3    H1 3939   4.684   4.452   1.859
 1311TIP3    H2 3940   4.684   4.528   1.728
 1312TIP3   OH2 3941   0.678   5.197   3.425
 1312TIP3    H1 3942   0.640   5.119   3.465
 1312TIP3    H2 3943   0.605   5.257   3.415
 1313TIP3   OH2 3944   4.956   3.112   3.781
 1313TIP3    H1 3945   4.931   3.143   3.693
 1313TIP3    H2 3946   5.045   3.078   3.770
 1314TIP3   OH2 3947   2.769   2.248   3.945
 1314TIP3    H1 3948   2.744   2.289   3.863
 1314TIP3    H2 3949   2.692   2.200   3.973
 1315TIP3   OH2 3950   2.354   5.169   3.314
 1315TIP3    H1 3951   2.312   5.169   3.400
 1315TIP3    H2 3952   2.283   5.192   3.254
 1316TIP3   OH2 3953   4.235   4.659   3.158
 1316TIP3    H1 3954   4.286   4.580   3.173
 1316TIP3    H2 3955   4.269   4.696   3.077
 1317TIP3   OH2 3956   5.801   0.909   4.576
 1317TIP3    H1 3957   5.858   0.978   4.542
 1317TIP3    H2 3958   5.848   0.828   4.559
 1318TIP3   OH2 3959   5.252   3.935   4.552
 1318TIP3    H1 3960   5.172   3.964   4.507
 1318TIP3    H2 3961   5.220   3.874   4.618
 1319TIP3   OH2 3962   1.932   4.786   1.398
 1319TIP3    H1 3963   1.962   4.771   1.309
 1319TIP3    H2 3964   1.958   4.876   1.418
 1320TIP3   OH2 3965   5.733   4.568   4.357
 1320TIP3    H1 3966   5.675   4.557   4.433
 1320TIP3    H2 3967   5.688   4.524   4.286
 1321TIP3   OH2 3968   1.204   2.470   0.285
 1321TIP3    H1 3969   1.138   2.404   0.264
 1321TIP3    H2 3970   1.286   2.434   0.250
 1322TIP3   OH2 3971   5.959   1.185   2.921
 1322TIP3    H1 3972   5.892   1.183   2.989
 1322TIP3    H2 3973   5.950   1.271   2.880
 1323TIP3   OH2 3974   0.917   5.769   3.302
 1323TIP3    H1 3975   0.899   5.710   3.374
 1323TIP3    H2 3976   0.985   5.828   3.335
 1324TIP3   OH2 3977   3.122   0.722   3.540
 1324TIP3    H1 3978   3.087   0.751   3.624
 1324TIP3    H2 3979   3.131   0.803   3.489
 1325TIP3   OH2 3980   3.313   5.976   0.754
 1325TIP3    H1 3981   3.218   5.966   0.751
 1325TIP3    H2 3982   3.334   5.975   0.847
 1326TIP3   OH2 3983   3.240   3.371   3.349
 1326TIP3    H1 3984   3.200   3.290   3.317
 1326TIP3    H2 3985   3.170   3.415   3.397
 1327TIP3   OH2 3986   5.588   1.678   2.156
 1327TIP3    H1 3987   5.574   1.619   2.231
 1327TIP3    H2 3988   5.551   1.762   2.184
 1328TIP3   OH2 3989   5.290   0.546   2.581
 1328TIP3    H1 3990   5.268   0.546   2.675
 1328TIP3    H2 3991   5.262   0.461   2.550
 1329TIP3   OH2 3992   1.057   0.935   1.017
 1329TIP3    H1 3993   1.056   0.969   1.106
 1329TIP3    H2 3994   1.042   1.012   0.962
 1330TIP3   OH2 3995   4.204   0.160   0.722
 1330TIP3    H1 3996   4.137   0.096   0.697
 1330TIP3    H2 3997   4.235   0.196   0.639
 1331TIP3   OH2 3998   4.985   1.792   0.103
 1331TIP3    H1 3999   4.952   1.724   0.162
 1331TIP3    H2 4000   4.907   1.824   0.058
 1332TIP3   OH2 4001   3.903   4.442   1.304
 1332TIP3    H1 4002   3.948   4.522   1.328
 1332TIP3    H2 4003   3.835   4.431   1.371
 1333TIP3   OH2 4004   5.689   0.922   1.014
 1333TIP3    H1 4005   5.733   0.942   0.931
 1333TIP3    H2 4006   5.702   1.001   1.067
 1334TIP3   OH2 4007   5.225   4.681  -0.020
 1334TIP3    H1 4008   5.254   4.748   0.041
 1334TIP3    H2 4009   5.263   4.600   0.013
 1335TIP3   OH2 4010   5.959   0.495   2.116
 1335TIP3    H1 4011   5.944   0.583   2.150
 1335TIP3    H2 4012   6.005   0.449   2.188
 1336TIP3   OH2 4013   4.661   5.387   1.960
 1336TIP3    H1 4014   4.590   5.445   1.988
 1336TIP3    H2 4015   4.678   5.331   2.036
 1337TIP3   OH2 4016   1.423   1.413   3.515
 1337TIP3    H1 4017   1.446   1.330   3.475
 1337TIP3    H2 4018   1.352   1.391   3.576
 1338TIP3   OH2 4019   6.298   0.158   2.474
 1338TIP3    H1 4020   6.324   0.132   2.386
 1338TIP3    H2 4021   6.362   0.114   2.531
 1339TIP3   OH2 4022   3.775   0.876   1.621
 1339TIP3    H1 4023   3.681   0.888   1.605
 1339TIP3    H2 4024   3.782   0.786   1.653
 1340TIP3   OH2 4025   4.490   0.454   2.162
 1340TIP3    H1 4026   4.493   0.362   2.186
 1340TIP3    H2 4027   4.439   0.457   2.081
 1341TIP3   OH2 4028   1.112   0.957   3.450
 1341TIP3    H1 4029   1.083   0.923   3.535
 1341TIP3    H2 4030   1.175   0.892   3.418
 1342TIP3   OH2 4031   4.700   4.480   3.270
 1342TIP3    H1 4032   4.692   4.470   3.175
 1342TIP3    H2 4033   4.738   4.397   3.299
 1343TIP3   OH2 4034   1.921   3.469   3.051
 1343TIP3    H1 4035   1.971   3.475   2.969
 1343TIP3    H2 4036   1.944   3.383   3.086
 1344TIP3   OH2 4037   3.829   2.225   0.817
 1344TIP3    H1 4038   3.762   2.289   0.794
 1344TIP3    H2 4039   3.902   2.245   0.758
 1345TIP3   OH2 4040   2.187   0.777   3.454
 1345TIP3    H1 4041   2.282   0.775   3.446
 1345TIP3    H2 4042   2.163   0.868   3.436
 1346TIP3   OH2 4043   5.306   2.112   4.316
 1346TIP3    H1 4044   5.378   2.165   4.351
 1346TIP3    H2 4045   5.289   2.148   4.229
 1347TIP3   OH2 4046   1.620   2.553   0.310
 1347TIP3    H1 4047   1.699   2.579   0.262
 1347TIP3    H2 4048   1.621   2.608   0.388
 1348TIP3   OH2 4049   5.536   3.925   1.184
 1348TIP3    H1 4050   5.524   3.866   1.110
 1348TIP3    H2 4051   5.466   3.989   1.177
 1349TIP3   OH2 4052   3.260   3.509   3.997
 1349TIP3    H1 4053   3.214   3.570   4.056
 1349TIP3    H2 4054   3.199   3.437   3.985
 1350TIP3   OH2 4055   3.649   5.049   0.891
 1350TIP3    H1 4056   3.727   5.006   0.856
 1350TIP3    H2 4057   3.597   5.072   0.814
 1351TIP3   OH2 4058   4.923   0.679   0.784
 1351TIP3    H1 4059   4.910   0.585   0.776
 1351TIP3    H2 4060   4.914   0.697   0.878
 1352TIP3   OH2 4061   4.343   5.073   1.025
 1352TIP3    H1 4062   4.354   5.145   0.963
 1352TIP3    H2 4063   4.432   5.040   1.040
 1353TIP3   OH2 4064   5.400   5.192   2.204
 1353TIP3    H1 4065   5.469   5.245   2.164
 1353TIP3    H2 4066   5.407   5.106   2.162
 1354TIP3   OH2 4067   2.107   3.308   3.725
 1354TIP3    H1 4068   2.154   3.386   3.696
 1354TIP3    H2 4069   2.092   3.258   3.644
 1355TIP3   OH2 4070   3.936   0.544   0.374
 1355TIP3    H1 4071   3.860   0.560   0.429
 1355TIP3    H2 4072   3.900   0.520   0.289
 1356TIP3   OH2 4073   1.643   4.556   3.117
 1356TIP3    H1 4074   1.559   4.569   3.072
 1356TIP3    H2 4075   1.708   4.554   3.047
 1357TIP3   OH2 4076   3.879   2.287   2.659
 1357TIP3    H1 4077   3.938   2.212   2.662
 1357TIP3    H2 4078   3.794   2.252   2.686
 1358TIP3   OH2 4079   4.949   2.147   4.249
 1358TIP3    H1 4080   5.016   2.121   4.186
 1358TIP3    H2 4081   4.983   2.227   4.289
 1359TIP3   OH2 4082   3.829   1.896   3.226
 1359TIP3    H1 4083   3.775   1.944   3.289
 1359TIP3    H2 4084   3.784   1.905   3.143
 1360TIP3   OH2 4085   3.204   4.789   4.649
 1360TIP3    H1 4086   3.129   4.754   4.601
 1360TIP3    H2 4087   3.178   4.877   4.675
 1361TIP3   OH2 4088   5.321   1.577   0.398
 1361TIP3    H1 4089   5.357   1.534   0.321
 1361TIP3    H2 4090   5.352   1.524   0.472
 1362TIP3   OH2 4091   5.798   4.026   2.808
 1362TIP3    H1 4092   5.852   3.948   2.797
 1362TIP3    H2 4093   5.716   4.004   2.762
 1363TIP3   OH2 4094   5.065   3.882   0.711
 1363TIP3    H1 4095   5.063   3.791   0.739
 1363TIP3    H2 4096   5.084   3.878   0.617
 1364TIP3   OH2 4097   4.162   5.303   2.128
 1364TIP3    H1 4098   4.192   5.316   2.218
 1364TIP3    H2 4099   4.068   5.320   2.132
 1365TIP3   OH2 4100   3.067   4.041   3.698
 1365TIP3    H1 4101   2.992   3.986   3.718
 1365TIP3    H2 4102   3.046   4.079   3.612
 1366TIP3   OH2 4103   5.238   1.779   5.219
 1366TIP3    H1 4104   5.286   1.811   5.143
 1366TIP3    H2 4105   5.244   1.684   5.213
 1367TIP3   OH2 4106   1.318   3.351   4.997
 1367TIP3    H1 4107   1.250   3.391   5.051
 1367TIP3    H2 4108   1.341   3.269   5.041
 1368TIP3   OH2 4109   6.145   5.969   3.917
 1368TIP3    H1 4110   6.097   6.038   3.870
 1368TIP3    H2 4111   6.077   5.905   3.941
 1369TIP3   OH2 4112   3.353   5.636   1.428
 1369TIP3    H1 4113   3.291   5.689   1.379
 1369TIP3    H2 4114   3.312   5.621   1.513
 1370TIP3   OH2 4115   3.865   3.030   4.737
 1370TIP3    H1 4116   3.770   3.041   4.738
 1370TIP3    H2 4117   3.900   3.117   4.719
 1371TIP3   OH2 4118   3.032   2.026   0.786
 1371TIP3    H1 4119   3.001   2.089   0.720
 1371TIP3    H2 4120   3.121   2.005   0.759
 1372TIP3   OH2 4121   2.479   3.612   1.542
 1372TIP3    H1 4122   2.466   3.595   1.636
 1372TIP3    H2 4123   2.498   3.527   1.504
 1373TIP3   OH2 4124   0.372   5.837   1.177
 1373TIP3    H1 4125   0.381   5.921   1.132
 1373TIP3    H2 4126   0.452   5.790   1.153
 1374TIP3   OH2 4127   4.379   0.629   2.771
 1374TIP3    H1 4128   4.438   0.554   2.777
 1374TIP3    H2 4129   4.379   0.653   2.679
 1375TIP3   OH2 4130   2.129   2.916   3.579
 1375TIP3    H1 4131   2.128   2.989   3.517
 1375TIP3    H2 4132   2.199   2.938   3.641
 1376TIP3   OH2 4133   3.965   0.172   2.518
 1376TIP3    H1 4134   4.013   0.183   2.600
 1376TIP3    H2 4135   3.900   0.103   2.537
 1377TIP3   OH2 4136   3.410   4.531   1.474
 1377TIP3    H1 4137   3.316   4.516   1.467
 1377TIP3    H2 4138   3.436   4.566   1.389
 1378TIP3   OH2 4139   3.401   5.141   2.435
 1378TIP3    H1 4140   3.316   5.164   2.471
 1378TIP3    H2 4141   3.387   5.138   2.340
 1379TIP3   OH2 4142   1.647   4.568   4.457
 1379TIP3    H1 4143   1.736   4.596   4.436
 1379TIP3    H2 4144   1.650   4.543   4.549
 1380TIP3   OH2 4145   3.544   2.588   3.519
 1380TIP3    H1 4146   3.484   2.543   3.579
 1380TIP3    H2 4147   3.629   2.586   3.563
 1381TIP3   OH2 4148   4.666   0.115   0.211
 1381TIP3    H1 4149   4.740   0.055   0.216
 1381TIP3    H2 4150   4.649   0.140   0.302
 1382TIP3   OH2 4151   1.681   4.366   3.883
 1382TIP3    H1 4152   1.711   4.281   3.849
 1382TIP3    H2 4153   1.672   4.421   3.805
 1383TIP3   OH2 4154   1.005   1.855   4.513
 1383TIP3    H1 4155   0.953   1.822   4.586
 1383TIP3    H2 4156   1.014   1.949   4.531
 1384TIP3   OH2 4157   1.083   5.924   0.233
 1384TIP3    H1 4158   1.142   5.996   0.213
 1384TIP3    H2 4159   1.083   5.919   0.329
 1385TIP3   OH2 4160   5.848   2.530   3.353
 1385TIP3    H1 4161   5.878   2.621   3.343
 1385TIP3    H2 4162   5.849   2.516   3.448
 1386TIP3   OH2 4163   2.230   2.321   3.565
 1386TIP3    H1 4164   2.159   2.353   3.621
 1386TIP3    H2 4165   2.269   2.401   3.530
 1387TIP3   OH2 4166   3.977   2.116   3.489
 1387TIP3    H1 4167   4.026   2.116   3.571
 1387TIP3    H2 4168   4.033   2.066   3.429
 1388TIP3   OH2 4169   1.165   0.753   1.990
 1388TIP3    H1 4170   1.159   0.660   2.012
 1388TIP3    H2 4171   1.132   0.798   2.068
 1389TIP3   OH2 4172   0.867   3.264   0.694
 1389TIP3    H1 4173   0.930   3.229   0.631
 1389TIP3    H2 4174   0.837   3.346   0.655
 1390TIP3   OH2 4175   3.700   4.687   1.985
 1390TIP3    H1 4176   3.616   4.644   1.972
 1390TIP3    H2 4177   3.734   4.700   1.897
 1391TIP3   OH2 4178   3.465   2.039   1.429
 1391TIP3    H1 4179   3.371   2.026   1.410
 1391TIP3    H2 4180   3.509   1.970   1.378
 1392TIP3   OH2 4181   0.387   0.240   4.201
 1392TIP3    H1 4182   0.353   0.204   4.283
 1392TIP3    H2 4183   0.440   0.315   4.228
 1393TIP3   OH2 4184   0.229   1.697   0.635
 1393TIP3    H1 4185   0.233   1.605   0.611
 1393TIP3    H2 4186   0.136   1.714   0.651
 1394TIP3   OH2 4187   0.040   0.838   0.349
 1394TIP3    H1 4188   0.055   0.861   0.258
 1394TIP3    H2 4189   0.015   0.746   0.348
 1395TIP3   OH2 4190   4.848   1.873   2.090
 1395TIP3    H1 4191   4.900   1.936   2.140
 1395TIP3    H2 4192   4.832   1.801   2.151
 1396TIP3   OH2 4193   2.584   5.226   0.427
 1396TIP3    H1 4194   2.497   5.189   0.416
 1396TIP3    H2 4195   2.626   5.216   0.342
 1397TIP3   OH2 4196   2.473   4.616   0.527
 1397TIP3    H1 4197   2.421   4.538   0.506
 1397TIP3    H2 4198   2.561   4.594   0.497
 1398TIP3   OH2 4199   1.463   2.227   3.940
 1398TIP3    H1 4200   1.436   2.153   3.994
 1398TIP3    H2 4201   1.381   2.270   3.915
 1399TIP3   OH2 4202   0.599   0.379   3.008
 1399TIP3    H1 4203   0.546   0.440   3.060
 1399TIP3    H2 4204   0.606   0.421   2.922
 1400TIP3   OH2 4205   6.220   2.625   0.606
 1400TIP3    H1 4206   6.170   2.549   0.634
 1400TIP3    H2 4207   6.261   2.657   0.686
 1401TIP3   OH2 4208   0.972   1.532   1.632
 1401TIP3    H1 4209   1.024   1.467   1.678
 1401TIP3    H2 4210   0.882   1.515   1.659
 1402TIP3   OH2 4211   6.113   4.051   0.816
 1402TIP3    H1 4212   6.198   4.008   0.807
 1402TIP3    H2 4213   6.123   4.133   0.767
 1403TIP3   OH2 4214   2.755   5.127   1.542
 1403TIP3    H1 4215   2.756   5.222   1.533
 1403TIP3    H2 4216   2.682   5.109   1.601
 1404TIP3   OH2 4217   2.892   4.242   4.036
 1404TIP3    H1 4218   2.966   4.221   3.980
 1404TIP3    H2 4219   2.835   4.165   4.030
 1405TIP3   OH2 4220   5.937   0.339   3.996
 1405TIP3    H1 4221   5.869   0.357   3.931
 1405TIP3    H2 4222   5.992   0.418   3.994
 1406TIP3   OH2 4223   0.063   0.653   1.041
 1406TIP3    H1 4224   0.144   0.602   1.051
 1406TIP3    H2 4225   0.063   0.713   1.116
 1407TIP3   OH2 4226   3.717   2.723   5.157
 1407TIP3    H1 4227   3.668   2.675   5.090
 1407TIP3    H2 4228   3.797   2.751   5.113
 1408TIP3   OH2 4229   1.154   2.039   4.833
 1408TIP3    H1 4230   1.174   1.954   4.872
 1408TIP3    H2 4231   1.168   2.101   4.905
 1409TIP3   OH2 4232   1.184   5.374   2.480
 1409TIP3    H1 4233   1.133   5.384   2.400
 1409TIP3    H2 4234   1.118   5.358   2.548
 1410TIP3   OH2 4235   3.590   3.846   2.641
 1410TIP3    H1 4236   3.594   3.879   2.552
 1410TIP3    H2 4237   3.530   3.771   2.636
 1411TIP3   OH2 4238   4.320   5.734   4.467
 1411TIP3    H1 4239   4.370   5.786   4.404
 1411TIP3    H2 4240   4.347   5.644   4.451
 1412TIP3   OH2 4241   4.045   5.793   3.042
 1412TIP3    H1 4242   3.959   5.833   3.054
 1412TIP3    H2 4243   4.073   5.820   2.955
 1413TIP3   OH2 4244   1.879   3.193   0.188
 1413TIP3    H1 4245   1.843   3.191   0.276
 1413TIP3    H2 4246   1.819   3.138   0.137
 1414TIP3   OH2 4247   1.878   4.212   0.899
 1414TIP3    H1 4248   1.890   4.178   0.810
 1414TIP3    H2 4249   1.789   4.248   0.899
 1415TIP3   OH2 4250   0.597   3.631   3.308
 1415TIP3    H1 4251   0.506   3.661   3.300
 1415TIP3    H2 4252   0.631   3.681   3.382
 1416TIP3   OH2 4253   2.416   3.699   3.413
 1416TIP3    H1 4254   2.479   3.703   3.341
 1416TIP3    H2 4255   2.467   3.666   3.487
 1417TIP3   OH2 4256   4.380   3.766   0.801
 1417TIP3    H1 4257   4.395   3.860   0.802
 1417TIP3    H2 4258   4.461   3.730   0.763
 1418TIP3   OH2 4259   1.192   5.370   4.257
 1418TIP3    H1 4260   1.178   5.432   4.329
 1418TIP3    H2 4261   1.286   5.351   4.261
 1419TIP3   OH2 4262   3.924   5.076   0.474
 1419TIP3    H1 4263   3.974   5.022   0.535
 1419TIP3    H2 4264   3.889   5.147   0.528
 1420TIP3   OH2 4265   0.410   4.662   0.278
 1420TIP3    H1 4266   0.366   4.721   0.216
 1420TIP3    H2 4267   0.369   4.682   0.363
 1421TIP3   OH2 4268   0.936   0.157   0.433
 1421TIP3    H1 4269   0.882   0.162   0.512
 1421TIP3    H2 4270   0.891   0.213   0.370
 1422TIP3   OH2 4271   5.963   4.273   1.752
 1422TIP3    H1 4272   5.902   4.301   1.683
 1422TIP3    H2 4273   6.018   4.350   1.768
 1423TIP3   OH2 4274   4.568   2.396   1.526
 1423TIP3    H1 4275   4.551   2.483   1.491
 1423TIP3    H2 4276   4.589   2.342   1.450
 1424TIP3   OH2 4277   1.323   0.249   3.532
 1424TIP3    H1 4278   1.237   0.220   3.562
 1424TIP3    H2 4279   1.310   0.341   3.509
 1425TIP3   OH2 4280   1.891   2.070   2.450
 1425TIP3    H1 4281   1.843   2.110   2.379
 1425TIP3    H2 4282   1.967   2.126   2.463
 1426TIP3   OH2 4283   0.880   1.545   3.152
 1426TIP3    H1 4284   0.786   1.554   3.132
 1426TIP3    H2 4285   0.923   1.607   3.093
 1427TIP3   OH2 4286   4.682   2.954   2.530
 1427TIP3    H1 4287   4.604   2.988   2.487
 1427TIP3    H2 4288   4.712   2.882   2.475
 1428TIP3   OH2 4289   3.733   4.941   3.062
 1428TIP3    H1 4290   3.789   5.017   3.044
 1428TIP3    H2 4291   3.712   4.905   2.976
 1429TIP3   OH2 4292   0.267   3.369   4.094
 1429TIP3    H1 4293   0.238   3.300   4.036
 1429TIP3    H2 4294   0.357   3.388   4.067
 1430TIP3   OH2 4295   4.447   2.326   2.974
 1430TIP3    H1 4296   4.517   2.388   2.993
 1430TIP3    H2 4297   4.479   2.275   2.899
 1431TIP3   OH2 4298   0.084   4.349   3.387
 1431TIP3    H1 4299   0.094   4.305   3.471
 1431TIP3    H2 4300   0.134   4.429   3.396
 1432TIP3   OH2 4301   5.338   3.000   4.885
 1432TIP3    H1 4302   5.345   2.959   4.799
 1432TIP3    H2 4303   5.363   2.931   4.947
 1433TIP3   OH2 4304   2.600   0.356   2.507
 1433TIP3    H1 4305   2.558   0.437   2.478
 1433TIP3    H2 4306   2.529   0.304   2.543
 1434TIP3   OH2 4307   5.801   5.340   1.767
 1434TIP3    H1 4308   5.789   5.256   1.813
 1434TIP3    H2 4309   5.854   5.319   1.691
 1435TIP3   OH2 4310   1.749   3.665   1.023
 1435TIP3    H1 4311   1.778   3.636   1.110
 1435TIP3    H2 4312   1.830   3.690   0.979
 1436TIP3   OH2 4313   0.646   2.458   1.427
 1436TIP3    H1 4314   0.592   2.479   1.503
 1436TIP3    H2 4315   0.603   2.501   1.354
 1437TIP3   OH2 4316   2.781   5.240   1.192
 1437TIP3    H1 4317   2.706   5.218   1.137
 1437TIP3    H2 4318   2.778   5.335   1.201
 1438TIP3   OH2 4319   4.068   1.753   4.605
 1438TIP3    H1 4320   4.032   1.810   4.537
 1438TIP3    H2 4321   3.990   1.718   4.650
 1439TIP3   OH2 4322   6.328   5.054   3.500
 1439TIP3    H1 4323   6.328   5.028   3.408
 1439TIP3    H2 4324   6.256   5.117   3.507
 1440TIP3   OH2 4325   3.549   1.553   2.404
 1440TIP3    H1 4326   3.556   1.510   2.319
 1440TIP3    H2 4327   3.640   1.564   2.432
 1441TIP3   OH2 4328   4.478   4.615   1.408
 1441TIP3    H1 4329   4.519   4.675   1.470
 1441TIP3    H2 4330   4.401   4.582   1.453
 1442TIP3   OH2 4331   4.444   2.571   1.775
 1442TIP3    H1 4332   4.447   2.572   1.871
 1442TIP3    H2 4333   4.500   2.497   1.750
 1443TIP3   OH2 4334   4.658   2.391   2.195
 1443TIP3    H1 4335   4.729   2.431   2.145
 1443TIP3    H2 4336   4.688   2.302   2.213
 1444TIP3   OH2 4337   6.290   2.399   4.638
 1444TIP3    H1 4338   6.320   2.382   4.549
 1444TIP3    H2 4339   6.370   2.404   4.690
 1445TIP3   OH2 4340   4.188   5.317   0.551
 1445TIP3    H1 4341   4.239   5.335   0.472
 1445TIP3    H2 4342   4.115   5.379   0.548
 1446TIP3   OH2 4343   5.285   5.809   1.163
 1446TIP3    H1 4344   5.325   5.790   1.078
 1446TIP3    H2 4345   5.236   5.891   1.148
 1447TIP3   OH2 4346   0.394   4.872   3.678
 1447TIP3    H1 4347   0.483   4.907   3.668
 1447TIP3    H2 4348   0.359   4.868   3.589
 1448TIP3   OH2 4349   1.611   5.657   2.912
 1448TIP3    H1 4350   1.611   5.738   2.964
 1448TIP3    H2 4351   1.680   5.670   2.848
 1449TIP3   OH2 4352   3.539   5.487   5.098
 1449TIP3    H1 4353   3.612   5.452   5.046
 1449TIP3    H2 4354   3.461   5.460   5.051
 1450TIP3   OH2 4355   1.743   2.110   1.218
 1450TIP3    H1 4356   1.747   2.047   1.146
 1450TIP3    H2 4357   1.650   2.117   1.239
 1451TIP3   OH2 4358   5.823   1.675   1.723
 1451TIP3    H1 4359   5.893   1.721   1.769
 1451TIP3    H2 4360   5.749   1.678   1.783
 1452TIP3   OH2 4361   0.193   5.189   1.789
 1452TIP3    H1 4362   0.175   5.182   1.695
 1452TIP3    H2 4363   0.288   5.197   1.795
 1453TIP3   OH2 4364   5.362   1.514   4.378
 1453TIP3    H1 4365   5.448   1.506   4.420
 1453TIP3    H2 4366   5.299   1.503   4.449
 1454TIP3   OH2 4367   2.605   5.549   1.970
 1454TIP3    H1 4368   2.649   5.485   1.915
 1454TIP3    H2 4369   2.652   5.546   2.053
 1455TIP3   OH2 4370   1.767   5.774   4.805
 1455TIP3    H1 4371   1.825   5.708   4.768
 1455TIP3    H2 4372   1.777   5.850   4.747
 1456TIP3   OH2 4373   2.213   5.103   3.555
 1456TIP3    H1 4374   2.177   5.183   3.594
 1456TIP3    H2 4375   2.139   5.043   3.550
 1457TIP3   OH2 4376   6.163   4.614   0.786
 1457TIP3    H1 4377   6.253   4.608   0.755
 1457TIP3    H2 4378   6.124   4.686   0.737
 1458TIP3   OH2 4379   5.980   4.830   3.154
 1458TIP3    H1 4380   5.966   4.735   3.146
 1458TIP3    H2 4381   6.030   4.840   3.235
 1459TIP3   OH2 4382   0.880   0.694   0.186
 1459TIP3    H1 4383   0.938   0.707   0.261
 1459TIP3    H2 4384   0.920   0.620   0.139
 1460TIP3   OH2 4385   3.544   4.435   4.473
 1460TIP3    H1 4386   3.467   4.398   4.430
 1460TIP3    H2 4387   3.531   4.530   4.468
 1461TIP3   OH2 4388   4.743   1.705   0.220
 1461TIP3    H1 4389   4.653   1.686   0.194
 1461TIP3    H2 4390   4.747   1.800   0.225
 1462TIP3   OH2 4391   4.426   0.596   0.734
 1462TIP3    H1 4392   4.466   0.672   0.692
 1462TIP3    H2 4393   4.334   0.598   0.707
 1463TIP3   OH2 4394   3.376   2.837   4.004
 1463TIP3    H1 4395   3.318   2.788   3.946
 1463TIP3    H2 4396   3.382   2.923   3.964
 1464TIP3   OH2 4397   4.847   4.257   3.142
 1464TIP3    H1 4398   4.846   4.182   3.202
 1464TIP3    H2 4399   4.831   4.219   3.056
 1465TIP3   OH2 4400   4.187   4.813   0.100
 1465TIP3    H1 4401   4.142   4.861   0.031
 1465TIP3    H2 4402   4.162   4.858   0.181
 1466TIP3   OH2 4403   4.017   2.647   3.007
 1466TIP3    H1 4404   3.972   2.579   2.957
 1466TIP3    H2 4405   4.075   2.600   3.066
 1467TIP3   OH2 4406   4.080   0.720   1.564
 1467TIP3    H1 4407   4.018   0.689   1.630
 1467TIP3    H2 4408   4.085   0.815   1.578
 1468TIP3   OH2 4409   1.660   3.640   1.719
 1468TIP3    H1 4410   1.613   3.660   1.638
 1468TIP3    H2 4411   1.595   3.655   1.788
 1469TIP3   OH2 4412   3.431   1.981   3.860
 1469TIP3    H1 4413   3.524   2.001   3.850
 1469TIP3    H2 4414   3.393   2.063   3.893
 1470TIP3   OH2 4415   2.942   5.114   0.634
 1470TIP3    H1 4416   2.923   5.102   0.541
 1470TIP3    H2 4417   2.885   5.185   0.662
 1471TIP3   OH2 4418   0.184   1.430   0.236
 1471TIP3    H1 4419   0.218   1.357   0.287
 1471TIP3    H2 4420   0.120   1.472   0.294
 1472TIP3   OH2 4421   5.902   3.218   1.542
 1472TIP3    H1 4422   5.826   3.187   1.591
 1472TIP3    H2 4423   5.883   3.196   1.451
 1473TIP3   OH2 4424   5.778   3.594   3.952
 1473TIP3    H1 4425   5.850   3.554   4.000
 1473TIP3    H2 4426   5.700   3.547   3.982
 1474TIP3   OH2 4427   2.870   2.012   4.940
 1474TIP3    H1 4428   2.942   2.072   4.956
 1474TIP3    H2 4429   2.911   1.927   4.929
 1475TIP3   OH2 4430   1.798   3.273   3.580
 1475TIP3    H1 4431   1.716   3.278   3.629
 1475TIP3    H2 4432   1.827   3.183   3.591
 1476TIP3   OH2 4433   4.158   1.314   2.405
 1476TIP3    H1 4434   4.111   1.238   2.372
 1476TIP3    H2 4435   4.223   1.279   2.465
 1477TIP3   OH2 4436   1.649   3.811   2.063
 1477TIP3    H1 4437   1.588   3.883   2.080
 1477TIP3    H2 4438   1.597   3.747   2.015
 1478TIP3   OH2 4439   2.401   4.106   3.000
 1478TIP3    H1 4440   2.435   4.136   3.084
 1478TIP3    H2 4441   2.332   4.168   2.978
 1479TIP3   OH2 4442   6.246   5.611   2.323
 1479TIP3    H1 4443   6.294   5.533   2.294
 1479TIP3    H2 4444   6.245   5.668   2.246
 1480TIP3   OH2 4445   4.641   1.008   0.831
 1480TIP3    H1 4446   4.566   1.068   0.835
 1480TIP3    H2 4447   4.715   1.061   0.860
 1481TIP3   OH2 4448   4.234   3.686   1.011
 1481TIP3    H1 4449   4.291   3.672   0.935
 1481TIP3    H2 4450   4.198   3.774   0.997
 1482TIP3   OH2 4451   1.361   3.784   1.221
 1482TIP3    H1 4452   1.440   3.832   1.194
 1482TIP3    H2 4453   1.289   3.842   1.197
 1483TIP3   OH2 4454   4.399   1.662   2.598
 1483TIP3    H1 4455   4.456   1.597   2.640
 1483TIP3    H2 4456   4.420   1.744   2.643
 1484TIP3   OH2 4457   2.229   5.888   1.245
 1484TIP3    H1 4458   2.285   5.871   1.169
 1484TIP3    H2 4459   2.198   5.978   1.233
 1485TIP3   OH2 4460   0.274   3.990   2.902
 1485TIP3    H1 4461   0.304   4.053   2.837
 1485TIP3    H2 4462   0.201   4.035   2.946
 1486TIP3   OH2 4463   4.540   3.153   1.536
 1486TIP3    H1 4464   4.571   3.190   1.618
 1486TIP3    H2 4465   4.611   3.170   1.474
 1487TIP3   OH2 4466   3.780   5.632   0.602
 1487TIP3    H1 4467   3.818   5.677   0.678
 1487TIP3    H2 4468   3.721   5.567   0.640
 1488TIP3   OH2 4469   2.657   3.865   5.084
 1488TIP3    H1 4470   2.593   3.911   5.138
 1488TIP3    H2 4471   2.713   3.935   5.049
 1489TIP3   OH2 4472   3.378   2.850   1.227
 1489TIP3    H1 4473   3.407   2.761   1.209
 1489TIP3    H2 4474   3.456   2.895   1.260
 1490TIP3   OH2 4475   3.437   1.033   3.557
 1490TIP3    H1 4476   3.360   0.989   3.593
 1490TIP3    H2 4477   3.401   1.096   3.493
 1491TIP3   OH2 4478   0.335   3.133   4.426
 1491TIP3    H1 4479   0.406   3.130   4.491
 1491TIP3    H2 4480   0.281   3.058   4.447
 1492TIP3   OH2 4481   2.138   3.293   2.098
 1492TIP3    H1 4482   2.060   3.304   2.044
 1492TIP3    H2 4483   2.106   3.258   2.181
 1493TIP3   OH2 4484   0.368   1.002   0.087
 1493TIP3    H1 4485   0.392   1.061   0.159
 1493TIP3    H2 4486   0.280   0.972   0.108
 1494TIP3   OH2 4487   4.419   1.032   0.208
 1494TIP3    H1 4488   4.334   1.076   0.210
 1494TIP3    H2 4489   4.400   0.943   0.237
 1495TIP3   OH2 4490   5.914   5.285   2.599
 1495TIP3    H1 4491   5.861   5.277   2.519
 1495TIP3    H2 4492   5.935   5.195   2.623
 1496TIP3   OH2 4493   4.979   3.667   2.633
 1496TIP3    H1 4494   4.905   3.625   2.590
 1496TIP3    H2 4495   5.025   3.714   2.563
 1497TIP3   OH2 4496   2.950   0.688   4.991
 1497TIP3    H1 4497   3.029   0.704   4.939
 1497TIP3    H2 4498   2.936   0.593   4.985
 1498TIP3   OH2 4499   1.051   5.484   2.744
 1498TIP3    H1 4500   1.071   5.429   2.820
 1498TIP3    H2 4501   0.982   5.437   2.698
 1499TIP3   OH2 4502   5.551   0.160   0.560
 1499TIP3    H1 4503   5.501   0.139   0.639
 1499TIP3    H2 4504   5.491   0.139   0.488
 1500TIP3   OH2 4505   1.017   2.973   5.172
 1500TIP3    H1 4506   0.931   2.931   5.182
 1500TIP3    H2 4507   1.040   2.959   5.080
 1501TIP3   OH2 4508   2.711   3.543   1.008
 1501TIP3    H1 4509   2.764   3.466   1.031
 1501TIP3    H2 4510   2.689   3.530   0.916
 1502TIP3   OH2 4511   0.204   5.478   4.550
 1502TIP3    H1 4512   0.195   5.481   4.645
 1502TIP3    H2 4513   0.283   5.427   4.535
 1503TIP3   OH2 4514   1.949   4.089   1.969
 1503TIP3    H1 4515   1.856   4.100   1.951
 1503TIP3    H2 4516   1.967   3.998   1.946
 1504TIP3   OH2 4517   0.103   5.441   4.298
 1504TIP3    H1 4518   0.135   5.443   4.388
 1504TIP3    H2 4519   0.047   5.363   4.295
 1505TIP3   OH2 4520   2.666   2.841   0.229
 1505TIP3    H1 4521   2.748   2.867   0.187
 1505TIP3    H2 4522   2.604   2.830   0.157
 1506TIP3   OH2 4523   2.642   5.699   2.781
 1506TIP3    H1 4524   2.604   5.699   2.869
 1506TIP3    H2 4525   2.570   5.729   2.725
 1507TIP3   OH2 4526   3.025   2.341   2.067
 1507TIP3    H1 4527   3.043   2.266   2.012
 1507TIP3    H2 4528   2.985   2.304   2.146
 1508TIP3   OH2 4529   4.087   3.017   5.013
 1508TIP3    H1 4530   4.086   3.040   4.920
 1508TIP3    H2 4531   4.034   2.938   5.019
 1509TIP3   OH2 4532   2.829   4.797   4.972
 1509TIP3    H1 4533   2.831   4.778   4.878
 1509TIP3    H2 4534   2.778   4.725   5.010
 1510TIP3   OH2 4535   3.962   3.231   4.419
 1510TIP3    H1 4536   3.931   3.310   4.376
 1510TIP3    H2 4537   4.038   3.204   4.368
 1511TIP3   OH2 4538   5.959   5.147   0.031
 1511TIP3    H1 4539   5.944   5.134  -0.063
 1511TIP3    H2 4540   6.033   5.089   0.051
 1512TIP3   OH2 4541   5.184   3.825   3.906
 1512TIP3    H1 4542   5.263   3.806   3.855
 1512TIP3    H2 4543   5.207   3.801   3.996
 1513TIP3   OH2 4544   5.821   4.007   5.228
 1513TIP3    H1 4545   5.839   3.921   5.189
 1513TIP3    H2 4546   5.772   4.054   5.161
 1514TIP3   OH2 4547   2.749   2.068   2.687
 1514TIP3    H1 4548   2.836   2.072   2.727
 1514TIP3    H2 4549   2.759   2.115   2.603
 1515TIP3   OH2 4550   3.304   0.689   0.063
 1515TIP3    H1 4551   3.366   0.713  -0.005
 1515TIP3    H2 4552   3.313   0.756   0.130
 1516TIP3   OH2 4553   3.201   1.026   2.027
 1516TIP3    H1 4554   3.287   1.029   1.983
 1516TIP3    H2 4555   3.139   1.047   1.957
 1517TIP3   OH2 4556   4.510   0.097   0.813
 1517TIP3    H1 4557   4.507   0.189   0.786
 1517TIP3    H2 4558   4.600   0.069   0.794
 1518TIP3   OH2 4559   3.427   0.667   2.467
 1518TIP3    H1 4560   3.376   0.726   2.522
 1518TIP3    H2 4561   3.377   0.585   2.466
 1519TIP3   OH2 4562   1.476   3.018   1.532
 1519TIP3    H1 4563   1.489   3.020   1.627
 1519TIP3    H2 4564   1.476   2.925   1.510
 1520TIP3   OH2 4565   2.945   0.632   1.434
 1520TIP3    H1 4566   2.870   0.676   1.474
 1520TIP3    H2 4567   2.944   0.659   1.343
 1521TIP3   OH2 4568   0.483   2.114   2.152
 1521TIP3    H1 4569   0.543   2.182   2.122
 1521TIP3    H2 4570   0.396   2.145   2.125
 1522TIP3   OH2 4571   5.571   3.115   2.219
 1522TIP3    H1 4572   5.531   3.176   2.157
 1522TIP3    H2 4573   5.496   3.069   2.259
 1523TIP3   OH2 4574   4.794   3.360   2.810
 1523TIP3    H1 4575   4.718   3.303   2.798
 1523TIP3    H2 4576   4.764   3.447   2.785
 1524TIP3   OH2 4577   1.639   4.122   1.330
 1524TIP3    H1 4578   1.544   4.117   1.317
 1524TIP3    H2 4579   1.672   4.040   1.292
 1525TIP3   OH2 4580   1.247   2.744   3.772
 1525TIP3    H1 4581   1.202   2.820   3.735
 1525TIP3    H2 4582   1.315   2.781   3.828
 1526TIP3   OH2 4583   5.842   5.821   0.999
 1526TIP3    H1 4584   5.905   5.825   0.927
 1526TIP3    H2 4585   5.816   5.912   1.013
 1527TIP3   OH2 4586   3.524   3.028   0.603
 1527TIP3    H1 4587   3.615   3.042   0.578
 1527TIP3    H2 4588   3.502   2.942   0.566
 1528TIP3   OH2 4589   2.569   3.846   2.142
 1528TIP3    H1 4590   2.646   3.871   2.193
 1528TIP3    H2 4591   2.495   3.881   2.192
 1529TIP3   OH2 4592   4.815   3.523   2.407
 1529TIP3    H1 4593   4.783   3.606   2.441
 1529TIP3    H2 4594   4.743   3.462   2.422
 1530TIP3   OH2 4595   2.988   2.811   0.723
 1530TIP3    H1 4596   3.043   2.869   0.775
 1530TIP3    H2 4597   3.043   2.783   0.651
 1531TIP3   OH2 4598   1.753   4.921   5.127
 1531TIP3    H1 4599   1.823   4.975   5.091
 1531TIP3    H2 4600   1.720   4.970   5.201
 1532TIP3   OH2 4601   0.084   4.049   3.880
 1532TIP3    H1 4602   0.008   4.078   3.932
 1532TIP3    H2 4603   0.118   3.974   3.928
 1533TIP3   OH2 4604   4.213   4.556   4.031
 1533TIP3    H1 4605   4.138   4.510   4.069
 1533TIP3    H2 4606   4.198   4.648   4.051
 1534TIP3   OH2 4607   4.205   5.359   4.137
 1534TIP3    H1 4608   4.161   5.348   4.221
 1534TIP3    H2 4609   4.268   5.430   4.151
 1535TIP3   OH2 4610   5.128   3.886   5.208
 1535TIP3    H1 4611   5.108   3.957   5.269
 1535TIP3    H2 4612   5.187   3.925   5.144
 1536TIP3   OH2 4613   3.256   5.080   1.927
 1536TIP3    H1 4614   3.275   5.035   2.009
 1536TIP3    H2 4615   3.226   5.011   1.867
 1537TIP3   OH2 4616   2.168   3.182   3.494
 1537TIP3    H1 4617   2.197   3.186   3.402
 1537TIP3    H2 4618   2.244   3.148   3.541
 1538TIP3   OH2 4619   0.842   1.489   1.202
 1538TIP3    H1 4620   0.747   1.477   1.198
 1538TIP3    H2 4621   0.872   1.418   1.258
 1539TIP3   OH2 4622   1.174   2.896   3.068
 1539TIP3    H1 4623   1.140   2.807   3.060
 1539TIP3    H2 4624   1.102   2.952   3.040
 1540TIP3   OH2 4625   5.258   1.670   2.757
 1540TIP3    H1 4626   5.170   1.673   2.719
 1540TIP3    H2 4627   5.283   1.762   2.766
 1541TIP3   OH2 4628   5.519   4.251   3.268
 1541TIP3    H1 4629   5.443   4.275   3.216
 1541TIP3    H2 4630   5.562   4.183   3.218
 1542TIP3   OH2 4631   1.963   4.339   4.299
 1542TIP3    H1 4632   1.869   4.325   4.315
 1542TIP3    H2 4633   1.975   4.317   4.207
 1543TIP3   OH2 4634   1.060   1.522   0.961
 1543TIP3    H1 4635   1.001   1.533   1.035
 1543TIP3    H2 4636   1.109   1.604   0.957
 1544TIP3   OH2 4637   2.296   1.278   2.751
 1544TIP3    H1 4638   2.371   1.255   2.806
 1544TIP3    H2 4639   2.223   1.226   2.787
 1545TIP3   OH2 4640   4.152   1.101   0.157
 1545TIP3    H1 4641   4.125   1.015   0.190
 1545TIP3    H2 4642   4.098   1.163   0.206
 1546TIP3   OH2 4643   3.086   4.632   1.902
 1546TIP3    H1 4644   3.003   4.589   1.883
 1546TIP3    H2 4645   3.148   4.560   1.912
 1547TIP3   OH2 4646   5.174   2.026   1.797
 1547TIP3    H1 4647   5.200   2.113   1.767
 1547TIP3    H2 4648   5.221   2.014   1.880
 1548TIP3   OH2 4649   0.254   4.242   1.407
 1548TIP3    H1 4650   0.222   4.185   1.337
 1548TIP3    H2 4651   0.330   4.197   1.443
 1549TIP3   OH2 4652   4.195   3.125   1.134
 1549TIP3    H1 4653   4.111   3.080   1.146
 1549TIP3    H2 4654   4.206   3.176   1.215
 1550TIP3   OH2 4655   6.161   2.590   4.152
 1550TIP3    H1 4656   6.157   2.599   4.056
 1550TIP3    H2 4657   6.077   2.624   4.183
 1551TIP3   OH2 4658   5.652   3.617   1.196
 1551TIP3    H1 4659   5.744   3.610   1.170
 1551TIP3    H2 4660   5.654   3.657   1.283
 1552TIP3   OH2 4661   0.557   0.864   4.832
 1552TIP3    H1 4662   0.614   0.812   4.888
 1552TIP3    H2 4663   0.485   0.890   4.889
 1553TIP3   OH2 4664   4.422   3.834   1.149
 1553TIP3    H1 4665   4.445   3.806   1.238
 1553TIP3    H2 4666   4.360   3.768   1.119
 1554TIP3   OH2 4667   3.513   4.380   1.113
 1554TIP3    H1 4668   3.431   4.391   1.065
 1554TIP3    H2 4669   3.527   4.464   1.156
 1555TIP3   OH2 4670   4.063   5.544   2.340
 1555TIP3    H1 4671   3.985   5.520   2.290
 1555TIP3    H2 4672   4.066   5.639   2.335
 1556TIP3   OH2 4673   4.091   4.194   0.832
 1556TIP3    H1 4674   4.149   4.118   0.833
 1556TIP3    H2 4675   4.147   4.267   0.859
 1557TIP3   OH2 4676   1.685   1.442   3.594
 1557TIP3    H1 4677   1.722   1.493   3.523
 1557TIP3    H2 4678   1.593   1.431   3.570
 1558TIP3   OH2 4679   4.370   0.809   5.000
 1558TIP3    H1 4680   4.364   0.719   4.968
 1558TIP3    H2 4681   4.458   0.838   4.975
 1559TIP3   OH2 4682   5.734   0.668   5.152
 1559TIP3    H1 4683   5.651   0.687   5.196
 1559TIP3    H2 4684   5.711   0.653   5.061
 1560TIP3   OH2 4685   3.885   1.894   3.829
 1560TIP3    H1 4686   3.950   1.959   3.853
 1560TIP3    H2 4687   3.902   1.820   3.887
 1561TIP3   OH2 4688   4.038   5.108   4.364
 1561TIP3    H1 4689   3.981   5.066   4.429
 1561TIP3    H2 4690   4.083   5.036   4.321
 1562TIP3   OH2 4691   3.780   2.360   4.802
 1562TIP3    H1 4692   3.702   2.390   4.848
 1562TIP3    H2 4693   3.780   2.265   4.815
 1563TIP3   OH2 4694   0.100   4.795   1.419
 1563TIP3    H1 4695   0.099   4.877   1.369
 1563TIP3    H2 4696   0.010   4.786   1.452
 1564TIP3   OH2 4697   5.868   5.857   3.701
 1564TIP3    H1 4698   5.819   5.839   3.622
 1564TIP3    H2 4699   5.811   5.829   3.772
 1565TIP3   OH2 4700   1.593   3.204   0.709
 1565TIP3    H1 4701   1.527   3.135   0.707
 1565TIP3    H2 4702   1.588   3.245   0.623
 1566TIP3   OH2 4703   2.748   5.610   2.202
 1566TIP3    H1 4704   2.811   5.547   2.239
 1566TIP3    H2 4705   2.802   5.683   2.174
 1567TIP3   OH2 4706   4.012   2.863   2.290
 1567TIP3    H1 4707   3.996   2.940   2.345
 1567TIP3    H2 4708   4.086   2.888   2.235
 1568TIP3   OH2 4709   3.809   4.418   3.065
 1568TIP3    H1 4710   3.813   4.365   2.986
 1568TIP3    H2 4711   3.717   4.444   3.071
 1569TIP3   OH2 4712   2.821   4.754   3.599
 1569TIP3    H1 4713   2.766   4.786   3.670
 1569TIP3    H2 4714   2.908   4.744   3.639
 1570TIP3   OH2 4715   0.461   4.208   3.032
 1570TIP3    H1 4716   0.376   4.228   3.070
 1570TIP3    H2 4717   0.442   4.171   2.946
 1571TIP3   OH2 4718   4.800   4.443   2.146
 1571TIP3    H1 4719   4.873   4.464   2.087
 1571TIP3    H2 4720   4.779   4.352   2.127
 1572TIP3   OH2 4721   5.810   5.294   4.706
 1572TIP3    H1 4722   5.816   5.338   4.621
 1572TIP3    H2 4723   5.749   5.222   4.691
 1573TIP3   OH2 4724   6.370   0.914   1.855
 1573TIP3    H1 4725   6.276   0.930   1.842
 1573TIP3    H2 4726   6.380   0.906   1.950
 1574TIP3   OH2 4727   4.164   2.543   2.108
 1574TIP3    H1 4728   4.257   2.527   2.092
 1574TIP3    H2 4729   4.119   2.478   2.055
 1575TIP3   OH2 4730   5.242   4.325   0.205
 1575TIP3    H1 4731   5.268   4.354   0.293
 1575TIP3    H2 4732   5.301   4.371   0.146
 1576TIP3   OH2 4733   5.503   5.342   3.521
 1576TIP3    H1 4734   5.596   5.327   3.537
 1576TIP3    H2 4735   5.500   5.422   3.468
 1577TIP3   OH2 4736   3.323   0.980   0.933
 1577TIP3    H1 4737   3.373   1.062   0.930
 1577TIP3    H2 4738   3.380   0.915   0.891
 1578TIP3   OH2 4739   2.397   4.288   2.407
 1578TIP3    H1 4740   2.302   4.296   2.412
 1578TIP3    H2 4741   2.428   4.317   2.493
 1579TIP3   OH2 4742   3.145   5.153   1.277
 1579TIP3    H1 4743   3.098   5.235   1.262
 1579TIP3    H2 4744   3.152   5.147   1.372
 1580TIP3   OH2 4745   0.440   4.398   4.852
 1580TIP3    H1 4746   0.456   4.413   4.945
 1580TIP3    H2 4747   0.345   4.395   4.844
 1581TIP3   OH2 4748   0.763   5.912   3.636
 1581TIP3    H1 4749   0.712   5.964   3.699
 1581TIP3    H2 4750   0.832   5.971   3.606
 1582TIP3   OH2 4751   0.618   0.501   1.082
 1582TIP3    H1 4752   0.640   0.587   1.118
 1582TIP3    H2 4753   0.523   0.499   1.081
 1583TIP3   OH2 4754   2.230   4.302   4.648
 1583TIP3    H1 4755   2.323   4.319   4.665
 1583TIP3    H2 4756   2.192   4.287   4.735
 1584TIP3   OH2 4757   1.105   3.363   4.137
 1584TIP3    H1 4758   1.141   3.414   4.209
 1584TIP3    H2 4759   1.125   3.272   4.160
 1585TIP3   OH2 4760   5.470   0.386   3.765
 1585TIP3    H1 4761   5.415   0.363   3.691
 1585TIP3    H2 4762   5.539   0.320   3.765
 1586TIP3   OH2 4763   3.358   3.169   4.094
 1586TIP3    H1 4764   3.298   3.149   4.165
 1586TIP3    H2 4765   3.393   3.255   4.116
 1587TIP3   OH2 4766   5.916   2.027   3.903
 1587TIP3    H1 4767   5.925   1.934   3.923
 1587TIP3    H2 4768   5.845   2.057   3.958
 1588TIP3   OH2 4769   4.241   3.878   4.336
 1588TIP3    H1 4770   4.210   3.953   4.387
 1588TIP3    H2 4771   4.161   3.833   4.310
 1589TIP3   OH2 4772   3.500   1.832   4.101
 1589TIP3    H1 4773   3.503   1.878   4.017
 1589TIP3    H2 4774   3.591   1.829   4.130
 1590TIP3   OH2 4775   1.641   3.736   4.742
 1590TIP3    H1 4776   1.618   3.644   4.754
 1590TIP3    H2 4777   1.707   3.753   4.810
 1591TIP3   OH2 4778   5.892   1.325   4.171
 1591TIP3    H1 4779   5.828   1.332   4.242
 1591TIP3    H2 4780   5.922   1.235   4.175
 1592TIP3   OH2 4781   1.214   3.000   4.935
 1592TIP3    H1 4782   1.260   2.931   4.887
 1592TIP3    H2 4783   1.283   3.056   4.969
 1593TIP3   OH2 4784   6.129   5.164   2.270
 1593TIP3    H1 4785   6.162   5.248   2.236
 1593TIP3    H2 4786   6.174   5.153   2.354
 1594TIP3   OH2 4787   0.490   3.837   1.683
 1594TIP3    H1 4788   0.575   3.819   1.644
 1594TIP3    H2 4789   0.428   3.788   1.630
 1595TIP3   OH2 4790   4.072   0.742   2.423
 1595TIP3    H1 4791   4.088   0.647   2.416
 1595TIP3    H2 4792   4.149   0.782   2.384
 1596TIP3   OH2 4793   2.172   4.930   2.942
 1596TIP3    H1 4794   2.225   5.001   2.977
 1596TIP3    H2 4795   2.096   4.973   2.904
 1597TIP3   OH2 4796   2.899   5.337   2.052
 1597TIP3    H1 4797   2.829   5.294   2.100
 1597TIP3    H2 4798   2.954   5.377   2.119
 1598TIP3   OH2 4799   3.765   5.123   3.428
 1598TIP3    H1 4800   3.839   5.076   3.467
 1598TIP3    H2 4801   3.697   5.056   3.418
 1599TIP3   OH2 4802   5.767   4.259   1.522
 1599TIP3    H1 4803   5.737   4.191   1.583
 1599TIP3    H2 4804   5.839   4.218   1.475
 1600TIP3   OH2 4805   5.179   2.300   5.127
 1600TIP3    H1 4806   5.130   2.360   5.183
 1600TIP3    H2 4807   5.194   2.348   5.046
 1601TIP3   OH2 4808   1.765   4.432   3.372
 1601TIP3    H1 4809   1.855   4.408   3.351
 1601TIP3    H2 4810   1.717   4.417   3.290
 1602TIP3   OH2 4811   2.785   3.528   1.555
 1602TIP3    H1 4812   2.758   3.440   1.528
 1602TIP3    H2 4813   2.780   3.580   1.475
 1603TIP3   OH2 4814   5.651   2.164   0.030
 1603TIP3    H1 4815   5.560   2.192   0.027
 1603TIP3    H2 4816   5.647   2.070   0.049
 1604TIP3   OH2 4817   5.765   5.490   4.203
 1604TIP3    H1 4818   5.842   5.540   4.178
 1604TIP3    H2 4819   5.764   5.415   4.144
 1605TIP3   OH2 4820   0.119   3.394   1.321
 1605TIP3    H1 4821   0.098   3.472   1.270
 1605TIP3    H2 4822   0.095   3.320   1.265
 1606TIP3   OH2 4823   0.423   5.331   1.656
 1606TIP3    H1 4824   0.369   5.381   1.595
 1606TIP3    H2 4825   0.463   5.263   1.601
 1607TIP3   OH2 4826   4.108   0.595   5.141
 1607TIP3    H1 4827   4.179   0.538   5.112
 1607TIP3    H2 4828   4.032   0.538   5.152
 1608TIP3   OH2 4829   3.627   0.450   2.880
 1608TIP3    H1 4830   3.671   0.373   2.845
 1608TIP3    H2 4831   3.673   0.524   2.840
 1609TIP3   OH2 4832   2.394   4.078   1.679
 1609TIP3    H1 4833   2.387   4.060   1.772
 1609TIP3    H2 4834   2.390   3.991   1.637
 1610TIP3   OH2 4835  -0.004   5.675   2.058
 1610TIP3    H1 4836   0.080   5.705   2.093
 1610TIP3    H2 4837  -0.001   5.580   2.067
 1611TIP3   OH2 4838   0.376   0.730   2.180
 1611TIP3    H1 4839   0.283   0.751   2.175
 1611TIP3    H2 4840   0.384   0.679   2.261
 1612TIP3   OH2 4841   2.677   0.670   0.074
 1612TIP3    H1 4842   2.697   0.614   0.149
 1612TIP3    H2 4843   2.693   0.759   0.106
 1613TIP3   OH2 4844   2.557   2.890   4.747
 1613TIP3    H1 4845   2.473   2.886   4.701
 1613TIP3    H2 4846   2.621   2.858   4.683
 1614TIP3   OH2 4847   3.816   3.499   0.520
 1614TIP3    H1 4848   3.822   3.414   0.476
 1614TIP3    H2 4849   3.745   3.489   0.583
 1615TIP3   OH2 4850   4.047   4.759   4.766
 1615TIP3    H1 4851   4.054   4.695   4.837
 1615TIP3    H2 4852   4.059   4.707   4.686
 1616TIP3   OH2 4853   3.003   0.334   2.266
 1616TIP3    H1 4854   2.919   0.379   2.276
 1616TIP3    H2 4855   3.040   0.333   2.354
 1617TIP3   OH2 4856   2.182   2.637   1.492
 1617TIP3    H1 4857   2.092   2.642   1.524
 1617TIP3    H2 4858   2.234   2.620   1.571
 1618TIP3   OH2 4859   3.341   3.335   2.283
 1618TIP3    H1 4860   3.351   3.352   2.189
 1618TIP3    H2 4861   3.408   3.269   2.302
 1619TIP3   OH2 4862   5.444   5.601   0.464
 1619TIP3    H1 4863   5.531   5.570   0.440
 1619TIP3    H2 4864   5.423   5.666   0.397
 1620TIP3   OH2 4865   6.327   1.792   4.379
 1620TIP3    H1 4866   6.405   1.826   4.335
 1620TIP3    H2 4867   6.356   1.712   4.422
 1621TIP3   OH2 4868   0.540   0.717   2.522
 1621TIP3    H1 4869   0.479   0.645   2.506
 1621TIP3    H2 4870   0.577   0.737   2.436
 1622TIP3   OH2 4871   6.062   3.749   1.111
 1622TIP3    H1 4872   5.967   3.754   1.124
 1622TIP3    H2 4873   6.091   3.840   1.111
 1623TIP3   OH2 4874   5.048   0.139   4.794
 1623TIP3    H1 4875   5.030   0.105   4.706
 1623TIP3    H2 4876   5.122   0.086   4.825
 1624TIP3   OH2 4877   6.357   3.621   0.691
 1624TIP3    H1 4878   6.307   3.583   0.763
 1624TIP3    H2 4879   6.324   3.576   0.613
 1625TIP3   OH2 4880   1.071   1.743   4.802
 1625TIP3    H1 4881   1.118   1.718   4.723
 1625TIP3    H2 4882   0.990   1.691   4.800
 1626TIP3   OH2 4883   2.005   5.274   3.260
 1626TIP3    H1 4884   2.019   5.196   3.313
 1626TIP3    H2 4885   2.056   5.342   3.303
 1627TIP3   OH2 4886   0.886   1.375   3.641
 1627TIP3    H1 4887   0.819   1.316   3.609
 1627TIP3    H2 4888   0.913   1.426   3.565
 1628TIP3   OH2 4889   2.138   2.616   2.383
 1628TIP3    H1 4890   2.187   2.627   2.464
 1628TIP3    H2 4891   2.205   2.610   2.315
 1629TIP3   OH2 4892   1.118   0.800   2.443
 1629TIP3    H1 4893   1.189   0.822   2.382
 1629TIP3    H2 4894   1.116   0.872   2.505
 1630TIP3   OH2 4895   0.428   0.912   4.146
 1630TIP3    H1 4896   0.520   0.927   4.168
 1630TIP3    H2 4897   0.400   0.993   4.104
 1631TIP3   OH2 4898   2.199   4.765   1.653
 1631TIP3    H1 4899   2.119   4.779   1.704
 1631TIP3    H2 4900   2.208   4.845   1.601
 1632TIP3   OH2 4901   1.913   3.753   1.994
 1632TIP3    H1 4902   1.899   3.676   1.938
 1632TIP3    H2 4903   1.826   3.772   2.031
 1633TIP3   OH2 4904   2.135   4.491   4.457
 1633TIP3    H1 4905   2.183   4.440   4.522
 1633TIP3    H2 4906   2.102   4.426   4.395
 1634TIP3   OH2 4907   1.414   4.986   1.929
 1634TIP3    H1 4908   1.360   4.907   1.932
 1634TIP3    H2 4909   1.355   5.057   1.955
 1635TIP3   OH2 4910   0.819   5.212   2.792
 1635TIP3    H1 4911   0.807   5.304   2.768
 1635TIP3    H2 4912   0.814   5.165   2.709
 1636TIP3   OH2 4913   1.163   4.381   3.002
 1636TIP3    H1 4914   1.211   4.305   2.969
 1636TIP3    H2 4915   1.157   4.367   3.097
 1637TIP3   OH2 4916   4.920   3.300   4.035
 1637TIP3    H1 4917   5.011   3.325   4.046
 1637TIP3    H2 4918   4.906   3.303   3.940
 1638TIP3   OH2 4919   0.048   3.843   4.627
 1638TIP3    H1 4920   0.104   3.791   4.685
 1638TIP3    H2 4921   0.024   3.783   4.557
 1639TIP3   OH2 4922   5.108   1.342   1.038
 1639TIP3    H1 4923   5.106   1.311   1.129
 1639TIP3    H2 4924   5.162   1.421   1.041
 1640TIP3   OH2 4925   4.214   1.056   4.300
 1640TIP3    H1 4926   4.148   1.093   4.241
 1640TIP3    H2 4927   4.253   1.133   4.342
 1641TIP3   OH2 4928   1.295   2.645   0.674
 1641TIP3    H1 4929   1.265   2.561   0.708
 1641TIP3    H2 4930   1.389   2.645   0.691
 1642TIP3   OH2 4931   5.104   1.159   2.944
 1642TIP3    H1 4932   5.110   1.063   2.937
 1642TIP3    H2 4933   5.181   1.184   2.994
 1643TIP3   OH2 4934   4.978   0.625   1.806
 1643TIP3    H1 4935   4.929   0.702   1.776
 1643TIP3    H2 4936   4.913   0.555   1.808
 1644TIP3   OH2 4937   3.809   5.513   4.859
 1644TIP3    H1 4938   3.808   5.421   4.830
 1644TIP3    H2 4939   3.896   5.545   4.835
 1645TIP3   OH2 4940   0.331   5.237   2.489
 1645TIP3    H1 4941   0.302   5.212   2.577
 1645TIP3    H2 4942   0.349   5.154   2.445
 1646TIP3   OH2 4943   5.195   5.357   4.860
 1646TIP3    H1 4944   5.108   5.393   4.845
 1646TIP3    H2 4945   5.255   5.425   4.831
 1647TIP3   OH2 4946   0.677   1.857   3.999
 1647TIP3    H1 4947   0.626   1.924   3.952
 1647TIP3    H2 4948   0.644   1.774   3.964
 1648TIP3   OH2 4949   4.013   4.514   4.642
 1648TIP3    H1 4950   3.959   4.478   4.572
 1648TIP3    H2 4951   4.042   4.437   4.691
 1649TIP3   OH2 4952   3.603   4.391   2.481
 1649TIP3    H1 4953   3.658   4.419   2.408
 1649TIP3    H2 4954   3.560   4.471   2.511
 1650TIP3   OH2 4955   5.835   1.118   0.410
 1650TIP3    H1 4956   5.824   1.096   0.502
 1650TIP3    H2 4957   5.786   1.199   0.398
 1651TIP3   OH2 4958   2.831   2.621   2.133
 1651TIP3    H1 4959   2.910   2.666   2.102
 1651TIP3    H2 4960   2.780   2.689   2.176
 1652TIP3   OH2 4961   1.627   3.387   0.965
 1652TIP3    H1 4962   1.691   3.458   0.971
 1652TIP3    H2 4963   1.548   3.422   1.007
 1653TIP3   OH2 4964   4.041   1.705   2.829
 1653TIP3    H1 4965   4.116   1.701   2.888
 1653TIP3    H2 4966   3.990   1.626   2.850
 1654TIP3   OH2 4967   5.458   5.768   0.241
 1654TIP3    H1 4968   5.533   5.825   0.223
 1654TIP3    H2 4969   5.432   5.736   0.154
 1655TIP3   OH2 4970   6.178   2.791   3.616
 1655TIP3    H1 4971   6.204   2.744   3.537
 1655TIP3    H2 4972   6.159   2.721   3.679
 1656TIP3   OH2 4973   4.144   4.173   2.881
 1656TIP3    H1 4974   4.210   4.242   2.875
 1656TIP3    H2 4975   4.194   4.092   2.887
 1657TIP3   OH2 4976   3.227   4.448   4.771
 1657TIP3    H1 4977   3.181   4.364   4.761
 1657TIP3    H2 4978   3.197   4.481   4.855
 1658TIP3   OH2 4979   4.470   0.648   2.477
 1658TIP3    H1 4980   4.402   0.697   2.430
 1658TIP3    H2 4981   4.504   0.711   2.541
 1659TIP3   OH2 4982   5.215   0.639   1.450
 1659TIP3    H1 4983   5.290   0.624   1.506
 1659TIP3    H2 4984   5.250   0.635   1.361
 1660TIP3   OH2 4985   5.135   5.527   2.872
 1660TIP3    H1 4986   5.116   5.433   2.883
 1660TIP3    H2 4987   5.227   5.536   2.899
 1661TIP3   OH2 4988   4.063   0.032   1.223
 1661TIP3    H1 4989   4.059  -0.052   1.177
 1661TIP3    H2 4990   4.086   0.096   1.155
 1662TIP3   OH2 4991   6.015   2.440   2.233
 1662TIP3    H1 4992   6.094   2.461   2.282
 1662TIP3    H2 4993   6.022   2.346   2.216
 1663TIP3   OH2 4994   3.049   4.406   3.819
 1663TIP3    H1 4995   3.045   4.397   3.724
 1663TIP3    H2 4996   2.967   4.449   3.842
 1664TIP3   OH2 4997   2.526   5.821   4.331
 1664TIP3    H1 4998   2.526   5.818   4.427
 1664TIP3    H2 4999   2.610   5.859   4.308
 1665TIP3   OH2 5000   3.295   1.597   0.552
 1665TIP3    H1 5001   3.367   1.553   0.596
 1665TIP3    H2 5002   3.338   1.654   0.488
 1666TIP3   OH2 5003   1.115   3.771   1.649
 1666TIP3    H1 5004   1.129   3.723   1.568
 1666TIP3    H2 5005   1.198   3.814   1.666
 1667TIP3   OH2 5006   6.235   4.308   0.449
 1667TIP3    H1 5007   6.199   4.306   0.538
 1667TIP3    H2 5008   6.179   4.369   0.402
 1668TIP3   OH2 5009   4.285   1.590   4.546
 1668TIP3    H1 5010   4.288   1.529   4.620
 1668TIP3    H2 5011   4.209   1.645   4.565
 1669TIP3   OH2 5012   5.673   1.726   3.250
 1669TIP3    H1 5013   5.760   1.733   3.290
 1669TIP3    H2 5014   5.633   1.812   3.265
 1670TIP3   OH2 5015   2.781   2.058   0.507
 1670TIP3    H1 5016   2.843   2.093   0.571
 1670TIP3    H2 5017   2.696   2.068   0.549
 1671TIP3   OH2 5018   6.186   5.686   0.778
 1671TIP3    H1 5019   6.137   5.756   0.821
 1671TIP3    H2 5020   6.212   5.723   0.694
 1672TIP3   OH2 5021   3.499   2.339   4.643
 1672TIP3    H1 5022   3.500   2.249   4.676
 1672TIP3    H2 5023   3.552   2.335   4.563
 1673TIP3   OH2 5024   2.709   4.855   1.483
 1673TIP3    H1 5025   2.694   4.950   1.478
 1673TIP3    H2 5026   2.804   4.845   1.480
 1674TIP3   OH2 5027   5.815   1.265   4.493
 1674TIP3    H1 5028   5.744   1.211   4.530
 1674TIP3    H2 5029   5.887   1.203   4.480
 1675TIP3   OH2 5030   0.257   5.486   0.507
 1675TIP3    H1 5031   0.241   5.482   0.413
 1675TIP3    H2 5032   0.243   5.397   0.538
 1676TIP3   OH2 5033   3.677   3.684   1.445
 1676TIP3    H1 5034   3.705   3.703   1.535
 1676TIP3    H2 5035   3.585   3.710   1.443
 1677TIP3   OH2 5036   2.864   5.775   1.293
 1677TIP3    H1 5037   2.888   5.823   1.214
 1677TIP3    H2 5038   2.843   5.843   1.357
 1678TIP3   OH2 5039   0.109   4.211   4.129
 1678TIP3    H1 5040   0.204   4.212   4.141
 1678TIP3    H2 5041   0.079   4.141   4.187
 1679TIP3   OH2 5042   3.665   4.207   0.436
 1679TIP3    H1 5043   3.750   4.171   0.461
 1679TIP3    H2 5044   3.668   4.298   0.465
 1680TIP3   OH2 5045   6.137   5.089   3.227
 1680TIP3    H1 5046   6.141   5.006   3.180
 1680TIP3    H2 5047   6.145   5.155   3.158
 1681TIP3   OH2 5048   5.664   2.746   4.521
 1681TIP3    H1 5049   5.757   2.721   4.527
 1681TIP3    H2 5050   5.633   2.743   4.612
 1682TIP3   OH2 5051   1.449   2.237   1.806
 1682TIP3    H1 5052   1.369   2.269   1.848
 1682TIP3    H2 5053   1.477   2.164   1.861
 1683TIP3   OH2 5054   0.582   1.434   1.506
 1683TIP3    H1 5055   0.589   1.425   1.411
 1683TIP3    H2 5056   0.499   1.391   1.527
 1684TIP3   OH2 5057   5.595   2.424   3.114
 1684TIP3    H1 5058   5.639   2.423   3.199
 1684TIP3    H2 5059   5.563   2.335   3.102
 1685TIP3   OH2 5060   3.731   3.774   5.194
 1685TIP3    H1 5061   3.752   3.702   5.135
 1685TIP3    H2 5062   3.654   3.815   5.155
 1686TIP3   OH2 5063   5.541   3.111   0.044
 1686TIP3    H1 5064   5.534   3.063  -0.038
 1686TIP3    H2 5065   5.626   3.084   0.080
 1687TIP3   OH2 5066   2.712   0.532   0.636
 1687TIP3    H1 5067   2.806   0.530   0.617
 1687TIP3    H2 5068   2.687   0.623   0.626
 1688TIP3   OH2 5069   0.950   0.522   2.569
 1688TIP3    H1 5070   1.013   0.459   2.536
 1688TIP3    H2 5071   1.000   0.578   2.628
 1689TIP3   OH2 5072   6.116   5.235   1.083
 1689TIP3    H1 5073   6.093   5.261   0.994
 1689TIP3    H2 5074   6.191   5.178   1.072
 1690TIP3   OH2 5075   2.514   5.379   3.031
 1690TIP3    H1 5076   2.593   5.432   3.036
 1690TIP3    H2 5077   2.491   5.380   2.938
 1691TIP3   OH2 5078   0.254   0.445   2.045
 1691TIP3    H1 5079   0.206   0.374   2.001
 1691TIP3    H2 5080   0.189   0.487   2.101
 1692TIP3   OH2 5081   0.320   3.374   3.437
 1692TIP3    H1 5082   0.414   3.358   3.434
 1692TIP3    H2 5083   0.294   3.386   3.346
 1693TIP3   OH2 5084   3.830   3.478   3.422
 1693TIP3    H1 5085   3.835   3.562   3.468
 1693TIP3    H2 5086   3.841   3.501   3.330
 1694TIP3   OH2 5087   5.603   5.155   3.108
 1694TIP3    H1 5088   5.509   5.145   3.093
 1694TIP3    H2 5089   5.642   5.076   3.070
 1695TIP3   OH2 5090   5.552   3.892   2.042
 1695TIP3    H1 5091   5.635   3.936   2.023
 1695TIP3    H2 5092   5.485   3.957   2.022
 1696TIP3   OH2 5093   3.732   0.456   4.950
 1696TIP3    H1 5094   3.656   0.398   4.959
 1696TIP3    H2 5095   3.704   0.523   4.888
 1697TIP3   OH2 5096   0.812   4.337   2.724
 1697TIP3    H1 5097   0.795   4.243   2.715
 1697TIP3    H2 5098   0.740   4.370   2.778
 1698TIP3   OH2 5099   0.192   3.086   3.438
 1698TIP3    H1 5100   0.252   3.030   3.388
 1698TIP3    H2 5101   0.187   3.167   3.387
 1699TIP3   OH2 5102   0.443   0.696   0.629
 1699TIP3    H1 5103   0.402   0.621   0.585
 1699TIP3    H2 5104   0.510   0.725   0.568
 1700TIP3   OH2 5105   4.572   2.637   1.293
 1700TIP3    H1 5106   4.649   2.686   1.322
 1700TIP3    H2 5107   4.513   2.639   1.368
 1701TIP3   OH2 5108   1.207   1.070   3.754
 1701TIP3    H1 5109   1.267   1.005   3.715
 1701TIP3    H2 5110   1.121   1.028   3.749
 1702TIP3   OH2 5111   2.271   0.818   0.344
 1702TIP3    H1 5112   2.254   0.817   0.439
 1702TIP3    H2 5113   2.276   0.726   0.320
 1703TIP3   OH2 5114   0.514   4.958   0.242
 1703TIP3    H1 5115   0.493   5.027   0.179
 1703TIP3    H2 5116   0.442   4.896   0.234
 1704TIP3   OH2 5117   0.218   0.160   4.960
 1704TIP3    H1 5118   0.284   0.198   4.901
 1704TIP3    H2 5119   0.269   0.113   5.025
 1705TIP3   OH2 5120   5.746   0.281   2.177
 1705TIP3    H1 5121   5.775   0.194   2.152
 1705TIP3    H2 5122   5.817   0.339   2.151
 1706TIP3   OH2 5123   4.980   2.213   3.834
 1706TIP3    H1 5124   4.896   2.256   3.847
 1706TIP3    H2 5125   5.043   2.284   3.828
 1707TIP3   OH2 5126   1.867   0.774   1.748
 1707TIP3    H1 5127   1.852   0.680   1.761
 1707TIP3    H2 5128   1.798   0.801   1.688
 1708TIP3   OH2 5129   3.360   2.023   1.856
 1708TIP3    H1 5130   3.445   2.067   1.852
 1708TIP3    H2 5131   3.367   1.952   1.793
 1709TIP3   OH2 5132   1.767   3.006   1.407
 1709TIP3    H1 5133   1.814   2.963   1.478
 1709TIP3    H2 5134   1.690   2.951   1.393
 1710TIP3   OH2 5135   2.559   1.797   4.382
 1710TIP3    H1 5136   2.590   1.711   4.410
 1710TIP3    H2 5137   2.622   1.859   4.421
 1711TIP3   OH2 5138   0.259   3.061   4.107
 1711TIP3    H1 5139   0.312   3.085   4.031
 1711TIP3    H2 5140   0.312   2.997   4.155
 1712TIP3   OH2 5141   3.599   3.277   1.504
 1712TIP3    H1 5142   3.611   3.341   1.574
 1712TIP3    H2 5143   3.547   3.207   1.543
 1713TIP3   OH2 5144   5.686   4.275   2.909
 1713TIP3    H1 5145   5.622   4.210   2.938
 1713TIP3    H2 5146   5.755   4.224   2.866
 1714TIP3   OH2 5147   1.508   5.544   0.751
 1714TIP3    H1 5148   1.474   5.500   0.829
 1714TIP3    H2 5149   1.450   5.619   0.739
 1715TIP3   OH2 5150   2.897   4.338   0.318
 1715TIP3    H1 5151   2.936   4.347   0.406
 1715TIP3    H2 5152   2.824   4.400   0.318
 1716TIP3   OH2 5153   1.670   5.761   4.444
 1716TIP3    H1 5154   1.605   5.698   4.412
 1716TIP3    H2 5155   1.618   5.832   4.481
 1717TIP3   OH2 5156   6.112   1.425   4.320
 1717TIP3    H1 5157   6.052   1.379   4.261
 1717TIP3    H2 5158   6.076   1.514   4.325
 1718TIP3   OH2 5159   3.681   4.047   3.894
 1718TIP3    H1 5160   3.726   4.131   3.901
 1718TIP3    H2 5161   3.674   4.031   3.800
 1719TIP3   OH2 5162   3.957   2.758   4.746
 1719TIP3    H1 5163   3.931   2.847   4.722
 1719TIP3    H2 5164   4.051   2.756   4.731
 1720TIP3   OH2 5165   4.183   2.662   1.011
 1720TIP3    H1 5166   4.178   2.725   1.083
 1720TIP3    H2 5167   4.246   2.596   1.041
 1721TIP3   OH2 5168   0.934   1.537   3.434
 1721TIP3    H1 5169   0.994   1.598   3.392
 1721TIP3    H2 5170   0.883   1.500   3.362
 1722TIP3   OH2 5171   1.467   5.846   0.300
 1722TIP3    H1 5172   1.478   5.936   0.272
 1722TIP3    H2 5173   1.457   5.796   0.219
 1723TIP3   OH2 5174   0.987   5.773   1.761
 1723TIP3    H1 5175   1.000   5.861   1.797
 1723TIP3    H2 5176   0.911   5.782   1.704
 1724TIP3   OH2 5177   3.184   4.556   1.189
 1724TIP3    H1 5178   3.236   4.497   1.135
 1724TIP3    H2 5179   3.160   4.628   1.130
 1725TIP3   OH2 5180   4.556   1.089   1.742
 1725TIP3    H1 5181   4.533   1.028   1.813
 1725TIP3    H2 5182   4.497   1.163   1.755
 1726TIP3   OH2 5183   1.904   2.209   0.421
 1726TIP3    H1 5184   1.978   2.149   0.422
 1726TIP3    H2 5185   1.901   2.243   0.331
 1727TIP3   OH2 5186   3.336   4.611   2.354
 1727TIP3    H1 5187   3.334   4.531   2.302
 1727TIP3    H2 5188   3.395   4.670   2.306
 1728TIP3   OH2 5189   5.771   3.081   0.219
 1728TIP3    H1 5190   5.792   3.153   0.278
 1728TIP3    H2 5191   5.844   3.080   0.157
 1729TIP3   OH2 5192   2.975   1.411   1.670
 1729TIP3    H1 5193   2.942   1.335   1.621
 1729TIP3    H2 5194   2.975   1.382   1.761
 1730TIP3   OH2 5195   0.426   1.925   5.074
 1730TIP3    H1 5196   0.387   1.844   5.041
 1730TIP3    H2 5197   0.409   1.989   5.004
 1731TIP3   OH2 5198   4.175   2.299   1.925
 1731TIP3    H1 5199   4.083   2.323   1.913
 1731TIP3    H2 5200   4.173   2.225   1.985
 1732TIP3   OH2 5201   5.169   2.013   0.687
 1732TIP3    H1 5202   5.193   1.978   0.601
 1732TIP3    H2 5203   5.228   2.088   0.699
 1733TIP3   OH2 5204   1.558   0.599   4.217
 1733TIP3    H1 5205   1.577   0.686   4.183
 1733TIP3    H2 5206   1.525   0.614   4.305
 1734TIP3   OH2 5207   5.524   5.863   4.570
 1734TIP3    H1 5208   5.545   5.785   4.518
 1734TIP3    H2 5209   5.543   5.936   4.511
 1735TIP3   OH2 5210   5.317   4.685   5.058
 1735TIP3    H1 5211   5.234   4.697   5.012
 1735TIP3    H2 5212   5.301   4.722   5.145
 1736TIP3   OH2 5213   2.544   2.582   0.182
 1736TIP3    H1 5214   2.625   2.619   0.146
 1736TIP3    H2 5215   2.498   2.549   0.105
 1737TIP3   OH2 5216   5.895   4.608   1.308
 1737TIP3    H1 5217   5.912   4.698   1.333
 1737TIP3    H2 5218   5.816   4.583   1.355
 1738TIP3   OH2 5219   1.738   0.957   2.318
 1738TIP3    H1 5220   1.804   0.897   2.285
 1738TIP3    H2 5221   1.724   0.932   2.409
 1739TIP3   OH2 5222   5.759   2.084   3.607
 1739TIP3    H1 5223   5.731   2.112   3.520
 1739TIP3    H2 5224   5.773   1.990   3.599
 1740TIP3   OH2 5225   5.209   3.474   2.800
 1740TIP3    H1 5226   5.254   3.460   2.883
 1740TIP3    H2 5227   5.123   3.510   2.825
 1741TIP3   OH2 5228   3.032   1.683   3.673
 1741TIP3    H1 5229   3.024   1.708   3.765
 1741TIP3    H2 5230   2.943   1.689   3.638
 1742TIP3   OH2 5231   6.103   2.265   2.629
 1742TIP3    H1 5232   6.143   2.266   2.716
 1742TIP3    H2 5233   6.163   2.315   2.574
 1743TIP3   OH2 5234   1.562   3.504   0.401
 1743TIP3    H1 5235   1.530   3.421   0.367
 1743TIP3    H2 5236   1.509   3.521   0.479
 1744TIP3   OH2 5237   0.781   0.802   1.579
 1744TIP3    H1 5238   0.821   0.742   1.642
 1744TIP3    H2 5239   0.710   0.843   1.627
 1745TIP3   OH2 5240   4.299   4.623   3.501
 1745TIP3    H1 5241   4.262   4.633   3.413
 1745TIP3    H2 5242   4.227   4.586   3.553
 1746TIP3   OH2 5243   6.108   0.635   4.741
 1746TIP3    H1 5244   6.181   0.628   4.801
 1746TIP3    H2 5245   6.040   0.579   4.779
 1747TIP3   OH2 5246   1.434   3.962   2.428
 1747TIP3    H1 5247   1.520   3.930   2.402
 1747TIP3    H2 5248   1.381   3.883   2.436
 1748TIP3   OH2 5249   0.899   3.001   2.701
 1748TIP3    H1 5250   0.835   3.008   2.631
 1748TIP3    H2 5251   0.954   2.927   2.676
 1749TIP3   OH2 5252   3.468   2.876   1.966
 1749TIP3    H1 5253   3.447   2.964   1.936
 1749TIP3    H2 5254   3.555   2.858   1.930
 1750TIP3   OH2 5255   5.252   5.245   3.411
 1750TIP3    H1 5256   5.342   5.268   3.435
 1750TIP3    H2 5257   5.203   5.251   3.494
 1751TIP3   OH2 5258   5.668   5.431   1.132
 1751TIP3    H1 5259   5.632   5.515   1.160
 1751TIP3    H2 5260   5.688   5.385   1.214
 1752TIP3   OH2 5261   0.633   5.507   3.025
 1752TIP3    H1 5262   0.688   5.581   3.000
 1752TIP3    H2 5263   0.584   5.485   2.945
 1753TIP3   OH2 5264   6.244   1.632   3.951
 1753TIP3    H1 5265   6.238   1.586   3.867
 1753TIP3    H2 5266   6.195   1.576   4.012
 1754TIP3   OH2 5267   6.262   0.534   2.705
 1754TIP3    H1 5268   6.349   0.540   2.666
 1754TIP3    H2 5269   6.219   0.616   2.681
 1755TIP3   OH2 5270   2.009   3.704   0.901
 1755TIP3    H1 5271   2.074   3.766   0.868
 1755TIP3    H2 5272   2.053   3.657   0.971
 1756TIP3   OH2 5273   0.417   5.004   4.285
 1756TIP3    H1 5274   0.461   5.073   4.236
 1756TIP3    H2 5275   0.385   4.943   4.219
 1757TIP3   OH2 5276   5.367   3.760   1.863
 1757TIP3    H1 5277   5.374   3.666   1.844
 1757TIP3    H2 5278   5.416   3.771   1.944
 1758TIP3   OH2 5279   3.680   4.357   4.094
 1758TIP3    H1 5280   3.597   4.378   4.050
 1758TIP3    H2 5281   3.745   4.410   4.049
 1759TIP3   OH2 5282   1.335   4.146   1.784
 1759TIP3    H1 5283   1.346   4.071   1.726
 1759TIP3    H2 5284   1.254   4.127   1.832
 1760TIP3   OH2 5285   4.198   0.979   5.146
 1760TIP3    H1 5286   4.184   0.913   5.077
 1760TIP3    H2 5287   4.292   0.973   5.166
 1761TIP3   OH2 5288   0.933   3.978   1.641
 1761TIP3    H1 5289   0.988   4.035   1.588
 1761TIP3    H2 5290   0.992   3.910   1.673
 1762TIP3   OH2 5291   5.067   0.237   0.938
 1762TIP3    H1 5292   5.025   0.230   1.023
 1762TIP3    H2 5293   5.102   0.326   0.935
 1763TIP3   OH2 5294   5.842   3.486   3.009
 1763TIP3    H1 5295   5.875   3.566   2.967
 1763TIP3    H2 5296   5.802   3.518   3.090
 1764TIP3   OH2 5297   4.215   4.412   2.592
 1764TIP3    H1 5298   4.300   4.406   2.549
 1764TIP3    H2 5299   4.172   4.487   2.550
 1765TIP3   OH2 5300   6.045   0.319   0.292
 1765TIP3    H1 5301   6.020   0.410   0.309
 1765TIP3    H2 5302   6.058   0.281   0.378
 1766TIP3   OH2 5303   4.453   5.542   0.773
 1766TIP3    H1 5304   4.490   5.591   0.846
 1766TIP3    H2 5305   4.376   5.592   0.746
 1767TIP3   OH2 5306   2.136   3.120   0.079
 1767TIP3    H1 5307   2.210   3.091   0.132
 1767TIP3    H2 5308   2.071   3.148   0.143
 1768TIP3   OH2 5309   4.897   3.435   1.706
 1768TIP3    H1 5310   4.934   3.474   1.786
 1768TIP3    H2 5311   4.934   3.346   1.704
 1769TIP3   OH2 5312   4.072   4.315   3.804
 1769TIP3    H1 5313   4.010   4.249   3.772
 1769TIP3    H2 5314   4.143   4.264   3.843
 1770TIP3   OH2 5315   0.231   5.471   1.516
 1770TIP3    H1 5316   0.137   5.483   1.521
 1770TIP3    H2 5317   0.243   5.407   1.445
 1771TIP3   OH2 5318   0.198   2.833   5.019
 1771TIP3    H1 5319   0.134   2.763   5.006
 1771TIP3    H2 5320   0.188   2.889   4.942
 1772TIP3   OH2 5321   5.876   1.956   1.317
 1772TIP3    H1 5322   5.822   1.877   1.311
 1772TIP3    H2 5323   5.935   1.950   1.242
 1773TIP3   OH2 5324   0.349   4.651   4.481
 1773TIP3    H1 5325   0.299   4.579   4.520
 1773TIP3    H2 5326   0.304   4.669   4.398
 1774TIP3   OH2 5327   3.839   5.259   0.659
 1774TIP3    H1 5328   3.820   5.190   0.723
 1774TIP3    H2 5329   3.772   5.325   0.674
 1775TIP3   OH2 5330   4.010   2.977   1.919
 1775TIP3    H1 5331   3.959   3.041   1.968
 1775TIP3    H2 5332   4.074   3.029   1.870
 1776TIP3   OH2 5333   1.508   4.499   1.544
 1776TIP3    H1 5334   1.563   4.423   1.556
 1776TIP3    H2 5335   1.566   4.574   1.555
 1777TIP3   OH2 5336   6.008   1.597   0.309
 1777TIP3    H1 5337   6.014   1.627   0.218
 1777TIP3    H2 5338   5.935   1.535   0.309
 1778TIP3   OH2 5339   1.493   2.336   0.451
 1778TIP3    H1 5340   1.553   2.411   0.450
 1778TIP3    H2 5341   1.463   2.329   0.361
 1779TIP3   OH2 5342   0.177   0.189   2.640
 1779TIP3    H1 5343   0.135   0.190   2.726
 1779TIP3    H2 5344   0.241   0.118   2.646
 1780TIP3   OH2 5345   5.615   1.140   1.202
 1780TIP3    H1 5346   5.695   1.109   1.246
 1780TIP3    H2 5347   5.582   1.209   1.259
 1781TIP3   OH2 5348   4.254   0.087   3.181
 1781TIP3    H1 5349   4.177   0.143   3.187
 1781TIP3    H2 5350   4.266   0.053   3.270
 1782TIP3   OH2 5351   2.352   3.348   4.416
 1782TIP3    H1 5352   2.417   3.279   4.404
 1782TIP3    H2 5353   2.292   3.314   4.482
 1783TIP3   OH2 5354   4.097   1.881   4.217
 1783TIP3    H1 5355   4.192   1.873   4.222
 1783TIP3    H2 5356   4.071   1.810   4.158
 1784TIP3   OH2 5357   4.795   2.368   5.058
 1784TIP3    H1 5358   4.864   2.389   4.995
 1784TIP3    H2 5359   4.768   2.279   5.035
 1785TIP3   OH2 5360   2.337   4.075   2.217
 1785TIP3    H1 5361   2.244   4.059   2.232
 1785TIP3    H2 5362   2.373   4.095   2.303
 1786TIP3   OH2 5363   0.904   5.562   3.470
 1786TIP3    H1 5364   0.974   5.498   3.457
 1786TIP3    H2 5365   0.848   5.524   3.538
 1787TIP3   OH2 5366   5.987   0.049   2.122
 1787TIP3    H1 5367   6.035   0.062   2.040
 1787TIP3    H2 5368   6.027   0.112   2.183
 1788TIP3   OH2 5369   0.079   2.661   4.190
 1788TIP3    H1 5370   0.004   2.601   4.196
 1788TIP3    H2 5371   0.040   2.745   4.169
 1789TIP3   OH2 5372   3.711   5.138   4.836
 1789TIP3    H1 5373   3.718   5.172   4.926
 1789TIP3    H2 5374   3.756   5.054   4.839
 1790TIP3   OH2 5375   5.069   5.890   2.207
 1790TIP3    H1 5376   5.083   5.945   2.131
 1790TIP3    H2 5377   5.044   5.805   2.171
 1791TIP3   OH2 5378   6.342   3.899   0.670
 1791TIP3    H1 5379   6.388   3.816   0.680
 1791TIP3    H2 5380   6.307   3.897   0.581
 1792TIP3   OH2 5381   5.184   5.150   1.849
 1792TIP3    H1 5382   5.122   5.134   1.920
 1792TIP3    H2 5383   5.268   5.120   1.884
 1793TIP3   OH2 5384   3.540   5.161   0.669
 1793TIP3    H1 5385   3.448   5.145   0.647
 1793TIP3    H2 5386   3.584   5.169   0.585
 1794TIP3   OH2 5387   0.716   1.792   0.641
 1794TIP3    H1 5388   0.754   1.712   0.605
 1794TIP3    H2 5389   0.764   1.807   0.723
 1795TIP3   OH2 5390   3.400   4.062   0.587
 1795TIP3    H1 5391   3.325   4.120   0.597
 1795TIP3    H2 5392   3.408   4.018   0.671
 1796TIP3   OH2 5393   6.022   4.305   3.589
 1796TIP3    H1 5394   6.049   4.310   3.681
 1796TIP3    H2 5395   5.932   4.336   3.589
 1797TIP3   OH2 5396   2.658   0.526   4.861
 1797TIP3    H1 5397   2.650   0.610   4.814
 1797TIP3    H2 5398   2.641   0.549   4.952
 1798TIP3   OH2 5399   0.507   4.709   1.511
 1798TIP3    H1 5400   0.441   4.699   1.579
 1798TIP3    H2 5401   0.465   4.673   1.432
 1799TIP3   OH2 5402   5.260   4.173   0.894
 1799TIP3    H1 5403   5.319   4.110   0.852
 1799TIP3    H2 5404   5.181   4.123   0.913
 1800TIP3   OH2 5405   3.657   0.082   2.182
 1800TIP3    H1 5406   3.689   0.000   2.144
 1800TIP3    H2 5407   3.568   0.062   2.210
 1801TIP3   OH2 5408   2.952   5.800   2.982
 1801TIP3    H1 5409   2.986   5.713   2.962
 1801TIP3    H2 5410   2.915   5.831   2.899
 1802TIP3   OH2 5411   4.878   1.095   0.935
 1802TIP3    H1 5412   4.922   1.140   0.863
 1802TIP3    H2 5413   4.940   1.026   0.960
 1803TIP3   OH2 5414   4.116   2.489   3.966
 1803TIP3    H1 5415   4.127   2.578   3.999
 1803TIP3    H2 5416   4.097   2.436   4.044
 1804TIP3   OH2 5417   4.605   5.687   0.947
 1804TIP3    H1 5418   4.534   5.715   1.005
 1804TIP3    H2 5419   4.657   5.767   0.933
 1805TIP3   OH2 5420   5.574   5.446   2.113
 1805TIP3    H1 5421   5.654   5.411   2.153
 1805TIP3    H2 5422   5.605   5.503   2.042
 1806TIP3   OH2 5423   6.171   4.420   3.812
 1806TIP3    H1 5424   6.147   4.494   3.756
 1806TIP3    H2 5425   6.139   4.444   3.899
 1807TIP3   OH2 5426   0.983   3.254   2.615
 1807TIP3    H1 5427   1.065   3.232   2.570
 1807TIP3    H2 5428   0.946   3.169   2.640
 1808TIP3   OH2 5429   1.312   1.433   1.836
 1808TIP3    H1 5430   1.360   1.352   1.854
 1808TIP3    H2 5431   1.225   1.404   1.810
 1809TIP3   OH2 5432   4.816   0.159   2.082
 1809TIP3    H1 5433   4.805   0.235   2.139
 1809TIP3    H2 5434   4.797   0.191   1.994
 1810TIP3   OH2 5435   3.786   3.929   4.146
 1810TIP3    H1 5436   3.750   4.005   4.100
 1810TIP3    H2 5437   3.880   3.944   4.146
 1811TIP3   OH2 5438   3.799   5.644   3.414
 1811TIP3    H1 5439   3.729   5.664   3.476
 1811TIP3    H2 5440   3.765   5.675   3.330
 1812TIP3   OH2 5441   3.946   4.993   3.584
 1812TIP3    H1 5442   3.974   4.925   3.645
 1812TIP3    H2 5443   3.908   5.061   3.639
 1813TIP3   OH2 5444   4.256   4.150   0.072
 1813TIP3    H1 5445   4.262   4.108   0.158
 1813TIP3    H2 5446   4.203   4.090   0.020
 1814TIP3   OH2 5447   1.001   3.738   4.040
 1814TIP3    H1 5448   1.011   3.703   3.952
 1814TIP3    H2 5449   1.081   3.788   4.056
 1815TIP3   OH2 5450   0.432   4.228   3.356
 1815TIP3    H1 5451   0.478   4.188   3.430
 1815TIP3    H2 5452   0.498   4.282   3.313
 1816TIP3   OH2 5453   6.007   2.889   1.128
 1816TIP3    H1 5454   6.101   2.880   1.108
 1816TIP3    H2 5455   5.979   2.965   1.077
 1817TIP3   OH2 5456   4.272   3.657   3.514
 1817TIP3    H1 5457   4.215   3.712   3.459
 1817TIP3    H2 5458   4.210   3.606   3.567
 1818TIP3   OH2 5459   5.907   1.501   5.072
 1818TIP3    H1 5460   5.898   1.564   5.001
 1818TIP3    H2 5461   5.990   1.456   5.054
 1819TIP3   OH2 5462   5.249   3.245   0.465
 1819TIP3    H1 5463   5.245   3.313   0.397
 1819TIP3    H2 5464   5.158   3.219   0.478
 1820TIP3   OH2 5465   5.451   4.515   0.069
 1820TIP3    H1 5466   5.484   4.431   0.036
 1820TIP3    H2 5467   5.528   4.557   0.108
 1821TIP3   OH2 5468   5.305   3.039   3.235
 1821TIP3    H1 5469   5.309   3.048   3.331
 1821TIP3    H2 5470   5.350   2.956   3.217
 1822TIP3   OH2 5471   2.097   1.897   4.057
 1822TIP3    H1 5472   2.168   1.833   4.048
 1822TIP3    H2 5473   2.142   1.979   4.077
 1823TIP3   OH2 5474   1.034   4.334   4.407
 1823TIP3    H1 5475   1.080   4.319   4.324
 1823TIP3    H2 5476   0.968   4.400   4.386
 1824TIP3   OH2 5477   3.274   3.881   1.084
 1824TIP3    H1 5478   3.281   3.926   1.000
 1824TIP3    H2 5479   3.364   3.875   1.115
 1825TIP3   OH2 5480   2.289   1.117   0.741
 1825TIP3    H1 5481   2.253   1.151   0.822
 1825TIP3    H2 5482   2.217   1.069   0.700
 1826TIP3   OH2 5483   5.984   4.813   2.590
 1826TIP3    H1 5484   6.028   4.740   2.546
 1826TIP3    H2 5485   5.898   4.778   2.614
 1827TIP3   OH2 5486   0.389   3.538   4.952
 1827TIP3    H1 5487   0.463   3.486   4.921
 1827TIP3    H2 5488   0.335   3.476   5.001
 1828TIP3   OH2 5489   0.759   3.083   4.502
 1828TIP3    H1 5490   0.850   3.097   4.528
 1828TIP3    H2 5491   0.756   2.992   4.475
 1829TIP3   OH2 5492   4.893   0.606   2.421
 1829TIP3    H1 5493   4.856   0.671   2.480
 1829TIP3    H2 5494   4.980   0.640   2.399
 1830TIP3   OH2 5495   4.337   3.574   4.614
 1830TIP3    H1 5496   4.243   3.585   4.625
 1830TIP3    H2 5497   4.348   3.485   4.582
 1831TIP3   OH2 5498   4.360   2.646   3.322
 1831TIP3    H1 5499   4.329   2.733   3.348
 1831TIP3    H2 5500   4.415   2.663   3.245
 1832TIP3   OH2 5501   4.585   5.222   5.147
 1832TIP3    H1 5502   4.494   5.191   5.142
 1832TIP3    H2 5503   4.577   5.317   5.146
 1833TIP3   OH2 5504   0.538   5.510   0.432
 1833TIP3    H1 5505   0.487   5.482   0.508
 1833TIP3    H2 5506   0.570   5.428   0.394
 1834TIP3   OH2 5507   4.985   4.803   2.986
 1834TIP3    H1 5508   5.076   4.816   2.960
 1834TIP3    H2 5509   4.960   4.719   2.947
 1835TIP3   OH2 5510   0.799   5.466   0.107
 1835TIP3    H1 5511   0.838   5.551   0.127
 1835TIP3    H2 5512   0.765   5.435   0.191
 1836TIP3   OH2 5513   3.066   0.012   1.967
 1836TIP3    H1 5514   2.972   0.004   1.952
 1836TIP3    H2 5515   3.089   0.098   1.930
 1837TIP3   OH2 5516   0.937   4.791   1.783
 1837TIP3    H1 5517   0.926   4.699   1.761
 1837TIP3    H2 5518   0.853   4.831   1.761
 1838TIP3   OH2 5519   1.226   4.863   4.786
 1838TIP3    H1 5520   1.175   4.879   4.866
 1838TIP3    H2 5521   1.164   4.876   4.715
 1839TIP3   OH2 5522   2.257   3.273   1.318
 1839TIP3    H1 5523   2.298   3.341   1.264
 1839TIP3    H2 5524   2.184   3.241   1.264
 1840TIP3   OH2 5525   4.851   0.853   5.011
 1840TIP3    H1 5526   4.822   0.938   5.044
 1840TIP3    H2 5527   4.928   0.832   5.065
 1841TIP3   OH2 5528   4.263   0.335   0.176
 1841TIP3    H1 5529   4.352   0.359   0.151
 1841TIP3    H2 5530   4.236   0.403   0.238
 1842TIP3   OH2 5531   4.605   1.444   1.082
 1842TIP3    H1 5532   4.551   1.496   1.021
 1842TIP3    H2 5533   4.694   1.473   1.065
 1843TIP3   OH2 5534   5.371   4.865   1.666
 1843TIP3    H1 5535   5.418   4.844   1.585
 1843TIP3    H2 5536   5.440   4.896   1.726
 1844TIP3   OH2 5537   2.592   3.171   4.752
 1844TIP3    H1 5538   2.586   3.079   4.728
 1844TIP3    H2 5539   2.555   3.175   4.840
 1845TIP3   OH2 5540   1.247   3.675   0.090
 1845TIP3    H1 5541   1.231   3.628   0.172
 1845TIP3    H2 5542   1.215   3.764   0.108
 1846TIP3   OH2 5543   0.820   0.283   2.831
 1846TIP3    H1 5544   0.764   0.357   2.808
 1846TIP3    H2 5545   0.901   0.298   2.782
 1847TIP3   OH2 5546   4.076   0.518   1.969
 1847TIP3    H1 5547   4.168   0.505   1.950
 1847TIP3    H2 5548   4.044   0.433   1.997
 1848TIP3   OH2 5549   1.742   4.364   2.086
 1848TIP3    H1 5550   1.656   4.402   2.104
 1848TIP3    H2 5551   1.763   4.392   1.997
 1849TIP3   OH2 5552   0.860   2.415   5.068
 1849TIP3    H1 5553   0.829   2.447   5.152
 1849TIP3    H2 5554   0.950   2.447   5.062
 1850TIP3   OH2 5555   0.565   3.322   2.348
 1850TIP3    H1 5556   0.483   3.275   2.336
 1850TIP3    H2 5557   0.632   3.262   2.317
 1851TIP3   OH2 5558   1.919   2.349   4.433
 1851TIP3    H1 5559   1.824   2.338   4.433
 1851TIP3    H2 5560   1.936   2.418   4.497
 1852TIP3   OH2 5561   0.613   5.376   4.576
 1852TIP3    H1 5562   0.523   5.378   4.544
 1852TIP3    H2 5563   0.605   5.381   4.671
 1853TIP3   OH2 5564   6.088   5.712   1.061
 1853TIP3    H1 5565   6.088   5.643   1.127
 1853TIP3    H2 5566   5.996   5.720   1.035
 1854TIP3   OH2 5567   2.329   4.385   0.649
 1854TIP3    H1 5568   2.396   4.346   0.704
 1854TIP3    H2 5569   2.295   4.458   0.701
 1855TIP3   OH2 5570   4.879   0.114   3.361
 1855TIP3    H1 5571   4.805   0.132   3.304
 1855TIP3    H2 5572   4.899   0.022   3.346
 1856TIP3   OH2 5573   0.105   4.651   0.278
 1856TIP3    H1 5574   0.091   4.557   0.270
 1856TIP3    H2 5575   0.029   4.682   0.327
 1857TIP3   OH2 5576   5.845   0.445   5.105
 1857TIP3    H1 5577   5.812   0.530   5.137
 1857TIP3    H2 5578   5.781   0.381   5.138
 1858TIP3   OH2 5579   0.227   2.247   3.266
 1858TIP3    H1 5580   0.216   2.152   3.254
 1858TIP3    H2 5581   0.319   2.258   3.291
 1859TIP3   OH2 5582   0.742   0.738   3.752
 1859TIP3    H1 5583   0.697   0.669   3.801
 1859TIP3    H2 5584   0.674   0.775   3.696
 1860TIP3   OH2 5585   5.100   2.766   3.110
 1860TIP3    H1 5586   5.083   2.859   3.124
 1860TIP3    H2 5587   5.153   2.740   3.185
 1861TIP3   OH2 5588   0.650   2.222   0.289
 1861TIP3    H1 5589   0.658   2.233   0.384
 1861TIP3    H2 5590   0.621   2.308   0.258
 1862TIP3   OH2 5591   4.640   0.740   0.912
 1862TIP3    H1 5592   4.683   0.687   0.844
 1862TIP3    H2 5593   4.647   0.830   0.880
 1863TIP3   OH2 5594   2.758   0.937   0.485
 1863TIP3    H1 5595   2.835   0.963   0.435
 1863TIP3    H2 5596   2.684   0.962   0.430
 1864TIP3   OH2 5597   2.277   0.697   4.605
 1864TIP3    H1 5598   2.366   0.733   4.604
 1864TIP3    H2 5599   2.257   0.684   4.698
 1865TIP3   OH2 5600   6.326   2.313   1.915
 1865TIP3    H1 5601   6.233   2.319   1.938
 1865TIP3    H2 5602   6.365   2.392   1.953
 1866TIP3   OH2 5603   2.512   0.712   3.703
 1866TIP3    H1 5604   2.540   0.621   3.707
 1866TIP3    H2 5605   2.594   0.762   3.695
 1867TIP3   OH2 5606   0.575   1.475   1.234
 1867TIP3    H1 5607   0.523   1.444   1.160
 1867TIP3    H2 5608   0.533   1.556   1.261
 1868TIP3   OH2 5609   5.156   2.554   1.598
 1868TIP3    H1 5610   5.115   2.475   1.563
 1868TIP3    H2 5611   5.164   2.612   1.523
 1869TIP3   OH2 5612   3.130   2.838   5.040
 1869TIP3    H1 5613   3.121   2.761   4.984
 1869TIP3    H2 5614   3.183   2.807   5.114
 1870TIP3   OH2 5615   1.640   3.653   4.170
 1870TIP3    H1 5616   1.571   3.614   4.117
 1870TIP3    H2 5617   1.594   3.693   4.244
 1871TIP3   OH2 5618   4.773   0.910   3.346
 1871TIP3    H1 5619   4.801   0.838   3.289
 1871TIP3    H2 5620   4.691   0.879   3.386
 1872TIP3   OH2 5621   1.073   3.845   0.522
 1872TIP3    H1 5622   1.097   3.933   0.552
 1872TIP3    H2 5623   1.094   3.845   0.429
 1873TIP3   OH2 5624   0.526   3.465   2.084
 1873TIP3    H1 5625   0.565   3.452   2.171
 1873TIP3    H2 5626   0.598   3.448   2.023
 1874TIP3   OH2 5627  -0.015   1.500   5.153
 1874TIP3    H1 5628   0.053   1.528   5.092
 1874TIP3    H2 5629   0.032   1.476   5.233
 1875TIP3   OH2 5630   2.747   5.377   0.631
 1875TIP3    H1 5631   2.670   5.329   0.600
 1875TIP3    H2 5632   2.711   5.440   0.694
 1876TIP3   OH2 5633   4.071   3.261   4.169
 1876TIP3    H1 5634   4.111   3.235   4.086
 1876TIP3    H2 5635   3.979   3.238   4.159
 1877TIP3   OH2 5636   4.588   1.700   3.705
 1877TIP3    H1 5637   4.617   1.610   3.685
 1877TIP3    H2 5638   4.634   1.723   3.786
 1878TIP3   OH2 5639   0.970   2.520   1.508
 1878TIP3    H1 5640   0.890   2.535   1.457
 1878TIP3    H2 5641   0.942   2.467   1.582
 1879TIP3   OH2 5642   2.282   4.458   2.723
 1879TIP3    H1 5643   2.232   4.539   2.712
 1879TIP3    H2 5644   2.361   4.470   2.671
 1880TIP3   OH2 5645   5.966   1.858   2.287
 1880TIP3    H1 5646   6.052   1.832   2.253
 1880TIP3    H2 5647   5.926   1.776   2.316
 1881TIP3   OH2 5648   3.215   2.778   4.594
 1881TIP3    H1 5649   3.295   2.727   4.576
 1881TIP3    H2 5650   3.185   2.745   4.679
 1882TIP3   OH2 5651   1.116   3.329   2.962
 1882TIP3    H1 5652   1.055   3.256   2.973
 1882TIP3    H2 5653   1.202   3.291   2.977
 1883TIP3   OH2 5654   5.492   1.347   1.962
 1883TIP3    H1 5655   5.552   1.368   1.890
 1883TIP3    H2 5656   5.405   1.345   1.921
 1884TIP3   OH2 5657   6.304   3.505   4.247
 1884TIP3    H1 5658   6.387   3.460   4.233
 1884TIP3    H2 5659   6.247   3.438   4.284
 1885TIP3   OH2 5660   2.327   1.074   1.617
 1885TIP3    H1 5661   2.372   1.070   1.533
 1885TIP3    H2 5662   2.393   1.047   1.681
 1886TIP3   OH2 5663   4.121   2.650   0.295
 1886TIP3    H1 5664   4.161   2.602   0.222
 1886TIP3    H2 5665   4.179   2.634   0.369
 1887TIP3   OH2 5666   3.271   4.032   4.945
 1887TIP3    H1 5667   3.248   4.016   5.037
 1887TIP3    H2 5668   3.308   4.120   4.945
 1888TIP3   OH2 5669   1.331   0.975   3.186
 1888TIP3    H1 5670   1.351   0.887   3.154
 1888TIP3    H2 5671   1.405   1.028   3.158
 1889TIP3   OH2 5672   3.246   3.243   5.171
 1889TIP3    H1 5673   3.249   3.197   5.255
 1889TIP3    H2 5674   3.314   3.200   5.119
 1890TIP3   OH2 5675   0.168   5.702   1.697
 1890TIP3    H1 5676   0.154   5.634   1.632
 1890TIP3    H2 5677   0.102   5.769   1.677
 1891TIP3   OH2 5678   3.456   4.839   1.922
 1891TIP3    H1 5679   3.440   4.794   1.839
 1891TIP3    H2 5680   3.535   4.890   1.907
 1892TIP3   OH2 5681   4.657   5.032   4.422
 1892TIP3    H1 5682   4.712   5.064   4.493
 1892TIP3    H2 5683   4.633   4.943   4.449
 1893TIP3   OH2 5684   4.760   0.482   0.530
 1893TIP3    H1 5685   4.720   0.556   0.484
 1893TIP3    H2 5686   4.853   0.505   0.537
 1894TIP3   OH2 5687   5.639   3.073   4.434
 1894TIP3    H1 5688   5.652   3.087   4.528
 1894TIP3    H2 5689   5.590   2.991   4.428
 1895TIP3   OH2 5690   4.736   2.874   1.280
 1895TIP3    H1 5691   4.817   2.862   1.328
 1895TIP3    H2 5692   4.761   2.868   1.188
 1896TIP3   OH2 5693   5.686   3.426   2.172
 1896TIP3    H1 5694   5.770   3.383   2.158
 1896TIP3    H2 5695   5.627   3.384   2.110
 1897TIP3   OH2 5696   5.665   3.755   3.253
 1897TIP3    H1 5697   5.677   3.667   3.217
 1897TIP3    H2 5698   5.605   3.744   3.326
 1898TIP3   OH2 5699   3.651   3.724   2.922
 1898TIP3    H1 5700   3.622   3.760   2.838
 1898TIP3    H2 5701   3.746   3.723   2.917
 1899TIP3   OH2 5702   0.551   2.032   2.907
 1899TIP3    H1 5703   0.628   2.076   2.943
 1899TIP3    H2 5704   0.552   2.056   2.814
 1900TIP3   OH2 5705   3.501   2.453   0.498
 1900TIP3    H1 5706   3.434   2.402   0.453
 1900TIP3    H2 5707   3.542   2.392   0.559
 1901TIP3   OH2 5708   5.658   5.747   0.721
 1901TIP3    H1 5709   5.637   5.806   0.649
 1901TIP3    H2 5710   5.678   5.804   0.795
 1902TIP3   OH2 5711   2.103   3.567   2.862
 1902TIP3    H1 5712   2.091   3.640   2.924
 1902TIP3    H2 5713   2.111   3.609   2.777
 1903TIP3   OH2 5714   3.543   1.153   1.455
 1903TIP3    H1 5715   3.545   1.159   1.550
 1903TIP3    H2 5716   3.499   1.070   1.437
 1904TIP3   OH2 5717   3.088   2.000   1.670
 1904TIP3    H1 5718   3.024   1.950   1.720
 1904TIP3    H2 5719   3.074   1.973   1.579
 1905TIP3   OH2 5720   0.637   1.377   4.259
 1905TIP3    H1 5721   0.544   1.396   4.270
 1905TIP3    H2 5722   0.681   1.444   4.311
 1906TIP3   OH2 5723   0.129   2.726   0.587
 1906TIP3    H1 5724   0.099   2.733   0.678
 1906TIP3    H2 5725   0.059   2.679   0.543
 1907TIP3   OH2 5726   0.194   4.744   4.704
 1907TIP3    H1 5727   0.133   4.709   4.639
 1907TIP3    H2 5728   0.276   4.757   4.656
 1908TIP3   OH2 5729   3.720   5.815   0.845
 1908TIP3    H1 5730   3.709   5.847   0.935
 1908TIP3    H2 5731   3.736   5.894   0.793
 1909TIP3   OH2 5732   2.352   1.268   0.015
 1909TIP3    H1 5733   2.271   1.233   0.053
 1909TIP3    H2 5734   2.395   1.191  -0.022
 1910TIP3   OH2 5735   5.790   2.687   0.155
 1910TIP3    H1 5736   5.865   2.747   0.153
 1910TIP3    H2 5737   5.828   2.601   0.136
 1911TIP3   OH2 5738   2.846   5.057   3.625
 1911TIP3    H1 5739   2.939   5.045   3.643
 1911TIP3    H2 5740   2.840   5.147   3.590
 1912TIP3   OH2 5741   6.116   0.121   3.617
 1912TIP3    H1 5742   6.153   0.135   3.704
 1912TIP3    H2 5743   6.155   0.189   3.563
 1913TIP3   OH2 5744   3.766   0.197   0.425
 1913TIP3    H1 5745   3.672   0.181   0.421
 1913TIP3    H2 5746   3.799   0.168   0.340
 1914TIP3   OH2 5747   1.357   3.899   2.096
 1914TIP3    H1 5748   1.304   3.972   2.064
 1914TIP3    H2 5749   1.351   3.904   2.192
 1915TIP3   OH2 5750   1.609   2.795   1.273
 1915TIP3    H1 5751   1.614   2.772   1.181
 1915TIP3    H2 5752   1.666   2.732   1.317
 1916TIP3   OH2 5753   5.268   3.503   4.647
 1916TIP3    H1 5754   5.269   3.492   4.552
 1916TIP3    H2 5755   5.179   3.533   4.667
 1917TIP3   OH2 5756   0.265   3.204   3.858
 1917TIP3    H1 5757   0.296   3.115   3.840
 1917TIP3    H2 5758   0.182   3.210   3.811
 1918TIP3   OH2 5759   6.358   4.170   4.636
 1918TIP3    H1 5760   6.429   4.122   4.678
 1918TIP3    H2 5761   6.360   4.257   4.675
 1919TIP3   OH2 5762   5.609   1.756   2.759
 1919TIP3    H1 5763   5.640   1.818   2.694
 1919TIP3    H2 5764   5.638   1.670   2.727
 1920TIP3   OH2 5765   0.688   4.968   2.882
 1920TIP3    H1 5766   0.691   5.029   2.955
 1920TIP3    H2 5767   0.774   4.926   2.882
 1921TIP3   OH2 5768   5.335   1.153   1.519
 1921TIP3    H1 5769   5.351   1.145   1.614
 1921TIP3    H2 5770   5.365   1.069   1.483
 1922TIP3   OH2 5771   1.351   1.053   1.088
 1922TIP3    H1 5772   1.378   1.011   1.006
 1922TIP3    H2 5773   1.284   0.994   1.123
 1923TIP3   OH2 5774   1.300   4.961   3.069
 1923TIP3    H1 5775   1.304   4.913   3.152
 1923TIP3    H2 5776   1.209   4.953   3.041
 1924TIP3   OH2 5777   5.433   4.699   3.057
 1924TIP3    H1 5778   5.362   4.688   3.120
 1924TIP3    H2 5779   5.512   4.676   3.106
 1925TIP3   OH2 5780   5.586   1.074   4.523
 1925TIP3    H1 5781   5.599   1.069   4.428
 1925TIP3    H2 5782   5.637   1.001   4.558
 1926TIP3   OH2 5783   2.868   0.384   3.723
 1926TIP3    H1 5784   2.932   0.381   3.652
 1926TIP3    H2 5785   2.784   0.394   3.679
 1927TIP3   OH2 5786   3.580   5.733   5.184
 1927TIP3    H1 5787   3.564   5.764   5.094
 1927TIP3    H2 5788   3.551   5.642   5.184
 1928TIP3   OH2 5789   3.365   3.374   2.007
 1928TIP3    H1 5790   3.271   3.385   2.018
 1928TIP3    H2 5791   3.396   3.459   1.978
 1929TIP3   OH2 5792   0.063   2.232   0.643
 1929TIP3    H1 5793   0.151   2.192   0.638
 1929TIP3    H2 5794   0.003   2.159   0.629
 1930TIP3   OH2 5795   0.340   2.268   0.260
 1930TIP3    H1 5796   0.265   2.291   0.315
 1930TIP3    H2 5797   0.306   2.205   0.197
 1931TIP3   OH2 5798   3.367   2.209   5.064
 1931TIP3    H1 5799   3.328   2.171   5.142
 1931TIP3    H2 5800   3.450   2.162   5.054
 1932TIP3   OH2 5801   4.022   1.072   2.372
 1932TIP3    H1 5802   3.964   1.003   2.340
 1932TIP3    H2 5803   4.037   1.050   2.464
 1933TIP3   OH2 5804   6.190   2.256   1.658
 1933TIP3    H1 5805   6.126   2.327   1.656
 1933TIP3    H2 5806   6.247   2.276   1.732
 1934TIP3   OH2 5807   3.911   1.013   1.856
 1934TIP3    H1 5808   3.929   0.948   1.924
 1934TIP3    H2 5809   3.862   0.965   1.789
 1935TIP3   OH2 5810   5.548   5.101   0.570
 1935TIP3    H1 5811   5.485   5.094   0.642
 1935TIP3    H2 5812   5.604   5.174   0.595
 1936TIP3   OH2 5813   3.900   5.429   2.144
 1936TIP3    H1 5814   3.952   5.474   2.078
 1936TIP3    H2 5815   3.810   5.441   2.116
 1937TIP3   OH2 5816   3.700   3.937   3.384
 1937TIP3    H1 5817   3.637   3.879   3.341
 1937TIP3    H2 5818   3.663   4.024   3.375
 1938TIP3   OH2 5819   2.326   1.284   3.274
 1938TIP3    H1 5820   2.373   1.208   3.308
 1938TIP3    H2 5821   2.269   1.311   3.346
 1939TIP3   OH2 5822   1.531   4.254   3.534
 1939TIP3    H1 5823   1.591   4.255   3.459
 1939TIP3    H2 5824   1.553   4.333   3.584
 1940TIP3   OH2 5825   0.569   3.060   3.349
 1940TIP3    H1 5826   0.593   3.139   3.397
 1940TIP3    H2 5827   0.568   3.087   3.257
 1941TIP3   OH2 5828   0.185   4.775   2.702
 1941TIP3    H1 5829   0.147   4.779   2.790
 1941TIP3    H2 5830   0.137   4.841   2.652
 1942TIP3   OH2 5831   5.470   2.656   1.851
 1942TIP3    H1 5832   5.468   2.690   1.940
 1942TIP3    H2 5833   5.498   2.565   1.861
 1943TIP3   OH2 5834   2.488   1.655   3.850
 1943TIP3    H1 5835   2.404   1.639   3.892
 1943TIP3    H2 5836   2.466   1.701   3.768
 1944TIP3   OH2 5837   3.546   2.164   0.283
 1944TIP3    H1 5838   3.627   2.185   0.330
 1944TIP3    H2 5839   3.551   2.070   0.268
 1945TIP3   OH2 5840   5.266   2.401   4.882
 1945TIP3    H1 5841   5.357   2.371   4.891
 1945TIP3    H2 5842   5.229   2.345   4.813
 1946TIP3   OH2 5843   6.288   5.688   0.282
 1946TIP3    H1 5844   6.257   5.777   0.301
 1946TIP3    H2 5845   6.359   5.700   0.219
 1947TIP3   OH2 5846   0.773   2.322   3.255
 1947TIP3    H1 5847   0.854   2.371   3.270
 1947TIP3    H2 5848   0.748   2.290   3.341
 1948TIP3   OH2 5849   2.240   1.700   0.655
 1948TIP3    H1 5850   2.217   1.793   0.662
 1948TIP3    H2 5851   2.302   1.696   0.582
 1949TIP3   OH2 5852   3.651   1.303   4.317
 1949TIP3    H1 5853   3.624   1.391   4.289
 1949TIP3    H2 5854   3.714   1.319   4.388
 1950TIP3   OH2 5855   0.593   4.703   4.974
 1950TIP3    H1 5856   0.516   4.746   4.937
 1950TIP3    H2 5857   0.559   4.629   5.023
 1951TIP3   OH2 5858   1.859   5.404   3.488
 1951TIP3    H1 5859   1.931   5.352   3.453
 1951TIP3    H2 5860   1.815   5.439   3.410
 1952TIP3   OH2 5861   2.400   4.739   1.365
 1952TIP3    H1 5862   2.381   4.829   1.392
 1952TIP3    H2 5863   2.480   4.747   1.313
 1953TIP3   OH2 5864   0.223   3.162   2.784
 1953TIP3    H1 5865   0.140   3.132   2.820
 1953TIP3    H2 5866   0.204   3.249   2.749
 1954TIP3   OH2 5867   0.112   5.159   5.019
 1954TIP3    H1 5868   0.096   5.074   4.979
 1954TIP3    H2 5869   0.201   5.182   4.994
 1955TIP3   OH2 5870   4.210   1.398   1.644
 1955TIP3    H1 5871   4.169   1.311   1.653
 1955TIP3    H2 5872   4.157   1.443   1.580
 1956TIP3   OH2 5873   3.731   2.625   3.153
 1956TIP3    H1 5874   3.788   2.690   3.195
 1956TIP3    H2 5875   3.779   2.599   3.074
 1957TIP3   OH2 5876   4.073   4.710   2.712
 1957TIP3    H1 5877   4.004   4.704   2.778
 1957TIP3    H2 5878   4.034   4.671   2.633
 1958TIP3   OH2 5879   2.100   1.140   4.332
 1958TIP3    H1 5880   2.124   1.055   4.368
 1958TIP3    H2 5881   2.057   1.186   4.405
 1959TIP3   OH2 5882   0.338   4.495   1.412
 1959TIP3    H1 5883   0.312   4.403   1.411
 1959TIP3    H2 5884   0.269   4.541   1.365
 1960TIP3   OH2 5885   5.885   4.007   4.466
 1960TIP3    H1 5886   5.913   4.048   4.548
 1960TIP3    H2 5887   5.882   3.913   4.486
 1961TIP3   OH2 5888   0.122   2.624   1.135
 1961TIP3    H1 5889   0.211   2.610   1.104
 1961TIP3    H2 5890   0.070   2.636   1.055
 1962TIP3   OH2 5891   3.999   5.986   4.179
 1962TIP3    H1 5892   3.966   5.902   4.213
 1962TIP3    H2 5893   3.939   6.051   4.215
 1963TIP3   OH2 5894   2.511   1.023   0.890
 1963TIP3    H1 5895   2.462   1.071   0.824
 1963TIP3    H2 5896   2.445   0.970   0.935
 1964TIP3   OH2 5897   0.409   5.500   2.483
 1964TIP3    H1 5898   0.375   5.411   2.488
 1964TIP3    H2 5899   0.352   5.544   2.420
 1965TIP3   OH2 5900   0.228   0.247   0.999
 1965TIP3    H1 5901   0.161   0.227   0.934
 1965TIP3    H2 5902   0.307   0.202   0.967
 1966TIP3   OH2 5903   1.678   4.158   0.131
 1966TIP3    H1 5904   1.744   4.183   0.195
 1966TIP3    H2 5905   1.600   4.140   0.183
 1967TIP3   OH2 5906   3.508   2.084   4.765
 1967TIP3    H1 5907   3.468   2.000   4.740
 1967TIP3    H2 5908   3.601   2.063   4.777
 1968TIP3   OH2 5909   5.811   5.332   5.175
 1968TIP3    H1 5910   5.858   5.382   5.241
 1968TIP3    H2 5911   5.720   5.335   5.203
 1969TIP3   OH2 5912   3.677   1.385   1.414
 1969TIP3    H1 5913   3.627   1.305   1.400
 1969TIP3    H2 5914   3.618   1.455   1.385
 1970TIP3   OH2 5915   0.497   5.199   0.996
 1970TIP3    H1 5916   0.425   5.261   0.987
 1970TIP3    H2 5917   0.556   5.221   0.924
 1971TIP3   OH2 5918   3.402   4.262   3.179
 1971TIP3    H1 5919   3.360   4.178   3.160
 1971TIP3    H2 5920   3.454   4.281   3.101
 1972TIP3   OH2 5921   5.874   2.329   4.838
 1972TIP3    H1 5922   5.875   2.347   4.744
 1972TIP3    H2 5923   5.939   2.261   4.851
 1973TIP3   OH2 5924   1.984   5.052   2.574
 1973TIP3    H1 5925   2.034   4.972   2.591
 1973TIP3    H2 5926   2.001   5.107   2.650
 1974TIP3   OH2 5927   3.358   3.065   5.010
 1974TIP3    H1 5928   3.433   3.026   5.054
 1974TIP3    H2 5929   3.305   2.991   4.982
 1975TIP3   OH2 5930   4.524   5.813   4.903
 1975TIP3    H1 5931   4.539   5.719   4.895
 1975TIP3    H2 5932   4.607   5.848   4.935
 1976TIP3   OH2 5933   3.709   4.030   2.405
 1976TIP3    H1 5934   3.789   4.067   2.442
 1976TIP3    H2 5935   3.673   4.100   2.351
 1977TIP3   OH2 5936   0.915   4.841   2.347
 1977TIP3    H1 5937   0.921   4.888   2.430
 1977TIP3    H2 5938   0.826   4.805   2.346
 1978TIP3   OH2 5939   3.074   4.290   1.627
 1978TIP3    H1 5940   3.105   4.372   1.587
 1978TIP3    H2 5941   3.128   4.222   1.586
 1979TIP3   OH2 5942   4.214   3.212   0.138
 1979TIP3    H1 5943   4.250   3.275   0.076
 1979TIP3    H2 5944   4.145   3.167   0.090
 1980TIP3   OH2 5945   5.358   4.052   0.296
 1980TIP3    H1 5946   5.286   4.113   0.311
 1980TIP3    H2 5947   5.335   4.006   0.216
 1981TIP3   OH2 5948   2.441   1.120   0.414
 1981TIP3    H1 5949   2.440   1.202   0.462
 1981TIP3    H2 5950   2.363   1.074   0.443
 1982TIP3   OH2 5951   3.709   3.837   1.674
 1982TIP3    H1 5952   3.791   3.887   1.680
 1982TIP3    H2 5953   3.655   3.887   1.612
 1983TIP3   OH2 5954   3.398   0.349   2.278
 1983TIP3    H1 5955   3.392   0.253   2.278
 1983TIP3    H2 5956   3.453   0.369   2.202
 1984TIP3   OH2 5957   0.528   2.697   3.765
 1984TIP3    H1 5958   0.464   2.705   3.694
 1984TIP3    H2 5959   0.588   2.770   3.753
 1985TIP3   OH2 5960   5.950   4.232   1.042
 1985TIP3    H1 5961   5.862   4.209   1.070
 1985TIP3    H2 5962   5.950   4.215   0.947
 1986TIP3   OH2 5963   3.170   1.442   2.164
 1986TIP3    H1 5964   3.088   1.392   2.169
 1986TIP3    H2 5965   3.238   1.375   2.165
 1987TIP3   OH2 5966   0.010   1.126   3.576
 1987TIP3    H1 5967   0.094   1.125   3.530
 1987TIP3    H2 5968  -0.037   1.051   3.539
 1988TIP3   OH2 5969   5.661   5.794   3.491
 1988TIP3    H1 5970   5.566   5.786   3.497
 1988TIP3    H2 5971   5.676   5.857   3.420
 1989TIP3   OH2 5972   5.116   4.422   2.617
 1989TIP3    H1 5973   5.126   4.442   2.524
 1989TIP3    H2 5974   5.135   4.328   2.624
 1990TIP3   OH2 5975   2.461   0.404   2.862
 1990TIP3    H1 5976   2.476   0.361   2.947
 1990TIP3    H2 5977   2.498   0.344   2.798
 1991TIP3   OH2 5978   2.434   4.105   0.654
 1991TIP3    H1 5979   2.396   4.044   0.591
 1991TIP3    H2 5980   2.454   4.051   0.731
 1992TIP3   OH2 5981   4.474   2.234   0.339
 1992TIP3    H1 5982   4.406   2.256   0.276
 1992TIP3    H2 5983   4.426   2.215   0.420
 1993TIP3   OH2 5984   3.317   0.651   2.203
 1993TIP3    H1 5985   3.404   0.628   2.235
 1993TIP3    H2 5986   3.257   0.625   2.272
 1994TIP3   OH2 5987   2.751   1.551   1.896
 1994TIP3    H1 5988   2.703   1.526   1.818
 1994TIP3    H2 5989   2.686   1.594   1.952
 1995TIP3   OH2 5990   4.094   5.161   3.059
 1995TIP3    H1 5991   4.080   5.069   3.041
 1995TIP3    H2 5992   4.022   5.185   3.118
 1996TIP3   OH2 5993   2.191   4.861   2.577
 1996TIP3    H1 5994   2.246   4.808   2.520
 1996TIP3    H2 5995   2.252   4.906   2.636
 1997TIP3   OH2 5996   0.424   2.562   1.307
 1997TIP3    H1 5997   0.390   2.636   1.357
 1997TIP3    H2 5998   0.416   2.589   1.216
 1998TIP3   OH2 5999   4.375   4.608   1.723
 1998TIP3    H1 6000   4.332   4.544   1.667
 1998TIP3    H2 6001   4.467   4.582   1.723
 1999TIP3   OH2 6002   3.620   4.259   2.721
 1999TIP3    H1 6003   3.630   4.268   2.626
 1999TIP3    H2 6004   3.678   4.186   2.744
 2000TIP3   OH2 6005   1.349   2.206   3.057
 2000TIP3    H1 6006   1.285   2.275   3.039
 2000TIP3    H2 6007   1.297   2.132   3.088
 2001TIP3   OH2 6008   0.661   2.118   3.866
 2001TIP3    H1 6009   0.607   2.127   3.788
 2001TIP3    H2 6010   0.616   2.170   3.933
 2002TIP3   OH2 6011   5.254   2.717   2.165
 2002TIP3    H1 6012   5.338   2.671   2.156
 2002TIP3    H2 6013   5.201   2.685   2.091
 2003TIP3   OH2 6014   3.899   5.018   5.148
 2003TIP3    H1 6015   3.829   5.024   5.214
 2003TIP3    H2 6016   3.886   4.933   5.107
 2004TIP3   OH2 6017   5.602   0.191   2.781
 2004TIP3    H1 6018   5.697   0.185   2.781
 2004TIP3    H2 6019   5.579   0.221   2.868
 2005TIP3   OH2 6020   5.087   5.967   3.771
 2005TIP3    H1 6021   5.156   5.901   3.767
 2005TIP3    H2 6022   5.014   5.924   3.817
 2006TIP3   OH2 6023   4.491   3.705   2.948
 2006TIP3    H1 6024   4.480   3.624   2.997
 2006TIP3    H2 6025   4.550   3.683   2.877
 2007TIP3   OH2 6026   1.686   1.274   2.181
 2007TIP3    H1 6027   1.728   1.207   2.236
 2007TIP3    H2 6028   1.755   1.302   2.121
 2008TIP3   OH2 6029   3.249   4.918   0.427
 2008TIP3    H1 6030   3.340   4.895   0.408
 2008TIP3    H2 6031   3.254   4.992   0.487
 2009TIP3   OH2 6032   4.987   5.068   0.929
 2009TIP3    H1 6033   5.060   5.129   0.926
 2009TIP3    H2 6034   4.937   5.086   0.850
 2010TIP3   OH2 6035   4.854   5.532   3.578
 2010TIP3    H1 6036   4.762   5.552   3.595
 2010TIP3    H2 6037   4.854   5.487   3.494
 2011TIP3   OH2 6038   1.352   5.056   2.207
 2011TIP3    H1 6039   1.395   5.045   2.122
 2011TIP3    H2 6040   1.262   5.081   2.185
 2012TIP3   OH2 6041   5.181   0.517   0.559
 2012TIP3    H1 6042   5.272   0.502   0.587
 2012TIP3    H2 6043   5.177   0.477   0.472
 2013TIP3   OH2 6044   2.793   0.873   1.786
 2013TIP3    H1 6045   2.869   0.817   1.801
 2013TIP3    H2 6046   2.733   0.853   1.858
 2014TIP3   OH2 6047   5.670   4.015   0.874
 2014TIP3    H1 6048   5.763   3.993   0.880
 2014TIP3    H2 6049   5.654   4.069   0.952
 2015TIP3   OH2 6050   4.072   0.793   4.957
 2015TIP3    H1 6051   4.059   0.734   5.031
 2015TIP3    H2 6052   4.111   0.738   4.889
 2016TIP3   OH2 6053   1.267   4.399   1.586
 2016TIP3    H1 6054   1.359   4.406   1.560
 2016TIP3    H2 6055   1.265   4.329   1.651
 2017TIP3   OH2 6056   2.147   3.882   3.926
 2017TIP3    H1 6057   2.198   3.846   3.999
 2017TIP3    H2 6058   2.213   3.911   3.863
 2018TIP3   OH2 6059   4.284   0.354   1.888
 2018TIP3    H1 6060   4.208   0.297   1.876
 2018TIP3    H2 6061   4.278   0.417   1.816
 2019TIP3   OH2 6062   2.158   5.029   3.867
 2019TIP3    H1 6063   2.238   4.983   3.891
 2019TIP3    H2 6064   2.093   4.998   3.930
 2020TIP3   OH2 6065   6.312   3.715   2.374
 2020TIP3    H1 6066   6.278   3.633   2.338
 2020TIP3    H2 6067   6.248   3.740   2.440
 2021TIP3   OH2 6068   3.424   5.362   1.376
 2021TIP3    H1 6069   3.360   5.311   1.425
 2021TIP3    H2 6070   3.390   5.451   1.378
 2022TIP3   OH2 6071   5.014   1.677   2.622
 2022TIP3    H1 6072   5.002   1.766   2.589
 2022TIP3    H2 6073   4.977   1.621   2.554
 2023TIP3   OH2 6074   2.678   0.304   0.167
 2023TIP3    H1 6075   2.762   0.333   0.131
 2023TIP3    H2 6076   2.689   0.209   0.178
 2024TIP3   OH2 6077   6.332   0.919   3.226
 2024TIP3    H1 6078   6.323   0.912   3.131
 2024TIP3    H2 6079   6.319   1.012   3.244
 2025TIP3   OH2 6080   5.060   1.316   3.780
 2025TIP3    H1 6081   4.981   1.298   3.830
 2025TIP3    H2 6082   5.055   1.259   3.704
 2026TIP3   OH2 6083   0.089   4.029   3.341
 2026TIP3    H1 6084   0.138   4.062   3.417
 2026TIP3    H2 6085   0.024   4.097   3.323
 2027TIP3   OH2 6086   2.594   3.748   3.169
 2027TIP3    H1 6087   2.628   3.834   3.194
 2027TIP3    H2 6088   2.642   3.725   3.090
 2028TIP3   OH2 6089   1.051   2.825   2.154
 2028TIP3    H1 6090   1.036   2.749   2.210
 2028TIP3    H2 6091   1.123   2.872   2.196
 2029TIP3   OH2 6092   0.616   4.400   2.298
 2029TIP3    H1 6093   0.521   4.390   2.290
 2029TIP3    H2 6094   0.644   4.321   2.345
 2030TIP3   OH2 6095   4.260   2.265   4.331
 2030TIP3    H1 6096   4.212   2.183   4.326
 2030TIP3    H2 6097   4.200   2.331   4.296
 2031TIP3   OH2 6098   1.212   4.832   2.585
 2031TIP3    H1 6099   1.177   4.921   2.582
 2031TIP3    H2 6100   1.306   4.844   2.593
 2032TIP3   OH2 6101   6.091   5.279   3.057
 2032TIP3    H1 6102   6.044   5.216   3.003
 2032TIP3    H2 6103   6.128   5.342   2.996
 2033TIP3   OH2 6104   3.163   3.144   0.411
 2033TIP3    H1 6105   3.215   3.224   0.405
 2033TIP3    H2 6106   3.189   3.092   0.334
 2034TIP3   OH2 6107   2.236   1.113   2.336
 2034TIP3    H1 6108   2.303   1.164   2.382
 2034TIP3    H2 6109   2.155   1.132   2.383
 2035TIP3   OH2 6110   2.138   1.807   2.903
 2035TIP3    H1 6111   2.101   1.736   2.956
 2035TIP3    H2 6112   2.231   1.785   2.895
 2036TIP3   OH2 6113   5.056   3.194   0.671
 2036TIP3    H1 6114   5.088   3.224   0.756
 2036TIP3    H2 6115   4.973   3.240   0.659
 2037TIP3   OH2 6116   2.726   0.606   0.911
 2037TIP3    H1 6117   2.703   0.612   0.818
 2037TIP3    H2 6118   2.714   0.513   0.933
 2038TIP3   OH2 6119   0.577   2.478   3.113
 2038TIP3    H1 6120   0.636   2.404   3.127
 2038TIP3    H2 6121   0.565   2.481   3.018
 2039TIP3   OH2 6122   3.360   5.172   4.084
 2039TIP3    H1 6123   3.397   5.162   3.996
 2039TIP3    H2 6124   3.266   5.184   4.069
 2040TIP3   OH2 6125   5.352   3.182   4.372
 2040TIP3    H1 6126   5.320   3.237   4.301
 2040TIP3    H2 6127   5.443   3.211   4.385
 2041TIP3   OH2 6128   2.696   1.204   4.428
 2041TIP3    H1 6129   2.653   1.167   4.351
 2041TIP3    H2 6130   2.683   1.139   4.497
 2042TIP3   OH2 6131   5.727   5.875   4.983
 2042TIP3    H1 6132   5.692   5.911   5.065
 2042TIP3    H2 6133   5.788   5.807   5.011
 2043TIP3   OH2 6134   6.216   2.549   2.899
 2043TIP3    H1 6135   6.222   2.456   2.877
 2043TIP3    H2 6136   6.169   2.551   2.983
 2044TIP3   OH2 6137   2.780   0.886   3.688
 2044TIP3    H1 6138   2.797   0.938   3.610
 2044TIP3    H2 6139   2.865   0.847   3.709
 2045TIP3   OH2 6140   5.444   1.434   0.612
 2045TIP3    H1 6141   5.537   1.449   0.594
 2045TIP3    H2 6142   5.437   1.429   0.707
 2046TIP3   OH2 6143   1.724   5.141   2.670
 2046TIP3    H1 6144   1.807   5.110   2.635
 2046TIP3    H2 6145   1.694   5.070   2.727
 2047TIP3   OH2 6146   4.846   2.572   1.794
 2047TIP3    H1 6147   4.852   2.626   1.715
 2047TIP3    H2 6148   4.823   2.485   1.762
 2048TIP3   OH2 6149   4.047   1.717   1.966
 2048TIP3    H1 6150   3.996   1.644   1.930
 2048TIP3    H2 6151   4.127   1.675   1.999
 2049TIP3   OH2 6152   1.312   2.592   4.962
 2049TIP3    H1 6153   1.297   2.579   4.868
 2049TIP3    H2 6154   1.363   2.673   4.966
 2050TIP3   OH2 6155   0.842   3.323   3.920
 2050TIP3    H1 6156   0.853   3.330   4.014
 2050TIP3    H2 6157   0.920   3.276   3.890
 2051TIP3   OH2 6158   2.555   3.184   3.365
 2051TIP3    H1 6159   2.556   3.231   3.448
 2051TIP3    H2 6160   2.598   3.101   3.384
 2052TIP3   OH2 6161   5.302   3.484   5.066
 2052TIP3    H1 6162   5.207   3.487   5.070
 2052TIP3    H2 6163   5.331   3.566   5.106
 2053TIP3   OH2 6164   1.579   2.055   0.123
 2053TIP3    H1 6165   1.539   2.140   0.142
 2053TIP3    H2 6166   1.505   1.994   0.122
 2054TIP3   OH2 6167   1.521   2.907   0.673
 2054TIP3    H1 6168   1.540   2.823   0.715
 2054TIP3    H2 6169   1.438   2.935   0.712
 2055TIP3   OH2 6170   2.450   4.669   4.651
 2055TIP3    H1 6171   2.386   4.600   4.666
 2055TIP3    H2 6172   2.532   4.634   4.684
 2056TIP3   OH2 6173   4.477   5.841   1.442
 2056TIP3    H1 6174   4.478   5.746   1.451
 2056TIP3    H2 6175   4.559   5.870   1.483
 2057TIP3   OH2 6176   1.410   1.274   0.318
 2057TIP3    H1 6177   1.440   1.234   0.399
 2057TIP3    H2 6178   1.358   1.350   0.346
 2058TIP3   OH2 6179   0.499   3.951   4.251
 2058TIP3    H1 6180   0.564   3.969   4.319
 2058TIP3    H2 6181   0.540   3.883   4.197
 2059TIP3   OH2 6182   1.714   3.864   3.628
 2059TIP3    H1 6183   1.674   3.807   3.562
 2059TIP3    H2 6184   1.801   3.827   3.642
 2060TIP3   OH2 6185   4.085   5.368   4.425
 2060TIP3    H1 6186   4.075   5.388   4.518
 2060TIP3    H2 6187   4.071   5.274   4.419
 2061TIP3   OH2 6188   0.811   3.094   3.554
 2061TIP3    H1 6189   0.885   3.149   3.576
 2061TIP3    H2 6190   0.821   3.076   3.460
 2062TIP3   OH2 6191   3.059   2.214   0.317
 2062TIP3    H1 6192   2.971   2.250   0.301
 2062TIP3    H2 6193   3.086   2.180   0.232
 2063TIP3   OH2 6194   5.754   4.625   2.342
 2063TIP3    H1 6195   5.692   4.698   2.342
 2063TIP3    H2 6196   5.794   4.626   2.255
 2064TIP3   OH2 6197   5.855   5.412   2.234
 2064TIP3    H1 6198   5.935   5.363   2.256
 2064TIP3    H2 6199   5.802   5.409   2.313
 2065TIP3   OH2 6200   4.985   4.496   2.865
 2065TIP3    H1 6201   4.896   4.500   2.828
 2065TIP3    H2 6202   5.042   4.479   2.790
 2066TIP3   OH2 6203   6.286   2.480   5.170
 2066TIP3    H1 6204   6.282   2.400   5.224
 2066TIP3    H2 6205   6.351   2.461   5.103
 2067TIP3   OH2 6206   1.677   1.349   3.252
 2067TIP3    H1 6207   1.688   1.265   3.298
 2067TIP3    H2 6208   1.615   1.329   3.182
 2068TIP3   OH2 6209   3.652   0.618   3.971
 2068TIP3    H1 6210   3.645   0.690   4.034
 2068TIP3    H2 6211   3.667   0.661   3.887
 2069TIP3   OH2 6212   1.861   5.729   1.943
 2069TIP3    H1 6213   1.855   5.664   2.014
 2069TIP3    H2 6214   1.923   5.691   1.881
 2070TIP3   OH2 6215   4.757   0.660   3.871
 2070TIP3    H1 6216   4.770   0.750   3.842
 2070TIP3    H2 6217   4.816   0.608   3.817
 2071TIP3   OH2 6218   5.506   0.461   4.030
 2071TIP3    H1 6219   5.480   0.443   3.940
 2071TIP3    H2 6220   5.578   0.524   4.021
 2072TIP3   OH2 6221   1.690   4.647   0.164
 2072TIP3    H1 6222   1.682   4.733   0.206
 2072TIP3    H2 6223   1.633   4.652   0.087
 2073TIP3   OH2 6224   5.630   3.636   1.975
 2073TIP3    H1 6225   5.595   3.721   2.003
 2073TIP3    H2 6226   5.662   3.596   2.056
 2074TIP3   OH2 6227   3.050   3.905   0.751
 2074TIP3    H1 6228   3.119   3.840   0.737
 2074TIP3    H2 6229   3.094   3.989   0.738
 2075TIP3   OH2 6230   2.712   2.770   1.091
 2075TIP3    H1 6231   2.658   2.691   1.089
 2075TIP3    H2 6232   2.708   2.804   1.002
 2076TIP3   OH2 6233   2.658   5.755   0.471
 2076TIP3    H1 6234   2.602   5.808   0.414
 2076TIP3    H2 6235   2.604   5.680   0.494
 2077TIP3   OH2 6236   3.297   4.438   0.946
 2077TIP3    H1 6237   3.359   4.483   0.889
 2077TIP3    H2 6238   3.264   4.365   0.894
 2078TIP3   OH2 6239   3.916   1.012   4.935
 2078TIP3    H1 6240   3.837   0.979   4.892
 2078TIP3    H2 6241   3.973   0.936   4.942
 2079TIP3   OH2 6242   4.107   5.148   1.718
 2079TIP3    H1 6243   4.189   5.121   1.678
 2079TIP3    H2 6244   4.090   5.235   1.683
 2080TIP3   OH2 6245   4.619   2.138   3.833
 2080TIP3    H1 6246   4.596   2.138   3.740
 2080TIP3    H2 6247   4.661   2.223   3.847
 2081TIP3   OH2 6248   1.472   4.049   2.705
 2081TIP3    H1 6249   1.415   4.008   2.641
 2081TIP3    H2 6250   1.524   4.112   2.655
 2082TIP3   OH2 6251   3.792   0.839   0.659
 2082TIP3    H1 6252   3.741   0.826   0.739
 2082TIP3    H2 6253   3.772   0.763   0.605
 2083TIP3   OH2 6254   4.663   3.928   2.948
 2083TIP3    H1 6255   4.591   3.871   2.975
 2083TIP3    H2 6256   4.738   3.870   2.937
 2084TIP3   OH2 6257   5.988   0.683   0.102
 2084TIP3    H1 6258   6.068   0.639   0.133
 2084TIP3    H2 6259   5.948   0.717   0.182
 2085TIP3   OH2 6260   5.052   5.850   2.715
 2085TIP3    H1 6261   5.040   5.876   2.624
 2085TIP3    H2 6262   5.146   5.838   2.724
 2086TIP3   OH2 6263   4.586   1.811   2.264
 2086TIP3    H1 6264   4.592   1.897   2.222
 2086TIP3    H2 6265   4.501   1.812   2.308
 2087TIP3   OH2 6266   4.200   5.360   3.237
 2087TIP3    H1 6267   4.128   5.376   3.299
 2087TIP3    H2 6268   4.175   5.279   3.192
 2088TIP3   OH2 6269   2.837   0.922   3.185
 2088TIP3    H1 6270   2.909   0.983   3.168
 2088TIP3    H2 6271   2.880   0.843   3.217
 2089TIP3   OH2 6272   4.487   2.854   0.656
 2089TIP3    H1 6273   4.475   2.948   0.669
 2089TIP3    H2 6274   4.551   2.847   0.585
 2090TIP3   OH2 6275   1.600   4.057   3.768
 2090TIP3    H1 6276   1.635   3.969   3.757
 2090TIP3    H2 6277   1.564   4.080   3.682
 2091TIP3   OH2 6278   4.821   1.290   2.216
 2091TIP3    H1 6279   4.816   1.326   2.128
 2091TIP3    H2 6280   4.803   1.196   2.205
 2092TIP3   OH2 6281   5.222   4.629   3.207
 2092TIP3    H1 6282   5.201   4.627   3.300
 2092TIP3    H2 6283   5.149   4.584   3.165
 2093TIP3   OH2 6284   1.437   2.352   0.182
 2093TIP3    H1 6285   1.512   2.409   0.199
 2093TIP3    H2 6286   1.411   2.374   0.093
 2094TIP3   OH2 6287   5.326   5.889   2.756
 2094TIP3    H1 6288   5.411   5.913   2.791
 2094TIP3    H2 6289   5.331   5.912   2.663
 2095TIP3   OH2 6290   4.438   4.391   4.603
 2095TIP3    H1 6291   4.388   4.469   4.625
 2095TIP3    H2 6292   4.486   4.370   4.684
 2096TIP3   OH2 6293   4.889   4.067   2.686
 2096TIP3    H1 6294   4.967   4.073   2.631
 2096TIP3    H2 6295   4.909   3.997   2.749
 2097TIP3   OH2 6296   0.157   4.070   2.585
 2097TIP3    H1 6297   0.152   3.976   2.566
 2097TIP3    H2 6298   0.070   4.091   2.619
 2098TIP3   OH2 6299   0.986   3.964   2.333
 2098TIP3    H1 6300   1.050   4.011   2.387
 2098TIP3    H2 6301   0.950   4.031   2.275
 2099TIP3   OH2 6302   3.589   1.983   5.083
 2099TIP3    H1 6303   3.534   1.909   5.058
 2099TIP3    H2 6304   3.641   2.001   5.005
 2100TIP3   OH2 6305   0.218   1.645   4.286
 2100TIP3    H1 6306   0.166   1.565   4.292
 2100TIP3    H2 6307   0.294   1.629   4.341
 2101TIP3   OH2 6308   3.691   3.423   2.528
 2101TIP3    H1 6309   3.655   3.337   2.545
 2101TIP3    H2 6310   3.695   3.430   2.433
 2102TIP3   OH2 6311   4.889   3.150   0.175
 2102TIP3    H1 6312   4.910   3.077   0.117
 2102TIP3    H2 6313   4.838   3.210   0.120
 2103TIP3   OH2 6314   3.618   1.690   3.585
 2103TIP3    H1 6315   3.658   1.777   3.587
 2103TIP3    H2 6316   3.692   1.631   3.572
 2104TIP3   OH2 6317   1.916   5.423   0.525
 2104TIP3    H1 6318   1.951   5.487   0.586
 2104TIP3    H2 6319   1.992   5.392   0.476
 2105TIP3   OH2 6320   2.781   2.010   4.285
 2105TIP3    H1 6321   2.809   2.082   4.341
 2105TIP3    H2 6322   2.686   2.019   4.278
 2106TIP3   OH2 6323   2.184   5.478   4.375
 2106TIP3    H1 6324   2.158   5.506   4.463
 2106TIP3    H2 6325   2.114   5.512   4.318
 2107TIP3   OH2 6326   3.858   1.294   4.497
 2107TIP3    H1 6327   3.947   1.328   4.487
 2107TIP3    H2 6328   3.865   1.229   4.567
 2108TIP3   OH2 6329   1.518   3.588   1.935
 2108TIP3    H1 6330   1.446   3.615   1.992
 2108TIP3    H2 6331   1.578   3.541   1.993
 2109TIP3   OH2 6332   0.765   3.062   0.091
 2109TIP3    H1 6333   0.794   3.083   0.180
 2109TIP3    H2 6334   0.841   3.018   0.051
 2110TIP3   OH2 6335   1.145   4.283   3.257
 2110TIP3    H1 6336   1.057   4.256   3.281
 2110TIP3    H2 6337   1.203   4.236   3.317
 2111TIP3   OH2 6338   0.785   5.453   0.658
 2111TIP3    H1 6339   0.711   5.494   0.703
 2111TIP3    H2 6340   0.846   5.433   0.729
 2112TIP3   OH2 6341   0.459   5.231   4.116
 2112TIP3    H1 6342   0.534   5.284   4.143
 2112TIP3    H2 6343   0.395   5.294   4.085
 2113TIP3   OH2 6344   2.419   2.144   3.687
 2113TIP3    H1 6345   2.357   2.211   3.659
 2113TIP3    H2 6346   2.374   2.061   3.671
 2114TIP3   OH2 6347   3.606   3.148   4.679
 2114TIP3    H1 6348   3.588   3.190   4.595
 2114TIP3    H2 6349   3.581   3.056   4.666
 2115TIP3   OH2 6350   4.128   5.154   3.983
 2115TIP3    H1 6351   4.181   5.086   4.024
 2115TIP3    H2 6352   4.125   5.225   4.047
 2116TIP3   OH2 6353   3.592   5.871   1.832
 2116TIP3    H1 6354   3.571   5.905   1.745
 2116TIP3    H2 6355   3.566   5.779   1.828
 2117TIP3   OH2 6356   0.956   4.477   2.303
 2117TIP3    H1 6357   0.955   4.483   2.207
 2117TIP3    H2 6358   0.888   4.538   2.331
 2118TIP3   OH2 6359   5.213   0.801   2.151
 2118TIP3    H1 6360   5.232   0.717   2.109
 2118TIP3    H2 6361   5.212   0.781   2.245
 2119TIP3   OH2 6362   6.052   3.061   1.756
 2119TIP3    H1 6363   5.968   3.020   1.735
 2119TIP3    H2 6364   6.062   3.129   1.689
 2120TIP3   OH2 6365   3.459   3.533   1.213
 2120TIP3    H1 6366   3.389   3.497   1.268
 2120TIP3    H2 6367   3.454   3.627   1.227
 2121TIP3   OH2 6368   1.076   4.752   2.166
 2121TIP3    H1 6369   1.046   4.819   2.227
 2121TIP3    H2 6370   0.997   4.703   2.143
 2122TIP3   OH2 6371   4.941   0.271   1.480
 2122TIP3    H1 6372   4.892   0.253   1.561
 2122TIP3    H2 6373   5.023   0.224   1.492
 2123TIP3   OH2 6374   4.159   3.403   4.854
 2123TIP3    H1 6375   4.153   3.490   4.814
 2123TIP3    H2 6376   4.104   3.347   4.799
 2124TIP3   OH2 6377   6.034   4.703   4.863
 2124TIP3    H1 6378   6.068   4.759   4.933
 2124TIP3    H2 6379   6.084   4.727   4.786
 2125TIP3   OH2 6380   2.631   3.230   0.116
 2125TIP3    H1 6381   2.572   3.247   0.190
 2125TIP3    H2 6382   2.682   3.311   0.108
 2126TIP3   OH2 6383   5.113   2.770   3.628
 2126TIP3    H1 6384   5.112   2.692   3.573
 2126TIP3    H2 6385   5.098   2.843   3.569
 2127TIP3   OH2 6386   1.818   1.390   1.969
 2127TIP3    H1 6387   1.896   1.408   1.917
 2127TIP3    H2 6388   1.811   1.465   2.028
 2128TIP3   OH2 6389   4.706   1.114   2.630
 2128TIP3    H1 6390   4.785   1.116   2.683
 2128TIP3    H2 6391   4.737   1.105   2.540
 2129TIP3   OH2 6392   5.453   3.704   0.943
 2129TIP3    H1 6393   5.373   3.660   0.914
 2129TIP3    H2 6394   5.489   3.743   0.863
 2130TIP3   OH2 6395   4.902   3.306   3.074
 2130TIP3    H1 6396   4.863   3.220   3.063
 2130TIP3    H2 6397   4.897   3.346   2.987
 2131TIP3   OH2 6398   3.090   5.383   0.680
 2131TIP3    H1 6399   3.053   5.398   0.594
 2131TIP3    H2 6400   3.184   5.399   0.670
 2132TIP3   OH2 6401   5.659   4.768   5.168
 2132TIP3    H1 6402   5.580   4.815   5.142
 2132TIP3    H2 6403   5.637   4.675   5.159
 2133TIP3   OH2 6404   2.176   3.677   0.300
 2133TIP3    H1 6405   2.098   3.624   0.318
 2133TIP3    H2 6406   2.142   3.758   0.263
 2134TIP3   OH2 6407   6.312   3.400   3.060
 2134TIP3    H1 6408   6.270   3.338   3.001
 2134TIP3    H2 6409   6.241   3.432   3.116
 2135TIP3   OH2 6410   0.928   1.928   5.096
 2135TIP3    H1 6411   0.907   1.837   5.077
 2135TIP3    H2 6412   1.020   1.928   5.119
 2136TIP3   OH2 6413   4.840   5.705   0.645
 2136TIP3    H1 6414   4.750   5.676   0.632
 2136TIP3    H2 6415   4.872   5.723   0.556
 2137TIP3   OH2 6416   2.889   5.376   4.177
 2137TIP3    H1 6417   2.882   5.455   4.230
 2137TIP3    H2 6418   2.854   5.401   4.092
 2138TIP3   OH2 6419   4.601   6.005   2.585
 2138TIP3    H1 6420   4.666   5.942   2.615
 2138TIP3    H2 6421   4.545   5.955   2.526
 2139TIP3   OH2 6422   4.243   4.129   2.568
 2139TIP3    H1 6423   4.331   4.135   2.605
 2139TIP3    H2 6424   4.204   4.215   2.584
 2140TIP3   OH2 6425   0.998   1.955   0.413
 2140TIP3    H1 6426   1.077   1.997   0.378
 2140TIP3    H2 6427   0.999   1.974   0.506
 2141TIP3   OH2 6428   3.099   5.965   4.914
 2141TIP3    H1 6429   3.072   5.924   4.996
 2141TIP3    H2 6430   3.127   5.891   4.859
 2142TIP3   OH2 6431   1.973   5.395   1.577
 2142TIP3    H1 6432   1.893   5.439   1.604
 2142TIP3    H2 6433   1.992   5.334   1.649
 2143TIP3   OH2 6434   5.257   5.518   1.094
 2143TIP3    H1 6435   5.292   5.607   1.092
 2143TIP3    H2 6436   5.172   5.527   1.139
 2144TIP3   OH2 6437   1.038   0.348   1.097
 2144TIP3    H1 6438   1.036   0.437   1.062
 2144TIP3    H2 6439   1.092   0.354   1.176
 2145TIP3   OH2 6440   3.149   4.474   3.204
 2145TIP3    H1 6441   3.208   4.538   3.163
 2145TIP3    H2 6442   3.197   4.443   3.281
 2146TIP3   OH2 6443   0.583   0.857   1.773
 2146TIP3    H1 6444   0.493   0.824   1.775
 2146TIP3    H2 6445   0.617   0.838   1.861
 2147TIP3   OH2 6446   4.793   2.046   3.262
 2147TIP3    H1 6447   4.736   2.115   3.297
 2147TIP3    H2 6448   4.739   1.999   3.200
 2148TIP3   OH2 6449   5.760   3.430   0.083
 2148TIP3    H1 6450   5.737   3.506   0.030
 2148TIP3    H2 6451   5.855   3.421   0.074
 2149TIP3   OH2 6452   0.641   0.554   0.144
 2149TIP3    H1 6453   0.573   0.619   0.163
 2149TIP3    H2 6454   0.723   0.599   0.163
 2150TIP3   OH2 6455   2.574   0.376   4.221
 2150TIP3    H1 6456   2.639   0.360   4.290
 2150TIP3    H2 6457   2.490   0.362   4.264
 2151TIP3   OH2 6458   4.543   2.462   0.011
 2151TIP3    H1 6459   4.545   2.447  -0.084
 2151TIP3    H2 6460   4.624   2.510   0.030
 2152TIP3   OH2 6461   2.681   2.867   1.688
 2152TIP3    H1 6462   2.747   2.922   1.647
 2152TIP3    H2 6463   2.665   2.797   1.624
 2153TIP3   OH2 6464   2.154   2.435   1.280
 2153TIP3    H1 6465   2.088   2.438   1.211
 2153TIP3    H2 6466   2.104   2.440   1.362
 2154TIP3   OH2 6467   4.693   5.393   1.514
 2154TIP3    H1 6468   4.613   5.359   1.555
 2154TIP3    H2 6469   4.763   5.336   1.547
 2155TIP3   OH2 6470   2.707   3.338   4.585
 2155TIP3    H1 6471   2.660   3.285   4.650
 2155TIP3    H2 6472   2.655   3.417   4.576
 2156TIP3   OH2 6473   4.507   0.370   2.734
 2156TIP3    H1 6474   4.560   0.381   2.656
 2156TIP3    H2 6475   4.568   0.343   2.802
 2157TIP3   OH2 6476   5.384   1.911   3.970
 2157TIP3    H1 6477   5.395   1.986   3.911
 2157TIP3    H2 6478   5.289   1.902   3.981
 2158TIP3   OH2 6479   1.316   0.879   1.502
 2158TIP3    H1 6480   1.268   0.962   1.497
 2158TIP3    H2 6481   1.299   0.847   1.591
 2159TIP3   OH2 6482   3.898   1.199   0.209
 2159TIP3    H1 6483   3.844   1.129   0.173
 2159TIP3    H2 6484   3.893   1.269   0.144
 2160TIP3   OH2 6485   1.120   5.669   2.555
 2160TIP3    H1 6486   1.091   5.600   2.615
 2160TIP3    H2 6487   1.073   5.651   2.473
 2161TIP3   OH2 6488   6.138   1.092   2.061
 2161TIP3    H1 6489   6.075   1.135   2.003
 2161TIP3    H2 6490   6.204   1.160   2.079
 2162TIP3   OH2 6491   3.773   3.038   2.759
 2162TIP3    H1 6492   3.763   2.994   2.844
 2162TIP3    H2 6493   3.767   3.131   2.779
 2163TIP3   OH2 6494   4.088   1.702   4.028
 2163TIP3    H1 6495   4.111   1.703   3.935
 2163TIP3    H2 6496   4.096   1.610   4.054
 2164TIP3   OH2 6497   0.117   4.211   1.929
 2164TIP3    H1 6498   0.042   4.245   1.978
 2164TIP3    H2 6499   0.079   4.175   1.849
 2165TIP3   OH2 6500   2.757   1.293   3.974
 2165TIP3    H1 6501   2.699   1.225   3.939
 2165TIP3    H2 6502   2.734   1.371   3.925
 2166TIP3   OH2 6503   1.943   5.304   0.935
 2166TIP3    H1 6504   1.856   5.286   0.900
 2166TIP3    H2 6505   1.982   5.217   0.948
 2167TIP3   OH2 6506   0.534   5.593   5.137
 2167TIP3    H1 6507   0.612   5.576   5.084
 2167TIP3    H2 6508   0.569   5.628   5.219
 2168TIP3   OH2 6509   0.674   3.080   3.075
 2168TIP3    H1 6510   0.615   3.143   3.034
 2168TIP3    H2 6511   0.625   2.998   3.076
 2169TIP3   OH2 6512   3.545   5.043   1.668
 2169TIP3    H1 6513   3.489   5.120   1.671
 2169TIP3    H2 6514   3.576   5.032   1.758
 2170TIP3   OH2 6515   0.710   4.306   3.576
 2170TIP3    H1 6516   0.640   4.371   3.581
 2170TIP3    H2 6517   0.674   4.229   3.620
 2171TIP3   OH2 6518   4.429   5.222   3.511
 2171TIP3    H1 6519   4.346   5.213   3.558
 2171TIP3    H2 6520   4.416   5.299   3.455
 2172TIP3   OH2 6521   1.970   3.767   3.562
 2172TIP3    H1 6522   2.009   3.735   3.643
 2172TIP3    H2 6523   1.966   3.690   3.505
 2173TIP3   OH2 6524   2.918   0.667   2.562
 2173TIP3    H1 6525   2.931   0.639   2.652
 2173TIP3    H2 6526   2.925   0.763   2.566
 2174TIP3   OH2 6527   0.542   4.483   4.214
 2174TIP3    H1 6528   0.497   4.399   4.206
 2174TIP3    H2 6529   0.502   4.539   4.148
 2175TIP3   OH2 6530   0.718   2.768   2.106
 2175TIP3    H1 6531   0.775   2.730   2.172
 2175TIP3    H2 6532   0.720   2.705   2.033
 2176TIP3   OH2 6533   0.821   5.038   5.085
 2176TIP3    H1 6534   0.818   5.118   5.136
 2176TIP3    H2 6535   0.753   4.982   5.123
 2177TIP3   OH2 6536   2.522   4.555   1.597
 2177TIP3    H1 6537   2.465   4.480   1.580
 2177TIP3    H2 6538   2.503   4.615   1.525
 2178TIP3   OH2 6539   3.741   3.704   0.738
 2178TIP3    H1 6540   3.754   3.689   0.832
 2178TIP3    H2 6541   3.829   3.710   0.702
 2179TIP3   OH2 6542   6.053   4.306   5.119
 2179TIP3    H1 6543   5.983   4.350   5.072
 2179TIP3    H2 6544   6.109   4.269   5.050
 2180TIP3   OH2 6545   2.415   1.324   3.782
 2180TIP3    H1 6546   2.457   1.389   3.726
 2180TIP3    H2 6547   2.486   1.263   3.804
 2181TIP3   OH2 6548   2.639   3.825   1.589
 2181TIP3    H1 6549   2.603   3.754   1.535
 2181TIP3    H2 6550   2.636   3.790   1.678
 2182TIP3   OH2 6551   1.552   0.686   3.198
 2182TIP3    H1 6552   1.519   0.763   3.153
 2182TIP3    H2 6553   1.648   0.694   3.195
 2183TIP3   OH2 6554   1.946   1.523   1.769
 2183TIP3    H1 6555   1.872   1.578   1.740
 2183TIP3    H2 6556   1.977   1.482   1.688
 2184TIP3   OH2 6557   4.904   3.538   3.823
 2184TIP3    H1 6558   4.813   3.547   3.797
 2184TIP3    H2 6559   4.931   3.627   3.847
 2185TIP3   OH2 6560   3.813   1.884   3.562
 2185TIP3    H1 6561   3.817   1.876   3.657
 2185TIP3    H2 6562   3.840   1.974   3.544
 2186TIP3   OH2 6563   6.330   3.858   3.147
 2186TIP3    H1 6564   6.305   3.779   3.194
 2186TIP3    H2 6565   6.344   3.923   3.215
 2187TIP3   OH2 6566   4.469   3.074   4.568
 2187TIP3    H1 6567   4.494   3.087   4.477
 2187TIP3    H2 6568   4.476   3.161   4.608
 2188TIP3   OH2 6569   0.527   3.119   4.163
 2188TIP3    H1 6570   0.519   3.198   4.110
 2188TIP3    H2 6571   0.478   3.138   4.243
 2189TIP3   OH2 6572   4.515   4.589   0.862
 2189TIP3    H1 6573   4.498   4.530   0.789
 2189TIP3    H2 6574   4.546   4.670   0.821
 2190TIP3   OH2 6575   2.751   2.504   1.611
 2190TIP3    H1 6576   2.797   2.490   1.694
 2190TIP3    H2 6577   2.659   2.485   1.632
 2191TIP3   OH2 6578   2.829   2.420   0.558
 2191TIP3    H1 6579   2.819   2.484   0.488
 2191TIP3    H2 6580   2.791   2.463   0.635
 2192TIP3   OH2 6581   4.296   5.167   4.692
 2192TIP3    H1 6582   4.217   5.114   4.686
 2192TIP3    H2 6583   4.339   5.136   4.772
 2193TIP3   OH2 6584   4.251   0.688   3.811
 2193TIP3    H1 6585   4.299   0.682   3.893
 2193TIP3    H2 6586   4.307   0.742   3.755
 2194TIP3   OH2 6587   2.823   0.440   1.198
 2194TIP3    H1 6588   2.839   0.432   1.292
 2194TIP3    H2 6589   2.750   0.501   1.191
 2195TIP3   OH2 6590   0.222   4.121   0.631
 2195TIP3    H1 6591   0.265   4.067   0.697
 2195TIP3    H2 6592   0.142   4.072   0.609
 2196TIP3   OH2 6593   3.590   2.270   2.449
 2196TIP3    H1 6594   3.504   2.312   2.442
 2196TIP3    H2 6595   3.601   2.253   2.542
 2197TIP3   OH2 6596   1.424   2.665   4.147
 2197TIP3    H1 6597   1.340   2.619   4.143
 2197TIP3    H2 6598   1.488   2.600   4.120
 2198TIP3   OH2 6599   1.501   4.444   2.160
 2198TIP3    H1 6600   1.478   4.382   2.229
 2198TIP3    H2 6601   1.443   4.518   2.174
 2199TIP3   OH2 6602   4.530   5.385   1.172
 2199TIP3    H1 6603   4.595   5.364   1.105
 2199TIP3    H2 6604   4.507   5.300   1.211
 2200TIP3   OH2 6605   2.573   4.960   2.464
 2200TIP3    H1 6606   2.553   5.036   2.518
 2200TIP3    H2 6607   2.500   4.955   2.402
 2201TIP3   OH2 6608   1.780   2.269   4.784
 2201TIP3    H1 6609   1.773   2.176   4.804
 2201TIP3    H2 6610   1.713   2.285   4.718
 2202TIP3   OH2 6611   2.201   3.806   3.246
 2202TIP3    H1 6612   2.135   3.746   3.280
 2202TIP3    H2 6613   2.280   3.788   3.297
 2203TIP3   OH2 6614   5.710   5.521   0.386
 2203TIP3    H1 6615   5.783   5.485   0.335
 2203TIP3    H2 6616   5.719   5.480   0.472
 2204TIP3   OH2 6617   6.190   3.704   5.099
 2204TIP3    H1 6618   6.249   3.639   5.061
 2204TIP3    H2 6619   6.203   3.783   5.047
 2205TIP3   OH2 6620   1.451   0.693   1.054
 2205TIP3    H1 6621   1.419   0.616   1.100
 2205TIP3    H2 6622   1.380   0.716   0.994
 2206TIP3   OH2 6623   4.720   0.218   4.308
 2206TIP3    H1 6624   4.791   0.157   4.288
 2206TIP3    H2 6625   4.762   0.304   4.313
 2207TIP3   OH2 6626   3.765   2.139   3.332
 2207TIP3    H1 6627   3.759   2.220   3.281
 2207TIP3    H2 6628   3.859   2.121   3.335
 2208TIP3   OH2 6629   3.364   3.064   1.017
 2208TIP3    H1 6630   3.365   2.990   1.078
 2208TIP3    H2 6631   3.303   3.127   1.056
 2209TIP3   OH2 6632   3.413   5.793   3.481
 2209TIP3    H1 6633   3.326   5.808   3.518
 2209TIP3    H2 6634   3.432   5.701   3.499
 2210TIP3   OH2 6635   4.368   1.885   4.195
 2210TIP3    H1 6636   4.380   1.804   4.145
 2210TIP3    H2 6637   4.435   1.881   4.264
 2211TIP3   OH2 6638   0.414   2.363   4.260
 2211TIP3    H1 6639   0.335   2.371   4.206
 2211TIP3    H2 6640   0.415   2.442   4.314
 2212TIP3   OH2 6641   1.791   5.540   3.230
 2212TIP3    H1 6642   1.812   5.626   3.268
 2212TIP3    H2 6643   1.701   5.548   3.199
 2213TIP3   OH2 6644   4.689   2.169   0.642
 2213TIP3    H1 6645   4.718   2.197   0.729
 2213TIP3    H2 6646   4.674   2.075   0.650
 2214TIP3   OH2 6647   6.072   1.001   2.317
 2214TIP3    H1 6648   5.983   0.985   2.287
 2214TIP3    H2 6649   6.110   1.059   2.251
 2215TIP3   OH2 6650   3.907   2.109   0.024
 2215TIP3    H1 6651   3.952   2.171   0.082
 2215TIP3    H2 6652   3.814   2.131   0.032
 2216TIP3   OH2 6653   3.119   3.024   0.144
 2216TIP3    H1 6654   3.114   2.928   0.144
 2216TIP3    H2 6655   3.028   3.052   0.131
 2217TIP3   OH2 6656   6.306   0.875   0.907
 2217TIP3    H1 6657   6.362   0.798   0.920
 2217TIP3    H2 6658   6.223   0.839   0.875
 2218TIP3   OH2 6659   2.384   5.376   3.629
 2218TIP3    H1 6660   2.342   5.383   3.714
 2218TIP3    H2 6661   2.424   5.289   3.629
 2219TIP3   OH2 6662   2.635   5.545   4.760
 2219TIP3    H1 6663   2.577   5.619   4.777
 2219TIP3    H2 6664   2.591   5.496   4.690
 2220TIP3   OH2 6665   5.718   5.358   4.454
 2220TIP3    H1 6666   5.739   5.404   4.373
 2220TIP3    H2 6667   5.657   5.289   4.428
 2221TIP3   OH2 6668   3.114   0.652   0.968
 2221TIP3    H1 6669   3.195   0.701   0.979
 2221TIP3    H2 6670   3.055   0.690   1.033
 2222TIP3   OH2 6671   1.805   0.162   0.614
 2222TIP3    H1 6672   1.750   0.207   0.550
 2222TIP3    H2 6673   1.877   0.127   0.562
 2223TIP3   OH2 6674   2.237   2.741   3.122
 2223TIP3    H1 6675   2.289   2.665   3.148
 2223TIP3    H2 6676   2.225   2.790   3.203
 2224TIP3   OH2 6677   5.953   5.479   1.971
 2224TIP3    H1 6678   5.898   5.451   1.897
 2224TIP3    H2 6679   5.921   5.428   2.045
 2225TIP3   OH2 6680   1.543   2.677   1.938
 2225TIP3    H1 6681   1.496   2.609   1.987
 2225TIP3    H2 6682   1.486   2.754   1.945
 2226TIP3   OH2 6683   6.157   4.023   5.050
 2226TIP3    H1 6684   6.146   4.056   4.960
 2226TIP3    H2 6685   6.104   4.082   5.103
 2227TIP3   OH2 6686   5.048   5.367   2.375
 2227TIP3    H1 6687   5.126   5.422   2.385
 2227TIP3    H2 6688   5.021   5.347   2.465
 2228TIP3   OH2 6689   2.409   0.217   2.628
 2228TIP3    H1 6690   2.402   0.175   2.713
 2228TIP3    H2 6691   2.328   0.193   2.582
 2229TIP3   OH2 6692   5.467   1.964   1.954
 2229TIP3    H1 6693   5.509   1.985   1.870
 2229TIP3    H2 6694   5.540   1.958   2.016
 2230TIP3   OH2 6695   4.174   1.518   4.304
 2230TIP3    H1 6696   4.137   1.447   4.356
 2230TIP3    H2 6697   4.239   1.559   4.362
 2231TIP3   OH2 6698   2.171   4.909   0.554
 2231TIP3    H1 6699   2.126   4.888   0.473
 2231TIP3    H2 6700   2.251   4.954   0.527
 2232TIP3   OH2 6701   3.301   0.906   1.445
 2232TIP3    H1 6702   3.261   0.982   1.487
 2232TIP3    H2 6703   3.282   0.918   1.352
 2233TIP3   OH2 6704   1.947   5.467   4.876
 2233TIP3    H1 6705   2.026   5.415   4.892
 2233TIP3    H2 6706   1.952   5.491   4.784
 2234TIP3   OH2 6707   1.393   5.537   2.467
 2234TIP3    H1 6708   1.364   5.603   2.405
 2234TIP3    H2 6709   1.315   5.483   2.484
 2235TIP3   OH2 6710   4.809   3.773   5.007
 2235TIP3    H1 6711   4.870   3.846   5.007
 2235TIP3    H2 6712   4.823   3.730   5.092
 2236TIP3   OH2 6713   3.633   0.688   1.990
 2236TIP3    H1 6714   3.684   0.633   2.050
 2236TIP3    H2 6715   3.662   0.777   2.008
 2237TIP3   OH2 6716   2.930   0.066   3.019
 2237TIP3    H1 6717   2.928   0.006   3.093
 2237TIP3    H2 6718   2.937   0.153   3.058
 2238TIP3   OH2 6719   4.671   2.859   4.937
 2238TIP3    H1 6720   4.657   2.780   4.989
 2238TIP3    H2 6721   4.763   2.855   4.911
 2239TIP3   OH2 6722   0.300   3.622   4.272
 2239TIP3    H1 6723   0.266   3.558   4.209
 2239TIP3    H2 6724   0.395   3.612   4.267
 2240TIP3   OH2 6725   0.135   2.969   4.798
 2240TIP3    H1 6726   0.040   2.977   4.801
 2240TIP3    H2 6727   0.167   3.059   4.796
 2241TIP3   OH2 6728   5.076   3.399   3.674
 2241TIP3    H1 6729   5.006   3.412   3.738
 2241TIP3    H2 6730   5.145   3.354   3.723
 2242TIP3   OH2 6731   5.958   2.275   3.595
 2242TIP3    H1 6732   5.889   2.218   3.630
 2242TIP3    H2 6733   5.929   2.364   3.615
 2243TIP3   OH2 6734   0.770   1.678   4.249
 2243TIP3    H1 6735   0.716   1.652   4.174
 2243TIP3    H2 6736   0.726   1.756   4.284
 2244TIP3   OH2 6737   1.793   3.592   1.265
 2244TIP3    H1 6738   1.758   3.504   1.273
 2244TIP3    H2 6739   1.771   3.635   1.347
 2245TIP3   OH2 6740   5.664   0.199   5.137
 2245TIP3    H1 6741   5.663   0.194   5.042
 2245TIP3    H2 6742   5.574   0.183   5.163
 2246TIP3   OH2 6743   3.351   2.950   2.467
 2246TIP3    H1 6744   3.259   2.947   2.440
 2246TIP3    H2 6745   3.352   2.913   2.555
 2247TIP3   OH2 6746   1.904   0.858   3.631
 2247TIP3    H1 6747   1.939   0.946   3.645
 2247TIP3    H2 6748   1.965   0.818   3.568
 2248TIP3   OH2 6749   6.226   4.733   1.074
 2248TIP3    H1 6750   6.227   4.662   1.139
 2248TIP3    H2 6751   6.188   4.694   0.996
 2249TIP3   OH2 6752   2.181   0.225   0.826
 2249TIP3    H1 6753   2.188   0.268   0.741
 2249TIP3    H2 6754   2.113   0.275   0.872
 2250TIP3   OH2 6755   1.341   3.095   0.781
 2250TIP3    H1 6756   1.300   3.171   0.821
 2250TIP3    H2 6757   1.323   3.023   0.842
 2251TIP3   OH2 6758   2.844   3.081   3.598
 2251TIP3    H1 6759   2.779   3.136   3.641
 2251TIP3    H2 6760   2.910   3.064   3.665
 2252TIP3   OH2 6761   1.452   4.746   4.649
 2252TIP3    H1 6762   1.384   4.811   4.669
 2252TIP3    H2 6763   1.422   4.704   4.569
 2253TIP3   OH2 6764   2.705   1.417   0.981
 2253TIP3    H1 6765   2.801   1.413   0.979
 2253TIP3    H2 6766   2.684   1.509   0.997
 2254TIP3   OH2 6767   3.501   5.903   1.583
 2254TIP3    H1 6768   3.557   5.838   1.542
 2254TIP3    H2 6769   3.428   5.915   1.521
 2255TIP3   OH2 6770   4.527   1.952   4.879
 2255TIP3    H1 6771   4.501   2.040   4.852
 2255TIP3    H2 6772   4.446   1.901   4.875
 2256TIP3   OH2 6773   5.143   2.036   4.523
 2256TIP3    H1 6774   5.189   2.055   4.441
 2256TIP3    H2 6775   5.170   1.946   4.546
 2257TIP3   OH2 6776   3.695   0.770   3.415
 2257TIP3    H1 6777   3.626   0.710   3.385
 2257TIP3    H2 6778   3.688   0.846   3.356
 2258TIP3   OH2 6779   4.460   5.479   5.178
 2258TIP3    H1 6780   4.429   5.526   5.101
 2258TIP3    H2 6781   4.388   5.421   5.202
 2259TIP3   OH2 6782   1.881   4.123   3.752
 2259TIP3    H1 6783   1.918   4.041   3.719
 2259TIP3    H2 6784   1.786   4.111   3.746
 2260TIP3   OH2 6785   1.033   3.158   3.819
 2260TIP3    H1 6786   1.098   3.091   3.841
 2260TIP3    H2 6787   1.046   3.174   3.725
 2261TIP3   OH2 6788   5.504   3.342   5.168
 2261TIP3    H1 6789   5.482   3.250   5.151
 2261TIP3    H2 6790   5.423   3.390   5.151
 2262TIP3   OH2 6791   0.819   0.540   2.021
 2262TIP3    H1 6792   0.724   0.548   2.026
 2262TIP3    H2 6793   0.847   0.526   2.111
 2263TIP3   OH2 6794   4.261   2.946   2.081
 2263TIP3    H1 6795   4.350   2.909   2.083
 2263TIP3    H2 6796   4.215   2.893   2.016
 2264TIP3   OH2 6797   0.915   5.889   2.226
 2264TIP3    H1 6798   0.918   5.921   2.136
 2264TIP3    H2 6799   0.923   5.969   2.279
 2265TIP3   OH2 6800   1.038   2.333   4.220
 2265TIP3    H1 6801   0.954   2.377   4.208
 2265TIP3    H2 6802   1.018   2.240   4.210
 2266TIP3   OH2 6803   5.901   0.068   1.051
 2266TIP3    H1 6804   5.904  -0.017   1.095
 2266TIP3    H2 6805   5.853   0.125   1.112
 2267TIP3   OH2 6806   0.814   3.903   5.065
 2267TIP3    H1 6807   0.727   3.930   5.036
 2267TIP3    H2 6808   0.869   3.979   5.048
 2268TIP3   OH2 6809   5.778   0.917   1.675
 2268TIP3    H1 6810   5.731   0.855   1.619
 2268TIP3    H2 6811   5.773   1.000   1.628
 2269TIP3   OH2 6812   1.620   0.888   0.471
 2269TIP3    H1 6813   1.650   0.881   0.381
 2269TIP3    H2 6814   1.606   0.797   0.499
 2270TIP3   OH2 6815   0.813   2.875   3.807
 2270TIP3    H1 6816   0.761   2.944   3.848
 2270TIP3    H2 6817   0.849   2.915   3.728
 2271TIP3   OH2 6818   5.156   1.410   4.559
 2271TIP3    H1 6819   5.098   1.486   4.561
 2271TIP3    H2 6820   5.119   1.350   4.624
 2272TIP3   OH2 6821   4.789   1.400   2.562
 2272TIP3    H1 6822   4.838   1.341   2.620
 2272TIP3    H2 6823   4.832   1.390   2.477
 2273TIP3   OH2 6824   5.840   2.217   2.518
 2273TIP3    H1 6825   5.924   2.227   2.563
 2273TIP3    H2 6826   5.864   2.207   2.425
 2274TIP3   OH2 6827   1.241   0.350   0.491
 2274TIP3    H1 6828   1.198   0.410   0.552
 2274TIP3    H2 6829   1.303   0.406   0.443
 2275TIP3   OH2 6830   3.452   5.924   4.832
 2275TIP3    H1 6831   3.525   5.868   4.858
 2275TIP3    H2 6832   3.374   5.880   4.866
 2276TIP3   OH2 6833   3.413   2.204   3.310
 2276TIP3    H1 6834   3.498   2.182   3.272
 2276TIP3    H2 6835   3.373   2.262   3.245
 2277TIP3   OH2 6836   6.236   2.220   2.206
 2277TIP3    H1 6837   6.251   2.266   2.288
 2277TIP3    H2 6838   6.323   2.190   2.178
 2278TIP3   OH2 6839   2.375   3.603   3.103
 2278TIP3    H1 6840   2.308   3.668   3.085
 2278TIP3    H2 6841   2.450   3.653   3.134
 2279TIP3   OH2 6842   1.814   0.476   0.249
 2279TIP3    H1 6843   1.832   0.525   0.169
 2279TIP3    H2 6844   1.809   0.384   0.221
 2280TIP3   OH2 6845   5.427   1.667   3.421
 2280TIP3    H1 6846   5.343   1.695   3.385
 2280TIP3    H2 6847   5.468   1.748   3.454
 2281TIP3   OH2 6848   5.897   2.655   0.506
 2281TIP3    H1 6849   5.819   2.705   0.483
 2281TIP3    H2 6850   5.969   2.717   0.493
 2282TIP3   OH2 6851   2.610   0.785   0.674
 2282TIP3    H1 6852   2.592   0.858   0.732
 2282TIP3    H2 6853   2.659   0.824   0.601
 2283TIP3   OH2 6854   6.318   3.655   2.695
 2283TIP3    H1 6855   6.299   3.736   2.743
 2283TIP3    H2 6856   6.242   3.644   2.638
 2284TIP3   OH2 6857   0.622   3.323   3.399
 2284TIP3    H1 6858   0.688   3.323   3.330
 2284TIP3    H2 6859   0.643   3.400   3.452
 2285TIP3   OH2 6860   1.603   4.982   3.712
 2285TIP3    H1 6861   1.681   5.035   3.698
 2285TIP3    H2 6862   1.555   5.028   3.781
 2286TIP3   OH2 6863   2.880   4.952   4.115
 2286TIP3    H1 6864   2.956   4.898   4.132
 2286TIP3    H2 6865   2.872   5.007   4.193
 2287TIP3   OH2 6866   5.238   0.183   2.898
 2287TIP3    H1 6867   5.245   0.167   2.992
 2287TIP3    H2 6868   5.310   0.132   2.860
 2288TIP3   OH2 6869   5.894   1.485   4.654
 2288TIP3    H1 6870   5.865   1.404   4.612
 2288TIP3    H2 6871   5.855   1.482   4.742
 2289TIP3   OH2 6872   1.589   5.069   0.978
 2289TIP3    H1 6873   1.512   5.041   1.028
 2289TIP3    H2 6874   1.663   5.031   1.026
 2290TIP3   OH2 6875   4.380   5.055   4.429
 2290TIP3    H1 6876   4.368   5.105   4.511
 2290TIP3    H2 6877   4.473   5.061   4.411
 2291TIP3   OH2 6878   2.148   1.792   2.550
 2291TIP3    H1 6879   2.065   1.793   2.598
 2291TIP3    H2 6880   2.140   1.865   2.488
 2292TIP3   OH2 6881   2.204   0.362   0.576
 2292TIP3    H1 6882   2.163   0.412   0.505
 2292TIP3    H2 6883   2.293   0.398   0.583
 2293TIP3   OH2 6884   2.683   2.076   0.096
 2293TIP3    H1 6885   2.642   2.072   0.182
 2293TIP3    H2 6886   2.629   2.139   0.047
 2294TIP3   OH2 6887   0.636   4.244   4.417
 2294TIP3    H1 6888   0.547   4.275   4.433
 2294TIP3    H2 6889   0.675   4.235   4.504
 2295TIP3   OH2 6890   0.593   3.002   5.115
 2295TIP3    H1 6891   0.610   2.968   5.203
 2295TIP3    H2 6892   0.510   2.961   5.089
 2296TIP3   OH2 6893   6.211   1.235   4.560
 2296TIP3    H1 6894   6.187   1.321   4.527
 2296TIP3    H2 6895   6.159   1.223   4.639
 2297TIP3   OH2 6896   1.037   3.481   2.745
 2297TIP3    H1 6897   1.066   3.433   2.822
 2297TIP3    H2 6898   0.990   3.416   2.693
 2298TIP3   OH2 6899   4.294   4.882   0.836
 2298TIP3    H1 6900   4.310   4.969   0.872
 2298TIP3    H2 6901   4.379   4.853   0.804
 2299TIP3   OH2 6902   3.986   2.853   3.571
 2299TIP3    H1 6903   3.937   2.883   3.647
 2299TIP3    H2 6904   4.013   2.764   3.593
 2300TIP3   OH2 6905   4.948   5.310   2.637
 2300TIP3    H1 6906   4.884   5.241   2.620
 2300TIP3    H2 6907   5.002   5.275   2.708
 2301TIP3   OH2 6908   6.276   2.009   0.850
 2301TIP3    H1 6909   6.238   2.026   0.764
 2301TIP3    H2 6910   6.341   1.940   0.834
 2302TIP3   OH2 6911   2.928   1.305   3.536
 2302TIP3    H1 6912   2.933   1.274   3.627
 2302TIP3    H2 6913   2.890   1.231   3.488
 2303TIP3   OH2 6914   5.759   1.323   1.517
 2303TIP3    H1 6915   5.788   1.234   1.497
 2303TIP3    H2 6916   5.828   1.379   1.483
 2304TIP3   OH2 6917   0.889   1.030   0.071
 2304TIP3    H1 6918   0.863   0.993  -0.013
 2304TIP3    H2 6919   0.983   1.013   0.076
 2305TIP3   OH2 6920   6.093   4.940   4.987
 2305TIP3    H1 6921   6.096   4.999   4.911
 2305TIP3    H2 6922   6.078   4.997   5.062
 2306TIP3   OH2 6923   5.517   2.648   4.760
 2306TIP3    H1 6924   5.506   2.565   4.712
 2306TIP3    H2 6925   5.433   2.692   4.750
 2307TIP3   OH2 6926   0.114   0.359   3.240
 2307TIP3    H1 6927   0.178   0.319   3.299
 2307TIP3    H2 6928   0.094   0.290   3.176
 2308TIP3   OH2 6929   3.054   5.112   2.865
 2308TIP3    H1 6930   3.013   5.046   2.920
 2308TIP3    H2 6931   3.111   5.161   2.924
 2309TIP3   OH2 6932   0.843   1.595   4.830
 2309TIP3    H1 6933   0.835   1.500   4.827
 2309TIP3    H2 6934   0.767   1.628   4.783
 2310TIP3   OH2 6935   3.106   1.038   2.665
 2310TIP3    H1 6936   3.033   1.028   2.605
 2310TIP3    H2 6937   3.071   1.087   2.739
 2311TIP3   OH2 6938   3.881   3.766   0.450
 2311TIP3    H1 6939   3.854   3.674   0.454
 2311TIP3    H2 6940   3.953   3.773   0.513
 2312TIP3   OH2 6941   3.406   5.733   3.179
 2312TIP3    H1 6942   3.452   5.747   3.262
 2312TIP3    H2 6943   3.324   5.780   3.188
 2313TIP3   OH2 6944   0.547   1.451   3.720
 2313TIP3    H1 6945   0.601   1.407   3.654
 2313TIP3    H2 6946   0.577   1.542   3.718
 2314TIP3   OH2 6947   2.284   5.572   3.957
 2314TIP3    H1 6948   2.322   5.490   3.926
 2314TIP3    H2 6949   2.345   5.602   4.025
 2315TIP3   OH2 6950   2.889   0.325   1.488
 2315TIP3    H1 6951   2.905   0.410   1.529
 2315TIP3    H2 6952   2.976   0.289   1.472
 2316TIP3   OH2 6953   6.077   1.281   0.467
 2316TIP3    H1 6954   6.120   1.196   0.454
 2316TIP3    H2 6955   6.002   1.261   0.524
 2317TIP3   OH2 6956   0.052   0.141   1.681
 2317TIP3    H1 6957   0.020   0.128   1.592
 2317TIP3    H2 6958   0.100   0.224   1.677
 2318TIP3   OH2 6959   4.783   3.821   2.374
 2318TIP3    H1 6960   4.780   3.838   2.280
 2318TIP3    H2 6961   4.875   3.807   2.393
 2319TIP3   OH2 6962   2.833   3.837   3.698
 2319TIP3    H1 6963   2.765   3.896   3.668
 2319TIP3    H2 6964   2.798   3.797   3.778
 2320TIP3   OH2 6965   6.375   3.337   3.336
 2320TIP3    H1 6966   6.375   3.342   3.241
 2320TIP3    H2 6967   6.302   3.279   3.357
 2321TIP3   OH2 6968   0.950   5.155   2.533
 2321TIP3    H1 6969   1.037   5.122   2.555
 2321TIP3    H2 6970   0.957   5.184   2.442
 2322TIP3   OH2 6971   2.433   1.902   4.103
 2322TIP3    H1 6972   2.398   1.816   4.128
 2322TIP3    H2 6973   2.445   1.947   4.186
 2323TIP3   OH2 6974   4.340   4.372   0.256
 2323TIP3    H1 6975   4.273   4.391   0.190
 2323TIP3    H2 6976   4.301   4.400   0.339
 2324TIP3   OH2 6977   5.172   2.015   1.341
 2324TIP3    H1 6978   5.106   1.955   1.306
 2324TIP3    H2 6979   5.186   2.079   1.271
 2325TIP3   OH2 6980   1.882   3.984   2.542
 2325TIP3    H1 6981   1.818   3.976   2.612
 2325TIP3    H2 6982   1.851   4.056   2.488
 2326TIP3   OH2 6983   2.379   5.973   1.496
 2326TIP3    H1 6984   2.447   6.024   1.452
 2326TIP3    H2 6985   2.336   5.925   1.425
 2327TIP3   OH2 6986   2.568   3.595   4.591
 2327TIP3    H1 6987   2.549   3.612   4.684
 2327TIP3    H2 6988   2.482   3.575   4.553
 2328TIP3   OH2 6989   0.955   0.638   4.745
 2328TIP3    H1 6990   0.922   0.571   4.685
 2328TIP3    H2 6991   0.957   0.718   4.694
 2329TIP3   OH2 6992   0.029   3.129   5.017
 2329TIP3    H1 6993   0.111   3.178   5.013
 2329TIP3    H2 6994   0.051   3.049   5.065
 2330TIP3   OH2 6995   2.126   1.282   2.119
 2330TIP3    H1 6996   2.198   1.317   2.067
 2330TIP3    H2 6997   2.168   1.220   2.179
 2331TIP3   OH2 6998   2.542   1.552   1.720
 2331TIP3    H1 6999   2.563   1.645   1.720
 2331TIP3    H2 7000   2.449   1.549   1.745
 2332TIP3   OH2 7001   0.118   1.481   1.175
 2332TIP3    H1 7002   0.029   1.514   1.163
 2332TIP3    H2 7003   0.169   1.524   1.106
 2333TIP3   OH2 7004   1.225   3.147   2.481
 2333TIP3    H1 7005   1.288   3.203   2.527
 2333TIP3    H2 7006   1.181   3.206   2.419
 2334TIP3   OH2 7007   2.727   5.014   1.018
 2334TIP3    H1 7008   2.801   5.042   1.071
 2334TIP3    H2 7009   2.764   4.950   0.957
 2335TIP3   OH2 7010   4.170   1.322   1.947
 2335TIP3    H1 7011   4.177   1.328   1.851
 2335TIP3    H2 7012   4.253   1.284   1.975
 2336TIP3   OH2 7013   1.157   4.175   2.181
 2336TIP3    H1 7014   1.087   4.236   2.202
 2336TIP3    H2 7015   1.229   4.199   2.240
 2337TIP3   OH2 7016   0.475   3.729   3.839
 2337TIP3    H1 7017   0.422   3.649   3.836
 2337TIP3    H2 7018   0.560   3.703   3.801
 2338TIP3   OH2 7019   5.877   1.978   0.812
 2338TIP3    H1 7020   5.845   2.010   0.897
 2338TIP3    H2 7021   5.903   1.888   0.829
 2339TIP3   OH2 7022   1.304   3.362   1.874
 2339TIP3    H1 7023   1.332   3.316   1.953
 2339TIP3    H2 7024   1.306   3.455   1.898
 2340TIP3   OH2 7025   2.999   2.208   0.595
 2340TIP3    H1 7026   2.944   2.286   0.594
 2340TIP3    H2 7027   3.028   2.197   0.505
 2341TIP3   OH2 7028   4.046   4.219   4.413
 2341TIP3    H1 7029   4.024   4.158   4.483
 2341TIP3    H2 7030   3.983   4.291   4.423
 2342TIP3   OH2 7031   6.085   4.775   4.089
 2342TIP3    H1 7032   6.058   4.803   4.002
 2342TIP3    H2 7033   6.040   4.834   4.149
 2343TIP3   OH2 7034   1.304   3.915   4.018
 2343TIP3    H1 7035   1.338   3.869   3.941
 2343TIP3    H2 7036   1.362   3.991   4.028
 2344TIP3   OH2 7037   5.547   5.550   4.627
 2344TIP3    H1 7038   5.561   5.571   4.534
 2344TIP3    H2 7039   5.568   5.457   4.634
 2345TIP3   OH2 7040   0.549   2.828   4.461
 2345TIP3    H1 7041   0.493   2.839   4.537
 2345TIP3    H2 7042   0.489   2.814   4.388
 2346TIP3   OH2 7043   5.526   0.329   4.270
 2346TIP3    H1 7044   5.520   0.360   4.180
 2346TIP3    H2 7045   5.491   0.240   4.267
 2347TIP3   OH2 7046   0.547   4.256   0.910
 2347TIP3    H1 7047   0.460   4.272   0.873
 2347TIP3    H2 7048   0.606   4.309   0.858
 2348TIP3   OH2 7049   5.922   5.544   1.429
 2348TIP3    H1 7050   5.830   5.572   1.433
 2348TIP3    H2 7051   5.969   5.607   1.483
 2349TIP3   OH2 7052   2.192   5.744   1.612
 2349TIP3    H1 7053   2.141   5.812   1.568
 2349TIP3    H2 7054   2.220   5.784   1.694
 2350TIP3   OH2 7055   4.689   2.360   0.435
 2350TIP3    H1 7056   4.621   2.323   0.379
 2350TIP3    H2 7057   4.700   2.296   0.505
 2351TIP3   OH2 7058   3.477   0.552   1.178
 2351TIP3    H1 7059   3.538   0.493   1.223
 2351TIP3    H2 7060   3.507   0.640   1.203
 2352TIP3   OH2 7061   0.899   3.543   3.175
 2352TIP3    H1 7062   0.828   3.520   3.115
 2352TIP3    H2 7063   0.968   3.576   3.117
 2353TIP3   OH2 7064   1.006   2.298   0.342
 2353TIP3    H1 7065   1.003   2.275   0.435
 2353TIP3    H2 7066   0.945   2.371   0.333
 2354TIP3   OH2 7067   4.331   0.069   0.226
 2354TIP3    H1 7068   4.261   0.005   0.209
 2354TIP3    H2 7069   4.309   0.144   0.171
 2355TIP3   OH2 7070   2.411   5.448   2.757
 2355TIP3    H1 7071   2.459   5.365   2.745
 2355TIP3    H2 7072   2.414   5.489   2.671
 2356TIP3   OH2 7073   1.213   5.820   4.491
 2356TIP3    H1 7074   1.170   5.898   4.526
 2356TIP3    H2 7075   1.177   5.748   4.543
 2357TIP3   OH2 7076   1.157   4.112   2.614
 2357TIP3    H1 7077   1.239   4.160   2.620
 2357TIP3    H2 7078   1.101   4.166   2.559
 2358TIP3   OH2 7079   5.827   0.941   2.227
 2358TIP3    H1 7080   5.786   0.992   2.297
 2358TIP3    H2 7081   5.777   0.965   2.148
 2359TIP3   OH2 7082   1.298   3.359   0.618
 2359TIP3    H1 7083   1.255   3.282   0.582
 2359TIP3    H2 7084   1.232   3.428   0.612
 2360TIP3   OH2 7085   5.765   4.327   5.217
 2360TIP3    H1 7086   5.766   4.258   5.150
 2360TIP3    H2 7087   5.725   4.402   5.172
 2361TIP3   OH2 7088   5.727   1.318   5.184
 2361TIP3    H1 7089   5.764   1.394   5.138
 2361TIP3    H2 7090   5.803   1.274   5.222
 2362TIP3   OH2 7091   4.551   5.966   2.263
 2362TIP3    H1 7092   4.578   6.031   2.198
 2362TIP3    H2 7093   4.559   5.882   2.218
 2363TIP3   OH2 7094   3.131   1.565   1.016
 2363TIP3    H1 7095   3.193   1.611   1.072
 2363TIP3    H2 7096   3.148   1.601   0.928
 2364TIP3   OH2 7097   4.781   2.738   2.371
 2364TIP3    H1 7098   4.759   2.651   2.406
 2364TIP3    H2 7099   4.877   2.741   2.376
 2365TIP3   OH2 7100   3.100   1.041   3.651
 2365TIP3    H1 7101   3.092   0.971   3.716
 2365TIP3    H2 7102   3.131   1.117   3.702
 2366TIP3   OH2 7103   3.994   1.329   2.686
 2366TIP3    H1 7104   4.067   1.337   2.748
 2366TIP3    H2 7105   4.032   1.353   2.602
 2367TIP3   OH2 7106   2.761   3.984   3.172
 2367TIP3    H1 7107   2.752   4.063   3.226
 2367TIP3    H2 7108   2.840   4.000   3.120
 2368TIP3   OH2 7109   3.281   3.454   1.379
 2368TIP3    H1 7110   3.263   3.406   1.460
 2368TIP3    H2 7111   3.202   3.505   1.363
 2369TIP3   OH2 7112   4.115   3.938   0.982
 2369TIP3    H1 7113   4.195   3.973   0.943
 2369TIP3    H2 7114   4.082   4.008   1.037
 2370TIP3   OH2 7115   4.135   0.124   2.840
 2370TIP3    H1 7116   4.070   0.079   2.894
 2370TIP3    H2 7117   4.131   0.215   2.868
 2371TIP3   OH2 7118   4.554   2.629   2.672
 2371TIP3    H1 7119   4.585   2.596   2.587
 2371TIP3    H2 7120   4.459   2.633   2.662
 2372TIP3   OH2 7121   6.231   3.487   4.658
 2372TIP3    H1 7122   6.302   3.446   4.608
 2372TIP3    H2 7123   6.257   3.474   4.749
 2373TIP3   OH2 7124   1.750   2.036   4.335
 2373TIP3    H1 7125   1.687   2.011   4.403
 2373TIP3    H2 7126   1.827   1.983   4.353
 2374TIP3   OH2 7127   4.864   5.702   4.037
 2374TIP3    H1 7128   4.793   5.733   4.092
 2374TIP3    H2 7129   4.943   5.721   4.087
 2375TIP3   OH2 7130   2.545   2.810   3.044
 2375TIP3    H1 7131   2.499   2.784   3.124
 2375TIP3    H2 7132   2.593   2.732   3.017
 2376TIP3   OH2 7133   4.589   1.269   2.396
 2376TIP3    H1 7134   4.672   1.289   2.439
 2376TIP3    H2 7135   4.596   1.311   2.310
 2377TIP3   OH2 7136   2.015   1.653   1.411
 2377TIP3    H1 7137   2.053   1.740   1.426
 2377TIP3    H2 7138   2.005   1.649   1.316
 2378TIP3   OH2 7139   0.330   2.678   3.593
 2378TIP3    H1 7140   0.254   2.725   3.628
 2378TIP3    H2 7141   0.293   2.602   3.548
 2379TIP3   OH2 7142   2.270   4.013   2.678
 2379TIP3    H1 7143   2.316   4.008   2.594
 2379TIP3    H2 7144   2.320   3.957   2.736
 2380TIP3   OH2 7145   5.296   4.420   3.512
 2380TIP3    H1 7146   5.276   4.343   3.460
 2380TIP3    H2 7147   5.354   4.389   3.582
 2381TIP3   OH2 7148   6.271   4.286   1.636
 2381TIP3    H1 7149   6.303   4.265   1.548
 2381TIP3    H2 7150   6.186   4.242   1.641
 2382TIP3   OH2 7151   1.255   5.760   4.218
 2382TIP3    H1 7152   1.205   5.683   4.190
 2382TIP3    H2 7153   1.230   5.772   4.310
 2383TIP3   OH2 7154   6.326   1.639   0.606
 2383TIP3    H1 7155   6.334   1.600   0.519
 2383TIP3    H2 7156   6.237   1.673   0.609
 2384TIP3   OH2 7157   0.494   2.883   3.053
 2384TIP3    H1 7158   0.445   2.807   3.084
 2384TIP3    H2 7159   0.474   2.889   2.960
 2385TIP3   OH2 7160   5.179   3.892   2.745
 2385TIP3    H1 7161   5.275   3.886   2.751
 2385TIP3    H2 7162   5.149   3.802   2.740
 2386TIP3   OH2 7163   2.722   2.698   3.710
 2386TIP3    H1 7164   2.640   2.679   3.665
 2386TIP3    H2 7165   2.788   2.701   3.641
 2387TIP3   OH2 7166   1.151   2.984   0.328
 2387TIP3    H1 7167   1.147   2.939   0.412
 2387TIP3    H2 7168   1.175   2.915   0.266
 2388TIP3   OH2 7169   1.671   4.341   4.307
 2388TIP3    H1 7170   1.662   4.406   4.376
 2388TIP3    H2 7171   1.632   4.262   4.342
 2389TIP3   OH2 7172   2.858   2.251   1.790
 2389TIP3    H1 7173   2.941   2.228   1.833
 2389TIP3    H2 7174   2.791   2.234   1.856
 2390TIP3   OH2 7175   0.622   2.630   3.332
 2390TIP3    H1 7176   0.532   2.644   3.361
 2390TIP3    H2 7177   0.613   2.589   3.246
 2391TIP3   OH2 7178   5.717   2.184   1.444
 2391TIP3    H1 7179   5.773   2.107   1.456
 2391TIP3    H2 7180   5.751   2.226   1.365
 2392TIP3   OH2 7181   3.443   2.764   3.207
 2392TIP3    H1 7182   3.510   2.696   3.200
 2392TIP3    H2 7183   3.484   2.834   3.256
 2393TIP3   OH2 7184   3.061   2.884   2.471
 2393TIP3    H1 7185   2.974   2.852   2.496
 2393TIP3    H2 7186   3.096   2.924   2.551
 2394TIP3   OH2 7187   0.325   3.368   1.143
 2394TIP3    H1 7188   0.298   3.380   1.234
 2394TIP3    H2 7189   0.243   3.371   1.093
 2395TIP3   OH2 7190   2.061   2.446   2.738
 2395TIP3    H1 7191   2.051   2.354   2.718
 2395TIP3    H2 7192   2.137   2.474   2.687
 2396TIP3   OH2 7193   4.497   2.608   4.571
 2396TIP3    H1 7194   4.409   2.579   4.549
 2396TIP3    H2 7195   4.549   2.590   4.493
 2397TIP3   OH2 7196   2.818   0.884   5.144
 2397TIP3    H1 7197   2.845   0.818   5.080
 2397TIP3    H2 7198   2.862   0.964   5.116
 2398TIP3   OH2 7199   5.187   4.707   2.685
 2398TIP3    H1 7200   5.104   4.661   2.672
 2398TIP3    H2 7201   5.239   4.647   2.739
 2399TIP3   OH2 7202   2.793   3.904   0.245
 2399TIP3    H1 7203   2.863   3.964   0.217
 2399TIP3    H2 7204   2.832   3.855   0.317
 2400TIP3   OH2 7205   6.193   3.265   4.340
 2400TIP3    H1 7206   6.169   3.239   4.429
 2400TIP3    H2 7207   6.289   3.263   4.339
 2401TIP3   OH2 7208   4.599   2.460   4.793
 2401TIP3    H1 7209   4.674   2.428   4.743
 2401TIP3    H2 7210   4.551   2.515   4.731
 2402TIP3   OH2 7211   3.731   5.253   0.058
 2402TIP3    H1 7212   3.780   5.263   0.139
 2402TIP3    H2 7213   3.688   5.338   0.045
 2403TIP3   OH2 7214   4.778   1.126   0.217
 2403TIP3    H1 7215   4.744   1.103   0.131
 2403TIP3    H2 7216   4.774   1.221   0.220
 2404TIP3   OH2 7217   5.697   0.217   4.847
 2404TIP3    H1 7218   5.668   0.131   4.816
 2404TIP3    H2 7219   5.638   0.278   4.804
 2405TIP3   OH2 7220   0.839   0.771   1.308
 2405TIP3    H1 7221   0.843   0.676   1.294
 2405TIP3    H2 7222   0.805   0.781   1.396
 2406TIP3   OH2 7223   3.319   2.742   2.671
 2406TIP3    H1 7224   3.287   2.672   2.614
 2406TIP3    H2 7225   3.365   2.696   2.741
 2407TIP3   OH2 7226   5.463   3.302   2.486
 2407TIP3    H1 7227   5.484   3.213   2.456
 2407TIP3    H2 7228   5.368   3.302   2.495
 2408TIP3   OH2 7229   0.362   0.765   0.900
 2408TIP3    H1 7230   0.418   0.766   0.822
 2408TIP3    H2 7231   0.382   0.682   0.943
 2409TIP3   OH2 7232   5.820   2.567   2.750
 2409TIP3    H1 7233   5.882   2.634   2.779
 2409TIP3    H2 7234   5.859   2.531   2.671
 2410TIP3   OH2 7235   0.074   2.053   2.914
 2410TIP3    H1 7236   0.074   2.007   2.998
 2410TIP3    H2 7237   0.164   2.043   2.881
 2411TIP3   OH2 7238   2.028   0.094   1.329
 2411TIP3    H1 7239   2.089   0.161   1.299
 2411TIP3    H2 7240   2.006   0.044   1.250
 2412TIP3   OH2 7241   4.541   5.280   0.766
 2412TIP3    H1 7242   4.554   5.375   0.767
 2412TIP3    H2 7243   4.448   5.268   0.786
 2413TIP3   OH2 7244   6.068   5.183   4.831
 2413TIP3    H1 7245   6.078   5.233   4.912
 2413TIP3    H2 7246   6.012   5.237   4.775
 2414TIP3   OH2 7247   1.062   0.031   4.071
 2414TIP3    H1 7248   0.976   0.017   4.111
 2414TIP3    H2 7249   1.109  -0.051   4.087
 2415TIP3   OH2 7250   5.777   4.638   3.523
 2415TIP3    H1 7251   5.818   4.606   3.603
 2415TIP3    H2 7252   5.705   4.577   3.506
 2416TIP3   OH2 7253   1.727   4.972   4.068
 2416TIP3    H1 7254   1.662   4.956   4.136
 2416TIP3    H2 7255   1.691   5.044   4.017
 2417TIP3   OH2 7256   2.188   5.827   3.117
 2417TIP3    H1 7257   2.179   5.914   3.156
 2417TIP3    H2 7258   2.235   5.842   3.035
 2418TIP3   OH2 7259   2.307   0.167   4.592
 2418TIP3    H1 7260   2.276   0.252   4.562
 2418TIP3    H2 7261   2.332   0.120   4.512
 2419TIP3   OH2 7262   4.257   1.347   3.161
 2419TIP3    H1 7263   4.318   1.305   3.221
 2419TIP3    H2 7264   4.170   1.319   3.191
 2420TIP3   OH2 7265   4.278   4.270   2.114
 2420TIP3    H1 7266   4.313   4.356   2.089
 2420TIP3    H2 7267   4.342   4.208   2.081
 2421TIP3   OH2 7268   2.459   1.497   4.976
 2421TIP3    H1 7269   2.516   1.538   5.041
 2421TIP3    H2 7270   2.401   1.440   5.027
 2422TIP3   OH2 7271   4.431   1.763   5.140
 2422TIP3    H1 7272   4.337   1.748   5.126
 2422TIP3    H2 7273   4.475   1.709   5.075
 2423TIP3   OH2 7274   5.910   0.612   0.852
 2423TIP3    H1 7275   5.841   0.607   0.785
 2423TIP3    H2 7276   5.867   0.582   0.932
 2424TIP3   OH2 7277   1.580   5.520   1.070
 2424TIP3    H1 7278   1.597   5.452   1.004
 2424TIP3    H2 7279   1.641   5.500   1.141
 2425TIP3   OH2 7280   6.192   0.522   1.493
 2425TIP3    H1 7281   6.180   0.491   1.403
 2425TIP3    H2 7282   6.117   0.579   1.510
 2426TIP3   OH2 7283   1.936   1.794   2.020
 2426TIP3    H1 7284   1.914   1.725   2.082
 2426TIP3    H2 7285   1.856   1.805   1.968
 2427TIP3   OH2 7286   2.519   0.224   3.502
 2427TIP3    H1 7287   2.466   0.186   3.573
 2427TIP3    H2 7288   2.455   0.269   3.446
 2428TIP3   OH2 7289   1.916   0.067   5.088
 2428TIP3    H1 7290   1.962  -0.013   5.064
 2428TIP3    H2 7291   1.851   0.039   5.152
 2429TIP3   OH2 7292   0.555   1.847   4.556
 2429TIP3    H1 7293   0.580   1.866   4.465
 2429TIP3    H2 7294   0.478   1.902   4.571
 2430TIP3   OH2 7295   1.697   4.481   2.604
 2430TIP3    H1 7296   1.673   4.573   2.605
 2430TIP3    H2 7297   1.639   4.440   2.669
 2431TIP3   OH2 7298   1.891   1.587   2.172
 2431TIP3    H1 7299   1.842   1.531   2.233
 2431TIP3    H2 7300   1.977   1.597   2.212
 2432TIP3   OH2 7301   1.761   1.765   4.719
 2432TIP3    H1 7302   1.839   1.759   4.664
 2432TIP3    H2 7303   1.741   1.675   4.743
 2433TIP3   OH2 7304   5.352   2.037   3.313
 2433TIP3    H1 7305   5.366   2.063   3.404
 2433TIP3    H2 7306   5.283   1.972   3.317
 2434TIP3   OH2 7307   1.323   1.259   1.552
 2434TIP3    H1 7308   1.284   1.210   1.624
 2434TIP3    H2 7309   1.415   1.233   1.551
 2435TIP3   OH2 7310   2.187   5.416   3.434
 2435TIP3    H1 7311   2.239   5.427   3.355
 2435TIP3    H2 7312   2.248   5.432   3.506
 2436TIP3   OH2 7313   3.054   0.338   3.515
 2436TIP3    H1 7314   3.133   0.294   3.483
 2436TIP3    H2 7315   3.046   0.415   3.459
 2437TIP3   OH2 7316   3.130   1.410   0.736
 2437TIP3    H1 7317   3.118   1.315   0.740
 2437TIP3    H2 7318   3.208   1.421   0.681
 2438TIP3   OH2 7319   0.194   2.616   4.454
 2438TIP3    H1 7320   0.122   2.617   4.518
 2438TIP3    H2 7321   0.153   2.645   4.372
 2439TIP3   OH2 7322   3.388   1.121   4.831
 2439TIP3    H1 7323   3.484   1.118   4.836
 2439TIP3    H2 7324   3.369   1.213   4.810
 2440TIP3   OH2 7325   3.594   2.653   4.929
 2440TIP3    H1 7326   3.544   2.572   4.926
 2440TIP3    H2 7327   3.613   2.672   4.837
 2441TIP3   OH2 7328   6.165   0.227   4.420
 2441TIP3    H1 7329   6.113   0.307   4.417
 2441TIP3    H2 7330   6.256   0.257   4.423
 2442TIP3   OH2 7331   5.371   2.059   3.602
 2442TIP3    H1 7332   5.281   2.056   3.635
 2442TIP3    H2 7333   5.425   2.070   3.680
 2443TIP3   OH2 7334   4.948   2.623   4.442
 2443TIP3    H1 7335   4.998   2.678   4.502
 2443TIP3    H2 7336   4.926   2.681   4.369
 2444TIP3   OH2 7337   0.975   2.818   4.864
 2444TIP3    H1 7338   1.008   2.903   4.834
 2444TIP3    H2 7339   0.901   2.799   4.806
 2445TIP3   OH2 7340   2.898   0.161   0.759
 2445TIP3    H1 7341   2.808   0.131   0.773
 2445TIP3    H2 7342   2.943   0.142   0.842
 2446TIP3   OH2 7343   5.675   4.165   3.499
 2446TIP3    H1 7344   5.725   4.110   3.438
 2446TIP3    H2 7345   5.612   4.210   3.444
 2447TIP3   OH2 7346   2.125   5.161   2.027
 2447TIP3    H1 7347   2.089   5.080   2.063
 2447TIP3    H2 7348   2.144   5.215   2.103
 2448TIP3   OH2 7349   2.656   1.545   4.461
 2448TIP3    H1 7350   2.683   1.563   4.551
 2448TIP3    H2 7351   2.624   1.454   4.464
 2449TIP3   OH2 7352   0.355   3.914   0.790
 2449TIP3    H1 7353   0.450   3.926   0.789
 2449TIP3    H2 7354   0.340   3.837   0.736
 2450TIP3   OH2 7355   6.363   2.197   1.437
 2450TIP3    H1 7356   6.327   2.206   1.525
 2450TIP3    H2 7357   6.342   2.279   1.393
 2451TIP3   OH2 7358   3.790   0.472   0.140
 2451TIP3    H1 7359   3.700   0.445   0.161
 2451TIP3    H2 7360   3.832   0.392   0.109
 2452TIP3   OH2 7361   4.590   1.650   4.662
 2452TIP3    H1 7362   4.512   1.644   4.606
 2452TIP3    H2 7363   4.626   1.561   4.661
 2453TIP3   OH2 7364   2.396   3.550   1.794
 2453TIP3    H1 7365   2.383   3.495   1.871
 2453TIP3    H2 7366   2.309   3.583   1.773
 2454TIP3   OH2 7367   3.855   4.727   3.501
 2454TIP3    H1 7368   3.846   4.727   3.406
 2454TIP3    H2 7369   3.907   4.805   3.520
 2455TIP3   OH2 7370   1.555   1.462   0.122
 2455TIP3    H1 7371   1.482   1.465   0.183
 2455TIP3    H2 7372   1.626   1.421   0.171
 2456TIP3   OH2 7373   1.078   4.233   1.495
 2456TIP3    H1 7374   1.029   4.255   1.415
 2456TIP3    H2 7375   1.126   4.313   1.515
 2457TIP3   OH2 7376   3.527   3.896   5.058
 2457TIP3    H1 7377   3.434   3.906   5.076
 2457TIP3    H2 7378   3.531   3.853   4.972
 2458TIP3   OH2 7379   4.799   1.424   0.237
 2458TIP3    H1 7380   4.874   1.435   0.296
 2458TIP3    H2 7381   4.772   1.513   0.215
 2459TIP3   OH2 7382   3.750   1.408   2.199
 2459TIP3    H1 7383   3.824   1.466   2.217
 2459TIP3    H2 7384   3.790   1.332   2.156
 2460TIP3   OH2 7385   2.074   3.809   4.430
 2460TIP3    H1 7386   2.135   3.871   4.470
 2460TIP3    H2 7387   2.036   3.856   4.357
 2461TIP3   OH2 7388   4.180   2.987   1.439
 2461TIP3    H1 7389   4.185   3.079   1.462
 2461TIP3    H2 7390   4.137   2.946   1.514
 2462TIP3   OH2 7391   4.253   0.482   4.923
 2462TIP3    H1 7392   4.166   0.498   4.887
 2462TIP3    H2 7393   4.306   0.458   4.847
 2463TIP3   OH2 7394   0.971   4.892   0.721
 2463TIP3    H1 7395   0.924   4.966   0.683
 2463TIP3    H2 7396   1.046   4.932   0.765
 2464TIP3   OH2 7397   1.987   5.885   1.476
 2464TIP3    H1 7398   1.903   5.856   1.442
 2464TIP3    H2 7399   2.023   5.941   1.407
 2465TIP3   OH2 7400   3.832   5.025   2.306
 2465TIP3    H1 7401   3.896   4.956   2.291
 2465TIP3    H2 7402   3.752   4.979   2.334
 2466TIP3   OH2 7403   2.088   2.021   3.770
 2466TIP3    H1 7404   2.009   2.075   3.779
 2466TIP3    H2 7405   2.127   2.022   3.857
 2467TIP3   OH2 7406   5.983   2.155   2.296
 2467TIP3    H1 7407   5.981   2.059   2.299
 2467TIP3    H2 7408   6.074   2.177   2.279
 2468TIP3   OH2 7409   4.806   1.551   0.557
 2468TIP3    H1 7410   4.882   1.511   0.515
 2468TIP3    H2 7411   4.795   1.635   0.513
 2469TIP3   OH2 7412   1.414   1.681   1.532
 2469TIP3    H1 7413   1.347   1.612   1.540
 2469TIP3    H2 7414   1.385   1.734   1.457
 2470TIP3   OH2 7415   6.098   0.976   4.798
 2470TIP3    H1 7416   6.097   0.882   4.783
 2470TIP3    H2 7417   6.110   0.985   4.893
 2471TIP3   OH2 7418   3.172   0.152   0.946
 2471TIP3    H1 7419   3.099   0.090   0.947
 2471TIP3    H2 7420   3.136   0.232   0.983
 2472TIP3   OH2 7421   3.032   3.509   0.317
 2472TIP3    H1 7422   2.980   3.457   0.378
 2472TIP3    H2 7423   3.010   3.476   0.230
 2473TIP3   OH2 7424   5.482   4.560   0.876
 2473TIP3    H1 7425   5.525   4.596   0.798
 2473TIP3    H2 7426   5.545   4.497   0.910
 2474TIP3   OH2 7427   4.394   0.757   3.019
 2474TIP3    H1 7428   4.433   0.844   3.025
 2474TIP3    H2 7429   4.397   0.736   2.926
 2475TIP3   OH2 7430   2.916   1.443   4.865
 2475TIP3    H1 7431   2.969   1.417   4.940
 2475TIP3    H2 7432   2.980   1.474   4.800
 2476TIP3   OH2 7433   2.581   4.180   1.335
 2476TIP3    H1 7434   2.674   4.201   1.346
 2476TIP3    H2 7435   2.535   4.259   1.363
 2477TIP3   OH2 7436   2.783   0.864   1.503
 2477TIP3    H1 7437   2.770   0.869   1.597
 2477TIP3    H2 7438   2.836   0.941   1.482
 2478TIP3   OH2 7439   2.283   2.087   1.535
 2478TIP3    H1 7440   2.257   2.067   1.625
 2478TIP3    H2 7441   2.371   2.051   1.527
 2479TIP3   OH2 7442   3.058   3.846   2.674
 2479TIP3    H1 7443   2.997   3.920   2.684
 2479TIP3    H2 7444   3.082   3.848   2.582
 2480TIP3   OH2 7445   2.013   4.819   1.103
 2480TIP3    H1 7446   2.107   4.822   1.121
 2480TIP3    H2 7447   2.007   4.779   1.016
 2481TIP3   OH2 7448   4.991   4.455   0.181
 2481TIP3    H1 7449   5.065   4.395   0.185
 2481TIP3    H2 7450   4.927   4.419   0.242
 2482TIP3   OH2 7451   5.357   5.211   0.997
 2482TIP3    H1 7452   5.269   5.209   0.961
 2482TIP3    H2 7453   5.345   5.224   1.091
 2483TIP3   OH2 7454   3.907   5.377   1.754
 2483TIP3    H1 7455   3.826   5.370   1.806
 2483TIP3    H2 7456   3.880   5.355   1.665
 2484TIP3   OH2 7457   1.392   0.029   3.933
 2484TIP3    H1 7458   1.442   0.084   3.872
 2484TIP3    H2 7459   1.370   0.087   4.005
 2485TIP3   OH2 7460   1.019   5.555   1.242
 2485TIP3    H1 7461   0.968   5.478   1.267
 2485TIP3    H2 7462   1.106   5.520   1.221
 2486TIP3   OH2 7463   0.180   0.179   3.475
 2486TIP3    H1 7464   0.269   0.147   3.482
 2486TIP3    H2 7465   0.129   0.105   3.443
 2487TIP3   OH2 7466   0.520   4.198   1.190
 2487TIP3    H1 7467   0.510   4.240   1.104
 2487TIP3    H2 7468   0.487   4.109   1.177
 2488TIP3   OH2 7469   3.471   0.600   4.309
 2488TIP3    H1 7470   3.544   0.643   4.265
 2488TIP3    H2 7471   3.512   0.533   4.363
 2489TIP3   OH2 7472   1.417   3.571   3.088
 2489TIP3    H1 7473   1.493   3.526   3.052
 2489TIP3    H2 7474   1.408   3.650   3.036
 2490TIP3   OH2 7475   3.432   5.568   0.597
 2490TIP3    H1 7476   3.370   5.590   0.667
 2490TIP3    H2 7477   3.456   5.653   0.559
 2491TIP3   OH2 7478   3.030   2.881   4.293
 2491TIP3    H1 7479   2.948   2.921   4.263
 2491TIP3    H2 7480   3.006   2.833   4.372
 2492TIP3   OH2 7481   2.465   0.125   1.092
 2492TIP3    H1 7482   2.552   0.125   1.132
 2492TIP3    H2 7483   2.432   0.213   1.107
 2493TIP3   OH2 7484   0.263   0.868   1.155
 2493TIP3    H1 7485   0.346   0.865   1.204
 2493TIP3    H2 7486   0.289   0.861   1.063
 2494TIP3   OH2 7487   1.465   1.252   4.991
 2494TIP3    H1 7488   1.414   1.218   5.064
 2494TIP3    H2 7489   1.409   1.239   4.915
 2495TIP3   OH2 7490   6.026   4.324   2.672
 2495TIP3    H1 7491   5.960   4.390   2.649
 2495TIP3    H2 7492   6.047   4.341   2.764
 2496TIP3   OH2 7493   3.997   0.100   3.732
 2496TIP3    H1 7494   4.091   0.087   3.719
 2496TIP3    H2 7495   3.982   0.084   3.825
 2497TIP3   OH2 7496   6.115   1.964   3.525
 2497TIP3    H1 7497   6.065   2.030   3.572
 2497TIP3    H2 7498   6.197   2.008   3.501
 2498TIP3   OH2 7499   4.294   2.554   0.105
 2498TIP3    H1 7500   4.266   2.498   0.032
 2498TIP3    H2 7501   4.386   2.533   0.116
 2499TIP3   OH2 7502   0.915   0.327   1.526
 2499TIP3    H1 7503   0.983   0.394   1.538
 2499TIP3    H2 7504   0.871   0.322   1.610
 2500TIP3   OH2 7505   5.639   0.512   1.811
 2500TIP3    H1 7506   5.626   0.596   1.856
 2500TIP3    H2 7507   5.555   0.466   1.820
 2501TIP3   OH2 7508   1.245   3.908   3.574
 2501TIP3    H1 7509   1.294   3.858   3.508
 2501TIP3    H2 7510   1.263   3.862   3.656
 2502TIP3   OH2 7511   3.935   2.460   1.756
 2502TIP3    H1 7512   3.904   2.386   1.703
 2502TIP3    H2 7513   3.858   2.491   1.803
 2503TIP3   OH2 7514   4.194   0.417   3.818
 2503TIP3    H1 7515   4.134   0.403   3.746
 2503TIP3    H2 7516   4.228   0.506   3.805
 2504TIP3   OH2 7517   0.411   5.140   2.875
 2504TIP3    H1 7518   0.441   5.051   2.895
 2504TIP3    H2 7519   0.335   5.127   2.818
 2505TIP3   OH2 7520   5.106   4.993   3.716
 2505TIP3    H1 7521   5.134   4.910   3.755
 2505TIP3    H2 7522   5.187   5.036   3.689
 2506TIP3   OH2 7523   5.244   1.788   0.849
 2506TIP3    H1 7524   5.234   1.883   0.857
 2506TIP3    H2 7525   5.304   1.776   0.775
 2507TIP3   OH2 7526   0.282   0.544   5.016
 2507TIP3    H1 7527   0.257   0.529   4.925
 2507TIP3    H2 7528   0.227   0.484   5.067
 2508TIP3   OH2 7529   5.117   5.314   0.875
 2508TIP3    H1 7530   5.076   5.368   0.807
 2508TIP3    H2 7531   5.097   5.359   0.957
 2509TIP3   OH2 7532   3.703   5.559   3.796
 2509TIP3    H1 7533   3.639   5.499   3.834
 2509TIP3    H2 7534   3.653   5.637   3.773
 2510TIP3   OH2 7535   1.753   0.469   1.694
 2510TIP3    H1 7536   1.711   0.384   1.701
 2510TIP3    H2 7537   1.841   0.450   1.662
 2511TIP3   OH2 7538   3.816   3.264   1.799
 2511TIP3    H1 7539   3.811   3.173   1.769
 2511TIP3    H2 7540   3.906   3.290   1.780
 2512TIP3   OH2 7541   3.647   4.264   0.885
 2512TIP3    H1 7542   3.585   4.282   0.814
 2512TIP3    H2 7543   3.607   4.303   0.962
 2513TIP3   OH2 7544   0.910   3.988   3.789
 2513TIP3    H1 7545   0.900   4.021   3.699
 2513TIP3    H2 7546   0.976   4.046   3.828
 2514TIP3   OH2 7547   0.782   4.115   1.023
 2514TIP3    H1 7548   0.693   4.141   1.001
 2514TIP3    H2 7549   0.774   4.024   1.053
 2515TIP3   OH2 7550   6.289   5.413   5.090
 2515TIP3    H1 7551   6.315   5.321   5.081
 2515TIP3    H2 7552   6.195   5.412   5.076
 2516TIP3   OH2 7553   1.362   5.125   4.926
 2516TIP3    H1 7554   1.412   5.045   4.915
 2516TIP3    H2 7555   1.417   5.181   4.981
 2517TIP3   OH2 7556   1.488   3.223   3.741
 2517TIP3    H1 7557   1.403   3.264   3.753
 2517TIP3    H2 7558   1.542   3.260   3.811
 2518TIP3   OH2 7559   2.835   3.527   4.309
 2518TIP3    H1 7560   2.816   3.570   4.392
 2518TIP3    H2 7561   2.922   3.490   4.320
 2519TIP3   OH2 7562   3.872   1.943   1.271
 2519TIP3    H1 7563   3.841   1.993   1.195
 2519TIP3    H2 7564   3.934   2.001   1.314
 2520TIP3   OH2 7565   2.181   1.434   3.471
 2520TIP3    H1 7566   2.151   1.505   3.414
 2520TIP3    H2 7567   2.100   1.397   3.508
 2521TIP3   OH2 7568   0.386   3.760   4.482
 2521TIP3    H1 7569   0.404   3.674   4.519
 2521TIP3    H2 7570   0.345   3.742   4.398
 2522TIP3   OH2 7571   0.466   0.249   4.839
 2522TIP3    H1 7572   0.411   0.287   4.770
 2522TIP3    H2 7573   0.519   0.322   4.871
 2523TIP3   OH2 7574   3.900   1.237   5.102
 2523TIP3    H1 7575   3.898   1.160   5.044
 2523TIP3    H2 7576   3.838   1.298   5.062
 2524TIP3   OH2 7577   4.871   3.971   3.167
 2524TIP3    H1 7578   4.856   3.962   3.073
 2524TIP3    H2 7579   4.803   3.917   3.208
 2525TIP3   OH2 7580   0.004   4.633   3.325
 2525TIP3    H1 7581   0.004   4.538   3.327
 2525TIP3    H2 7582   0.094   4.657   3.346
 2526TIP3   OH2 7583   2.640   5.245   2.160
 2526TIP3    H1 7584   2.598   5.215   2.079
 2526TIP3    H2 7585   2.572   5.293   2.207
 2527TIP3   OH2 7586   2.741   2.594   3.295
 2527TIP3    H1 7587   2.750   2.514   3.243
 2527TIP3    H2 7588   2.662   2.581   3.346
 2528TIP3   OH2 7589   5.584   2.120   4.358
 2528TIP3    H1 7590   5.551   2.033   4.382
 2528TIP3    H2 7591   5.634   2.148   4.435
 2529TIP3   OH2 7592   0.421   0.863   4.598
 2529TIP3    H1 7593   0.438   0.955   4.574
 2529TIP3    H2 7594   0.480   0.846   4.671
 2530TIP3   OH2 7595   4.714   1.338   4.339
 2530TIP3    H1 7596   4.713   1.434   4.328
 2530TIP3    H2 7597   4.791   1.309   4.290
 2531TIP3   OH2 7598   0.569   0.788   3.043
 2531TIP3    H1 7599   0.564   0.822   2.953
 2531TIP3    H2 7600   0.657   0.811   3.072
 2532TIP3   OH2 7601   1.244   1.203   4.471
 2532TIP3    H1 7602   1.242   1.145   4.395
 2532TIP3    H2 7603   1.152   1.210   4.498
 2533TIP3   OH2 7604   1.851   5.263   4.519
 2533TIP3    H1 7605   1.816   5.193   4.573
 2533TIP3    H2 7606   1.793   5.337   4.534
 2534TIP3   OH2 7607   5.710   2.851   0.504
 2534TIP3    H1 7608   5.620   2.866   0.533
 2534TIP3    H2 7609   5.707   2.863   0.409
 2535TIP3   OH2 7610   5.512   3.202   1.436
 2535TIP3    H1 7611   5.529   3.289   1.401
 2535TIP3    H2 7612   5.553   3.202   1.522
 2536TIP3   OH2 7613   0.744   0.967   0.853
 2536TIP3    H1 7614   0.783   1.053   0.865
 2536TIP3    H2 7615   0.799   0.924   0.787
 2537TIP3   OH2 7616   0.551   3.059   1.631
 2537TIP3    H1 7617   0.538   3.063   1.725
 2537TIP3    H2 7618   0.639   3.095   1.617
 2538TIP3   OH2 7619   1.192   5.054   0.797
 2538TIP3    H1 7620   1.186   5.084   0.888
 2538TIP3    H2 7621   1.259   4.986   0.799
 2539TIP3   OH2 7622   6.087   2.777   2.342
 2539TIP3    H1 7623   6.107   2.825   2.262
 2539TIP3    H2 7624   6.121   2.689   2.327
 2540TIP3   OH2 7625   2.358   0.068   4.340
 2540TIP3    H1 7626   2.317   0.020   4.268
 2540TIP3    H2 7627   2.444   0.027   4.351
 2541TIP3   OH2 7628   0.660   5.729   0.278
 2541TIP3    H1 7629   0.697   5.675   0.348
 2541TIP3    H2 7630   0.612   5.798   0.325
 2542TIP3   OH2 7631   2.482   4.528   4.374
 2542TIP3    H1 7632   2.414   4.595   4.366
 2542TIP3    H2 7633   2.564   4.574   4.354
 2543TIP3   OH2 7634   4.421   2.676   4.017
 2543TIP3    H1 7635   4.370   2.702   3.940
 2543TIP3    H2 7636   4.398   2.584   4.031
 2544TIP3   OH2 7637   4.271   3.387   1.881
 2544TIP3    H1 7638   4.292   3.475   1.849
 2544TIP3    H2 7639   4.278   3.394   1.976
 2545TIP3   OH2 7640   6.279   2.753   1.979
 2545TIP3    H1 7641   6.333   2.677   1.999
 2545TIP3    H2 7642   6.205   2.718   1.928
 2546TIP3   OH2 7643   1.703   1.123   5.123
 2546TIP3    H1 7644   1.621   1.154   5.084
 2546TIP3    H2 7645   1.760   1.106   5.048
 2547TIP3   OH2 7646   4.904   4.259   0.971
 2547TIP3    H1 7647   4.825   4.308   0.992
 2547TIP3    H2 7648   4.967   4.284   1.040
 2548TIP3   OH2 7649   3.121   4.797   1.044
 2548TIP3    H1 7650   3.130   4.841   0.960
 2548TIP3    H2 7651   3.073   4.858   1.099
 2549TIP3   OH2 7652   1.210   5.442   0.866
 2549TIP3    H1 7653   1.193   5.470   0.776
 2549TIP3    H2 7654   1.192   5.520   0.919
 2550TIP3   OH2 7655   1.711   5.193   1.942
 2550TIP3    H1 7656   1.734   5.118   1.887
 2550TIP3    H2 7657   1.785   5.253   1.932
 2551TIP3   OH2 7658   3.430   2.300   0.074
 2551TIP3    H1 7659   3.381   2.364   0.125
 2551TIP3    H2 7660   3.453   2.231   0.137
 2552TIP3   OH2 7661   0.188   5.612   1.164
 2552TIP3    H1 7662   0.157   5.654   1.083
 2552TIP3    H2 7663   0.230   5.682   1.213
 2553TIP3   OH2 7664   1.230   3.158   1.530
 2553TIP3    H1 7665   1.158   3.094   1.527
 2553TIP3    H2 7666   1.309   3.105   1.518
 2554TIP3   OH2 7667   0.105   4.035   1.714
 2554TIP3    H1 7668   0.038   4.013   1.649
 2554TIP3    H2 7669   0.161   4.098   1.669
 2555TIP3   OH2 7670   6.176   4.316   0.763
 2555TIP3    H1 7671   6.255   4.302   0.817
 2555TIP3    H2 7672   6.143   4.401   0.793
 2556TIP3   OH2 7673   0.340   0.590   2.416
 2556TIP3    H1 7674   0.289   0.510   2.431
 2556TIP3    H2 7675   0.282   0.661   2.441
 2557TIP3   OH2 7676   5.793   3.484   3.325
 2557TIP3    H1 7677   5.713   3.444   3.358
 2557TIP3    H2 7678   5.845   3.501   3.404
 2558TIP3   OH2 7679   6.309   1.523   1.790
 2558TIP3    H1 7680   6.338   1.609   1.761
 2558TIP3    H2 7681   6.213   1.528   1.787
 2559TIP3   OH2 7682   6.072   2.934   2.119
 2559TIP3    H1 7683   6.118   3.014   2.091
 2559TIP3    H2 7684   6.100   2.868   2.056
 2560TIP3   OH2 7685   1.131   4.039   3.039
 2560TIP3    H1 7686   1.080   4.001   2.967
 2560TIP3    H2 7687   1.068   4.088   3.091
 2561TIP3   OH2 7688   4.145   2.726   4.121
 2561TIP3    H1 7689   4.107   2.741   4.207
 2561TIP3    H2 7690   4.229   2.772   4.122
 2562TIP3   OH2 7691   4.198   3.081   4.393
 2562TIP3    H1 7692   4.166   2.993   4.411
 2562TIP3    H2 7693   4.259   3.070   4.320
 2563TIP3   OH2 7694   1.495   4.126   4.001
 2563TIP3    H1 7695   1.538   4.098   3.920
 2563TIP3    H2 7696   1.563   4.172   4.050
 2564TIP3   OH2 7697   1.378   1.864   0.177
 2564TIP3    H1 7698   1.337   1.930   0.233
 2564TIP3    H2 7699   1.322   1.860   0.099
 2565TIP3   OH2 7700   0.800   1.466   0.822
 2565TIP3    H1 7701   0.845   1.387   0.849
 2565TIP3    H2 7702   0.834   1.535   0.878
 2566TIP3   OH2 7703   3.021   0.531   3.308
 2566TIP3    H1 7704   3.078   0.599   3.346
 2566TIP3    H2 7705   2.945   0.580   3.275
 2567TIP3   OH2 7706   3.095   2.009   2.430
 2567TIP3    H1 7707   3.033   1.952   2.476
 2567TIP3    H2 7708   3.052   2.030   2.348
 2568TIP3   OH2 7709   2.956   1.760   4.957
 2568TIP3    H1 7710   3.019   1.740   5.026
 2568TIP3    H2 7711   2.891   1.691   4.963
 2569TIP3   OH2 7712   4.795   4.837   5.120
 2569TIP3    H1 7713   4.715   4.790   5.099
 2569TIP3    H2 7714   4.768   4.904   5.183
 2570TIP3   OH2 7715   0.785   1.542   0.045
 2570TIP3    H1 7716   0.811   1.465   0.097
 2570TIP3    H2 7717   0.819   1.616   0.094
 2571TIP3   OH2 7718   3.282   0.264   3.768
 2571TIP3    H1 7719   3.366   0.310   3.773
 2571TIP3    H2 7720   3.268   0.252   3.674
 2572TIP3   OH2 7721   1.849   3.253   1.092
 2572TIP3    H1 7722   1.907   3.184   1.125
 2572TIP3    H2 7723   1.807   3.289   1.170
 2573TIP3   OH2 7724   6.190   0.638   0.606
 2573TIP3    H1 7725   6.283   0.648   0.586
 2573TIP3    H2 7726   6.168   0.714   0.659
 2574TIP3   OH2 7727   3.490   1.790   4.626
 2574TIP3    H1 7728   3.442   1.707   4.618
 2574TIP3    H2 7729   3.531   1.802   4.541
 2575TIP3   OH2 7730   1.334   5.171   3.481
 2575TIP3    H1 7731   1.416   5.192   3.526
 2575TIP3    H2 7732   1.348   5.203   3.392
 2576TIP3   OH2 7733   3.895   0.577   3.020
 2576TIP3    H1 7734   3.960   0.641   3.050
 2576TIP3    H2 7735   3.813   0.604   3.061
 2577TIP3   OH2 7736   6.101   0.284   0.571
 2577TIP3    H1 7737   6.181   0.319   0.610
 2577TIP3    H2 7738   6.037   0.284   0.643
 2578TIP3   OH2 7739   6.113   0.395   5.051
 2578TIP3    H1 7740   6.147   0.408   5.140
 2578TIP3    H2 7741   6.023   0.429   5.055
 2579TIP3   OH2 7742   2.225   2.414   0.450
 2579TIP3    H1 7743   2.232   2.406   0.545
 2579TIP3    H2 7744   2.310   2.450   0.422
 2580TIP3   OH2 7745   5.485   1.967   2.864
 2580TIP3    H1 7746   5.543   2.043   2.851
 2580TIP3    H2 7747   5.533   1.893   2.827
 2581TIP3   OH2 7748   1.849   5.612   2.795
 2581TIP3    H1 7749   1.943   5.612   2.776
 2581TIP3    H2 7750   1.832   5.526   2.833
 2582TIP3   OH2 7751   0.938   4.181   1.273
 2582TIP3    H1 7752   0.897   4.104   1.312
 2582TIP3    H2 7753   0.901   4.185   1.185
 2583TIP3   OH2 7754   2.156   2.172   0.858
 2583TIP3    H1 7755   2.092   2.211   0.917
 2583TIP3    H2 7756   2.230   2.150   0.915
 2584TIP3   OH2 7757   3.357   0.398   0.994
 2584TIP3    H1 7758   3.272   0.440   0.987
 2584TIP3    H2 7759   3.408   0.456   1.050
 2585TIP3   OH2 7760   0.331   1.583   0.046
 2585TIP3    H1 7761   0.396   1.628   0.101
 2585TIP3    H2 7762   0.317   1.500   0.090
 2586TIP3   OH2 7763   3.719   2.000   1.546
 2586TIP3    H1 7764   3.643   2.044   1.507
 2586TIP3    H2 7765   3.705   1.907   1.528
 2587TIP3   OH2 7766   2.812   3.673   2.251
 2587TIP3    H1 7767   2.850   3.614   2.316
 2587TIP3    H2 7768   2.817   3.759   2.293
 2588TIP3   OH2 7769   3.035   5.486   2.223
 2588TIP3    H1 7770   3.128   5.468   2.205
 2588TIP3    H2 7771   3.007   5.414   2.279
 2589TIP3   OH2 7772   2.001   3.338   4.478
 2589TIP3    H1 7773   1.973   3.358   4.388
 2589TIP3    H2 7774   1.930   3.371   4.533
 2590TIP3   OH2 7775   2.280   0.971   4.898
 2590TIP3    H1 7776   2.336   0.921   4.839
 2590TIP3    H2 7777   2.303   0.938   4.985
 2591TIP3   OH2 7778   4.434   0.358   4.478
 2591TIP3    H1 7779   4.345   0.355   4.443
 2591TIP3    H2 7780   4.491   0.362   4.400
 2592TIP3   OH2 7781   2.369   5.319   0.064
 2592TIP3    H1 7782   2.366   5.332  -0.031
 2592TIP3    H2 7783   2.379   5.224   0.074
 2593TIP3   OH2 7784   3.557   5.600   1.728
 2593TIP3    H1 7785   3.555   5.552   1.811
 2593TIP3    H2 7786   3.471   5.584   1.690
 2594TIP3   OH2 7787   5.430   4.155   4.643
 2594TIP3    H1 7788   5.432   4.097   4.567
 2594TIP3    H2 7789   5.432   4.095   4.718
 2595TIP3   OH2 7790   1.304   3.299   0.975
 2595TIP3    H1 7791   1.337   3.373   0.925
 2595TIP3    H2 7792   1.321   3.321   1.066
 2596TIP3   OH2 7793   5.844   3.557   3.603
 2596TIP3    H1 7794   5.854   3.472   3.646
 2596TIP3    H2 7795   5.931   3.597   3.608
 2597TIP3   OH2 7796   0.914   0.219   3.900
 2597TIP3    H1 7797   0.975   0.192   3.968
 2597TIP3    H2 7798   0.902   0.141   3.846
 2598TIP3   OH2 7799   1.186   5.947   1.302
 2598TIP3    H1 7800   1.193   6.029   1.252
 2598TIP3    H2 7801   1.276   5.923   1.321
 2599TIP3   OH2 7802   2.235   3.082   2.396
 2599TIP3    H1 7803   2.277   3.068   2.311
 2599TIP3    H2 7804   2.164   3.018   2.398
 2600TIP3   OH2 7805   3.574   0.367   3.472
 2600TIP3    H1 7806   3.582   0.451   3.428
 2600TIP3    H2 7807   3.657   0.356   3.519
 2601TIP3   OH2 7808   0.683   2.419   4.856
 2601TIP3    H1 7809   0.746   2.442   4.925
 2601TIP3    H2 7810   0.734   2.422   4.775
 2602TIP3   OH2 7811   0.547   5.636   3.464
 2602TIP3    H1 7812   0.596   5.587   3.398
 2602TIP3    H2 7813   0.581   5.603   3.547
 2603TIP3   OH2 7814   2.501   0.675   1.520
 2603TIP3    H1 7815   2.502   0.721   1.604
 2603TIP3    H2 7816   2.564   0.724   1.466
 2604TIP3   OH2 7817   5.485   2.142   3.109
 2604TIP3    H1 7818   5.419   2.094   3.159
 2604TIP3    H2 7819   5.482   2.104   3.021
 2605TIP3   OH2 7820   0.805   2.344   4.575
 2605TIP3    H1 7821   0.827   2.261   4.618
 2605TIP3    H2 7822   0.779   2.318   4.486
 2606TIP3   OH2 7823   3.544   3.552   4.658
 2606TIP3    H1 7824   3.541   3.627   4.598
 2606TIP3    H2 7825   3.452   3.529   4.671
 2607TIP3   OH2 7826   6.212   1.556   3.696
 2607TIP3    H1 7827   6.232   1.502   3.620
 2607TIP3    H2 7828   6.127   1.596   3.675
 2608TIP3   OH2 7829   1.072   1.687   0.361
 2608TIP3    H1 7830   1.006   1.662   0.425
 2608TIP3    H2 7831   1.053   1.779   0.341
 2609TIP3   OH2 7832   1.587   4.772   1.279
 2609TIP3    H1 7833   1.494   4.750   1.286
 2609TIP3    H2 7834   1.632   4.690   1.294
 2610TIP3   OH2 7835   3.021   4.119   1.202
 2610TIP3    H1 7836   2.988   4.082   1.120
 2610TIP3    H2 7837   2.943   4.129   1.257
 2611TIP3   OH2 7838   0.958   0.555   3.315
 2611TIP3    H1 7839   0.867   0.545   3.343
 2611TIP3    H2 7840   0.958   0.637   3.265
 2612TIP3   OH2 7841   0.150   4.012   3.632
 2612TIP3    H1 7842   0.197   4.094   3.616
 2612TIP3    H2 7843   0.124   4.016   3.724
 2613TIP3   OH2 7844   5.134   4.666   0.407
 2613TIP3    H1 7845   5.102   4.682   0.318
 2613TIP3    H2 7846   5.132   4.571   0.416
 2614TIP3   OH2 7847   5.239   4.983   1.261
 2614TIP3    H1 7848   5.189   5.064   1.275
 2614TIP3    H2 7849   5.328   5.005   1.287
 2615TIP3   OH2 7850   0.046   4.930   0.722
 2615TIP3    H1 7851   0.054   4.963   0.633
 2615TIP3    H2 7852   0.035   4.836   0.712
 2616TIP3   OH2 7853   2.361   1.967   2.685
 2616TIP3    H1 7854   2.434   1.927   2.731
 2616TIP3    H2 7855   2.325   1.897   2.630
 2617TIP3   OH2 7856   1.894   1.296   0.499
 2617TIP3    H1 7857   1.987   1.281   0.516
 2617TIP3    H2 7858   1.876   1.381   0.537
 2618TIP3   OH2 7859   4.772   3.787   4.740
 2618TIP3    H1 7860   4.862   3.810   4.718
 2618TIP3    H2 7861   4.765   3.805   4.833
 2619TIP3   OH2 7862   3.245   3.916   0.013
 2619TIP3    H1 7863   3.264   3.840   0.068
 2619TIP3    H2 7864   3.216   3.879  -0.071
 2620TIP3   OH2 7865   3.022   0.233   0.011
 2620TIP3    H1 7866   2.955   0.276  -0.042
 2620TIP3    H2 7867   3.012   0.269   0.098
 2621TIP3   OH2 7868   5.684   1.720   0.352
 2621TIP3    H1 7869   5.630   1.774   0.294
 2621TIP3    H2 7870   5.732   1.783   0.407
 2622TIP3   OH2 7871   2.015   0.477   1.605
 2622TIP3    H1 7872   1.964   0.444   1.532
 2622TIP3    H2 7873   2.091   0.518   1.565
 2623TIP3   OH2 7874   5.565   0.401   4.697
 2623TIP3    H1 7875   5.480   0.368   4.669
 2623TIP3    H2 7876   5.591   0.462   4.628
 2624TIP3   OH2 7877   1.172   4.070   0.886
 2624TIP3    H1 7878   1.088   4.077   0.931
 2624TIP3    H2 7879   1.223   4.011   0.940
 2625TIP3   OH2 7880   4.161   0.626   1.329
 2625TIP3    H1 7881   4.110   0.661   1.256
 2625TIP3    H2 7882   4.117   0.661   1.407
 2626TIP3   OH2 7883   5.195   5.653   4.502
 2626TIP3    H1 7884   5.229   5.707   4.430
 2626TIP3    H2 7885   5.168   5.716   4.568
 2627TIP3   OH2 7886   4.029   0.839   3.846
 2627TIP3    H1 7887   4.017   0.852   3.752
 2627TIP3    H2 7888   4.111   0.791   3.854
 2628TIP3   OH2 7889   3.511   2.905   2.899
 2628TIP3    H1 7890   3.458   2.836   2.937
 2628TIP3    H2 7891   3.511   2.975   2.965
 2629TIP3   OH2 7892   1.053   2.427   2.487
 2629TIP3    H1 7893   0.969   2.382   2.498
 2629TIP3    H2 7894   1.115   2.373   2.535
 2630TIP3   OH2 7895   3.045   2.137   3.313
 2630TIP3    H1 7896   3.046   2.160   3.220
 2630TIP3    H2 7897   3.120   2.078   3.324
 2631TIP3   OH2 7898   3.633   3.143   3.451
 2631TIP3    H1 7899   3.650   3.184   3.366
 2631TIP3    H2 7900   3.642   3.049   3.433
 2632TIP3   OH2 7901   3.585   1.914   0.227
 2632TIP3    H1 7902   3.585   1.886   0.135
 2632TIP3    H2 7903   3.610   1.836   0.276
 2633TIP3   OH2 7904   5.715   0.237   1.515
 2633TIP3    H1 7905   5.629   0.247   1.554
 2633TIP3    H2 7906   5.756   0.323   1.524
 2634TIP3   OH2 7907   0.843   3.771   2.205
 2634TIP3    H1 7908   0.903   3.820   2.261
 2634TIP3    H2 7909   0.761   3.768   2.254
 2635TIP3   OH2 7910   2.267   4.670   2.960
 2635TIP3    H1 7911   2.227   4.623   2.887
 2635TIP3    H2 7912   2.226   4.756   2.959
 2636TIP3   OH2 7913   3.532   1.536   1.738
 2636TIP3    H1 7914   3.536   1.546   1.643
 2636TIP3    H2 7915   3.612   1.577   1.770
 2637TIP3   OH2 7916   6.080   4.016   0.092
 2637TIP3    H1 7917   6.032   4.085   0.048
 2637TIP3    H2 7918   6.159   4.004   0.040
 2638TIP3   OH2 7919   0.664   5.670   3.698
 2638TIP3    H1 7920   0.692   5.755   3.665
 2638TIP3    H2 7921   0.678   5.675   3.793
 2639TIP3   OH2 7922   5.377   4.967   3.370
 2639TIP3    H1 7923   5.364   5.062   3.374
 2639TIP3    H2 7924   5.302   4.931   3.416
 2640TIP3   OH2 7925   5.579   3.407   0.306
 2640TIP3    H1 7926   5.564   3.499   0.328
 2640TIP3    H2 7927   5.642   3.410   0.234
 2641TIP3   OH2 7928   0.317   4.206   0.392
 2641TIP3    H1 7929   0.315   4.188   0.486
 2641TIP3    H2 7930   0.291   4.123   0.352
 2642TIP3   OH2 7931   5.313   0.303   4.606
 2642TIP3    H1 7932   5.237   0.327   4.553
 2642TIP3    H2 7933   5.343   0.220   4.570
 2643TIP3   OH2 7934   2.026   0.444   2.192
 2643TIP3    H1 7935   2.049   0.489   2.274
 2643TIP3    H2 7936   2.107   0.440   2.143
 2644TIP3   OH2 7937   5.654   4.768   2.680
 2644TIP3    H1 7938   5.639   4.675   2.665
 2644TIP3    H2 7939   5.705   4.771   2.761
 2645TIP3   OH2 7940   4.568   1.320   0.807
 2645TIP3    H1 7941   4.546   1.296   0.897
 2645TIP3    H2 7942   4.593   1.412   0.812
 2646TIP3   OH2 7943   6.049   4.049   3.452
 2646TIP3    H1 7944   6.016   4.123   3.504
 2646TIP3    H2 7945   5.970   4.005   3.421
 2647TIP3   OH2 7946   6.290   4.786   3.103
 2647TIP3    H1 7947   6.262   4.709   3.153
 2647TIP3    H2 7948   6.382   4.770   3.084
 2648TIP3   OH2 7949   3.861   4.269   0.175
 2648TIP3    H1 7950   3.879   4.241   0.085
 2648TIP3    H2 7951   3.868   4.189   0.227
 2649TIP3   OH2 7952   5.128   0.618   0.201
 2649TIP3    H1 7953   5.172   0.535   0.222
 2649TIP3    H2 7954   5.046   0.615   0.251
 2650TIP3   OH2 7955   5.698   2.663   1.458
 2650TIP3    H1 7956   5.739   2.606   1.392
 2650TIP3    H2 7957   5.606   2.638   1.457
 2651TIP3   OH2 7958   1.507   5.648   4.836
 2651TIP3    H1 7959   1.586   5.698   4.858
 2651TIP3    H2 7960   1.481   5.608   4.919
 2652TIP3   OH2 7961   0.190   5.431   2.245
 2652TIP3    H1 7962   0.274   5.461   2.212
 2652TIP3    H2 7963   0.189   5.337   2.227
 2653TIP3   OH2 7964   5.595   5.827   2.182
 2653TIP3    H1 7965   5.537   5.901   2.161
 2653TIP3    H2 7966   5.628   5.798   2.097
 2654TIP3   OH2 7967   2.037   5.557   0.946
 2654TIP3    H1 7968   1.980   5.480   0.950
 2654TIP3    H2 7969   2.042   5.578   0.853
 2655TIP3   OH2 7970   5.687   3.321   1.787
 2655TIP3    H1 7971   5.702   3.226   1.792
 2655TIP3    H2 7972   5.639   3.341   1.868
 2656TIP3   OH2 7973   4.904   2.873   4.817
 2656TIP3    H1 7974   4.955   2.866   4.737
 2656TIP3    H2 7975   4.956   2.930   4.874
 2657TIP3   OH2 7976   1.745   1.396   0.808
 2657TIP3    H1 7977   1.671   1.457   0.802
 2657TIP3    H2 7978   1.822   1.453   0.819
 2658TIP3   OH2 7979   1.094   2.606   3.051
 2658TIP3    H1 7980   1.119   2.542   2.984
 2658TIP3    H2 7981   0.999   2.615   3.041
 2659TIP3   OH2 7982   4.613   5.408   3.651
 2659TIP3    H1 7983   4.685   5.352   3.676
 2659TIP3    H2 7984   4.548   5.348   3.613
 2660TIP3   OH2 7985   1.047   2.608   1.878
 2660TIP3    H1 7986   0.969   2.565   1.842
 2660TIP3    H2 7987   1.059   2.568   1.965
 2661TIP3   OH2 7988   0.496   1.101   2.211
 2661TIP3    H1 7989   0.549   1.021   2.211
 2661TIP3    H2 7990   0.514   1.141   2.126
 2662TIP3   OH2 7991   1.028   4.850   3.472
 2662TIP3    H1 7992   1.106   4.850   3.417
 2662TIP3    H2 7993   1.037   4.929   3.526
 2663TIP3   OH2 7994   3.741   0.574   0.583
 2663TIP3    H1 7995   3.670   0.510   0.592
 2663TIP3    H2 7996   3.812   0.539   0.637
 2664TIP3   OH2 7997   6.326   5.877   4.941
 2664TIP3    H1 7998   6.420   5.867   4.960
 2664TIP3    H2 7999   6.322   5.883   4.846
 2665TIP3   OH2 8000   5.752   0.952   4.197
 2665TIP3    H1 8001   5.673   1.002   4.219
 2665TIP3    H2 8002   5.758   0.957   4.102
 2666TIP3   OH2 8003   0.237   4.976   0.941
 2666TIP3    H1 8004   0.196   4.943   0.861
 2666TIP3    H2 8005   0.327   4.996   0.916
 2667TIP3   OH2 8006   3.711   5.814   3.207
 2667TIP3    H1 8007   3.737   5.889   3.259
 2667TIP3    H2 8008   3.744   5.834   3.119
 2668TIP3   OH2 8009   6.042   1.731   0.537
 2668TIP3    H1 8010   6.056   1.691   0.451
 2668TIP3    H2 8011   5.977   1.800   0.522
 2669TIP3   OH2 8012   5.097   5.710   4.826
 2669TIP3    H1 8013   5.192   5.701   4.833
 2669TIP3    H2 8014   5.082   5.804   4.824
 2670TIP3   OH2 8015   3.029   5.840   5.147
 2670TIP3    H1 8016   3.097   5.777   5.170
 2670TIP3    H2 8017   2.947   5.795   5.165
 2671TIP3   OH2 8018   6.178   0.438   0.096
 2671TIP3    H1 8019   6.142   0.407   0.012
 2671TIP3    H2 8020   6.153   0.371   0.159
 2672TIP3   OH2 8021   3.098   2.496   1.443
 2672TIP3    H1 8022   3.106   2.403   1.460
 2672TIP3    H2 8023   3.005   2.510   1.425
 2673TIP3   OH2 8024   2.667   1.180   1.191
 2673TIP3    H1 8025   2.686   1.151   1.102
 2673TIP3    H2 8026   2.643   1.272   1.181
 2674TIP3   OH2 8027   5.103   3.401   0.104
 2674TIP3    H1 8028   5.099   3.416   0.199
 2674TIP3    H2 8029   5.188   3.359   0.091
 2675TIP3   OH2 8030   4.700   2.482   2.858
 2675TIP3    H1 8031   4.702   2.402   2.804
 2675TIP3    H2 8032   4.646   2.543   2.808
 2676TIP3   OH2 8033   3.015   1.669   3.944
 2676TIP3    H1 8034   2.974   1.716   4.017
 2676TIP3    H2 8035   3.108   1.669   3.966
 2677TIP3   OH2 8036   1.749   0.261   5.007
 2677TIP3    H1 8037   1.710   0.198   4.946
 2677TIP3    H2 8038   1.826   0.216   5.042
 2678TIP3   OH2 8039   0.330   1.976   1.557
 2678TIP3    H1 8040   0.413   1.976   1.510
 2678TIP3    H2 8041   0.352   1.942   1.644
 2679TIP3   OH2 8042   2.718   0.139   4.101
 2679TIP3    H1 8043   2.642   0.179   4.143
 2679TIP3    H2 8044   2.772   0.214   4.072
 2680TIP3   OH2 8045   6.130   0.629   2.975
 2680TIP3    H1 8046   6.225   0.638   2.964
 2680TIP3    H2 8047   6.119   0.600   3.065
 2681TIP3   OH2 8048   1.840   2.986   4.017
 2681TIP3    H1 8049   1.823   2.937   3.937
 2681TIP3    H2 8050   1.784   2.944   4.083
 2682TIP3   OH2 8051   3.328   5.946   2.817
 2682TIP3    H1 8052   3.374   6.024   2.784
 2682TIP3    H2 8053   3.395   5.899   2.867
 2683TIP3   OH2 8054   2.572   3.455   2.372
 2683TIP3    H1 8055   2.583   3.527   2.310
 2683TIP3    H2 8056   2.603   3.378   2.325
 2684TIP3   OH2 8057   1.379   3.781   3.369
 2684TIP3    H1 8058   1.293   3.804   3.332
 2684TIP3    H2 8059   1.420   3.725   3.303
 2685TIP3   OH2 8060   5.001   5.485   0.692
 2685TIP3    H1 8061   5.072   5.512   0.635
 2685TIP3    H2 8062   4.943   5.561   0.698
 2686TIP3   OH2 8063   5.265   4.897   0.675
 2686TIP3    H1 8064   5.224   4.874   0.759
 2686TIP3    H2 8065   5.326   4.968   0.697
 2687TIP3   OH2 8066   4.359   3.377   0.455
 2687TIP3    H1 8067   4.278   3.408   0.495
 2687TIP3    H2 8068   4.423   3.380   0.526
 2688TIP3   OH2 8069   5.343   4.848   0.156
 2688TIP3    H1 8070   5.351   4.934   0.115
 2688TIP3    H2 8071   5.421   4.840   0.211
 2689TIP3   OH2 8072   0.566   5.911   0.455
 2689TIP3    H1 8073   0.554   6.005   0.464
 2689TIP3    H2 8074   0.478   5.875   0.464
 2690TIP3   OH2 8075   0.681   2.283   2.080
 2690TIP3    H1 8076   0.710   2.310   2.167
 2690TIP3    H2 8077   0.663   2.365   2.034
 2691TIP3   OH2 8078   1.661   5.845   3.083
 2691TIP3    H1 8079   1.751   5.878   3.079
 2691TIP3    H2 8080   1.656   5.803   3.169
 2692TIP3   OH2 8081   4.145   5.843   2.047
 2692TIP3    H1 8082   4.167   5.771   1.987
 2692TIP3    H2 8083   4.074   5.889   2.003
 2693TIP3   OH2 8084   0.366   5.712   4.543
 2693TIP3    H1 8085   0.318   5.633   4.566
 2693TIP3    H2 8086   0.376   5.707   4.448
 2694TIP3   OH2 8087   4.879   4.780   4.342
 2694TIP3    H1 8088   4.800   4.756   4.392
 2694TIP3    H2 8089   4.876   4.723   4.265
 2695TIP3   OH2 8090   4.888   5.398   3.010
 2695TIP3    H1 8091   4.878   5.459   2.936
 2695TIP3    H2 8092   4.804   5.402   3.055
 2696TIP3   OH2 8093   0.092   4.976   0.442
 2696TIP3    H1 8094   0.036   4.985   0.364
 2696TIP3    H2 8095   0.155   4.909   0.418
 2697TIP3   OH2 8096   4.046   3.411   0.233
 2697TIP3    H1 8097   4.106   3.337   0.244
 2697TIP3    H2 8098   3.965   3.382   0.276
 2698TIP3   OH2 8099   0.935   5.207   0.539
 2698TIP3    H1 8100   0.871   5.240   0.602
 2698TIP3    H2 8101   1.017   5.250   0.563
 2699TIP3   OH2 8102   1.004   0.685   3.577
 2699TIP3    H1 8103   0.915   0.717   3.562
 2699TIP3    H2 8104   1.017   0.616   3.512
 2700TIP3   OH2 8105   2.594   3.307   1.601
 2700TIP3    H1 8106   2.633   3.249   1.535
 2700TIP3    H2 8107   2.551   3.247   1.662
 2701TIP3   OH2 8108   1.158   5.461   3.768
 2701TIP3    H1 8109   1.093   5.390   3.768
 2701TIP3    H2 8110   1.157   5.493   3.858
 2702TIP3   OH2 8111   2.859   3.497   2.475
 2702TIP3    H1 8112   2.942   3.466   2.510
 2702TIP3    H2 8113   2.807   3.417   2.462
 2703TIP3   OH2 8114   4.804   3.503   4.904
 2703TIP3    H1 8115   4.710   3.492   4.889
 2703TIP3    H2 8116   4.812   3.592   4.939
 2704TIP3   OH2 8117   5.264   1.911   2.408
 2704TIP3    H1 8118   5.179   1.914   2.452
 2704TIP3    H2 8119   5.250   1.853   2.333
 2705TIP3   OH2 8120   3.609   4.825   3.638
 2705TIP3    H1 8121   3.576   4.800   3.724
 2705TIP3    H2 8122   3.702   4.802   3.640
 2706TIP3   OH2 8123   2.837   4.268   1.390
 2706TIP3    H1 8124   2.870   4.194   1.440
 2706TIP3    H2 8125   2.837   4.341   1.452
 2707TIP3   OH2 8126   4.739   5.177   3.714
 2707TIP3    H1 8127   4.807   5.166   3.781
 2707TIP3    H2 8128   4.679   5.104   3.729
 2708TIP3   OH2 8129   3.582   2.303   4.365
 2708TIP3    H1 8130   3.492   2.320   4.340
 2708TIP3    H2 8131   3.626   2.278   4.284
 2709TIP3   OH2 8132   2.334   1.229   4.220
 2709TIP3    H1 8133   2.269   1.218   4.290
 2709TIP3    H2 8134   2.283   1.253   4.143
 2710TIP3   OH2 8135   4.706   2.806   2.809
 2710TIP3    H1 8136   4.703   2.884   2.754
 2710TIP3    H2 8137   4.662   2.738   2.758
 2711TIP3   OH2 8138   5.611   0.987   0.100
 2711TIP3    H1 8139   5.650   0.980   0.013
 2711TIP3    H2 8140   5.604   0.896   0.131
 2712TIP3   OH2 8141   4.458   4.098   2.710
 2712TIP3    H1 8142   4.545   4.062   2.690
 2712TIP3    H2 8143   4.472   4.148   2.791
 2713TIP3   OH2 8144   4.618   4.630   2.208
 2713TIP3    H1 8145   4.682   4.560   2.199
 2713TIP3    H2 8146   4.670   4.710   2.209
 2714TIP3   OH2 8147   0.117   0.843   3.642
 2714TIP3    H1 8148   0.150   0.893   3.567
 2714TIP3    H2 8149   0.022   0.845   3.634
 2715TIP3   OH2 8150   0.237   3.482   1.553
 2715TIP3    H1 8151   0.206   3.571   1.571
 2715TIP3    H2 8152   0.192   3.457   1.472
 2716TIP3   OH2 8153   4.136   5.816   0.196
 2716TIP3    H1 8154   4.187   5.781   0.270
 2716TIP3    H2 8155   4.129   5.741   0.136
 2717TIP3   OH2 8156   0.078   4.663   0.666
 2717TIP3    H1 8157   0.076   4.582   0.616
 2717TIP3    H2 8158   0.171   4.682   0.678
 2718TIP3   OH2 8159   1.188   2.605   1.372
 2718TIP3    H1 8160   1.263   2.564   1.415
 2718TIP3    H2 8161   1.112   2.569   1.418
 2719TIP3   OH2 8162   0.702   2.646   0.478
 2719TIP3    H1 8163   0.739   2.727   0.514
 2719TIP3    H2 8164   0.700   2.586   0.553
 2720TIP3   OH2 8165   0.119   2.978   2.376
 2720TIP3    H1 8166   0.169   2.933   2.308
 2720TIP3    H2 8167   0.058   3.034   2.328
 2721TIP3   OH2 8168   0.816   2.853   1.047
 2721TIP3    H1 8169   0.724   2.872   1.033
 2721TIP3    H2 8170   0.860   2.937   1.038
 2722TIP3   OH2 8171   4.677   0.493   2.559
 2722TIP3    H1 8172   4.725   0.511   2.479
 2722TIP3    H2 8173   4.585   0.510   2.537
 2723TIP3   OH2 8174   0.804   4.069   2.647
 2723TIP3    H1 8175   0.802   4.026   2.733
 2723TIP3    H2 8176   0.816   3.997   2.585
 2724TIP3   OH2 8177   2.015   2.079   1.761
 2724TIP3    H1 8178   1.938   2.133   1.744
 2724TIP3    H2 8179   2.045   2.107   1.847
 2725TIP3   OH2 8180   5.475   0.447   0.967
 2725TIP3    H1 8181   5.551   0.397   0.939
 2725TIP3    H2 8182   5.501   0.539   0.956
 2726TIP3   OH2 8183   4.747   2.281   0.898
 2726TIP3    H1 8184   4.731   2.191   0.927
 2726TIP3    H2 8185   4.821   2.310   0.952
 2727TIP3   OH2 8186   1.382   4.625   3.019
 2727TIP3    H1 8187   1.381   4.689   2.948
 2727TIP3    H2 8188   1.289   4.602   3.030
 2728TIP3   OH2 8189   2.710   4.299   5.062
 2728TIP3    H1 8190   2.739   4.390   5.059
 2728TIP3    H2 8191   2.748   4.264   5.142
 2729TIP3   OH2 8192   3.687   3.585   4.985
 2729TIP3    H1 8193   3.731   3.523   4.926
 2729TIP3    H2 8194   3.599   3.593   4.950
 2730TIP3   OH2 8195   6.019   2.884   5.020
 2730TIP3    H1 8196   6.006   2.947   4.949
 2730TIP3    H2 8197   6.013   2.937   5.100
 2731TIP3   OH2 8198   4.141   3.890   2.682
 2731TIP3    H1 8199   4.047   3.875   2.671
 2731TIP3    H2 8200   4.153   3.983   2.662
 2732TIP3   OH2 8201   2.752   4.551   0.058
 2732TIP3    H1 8202   2.808   4.621   0.024
 2732TIP3    H2 8203   2.724   4.502  -0.020
 2733TIP3   OH2 8204   1.088   5.153   5.199
 2733TIP3    H1 8205   1.075   5.065   5.233
 2733TIP3    H2 8206   1.064   5.147   5.106
 2734TIP3   OH2 8207   0.895   0.822   4.052
 2734TIP3    H1 8208   0.983   0.797   4.082
 2734TIP3    H2 8209   0.846   0.740   4.051
 2735TIP3   OH2 8210   4.318   1.671   1.260
 2735TIP3    H1 8211   4.223   1.657   1.258
 2735TIP3    H2 8212   4.333   1.720   1.341
 2736TIP3   OH2 8213   4.465   1.029   3.076
 2736TIP3    H1 8214   4.423   1.075   3.004
 2736TIP3    H2 8215   4.525   1.093   3.114
 2737TIP3   OH2 8216   2.406   2.560   4.224
 2737TIP3    H1 8217   2.472   2.540   4.158
 2737TIP3    H2 8218   2.455   2.599   4.296
 2738TIP3   OH2 8219   2.485   2.108   5.046
 2738TIP3    H1 8220   2.494   2.124   4.953
 2738TIP3    H2 8221   2.413   2.044   5.052
 2739TIP3   OH2 8222   0.119   1.300   3.750
 2739TIP3    H1 8223   0.043   1.265   3.702
 2739TIP3    H2 8224   0.158   1.223   3.791
 2740TIP3   OH2 8225   6.075   4.512   0.347
 2740TIP3    H1 8226   6.051   4.547   0.261
 2740TIP3    H2 8227   6.123   4.582   0.389
 2741TIP3   OH2 8228   5.653   4.434   2.040
 2741TIP3    H1 8229   5.650   4.383   1.959
 2741TIP3    H2 8230   5.744   4.425   2.071
 2742TIP3   OH2 8231   1.223   1.772   3.638
 2742TIP3    H1 8232   1.200   1.862   3.660
 2742TIP3    H2 8233   1.147   1.720   3.667
 2743TIP3   OH2 8234   1.133   2.265   0.050
 2743TIP3    H1 8235   1.063   2.294   0.108
 2743TIP3    H2 8236   1.089   2.243  -0.032
 2744TIP3   OH2 8237   1.379   2.895   1.975
 2744TIP3    H1 8238   1.394   2.982   2.011
 2744TIP3    H2 8239   1.381   2.837   2.051
 2745TIP3   OH2 8240   4.323   1.907   2.725
 2745TIP3    H1 8241   4.236   1.943   2.708
 2745TIP3    H2 8242   4.337   1.921   2.818
 2746TIP3   OH2 8243   2.200   5.714   0.365
 2746TIP3    H1 8244   2.126   5.736   0.422
 2746TIP3    H2 8245   2.160   5.678   0.286
 2747TIP3   OH2 8246   3.605   4.315   1.805
 2747TIP3    H1 8247   3.677   4.261   1.837
 2747TIP3    H2 8248   3.609   4.395   1.858
 2748TIP3   OH2 8249   5.260   2.288   4.608
 2748TIP3    H1 8250   5.249   2.203   4.565
 2748TIP3    H2 8251   5.193   2.344   4.568
 2749TIP3   OH2 8252   3.462   2.637   2.916
 2749TIP3    H1 8253   3.407   2.568   2.954
 2749TIP3    H2 8254   3.533   2.589   2.873
 2750TIP3   OH2 8255   1.338   2.732   2.248
 2750TIP3    H1 8256   1.402   2.670   2.284
 2750TIP3    H2 8257   1.255   2.685   2.250
 2751TIP3   OH2 8258   4.934   1.158   1.382
 2751TIP3    H1 8259   4.849   1.156   1.339
 2751TIP3    H2 8260   4.979   1.080   1.350
 2752TIP3   OH2 8261   0.294   2.134   0.766
 2752TIP3    H1 8262   0.377   2.098   0.734
 2752TIP3    H2 8263   0.317   2.220   0.802
 2753TIP3   OH2 8264   0.374   4.102   1.899
 2753TIP3    H1 8265   0.285   4.114   1.932
 2753TIP3    H2 8266   0.424   4.175   1.936
 2754TIP3   OH2 8267   3.330   5.118   3.510
 2754TIP3    H1 8268   3.320   5.210   3.536
 2754TIP3    H2 8269   3.268   5.071   3.566
 2755TIP3   OH2 8270   4.719   5.301   4.021
 2755TIP3    H1 8271   4.690   5.301   4.112
 2755TIP3    H2 8272   4.784   5.231   4.016
 2756TIP3   OH2 8273   1.508   1.538   4.941
 2756TIP3    H1 8274   1.551   1.516   4.858
 2756TIP3    H2 8275   1.501   1.454   4.987
 2757TIP3   OH2 8276   4.617   3.102   3.284
 2757TIP3    H1 8277   4.661   3.071   3.363
 2757TIP3    H2 8278   4.539   3.148   3.317
 2758TIP3   OH2 8279   3.220   4.108   4.182
 2758TIP3    H1 8280   3.140   4.057   4.185
 2758TIP3    H2 8281   3.227   4.139   4.092
 2759TIP3   OH2 8282   2.588   2.388   4.122
 2759TIP3    H1 8283   2.651   2.385   4.194
 2759TIP3    H2 8284   2.553   2.299   4.117
 2760TIP3   OH2 8285   5.607   1.239   0.219
 2760TIP3    H1 8286   5.531   1.240   0.278
 2760TIP3    H2 8287   5.606   1.152   0.180
 2761TIP3   OH2 8288   1.666   2.271   3.654
 2761TIP3    H1 8289   1.583   2.318   3.641
 2761TIP3    H2 8290   1.708   2.272   3.568
 2762TIP3   OH2 8291   4.092   1.525   0.031
 2762TIP3    H1 8292   4.029   1.454   0.022
 2762TIP3    H2 8293   4.040   1.605   0.025
 2763TIP3   OH2 8294   4.297   3.947   1.419
 2763TIP3    H1 8295   4.313   3.961   1.325
 2763TIP3    H2 8296   4.253   3.862   1.424
 2764TIP3   OH2 8297   0.760   5.106   1.964
 2764TIP3    H1 8298   0.672   5.071   1.976
 2764TIP3    H2 8299   0.772   5.111   1.869
 2765TIP3   OH2 8300   0.335   1.606   2.020
 2765TIP3    H1 8301   0.347   1.568   1.934
 2765TIP3    H2 8302   0.385   1.688   2.018
 2766TIP3   OH2 8303   3.206   0.651   4.607
 2766TIP3    H1 8304   3.233   0.571   4.561
 2766TIP3    H2 8305   3.278   0.670   4.667
 2767TIP3   OH2 8306   3.327   0.235   1.645
 2767TIP3    H1 8307   3.277   0.154   1.649
 2767TIP3    H2 8308   3.267   0.301   1.680
 2768TIP3   OH2 8309   1.265   3.691   2.818
 2768TIP3    H1 8310   1.325   3.750   2.864
 2768TIP3    H2 8311   1.304   3.604   2.829
 2769TIP3   OH2 8312   3.045   1.509   4.646
 2769TIP3    H1 8313   3.063   1.572   4.576
 2769TIP3    H2 8314   2.974   1.455   4.611
 2770TIP3   OH2 8315   4.918   0.875   3.000
 2770TIP3    H1 8316   4.998   0.829   2.977
 2770TIP3    H2 8317   4.946   0.943   3.061
 2771TIP3   OH2 8318   3.449   1.601   5.014
 2771TIP3    H1 8319   3.456   1.685   4.967
 2771TIP3    H2 8320   3.381   1.617   5.080
 2772TIP3   OH2 8321   1.123   2.197   1.493
 2772TIP3    H1 8322   1.093   2.279   1.532
 2772TIP3    H2 8323   1.193   2.167   1.551
 2773TIP3   OH2 8324   1.974   3.734   0.089
 2773TIP3    H1 8325   2.019   3.651   0.103
 2773TIP3    H2 8326   1.918   3.718   0.013
 2774TIP3   OH2 8327   3.278   3.689   0.187
 2774TIP3    H1 8328   3.370   3.672   0.209
 2774TIP3    H2 8329   3.240   3.603   0.173
 2775TIP3   OH2 8330   1.069   5.310   4.653
 2775TIP3    H1 8331   1.090   5.360   4.732
 2775TIP3    H2 8332   1.019   5.235   4.685
 2776TIP3   OH2 8333   3.148   4.439   4.377
 2776TIP3    H1 8334   3.056   4.448   4.400
 2776TIP3    H2 8335   3.181   4.371   4.436
 2777TIP3   OH2 8336   6.245   1.551   3.044
 2777TIP3    H1 8337   6.276   1.463   3.024
 2777TIP3    H2 8338   6.254   1.599   2.961
 2778TIP3   OH2 8339   2.722   4.619   0.726
 2778TIP3    H1 8340   2.636   4.579   0.711
 2778TIP3    H2 8341   2.732   4.621   0.821
 2779TIP3   OH2 8342   1.514   5.159   2.881
 2779TIP3    H1 8343   1.512   5.233   2.942
 2779TIP3    H2 8344   1.597   5.168   2.834
 2780TIP3   OH2 8345   4.897   0.929   3.595
 2780TIP3    H1 8346   4.865   0.918   3.505
 2780TIP3    H2 8347   4.840   0.996   3.632
 2781TIP3   OH2 8348   5.448   2.410   0.011
 2781TIP3    H1 8349   5.419   2.323  -0.014
 2781TIP3    H2 8350   5.393   2.433   0.087
 2782TIP3   OH2 8351   2.210   4.543   1.416
 2782TIP3    H1 8352   2.282   4.481   1.409
 2782TIP3    H2 8353   2.246   4.626   1.385
 2783TIP3   OH2 8354   6.073   2.404   0.805
 2783TIP3    H1 8355   6.009   2.446   0.863
 2783TIP3    H2 8356   6.157   2.443   0.830
 2784TIP3   OH2 8357   1.230   4.269   5.125
 2784TIP3    H1 8358   1.265   4.257   5.213
 2784TIP3    H2 8359   1.277   4.346   5.091
 2785TIP3   OH2 8360   0.727   3.534   1.246
 2785TIP3    H1 8361   0.659   3.497   1.301
 2785TIP3    H2 8362   0.714   3.494   1.160
 2786TIP3   OH2 8363   5.679   3.154   3.301
 2786TIP3    H1 8364   5.652   3.242   3.324
 2786TIP3    H2 8365   5.713   3.117   3.383
 2787TIP3   OH2 8366   5.865   3.492   1.437
 2787TIP3    H1 8367   5.779   3.534   1.447
 2787TIP3    H2 8368   5.855   3.406   1.477
 2788TIP3   OH2 8369   0.253   2.392   0.992
 2788TIP3    H1 8370   0.238   2.303   1.022
 2788TIP3    H2 8371   0.168   2.421   0.959
 2789TIP3   OH2 8372   0.720   2.615   1.113
 2789TIP3    H1 8373   0.788   2.677   1.087
 2789TIP3    H2 8374   0.697   2.640   1.203
 2790TIP3   OH2 8375   2.918   1.854   2.075
 2790TIP3    H1 8376   3.005   1.816   2.066
 2790TIP3    H2 8377   2.878   1.806   2.148
 2791TIP3   OH2 8378   5.858   4.741   2.855
 2791TIP3    H1 8379   5.865   4.787   2.938
 2791TIP3    H2 8380   5.948   4.728   2.826
 2792TIP3   OH2 8381   3.937   1.419   4.055
 2792TIP3    H1 8382   3.883   1.352   4.097
 2792TIP3    H2 8383   4.001   1.370   4.003
 2793TIP3   OH2 8384   4.546   0.382   0.145
 2793TIP3    H1 8385   4.576   0.460   0.191
 2793TIP3    H2 8386   4.614   0.316   0.162
 2794TIP3   OH2 8387   2.574   5.471   3.956
 2794TIP3    H1 8388   2.529   5.400   4.003
 2794TIP3    H2 8389   2.667   5.449   3.962
 2795TIP3   OH2 8390   3.583   2.856   3.425
 2795TIP3    H1 8391   3.561   2.763   3.419
 2795TIP3    H2 8392   3.559   2.881   3.514
 2796TIP3   OH2 8393   4.860   0.465   3.535
 2796TIP3    H1 8394   4.923   0.484   3.604
 2796TIP3    H2 8395   4.780   0.443   3.582
 2797TIP3   OH2 8396   5.515   1.323   2.230
 2797TIP3    H1 8397   5.463   1.243   2.225
 2797TIP3    H2 8398   5.533   1.346   2.139
 2798TIP3   OH2 8399   5.191   3.808   4.849
 2798TIP3    H1 8400   5.219   3.878   4.908
 2798TIP3    H2 8401   5.114   3.845   4.805
 2799TIP3   OH2 8402   3.731   5.792   2.164
 2799TIP3    H1 8403   3.762   5.882   2.152
 2799TIP3    H2 8404   3.725   5.781   2.259
 2800TIP3   OH2 8405   1.563   1.760   1.056
 2800TIP3    H1 8406   1.483   1.803   1.024
 2800TIP3    H2 8407   1.537   1.668   1.070
 2801TIP3   OH2 8408   0.694   1.313   0.427
 2801TIP3    H1 8409   0.654   1.396   0.454
 2801TIP3    H2 8410   0.678   1.254   0.500
 2802TIP3   OH2 8411   3.579   2.625   2.472
 2802TIP3    H1 8412   3.613   2.647   2.558
 2802TIP3    H2 8413   3.593   2.704   2.420
 2803TIP3   OH2 8414   0.082   5.304   0.140
 2803TIP3    H1 8415   0.067   5.314   0.046
 2803TIP3    H2 8416   0.135   5.380   0.164
 2804TIP3   OH2 8417   5.191   1.927   4.816
 2804TIP3    H1 8418   5.138   2.004   4.797
 2804TIP3    H2 8419   5.128   1.860   4.842
 2805TIP3   OH2 8420   5.308   3.483   1.825
 2805TIP3    H1 8421   5.254   3.412   1.858
 2805TIP3    H2 8422   5.256   3.522   1.754
 2806TIP3   OH2 8423   0.113   2.848   2.642
 2806TIP3    H1 8424   0.158   2.909   2.585
 2806TIP3    H2 8425   0.157   2.764   2.627
 2807TIP3   OH2 8426   6.122   5.062   1.884
 2807TIP3    H1 8427   6.213   5.076   1.911
 2807TIP3    H2 8428   6.071   5.068   1.964
 2808TIP3   OH2 8429   0.380   4.271   4.502
 2808TIP3    H1 8430   0.325   4.196   4.483
 2808TIP3    H2 8431   0.329   4.323   4.565
 2809TIP3   OH2 8432   0.813   2.346   1.044
 2809TIP3    H1 8433   0.767   2.426   1.068
 2809TIP3    H2 8434   0.904   2.374   1.028
 2810TIP3   OH2 8435   0.132   4.941   3.242
 2810TIP3    H1 8436   0.123   4.973   3.152
 2810TIP3    H2 8437   0.049   4.897   3.260
 2811TIP3   OH2 8438   2.004   4.947   4.141
 2811TIP3    H1 8439   2.013   5.013   4.211
 2811TIP3    H2 8440   1.910   4.944   4.123
 2812TIP3   OH2 8441   0.776   2.028   3.467
 2812TIP3    H1 8442   0.696   2.070   3.499
 2812TIP3    H2 8443   0.748   1.942   3.437
 2813TIP3   OH2 8444   4.649   2.055   3.006
 2813TIP3    H1 8445   4.734   2.021   2.975
 2813TIP3    H2 8446   4.653   2.149   2.989
 2814TIP3   OH2 8447   5.698   2.076   3.315
 2814TIP3    H1 8448   5.653   2.110   3.238
 2814TIP3    H2 8449   5.786   2.056   3.283
 2815TIP3   OH2 8450   6.064   2.190   1.412
 2815TIP3    H1 8451   6.114   2.201   1.492
 2815TIP3    H2 8452   6.033   2.099   1.414
 2816TIP3   OH2 8453   4.013   5.701   0.784
 2816TIP3    H1 8454   4.024   5.739   0.872
 2816TIP3    H2 8455   4.025   5.607   0.797
 2817TIP3   OH2 8456   3.044   3.050   3.778
 2817TIP3    H1 8457   3.138   3.033   3.769
 2817TIP3    H2 8458   3.008   2.968   3.814
 2818TIP3   OH2 8459   0.686   5.713   2.275
 2818TIP3    H1 8460   0.717   5.623   2.277
 2818TIP3    H2 8461   0.760   5.764   2.243
 2819TIP3   OH2 8462   1.510   5.756   4.108
 2819TIP3    H1 8463   1.514   5.725   4.017
 2819TIP3    H2 8464   1.417   5.769   4.125
 2820TIP3   OH2 8465   6.085   1.215   3.286
 2820TIP3    H1 8466   6.092   1.309   3.271
 2820TIP3    H2 8467   6.167   1.179   3.255
 2821TIP3   OH2 8468   4.866   2.048   1.498
 2821TIP3    H1 8469   4.913   1.975   1.539
 2821TIP3    H2 8470   4.775   2.018   1.493
 2822TIP3   OH2 8471   1.519   3.543   2.783
 2822TIP3    H1 8472   1.563   3.562   2.700
 2822TIP3    H2 8473   1.584   3.493   2.833
 2823TIP3   OH2 8474   0.101   5.736   0.936
 2823TIP3    H1 8475   0.087   5.829   0.952
 2823TIP3    H2 8476   0.018   5.706   0.897
 2824TIP3   OH2 8477   4.951   5.485   4.906
 2824TIP3    H1 8478   4.980   5.576   4.904
 2824TIP3    H2 8479   4.868   5.485   4.858
 2825TIP3   OH2 8480   4.357   3.361   2.424
 2825TIP3    H1 8481   4.314   3.422   2.484
 2825TIP3    H2 8482   4.291   3.293   2.407
 2826TIP3   OH2 8483   6.306   0.576   0.315
 2826TIP3    H1 8484   6.263   0.539   0.237
 2826TIP3    H2 8485   6.243   0.561   0.385
 2827TIP3   OH2 8486   6.242   4.154   2.574
 2827TIP3    H1 8487   6.151   4.182   2.588
 2827TIP3    H2 8488   6.280   4.223   2.520
 2828TIP3   OH2 8489   5.562   4.317   1.345
 2828TIP3    H1 8490   5.494   4.309   1.412
 2828TIP3    H2 8491   5.644   4.299   1.391
 2829TIP3   OH2 8492   2.854   3.057   1.579
 2829TIP3    H1 8493   2.851   3.153   1.573
 2829TIP3    H2 8494   2.929   3.032   1.525
 2830TIP3   OH2 8495   0.256   0.683   3.343
 2830TIP3    H1 8496   0.161   0.679   3.353
 2830TIP3    H2 8497   0.290   0.665   3.431
 2831TIP3   OH2 8498   2.818   0.688   2.208
 2831TIP3    H1 8499   2.794   0.638   2.286
 2831TIP3    H2 8500   2.893   0.641   2.172
 2832TIP3   OH2 8501   4.382   2.042   1.847
 2832TIP3    H1 8502   4.319   2.002   1.787
 2832TIP3    H2 8503   4.348   2.023   1.934
 2833TIP3   OH2 8504   1.744   1.366   4.098
 2833TIP3    H1 8505   1.758   1.305   4.171
 2833TIP3    H2 8506   1.684   1.432   4.133
 2834TIP3   OH2 8507   0.969   5.793   1.152
 2834TIP3    H1 8508   0.968   5.705   1.190
 2834TIP3    H2 8509   1.025   5.844   1.211
 2835TIP3   OH2 8510   0.831   3.427   4.250
 2835TIP3    H1 8511   0.789   3.341   4.245
 2835TIP3    H2 8512   0.924   3.410   4.236
 2836TIP3   OH2 8513   4.657   3.928   2.588
 2836TIP3    H1 8514   4.745   3.960   2.611
 2836TIP3    H2 8515   4.672   3.868   2.515
 2837TIP3   OH2 8516   5.052   2.374   4.379
 2837TIP3    H1 8517   5.030   2.463   4.406
 2837TIP3    H2 8518   5.141   2.380   4.346
 2838TIP3   OH2 8519   0.273   1.261   2.688
 2838TIP3    H1 8520   0.364   1.291   2.696
 2838TIP3    H2 8521   0.247   1.287   2.600
 2839TIP3   OH2 8522   5.094   4.498   5.179
 2839TIP3    H1 8523   5.114   4.572   5.236
 2839TIP3    H2 8524   5.006   4.516   5.145
 2840TIP3   OH2 8525   1.134   0.780   4.258
 2840TIP3    H1 8526   1.174   0.772   4.171
 2840TIP3    H2 8527   1.186   0.722   4.314
 2841TIP3   OH2 8528   2.513   4.516   1.923
 2841TIP3    H1 8529   2.554   4.445   1.875
 2841TIP3    H2 8530   2.469   4.474   1.996
 2842TIP3   OH2 8531   3.181   0.516   0.267
 2842TIP3    H1 8532   3.171   0.589   0.328
 2842TIP3    H2 8533   3.188   0.557   0.181
 2843TIP3   OH2 8534   5.081   2.736   0.175
 2843TIP3    H1 8535   4.986   2.740   0.184
 2843TIP3    H2 8536   5.114   2.806   0.231
 2844TIP3   OH2 8537   5.987   1.074   4.202
 2844TIP3    H1 8538   6.037   1.070   4.120
 2844TIP3    H2 8539   5.909   1.022   4.184
 2845TIP3   OH2 8540   6.236   2.028   2.544
 2845TIP3    H1 8541   6.305   2.060   2.486
 2845TIP3    H2 8542   6.171   2.099   2.546
 2846TIP3   OH2 8543   4.352   5.655   2.270
 2846TIP3    H1 8544   4.386   5.569   2.293
 2846TIP3    H2 8545   4.258   5.642   2.261
 2847TIP3   OH2 8546   3.596   3.742   4.275
 2847TIP3    H1 8547   3.544   3.680   4.224
 2847TIP3    H2 8548   3.651   3.786   4.210
 2848TIP3   OH2 8549   1.190   0.057   0.795
 2848TIP3    H1 8550   1.181  -0.032   0.830
 2848TIP3    H2 8551   1.178   0.046   0.700
 2849TIP3   OH2 8552   0.360   1.608   4.511
 2849TIP3    H1 8553   0.441   1.565   4.538
 2849TIP3    H2 8554   0.356   1.687   4.565
 2850TIP3   OH2 8555   2.258   0.668   4.874
 2850TIP3    H1 8556   2.191   0.601   4.886
 2850TIP3    H2 8557   2.327   0.645   4.936
 2851TIP3   OH2 8558   2.544   1.849   1.274
 2851TIP3    H1 8559   2.531   1.867   1.367
 2851TIP3    H2 8560   2.455   1.853   1.237
 2852TIP3   OH2 8561   6.191   1.948   2.795
 2852TIP3    H1 8562   6.202   1.960   2.700
 2852TIP3    H2 8563   6.275   1.973   2.832
 2853TIP3   OH2 8564   5.633   3.157   4.697
 2853TIP3    H1 8565   5.617   3.103   4.774
 2853TIP3    H2 8566   5.560   3.218   4.694
 2854TIP3   OH2 8567   5.950   3.316   3.686
 2854TIP3    H1 8568   6.013   3.299   3.756
 2854TIP3    H2 8569   5.937   3.230   3.645
 2855TIP3   OH2 8570   1.938   4.095   3.006
 2855TIP3    H1 8571   1.987   4.124   2.929
 2855TIP3    H2 8572   1.906   4.176   3.046
 2856TIP3   OH2 8573   5.416   3.691   4.774
 2856TIP3    H1 8574   5.367   3.615   4.743
 2856TIP3    H2 8575   5.349   3.757   4.793
 2857TIP3   OH2 8576   1.609   2.413   2.161
 2857TIP3    H1 8577   1.516   2.430   2.147
 2857TIP3    H2 8578   1.642   2.393   2.073
 2858TIP3   OH2 8579   0.376   2.790   2.795
 2858TIP3    H1 8580   0.350   2.878   2.768
 2858TIP3    H2 8581   0.295   2.748   2.821
 2859TIP3   OH2 8582   2.873   5.003   2.569
 2859TIP3    H1 8583   2.814   5.064   2.614
 2859TIP3    H2 8584   2.852   5.014   2.476
 2860TIP3   OH2 8585   4.694   3.976   0.057
 2860TIP3    H1 8586   4.725   4.059   0.020
 2860TIP3    H2 8587   4.768   3.916   0.046
 2861TIP3   OH2 8588   0.097   2.753   2.901
 2861TIP3    H1 8589   0.024   2.692   2.912
 2861TIP3    H2 8590   0.089   2.784   2.811
 2862TIP3   OH2 8591   0.693   4.671   2.371
 2862TIP3    H1 8592   0.662   4.584   2.348
 2862TIP3    H2 8593   0.698   4.671   2.467
 2863TIP3   OH2 8594   4.203   5.185   2.642
 2863TIP3    H1 8595   4.152   5.152   2.568
 2863TIP3    H2 8596   4.254   5.109   2.671
 2864TIP3   OH2 8597   1.166   0.942   0.035
 2864TIP3    H1 8598   1.239   0.976   0.086
 2864TIP3    H2 8599   1.179   0.847   0.035
 2865TIP3   OH2 8600   5.190   4.561   4.854
 2865TIP3    H1 8601   5.283   4.550   4.836
 2865TIP3    H2 8602   5.158   4.472   4.868
 2866TIP3   OH2 8603   0.509   2.048   3.615
 2866TIP3    H1 8604   0.432   2.085   3.658
 2866TIP3    H2 8605   0.505   1.955   3.635
 2867TIP3   OH2 8606   3.043   4.146   2.705
 2867TIP3    H1 8607   3.128   4.109   2.679
 2867TIP3    H2 8608   3.028   4.217   2.643
 2868TIP3   OH2 8609   5.194   5.623   5.137
 2868TIP3    H1 8610   5.166   5.580   5.057
 2868TIP3    H2 8611   5.248   5.697   5.108
 2869TIP3   OH2 8612   6.163   3.870   2.553
 2869TIP3    H1 8613   6.197   3.959   2.563
 2869TIP3    H2 8614   6.102   3.859   2.627
 2870TIP3   OH2 8615   0.602   1.785   3.422
 2870TIP3    H1 8616   0.640   1.701   3.397
 2870TIP3    H2 8617   0.512   1.780   3.391
 2871TIP3   OH2 8618   2.989   0.524   4.373
 2871TIP3    H1 8619   3.019   0.610   4.344
 2871TIP3    H2 8620   3.070   0.475   4.389
 2872TIP3   OH2 8621   5.635   2.204   2.819
 2872TIP3    H1 8622   5.575   2.278   2.830
 2872TIP3    H2 8623   5.721   2.239   2.844
 2873TIP3   OH2 8624   6.269   3.399   3.784
 2873TIP3    H1 8625   6.316   3.436   3.711
 2873TIP3    H2 8626   6.268   3.468   3.850
 2874TIP3   OH2 8627   4.631   0.232   0.453
 2874TIP3    H1 8628   4.663   0.297   0.515
 2874TIP3    H2 8629   4.558   0.189   0.498
 2875TIP3   OH2 8630   1.030   0.939   4.615
 2875TIP3    H1 8631   1.032   0.967   4.706
 2875TIP3    H2 8632   1.009   1.018   4.565
 2876TIP3   OH2 8633   4.146   0.956   4.545
 2876TIP3    H1 8634   4.149   1.043   4.504
 2876TIP3    H2 8635   4.054   0.930   4.538
 2877TIP3   OH2 8636   4.235   2.788   4.743
 2877TIP3    H1 8637   4.291   2.863   4.764
 2877TIP3    H2 8638   4.240   2.780   4.648
 2878TIP3   OH2 8639   1.474   2.072   2.554
 2878TIP3    H1 8640   1.562   2.071   2.591
 2878TIP3    H2 8641   1.431   1.996   2.592
 2879TIP3   OH2 8642   1.612   4.914   0.258
 2879TIP3    H1 8643   1.618   5.008   0.244
 2879TIP3    H2 8644   1.551   4.905   0.331
 2880TIP3   OH2 8645   3.446   3.642   1.943
 2880TIP3    H1 8646   3.528   3.600   1.919
 2880TIP3    H2 8647   3.411   3.675   1.861
 2881TIP3   OH2 8648   6.298   1.990   0.577
 2881TIP3    H1 8649   6.344   1.921   0.529
 2881TIP3    H2 8650   6.243   2.032   0.510
 2882TIP3   OH2 8651   0.051   3.168   3.682
 2882TIP3    H1 8652   0.059   3.264   3.680
 2882TIP3    H2 8653   0.067   3.141   3.591
 2883TIP3   OH2 8654   0.899   4.592   2.046
 2883TIP3    H1 8655   0.888   4.505   2.007
 2883TIP3    H2 8656   0.834   4.646   2.001
 2884TIP3   OH2 8657   1.063   3.213   3.546
 2884TIP3    H1 8658   1.112   3.131   3.547
 2884TIP3    H2 8659   1.097   3.260   3.470
 2885TIP3   OH2 8660   1.687   2.848   2.681
 2885TIP3    H1 8661   1.750   2.776   2.685
 2885TIP3    H2 8662   1.610   2.815   2.727
 2886TIP3   OH2 8663   3.909   2.382   3.545
 2886TIP3    H1 8664   3.973   2.316   3.518
 2886TIP3    H2 8665   3.839   2.377   3.480
 2887TIP3   OH2 8666   1.572   0.453   0.037
 2887TIP3    H1 8667   1.666   0.437   0.031
 2887TIP3    H2 8668   1.550   0.499  -0.043
 2888TIP3   OH2 8669   0.843   3.771   0.658
 2888TIP3    H1 8670   0.919   3.807   0.610
 2888TIP3    H2 8671   0.879   3.739   0.740
 2889TIP3   OH2 8672   4.643   0.567   4.575
 2889TIP3    H1 8673   4.654   0.495   4.512
 2889TIP3    H2 8674   4.563   0.611   4.547
 2890TIP3   OH2 8675   0.096   3.280   0.612
 2890TIP3    H1 8676   0.027   3.347   0.606
 2890TIP3    H2 8677   0.100   3.258   0.705
 2891TIP3   OH2 8678   2.074   2.083   3.140
 2891TIP3    H1 8679   2.055   2.161   3.088
 2891TIP3    H2 8680   2.032   2.012   3.092
 2892TIP3   OH2 8681   0.609   3.383   1.475
 2892TIP3    H1 8682   0.529   3.367   1.526
 2892TIP3    H2 8683   0.636   3.296   1.445
 2893TIP3   OH2 8684   1.642   0.232   3.270
 2893TIP3    H1 8685   1.682   0.319   3.277
 2893TIP3    H2 8686   1.709   0.172   3.305
 2894TIP3   OH2 8687   3.843   3.303   1.387
 2894TIP3    H1 8688   3.752   3.296   1.415
 2894TIP3    H2 8689   3.886   3.354   1.456
 2895TIP3   OH2 8690   2.596   0.439   2.135
 2895TIP3    H1 8691   2.513   0.484   2.120
 2895TIP3    H2 8692   2.621   0.465   2.224
 2896TIP3   OH2 8693   3.248   2.547   3.831
 2896TIP3    H1 8694   3.205   2.553   3.746
 2896TIP3    H2 8695   3.177   2.558   3.894
 2897TIP3   OH2 8696   1.621   1.167   1.463
 2897TIP3    H1 8697   1.654   1.255   1.477
 2897TIP3    H2 8698   1.620   1.155   1.368
 2898TIP3   OH2 8699   3.851   1.387   2.933
 2898TIP3    H1 8700   3.892   1.377   2.848
 2898TIP3    H2 8701   3.757   1.380   2.915
 2899TIP3   OH2 8702   1.780   1.574   0.527
 2899TIP3    H1 8703   1.760   1.630   0.602
 2899TIP3    H2 8704   1.849   1.621   0.481
 2900TIP3   OH2 8705   1.373   4.607   4.434
 2900TIP3    H1 8706   1.467   4.619   4.418
 2900TIP3    H2 8707   1.336   4.595   4.347
 2901TIP3   OH2 8708   2.514   5.478   0.225
 2901TIP3    H1 8709   2.430   5.440   0.200
 2901TIP3    H2 8710   2.493   5.532   0.302
 2902TIP3   OH2 8711   5.357   4.684   1.347
 2902TIP3    H1 8712   5.351   4.776   1.371
 2902TIP3    H2 8713   5.282   4.643   1.391
 2903TIP3   OH2 8714   1.117   0.343   2.459
 2903TIP3    H1 8715   1.164   0.411   2.412
 2903TIP3    H2 8716   1.054   0.308   2.396
 2904TIP3   OH2 8717   0.624   4.706   4.390
 2904TIP3    H1 8718   0.531   4.718   4.408
 2904TIP3    H2 8719   0.627   4.634   4.327
 2905TIP3   OH2 8720   5.960   4.999   2.098
 2905TIP3    H1 8721   6.025   5.034   2.159
 2905TIP3    H2 8722   5.883   4.980   2.153
 2906TIP3   OH2 8723   2.925   3.778   3.443
 2906TIP3    H1 8724   2.957   3.860   3.405
 2906TIP3    H2 8725   2.892   3.803   3.529
 2907TIP3   OH2 8726   6.296   2.851   4.024
 2907TIP3    H1 8727   6.308   2.769   3.977
 2907TIP3    H2 8728   6.271   2.914   3.957
 2908TIP3   OH2 8729   4.413   2.311   4.554
 2908TIP3    H1 8730   4.503   2.300   4.525
 2908TIP3    H2 8731   4.360   2.287   4.479
 2909TIP3   OH2 8732   3.556   2.228   3.039
 2909TIP3    H1 8733   3.632   2.176   3.015
 2909TIP3    H2 8734   3.481   2.175   3.013
 2910TIP3   OH2 8735   1.667   4.473   3.620
 2910TIP3    H1 8736   1.634   4.562   3.636
 2910TIP3    H2 8737   1.699   4.475   3.530
 2911TIP3   OH2 8738   2.121   5.064   2.323
 2911TIP3    H1 8739   2.063   5.015   2.264
 2911TIP3    H2 8740   2.077   5.061   2.407
 2912TIP3   OH2 8741   3.245   5.134   0.607
 2912TIP3    H1 8742   3.268   5.212   0.556
 2912TIP3    H2 8743   3.154   5.148   0.633
 2913TIP3   OH2 8744   0.306   0.098   3.810
 2913TIP3    H1 8745   0.264   0.153   3.876
 2913TIP3    H2 8746   0.242   0.028   3.794
 2914TIP3   OH2 8747   1.986   0.975  -0.024
 2914TIP3    H1 8748   1.905   1.024  -0.009
 2914TIP3    H2 8749   2.002   0.930   0.059
 2915TIP3   OH2 8750   2.995   0.201   3.956
 2915TIP3    H1 8751   2.943   0.240   3.886
 2915TIP3    H2 8752   2.950   0.227   4.037
 2916TIP3   OH2 8753   0.965   4.284   0.929
 2916TIP3    H1 8754   0.923   4.335   0.860
 2916TIP3    H2 8755   0.894   4.234   0.969
 2917TIP3   OH2 8756   4.819   4.426   0.681
 2917TIP3    H1 8757   4.863   4.501   0.721
 2917TIP3    H2 8758   4.880   4.354   0.693
 2918TIP3   OH2 8759   0.805   3.070   0.855
 2918TIP3    H1 8760   0.826   3.114   0.938
 2918TIP3    H2 8761   0.849   3.122   0.788
 2919TIP3   OH2 8762   4.065   2.294   0.168
 2919TIP3    H1 8763   4.148   2.252   0.147
 2919TIP3    H2 8764   4.061   2.292   0.263
 2920TIP3   OH2 8765   3.096   0.773   0.408
 2920TIP3    H1 8766   3.048   0.848   0.373
 2920TIP3    H2 8767   3.188   0.793   0.390
 2921TIP3   OH2 8768   4.820   5.949   1.924
 2921TIP3    H1 8769   4.782   5.883   1.982
 2921TIP3    H2 8770   4.807   6.032   1.969
 2922TIP3   OH2 8771   5.684   4.105   2.346
 2922TIP3    H1 8772   5.757   4.127   2.404
 2922TIP3    H2 8773   5.634   4.186   2.340
 2923TIP3   OH2 8774   0.144   4.162   2.266
 2923TIP3    H1 8775   0.220   4.195   2.218
 2923TIP3    H2 8776   0.180   4.126   2.347
 2924TIP3   OH2 8777   3.666   5.249   1.275
 2924TIP3    H1 8778   3.614   5.170   1.257
 2924TIP3    H2 8779   3.611   5.301   1.333
 2925TIP3   OH2 8780   4.248   2.792   3.767
 2925TIP3    H1 8781   4.215   2.881   3.759
 2925TIP3    H2 8782   4.172   2.737   3.746
 2926TIP3   OH2 8783   3.606   4.423   0.162
 2926TIP3    H1 8784   3.685   4.369   0.152
 2926TIP3    H2 8785   3.550   4.373   0.222
 2927TIP3   OH2 8786   0.694   0.433   2.470
 2927TIP3    H1 8787   0.713   0.343   2.497
 2927TIP3    H2 8788   0.754   0.487   2.521
 2928TIP3   OH2 8789   1.825   4.246   2.760
 2928TIP3    H1 8790   1.761   4.246   2.689
 2928TIP3    H2 8791   1.772   4.254   2.839
 2929TIP3   OH2 8792   3.408   1.261   0.418
 2929TIP3    H1 8793   3.490   1.216   0.397
 2929TIP3    H2 8794   3.424   1.298   0.505
 2930TIP3   OH2 8795   5.101   2.837   2.356
 2930TIP3    H1 8796   5.159   2.819   2.431
 2930TIP3    H2 8797   5.155   2.818   2.279
 2931TIP3   OH2 8798   1.276   2.154   5.107
 2931TIP3    H1 8799   1.345   2.142   5.041
 2931TIP3    H2 8800   1.257   2.065   5.138
 2932TIP3   OH2 8801   3.937   2.201   2.352
 2932TIP3    H1 8802   3.889   2.260   2.410
 2932TIP3    H2 8803   3.928   2.240   2.265
 2933TIP3   OH2 8804   1.021   1.627   3.757
 2933TIP3    H1 8805   0.954   1.559   3.751
 2933TIP3    H2 8806   0.981   1.696   3.808
 2934TIP3   OH2 8807   1.726   0.301   3.677
 2934TIP3    H1 8808   1.765   0.222   3.641
 2934TIP3    H2 8809   1.632   0.285   3.673
 2935TIP3   OH2 8810   1.246   3.955   4.785
 2935TIP3    H1 8811   1.152   3.937   4.788
 2935TIP3    H2 8812   1.274   3.952   4.877
 2936TIP3   OH2 8813   1.482   1.113   0.539
 2936TIP3    H1 8814   1.501   1.105   0.633
 2936TIP3    H2 8815   1.496   1.025   0.504
 2937TIP3   OH2 8816   3.381   3.128   2.758
 2937TIP3    H1 8817   3.414   3.039   2.770
 2937TIP3    H2 8818   3.291   3.117   2.728
 2938TIP3   OH2 8819   0.756   0.197   3.292
 2938TIP3    H1 8820   0.841   0.239   3.304
 2938TIP3    H2 8821   0.754   0.128   3.358
 2939TIP3   OH2 8822   3.406   0.648   3.620
 2939TIP3    H1 8823   3.317   0.681   3.629
 2939TIP3    H2 8824   3.407   0.606   3.534
 2940TIP3   OH2 8825   0.867   2.068   4.808
 2940TIP3    H1 8826   0.961   2.077   4.794
 2940TIP3    H2 8827   0.860   2.015   4.888
 2941TIP3   OH2 8828   0.188   1.345   3.324
 2941TIP3    H1 8829   0.261   1.320   3.381
 2941TIP3    H2 8830   0.155   1.427   3.362
 2942TIP3   OH2 8831   4.349   1.026   3.315
 2942TIP3    H1 8832   4.385   1.002   3.229
 2942TIP3    H2 8833   4.406   1.097   3.345
 2943TIP3   OH2 8834   5.912   4.117   2.530
 2943TIP3    H1 8835   5.910   4.186   2.596
 2943TIP3    H2 8836   5.891   4.037   2.577
 2944TIP3   OH2 8837   2.369   3.904   3.677
 2944TIP3    H1 8838   2.460   3.918   3.653
 2944TIP3    H2 8839   2.356   3.810   3.671
 2945TIP3   OH2 8840   5.482   1.954   1.009
 2945TIP3    H1 8841   5.541   2.014   1.054
 2945TIP3    H2 8842   5.451   1.895   1.078
 2946TIP3   OH2 8843   4.254   2.649   0.538
 2946TIP3    H1 8844   4.263   2.717   0.605
 2946TIP3    H2 8845   4.335   2.599   0.544
 2947TIP3   OH2 8846   3.624   4.283   4.678
 2947TIP3    H1 8847   3.586   4.202   4.645
 2947TIP3    H2 8848   3.609   4.347   4.608
 2948TIP3   OH2 8849   2.436   2.616   4.913
 2948TIP3    H1 8850   2.444   2.705   4.946
 2948TIP3    H2 8851   2.461   2.561   4.988
 2949TIP3   OH2 8852   2.829   5.048   2.289
 2949TIP3    H1 8853   2.759   5.094   2.241
 2949TIP3    H2 8854   2.798   4.958   2.296
 2950TIP3   OH2 8855   5.708   3.873   3.955
 2950TIP3    H1 8856   5.724   3.786   3.917
 2950TIP3    H2 8857   5.720   3.859   4.049
 2951TIP3   OH2 8858   3.451   0.059   4.791
 2951TIP3    H1 8859   3.514   0.013   4.846
 2951TIP3    H2 8860   3.426   0.136   4.842
 2952TIP3   OH2 8861   0.108   0.831   2.180
 2952TIP3    H1 8862   0.146   0.913   2.213
 2952TIP3    H2 8863   0.059   0.796   2.255
 2953TIP3   OH2 8864   2.120   2.881   1.796
 2953TIP3    H1 8865   2.188   2.905   1.733
 2953TIP3    H2 8866   2.154   2.803   1.839
 2954TIP3   OH2 8867   1.156   2.546   2.234
 2954TIP3    H1 8868   1.079   2.510   2.189
 2954TIP3    H2 8869   1.144   2.522   2.326
 2955TIP3   OH2 8870   5.335   5.291   2.492
 2955TIP3    H1 8871   5.372   5.376   2.469
 2955TIP3    H2 8872   5.345   5.239   2.412
 2956TIP3   OH2 8873   5.188   5.893   1.723
 2956TIP3    H1 8874   5.196   5.887   1.818
 2956TIP3    H2 8875   5.230   5.814   1.690
 2957TIP3   OH2 8876   6.281   1.246   1.238
 2957TIP3    H1 8877   6.296   1.151   1.231
 2957TIP3    H2 8878   6.328   1.282   1.162
 2958TIP3   OH2 8879   2.833   5.891   4.590
 2958TIP3    H1 8880   2.860   5.809   4.633
 2958TIP3    H2 8881   2.738   5.895   4.603
 2959TIP3   OH2 8882   6.360   4.637   4.499
 2959TIP3    H1 8883   6.382   4.713   4.444
 2959TIP3    H2 8884   6.319   4.575   4.439
 2960TIP3   OH2 8885   2.506   5.516   4.508
 2960TIP3    H1 8886   2.556   5.559   4.439
 2960TIP3    H2 8887   2.420   5.502   4.470
 2961TIP3   OH2 8888   3.157   5.723   3.570
 2961TIP3    H1 8889   3.109   5.696   3.492
 2961TIP3    H2 8890   3.094   5.774   3.621
 2962TIP3   OH2 8891   4.426   2.958   4.824
 2962TIP3    H1 8892   4.518   2.948   4.846
 2962TIP3    H2 8893   4.424   3.024   4.755
 2963TIP3   OH2 8894   6.085   1.354   1.973
 2963TIP3    H1 8895   6.011   1.407   2.005
 2963TIP3    H2 8896   6.084   1.368   1.878
 2964TIP3   OH2 8897   3.582   0.583   1.698
 2964TIP3    H1 8898   3.553   0.492   1.703
 2964TIP3    H2 8899   3.633   0.597   1.778
 2965TIP3   OH2 8900   5.176   1.527   2.073
 2965TIP3    H1 8901   5.137   1.492   1.993
 2965TIP3    H2 8902   5.162   1.459   2.139
 2966TIP3   OH2 8903   4.486   5.888   2.882
 2966TIP3    H1 8904   4.576   5.903   2.852
 2966TIP3    H2 8905   4.495   5.861   2.973
 2967TIP3   OH2 8906   2.400   0.889   2.946
 2967TIP3    H1 8907   2.392   0.803   2.904
 2967TIP3    H2 8908   2.490   0.893   2.976
 2968TIP3   OH2 8909   4.555   4.088   4.745
 2968TIP3    H1 8910   4.478   4.144   4.736
 2968TIP3    H2 8911   4.601   4.123   4.821
 2969TIP3   OH2 8912   3.129   3.984   0.384
 2969TIP3    H1 8913   3.150   3.893   0.401
 2969TIP3    H2 8914   3.044   3.998   0.427
 2970TIP3   OH2 8915   2.718   1.598   4.738
 2970TIP3    H1 8916   2.775   1.543   4.792
 2970TIP3    H2 8917   2.676   1.658   4.799
 2971TIP3   OH2 8918   3.180   3.070   0.719
 2971TIP3    H1 8919   3.265   3.030   0.737
 2971TIP3    H2 8920   3.180   3.083   0.624
 2972TIP3   OH2 8921   6.118   3.168   3.423
 2972TIP3    H1 8922   6.069   3.113   3.483
 2972TIP3    H2 8923   6.080   3.150   3.337
 2973TIP3   OH2 8924   6.303   0.542   4.134
 2973TIP3    H1 8925   6.341   0.567   4.218
 2973TIP3    H2 8926   6.336   0.453   4.119
 2974TIP3   OH2 8927   0.776   2.829   4.693
 2974TIP3    H1 8928   0.724   2.855   4.617
 2974TIP3    H2 8929   0.714   2.830   4.766
 2975TIP3   OH2 8930   1.955   3.960   4.226
 2975TIP3    H1 8931   1.962   4.015   4.148
 2975TIP3    H2 8932   1.894   4.008   4.283
 2976TIP3   OH2 8933   1.717  -0.021   1.327
 2976TIP3    H1 8934   1.641   0.037   1.333
 2976TIP3    H2 8935   1.769   0.014   1.254
 2977TIP3   OH2 8936   4.788   2.723   1.556
 2977TIP3    H1 8937   4.840   2.796   1.588
 2977TIP3    H2 8938   4.698   2.756   1.552
 2978TIP3   OH2 8939   0.558   3.571   0.842
 2978TIP3    H1 8940   0.515   3.583   0.926
 2978TIP3    H2 8941   0.491   3.533   0.785
 2979TIP3   OH2 8942   5.375   0.380   1.890
 2979TIP3    H1 8943   5.414   0.300   1.855
 2979TIP3    H2 8944   5.296   0.393   1.838
 2980TIP3   OH2 8945   4.619   0.194   3.379
 2980TIP3    H1 8946   4.619   0.101   3.401
 2980TIP3    H2 8947   4.659   0.237   3.455
 2981TIP3   OH2 8948   4.478   3.320   3.392
 2981TIP3    H1 8949   4.522   3.313   3.477
 2981TIP3    H2 8950   4.526   3.390   3.347
 2982TIP3   OH2 8951   5.538   3.030   3.711
 2982TIP3    H1 8952   5.618   3.017   3.661
 2982TIP3    H2 8953   5.553   2.982   3.793
 2983TIP3   OH2 8954   4.841   1.221   3.935
 2983TIP3    H1 8955   4.815   1.130   3.928
 2983TIP3    H2 8956   4.775   1.261   3.993
 2984TIP3   OH2 8957   1.545   5.408   3.014
 2984TIP3    H1 8958   1.510   5.494   2.990
 2984TIP3    H2 8959   1.638   5.413   2.990
 2985TIP3   OH2 8960   2.237   5.888   0.671
 2985TIP3    H1 8961   2.219   5.933   0.754
 2985TIP3    H2 8962   2.262   5.958   0.611
 2986TIP3   OH2 8963   2.576   4.312   3.722
 2986TIP3    H1 8964   2.622   4.384   3.679
 2986TIP3    H2 8965   2.506   4.354   3.771
 2987TIP3   OH2 8966   0.859   3.174   1.939
 2987TIP3    H1 8967   0.866   3.083   1.908
 2987TIP3    H2 8968   0.904   3.225   1.872
 2988TIP3   OH2 8969   4.028   2.259   1.400
 2988TIP3    H1 8970   4.067   2.271   1.314
 2988TIP3    H2 8971   4.103   2.243   1.458
 2989TIP3   OH2 8972   1.633   1.536   2.864
 2989TIP3    H1 8973   1.711   1.500   2.822
 2989TIP3    H2 8974   1.612   1.473   2.933
 2990TIP3   OH2 8975   2.378   1.350   2.001
 2990TIP3    H1 8976   2.345   1.395   1.923
 2990TIP3    H2 8977   2.390   1.420   2.066
 2991TIP3   OH2 8978   2.493   0.198   2.019
 2991TIP3    H1 8979   2.464   0.206   2.110
 2991TIP3    H2 8980   2.463   0.111   1.992
 2992TIP3   OH2 8981   4.610   5.282   0.518
 2992TIP3    H1 8982   4.550   5.219   0.480
 2992TIP3    H2 8983   4.574   5.300   0.605
 2993TIP3   OH2 8984   0.322   1.391   2.202
 2993TIP3    H1 8985   0.312   1.480   2.171
 2993TIP3    H2 8986   0.409   1.365   2.171
 2994TIP3   OH2 8987   3.278   3.873   2.303
 2994TIP3    H1 8988   3.320   3.802   2.256
 2994TIP3    H2 8989   3.335   3.949   2.288
 2995TIP3   OH2 8990   3.849   5.956   0.629
 2995TIP3    H1 8991   3.778   5.899   0.601
 2995TIP3    H2 8992   3.877   6.001   0.550
 2996TIP3   OH2 8993   2.099   3.007   4.105
 2996TIP3    H1 8994   2.018   2.970   4.071
 2996TIP3    H2 8995   2.145   2.933   4.145
 2997TIP3   OH2 8996   4.437   5.544   1.442
 2997TIP3    H1 8997   4.465   5.481   1.375
 2997TIP3    H2 8998   4.425   5.491   1.521
 2998TIP3   OH2 8999   4.850   3.289   3.587
 2998TIP3    H1 9000   4.762   3.312   3.618
 2998TIP3    H2 9001   4.886   3.372   3.555
 2999TIP3   OH2 9002   2.028   0.607   3.825
 2999TIP3    H1 9003   2.106   0.663   3.819
 2999TIP3    H2 9004   1.986   0.617   3.739
 3000TIP3   OH2 9005   5.685   1.344   0.515
 3000TIP3    H1 9006   5.726   1.285   0.578
 3000TIP3    H2 9007   5.729   1.428   0.528
 3001TIP3   OH2 9008   4.649   2.963   1.841
 3001TIP3    H1 9009   4.642   2.895   1.773
 3001TIP3    H2 9010   4.567   3.012   1.834
 3002TIP3   OH2 9011   1.441   0.389   3.807
 3002TIP3    H1 9012   1.395   0.448   3.749
 3002TIP3    H2 9013   1.402   0.303   3.791
 3003TIP3   OH2 9014   0.742   5.769   3.051
 3003TIP3    H1 9015   0.649   5.758   3.031
 3003TIP3    H2 9016   0.744   5.792   3.144
 3004TIP3   OH2 9017   0.842   4.569   3.646
 3004TIP3    H1 9018   0.764   4.562   3.701
 3004TIP3    H2 9019   0.819   4.521   3.566
 3005TIP3   OH2 9020   1.280   1.803   2.340
 3005TIP3    H1 9021   1.347   1.784   2.274
 3005TIP3    H2 9022   1.207   1.839   2.290
 3006TIP3   OH2 9023   1.815   2.592   2.730
 3006TIP3    H1 9024   1.746   2.527   2.717
 3006TIP3    H2 9025   1.894   2.540   2.745
 3007TIP3   OH2 9026   4.555   4.511   0.607
 3007TIP3    H1 9027   4.568   4.566   0.530
 3007TIP3    H2 9028   4.636   4.459   0.613
 3008TIP3   OH2 9029   2.511  -0.009   2.388
 3008TIP3    H1 9030   2.459   0.064   2.356
 3008TIP3    H2 9031   2.601   0.014   2.366
 3009TIP3   OH2 9032   2.188   3.550   2.492
 3009TIP3    H1 9033   2.132   3.606   2.546
 3009TIP3    H2 9034   2.126   3.501   2.438
 3010TIP3   OH2 9035   5.283   5.391   4.472
 3010TIP3    H1 9036   5.257   5.482   4.487
 3010TIP3    H2 9037   5.273   5.378   4.378
 3011TIP3   OH2 9038   0.136   0.661   0.646
 3011TIP3    H1 9039   0.201   0.658   0.576
 3011TIP3    H2 9040   0.168   0.727   0.707
 3012TIP3   OH2 9041   2.954   4.712   3.194
 3012TIP3    H1 9042   2.970   4.620   3.177
 3012TIP3    H2 9043   2.875   4.713   3.248
 3013TIP3   OH2 9044   2.970   1.128   5.050
 3013TIP3    H1 9045   3.005   1.108   4.963
 3013TIP3    H2 9046   3.020   1.204   5.079
 3014TIP3   OH2 9047   0.332   5.848   0.826
 3014TIP3    H1 9048   0.261   5.810   0.878
 3014TIP3    H2 9049   0.308   5.830   0.735
 3015TIP3   OH2 9050   5.509   1.087   1.815
 3015TIP3    H1 9051   5.439   1.050   1.869
 3015TIP3    H2 9052   5.542   1.161   1.866
 3016TIP3   OH2 9053   3.961   3.496   5.148
 3016TIP3    H1 9054   4.001   3.565   5.095
 3016TIP3    H2 9055   3.987   3.414   5.106
 3017TIP3   OH2 9056   0.263   5.604   2.789
 3017TIP3    H1 9057   0.288   5.660   2.716
 3017TIP3    H2 9058   0.312   5.523   2.776
 3018TIP3   OH2 9059   0.391   0.626   3.561
 3018TIP3    H1 9060   0.367   0.570   3.635
 3018TIP3    H2 9061   0.475   0.591   3.531
 3019TIP3   OH2 9062   4.750   0.181   2.633
 3019TIP3    H1 9063   4.807   0.225   2.570
 3019TIP3    H2 9064   4.787   0.204   2.718
 3020TIP3   OH2 9065   0.106   0.087   3.090
 3020TIP3    H1 9066   0.033   0.066   3.031
 3020TIP3    H2 9067   0.175   0.120   3.032
 3021TIP3   OH2 9068   1.485   0.043   3.048
 3021TIP3    H1 9069   1.539  -0.020   3.095
 3021TIP3    H2 9070   1.419   0.070   3.112
 3022TIP3   OH2 9071   0.579   2.211   0.712
 3022TIP3    H1 9072   0.621   2.142   0.660
 3022TIP3    H2 9073   0.532   2.265   0.648
 3023TIP3   OH2 9074   3.196   1.332   4.389
 3023TIP3    H1 9075   3.197   1.365   4.299
 3023TIP3    H2 9076   3.104   1.339   4.416
 3024TIP3   OH2 9077   2.732   2.861   0.809
 3024TIP3    H1 9078   2.689   2.801   0.748
 3024TIP3    H2 9079   2.822   2.869   0.776
 3025TIP3   OH2 9080   0.330   3.903   1.426
 3025TIP3    H1 9081   0.373   3.956   1.492
 3025TIP3    H2 9082   0.376   3.922   1.345
 3026TIP3   OH2 9083   2.529   4.025   3.972
 3026TIP3    H1 9084   2.470   4.062   3.906
 3026TIP3    H2 9085   2.470   3.987   4.037
 3027TIP3   OH2 9086   5.493   4.170   2.030
 3027TIP3    H1 9087   5.554   4.243   2.027
 3027TIP3    H2 9088   5.430   4.189   1.961
 3028TIP3   OH2 9089   0.079   5.127   1.539
 3028TIP3    H1 9090   0.046   5.098   1.454
 3028TIP3    H2 9091   0.012   5.187   1.572
 3029TIP3   OH2 9092   3.383   1.444   3.703
 3029TIP3    H1 9093   3.456   1.416   3.759
 3029TIP3    H2 9094   3.365   1.534   3.730
 3030TIP3   OH2 9095   0.244   1.977   3.916
 3030TIP3    H1 9096   0.162   2.025   3.926
 3030TIP3    H2 9097   0.218   1.885   3.919
 3031TIP3   OH2 9098   3.317   0.600   0.628
 3031TIP3    H1 9099   3.363   0.684   0.630
 3031TIP3    H2 9100   3.386   0.535   0.647
 3032TIP3   OH2 9101   4.707   3.940   3.737
 3032TIP3    H1 9102   4.647   3.981   3.675
 3032TIP3    H2 9103   4.655   3.868   3.775
 3033TIP3   OH2 9104   6.083   0.106   3.942
 3033TIP3    H1 9105   6.092   0.062   4.026
 3033TIP3    H2 9106   6.030   0.184   3.962
 3034TIP3   OH2 9107   4.264   2.827   2.607
 3034TIP3    H1 9108   4.260   2.772   2.685
 3034TIP3    H2 9109   4.176   2.823   2.569
 3035TIP3   OH2 9110   4.959   2.530   4.857
 3035TIP3    H1 9111   5.037   2.548   4.804
 3035TIP3    H2 9112   4.953   2.605   4.917
 3036TIP3   OH2 9113   2.307   4.803   2.001
 3036TIP3    H1 9114   2.231   4.755   2.036
 3036TIP3    H2 9115   2.360   4.824   2.078
 3037TIP3   OH2 9116   1.327   3.405   3.414
 3037TIP3    H1 9117   1.386   3.332   3.394
 3037TIP3    H2 9118   1.385   3.475   3.445
 3038TIP3   OH2 9119   0.888   3.426   2.401
 3038TIP3    H1 9120   0.812   3.401   2.349
 3038TIP3    H2 9121   0.907   3.349   2.455
 3039TIP3   OH2 9122   3.999   4.535   5.016
 3039TIP3    H1 9123   4.042   4.493   5.090
 3039TIP3    H2 9124   3.959   4.463   4.967
 3040TIP3   OH2 9125   6.006   5.901   0.790
 3040TIP3    H1 9126   5.940   5.916   0.723
 3040TIP3    H2 9127   6.057   5.983   0.791
 3041TIP3   OH2 9128   1.677   4.101   1.916
 3041TIP3    H1 9129   1.617   4.171   1.893
 3041TIP3    H2 9130   1.682   4.046   1.837
 3042TIP3   OH2 9131   3.229   1.989   3.676
 3042TIP3    H1 9132   3.295   1.948   3.732
 3042TIP3    H2 9133   3.207   2.070   3.722
 3043TIP3   OH2 9134   2.853   3.069   0.141
 3043TIP3    H1 9135   2.835   3.061   0.234
 3043TIP3    H2 9136   2.774   3.108   0.104
 3044TIP3   OH2 9137   5.508   5.338   1.831
 3044TIP3    H1 9138   5.539   5.427   1.847
 3044TIP3    H2 9139   5.557   5.284   1.893
 3045TIP3   OH2 9140   2.636   1.472   2.286
 3045TIP3    H1 9141   2.646   1.475   2.381
 3045TIP3    H2 9142   2.658   1.381   2.263
 3046TIP3   OH2 9143   0.391   1.698   4.970
 3046TIP3    H1 9144   0.444   1.690   4.891
 3046TIP3    H2 9145   0.317   1.639   4.955
 3047TIP3   OH2 9146   5.470   4.504   4.150
 3047TIP3    H1 9147   5.397   4.503   4.088
 3047TIP3    H2 9148   5.480   4.413   4.177
 3048TIP3   OH2 9149   1.481   0.118   1.926
 3048TIP3    H1 9150   1.483   0.162   2.010
 3048TIP3    H2 9151   1.523   0.034   1.942
 3049TIP3   OH2 9152   2.922   3.718   1.738
 3049TIP3    H1 9153   2.885   3.674   1.814
 3049TIP3    H2 9154   2.886   3.670   1.663
 3050TIP3   OH2 9155   3.200   1.911   3.121
 3050TIP3    H1 9156   3.129   1.866   3.075
 3050TIP3    H2 9157   3.208   1.865   3.205
 3051TIP3   OH2 9158   4.058   1.141   4.092
 3051TIP3    H1 9159   4.073   1.113   4.002
 3051TIP3    H2 9160   3.964   1.133   4.104
 3052TIP3   OH2 9161   3.080   0.720   0.718
 3052TIP3    H1 9162   3.143   0.675   0.662
 3052TIP3    H2 9163   3.094   0.682   0.805
 3053TIP3   OH2 9164   4.167   5.550   1.372
 3053TIP3    H1 9165   4.252   5.569   1.410
 3053TIP3    H2 9166   4.180   5.559   1.277
 3054TIP3   OH2 9167   5.466   4.404   0.428
 3054TIP3    H1 9168   5.485   4.316   0.459
 3054TIP3    H2 9169   5.543   4.430   0.378
 3055TIP3   OH2 9170   3.077   0.121   4.247
 3055TIP3    H1 9171   3.087   0.028   4.225
 3055TIP3    H2 9172   3.016   0.122   4.320
 3056TIP3   OH2 9173   5.839   2.389   4.095
 3056TIP3    H1 9174   5.760   2.351   4.133
 3056TIP3    H2 9175   5.823   2.483   4.097
 3057TIP3   OH2 9176   0.197   3.645   4.768
 3057TIP3    H1 9177   0.231   3.609   4.687
 3057TIP3    H2 9178   0.264   3.626   4.833
 3058TIP3   OH2 9179   5.999   5.086   0.684
 3058TIP3    H1 9180   6.093   5.087   0.667
 3058TIP3    H2 9181   5.968   5.171   0.654
 3059TIP3   OH2 9182   5.528   1.444   3.576
 3059TIP3    H1 9183   5.478   1.522   3.551
 3059TIP3    H2 9184   5.462   1.385   3.613
 3060TIP3   OH2 9185   4.028   5.554   1.932
 3060TIP3    H1 9186   3.964   5.619   1.902
 3060TIP3    H2 9187   4.037   5.494   1.858
 3061TIP3   OH2 9188   5.184   0.889   2.926
 3061TIP3    H1 9189   5.269   0.905   2.887
 3061TIP3    H2 9190   5.155   0.806   2.890
 3062TIP3   OH2 9191   3.486   3.708   0.598
 3062TIP3    H1 9192   3.541   3.653   0.654
 3062TIP3    H2 9193   3.545   3.777   0.566
 3063TIP3   OH2 9194   0.399   1.151   3.986
 3063TIP3    H1 9195   0.492   1.173   3.974
 3063TIP3    H2 9196   0.374   1.109   3.903
 3064TIP3   OH2 9197   5.870   5.754   3.032
 3064TIP3    H1 9198   5.827   5.671   3.008
 3064TIP3    H2 9199   5.885   5.746   3.126
 3065TIP3   OH2 9200   0.374   2.756   4.258
 3065TIP3    H1 9201   0.360   2.745   4.164
 3065TIP3    H2 9202   0.295   2.720   4.298
 3066TIP3   OH2 9203   0.863   3.699   4.279
 3066TIP3    H1 9204   0.825   3.611   4.281
 3066TIP3    H2 9205   0.911   3.703   4.196
 3067TIP3   OH2 9206   1.980   3.628   3.277
 3067TIP3    H1 9207   1.985   3.567   3.203
 3067TIP3    H2 9208   1.949   3.574   3.350
 3068TIP3   OH2 9209   3.630   0.952   4.877
 3068TIP3    H1 9210   3.575   0.978   4.951
 3068TIP3    H2 9211   3.583   0.880   4.835
 3069TIP3   OH2 9212   0.300   3.006   0.517
 3069TIP3    H1 9213   0.301   2.987   0.611
 3069TIP3    H2 9214   0.376   3.063   0.504
 3070TIP3   OH2 9215   0.303   1.070   1.755
 3070TIP3    H1 9216   0.234   1.105   1.812
 3070TIP3    H2 9217   0.379   1.064   1.812
 3071TIP3   OH2 9218   4.797   4.348   0.355
 3071TIP3    H1 9219   4.764   4.421   0.408
 3071TIP3    H2 9220   4.727   4.332   0.291
 3072TIP3   OH2 9221   3.075   3.413   4.303
 3072TIP3    H1 9222   3.106   3.334   4.260
 3072TIP3    H2 9223   3.154   3.465   4.320
 3073TIP3   OH2 9224   3.867   3.416   3.055
 3073TIP3    H1 9225   3.849   3.420   2.961
 3073TIP3    H2 9226   3.900   3.503   3.077
 3074TIP3   OH2 9227   0.851   3.498   0.024
 3074TIP3    H1 9228   0.841   3.419  -0.028
 3074TIP3    H2 9229   0.876   3.467   0.112
 3075TIP3   OH2 9230   5.226   2.721   2.857
 3075TIP3    H1 9231   5.184   2.726   2.943
 3075TIP3    H2 9232   5.301   2.779   2.864
 3076TIP3   OH2 9233   2.644   1.885   3.904
 3076TIP3    H1 9234   2.624   1.970   3.943
 3076TIP3    H2 9235   2.581   1.825   3.944
 3077TIP3   OH2 9236   0.136   2.908   1.874
 3077TIP3    H1 9237   0.058   2.867   1.911
 3077TIP3    H2 9238   0.102   2.980   1.820
 3078TIP3   OH2 9239   1.653   3.405   2.977
 3078TIP3    H1 9240   1.677   3.316   2.950
 3078TIP3    H2 9241   1.736   3.444   3.006
 3079TIP3   OH2 9242   2.670   3.717   2.913
 3079TIP3    H1 9243   2.589   3.679   2.877
 3079TIP3    H2 9244   2.729   3.724   2.838
 3080TIP3   OH2 9245   3.787   1.690   0.044
 3080TIP3    H1 9246   3.779   1.609  -0.006
 3080TIP3    H2 9247   3.707   1.739   0.023
 3081TIP3   OH2 9248   4.955   1.822   0.499
 3081TIP3    H1 9249   5.039   1.777   0.491
 3081TIP3    H2 9250   4.956   1.888   0.429
 3082TIP3   OH2 9251   2.677   0.868   2.942
 3082TIP3    H1 9252   2.713   0.880   3.030
 3082TIP3    H2 9253   2.691   0.775   2.924
 3083TIP3   OH2 9254   5.329   2.464   2.285
 3083TIP3    H1 9255   5.244   2.467   2.241
 3083TIP3    H2 9256   5.380   2.400   2.235
 3084TIP3   OH2 9257   3.279   2.160   4.469
 3084TIP3    H1 9258   3.326   2.098   4.413
 3084TIP3    H2 9259   3.348   2.219   4.500
 3085TIP3   OH2 9260   3.277   0.328   4.157
 3085TIP3    H1 9261   3.205   0.267   4.170
 3085TIP3    H2 9262   3.248   0.385   4.086
 3086TIP3   OH2 9263   4.226   5.936   1.108
 3086TIP3    H1 9264   4.171   5.994   1.160
 3086TIP3    H2 9265   4.165   5.871   1.073
 3087TIP3   OH2 9266   1.338   5.633   0.448
 3087TIP3    H1 9267   1.372   5.715   0.410
 3087TIP3    H2 9268   1.329   5.652   0.541
 3088TIP3   OH2 9269   0.604   1.801   3.123
 3088TIP3    H1 9270   0.604   1.707   3.105
 3088TIP3    H2 9271   0.518   1.831   3.096
 3089TIP3   OH2 9272   5.513   2.999   2.630
 3089TIP3    H1 9273   5.594   3.007   2.680
 3089TIP3    H2 9274   5.454   2.951   2.687
 3090TIP3   OH2 9275   4.179   0.283   2.253
 3090TIP3    H1 9276   4.249   0.257   2.193
 3090TIP3    H2 9277   4.123   0.206   2.260
 3091TIP3   OH2 9278   1.855   2.890   3.024
 3091TIP3    H1 9279   1.929   2.906   2.965
 3091TIP3    H2 9280   1.861   2.797   3.045
 3092TIP3   OH2 9281   5.477   0.084   4.419
 3092TIP3    H1 9282   5.479   0.011   4.357
 3092TIP3    H2 9283   5.555   0.071   4.473
 3093TIP3   OH2 9284   5.453   5.651   2.868
 3093TIP3    H1 9285   5.424   5.694   2.787
 3093TIP3    H2 9286   5.522   5.591   2.839
 3094TIP3   OH2 9287   1.898   4.809   3.312
 3094TIP3    H1 9288   1.919   4.716   3.317
 3094TIP3    H2 9289   1.806   4.814   3.337
 3095TIP3   OH2 9290   3.956   0.821   2.043
 3095TIP3    H1 9291   3.956   0.726   2.035
 3095TIP3    H2 9292   3.897   0.838   2.116
 3096TIP3   OH2 9293   5.630   0.846   1.343
 3096TIP3    H1 9294   5.662   0.936   1.345
 3096TIP3    H2 9295   5.570   0.840   1.417
 3097TIP3   OH2 9296   4.479   4.779   0.136
 3097TIP3    H1 9297   4.395   4.764   0.095
 3097TIP3    H2 9298   4.497   4.872   0.123
 3098TIP3   OH2 9299   1.902   5.649   2.211
 3098TIP3    H1 9300   1.810   5.623   2.219
 3098TIP3    H2 9301   1.951   5.568   2.228
 3099TIP3   OH2 9302   4.704   4.603   4.666
 3099TIP3    H1 9303   4.686   4.521   4.713
 3099TIP3    H2 9304   4.800   4.609   4.665
 3100TIP3   OH2 9305   3.582   4.940   2.423
 3100TIP3    H1 9306   3.515   5.004   2.448
 3100TIP3    H2 9307   3.540   4.889   2.353
 3101TIP3   OH2 9308   1.204   0.363   1.362
 3101TIP3    H1 9309   1.189   0.415   1.441
 3101TIP3    H2 9310   1.292   0.387   1.334
 3102TIP3   OH2 9311   0.715   0.103   1.690
 3102TIP3    H1 9312   0.759   0.043   1.630
 3102TIP3    H2 9313   0.660   0.046   1.744
 3103TIP3   OH2 9314   2.384   1.691   2.920
 3103TIP3    H1 9315   2.366   1.629   2.991
 3103TIP3    H2 9316   2.454   1.747   2.953
 3104TIP3   OH2 9317   5.333   0.167   4.089
 3104TIP3    H1 9318   5.428   0.163   4.075
 3104TIP3    H2 9319   5.301   0.219   4.016
 3105TIP3   OH2 9320   4.355   1.172   2.178
 3105TIP3    H1 9321   4.441   1.134   2.192
 3105TIP3    H2 9322   4.362   1.261   2.212
 3106TIP3   OH2 9323   1.905   3.691   4.155
 3106TIP3    H1 9324   1.922   3.779   4.187
 3106TIP3    H2 9325   1.819   3.669   4.189
 3107TIP3   OH2 9326   2.070   2.557   3.016
 3107TIP3    H1 9327   2.068   2.560   2.920
 3107TIP3    H2 9328   2.116   2.637   3.041
 3108TIP3   OH2 9329   3.459   4.921   3.165
 3108TIP3    H1 9330   3.526   4.908   3.097
 3108TIP3    H2 9331   3.508   4.923   3.247
 3109TIP3   OH2 9332   4.596   2.149   2.114
 3109TIP3    H1 9333   4.539   2.209   2.066
 3109TIP3    H2 9334   4.659   2.118   2.048
 3110TIP3   OH2 9335   3.067   5.241   3.234
 3110TIP3    H1 9336   3.138   5.214   3.176
 3110TIP3    H2 9337   3.072   5.180   3.308
 3111TIP3   OH2 9338   5.179   0.965   0.449
 3111TIP3    H1 9339   5.193   1.017   0.527
 3111TIP3    H2 9340   5.144   0.882   0.481
 3112TIP3   OH2 9341   4.852   2.747   3.327
 3112TIP3    H1 9342   4.822   2.829   3.367
 3112TIP3    H2 9343   4.816   2.748   3.238
 3113TIP3   OH2 9344   1.733   2.586   0.576
 3113TIP3    H1 9345   1.782   2.669   0.576
 3113TIP3    H2 9346   1.800   2.519   0.559
 3114TIP3   OH2 9347   1.495   3.543   4.564
 3114TIP3    H1 9348   1.431   3.611   4.581
 3114TIP3    H2 9349   1.543   3.573   4.487
 3115TIP3   OH2 9350   3.647   0.277   4.677
 3115TIP3    H1 9351   3.680   0.358   4.717
 3115TIP3    H2 9352   3.678   0.207   4.735
 3116TIP3   OH2 9353   5.866   0.442   1.639
 3116TIP3    H1 9354   5.823   0.474   1.718
 3116TIP3    H2 9355   5.918   0.516   1.609
 3117TIP3   OH2 9356   5.044   2.048   2.218
 3117TIP3    H1 9357   5.070   2.114   2.154
 3117TIP3    H2 9358   5.110   1.979   2.209
 3118TIP3   OH2 9359   2.218   3.723   5.067
 3118TIP3    H1 9360   2.283   3.751   5.002
 3118TIP3    H2 9361   2.176   3.646   5.028
 3119TIP3   OH2 9362   3.498   0.190   0.520
 3119TIP3    H1 9363   3.462   0.241   0.448
 3119TIP3    H2 9364   3.434   0.121   0.537
 3120TIP3   OH2 9365   3.967   3.548   0.882
 3120TIP3    H1 9366   4.010   3.630   0.906
 3120TIP3    H2 9367   3.896   3.538   0.946
 3121TIP3   OH2 9368   5.482   4.216   4.227
 3121TIP3    H1 9369   5.424   4.177   4.162
 3121TIP3    H2 9370   5.560   4.162   4.227
 3122TIP3   OH2 9371   4.959   3.472   2.179
 3122TIP3    H1 9372   4.911   3.477   2.262
 3122TIP3    H2 9373   4.946   3.381   2.150
 3123TIP3   OH2 9374   6.151   4.439   3.388
 3123TIP3    H1 9375   6.118   4.397   3.468
 3123TIP3    H2 9376   6.233   4.393   3.370
 3124TIP3   OH2 9377   3.189   4.039   1.623
 3124TIP3    H1 9378   3.175   3.952   1.587
 3124TIP3    H2 9379   3.145   4.037   1.708
 3125TIP3   OH2 9380   3.986   1.335   3.175
 3125TIP3    H1 9381   3.970   1.347   3.081
 3125TIP3    H2 9382   3.898   1.321   3.212
 3126TIP3   OH2 9383   6.164   4.415   1.848
 3126TIP3    H1 9384   6.215   4.339   1.819
 3126TIP3    H2 9385   6.230   4.480   1.872
 3127TIP3   OH2 9386   2.318   5.485   3.204
 3127TIP3    H1 9387   2.391   5.447   3.156
 3127TIP3    H2 9388   2.260   5.519   3.135
 3128TIP3   OH2 9389   5.813   1.409   0.931
 3128TIP3    H1 9390   5.722   1.437   0.926
 3128TIP3    H2 9391   5.861   1.488   0.954
 3129TIP3   OH2 9392   2.690   5.486   2.505
 3129TIP3    H1 9393   2.603   5.509   2.539
 3129TIP3    H2 9394   2.738   5.569   2.506
 3130TIP3   OH2 9395   1.654   0.579   3.876
 3130TIP3    H1 9396   1.685   0.551   3.962
 3130TIP3    H2 9397   1.584   0.518   3.854
 3131TIP3   OH2 9398   5.342   0.558   5.043
 3131TIP3    H1 9399   5.399   0.610   5.100
 3131TIP3    H2 9400   5.299   0.496   5.103
 3132TIP3   OH2 9401   3.775   5.651   0.063
 3132TIP3    H1 9402   3.829   5.669   0.140
 3132TIP3    H2 9403   3.830   5.595   0.008
 3133TIP3   OH2 9404   6.221   1.033   0.490
 3133TIP3    H1 9405   6.273   1.032   0.571
 3133TIP3    H2 9406   6.265   0.971   0.432
 3134TIP3   OH2 9407   4.251   0.945   1.311
 3134TIP3    H1 9408   4.341   0.958   1.281
 3134TIP3    H2 9409   4.257   0.873   1.372
 3135TIP3   OH2 9410   1.749   2.745   0.029
 3135TIP3    H1 9411   1.656   2.759   0.012
 3135TIP3    H2 9412   1.794   2.809  -0.028
 3136TIP3   OH2 9413   2.937   5.772   0.022
 3136TIP3    H1 9414   2.995   5.711   0.066
 3136TIP3    H2 9415   2.858   5.721   0.001
 3137TIP3   OH2 9416   4.695   4.551   1.230
 3137TIP3    H1 9417   4.661   4.626   1.182
 3137TIP3    H2 9418   4.629   4.534   1.298
 3138TIP3   OH2 9419   3.026   0.216   1.795
 3138TIP3    H1 9420   3.067   0.300   1.778
 3138TIP3    H2 9421   3.027   0.170   1.711
 3139TIP3   OH2 9422   3.281   1.363   1.759
 3139TIP3    H1 9423   3.286   1.382   1.853
 3139TIP3    H2 9424   3.279   1.449   1.717
 3140TIP3   OH2 9425   1.489   0.913   4.063
 3140TIP3    H1 9426   1.465   1.004   4.049
 3140TIP3    H2 9427   1.543   0.891   3.986
 3141TIP3   OH2 9428   0.941   1.158   4.477
 3141TIP3    H1 9429   0.951   1.147   4.383
 3141TIP3    H2 9430   0.858   1.205   4.487
 3142TIP3   OH2 9431   1.602   4.703   3.754
 3142TIP3    H1 9432   1.607   4.798   3.746
 3142TIP3    H2 9433   1.533   4.688   3.818
 3143TIP3   OH2 9434   5.378   3.017   2.369
 3143TIP3    H1 9435   5.374   2.923   2.350
 3143TIP3    H2 9436   5.409   3.021   2.460
 3144TIP3   OH2 9437   3.219   3.255   1.182
 3144TIP3    H1 9438   3.182   3.183   1.235
 3144TIP3    H2 9439   3.245   3.321   1.246
 3145TIP3   OH2 9440   3.952   4.261   2.477
 3145TIP3    H1 9441   4.021   4.234   2.416
 3145TIP3    H2 9442   3.914   4.339   2.437
 3146TIP3   OH2 9443   3.808   0.609   2.370
 3146TIP3    H1 9444   3.795   0.546   2.299
 3146TIP3    H2 9445   3.872   0.567   2.427
 3147TIP3   OH2 9446   0.913   5.006   4.176
 3147TIP3    H1 9447   0.871   5.008   4.262
 3147TIP3    H2 9448   0.957   5.090   4.168
 3148TIP3   OH2 9449   2.454   5.715   0.787
 3148TIP3    H1 9450   2.404   5.699   0.867
 3148TIP3    H2 9451   2.390   5.754   0.727
 3149TIP3   OH2 9452   3.511   1.438   1.186
 3149TIP3    H1 9453   3.476   1.527   1.193
 3149TIP3    H2 9454   3.433   1.382   1.191
 3150TIP3   OH2 9455   2.239   4.085   4.906
 3150TIP3    H1 9456   2.173   4.152   4.921
 3150TIP3    H2 9457   2.322   4.127   4.931
 3151TIP3   OH2 9458   4.863   5.158   2.087
 3151TIP3    H1 9459   4.954   5.167   2.115
 3151TIP3    H2 9460   4.856   5.213   2.009
 3152TIP3   OH2 9461   4.838   0.349   4.677
 3152TIP3    H1 9462   4.778   0.422   4.695
 3152TIP3    H2 9463   4.861   0.315   4.764
 3153TIP3   OH2 9464   5.857   0.701   4.291
 3153TIP3    H1 9465   5.815   0.629   4.245
 3153TIP3    H2 9466   5.822   0.780   4.249
 3154TIP3   OH2 9467   0.757   2.253   1.308
 3154TIP3    H1 9468   0.736   2.335   1.354
 3154TIP3    H2 9469   0.765   2.279   1.216
 3155TIP3   OH2 9470   2.037   5.157   2.823
 3155TIP3    H1 9471   1.992   5.153   2.908
 3155TIP3    H2 9472   2.080   5.242   2.824
 3156TIP3   OH2 9473   0.678   5.769   0.885
 3156TIP3    H1 9474   0.631   5.735   0.808
 3156TIP3    H2 9475   0.692   5.692   0.940
 3157TIP3   OH2 9476   6.274   1.479   0.378
 3157TIP3    H1 9477   6.255   1.534   0.302
 3157TIP3    H2 9478   6.191   1.435   0.397
 3158TIP3   OH2 9479   0.123   1.190   2.895
 3158TIP3    H1 9480   0.211   1.202   2.931
 3158TIP3    H2 9481   0.128   1.223   2.806
 3159TIP3   OH2 9482   4.889   4.500   2.390
 3159TIP3    H1 9483   4.982   4.519   2.387
 3159TIP3    H2 9484   4.860   4.503   2.299
 3160TIP3   OH2 9485   0.833   1.199   0.994
 3160TIP3    H1 9486   0.861   1.219   1.083
 3160TIP3    H2 9487   0.913   1.197   0.942
 3161TIP3   OH2 9488   1.749   0.242   4.407
 3161TIP3    H1 9489   1.669   0.289   4.431
 3161TIP3    H2 9490   1.819   0.296   4.442
 3162TIP3   OH2 9491   0.524   0.871   3.625
 3162TIP3    H1 9492   0.473   0.796   3.593
 3162TIP3    H2 9493   0.537   0.926   3.548
 3163TIP3   OH2 9494   0.906   0.127   0.859
 3163TIP3    H1 9495   0.925   0.213   0.896
 3163TIP3    H2 9496   0.990   0.095   0.826
 3164TIP3   OH2 9497   1.051   0.947   2.857
 3164TIP3    H1 9498   1.103   1.013   2.810
 3164TIP3    H2 9499   1.064   0.968   2.949
 3165TIP3   OH2 9500   0.280   4.780   0.492
 3165TIP3    H1 9501   0.281   4.700   0.545
 3165TIP3    H2 9502   0.343   4.838   0.534
 3166TIP3   OH2 9503   6.067   2.701   0.883
 3166TIP3    H1 9504   6.031   2.676   0.968
 3166TIP3    H2 9505   6.161   2.704   0.897
 3167TIP3   OH2 9506   5.697   4.936   2.148
 3167TIP3    H1 9507   5.679   4.904   2.236
 3167TIP3    H2 9508   5.721   4.858   2.098
 3168TIP3   OH2 9509   0.916   1.986   2.434
 3168TIP3    H1 9510   0.881   1.934   2.506
 3168TIP3    H2 9511   0.869   2.069   2.439
 3169TIP3   OH2 9512   4.411   5.078   2.454
 3169TIP3    H1 9513   4.368   5.162   2.449
 3169TIP3    H2 9514   4.439   5.071   2.546
 3170TIP3   OH2 9515   4.719   3.168   5.091
 3170TIP3    H1 9516   4.623   3.169   5.099
 3170TIP3    H2 9517   4.749   3.139   5.177
 3171TIP3   OH2 9518   0.480   4.705   2.781
 3171TIP3    H1 9519   0.389   4.722   2.759
 3171TIP3    H2 9520   0.486   4.725   2.874
 3172TIP3   OH2 9521   3.303   5.964   1.398
 3172TIP3    H1 9522   3.241   5.891   1.407
 3172TIP3    H2 9523   3.326   5.964   1.305
 3173TIP3   OH2 9524   0.800   0.068   4.164
 3173TIP3    H1 9525   0.716   0.050   4.121
 3173TIP3    H2 9526   0.798   0.162   4.181
 3174TIP3   OH2 9527   5.506   3.302   1.995
 3174TIP3    H1 9528   5.439   3.359   1.957
 3174TIP3    H2 9529   5.489   3.216   1.957
 3175TIP3   OH2 9530   4.964   0.263   2.492
 3175TIP3    H1 9531   5.056   0.240   2.481
 3175TIP3    H2 9532   4.965   0.341   2.549
 3176TIP3   OH2 9533   5.443   0.867   0.731
 3176TIP3    H1 9534   5.359   0.882   0.774
 3176TIP3    H2 9535   5.423   0.808   0.659
 3177TIP3   OH2 9536   3.159   0.267   1.384
 3177TIP3    H1 9537   3.221   0.242   1.452
 3177TIP3    H2 9538   3.199   0.238   1.302
 3178TIP3   OH2 9539   1.339   1.577   3.981
 3178TIP3    H1 9540   1.375   1.574   4.070
 3178TIP3    H2 9541   1.416   1.574   3.924
 3179TIP3   OH2 9542   1.795   4.808   0.587
 3179TIP3    H1 9543   1.857   4.878   0.567
 3179TIP3    H2 9544   1.766   4.826   0.676
 3180TIP3   OH2 9545   4.028   4.514   0.572
 3180TIP3    H1 9546   4.116   4.483   0.589
 3180TIP3    H2 9547   4.026   4.531   0.478
 3181TIP3   OH2 9548   5.835   1.927   0.506
 3181TIP3    H1 9549   5.872   1.994   0.449
 3181TIP3    H2 9550   5.803   1.975   0.583
 3182TIP3   OH2 9551   3.682   1.935   2.530
 3182TIP3    H1 9552   3.734   1.963   2.606
 3182TIP3    H2 9553   3.667   2.015   2.480
 3183TIP3   OH2 9554   0.788   1.043   2.815
 3183TIP3    H1 9555   0.728   0.972   2.794
 3183TIP3    H2 9556   0.872   0.999   2.832
 3184TIP3   OH2 9557   1.974   5.246   0.160
 3184TIP3    H1 9558   1.903   5.310   0.165
 3184TIP3    H2 9559   1.938   5.167   0.200
 3185TIP3   OH2 9560   3.088   5.977   2.597
 3185TIP3    H1 9561   3.035   5.915   2.647
 3185TIP3    H2 9562   3.141   6.022   2.663
 3186TIP3   OH2 9563   6.215   3.393   1.796
 3186TIP3    H1 9564   6.214   3.362   1.705
 3186TIP3    H2 9565   6.151   3.464   1.798
 3187TIP3   OH2 9566   0.979   1.956   3.855
 3187TIP3    H1 9567   1.029   1.908   3.921
 3187TIP3    H2 9568   0.887   1.943   3.880
 3188TIP3   OH2 9569   0.398   0.635   4.088
 3188TIP3    H1 9570   0.397   0.724   4.124
 3188TIP3    H2 9571   0.350   0.582   4.153
 3189TIP3   OH2 9572   3.934   0.182   4.406
 3189TIP3    H1 9573   4.018   0.137   4.396
 3189TIP3    H2 9574   3.886   0.163   4.325
 3190TIP3   OH2 9575   3.486   5.208   3.198
 3190TIP3    H1 9576   3.472   5.147   3.126
 3190TIP3    H2 9577   3.464   5.158   3.276
 3191TIP3   OH2 9578   2.374   3.083   3.622
 3191TIP3    H1 9579   2.411   3.169   3.645
 3191TIP3    H2 9580   2.427   3.020   3.671
 3192TIP3   OH2 9581   0.454   4.890   0.670
 3192TIP3    H1 9582   0.520   4.936   0.617
 3192TIP3    H2 9583   0.504   4.849   0.740
 3193TIP3   OH2 9584   3.032   2.601   3.077
 3193TIP3    H1 9585   3.056   2.552   3.155
 3193TIP3    H2 9586   3.087   2.680   3.081
 3194TIP3   OH2 9587   3.817   1.749   2.350
 3194TIP3    H1 9588   3.780   1.805   2.418
 3194TIP3    H2 9589   3.900   1.718   2.388
 3195TIP3   OH2 9590   5.679   5.558   1.875
 3195TIP3    H1 9591   5.678   5.621   1.803
 3195TIP3    H2 9592   5.708   5.476   1.835
 3196TIP3   OH2 9593   2.235   5.914   4.033
 3196TIP3    H1 9594   2.205   5.989   3.982
 3196TIP3    H2 9595   2.321   5.892   3.996
 3197TIP3   OH2 9596   4.402   4.485   2.019
 3197TIP3    H1 9597   4.483   4.531   2.039
 3197TIP3    H2 9598   4.387   4.501   1.925
 3198TIP3   OH2 9599   4.962   0.531   1.473
 3198TIP3    H1 9600   5.053   0.561   1.469
 3198TIP3    H2 9601   4.968   0.436   1.480
 3199TIP3   OH2 9602   5.207   3.831   0.437
 3199TIP3    H1 9603   5.173   3.884   0.365
 3199TIP3    H2 9604   5.296   3.865   0.451
 3200TIP3   OH2 9605   2.965   2.342   3.496
 3200TIP3    H1 9606   3.005   2.290   3.426
 3200TIP3    H2 9607   2.871   2.332   3.482
 3201TIP3   OH2 9608   5.847   5.563   0.625
 3201TIP3    H1 9609   5.900   5.617   0.566
 3201TIP3    H2 9610   5.772   5.618   0.648
 3202TIP3   OH2 9611   5.827   5.168   0.263
 3202TIP3    H1 9612   5.865   5.253   0.288
 3202TIP3    H2 9613   5.861   5.152   0.175
 3203TIP3   OH2 9614   2.003   0.318   1.010
 3203TIP3    H1 9615   1.921   0.274   1.033
 3203TIP3    H2 9616   2.051   0.324   1.093
 3204TIP3   OH2 9617   4.638   2.595   5.022
 3204TIP3    H1 9618   4.698   2.538   5.070
 3204TIP3    H2 9619   4.622   2.550   4.939
 3205TIP3   OH2 9620   1.459   5.174   4.322
 3205TIP3    H1 9621   1.459   5.078   4.317
 3205TIP3    H2 9622   1.423   5.193   4.409
 3206TIP3   OH2 9623   4.257   4.013   0.320
 3206TIP3    H1 9624   4.342   4.048   0.346
 3206TIP3    H2 9625   4.196   4.048   0.385
 3207TIP3   OH2 9626   5.676   0.513   3.555
 3207TIP3    H1 9627   5.614   0.448   3.524
 3207TIP3    H2 9628   5.636   0.597   3.534
 3208TIP3   OH2 9629   5.076   2.243   2.028
 3208TIP3    H1 9630   5.103   2.324   2.071
 3208TIP3    H2 9631   5.066   2.266   1.936
 3209TIP3   OH2 9632   2.994   0.879   4.668
 3209TIP3    H1 9633   3.062   0.811   4.665
 3209TIP3    H2 9634   2.994   0.917   4.581
 3210TIP3   OH2 9635   4.130   0.365   3.534
 3210TIP3    H1 9636   4.037   0.383   3.549
 3210TIP3    H2 9637   4.158   0.434   3.474
 3211TIP3   OH2 9638   0.057   0.379   5.131
 3211TIP3    H1 9639   0.077   0.286   5.140
 3211TIP3    H2 9640   0.001   0.399   5.205
 3212TIP3   OH2 9641   5.010   5.993   3.514
 3212TIP3    H1 9642   5.019   5.977   3.608
 3212TIP3    H2 9643   5.023   5.907   3.473
 3213TIP3   OH2 9644   4.165   1.632   0.774
 3213TIP3    H1 9645   4.102   1.563   0.796
 3213TIP3    H2 9646   4.132   1.670   0.693
 3214TIP3   OH2 9647   5.597   1.093   0.734
 3214TIP3    H1 9648   5.536   1.020   0.728
 3214TIP3    H2 9649   5.555   1.154   0.795
 3215TIP3   OH2 9650   5.818   3.417   0.663
 3215TIP3    H1 9651   5.859   3.501   0.680
 3215TIP3    H2 9652   5.889   3.362   0.629
 3216TIP3   OH2 9653   0.536   4.947   1.745
 3216TIP3    H1 9654   0.489   4.906   1.818
 3216TIP3    H2 9655   0.471   4.952   1.675
 3217TIP3   OH2 9656   3.943   5.207   1.221
 3217TIP3    H1 9657   3.855   5.184   1.253
 3217TIP3    H2 9658   3.936   5.201   1.126
 3218TIP3   OH2 9659   0.470   3.732   0.084
 3218TIP3    H1 9660   0.542   3.783   0.121
 3218TIP3    H2 9661   0.513   3.668   0.027
 3219TIP3   OH2 9662   3.735   4.984   0.017
 3219TIP3    H1 9663   3.712   5.072   0.045
 3219TIP3    H2 9664   3.678   4.967  -0.058
 3220TIP3   OH2 9665   4.602   3.164   2.822
 3220TIP3    H1 9666   4.518   3.117   2.822
 3220TIP3    H2 9667   4.655   3.118   2.887
 3221TIP3   OH2 9668   2.123   3.608   3.769
 3221TIP3    H1 9669   2.104   3.652   3.851
 3221TIP3    H2 9670   2.217   3.591   3.772
 3222TIP3   OH2 9671   3.704   0.815   2.857
 3222TIP3    H1 9672   3.702   0.806   2.762
 3222TIP3    H2 9673   3.793   0.846   2.876
 3223TIP3   OH2 9674   2.177   4.376   3.061
 3223TIP3    H1 9675   2.178   4.464   3.024
 3223TIP3    H2 9676   2.159   4.318   2.987
 3224TIP3   OH2 9677   4.628   4.166   0.828
 3224TIP3    H1 9678   4.699   4.102   0.824
 3224TIP3    H2 9679   4.666   4.241   0.874
 3225TIP3   OH2 9680   2.572   1.160   4.698
 3225TIP3    H1 9681   2.648   1.170   4.755
 3225TIP3    H2 9682   2.530   1.246   4.698
 3226TIP3   OH2 9683   4.924   5.879   0.419
 3226TIP3    H1 9684   4.958   5.933   0.491
 3226TIP3    H2 9685   4.867   5.937   0.370
 3227TIP3   OH2 9686   2.917   0.053   4.460
 3227TIP3    H1 9687   2.882  -0.011   4.522
 3227TIP3    H2 9688   2.988   0.097   4.509
 3228TIP3   OH2 9689   4.506   1.415   2.163
 3228TIP3    H1 9690   4.543   1.479   2.102
 3228TIP3    H2 9691   4.462   1.469   2.229
 3229TIP3   OH2 9692   4.392   5.536   3.843
 3229TIP3    H1 9693   4.481   5.510   3.822
 3229TIP3    H2 9694   4.337   5.484   3.783
 3230TIP3   OH2 9695   2.530   3.113   1.834
 3230TIP3    H1 9696   2.549   3.021   1.816
 3230TIP3    H2 9697   2.440   3.113   1.866
 3231TIP3   OH2 9698   4.919   2.329   3.396
 3231TIP3    H1 9699   4.922   2.301   3.304
 3231TIP3    H2 9700   4.850   2.276   3.436
 3232TIP3   OH2 9701   5.947   5.631   2.407
 3232TIP3    H1 9702   5.871   5.658   2.356
 3232TIP3    H2 9703   6.009   5.597   2.343
 3233TIP3   OH2 9704   5.340   3.060   0.653
 3233TIP3    H1 9705   5.271   2.997   0.631
 3233TIP3    H2 9706   5.318   3.138   0.602
 3234TIP3   OH2 9707   6.283   0.536   2.412
 3234TIP3    H1 9708   6.292   0.537   2.317
 3234TIP3    H2 9709   6.277   0.629   2.436
 3235TIP3   OH2 9710   5.580   0.695   2.125
 3235TIP3    H1 9711   5.630   0.615   2.139
 3235TIP3    H2 9712   5.494   0.665   2.093
 3236TIP3   OH2 9713   3.314   4.976   2.725
 3236TIP3    H1 9714   3.279   5.060   2.694
 3236TIP3    H2 9715   3.268   4.910   2.673
 3237TIP3   OH2 9716   5.510   0.409   1.369
 3237TIP3    H1 9717   5.467   0.487   1.333
 3237TIP3    H2 9718   5.521   0.351   1.294
 3238TIP3   OH2 9719   4.834   2.008   2.829
 3238TIP3    H1 9720   4.907   2.069   2.826
 3238TIP3    H2 9721   4.809   1.996   2.737
 3239TIP3   OH2 9722   1.497   1.575   0.843
 3239TIP3    H1 9723   1.451   1.512   0.897
 3239TIP3    H2 9724   1.438   1.591   0.769
 3240TIP3   OH2 9725   0.814   4.475   4.319
 3240TIP3    H1 9726   0.823   4.515   4.232
 3240TIP3    H2 9727   0.726   4.437   4.318
 3241TIP3   OH2 9728   5.297   5.330   1.271
 3241TIP3    H1 9729   5.306   5.404   1.211
 3241TIP3    H2 9730   5.230   5.358   1.334
 3242TIP3   OH2 9731   6.090   4.687   3.688
 3242TIP3    H1 9732   6.089   4.773   3.729
 3242TIP3    H2 9733   6.007   4.647   3.712
 3243TIP3   OH2 9734   5.036   5.878   4.397
 3243TIP3    H1 9735   5.009   5.956   4.349
 3243TIP3    H2 9736   5.111   5.906   4.449
 3244TIP3   OH2 9737   5.336   2.967   0.268
 3244TIP3    H1 9738   5.321   3.006   0.354
 3244TIP3    H2 9739   5.427   2.938   0.270
 3245TIP3   OH2 9740   5.356   1.168   2.705
 3245TIP3    H1 9741   5.337   1.216   2.786
 3245TIP3    H2 9742   5.303   1.211   2.638
 3246TIP3   OH2 9743   5.191   4.279   4.986
 3246TIP3    H1 9744   5.261   4.311   5.043
 3246TIP3    H2 9745   5.120   4.257   5.046
 3247TIP3   OH2 9746   0.478   3.745   5.168
 3247TIP3    H1 9747   0.383   3.754   5.176
 3247TIP3    H2 9748   0.490   3.665   5.116
 3248TIP3   OH2 9749   3.507   2.909   4.636
 3248TIP3    H1 9750   3.415   2.920   4.613
 3248TIP3    H2 9751   3.528   2.820   4.606
 3249TIP3   OH2 9752   1.918   1.087   2.096
 3249TIP3    H1 9753   1.859   1.138   2.040
 3249TIP3    H2 9754   1.969   1.154   2.143
 3250TIP3   OH2 9755   0.567   1.604   0.781
 3250TIP3    H1 9756   0.584   1.669   0.850
 3250TIP3    H2 9757   0.642   1.546   0.784
 3251TIP3   OH2 9758   5.771   4.431   0.388
 3251TIP3    H1 9759   5.768   4.344   0.427
 3251TIP3    H2 9760   5.858   4.465   0.410
 3252TIP3   OH2 9761   2.898   2.463   4.759
 3252TIP3    H1 9762   2.848   2.527   4.810
 3252TIP3    H2 9763   2.968   2.435   4.818
 3253TIP3   OH2 9764   2.409   1.549   2.172
 3253TIP3    H1 9765   2.368   1.624   2.216
 3253TIP3    H2 9766   2.487   1.530   2.225
 3254TIP3   OH2 9767   2.589   5.321   0.987
 3254TIP3    H1 9768   2.497   5.335   0.967
 3254TIP3    H2 9769   2.635   5.392   0.942
 3255TIP3   OH2 9770   4.490   3.258   1.042
 3255TIP3    H1 9771   4.423   3.204   1.083
 3255TIP3    H2 9772   4.488   3.340   1.092
 3256TIP3   OH2 9773   1.710   2.342   1.546
 3256TIP3    H1 9774   1.621   2.308   1.539
 3256TIP3    H2 9775   1.727   2.345   1.641
 3257TIP3   OH2 9776   4.813   5.016   2.313
 3257TIP3    H1 9777   4.803   5.049   2.223
 3257TIP3    H2 9778   4.827   4.922   2.302
 3258TIP3   OH2 9779   6.300   5.534   1.460
 3258TIP3    H1 9780   6.280   5.628   1.466
 3258TIP3    H2 9781   6.274   5.509   1.371
 3259TIP3   OH2 9782   4.091   3.098   3.641
 3259TIP3    H1 9783   4.065   3.022   3.590
 3259TIP3    H2 9784   4.061   3.173   3.590
 3260TIP3   OH2 9785   3.046   4.721   0.435
 3260TIP3    H1 9786   3.054   4.710   0.341
 3260TIP3    H2 9787   3.113   4.786   0.458
 3261TIP3   OH2 9788   0.458   2.571   2.079
 3261TIP3    H1 9789   0.415   2.624   2.012
 3261TIP3    H2 9790   0.539   2.542   2.038
 3262TIP3   OH2 9791   4.862   0.463   4.295
 3262TIP3    H1 9792   4.867   0.436   4.204
 3262TIP3    H2 9793   4.909   0.547   4.298
 3263TIP3   OH2 9794   1.533   3.543   4.965
 3263TIP3    H1 9795   1.477   3.466   4.957
 3263TIP3    H2 9796   1.600   3.518   5.029
 3264TIP3   OH2 9797   2.071   5.680   3.462
 3264TIP3    H1 9798   2.115   5.695   3.545
 3264TIP3    H2 9799   2.086   5.587   3.444
 3265TIP3   OH2 9800   1.186   5.718   1.563
 3265TIP3    H1 9801   1.184   5.785   1.494
 3265TIP3    H2 9802   1.095   5.711   1.591
 3266TIP3   OH2 9803   0.227   0.995   3.449
 3266TIP3    H1 9804   0.189   0.979   3.362
 3266TIP3    H2 9805   0.315   1.029   3.431
 3267TIP3   OH2 9806   2.278   2.891   3.344
 3267TIP3    H1 9807   2.366   2.890   3.382
 3267TIP3    H2 9808   2.221   2.856   3.413
 3268TIP3   OH2 9809   0.286   3.183   4.788
 3268TIP3    H1 9810   0.356   3.201   4.726
 3268TIP3    H2 9811   0.314   3.227   4.869
 3269TIP3   OH2 9812   6.267   4.847   4.337
 3269TIP3    H1 9813   6.298   4.893   4.259
 3269TIP3    H2 9814   6.174   4.832   4.322
 3270TIP3   OH2 9815   5.975   0.082   4.950
 3270TIP3    H1 9816   5.912   0.066   5.020
 3270TIP3    H2 9817   5.991  -0.004   4.911
 3271TIP3   OH2 9818   1.991   5.951   4.875
 3271TIP3    H1 9819   1.911   5.929   4.922
 3271TIP3    H2 9820   2.045   5.872   4.880
 3272TIP3   OH2 9821   2.316   5.152   3.017
 3272TIP3    H1 9822   2.294   5.240   3.045
 3272TIP3    H2 9823   2.411   5.153   3.006
 3273TIP3   OH2 9824   0.125   4.069   1.234
 3273TIP3    H1 9825   0.154   4.088   1.145
 3273TIP3    H2 9826   0.036   4.035   1.223
 3274TIP3   OH2 9827   1.476   4.809   2.340
 3274TIP3    H1 9828   1.443   4.888   2.298
 3274TIP3    H2 9829   1.421   4.739   2.307
 3275TIP3   OH2 9830   1.941   2.603   1.625
 3275TIP3    H1 9831   1.861   2.656   1.634
 3275TIP3    H2 9832   1.938   2.543   1.700
 3276TIP3   OH2 9833   1.459   5.849   2.440
 3276TIP3    H1 9834   1.461   5.781   2.508
 3276TIP3    H2 9835   1.456   5.801   2.358
 3277TIP3   OH2 9836   2.817   1.804   4.096
 3277TIP3    H1 9837   2.754   1.821   4.026
 3277TIP3    H2 9838   2.809   1.880   4.154
 3278TIP3   OH2 9839   4.880   0.792   1.507
 3278TIP3    H1 9840   4.850   0.814   1.595
 3278TIP3    H2 9841   4.859   0.700   1.497
 3279TIP3   OH2 9842   2.722   5.231   3.178
 3279TIP3    H1 9843   2.773   5.245   3.098
 3279TIP3    H2 9844   2.650   5.293   3.173
 3280TIP3   OH2 9845   0.635   0.217   3.684
 3280TIP3    H1 9846   0.678   0.144   3.641
 3280TIP3    H2 9847   0.695   0.291   3.672
 3281TIP3   OH2 9848   0.796   2.434   3.605
 3281TIP3    H1 9849   0.821   2.358   3.658
 3281TIP3    H2 9850   0.700   2.435   3.610
 3282TIP3   OH2 9851   4.268   5.761   3.956
 3282TIP3    H1 9852   4.284   5.678   3.911
 3282TIP3    H2 9853   4.191   5.746   4.009
 3283TIP3   OH2 9854   3.801   1.150   4.145
 3283TIP3    H1 9855   3.744   1.198   4.206
 3283TIP3    H2 9856   3.743   1.085   4.106
 3284TIP3   OH2 9857   0.982   5.602   4.238
 3284TIP3    H1 9858   0.894   5.566   4.250
 3284TIP3    H2 9859   1.031   5.572   4.314
 3285TIP3   OH2 9860   3.344   3.127   3.477
 3285TIP3    H1 9861   3.298   3.207   3.450
 3285TIP3    H2 9862   3.436   3.147   3.462
 3286TIP3   OH2 9863   0.867   1.959   3.159
 3286TIP3    H1 9864   0.786   1.907   3.163
 3286TIP3    H2 9865   0.841   2.045   3.191
 3287TIP3   OH2 9866   4.772   1.071   1.929
 3287TIP3    H1 9867   4.735   1.047   2.013
 3287TIP3    H2 9868   4.791   1.164   1.936
 3288TIP3   OH2 9869   0.075   1.164   4.359
 3288TIP3    H1 9870   0.021   1.217   4.418
 3288TIP3    H2 9871   0.043   1.075   4.371
 3289TIP3   OH2 9872   5.640   2.413   2.468
 3289TIP3    H1 9873   5.557   2.372   2.488
 3289TIP3    H2 9874   5.706   2.349   2.495
 3290TIP3   OH2 9875   1.445   5.462   0.025
 3290TIP3    H1 9876   1.522   5.433   0.074
 3290TIP3    H2 9877   1.371   5.426   0.074
 3291TIP3   OH2 9878   3.508   0.312   5.023
 3291TIP3    H1 9879   3.420   0.349   5.011
 3291TIP3    H2 9880   3.505   0.272   5.110
 3292TIP3   OH2 9881   3.828   5.233   3.068
 3292TIP3    H1 9882   3.867   5.302   3.015
 3292TIP3    H2 9883   3.758   5.277   3.117
 3293TIP3   OH2 9884   5.915   0.088   4.347
 3293TIP3    H1 9885   5.998   0.117   4.383
 3293TIP3    H2 9886   5.855   0.087   4.422
 3294TIP3   OH2 9887   4.444   0.625   1.835
 3294TIP3    H1 9888   4.385   0.567   1.786
 3294TIP3    H2 9889   4.423   0.713   1.802
 3295TIP3   OH2 9890   3.269   0.814   2.641
 3295TIP3    H1 9891   3.223   0.895   2.666
 3295TIP3    H2 9892   3.224   0.745   2.690
 3296TIP3   OH2 9893   5.195   3.888   1.009
 3296TIP3    H1 9894   5.256   3.907   0.938
 3296TIP3    H2 9895   5.203   3.793   1.022
 3297TIP3   OH2 9896   4.213   0.129   4.695
 3297TIP3    H1 9897   4.161   0.105   4.618
 3297TIP3    H2 9898   4.179   0.074   4.765
 3298TIP3   OH2 9899   1.047   5.384   1.988
 3298TIP3    H1 9900   1.086   5.447   1.927
 3298TIP3    H2 9901   0.960   5.420   2.007
 3299TIP3   OH2 9902   3.801   1.082   4.663
 3299TIP3    H1 9903   3.833   1.010   4.610
 3299TIP3    H2 9904   3.723   1.048   4.707
 3300TIP3   OH2 9905   3.827   0.341   1.679
 3300TIP3    H1 9906   3.806   0.262   1.729
 3300TIP3    H2 9907   3.853   0.309   1.593
 3301TIP3   OH2 9908   0.768   1.753   1.670
 3301TIP3    H1 9909   0.847   1.741   1.618
 3301TIP3    H2 9910   0.738   1.664   1.690
 3302TIP3   OH2 9911   3.548   0.919   0.388
 3302TIP3    H1 9912   3.589   0.841   0.350
 3302TIP3    H2 9913   3.620   0.967   0.429
 3303TIP3   OH2 9914   1.226   0.197   4.226
 3303TIP3    H1 9915   1.159   0.177   4.160
 3303TIP3    H2 9916   1.293   0.246   4.178
 3304TIP3   OH2 9917   2.849   1.844   1.477
 3304TIP3    H1 9918   2.872   1.783   1.547
 3304TIP3    H2 9919   2.786   1.797   1.424
 3305TIP3   OH2 9920   0.434   2.902   4.740
 3305TIP3    H1 9921   0.483   2.982   4.724
 3305TIP3    H2 9922   0.346   2.919   4.707
 3306TIP3   OH2 9923   3.815   4.017   1.154
 3306TIP3    H1 9924   3.900   4.062   1.152
 3306TIP3    H2 9925   3.831   3.938   1.205
 3307TIP3   OH2 9926   3.847   3.739   2.243
 3307TIP3    H1 9927   3.758   3.756   2.272
 3307TIP3    H2 9928   3.853   3.782   2.158
 3308TIP3   OH2 9929   0.678   3.699   2.738
 3308TIP3    H1 9930   0.647   3.632   2.677
 3308TIP3    H2 9931   0.735   3.754   2.684
 3309TIP3   OH2 9932   4.319   0.882   1.812
 3309TIP3    H1 9933   4.256   0.929   1.758
 3309TIP3    H2 9934   4.290   0.896   1.902
 3310TIP3   OH2 9935   5.385   0.588   3.030
 3310TIP3    H1 9936   5.460   0.645   3.010
 3310TIP3    H2 9937   5.352   0.621   3.114
 3311TIP3   OH2 9938   6.260   1.620   0.133
 3311TIP3    H1 9939   6.203   1.636   0.058
 3311TIP3    H2 9940   6.310   1.701   0.142
 3312TIP3   OH2 9941   1.224   5.253   0.601
 3312TIP3    H1 9942   1.219   5.200   0.680
 3312TIP3    H2 9943   1.236   5.342   0.633
 3313TIP3   OH2 9944   4.347   3.925   3.161
 3313TIP3    H1 9945   4.296   3.907   3.082
 3313TIP3    H2 9946   4.369   3.839   3.195
 3314TIP3   OH2 9947   4.565   1.985   0.862
 3314TIP3    H1 9948   4.550   2.022   0.949
 3314TIP3    H2 9949   4.479   1.951   0.836
 3315TIP3   OH2 9950   4.535   3.471   4.032
 3315TIP3    H1 9951   4.625   3.505   4.028
 3315TIP3    H2 9952   4.523   3.447   4.124
 3316TIP3   OH2 9953   2.051   3.261   4.004
 3316TIP3    H1 9954   2.070   3.169   4.022
 3316TIP3    H2 9955   2.071   3.271   3.910
 3317TIP3   OH2 9956   4.714   0.564   1.165
 3317TIP3    H1 9957   4.696   0.632   1.099
 3317TIP3    H2 9958   4.657   0.587   1.239
 3318TIP3   OH2 9959   5.953   3.490   4.128
 3318TIP3    H1 9960   6.003   3.543   4.190
 3318TIP3    H2 9961   6.007   3.412   4.114
 3319TIP3   OH2 9962   1.680   5.499   2.216
 3319TIP3    H1 9963   1.662   5.422   2.161
 3319TIP3    H2 9964   1.643   5.476   2.301
 3320TIP3   OH2 9965   5.670   4.667   3.200
 3320TIP3    H1 9966   5.719   4.737   3.243
 3320TIP3    H2 9967   5.684   4.590   3.255
 3321TIP3   OH2 9968   4.948   5.529   4.301
 3321TIP3    H1 9969   4.932   5.435   4.294
 3321TIP3    H2 9970   4.933   5.549   4.393
 3322TIP3   OH2 9971   1.433   5.449   4.168
 3322TIP3    H1 9972   1.409   5.452   4.075
 3322TIP3    H2 9973   1.498   5.518   4.178
 3323TIP3   OH2 9974   1.283   0.640   5.077
 3323TIP3    H1 9975   1.264   0.553   5.040
 3323TIP3    H2 9976   1.375   0.635   5.102
 3324TIP3   OH2 9977   3.918   0.409   5.143
 3324TIP3    H1 9978   3.927   0.314   5.145
 3324TIP3    H2 9979   3.861   0.427   5.068
 3325TIP3   OH2 9980   4.200   2.463   2.431
 3325TIP3    H1 9981   4.152   2.543   2.411
 3325TIP3    H2 9982   4.156   2.395   2.380
 3326TIP3   OH2 9983   0.068   2.495   3.223
 3326TIP3    H1 9984   0.098   2.404   3.220
 3326TIP3    H2 9985  -0.018   2.494   3.183
 3327TIP3   OH2 9986   5.272   1.788   4.608
 3327TIP3    H1 9987   5.233   1.820   4.689
 3327TIP3    H2 9988   5.339   1.726   4.637
 3328TIP3   OH2 9989   5.323   4.311   4.447
 3328TIP3    H1 9990   5.350   4.260   4.371
 3328TIP3    H2 9991   5.347   4.258   4.523
 3329TIP3   OH2 9992   4.399   5.042   4.948
 3329TIP3    H1 9993   4.375   4.995   5.027
 3329TIP3    H2 9994   4.427   4.974   4.887
 3330TIP3   OH2 9995   3.493   1.343   2.219
 3330TIP3    H1 9996   3.581   1.332   2.253
 3330TIP3    H2 9997   3.501   1.410   2.151
 3331TIP3   OH2 9998   6.304   2.793   0.309
 3331TIP3    H1 9999   6.220   2.799   0.354
 3331TIP3    H210000   6.288   2.832   0.223
 3332TIP3   OH210001   4.888   3.151   2.583
 3332TIP3    H110002   4.863   3.200   2.662
 3332TIP3    H210003   4.816   3.089   2.571
 3333TIP3   OH210004   2.761   3.128   1.045
 3333TIP3    H110005   2.799   3.199   1.096
 3333TIP3    H210006   2.837   3.085   1.005
 3334TIP3   OH210007   0.805   3.558   3.460
 3334TIP3    H110008   0.879   3.619   3.463
 3334TIP3    H210009   0.769   3.569   3.372
 3335TIP3   OH210010   5.107   2.123   2.629
 3335TIP3    H110011   5.051   2.154   2.701
 3335TIP3    H210012   5.146   2.203   2.593
 3336TIP3   OH210013   1.663   4.953   1.523
 3336TIP3    H110014   1.643   4.961   1.616
 3336TIP3    H210015   1.578   4.939   1.482
 3337TIP3   OH210016   2.935   0.554   3.929
 3337TIP3    H110017   3.030   0.554   3.918
 3337TIP3    H210018   2.902   0.505   3.853
 3338TIP3   OH210019   0.814   1.894   1.904
 3338TIP3    H110020   0.795   1.883   1.811
 3338TIP3    H210021   0.845   1.808   1.933
 3339TIP3   OH210022   0.567   0.064   0.055
 3339TIP3    H110023   0.656   0.030   0.050
 3339TIP3    H210024   0.574   0.155   0.025
 3340TIP3   OH210025   3.113   4.237   4.646
 3340TIP3    H110026   3.030   4.189   4.643
 3340TIP3    H210027   3.166   4.198   4.576
 3341TIP3   OH210028   6.150   1.630   4.713
 3341TIP3    H110029   6.126   1.712   4.758
 3341TIP3    H210030   6.067   1.586   4.697
 3342TIP3   OH210031   4.771   3.924   0.765
 3342TIP3    H110032   4.860   3.888   0.764
 3342TIP3    H210033   4.756   3.954   0.676
 3343TIP3   OH210034   0.049   3.096   4.495
 3343TIP3    H110035   0.037   3.050   4.412
 3343TIP3    H210036   0.020   3.033   4.561
 3344TIP3   OH210037   1.083   1.253   3.453
 3344TIP3    H110038   1.104   1.292   3.537
 3344TIP3    H210039   1.070   1.160   3.473
 3345TIP3   OH210040   5.258   5.944   4.530
 3345TIP3    H110041   5.328   5.897   4.576
 3345TIP3    H210042   5.288   6.035   4.527
 3346TIP3   OH210043   0.788   2.721   2.788
 3346TIP3    H110044   0.871   2.732   2.743
 3346TIP3    H210045   0.724   2.706   2.718
 3347TIP3   OH210046   0.461   3.378   1.784
 3347TIP3    H110047   0.487   3.325   1.860
 3347TIP3    H210048   0.410   3.318   1.730
 3348TIP3   OH210049   5.886   4.198   0.528
 3348TIP3    H110050   5.933   4.193   0.611
 3348TIP3    H210051   5.886   4.109   0.494
 3349TIP3   OH210052   1.188   5.317   0.094
 3349TIP3    H110053   1.202   5.269   0.175
 3349TIP3    H210054   1.108   5.279   0.057
 3350TIP3   OH210055   0.102   3.776   1.424
 3350TIP3    H110056   0.061   3.803   1.507
 3350TIP3    H210057   0.177   3.834   1.415
 3351TIP3   OH210058   2.902   4.090   0.517
 3351TIP3    H110059   2.819   4.089   0.469
 3351TIP3    H210060   2.880   4.053   0.603
 3352TIP3   OH210061   2.060   2.277   2.965
 3352TIP3    H110062   2.052   2.369   2.991
 3352TIP3    H210063   1.977   2.257   2.923
 3353TIP3   OH210064   3.427   4.221   0.030
 3353TIP3    H110065   3.335   4.204   0.013
 3353TIP3    H210066   3.439   4.200   0.123
 3354TIP3   OH210067   3.254   3.222   0.012
 3354TIP3    H110068   3.303   3.281   0.068
 3354TIP3    H210069   3.219   3.155   0.071
 3355TIP3   OH210070   2.883   0.558   1.739
 3355TIP3    H110071   2.977   0.575   1.729
 3355TIP3    H210072   2.878   0.491   1.808
 3356TIP3   OH210073   6.048   4.689   1.585
 3356TIP3    H110074   6.142   4.673   1.591
 3356TIP3    H210075   6.019   4.640   1.509
 3357TIP3   OH210076   5.596   1.165   4.999
 3357TIP3    H110077   5.633   1.202   5.079
 3357TIP3    H210078   5.665   1.109   4.964
 3358TIP3   OH210079   2.360   0.909   2.179
 3358TIP3    H110080   2.294   0.950   2.234
 3358TIP3    H210081   2.385   0.977   2.116
 3359TIP3   OH210082   4.096   3.109   0.476
 3359TIP3    H110083   4.070   3.070   0.559
 3359TIP3    H210084   4.040   3.187   0.468
 3360TIP3   OH210085   1.736   1.151   3.456
 3360TIP3    H110086   1.645   1.171   3.478
 3360TIP3    H210087   1.730   1.079   3.393
 3361TIP3   OH210088   3.326   3.574   4.340
 3361TIP3    H110089   3.395   3.562   4.275
 3361TIP3    H210090   3.352   3.519   4.413
 3362TIP3   OH210091   1.154   4.610   4.203
 3362TIP3    H110092   1.063   4.631   4.227
 3362TIP3    H210093   1.146   4.536   4.143
 3363TIP3   OH210094   3.187   4.812   3.454
 3363TIP3    H110095   3.237   4.757   3.514
 3363TIP3    H210096   3.232   4.803   3.370
 3364TIP3   OH210097   0.732   3.506   1.687
 3364TIP3    H110098   0.712   3.474   1.599
 3364TIP3    H210099   0.649   3.497   1.734
 3365TIP3   OH210100   5.376   4.092   2.404
 3365TIP3    H110101   5.441   4.159   2.384
 3365TIP3    H210102   5.421   4.009   2.391
 3366TIP3   OH210103   0.939   2.441   2.095
 3366TIP3    H110104   0.870   2.463   2.033
 3366TIP3    H210105   0.893   2.402   2.169
 3367TIP3   OH210106   6.213   1.934   1.670
 3367TIP3    H110107   6.223   1.941   1.765
 3367TIP3    H210108   6.234   2.022   1.638
 3368TIP3   OH210109   5.058   0.385   4.475
 3368TIP3    H110110   4.979   0.421   4.515
 3368TIP3    H210111   5.026   0.313   4.420
 3369TIP3   OH210112   5.832   0.462   3.301
 3369TIP3    H110113   5.867   0.436   3.386
 3369TIP3    H210114   5.739   0.439   3.306
 3370TIP3   OH210115   4.559   1.001   1.463
 3370TIP3    H110116   4.639   1.048   1.439
 3370TIP3    H210117   4.531   1.040   1.546
 3371TIP3   OH210118   1.809   4.780   2.695
 3371TIP3    H110119   1.734   4.768   2.636
 3371TIP3    H210120   1.770   4.813   2.776
 3372TIP3   OH210121   4.162   3.173   3.922
 3372TIP3    H110122   4.109   3.145   3.847
 3372TIP3    H210123   4.230   3.228   3.883
 3373TIP3   OH210124   5.832   2.970   4.260
 3373TIP3    H110125   5.883   3.037   4.217
 3373TIP3    H210126   5.773   3.018   4.318
 3374TIP3   OH210127   1.436   0.449   0.271
 3374TIP3    H110128   1.354   0.426   0.228
 3374TIP3    H210129   1.497   0.467   0.200
 3375TIP3   OH210130   2.465   5.058   1.023
 3375TIP3    H110131   2.456   5.126   0.956
 3375TIP3    H210132   2.556   5.064   1.052
 3376TIP3   OH210133   0.823   5.534   2.102
 3376TIP3    H110134   0.787   5.583   2.028
 3376TIP3    H210135   0.751   5.477   2.130
 3377TIP3   OH210136   3.828   0.040   4.690
 3377TIP3    H110137   3.845   0.067   4.600
 3377TIP3    H210138   3.874   0.103   4.744
 3378TIP3   OH210139   6.164   4.002   1.105
 3378TIP3    H110140   6.168   4.037   1.016
 3378TIP3    H210141   6.170   4.080   1.161
 3379TIP3   OH210142   4.024   4.387   4.128
 3379TIP3    H110143   4.014   4.298   4.160
 3379TIP3    H210144   3.946   4.403   4.075
 3380TIP3   OH210145   2.047   5.585   1.813
 3380TIP3    H110146   2.078   5.612   1.726
 3380TIP3    H210147   2.127   5.576   1.865
 3381TIP3   OH210148   4.546   2.127   1.092
 3381TIP3    H110149   4.594   2.209   1.100
 3381TIP3    H210150   4.567   2.079   1.172
 3382TIP3   OH210151   0.612   0.794   2.065
 3382TIP3    H110152   0.534   0.748   2.096
 3382TIP3    H210153   0.683   0.761   2.120
 3383TIP3   OH210154   6.347   1.421   4.794
 3383TIP3    H110155   6.378   1.359   4.727
 3383TIP3    H210156   6.256   1.437   4.772
 3384TIP3   OH210157   5.466   4.998   0.850
 3384TIP3    H110158   5.400   4.961   0.909
 3384TIP3    H210159   5.487   5.083   0.888
 3385TIP3   OH210160   4.200   5.462   2.953
 3385TIP3    H110161   4.207   5.388   3.013
 3385TIP3    H210162   4.218   5.424   2.867
 3386TIP3   OH210163   0.665   5.163   0.697
 3386TIP3    H110164   0.650   5.109   0.620
 3386TIP3    H210165   0.609   5.239   0.685
 3387TIP3   OH210166   0.505   0.081   0.330
 3387TIP3    H110167   0.520   0.088   0.235
 3387TIP3    H210168   0.436   0.145   0.348
 3388TIP3   OH210169   0.399   1.935   1.821
 3388TIP3    H110170   0.422   1.893   1.904
 3388TIP3    H210171   0.449   2.016   1.820
 3389TIP3   OH210172   1.044   5.715   5.055
 3389TIP3    H110173   1.023   5.784   5.119
 3389TIP3    H210174   1.054   5.762   4.972
 3390TIP3   OH210175   2.078   3.074   4.370
 3390TIP3    H110176   2.095   3.061   4.277
 3390TIP3    H210177   2.032   3.158   4.375
 3391TIP3   OH210178   1.739   0.493   3.392
 3391TIP3    H110179   1.713   0.568   3.445
 3391TIP3    H210180   1.835   0.500   3.386
 3392TIP3   OH210181   4.184   2.093   3.644
 3392TIP3    H110182   4.256   2.155   3.631
 3392TIP3    H210183   4.145   2.118   3.727
 3393TIP3   OH210184   1.587   5.171   0.222
 3393TIP3    H110185   1.647   5.241   0.198
 3393TIP3    H210186   1.550   5.198   0.306
 3394TIP3   OH210187   1.070   0.677   0.382
 3394TIP3    H110188   1.071   0.609   0.450
 3394TIP3    H210189   1.162   0.698   0.369
 3395TIP3   OH210190   1.521   2.036   3.732
 3395TIP3    H110191   1.428   2.028   3.750
 3395TIP3    H210192   1.549   2.112   3.783
 3396TIP3   OH210193   2.536   2.225   4.518
 3396TIP3    H110194   2.562   2.318   4.522
 3396TIP3    H210195   2.500   2.207   4.605
 3397TIP3   OH210196   4.622   3.435   1.789
 3397TIP3    H110197   4.577   3.519   1.787
 3397TIP3    H210198   4.711   3.455   1.762
 3398TIP3   OH210199   3.597   3.411   1.754
 3398TIP3    H110200   3.643   3.331   1.778
 3398TIP3    H210201   3.652   3.482   1.787
 3399TIP3   OH210202   4.963   4.989   3.185
 3399TIP3    H110203   4.985   4.920   3.123
 3399TIP3    H210204   5.010   4.966   3.265
 3400TIP3   OH210205   4.338   1.235   0.409
 3400TIP3    H110206   4.399   1.195   0.346
 3400TIP3    H210207   4.366   1.200   0.494
 3401TIP3   OH210208   2.237   2.305   4.977
 3401TIP3    H110209   2.319   2.286   5.022
 3401TIP3    H210210   2.229   2.235   4.912
 3402TIP3   OH210211   4.061   1.211   4.774
 3402TIP3    H110212   3.974   1.188   4.744
 3402TIP3    H210213   4.063   1.182   4.866
 3403TIP3   OH210214   2.777   1.017   0.969
 3403TIP3    H110215   2.821   1.016   0.884
 3403TIP3    H210216   2.684   1.022   0.948
 3404TIP3   OH210217   4.301   1.621   1.783
 3404TIP3    H110218   4.283   1.607   1.876
 3404TIP3    H210219   4.244   1.559   1.737
 3405TIP3   OH210220   2.020   0.865   4.792
 3405TIP3    H110221   2.004   0.784   4.841
 3405TIP3    H210222   2.115   0.874   4.792
 3406TIP3   OH210223   1.987   1.809   0.860
 3406TIP3    H110224   1.952   1.738   0.805
 3406TIP3    H210225   2.028   1.869   0.798
 3407TIP3   OH210226   4.314   1.701   3.774
 3407TIP3    H110227   4.362   1.684   3.855
 3407TIP3    H210228   4.379   1.739   3.715
 3408TIP3   OH210229   0.078   2.948   1.567
 3408TIP3    H110230   0.001   3.004   1.578
 3408TIP3    H210231   0.150   3.008   1.552
 3409TIP3   OH210232   3.005   0.332   2.534
 3409TIP3    H110233   2.936   0.303   2.594
 3409TIP3    H210234   3.087   0.317   2.583
 3410TIP3   OH210235   3.422   3.615   2.342
 3410TIP3    H110236   3.394   3.524   2.341
 3410TIP3    H210237   3.427   3.639   2.434
 3411TIP3   OH210238   3.817   0.694  -0.002
 3411TIP3    H110239   3.912   0.704  -0.012
 3411TIP3    H210240   3.807   0.615   0.052
 3412TIP3   OH210241   5.160   4.124   2.568
 3412TIP3    H110242   5.160   4.055   2.635
 3412TIP3    H210243   5.245   4.115   2.526
 3413TIP3   OH210244   6.038   3.595   1.924
 3413TIP3    H110245   6.077   3.681   1.939
 3413TIP3    H210246   5.947   3.614   1.902
 3414TIP3   OH210247   2.932   2.108   1.420
 3414TIP3    H110248   2.912   2.015   1.414
 3414TIP3    H210249   2.863   2.144   1.476
 3415TIP3   OH210250   3.045   3.561   0.865
 3415TIP3    H110251   3.116   3.616   0.833
 3415TIP3    H210252   2.965   3.605   0.833
 3416TIP3   OH210253   5.938   1.353   2.676
 3416TIP3    H110254   6.024   1.355   2.636
 3416TIP3    H210255   5.905   1.265   2.656
 3417TIP3   OH210256   0.661   5.756   1.327
 3417TIP3    H110257   0.575   5.746   1.369
 3417TIP3    H210258   0.717   5.695   1.374
 3418TIP3   OH210259   2.540   2.044   3.394
 3418TIP3    H110260   2.557   1.997   3.476
 3418TIP3    H210261   2.445   2.038   3.382
 3419TIP3   OH210262   1.905   1.940   2.989
 3419TIP3    H110263   1.982   1.904   2.945
 3419TIP3    H210264   1.852   1.863   3.012
 3420TIP3   OH210265   1.837   4.642   2.182
 3420TIP3    H110266   1.771   4.685   2.237
 3420TIP3    H210267   1.847   4.555   2.220
 3421TIP3   OH210268   1.252   2.019   1.706
 3421TIP3    H110269   1.343   1.992   1.699
 3421TIP3    H210270   1.226   1.996   1.796
 3422TIP3   OH210271   3.025   0.969   4.009
 3422TIP3    H110272   2.967   1.012   4.072
 3422TIP3    H210273   3.109   0.962   4.055
 3423TIP3   OH210274   2.767   3.695   1.251
 3423TIP3    H110275   2.681   3.665   1.280
 3423TIP3    H210276   2.769   3.677   1.157
 3424TIP3   OH210277   2.650   4.585   4.968
 3424TIP3    H110278   2.660   4.610   4.876
 3424TIP3    H210279   2.556   4.573   4.980
 3425TIP3   OH210280   1.187   5.947   2.479
 3425TIP3    H110281   1.274   5.969   2.513
 3425TIP3    H210282   1.165   5.864   2.521
 3426TIP3   OH210283   1.425   5.064   0.005
 3426TIP3    H110284   1.467   5.064  -0.081
 3426TIP3    H210285   1.493   5.094   0.065
 3427TIP3   OH210286   3.311   3.365   0.642
 3427TIP3    H110287   3.330   3.282   0.686
 3427TIP3    H210288   3.367   3.429   0.686
 3428TIP3   OH210289   3.878   1.060   2.969
 3428TIP3    H110290   3.839   1.138   3.010
 3428TIP3    H210291   3.891   1.086   2.878
 3429TIP3   OH210292   0.470   2.588   1.664
 3429TIP3    H110293   0.538   2.593   1.731
 3429TIP3    H210294   0.396   2.546   1.708
 3430TIP3   OH210295   2.970   4.129   3.461
 3430TIP3    H110296   3.019   4.209   3.439
 3430TIP3    H210297   2.880   4.149   3.438
 3431TIP3   OH210298   0.328   3.814   3.613
 3431TIP3    H110299   0.323   3.757   3.690
 3431TIP3    H210300   0.270   3.888   3.635
 3432TIP3   OH210301   5.345   4.981   4.017
 3432TIP3    H110302   5.329   4.914   3.951
 3432TIP3    H210303   5.402   4.938   4.082
 3433TIP3   OH210304   2.832   2.502   1.360
 3433TIP3    H110305   2.851   2.595   1.350
 3433TIP3    H210306   2.782   2.496   1.442
 3434TIP3   OH210307   4.178   0.217   5.042
 3434TIP3    H110308   4.180   0.130   5.003
 3434TIP3    H210309   4.192   0.277   4.969
 3435TIP3   OH210310   0.677   5.611   1.891
 3435TIP3    H110311   0.619   5.656   1.829
 3435TIP3    H210312   0.720   5.544   1.838
 3436TIP3   OH210313   6.094   5.717   1.970
 3436TIP3    H110314   6.186   5.693   1.979
 3436TIP3    H210315   6.046   5.634   1.973
 3437TIP3   OH210316   6.189   2.438   3.626
 3437TIP3    H110317   6.112   2.383   3.616
 3437TIP3    H210318   6.191   2.491   3.546
 3438TIP3   OH210319   5.601   0.120   4.042
 3438TIP3    H110320   5.676   0.079   4.086
 3438TIP3    H210321   5.637   0.151   3.959
 3439TIP3   OH210322   4.528   5.860   0.172
 3439TIP3    H110323   4.483   5.945   0.171
 3439TIP3    H210324   4.532   5.836   0.264
 3440TIP3   OH210325   2.970   2.020   3.558
 3440TIP3    H110326   3.056   1.989   3.588
 3440TIP3    H210327   2.987   2.061   3.474
 3441TIP3   OH210328   4.889   2.663   3.860
 3441TIP3    H110329   4.866   2.707   3.778
 3441TIP3    H210330   4.806   2.634   3.896
 3442TIP3   OH210331   4.966   4.710   0.097
 3442TIP3    H110332   5.058   4.731   0.080
 3442TIP3    H210333   4.969   4.625   0.143
 3443TIP3   OH210334   4.283   2.141   0.109
 3443TIP3    H110335   4.316   2.051   0.114
 3443TIP3    H210336   4.317   2.175   0.027
 3444TIP3   OH210337   3.447   5.960   2.389
 3444TIP3    H110338   3.452   5.945   2.294
 3444TIP3    H210339   3.497   5.888   2.427
 3445TIP3   OH210340   3.715   0.090   1.477
 3445TIP3    H110341   3.650   0.028   1.444
 3445TIP3    H210342   3.712   0.080   1.572
 3446TIP3   OH210343   6.114   4.327   4.586
 3446TIP3    H110344   6.130   4.385   4.660
 3446TIP3    H210345   6.190   4.269   4.583
 3447TIP3   OH210346   6.173   5.968   1.113
 3447TIP3    H110347   6.143   5.879   1.097
 3447TIP3    H210348   6.232   5.987   1.040
 3448TIP3   OH210349   5.514   3.846   2.309
 3448TIP3    H110350   5.539   3.856   2.217
 3448TIP3    H210351   5.584   3.889   2.358
 3449TIP3   OH210352   1.907   0.109   2.004
 3449TIP3    H110353   1.897   0.072   2.091
 3449TIP3    H210354   1.863   0.194   2.009
 3450TIP3   OH210355   2.473   3.698   1.066
 3450TIP3    H110356   2.508   3.766   1.124
 3450TIP3    H210357   2.543   3.634   1.060
 3451TIP3   OH210358   5.086   3.853   1.268
 3451TIP3    H110359   4.997   3.883   1.283
 3451TIP3    H210360   5.120   3.911   1.200
 3452TIP3   OH210361   6.287   1.905   3.886
 3452TIP3    H110362   6.233   1.826   3.890
 3452TIP3    H210363   6.286   1.939   3.976
 3453TIP3   OH210364   2.753   3.005   2.737
 3453TIP3    H110365   2.668   3.043   2.716
 3453TIP3    H210366   2.815   3.077   2.724
 3454TIP3   OH210367   5.742   0.844   2.669
 3454TIP3    H110368   5.738   0.778   2.600
 3454TIP3    H210369   5.784   0.799   2.742
 3455TIP3   OH210370   3.073   2.612   4.067
 3455TIP3    H110371   3.030   2.527   4.078
 3455TIP3    H210372   3.122   2.624   4.148
 3456TIP3   OH210373   5.792   0.429   4.221
 3456TIP3    H110374   5.717   0.372   4.237
 3456TIP3    H210375   5.837   0.390   4.145
 3457TIP3   OH210376   4.355   5.881   1.845
 3457TIP3    H110377   4.308   5.956   1.809
 3457TIP3    H210378   4.447   5.900   1.829
 3458TIP3   OH210379   1.989   3.928   4.925
 3458TIP3    H110380   2.039   3.976   4.859
 3458TIP3    H210381   2.022   3.962   5.009
 3459TIP3   OH210382   4.444   4.090   1.994
 3459TIP3    H110383   4.488   4.106   1.911
 3459TIP3    H210384   4.483   4.008   2.026
 3460TIP3   OH210385   4.965   4.178   0.699
 3460TIP3    H110386   4.969   4.083   0.708
 3460TIP3    H210387   4.963   4.210   0.790
 3461TIP3   OH210388   1.467   5.220   0.448
 3461TIP3    H110389   1.402   5.193   0.513
 3461TIP3    H210390   1.547   5.235   0.499
 3462TIP3   OH210391   0.230   2.135   1.070
 3462TIP3    H110392   0.280   2.083   1.007
 3462TIP3    H210393   0.165   2.074   1.106
 3463TIP3   OH210394   5.159   5.332   3.972
 3463TIP3    H110395   5.121   5.294   4.051
 3463TIP3    H210396   5.086   5.376   3.928
 3464TIP3   OH210397   1.803   0.271   3.960
 3464TIP3    H110398   1.793   0.353   4.008
 3464TIP3    H210399   1.761   0.287   3.876
 3465TIP3   OH210400   4.392   1.263   2.571
 3465TIP3    H110401   4.436   1.287   2.653
 3465TIP3    H210402   4.464   1.252   2.509
 3466TIP3   OH210403   6.085   3.554   2.532
 3466TIP3    H110404   6.000   3.596   2.518
 3466TIP3    H210405   6.073   3.465   2.501
 3467TIP3   OH210406   0.152   0.802   4.704
 3467TIP3    H110407   0.244   0.819   4.681
 3467TIP3    H210408   0.105   0.880   4.675
 3468TIP3   OH210409   2.617   4.350   2.770
 3468TIP3    H110410   2.589   4.268   2.811
 3468TIP3    H210411   2.574   4.419   2.821
 3469TIP3   OH210412   1.334   5.179   4.610
 3469TIP3    H110413   1.263   5.124   4.642
 3469TIP3    H210414   1.325   5.261   4.659
 3470TIP3   OH210415   0.162   1.558   4.940
 3470TIP3    H110416   0.093   1.510   4.894
 3470TIP3    H210417   0.153   1.648   4.909
 3471TIP3   OH210418   4.526   3.537   4.913
 3471TIP3    H110419   4.445   3.563   4.867
 3471TIP3    H210420   4.507   3.449   4.947
 3472TIP3   OH210421   2.337   2.878   4.264
 3472TIP3    H110422   2.428   2.869   4.237
 3472TIP3    H210423   2.300   2.790   4.255
 3473TIP3   OH210424   1.140   3.528   4.847
 3473TIP3    H110425   1.207   3.479   4.896
 3473TIP3    H210426   1.074   3.550   4.912
 3474TIP3   OH210427   1.402   5.590   1.963
 3474TIP3    H110428   1.408   5.497   1.984
 3474TIP3    H210429   1.321   5.599   1.913
 3475TIP3   OH210430   2.863   1.552   2.757
 3475TIP3    H110431   2.806   1.516   2.690
 3475TIP3    H210432   2.805   1.571   2.831
 3476TIP3   OH210433   5.411   5.979   3.062
 3476TIP3    H110434   5.425   6.068   3.030
 3476TIP3    H210435   5.486   5.930   3.029
 3477TIP3   OH210436   2.006   3.318   0.799
 3477TIP3    H110437   1.950   3.380   0.751
 3477TIP3    H210438   2.094   3.339   0.768
 3478TIP3   OH210439   0.010   2.510   2.097
 3478TIP3    H110440  -0.041   2.535   2.174
 3478TIP3    H210441   0.095   2.482   2.132
 3479TIP3   OH210442   1.468   3.119   5.042
 3479TIP3    H110443   1.501   3.159   5.123
 3479TIP3    H210444   1.545   3.077   5.003
 3480TIP3   OH210445   5.215   3.172   4.645
 3480TIP3    H110446   5.217   3.199   4.737
 3480TIP3    H210447   5.255   3.245   4.598
 3481TIP3   OH210448   3.066   5.505   2.572
 3481TIP3    H110449   3.006   5.553   2.514
 3481TIP3    H210450   3.147   5.556   2.570
 3482TIP3   OH210451   2.119   3.747   1.346
 3482TIP3    H110452   2.068   3.814   1.301
 3482TIP3    H210453   2.058   3.710   1.410
 3483TIP3   OH210454   5.056   2.021   3.145
 3483TIP3    H110455   4.985   2.045   3.205
 3483TIP3    H210456   5.068   1.927   3.160
 3484TIP3   OH210457   3.556   3.446   0.729
 3484TIP3    H110458   3.614   3.475   0.799
 3484TIP3    H210459   3.531   3.357   0.754
 3485TIP3   OH210460   1.276   3.796   0.873
 3485TIP3    H110461   1.281   3.872   0.815
 3485TIP3    H210462   1.366   3.765   0.880
 3486TIP3   OH210463   3.364   0.799   3.998
 3486TIP3    H110464   3.362   0.865   3.929
 3486TIP3    H210465   3.421   0.836   4.065
 3487TIP3   OH210466   4.712   2.076   5.026
 3487TIP3    H110467   4.757   1.997   5.056
 3487TIP3    H210468   4.633   2.043   4.983
 3488TIP3   OH210469   3.173   4.875   1.761
 3488TIP3    H110470   3.152   4.790   1.800
 3488TIP3    H210471   3.234   4.854   1.690
 3489TIP3   OH210472   1.773   4.941   1.151
 3489TIP3    H110473   1.705   4.879   1.178
 3489TIP3    H210474   1.841   4.886   1.113
 3490TIP3   OH210475   5.834   3.858   1.246
 3490TIP3    H110476   5.750   3.850   1.290
 3490TIP3    H210477   5.839   3.950   1.220
 3491TIP3   OH210478   2.828   5.755   0.918
 3491TIP3    H110479   2.884   5.810   0.973
 3491TIP3    H210480   2.888   5.711   0.859
 3492TIP3   OH210481   1.456   1.693   3.497
 3492TIP3    H110482   1.429   1.602   3.509
 3492TIP3    H210483   1.378   1.744   3.521
 3493TIP3   OH210484   2.982   4.706   4.457
 3493TIP3    H110485   2.995   4.713   4.362
 3493TIP3    H210486   2.913   4.769   4.477
 3494TIP3   OH210487   2.902   5.319   4.575
 3494TIP3    H110488   2.993   5.296   4.560
 3494TIP3    H210489   2.894   5.409   4.544
 3495TIP3   OH210490   6.101   3.557   1.555
 3495TIP3    H110491   6.095   3.633   1.612
 3495TIP3    H210492   6.015   3.549   1.516
 3496TIP3   OH210493   0.826   4.841   3.705
 3496TIP3    H110494   0.835   4.754   3.666
 3496TIP3    H210495   0.867   4.833   3.791
 3497TIP3   OH210496   5.769   0.777   0.521
 3497TIP3    H110497   5.702   0.817   0.465
 3497TIP3    H210498   5.850   0.787   0.471
 3498TIP3   OH210499   4.311   5.710   0.403
 3498TIP3    H110500   4.256   5.765   0.457
 3498TIP3    H210501   4.392   5.759   0.392
 3499TIP3   OH210502   0.498   3.259   2.981
 3499TIP3    H110503   0.498   3.319   2.907
 3499TIP3    H210504   0.410   3.222   2.983
 3500TIP3   OH210505   5.345   2.192   2.123
 3500TIP3    H110506   5.337   2.256   2.052
 3500TIP3    H210507   5.356   2.108   2.078
 3501TIP3   OH210508   6.053   4.829   0.294
 3501TIP3    H110509   5.988   4.808   0.228
 3501TIP3    H210510   6.018   4.906   0.339
 3502TIP3   OH210511   5.911   4.230   3.915
 3502TIP3    H110512   5.962   4.149   3.921
 3502TIP3    H210513   5.965   4.296   3.959
 3503TIP3   OH210514   4.746   5.790   4.423
 3503TIP3    H110515   4.810   5.818   4.358
 3503TIP3    H210516   4.668   5.843   4.404
 3504TIP3   OH210517   2.786   3.010   4.202
 3504TIP3    H110518   2.735   3.050   4.273
 3504TIP3    H210519   2.722   2.957   4.155
 3505TIP3   OH210520   4.263   2.802   0.784
 3505TIP3    H110521   4.253   2.759   0.869
 3505TIP3    H210522   4.358   2.809   0.771
 3506TIP3   OH210523   2.471   3.263   0.593
 3506TIP3    H110524   2.507   3.191   0.540
 3506TIP3    H210525   2.462   3.226   0.681
 3507TIP3   OH210526   2.807   5.877   3.215
 3507TIP3    H110527   2.868   5.857   3.145
 3507TIP3    H210528   2.721   5.874   3.173
 3508TIP3   OH210529   2.713   3.342   5.162
 3508TIP3    H110530   2.706   3.419   5.219
 3508TIP3    H210531   2.790   3.360   5.108
 3509TIP3   OH210532   0.167   1.391   4.544
 3509TIP3    H110533   0.125   1.387   4.459
 3509TIP3    H210534   0.233   1.459   4.536
 3510TIP3   OH210535   0.550   0.100   3.031
 3510TIP3    H110536   0.461   0.105   2.995
 3510TIP3    H210537   0.541   0.043   3.108
 3511TIP3   OH210538   2.578   3.495   1.296
 3511TIP3    H110539   2.531   3.469   1.217
 3511TIP3    H210540   2.605   3.412   1.337
 3512TIP3   OH210541   4.575   1.787   1.196
 3512TIP3    H110542   4.641   1.791   1.127
 3512TIP3    H210543   4.493   1.771   1.150
 3513TIP3   OH210544   0.962   3.652   1.230
 3513TIP3    H110545   0.875   3.619   1.249
 3513TIP3    H210546   0.995   3.594   1.161
 3514TIP3   OH210547   0.597   3.960   4.784
 3514TIP3    H110548   0.516   4.004   4.758
 3514TIP3    H210549   0.661   4.030   4.793
 3515TIP3   OH210550   1.881   3.329   1.995
 3515TIP3    H110551   1.822   3.372   2.057
 3515TIP3    H210552   1.880   3.387   1.918
 3516TIP3   OH210553   2.381   4.520   4.971
 3516TIP3    H110554   2.408   4.531   5.062
 3516TIP3    H210555   2.317   4.448   4.974
 3517TIP3   OH210556   5.350   4.739   4.450
 3517TIP3    H110557   5.399   4.794   4.389
 3517TIP3    H210558   5.297   4.801   4.501
 3518TIP3   OH210559   0.255   5.467   0.875
 3518TIP3    H110560   0.188   5.485   0.809
 3518TIP3    H210561   0.207   5.461   0.957
 3519TIP3   OH210562   0.395   4.217   2.741
 3519TIP3    H110563   0.466   4.218   2.677
 3519TIP3    H210564   0.323   4.263   2.699
 3520TIP3   OH210565   0.883   0.900   0.622
 3520TIP3    H110566   0.942   0.825   0.620
 3520TIP3    H210567   0.913   0.957   0.552
 3521TIP3   OH210568   2.722   0.157   1.164
 3521TIP3    H110569   2.764   0.110   1.092
 3521TIP3    H210570   2.745   0.249   1.149
 3522TIP3   OH210571   2.186   0.214   2.911
 3522TIP3    H110572   2.275   0.224   2.944
 3522TIP3    H210573   2.190   0.134   2.857
 3523TIP3   OH210574   5.788   1.310   2.150
 3523TIP3    H110575   5.717   1.356   2.195
 3523TIP3    H210576   5.845   1.380   2.118
 3524TIP3   OH210577   5.308   4.491   3.909
 3524TIP3    H110578   5.356   4.442   3.842
 3524TIP3    H210579   5.216   4.474   3.889
 3525TIP3   OH210580   3.928   3.047   2.530
 3525TIP3    H110581   3.872   3.027   2.605
 3525TIP3    H210582   3.870   3.089   2.467
 3526TIP3   OH210583   0.821   3.085   0.364
 3526TIP3    H110584   0.792   3.039   0.443
 3526TIP3    H210585   0.901   3.130   0.391
 3527TIP3   OH210586   3.918   2.514   4.633
 3527TIP3    H110587   3.875   2.451   4.691
 3527TIP3    H210588   3.910   2.598   4.679
 3528TIP3   OH210589   4.366   4.686   2.331
 3528TIP3    H110590   4.426   4.650   2.265
 3528TIP3    H210591   4.350   4.776   2.303
 3529TIP3   OH210592   1.635   4.703   0.795
 3529TIP3    H110593   1.717   4.698   0.844
 3529TIP3    H210594   1.606   4.612   0.788
 3530TIP3   OH210595   2.518   4.081   4.572
 3530TIP3    H110596   2.453   4.027   4.616
 3530TIP3    H210597   2.549   4.142   4.639
 3531TIP3   OH210598   1.018   4.730   0.317
 3531TIP3    H110599   1.061   4.752   0.234
 3531TIP3    H210600   0.983   4.813   0.349
 3532TIP3   OH210601   3.136   2.574   4.329
 3532TIP3    H110602   3.162   2.654   4.374
 3532TIP3    H210603   3.057   2.545   4.375
 3533TIP3   OH210604   2.406   0.326   0.161
 3533TIP3    H110605   2.501   0.332   0.171
 3533TIP3    H210606   2.393   0.260   0.093
 3534TIP3   OH210607   2.846   2.329   0.173
 3534TIP3    H110608   2.834   2.282   0.091
 3534TIP3    H210609   2.862   2.420   0.147
 3535TIP3   OH210610   3.397   1.839   1.669
 3535TIP3    H110611   3.486   1.813   1.644
 3535TIP3    H210612   3.357   1.868   1.587
 3536TIP3   OH210613   1.283   3.344   1.249
 3536TIP3    H110614   1.331   3.264   1.268
 3536TIP3    H210615   1.199   3.332   1.293
 3537TIP3   OH210616   3.178   2.638   4.824
 3537TIP3    H110617   3.159   2.567   4.886
 3537TIP3    H210618   3.268   2.622   4.797
 3538TIP3   OH210619   3.445   2.431   4.904
 3538TIP3    H110620   3.419   2.357   4.959
 3538TIP3    H210621   3.451   2.395   4.816
 3539TIP3   OH210622   0.470   0.208   1.460
 3539TIP3    H110623   0.539   0.144   1.445
 3539TIP3    H210624   0.396   0.176   1.409
 3540TIP3   OH210625   0.799   4.764   1.183
 3540TIP3    H110626   0.724   4.800   1.230
 3540TIP3    H210627   0.765   4.743   1.096
 3541TIP3   OH210628   1.356   2.892   1.002
 3541TIP3    H110629   1.322   2.889   1.091
 3541TIP3    H210630   1.382   2.802   0.983
 3542TIP3   OH210631   2.716   3.628   3.900
 3542TIP3    H110632   2.768   3.548   3.901
 3542TIP3    H210633   2.736   3.671   3.983
 3543TIP3   OH210634   5.904   0.739   2.872
 3543TIP3    H110635   5.857   0.792   2.936
 3543TIP3    H210636   5.994   0.736   2.903
 3544TIP3   OH210637   3.406   3.122   1.917
 3544TIP3    H110638   3.404   3.211   1.952
 3544TIP3    H210639   3.401   3.133   1.822
 3545TIP3   OH210640   0.459   5.638   1.509
 3545TIP3    H110641   0.531   5.579   1.528
 3545TIP3    H210642   0.380   5.588   1.529
 3546TIP3   OH210643   6.063   4.003   3.820
 3546TIP3    H110644   6.145   4.043   3.848
 3546TIP3    H210645   6.060   3.919   3.866
 3547TIP3   OH210646   4.677   5.317   4.395
 3547TIP3    H110647   4.728   5.307   4.475
 3547TIP3    H210648   4.666   5.228   4.361
 3548TIP3   OH210649   2.964   3.116   2.338
 3548TIP3    H110650   2.985   3.034   2.384
 3548TIP3    H210651   3.022   3.181   2.376
 3549TIP3   OH210652   4.955   3.083   2.332
 3549TIP3    H110653   4.999   2.998   2.338
 3549TIP3    H210654   4.940   3.109   2.423
 3550TIP3   OH210655   6.344   3.741   0.993
 3550TIP3    H110656   6.301   3.699   0.919
 3550TIP3    H210657   6.287   3.724   1.067
 3551TIP3   OH210658   3.496   1.805   0.506
 3551TIP3    H110659   3.564   1.869   0.524
 3551TIP3    H210660   3.544   1.724   0.487
 3552TIP3   OH210661   0.811   1.434   2.327
 3552TIP3    H110662   0.792   1.497   2.257
 3552TIP3    H210663   0.854   1.487   2.395
 3553TIP3   OH210664   0.951   2.283   0.602
 3553TIP3    H110665   0.955   2.196   0.642
 3553TIP3    H210666   0.901   2.335   0.664
 3554TIP3   OH210667   2.176   2.617   4.093
 3554TIP3    H110668   2.129   2.535   4.083
 3554TIP3    H210669   2.247   2.598   4.154
 3555TIP3   OH210670   2.763   0.312   4.400
 3555TIP3    H110671   2.789   0.222   4.419
 3555TIP3    H210672   2.840   0.365   4.420
 3556TIP3   OH210673   6.274   0.586   2.142
 3556TIP3    H110674   6.262   0.678   2.165
 3556TIP3    H210675   6.238   0.579   2.054
 3557TIP3   OH210676   0.969   4.840   3.960
 3557TIP3    H110677   0.964   4.905   4.031
 3557TIP3    H210678   0.973   4.756   4.005
 3558TIP3   OH210679   0.873   3.183   1.126
 3558TIP3    H110680   0.807   3.251   1.112
 3558TIP3    H210681   0.857   3.152   1.215
 3559TIP3   OH210682   5.388   5.245   5.027
 3559TIP3    H110683   5.431   5.285   5.102
 3559TIP3    H210684   5.324   5.310   4.998
 3560TIP3   OH210685   2.100   5.797   4.320
 3560TIP3    H110686   2.050   5.722   4.287
 3560TIP3    H210687   2.187   5.787   4.281
 3561TIP3   OH210688   3.671   1.403   5.102
 3561TIP3    H110689   3.633   1.346   5.035
 3561TIP3    H210690   3.623   1.486   5.093
 3562TIP3   OH210691   5.051   3.354   3.306
 3562TIP3    H110692   5.003   3.343   3.223
 3562TIP3    H210693   4.996   3.414   3.357
 3563TIP3   OH210694   1.886   1.169   2.399
 3563TIP3    H110695   1.870   1.085   2.356
 3563TIP3    H210696   1.817   1.176   2.464
 3564TIP3   OH210697   4.144   0.364   1.172
 3564TIP3    H110698   4.146   0.436   1.235
 3564TIP3    H210699   4.141   0.407   1.086
 3565TIP3   OH210700   5.838   5.276   3.237
 3565TIP3    H110701   5.757   5.255   3.191
 3565TIP3    H210702   5.905   5.276   3.168
 3566TIP3   OH210703   6.062   3.283   2.462
 3566TIP3    H110704   5.992   3.236   2.418
 3566TIP3    H210705   6.049   3.264   2.555
 3567TIP3   OH210706   1.406   4.865   0.820
 3567TIP3    H110707   1.456   4.936   0.861
 3567TIP3    H210708   1.471   4.797   0.804
 3568TIP3   OH210709   4.076   2.292   0.679
 3568TIP3    H110710   4.065   2.387   0.679
 3568TIP3    H210711   4.145   2.276   0.744
 3569TIP3   OH210712   5.392   2.683   1.044
 3569TIP3    H110713   5.301   2.664   1.065
 3569TIP3    H210714   5.423   2.735   1.118
 3570TIP3   OH210715   4.473   3.678   1.801
 3570TIP3    H110716   4.486   3.745   1.734
 3570TIP3    H210717   4.432   3.725   1.874
 3571TIP3   OH210718   0.164   2.846   3.817
 3571TIP3    H110719   0.240   2.900   3.838
 3571TIP3    H210720   0.146   2.864   3.725
 3572TIP3   OH210721   1.839   2.450   0.024
 3572TIP3    H110722   1.881   2.409   0.100
 3572TIP3    H210723   1.823   2.540   0.052
 3573TIP3   OH210724   0.320   1.504   3.960
 3573TIP3    H110725   0.392   1.470   3.907
 3573TIP3    H210726   0.291   1.582   3.914
 3574TIP3   OH210727   3.775   0.965   1.054
 3574TIP3    H110728   3.853   0.929   1.012
 3574TIP3    H210729   3.808   1.019   1.126
 3575TIP3   OH210730   1.223   1.565   4.566
 3575TIP3    H110731   1.222   1.510   4.487
 3575TIP3    H210732   1.185   1.510   4.634
 3576TIP3   OH210733   3.322   5.181   4.616
 3576TIP3    H110734   3.262   5.120   4.659
 3576TIP3    H210735   3.269   5.259   4.600
 3577TIP3   OH210736   0.326   0.650   2.880
 3577TIP3    H110737   0.350   0.621   2.968
 3577TIP3    H210738   0.337   0.745   2.883
 3578TIP3   OH210739   0.364   1.835   2.968
 3578TIP3    H110740   0.307   1.853   2.893
 3578TIP3    H210741   0.442   1.888   2.952
 3579TIP3   OH210742   2.784   1.676   3.546
 3579TIP3    H110743   2.774   1.769   3.568
 3579TIP3    H210744   2.742   1.667   3.461
 3580TIP3   OH210745   3.405   4.638   4.691
 3580TIP3    H110746   3.364   4.552   4.696
 3580TIP3    H210747   3.335   4.700   4.714
 3581TIP3   OH210748   0.419   4.880   2.418
 3581TIP3    H110749   0.428   4.928   2.500
 3581TIP3    H210750   0.508   4.852   2.396
 3582TIP3   OH210751   5.121   4.801   1.629
 3582TIP3    H110752   5.208   4.835   1.652
 3582TIP3    H210753   5.139   4.721   1.581
 3583TIP3   OH210754   3.462   1.867   3.077
 3583TIP3    H110755   3.488   1.797   3.138
 3583TIP3    H210756   3.374   1.892   3.105
 3584TIP3   OH210757   2.515   4.504   2.571
 3584TIP3    H110758   2.557   4.453   2.640
 3584TIP3    H210759   2.574   4.578   2.557
 3585TIP3   OH210760   1.032   1.339   1.807
 3585TIP3    H110761   0.975   1.347   1.883
 3585TIP3    H210762   1.009   1.254   1.769
 3586TIP3   OH210763   5.204   1.814   2.148
 3586TIP3    H110764   5.286   1.822   2.100
 3586TIP3    H210765   5.177   1.723   2.133
 3587TIP3   OH210766   2.696   5.520   3.171
 3587TIP3    H110767   2.690   5.572   3.251
 3587TIP3    H210768   2.789   5.498   3.164
 3588TIP3   OH210769   2.091   2.713   0.442
 3588TIP3    H110770   2.145   2.700   0.364
 3588TIP3    H210771   2.142   2.674   0.514
 3589TIP3   OH210772   6.118   4.120   1.956
 3589TIP3    H110773   6.160   4.190   2.007
 3589TIP3    H210774   6.031   4.155   1.935
 3590TIP3   OH210775   0.112   1.830   0.203
 3590TIP3    H110776   0.136   1.918   0.172
 3590TIP3    H210777   0.146   1.827   0.292
 3591TIP3   OH210778   3.705   0.024   0.655
 3591TIP3    H110779   3.710   0.098   0.716
 3591TIP3    H210780   3.683   0.064   0.571
 3592TIP3   OH210781   2.736   4.491   3.583
 3592TIP3    H110782   2.765   4.581   3.593
 3592TIP3    H210783   2.812   4.445   3.547
 3593TIP3   OH210784   2.490   5.895   2.647
 3593TIP3    H110785   2.526   5.983   2.664
 3593TIP3    H210786   2.484   5.889   2.552
 3594TIP3   OH210787   2.612   4.581   3.212
 3594TIP3    H110788   2.638   4.665   3.251
 3594TIP3    H210789   2.524   4.565   3.247
 3595TIP3   OH210790   0.315   0.640   0.376
 3595TIP3    H110791   0.322   0.644   0.280
 3595TIP3    H210792   0.355   0.557   0.399
 3596TIP3   OH210793   5.548   3.385   3.404
 3596TIP3    H110794   5.454   3.385   3.423
 3596TIP3    H210795   5.553   3.399   3.310
 3597TIP3   OH210796   3.530   4.094   1.130
 3597TIP3    H110797   3.530   4.186   1.156
 3597TIP3    H210798   3.621   4.067   1.136
 3598TIP3   OH210799   3.243   1.812   1.426
 3598TIP3    H110800   3.205   1.834   1.340
 3598TIP3    H210801   3.222   1.720   1.439
 3599TIP3   OH210802   2.048   4.497   3.387
 3599TIP3    H110803   2.121   4.536   3.339
 3599TIP3    H210804   2.087   4.420   3.430
 3600TIP3   OH210805   5.934   1.941   2.890
 3600TIP3    H110806   6.022   1.925   2.858
 3600TIP3    H210807   5.934   2.031   2.921
 3601TIP3   OH210808   4.892   3.801   2.890
 3601TIP3    H110809   4.900   3.761   2.804
 3601TIP3    H210810   4.948   3.747   2.947
 3602TIP3   OH210811   5.279   2.489   4.283
 3602TIP3    H110812   5.237   2.564   4.241
 3602TIP3    H210813   5.367   2.519   4.304
 3603TIP3   OH210814   4.786   5.012   1.335
 3603TIP3    H110815   4.857   4.964   1.295
 3603TIP3    H210816   4.748   4.950   1.398
 3604TIP3   OH210817   3.691   5.968   2.639
 3604TIP3    H110818   3.639   5.895   2.604
 3604TIP3    H210819   3.774   5.928   2.665
 3605TIP3   OH210820   1.699   4.776   4.766
 3605TIP3    H110821   1.615   4.733   4.752
 3605TIP3    H210822   1.763   4.705   4.759
 3606TIP3   OH210823   0.785   5.872   4.135
 3606TIP3    H110824   0.733   5.947   4.165
 3606TIP3    H210825   0.778   5.807   4.205
 3607TIP3   OH210826   3.255   4.058   4.458
 3607TIP3    H110827   3.212   3.974   4.478
 3607TIP3    H210828   3.260   4.059   4.362
 3608TIP3   OH210829   1.505   3.794   4.365
 3608TIP3    H110830   1.419   3.807   4.326
 3608TIP3    H210831   1.494   3.819   4.457
 3609TIP3   OH210832   0.894   0.423   3.095
 3609TIP3    H110833   0.952   0.451   3.024
 3609TIP3    H210834   0.933   0.462   3.174
 3610TIP3   OH210835   2.968   1.299   2.518
 3610TIP3    H110836   3.004   1.384   2.493
 3610TIP3    H210837   2.942   1.259   2.435
 3611TIP3   OH210838   5.586   4.826   0.302
 3611TIP3    H110839   5.634   4.909   0.300
 3611TIP3    H210840   5.647   4.762   0.267
 3612TIP3   OH210841   5.783   1.801   3.628
 3612TIP3    H110842   5.712   1.779   3.689
 3612TIP3    H210843   5.738   1.818   3.545
 3613TIP3   OH210844   4.781   4.745   3.309
 3613TIP3    H110845   4.855   4.739   3.370
 3613TIP3    H210846   4.748   4.655   3.302
 3614TIP3   OH210847   3.619   4.073   0.162
 3614TIP3    H110848   3.601   4.002   0.100
 3614TIP3    H210849   3.666   4.138   0.111
 3615TIP3   OH210850   6.059   0.274   2.309
 3615TIP3    H110851   5.987   0.257   2.370
 3615TIP3    H210852   6.137   0.276   2.364
 3616TIP3   OH210853   1.891   5.115   4.977
 3616TIP3    H110854   1.864   5.089   4.889
 3616TIP3    H210855   1.852   5.201   4.990
 3617TIP3   OH210856   2.976   4.264   4.974
 3617TIP3    H110857   2.919   4.341   4.961
 3617TIP3    H210858   3.027   4.286   5.052
 3618TIP3   OH210859   0.910   4.100   3.232
 3618TIP3    H110860   0.830   4.139   3.196
 3618TIP3    H210861   0.883   4.014   3.263
 3619TIP3   OH210862   6.216   1.713   3.404
 3619TIP3    H110863   6.310   1.710   3.390
 3619TIP3    H210864   6.203   1.789   3.461
 3620TIP3   OH210865   4.861   0.352   0.280
 3620TIP3    H110866   4.954   0.339   0.296
 3620TIP3    H210867   4.819   0.333   0.364
 3621TIP3   OH210868   1.899   0.116   4.690
 3621TIP3    H110869   1.827   0.067   4.651
 3621TIP3    H210870   1.897   0.201   4.645
 3622TIP3   OH210871   2.921   3.343   4.972
 3622TIP3    H110872   2.933   3.373   4.881
 3622TIP3    H210873   2.921   3.248   4.966
 3623TIP3   OH210874   5.293   1.456   4.890
 3623TIP3    H110875   5.214   1.438   4.942
 3623TIP3    H210876   5.338   1.525   4.938
 3624TIP3   OH210877   4.622   1.886   1.585
 3624TIP3    H110878   4.653   1.887   1.675
 3624TIP3    H210879   4.626   1.794   1.559
 3625TIP3   OH210880   1.647   3.825   0.167
 3625TIP3    H110881   1.628   3.914   0.138
 3625TIP3    H210882   1.598   3.769   0.106
 3626TIP3   OH210883   6.164   2.877   4.433
 3626TIP3    H110884   6.220   2.910   4.363
 3626TIP3    H210885   6.173   2.942   4.503
 3627TIP3   OH210886   4.150   0.600   0.612
 3627TIP3    H110887   4.130   0.687   0.578
 3627TIP3    H210888   4.065   0.556   0.618
 3628TIP3   OH210889   1.638   0.731   2.918
 3628TIP3    H110890   1.622   0.816   2.959
 3628TIP3    H210891   1.715   0.746   2.862
 3629TIP3   OH210892   1.239   4.360   1.180
 3629TIP3    H110893   1.273   4.367   1.091
 3629TIP3    H210894   1.148   4.388   1.174
 3630TIP3   OH210895   3.256   4.983   0.120
 3630TIP3    H110896   3.273   4.981   0.214
 3630TIP3    H210897   3.202   4.906   0.103
 3631TIP3   OH210898   1.235   0.511   0.929
 3631TIP3    H110899   1.232   0.540   0.837
 3631TIP3    H210900   1.248   0.417   0.924
 3632TIP3   OH210901   1.986   5.687   0.178
 3632TIP3    H110902   2.003   5.623   0.109
 3632TIP3    H210903   1.902   5.727   0.154
 3633TIP3   OH210904   3.035   3.216   3.185
 3633TIP3    H110905   2.945   3.185   3.197
 3633TIP3    H210906   3.026   3.310   3.171
 3634TIP3   OH210907   4.791   5.324   0.167
 3634TIP3    H110908   4.879   5.290   0.153
 3634TIP3    H210909   4.797   5.376   0.247
 3635TIP3   OH210910   4.961   3.187   1.200
 3635TIP3    H110911   4.925   3.206   1.113
 3635TIP3    H210912   5.033   3.250   1.210
 3636TIP3   OH210913   1.231   4.650   3.725
 3636TIP3    H110914   1.215   4.743   3.709
 3636TIP3    H210915   1.229   4.610   3.638
 3637TIP3   OH210916   3.379   1.096   0.044
 3637TIP3    H110917   3.430   1.089   0.125
 3637TIP3    H210918   3.419   1.170  -0.003
 3638TIP3   OH210919   2.101   0.102   0.530
 3638TIP3    H110920   2.142   0.084   0.445
 3638TIP3    H210921   2.115   0.196   0.544
 3639TIP3   OH210922   6.073   3.652   3.024
 3639TIP3    H110923   6.079   3.739   3.063
 3639TIP3    H210924   6.108   3.593   3.090
 3640TIP3   OH210925   4.036   1.018   1.174
 3640TIP3    H110926   4.029   1.101   1.220
 3640TIP3    H210927   4.106   0.971   1.221
 3641TIP3   OH210928   1.527   1.630   0.428
 3641TIP3    H110929   1.546   1.699   0.365
 3641TIP3    H210930   1.612   1.587   0.443
 3642TIP3   OH210931   2.185   4.528   1.840
 3642TIP3    H110932   2.098   4.549   1.807
 3642TIP3    H210933   2.178   4.438   1.871
 3643TIP3   OH210934   4.125   0.676   3.380
 3643TIP3    H110935   4.218   0.690   3.398
 3643TIP3    H210936   4.123   0.632   3.295
 3644TIP3   OH210937   1.318   2.280   2.563
 3644TIP3    H110938   1.390   2.220   2.544
 3644TIP3    H210939   1.255   2.227   2.611
 3645TIP3   OH210940   3.531   4.711   3.891
 3645TIP3    H110941   3.512   4.623   3.859
 3645TIP3    H210942   3.566   4.698   3.979
 3646TIP3   OH210943   5.442   0.494   0.636
 3646TIP3    H110944   5.447   0.569   0.576
 3646TIP3    H210945   5.532   0.463   0.643
 3647TIP3   OH210946   1.818   3.471   0.343
 3647TIP3    H110947   1.806   3.381   0.374
 3647TIP3    H210948   1.729   3.507   0.338
 3648TIP3   OH210949   0.384   3.762   2.010
 3648TIP3    H110950   0.433   3.679   2.012
 3648TIP3    H210951   0.319   3.752   2.079
 3649TIP3   OH210952   1.290   0.762   3.403
 3649TIP3    H110953   1.382   0.742   3.388
 3649TIP3    H210954   1.248   0.746   3.318
 3650TIP3   OH210955   5.781   1.166   3.176
 3650TIP3    H110956   5.805   1.076   3.199
 3650TIP3    H210957   5.843   1.220   3.224
 3651TIP3   OH210958   1.735   1.195   4.312
 3651TIP3    H110959   1.743   1.106   4.279
 3651TIP3    H210960   1.727   1.186   4.407
 3652TIP3   OH210961   2.164   4.273   1.928
 3652TIP3    H110962   2.129   4.187   1.953
 3652TIP3    H210963   2.247   4.280   1.975
 3653TIP3   OH210964   0.939   0.259   5.011
 3653TIP3    H110965   0.999   0.236   5.082
 3653TIP3    H210966   0.985   0.233   4.931
 3654TIP3   OH210967   1.964   2.561   4.620
 3654TIP3    H110968   2.015   2.519   4.689
 3654TIP3    H210969   1.875   2.565   4.655
 3655TIP3   OH210970   3.299   3.768   3.414
 3655TIP3    H110971   3.284   3.788   3.322
 3655TIP3    H210972   3.253   3.686   3.429
 3656TIP3   OH210973   1.459   5.340   2.062
 3656TIP3    H110974   1.377   5.305   2.027
 3656TIP3    H210975   1.527   5.299   2.008
 3657TIP3   OH210976   1.072   0.241   4.764
 3657TIP3    H110977   1.146   0.194   4.803
 3657TIP3    H210978   1.108   0.326   4.738
 3658TIP3   OH210979   0.662   2.773   4.940
 3658TIP3    H110980   0.645   2.852   4.991
 3658TIP3    H210981   0.743   2.737   4.977
 3659TIP3   OH210982   2.659   4.442   4.035
 3659TIP3    H110983   2.569   4.432   4.005
 3659TIP3    H210984   2.703   4.362   4.006
 3660TIP3   OH210985   2.652   2.856   2.061
 3660TIP3    H110986   2.730   2.908   2.041
 3660TIP3    H210987   2.657   2.841   2.156
 3661TIP3   OH210988   4.356   2.296   3.662
 3661TIP3    H110989   4.438   2.272   3.617
 3661TIP3    H210990   4.378   2.376   3.710
 3662TIP3   OH210991   1.587   2.938   3.128
 3662TIP3    H110992   1.666   2.885   3.139
 3662TIP3    H210993   1.620   3.027   3.113
 3663TIP3   OH210994   3.882   4.457   0.967
 3663TIP3    H110995   3.891   4.365   0.994
 3663TIP3    H210996   3.949   4.503   1.018
 3664TIP3   OH210997   4.155   3.518   1.187
 3664TIP3    H110998   4.061   3.514   1.167
 3664TIP3    H210999   4.192   3.567   1.114
 3665TIP3   OH211000   3.807   2.373   3.856
 3665TIP3    H111001   3.861   2.296   3.872
 3665TIP3    H211002   3.793   2.373   3.761
 3666TIP3   OH211003   0.460   1.002   0.728
 3666TIP3    H111004   0.424   0.926   0.682
 3666TIP3    H211005   0.547   0.974   0.756
 3667TIP3   OH211006   0.941   3.565   3.795
 3667TIP3    H111007   1.018   3.528   3.751
 3667TIP3    H211008   0.917   3.500   3.861
 3668TIP3   OH211009   4.227   0.217   4.022
 3668TIP3    H111010   4.135   0.194   4.037
 3668TIP3    H211011   4.230   0.249   3.932
 3669TIP3   OH211012   5.959   3.819   2.736
 3669TIP3    H111013   6.047   3.814   2.774
 3669TIP3    H211014   5.925   3.730   2.741
 3670TIP3   OH211015   4.148   4.964   0.319
 3670TIP3    H111016   4.192   4.970   0.404
 3670TIP3    H211017   4.061   5.001   0.335
 3671TIP3   OH211018   3.399   1.397   4.834
 3671TIP3    H111019   3.393   1.440   4.749
 3671TIP3    H211020   3.415   1.468   4.896
 3672TIP3   OH211021   3.046   4.706   4.178
 3672TIP3    H111022   3.088   4.622   4.158
 3672TIP3    H211023   3.119   4.768   4.182
 3673TIP3   OH211024   0.505   4.003   3.832
 3673TIP3    H111025   0.587   4.012   3.880
 3673TIP3    H211026   0.494   3.909   3.821
 3674TIP3   OH211027   4.515   1.797   0.497
 3674TIP3    H111028   4.535   1.857   0.425
 3674TIP3    H211029   4.577   1.822   0.566
 3675TIP3   OH211030   0.061   2.280   3.696
 3675TIP3    H111031  -0.021   2.313   3.662
 3675TIP3    H211032   0.037   2.229   3.773
 3676TIP3   OH211033   6.240   5.895   3.053
 3676TIP3    H111034   6.171   5.908   2.988
 3676TIP3    H211035   6.234   5.802   3.075
 3677TIP3   OH211036   4.874   1.531   4.616
 3677TIP3    H111037   4.831   1.607   4.655
 3677TIP3    H211038   4.834   1.455   4.660
 3678TIP3   OH211039   1.773   4.426   4.994
 3678TIP3    H111040   1.737   4.372   4.924
 3678TIP3    H211041   1.745   4.382   5.075
 3679TIP3   OH211042   0.838   3.919   1.360
 3679TIP3    H111043   0.778   3.867   1.307
 3679TIP3    H211044   0.834   3.878   1.447
 3680TIP3   OH211045   2.596   5.649   3.739
 3680TIP3    H111046   2.586   5.589   3.665
 3680TIP3    H211047   2.599   5.592   3.816
 3681TIP3   OH211048   6.035   5.052   2.686
 3681TIP3    H111049   6.026   4.971   2.636
 3681TIP3    H211050   6.062   5.025   2.773
 3682TIP3   OH211051   3.325   2.736   2.161
 3682TIP3    H111052   3.378   2.783   2.096
 3682TIP3    H211053   3.339   2.643   2.141
 3683TIP3   OH211054   2.906   0.966   4.384
 3683TIP3    H111055   2.864   0.910   4.318
 3683TIP3    H211056   2.910   1.052   4.343
 3684TIP3   OH211057   5.177   2.373   3.537
 3684TIP3    H111058   5.116   2.317   3.489
 3684TIP3    H211059   5.255   2.378   3.481
 3685TIP3   OH211060   5.098   2.462   0.117
 3685TIP3    H111061   5.097   2.467   0.021
 3685TIP3    H211062   5.107   2.553   0.146
 3686TIP3   OH211063   4.238   1.836   0.260
 3686TIP3    H111064   4.164   1.844   0.200
 3686TIP3    H211065   4.315   1.841   0.205
 3687TIP3   OH211066   2.469   5.640   2.266
 3687TIP3    H111067   2.459   5.716   2.210
 3687TIP3    H211068   2.562   5.618   2.261
 3688TIP3   OH211069   2.352   5.134   0.347
 3688TIP3    H111070   2.350   5.049   0.389
 3688TIP3    H211071   2.380   5.116   0.257
 3689TIP3   OH211072   2.506   2.289   0.771
 3689TIP3    H111073   2.431   2.231   0.779
 3689TIP3    H211074   2.581   2.236   0.798
 3690TIP3   OH211075   4.097   1.431   5.030
 3690TIP3    H111076   4.043   1.358   5.058
 3690TIP3    H211077   4.183   1.413   5.066
 3691TIP3   OH211078   4.397   1.139   0.668
 3691TIP3    H111079   4.398   1.218   0.723
 3691TIP3    H211080   4.486   1.131   0.635
 3692TIP3   OH211081   0.678   0.542   3.432
 3692TIP3    H111082   0.631   0.467   3.394
 3692TIP3    H211083   0.640   0.618   3.388
 3693TIP3   OH211084   4.217   5.474   3.614
 3693TIP3    H111085   4.176   5.553   3.649
 3693TIP3    H211086   4.259   5.503   3.534
 3694TIP3   OH211087   6.020   3.754   3.953
 3694TIP3    H111088   6.013   3.659   3.943
 3694TIP3    H211089   6.027   3.768   4.047
 3695TIP3   OH211090   1.690   2.973   4.998
 3695TIP3    H111091   1.697   2.987   4.904
 3695TIP3    H211092   1.759   2.910   5.019
 3696TIP3   OH211093   4.011   1.592   2.442
 3696TIP3    H111094   4.078   1.528   2.420
 3696TIP3    H211095   4.059   1.665   2.482
 3697TIP3   OH211096   1.423   3.524   4.054
 3697TIP3    H111097   1.432   3.436   4.092
 3697TIP3    H211098   1.499   3.532   3.996
 3698TIP3   OH211099   1.355   5.999   2.773
 3698TIP3    H111100   1.429   6.029   2.826
 3698TIP3    H211101   1.382   5.913   2.741
 3699TIP3   OH211102   1.907   5.025   0.817
 3699TIP3    H111103   1.914   5.049   0.724
 3699TIP3    H211104   1.983   4.969   0.833
 3700TIP3   OH211105   1.333   1.612   0.627
 3700TIP3    H111106   1.397   1.627   0.558
 3700TIP3    H211107   1.306   1.521   0.616
 3701TIP3   OH211108   2.156   3.245   4.697
 3701TIP3    H111109   2.131   3.158   4.728
 3701TIP3    H211110   2.077   3.280   4.656
 3702TIP3   OH211111   2.768   3.077   3.871
 3702TIP3    H111112   2.698   3.012   3.864
 3702TIP3    H211113   2.818   3.051   3.948
 3703TIP3   OH211114   3.576   5.306   1.018
 3703TIP3    H111115   3.635   5.296   1.093
 3703TIP3    H211116   3.571   5.219   0.979
 3704TIP3   OH211117   1.376   0.120   4.445
 3704TIP3    H111118   1.321   0.140   4.370
 3704TIP3    H211119   1.381   0.202   4.494
 3705TIP3   OH211120   1.030   3.647   2.534
 3705TIP3    H111121   0.974   3.584   2.489
 3705TIP3    H211122   1.055   3.603   2.616
 3706TIP3   OH211123   4.310   5.138   1.485
 3706TIP3    H111124   4.293   5.053   1.444
 3706TIP3    H211125   4.242   5.195   1.450
 3707TIP3   OH211126   2.079   1.549   3.117
 3707TIP3    H111127   2.169   1.519   3.102
 3707TIP3    H211128   2.075   1.568   3.211
 3708TIP3   OH211129   5.261   5.824   1.973
 3708TIP3    H111130   5.259   5.740   2.019
 3708TIP3    H211131   5.345   5.863   1.996
 3709TIP3   OH211132   6.086   5.054   1.310
 3709TIP3    H111133   6.041   5.092   1.234
 3709TIP3    H211134   6.021   5.057   1.380
 3710TIP3   OH211135   4.936   3.305   5.032
 3710TIP3    H111136   4.861   3.263   5.073
 3710TIP3    H211137   4.899   3.374   4.977
 3711TIP3   OH211138   6.345   5.798   4.000
 3711TIP3    H111139   6.262   5.843   3.984
 3711TIP3    H211140   6.351   5.791   4.095
 3712TIP3   OH211141   5.664   2.774   4.955
 3712TIP3    H111142   5.617   2.733   4.882
 3712TIP3    H211143   5.756   2.753   4.940
 3713TIP3   OH211144   5.526   2.771   2.102
 3713TIP3    H111145   5.591   2.829   2.065
 3713TIP3    H211146   5.568   2.736   2.181
 3714TIP3   OH211147   4.992   4.184   0.432
 3714TIP3    H111148   4.920   4.239   0.401
 3714TIP3    H211149   4.990   4.193   0.527
 3715TIP3   OH211150   0.376   5.774   4.011
 3715TIP3    H111151   0.294   5.726   4.006
 3715TIP3    H211152   0.354   5.863   3.983
 3716TIP3   OH211153   5.795   0.383   3.775
 3716TIP3    H111154   5.718   0.333   3.749
 3716TIP3    H211155   5.787   0.467   3.729
 3717TIP3   OH211156   4.751   3.118   4.175
 3717TIP3    H111157   4.825   3.172   4.150
 3717TIP3    H211158   4.727   3.071   4.095
 3718TIP3   OH211159   4.765   2.357   3.911
 3718TIP3    H111160   4.776   2.365   4.006
 3718TIP3    H211161   4.744   2.445   3.881
 3719TIP3   OH211162   5.366   5.049   0.367
 3719TIP3    H111163   5.340   4.960   0.342
 3719TIP3    H211164   5.427   5.038   0.440
 3720TIP3   OH211165   0.055   0.391   3.831
 3720TIP3    H111166   0.106   0.470   3.848
 3720TIP3    H211167   0.073   0.334   3.906
 3721TIP3   OH211168   5.375   5.292   0.717
 3721TIP3    H111169   5.391   5.386   0.722
 3721TIP3    H211170   5.369   5.264   0.809
 3722TIP3   OH211171   2.847   4.776   2.315
 3722TIP3    H111172   2.838   4.743   2.404
 3722TIP3    H211173   2.817   4.704   2.259
 3723TIP3   OH211174   0.076   2.119   4.524
 3723TIP3    H111175   0.076   2.179   4.449
 3723TIP3    H211176   0.166   2.087   4.529
 3724TIP3   OH211177   4.792   5.944   2.788
 3724TIP3    H111178   4.886   5.928   2.776
 3724TIP3    H211179   4.785   5.991   2.871
 3725TIP3   OH211180   3.076   5.503   3.787
 3725TIP3    H111181   3.085   5.419   3.741
 3725TIP3    H211182   3.094   5.569   3.720
 3726TIP3   OH211183   4.129   3.582   3.850
 3726TIP3    H111184   4.097   3.535   3.773
 3726TIP3    H211185   4.059   3.570   3.915
 3727TIP3   OH211186   2.788   3.756   0.020
 3727TIP3    H111187   2.768   3.805   0.099
 3727TIP3    H211188   2.729   3.681   0.022
 3728TIP3   OH211189   5.687   4.929   4.372
 3728TIP3    H111190   5.651   4.844   4.399
 3728TIP3    H211191   5.782   4.916   4.375
 3729TIP3   OH211192   1.218   0.460   3.354
 3729TIP3    H111193   1.127   0.463   3.325
 3729TIP3    H211194   1.269   0.458   3.272
 3730TIP3   OH211195   1.606   5.204   4.003
 3730TIP3    H111196   1.580   5.278   3.948
 3730TIP3    H211197   1.546   5.206   4.077
 3731TIP3   OH211198   3.700   2.099   3.876
 3731TIP3    H111199   3.664   2.132   3.794
 3731TIP3    H211200   3.768   2.037   3.849
 3732TIP3   OH211201   0.608   2.135   1.851
 3732TIP3    H111202   0.691   2.098   1.822
 3732TIP3    H211203   0.631   2.193   1.924
 3733TIP3   OH211204   5.915   5.895   4.612
 3733TIP3    H111205   5.948   5.826   4.669
 3733TIP3    H211206   5.895   5.851   4.529
 3734TIP3   OH211207   6.256   5.080   3.851
 3734TIP3    H111208   6.227   5.164   3.816
 3734TIP3    H211209   6.342   5.067   3.813
 3735TIP3   OH211210   5.169   0.648   1.056
 3735TIP3    H111211   5.117   0.597   1.118
 3735TIP3    H211212   5.182   0.589   0.981
 3736TIP3   OH211213   4.683   0.928   2.883
 3736TIP3    H111214   4.647   0.978   2.956
 3736TIP3    H211215   4.768   0.898   2.914
 3737TIP3   OH211216   3.162   4.253   0.531
 3737TIP3    H111217   3.118   4.338   0.541
 3737TIP3    H211218   3.094   4.194   0.499
 3738TIP3   OH211219   4.980   3.673   4.321
 3738TIP3    H111220   4.994   3.618   4.398
 3738TIP3    H211221   4.898   3.719   4.339
 3739TIP3   OH211222   2.602   0.591   1.158
 3739TIP3    H111223   2.563   0.675   1.182
 3739TIP3    H211224   2.642   0.605   1.073
 3740TIP3   OH211225   1.598   3.638   3.859
 3740TIP3    H111226   1.647   3.698   3.915
 3740TIP3    H211227   1.663   3.572   3.832
 3741TIP3   OH211228   2.729   4.168   0.984
 3741TIP3    H111229   2.773   4.086   1.004
 3741TIP3    H211230   2.747   4.224   1.060
 3742TIP3   OH211231   4.007   0.488   4.055
 3742TIP3    H111232   4.083   0.487   3.996
 3742TIP3    H211233   3.949   0.421   4.019
 3743TIP3   OH211234   2.852   5.543   4.439
 3743TIP3    H111235   2.917   5.580   4.380
 3743TIP3    H211236   2.768   5.556   4.393
 3744TIP3   OH211237   2.209   5.721   2.165
 3744TIP3    H111238   2.251   5.742   2.249
 3744TIP3    H211239   2.117   5.707   2.187
 3745TIP3   OH211240   2.295   0.930   3.198
 3745TIP3    H111241   2.209   0.971   3.194
 3745TIP3    H211242   2.315   0.907   3.108
 3746TIP3   OH211243   2.474   3.322   1.029
 3746TIP3    H111244   2.378   3.325   1.022
 3746TIP3    H211245   2.501   3.258   0.963
 3747TIP3   OH211246   5.978   3.896   3.142
 3747TIP3    H111247   5.944   3.903   3.231
 3747TIP3    H211248   5.968   3.984   3.105
 3748TIP3   OH211249   1.533   4.097   0.346
 3748TIP3    H111250   1.502   4.183   0.376
 3748TIP3    H211251   1.610   4.080   0.398
 3749TIP3   OH211252   0.338   4.858   3.398
 3749TIP3    H111253   0.270   4.892   3.340
 3749TIP3    H211254   0.419   4.862   3.346
 3750TIP3   OH211255   1.407   0.375   1.093
 3750TIP3    H111256   1.440   0.398   1.006
 3750TIP3    H211257   1.329   0.323   1.077
 3751TIP3   OH211258   5.433   3.263   0.826
 3751TIP3    H111259   5.395   3.181   0.794
 3751TIP3    H211260   5.502   3.235   0.886
 3752TIP3   OH211261   5.702   2.006   2.645
 3752TIP3    H111262   5.776   2.049   2.602
 3752TIP3    H211263   5.672   2.070   2.709
 3753TIP3   OH211264   4.091   3.642   4.696
 3753TIP3    H111265   4.149   3.700   4.746
 3753TIP3    H211266   4.003   3.676   4.714
 3754TIP3   OH211267   3.082   0.284   2.848
 3754TIP3    H111268   3.074   0.191   2.829
 3754TIP3    H211269   3.174   0.304   2.834
 3755TIP3   OH211270   5.540   5.260   0.294
 3755TIP3    H111271   5.632   5.233   0.297
 3755TIP3    H211272   5.505   5.233   0.380
 3756TIP3   OH211273   1.151   5.966   0.572
 3756TIP3    H111274   1.172   6.008   0.656
 3756TIP3    H211275   1.070   5.918   0.589
 3757TIP3   OH211276   2.288   1.805   4.481
 3757TIP3    H111277   2.300   1.888   4.527
 3757TIP3    H211278   2.375   1.784   4.446
 3758TIP3   OH211279   3.596   5.308   2.563
 3758TIP3    H111280   3.550   5.259   2.495
 3758TIP3    H211281   3.629   5.242   2.624
 3759TIP3   OH211282   3.827   2.868   3.300
 3759TIP3    H111283   3.888   2.898   3.368
 3759TIP3    H211284   3.742   2.867   3.342
 3760TIP3   OH211285   3.358   1.925   2.447
 3760TIP3    H111286   3.401   1.933   2.362
 3760TIP3    H211287   3.269   1.957   2.431
 3761TIP3   OH211288   6.370   5.026   1.298
 3761TIP3    H111289   6.276   5.038   1.283
 3761TIP3    H211290   6.411   5.070   1.224
 3762TIP3   OH211291   0.638   4.570   4.648
 3762TIP3    H111292   0.586   4.623   4.588
 3762TIP3    H211293   0.574   4.513   4.691
 3763TIP3   OH211294   5.265   0.318   2.177
 3763TIP3    H111295   5.232   0.381   2.112
 3763TIP3    H211296   5.333   0.366   2.224
 3764TIP3   OH211297   0.153   1.568   3.719
 3764TIP3    H111298   0.072   1.614   3.738
 3764TIP3    H211299   0.142   1.482   3.760
 3765TIP3   OH211300   6.271   5.137   0.287
 3765TIP3    H111301   6.329   5.200   0.244
 3765TIP3    H211302   6.218   5.102   0.216
 3766TIP3   OH211303   4.386   0.163   2.064
 3766TIP3    H111304   4.391   0.216   1.985
 3766TIP3    H211305   4.344   0.082   2.036
 3767TIP3   OH211306   2.759   5.546   1.191
 3767TIP3    H111307   2.823   5.601   1.236
 3767TIP3    H211308   2.781   5.554   1.098
 3768TIP3   OH211309   1.743   3.908   1.664
 3768TIP3    H111310   1.707   3.907   1.575
 3768TIP3    H211311   1.729   3.819   1.696
 3769TIP3   OH211312   4.611   2.019   1.337
 3769TIP3    H111313   4.591   1.977   1.421
 3769TIP3    H211314   4.625   1.945   1.277
 3770TIP3   OH211315   0.881   5.299   3.614
 3770TIP3    H111316   0.846   5.225   3.564
 3770TIP3    H211317   0.832   5.297   3.697
 3771TIP3   OH211318   3.850   5.730   0.358
 3771TIP3    H111319   3.900   5.812   0.367
 3771TIP3    H211320   3.819   5.712   0.447
 3772TIP3   OH211321   1.660   1.290   1.785
 3772TIP3    H111322   1.702   1.312   1.702
 3772TIP3    H211323   1.690   1.359   1.845
 3773TIP3   OH211324   3.110   3.300   3.956
 3773TIP3    H111325   3.141   3.213   3.930
 3773TIP3    H211326   3.032   3.283   4.009
 3774TIP3   OH211327   2.315   4.796   5.087
 3774TIP3    H111328   2.347   4.718   5.133
 3774TIP3    H211329   2.327   4.867   5.149
 3775TIP3   OH211330   1.432   0.929   0.854
 3775TIP3    H111331   1.458   0.859   0.794
 3775TIP3    H211332   1.508   0.988   0.856
 3776TIP3   OH211333   5.404   5.774   4.214
 3776TIP3    H111334   5.473   5.745   4.274
 3776TIP3    H211335   5.393   5.701   4.153
 3777TIP3   OH211336   4.702   0.502   1.757
 3777TIP3    H111337   4.686   0.472   1.668
 3777TIP3    H211338   4.625   0.555   1.779
 3778TIP3   OH211339   0.880   3.082   3.270
 3778TIP3    H111340   0.821   3.070   3.196
 3778TIP3    H211341   0.933   3.158   3.248
 3779TIP3   OH211342   4.797   0.376   2.291
 3779TIP3    H111343   4.807   0.471   2.298
 3779TIP3    H211344   4.827   0.342   2.375
 3780TIP3   OH211345   3.166   5.195   2.586
 3780TIP3    H111346   3.106   5.267   2.569
 3780TIP3    H211347   3.112   5.128   2.628
 3781TIP3   OH211348   2.165   0.694   0.808
 3781TIP3    H111349   2.094   0.630   0.804
 3781TIP3    H211350   2.193   0.704   0.717
 3782TIP3   OH211351   3.971   0.700   1.161
 3782TIP3    H111352   3.972   0.632   1.094
 3782TIP3    H211353   3.987   0.781   1.113
 3783TIP3   OH211354   1.187   4.689   0.966
 3783TIP3    H111355   1.244   4.615   0.946
 3783TIP3    H211356   1.247   4.764   0.970
 3784TIP3   OH211357   5.631   5.521   3.391
 3784TIP3    H111358   5.633   5.529   3.295
 3784TIP3    H211359   5.628   5.612   3.422
 3785TIP3   OH211360   6.246   4.695   0.459
 3785TIP3    H111361   6.161   4.735   0.478
 3785TIP3    H211362   6.295   4.701   0.542
 3786TIP3   OH211363   2.984   0.289   3.177
 3786TIP3    H111364   3.034   0.371   3.187
 3786TIP3    H211365   2.900   0.307   3.220
 3787TIP3   OH211366   0.885   1.536   4.438
 3787TIP3    H111367   0.960   1.495   4.395
 3787TIP3    H211368   0.845   1.589   4.369
 3788TIP3   OH211369   0.426   0.281   1.747
 3788TIP3    H111370   0.449   0.230   1.669
 3788TIP3    H211371   0.338   0.253   1.769
 3789TIP3   OH211372   1.915   2.841   5.020
 3789TIP3    H111373   1.916   2.763   5.076
 3789TIP3    H211374   2.001   2.840   4.978
 3790TIP3   OH211375   3.966   0.875   0.867
 3790TIP3    H111376   3.931   0.895   0.780
 3790TIP3    H211377   4.060   0.891   0.859
 3791TIP3   OH211378   2.529   1.658   3.266
 3791TIP3    H111379   2.457   1.602   3.236
 3791TIP3    H211380   2.486   1.735   3.304
 3792TIP3   OH211381   1.193   4.544   2.464
 3792TIP3    H111382   1.172   4.586   2.547
 3792TIP3    H211383   1.118   4.488   2.446
 3793TIP3   OH211384   5.409   5.531   2.339
 3793TIP3    H111385   5.447   5.505   2.255
 3793TIP3    H211386   5.340   5.593   2.316
 3794TIP3   OH211387   1.696   5.809   0.470
 3794TIP3    H111388   1.651   5.870   0.528
 3794TIP3    H211389   1.644   5.809   0.390
 3795TIP3   OH211390   1.430   1.806   4.772
 3795TIP3    H111391   1.462   1.764   4.692
 3795TIP3    H211392   1.408   1.732   4.830
 3796TIP3   OH211393   6.335   0.244   1.430
 3796TIP3    H111394   6.257   0.200   1.396
 3796TIP3    H211395   6.380   0.278   1.353
 3797TIP3   OH211396   0.605   5.062   3.837
 3797TIP3    H111397   0.628   5.009   3.761
 3797TIP3    H211398   0.521   5.101   3.814
 3798TIP3   OH211399   2.812   5.835   2.027
 3798TIP3    H111400   2.901   5.869   2.022
 3798TIP3    H211401   2.808   5.769   1.957
 3799TIP3   OH211402   5.859   5.141   3.817
 3799TIP3    H111403   5.841   5.125   3.724
 3799TIP3    H211404   5.774   5.166   3.853
 3800TIP3   OH211405   5.873   0.431   1.141
 3800TIP3    H111406   5.820   0.511   1.153
 3800TIP3    H211407   5.809   0.360   1.146
 3801TIP3   OH211408   2.104   2.677   4.429
 3801TIP3    H111409   2.176   2.736   4.451
 3801TIP3    H211410   2.046   2.681   4.505
 3802TIP3   OH211411   5.920   3.880   0.886
 3802TIP3    H111412   5.946   3.793   0.854
 3802TIP3    H211413   6.002   3.929   0.890
 3803TIP3   OH211414   1.542   0.858   2.071
 3803TIP3    H111415   1.536   0.905   1.987
 3803TIP3    H211416   1.635   0.858   2.092
 3804TIP3   OH211417   1.046   4.840   4.594
 3804TIP3    H111418   1.095   4.840   4.512
 3804TIP3    H211419   1.000   4.756   4.594
 3805TIP3   OH211420   1.873   5.811   3.313
 3805TIP3    H111421   1.853   5.898   3.348
 3805TIP3    H211422   1.944   5.778   3.368
 3806TIP3   OH211423   2.500   2.366   1.577
 3806TIP3    H111424   2.431   2.358   1.642
 3806TIP3    H211425   2.467   2.316   1.501
 3807TIP3   OH211426   4.279   5.305   0.838
 3807TIP3    H111427   4.209   5.358   0.875
 3807TIP3    H211428   4.262   5.305   0.743
 3808TIP3   OH211429   4.493   5.857   3.160
 3808TIP3    H111430   4.511   5.810   3.241
 3808TIP3    H211431   4.477   5.947   3.188
 3809TIP3   OH211432   2.018   1.795   4.609
 3809TIP3    H111433   2.026   1.704   4.635
 3809TIP3    H211434   2.053   1.798   4.520
 3810TIP3   OH211435   4.184   1.028   1.602
 3810TIP3    H111436   4.098   1.068   1.613
 3810TIP3    H211437   4.220   1.069   1.523
 3811TIP3   OH211438   4.543   5.470   2.677
 3811TIP3    H111439   4.583   5.383   2.683
 3811TIP3    H211440   4.610   5.529   2.713
 3812TIP3   OH211441   4.276   5.346   2.418
 3812TIP3    H111442   4.209   5.412   2.439
 3812TIP3    H211443   4.358   5.395   2.417
 3813TIP3   OH211444   4.224   4.642   4.379
 3813TIP3    H111445   4.177   4.561   4.396
 3813TIP3    H211446   4.315   4.615   4.368
 3814TIP3   OH211447   5.552   1.907   2.408
 3814TIP3    H111448   5.458   1.890   2.420
 3814TIP3    H211449   5.580   1.942   2.492
 3815TIP3   OH211450   1.875   2.469   1.871
 3815TIP3    H111451   1.933   2.489   1.944
 3815TIP3    H211452   1.823   2.395   1.901
 3816TIP3   OH211453   0.292   2.465   4.779
 3816TIP3    H111454   0.331   2.378   4.766
 3816TIP3    H211455   0.364   2.526   4.763
 3817TIP3   OH211456   2.125   4.456   2.403
 3817TIP3    H111457   2.090   4.453   2.492
 3817TIP3    H211458   2.058   4.411   2.349
 3818TIP3   OH211459   4.763   3.746   2.100
 3818TIP3    H111460   4.727   3.658   2.095
 3818TIP3    H211461   4.857   3.735   2.083
 3819TIP3   OH211462   4.086   3.684   2.385
 3819TIP3    H111463   4.018   3.704   2.321
 3819TIP3    H211464   4.149   3.756   2.377
 3820TIP3   OH211465   0.921   2.207   3.724
 3820TIP3    H111466   0.910   2.140   3.792
 3820TIP3    H211467   0.881   2.168   3.646
 3821TIP3   OH211468   5.271   3.469   0.920
 3821TIP3    H111469   5.302   3.386   0.882
 3821TIP3    H211470   5.275   3.455   1.014
 3822TIP3   OH211471   4.622   4.145   1.750
 3822TIP3    H111472   4.703   4.112   1.711
 3822TIP3    H211473   4.597   4.218   1.693
 3823TIP3   OH211474   4.607   2.877   0.019
 3823TIP3    H111475   4.535   2.858   0.078
 3823TIP3    H211476   4.565   2.912  -0.060
 3824TIP3   OH211477   1.986   4.436   2.633
 3824TIP3    H111478   1.911   4.471   2.585
 3824TIP3    H211479   1.949   4.365   2.687
 3825TIP3   OH211480   4.598   1.063   4.382
 3825TIP3    H111481   4.693   1.064   4.374
 3825TIP3    H211482   4.582   1.042   4.474
 3826TIP3   OH211483   0.248   4.448   1.775
 3826TIP3    H111484   0.272   4.482   1.862
 3826TIP3    H211485   0.232   4.355   1.789
 3827TIP3   OH211486   2.795   4.535   2.146
 3827TIP3    H111487   2.728   4.475   2.180
 3827TIP3    H211488   2.877   4.486   2.156
 3828TIP3   OH211489   5.189   3.738   4.162
 3828TIP3    H111490   5.114   3.699   4.207
 3828TIP3    H211491   5.241   3.778   4.231
 3829TIP3   OH211492   5.418   0.120   0.321
 3829TIP3    H111493   5.469   0.174   0.261
 3829TIP3    H211494   5.336   0.168   0.333
 3830TIP3   OH211495   0.719   4.460   0.820
 3830TIP3    H111496   0.681   4.504   0.744
 3830TIP3    H211497   0.786   4.520   0.851
 3831TIP3   OH211498   4.360   0.174   1.247
 3831TIP3    H111499   4.303   0.245   1.219
 3831TIP3    H211500   4.444   0.217   1.267
 3832TIP3   OH211501   5.377   3.903   4.308
 3832TIP3    H111502   5.463   3.941   4.322
 3832TIP3    H211503   5.332   3.912   4.392
 3833TIP3   OH211504   0.449   3.348   0.295
 3833TIP3    H111505   0.398   3.401   0.357
 3833TIP3    H211506   0.446   3.260   0.331
 3834TIP3   OH211507   1.112   5.393   3.410
 3834TIP3    H111508   1.200   5.364   3.436
 3834TIP3    H211509   1.081   5.325   3.351
 3835TIP3   OH211510   0.817   5.185   3.954
 3835TIP3    H111511   0.764   5.259   3.984
 3835TIP3    H211512   0.754   5.125   3.913
 3836TIP3   OH211513   6.041   5.587   4.532
 3836TIP3    H111514   6.023   5.499   4.501
 3836TIP3    H211515   6.000   5.592   4.618
 3837TIP3   OH211516   0.302   3.938   4.067
 3837TIP3    H111517   0.354   3.939   4.147
 3837TIP3    H211518   0.362   3.970   3.999
 3838TIP3   OH211519   3.348   4.370   2.225
 3838TIP3    H111520   3.432   4.330   2.199
 3838TIP3    H211521   3.285   4.335   2.162
 3839TIP3   OH211522   3.228   2.919   3.359
 3839TIP3    H111523   3.299   2.970   3.398
 3839TIP3    H211524   3.149   2.970   3.377
 3840TIP3   OH211525   4.921   5.276   5.084
 3840TIP3    H111526   4.950   5.337   5.017
 3840TIP3    H211527   4.840   5.238   5.050
 3841TIP3   OH211528   0.840   3.902   2.923
 3841TIP3    H111529   0.848   3.843   2.998
 3841TIP3    H211530   0.921   3.891   2.874
 3842TIP3   OH211531   5.761   3.377   0.954
 3842TIP3    H111532   5.827   3.433   0.996
 3842TIP3    H211533   5.759   3.408   0.863
 3843TIP3   OH211534   3.052   3.725   2.040
 3843TIP3    H111535   2.964   3.706   2.074
 3843TIP3    H211536   3.091   3.781   2.107
 3844TIP3   OH211537   1.234   2.566   2.706
 3844TIP3    H111538   1.263   2.653   2.734
 3844TIP3    H211539   1.273   2.554   2.619
 3845TIP3   OH211540   0.896   1.964   2.855
 3845TIP3    H111541   0.875   2.047   2.898
 3845TIP3    H211542   0.833   1.957   2.783
 3846TIP3   OH211543   4.795   3.583   1.084
 3846TIP3    H111544   4.881   3.605   1.120
 3846TIP3    H211545   4.760   3.667   1.053
 3847TIP3   OH211546   4.059   3.487   3.594
 3847TIP3    H111547   4.078   3.458   3.505
 3847TIP3    H211548   3.972   3.528   3.588
 3848TIP3   OH211549   4.606   4.422   3.010
 3848TIP3    H111550   4.655   4.486   2.958
 3848TIP3    H211551   4.615   4.340   2.961
 3849TIP3   OH211552   1.825   2.240   2.829
 3849TIP3    H111553   1.787   2.203   2.750
 3849TIP3    H211554   1.783   2.193   2.901
 3850TIP3   OH211555   2.941   0.555   0.468
 3850TIP3    H111556   2.989   0.630   0.430
 3850TIP3    H211557   3.007   0.509   0.520
 3851TIP3   OH211558   1.294   5.481   1.600
 3851TIP3    H111559   1.345   5.458   1.522
 3851TIP3    H211560   1.269   5.573   1.585
 3852TIP3   OH211561   3.532   0.334   2.524
 3852TIP3    H111562   3.473   0.354   2.451
 3852TIP3    H211563   3.616   0.373   2.499
 3853TIP3   OH211564   3.304   4.937   1.532
 3853TIP3    H111565   3.397   4.951   1.549
 3853TIP3    H211566   3.301   4.897   1.445
 3854TIP3   OH211567   3.403   0.440   3.109
 3854TIP3    H111568   3.456   0.455   3.031
 3854TIP3    H211569   3.386   0.346   3.109
 3855TIP3   OH211570   2.757   4.798   0.515
 3855TIP3    H111571   2.842   4.761   0.490
 3855TIP3    H211572   2.730   4.746   0.591
 3856TIP3   OH211573   4.279   4.677   4.923
 3856TIP3    H111574   4.242   4.589   4.930
 3856TIP3    H211575   4.226   4.730   4.982
 3857TIP3   OH211576   5.251   3.168   2.171
 3857TIP3    H111577   5.305   3.107   2.121
 3857TIP3    H211578   5.256   3.137   2.261
 3858TIP3   OH211579   1.415   5.726   0.064
 3858TIP3    H111580   1.332   5.750   0.023
 3858TIP3    H211581   1.416   5.631   0.062
 3859TIP3   OH211582   1.862   3.004   3.597
 3859TIP3    H111583   1.941   2.953   3.613
 3859TIP3    H211584   1.794   2.961   3.648
 3860TIP3   OH211585   1.237   4.349   3.820
 3860TIP3    H111586   1.317   4.363   3.870
 3860TIP3    H211587   1.253   4.391   3.736
 3861TIP3   OH211588   5.329   0.701   1.860
 3861TIP3    H111589   5.280   0.736   1.785
 3861TIP3    H211590   5.413   0.747   1.857
 3862TIP3   OH211591   4.385   5.916   0.695
 3862TIP3    H111592   4.349   5.967   0.767
 3862TIP3    H211593   4.308   5.885   0.647
 3863TIP3   OH211594   2.990   2.396   2.492
 3863TIP3    H111595   3.020   2.475   2.447
 3863TIP3    H211596   3.067   2.366   2.541
 3864TIP3   OH211597   2.189   5.805   2.502
 3864TIP3    H111598   2.112   5.830   2.452
 3864TIP3    H211599   2.205   5.879   2.561
 3865TIP3   OH211600   2.618   1.857   2.761
 3865TIP3    H111601   2.655   1.841   2.848
 3865TIP3    H211602   2.657   1.940   2.734
 3866TIP3   OH211603   5.925   1.068   0.151
 3866TIP3    H111604   5.910   1.110   0.236
 3866TIP3    H211605   5.850   1.011   0.139
 3867TIP3   OH211606   5.827   5.166   1.374
 3867TIP3    H111607   5.759   5.208   1.426
 3867TIP3    H211608   5.791   5.080   1.352
 3868TIP3   OH211609   3.975   2.600   2.342
 3868TIP3    H111610   3.999   2.551   2.263
 3868TIP3    H211611   3.979   2.692   2.315
 3869TIP3   OH211612   2.248   0.548   0.169
 3869TIP3    H111613   2.313   0.478   0.164
 3869TIP3    H211614   2.275   0.612   0.103
 3870TIP3   OH211615   6.339   0.399   4.878
 3870TIP3    H111616   6.328   0.493   4.863
 3870TIP3    H211617   6.361   0.392   4.971
 3871TIP3   OH211618   3.190   5.398   4.530
 3871TIP3    H111619   3.233   5.449   4.599
 3871TIP3    H211620   3.225   5.435   4.449
 3872TIP3   OH211621   5.101   3.831   1.811
 3872TIP3    H111622   5.053   3.823   1.894
 3872TIP3    H211623   5.194   3.827   1.837
 3873TIP3   OH211624   3.292   5.387   0.457
 3873TIP3    H111625   3.345   5.441   0.516
 3873TIP3    H211626   3.301   5.428   0.371
 3874TIP3   OH211627   4.684   0.245   1.845
 3874TIP3    H111628   4.687   0.336   1.816
 3874TIP3    H211629   4.599   0.212   1.816
 3875TIP3   OH211630   4.298   2.151   3.238
 3875TIP3    H111631   4.218   2.099   3.233
 3875TIP3    H211632   4.271   2.233   3.279
 3876TIP3   OH211633   5.387   1.192   4.777
 3876TIP3    H111634   5.354   1.276   4.809
 3876TIP3    H211635   5.481   1.195   4.794
 3877TIP3   OH211636   3.887   4.143   1.418
 3877TIP3    H111637   3.904   4.142   1.324
 3877TIP3    H211638   3.799   4.108   1.427
 3878TIP3   OH211639   6.243   3.881   2.864
 3878TIP3    H111640   6.219   3.865   2.956
 3878TIP3    H211641   6.291   3.963   2.865
 3879TIP3   OH211642   0.177   4.610   4.261
 3879TIP3    H111643   0.251   4.613   4.199
 3879TIP3    H211644   0.107   4.566   4.213
 3880TIP3   OH211645   4.251   1.292   3.504
 3880TIP3    H111646   4.172   1.254   3.541
 3880TIP3    H211647   4.220   1.368   3.455
 3881TIP3   OH211648   1.582   3.047   1.047
 3881TIP3    H111649   1.488   3.027   1.048
 3881TIP3    H211650   1.625   2.962   1.034
 3882TIP3   OH211651   5.550   4.499   3.438
 3882TIP3    H111652   5.533   4.423   3.382
 3882TIP3    H211653   5.469   4.550   3.436
 3883TIP3   OH211654   2.492   1.445   1.302
 3883TIP3    H111655   2.474   1.512   1.236
 3883TIP3    H211656   2.410   1.397   1.310
 3884TIP3   OH211657   6.103   3.235   0.698
 3884TIP3    H111658   6.081   3.237   0.791
 3884TIP3    H211659   6.069   3.151   0.667
 3885TIP3   OH211660   5.777   5.463   3.936
 3885TIP3    H111661   5.687   5.496   3.927
 3885TIP3    H211662   5.832   5.535   3.907
 3886TIP3   OH211663   5.702   5.765   1.703
 3886TIP3    H111664   5.783   5.797   1.665
 3886TIP3    H211665   5.634   5.820   1.665
 3887TIP3   OH211666   5.241   4.433   1.722
 3887TIP3    H111667   5.282   4.518   1.740
 3887TIP3    H211668   5.181   4.420   1.796
 3888TIP3   OH211669   6.027   3.928   1.410
 3888TIP3    H111670   6.031   3.887   1.496
 3888TIP3    H211671   5.984   3.864   1.354
 3889TIP3   OH211672   1.438   2.854   3.935
 3889TIP3    H111673   1.525   2.857   3.894
 3889TIP3    H211674   1.451   2.800   4.013
 3890TIP3   OH211675   4.748   3.374   4.431
 3890TIP3    H111676   4.678   3.415   4.381
 3890TIP3    H211677   4.735   3.405   4.521
 3891TIP3   OH211678   3.673   3.276   3.216
 3891TIP3    H111679   3.758   3.319   3.210
 3891TIP3    H211680   3.612   3.348   3.235
 3892TIP3   OH211681   4.705   2.790   3.704
 3892TIP3    H111682   4.630   2.841   3.674
 3892TIP3    H211683   4.668   2.703   3.724
 3893TIP3   OH211684   2.111   3.779   2.306
 3893TIP3    H111685   2.118   3.861   2.356
 3893TIP3    H211686   2.166   3.793   2.230
 3894TIP3   OH211687   0.069   0.930   5.045
 3894TIP3    H111688   0.043   0.980   5.121
 3894TIP3    H211689   0.165   0.930   5.048
 3895TIP3   OH211690   0.147   4.957   3.779
 3895TIP3    H111691   0.082   4.895   3.746
 3895TIP3    H211692   0.230   4.925   3.743
 3896TIP3   OH211693   3.957   5.508   2.701
 3896TIP3    H111694   4.052   5.521   2.699
 3896TIP3    H211695   3.936   5.502   2.794
 3897TIP3   OH211696   1.460   2.169   1.101
 3897TIP3    H111697   1.464   2.137   1.011
 3897TIP3    H211698   1.382   2.224   1.105
 3898TIP3   OH211699   4.308   4.028   4.980
 3898TIP3    H111700   4.388   3.997   5.022
 3898TIP3    H211701   4.242   4.024   5.048
 3899TIP3   OH211702   4.848   2.199   2.335
 3899TIP3    H111703   4.880   2.131   2.275
 3899TIP3    H211704   4.926   2.226   2.383
 3900TIP3   OH211705   1.842   2.724   3.305
 3900TIP3    H111706   1.846   2.629   3.313
 3900TIP3    H211707   1.856   2.757   3.394
 3901TIP3   OH211708   0.518  -0.012   4.197
 3901TIP3    H111709   0.558  -0.037   4.114
 3901TIP3    H211710   0.513   0.084   4.194
 3902TIP3   OH211711   0.311   4.305   0.099
 3902TIP3    H111712   0.234   4.322   0.153
 3902TIP3    H211713   0.384   4.338   0.150
 3903TIP3   OH211714   3.617   5.170   0.369
 3903TIP3    H111715   3.694   5.223   0.346
 3903TIP3    H211716   3.546   5.207   0.317
 3904TIP3   OH211717   6.276   4.044   1.484
 3904TIP3    H111718   6.328   4.063   1.406
 3904TIP3    H211719   6.195   4.005   1.450
 3905TIP3   OH211720   0.775   2.187   2.993
 3905TIP3    H111721   0.778   2.257   2.928
 3905TIP3    H211722   0.790   2.231   3.076
 3906TIP3   OH211723   5.134   2.016   3.704
 3906TIP3    H111724   5.074   1.981   3.638
 3906TIP3    H211725   5.077   2.058   3.768
 3907TIP3   OH211726   3.640   1.815   2.142
 3907TIP3    H111727   3.616   1.897   2.186
 3907TIP3    H211728   3.689   1.765   2.208
 3908TIP3   OH211729   5.127   2.163   1.104
 3908TIP3    H111730   5.184   2.150   1.028
 3908TIP3    H211731   5.071   2.236   1.078
 3909TIP3   OH211732   6.064   5.290   4.182
 3909TIP3    H111733   6.125   5.225   4.215
 3909TIP3    H211734   6.117   5.347   4.126
 3910TIP3   OH211735   0.982   4.605   3.048
 3910TIP3    H111736   1.015   4.597   3.137
 3910TIP3    H211737   1.027   4.537   2.999
 3911TIP3   OH211738   0.986   3.174   4.860
 3911TIP3    H111739   0.976   3.247   4.921
 3911TIP3    H211740   1.069   3.132   4.887
 3912TIP3   OH211741   0.380   3.759   0.450
 3912TIP3    H111742   0.301   3.797   0.412
 3912TIP3    H211743   0.348   3.706   0.524
 3913TIP3   OH211744   4.222   2.069   1.045
 3913TIP3    H111745   4.157   2.117   1.096
 3913TIP3    H211746   4.304   2.084   1.091
 3914TIP3   OH211747   5.209   4.116   1.709
 3914TIP3    H111748   5.211   4.120   1.804
 3914TIP3    H211749   5.221   4.023   1.689
 3915TIP3   OH211750   0.447   2.291   5.033
 3915TIP3    H111751   0.393   2.232   4.980
 3915TIP3    H211752   0.503   2.336   4.969
 3916TIP3   OH211753   4.310   1.895   1.549
 3916TIP3    H111754   4.228   1.911   1.595
 3916TIP3    H211755   4.368   1.858   1.615
 3917TIP3   OH211756   5.387   5.005   2.002
 3917TIP3    H111757   5.435   4.947   1.944
 3917TIP3    H211758   5.315   4.951   2.035
 3918TIP3   OH211759   1.461   2.693   3.106
 3918TIP3    H111760   1.489   2.779   3.074
 3918TIP3    H211761   1.391   2.712   3.168
 3919TIP3   OH211762   3.601   5.363   4.690
 3919TIP3    H111763   3.673   5.396   4.637
 3919TIP3    H211764   3.613   5.268   4.692
 3920TIP3   OH211765   5.961   3.063   3.203
 3920TIP3    H111766   5.959   3.002   3.130
 3920TIP3    H211767   5.871   3.065   3.236
 3921TIP3   OH211768   4.397   5.257   1.897
 3921TIP3    H111769   4.488   5.228   1.892
 3921TIP3    H211770   4.372   5.240   1.988
 3922TIP3   OH211771   4.723   3.680   4.116
 3922TIP3    H111772   4.803   3.714   4.076
 3922TIP3    H211773   4.730   3.704   4.208
 3923TIP3   OH211774   3.217   0.972   5.221
 3923TIP3    H111775   3.145   1.012   5.172
 3923TIP3    H211776   3.268   0.925   5.155
 3924TIP3   OH211777   6.169   3.500   0.855
 3924TIP3    H111778   6.104   3.556   0.812
 3924TIP3    H211779   6.119   3.424   0.884
 3925TIP3   OH211780   5.287   1.005   1.067
 3925TIP3    H111781   5.292   1.031   1.159
 3925TIP3    H211782   5.376   1.017   1.034
 3926TIP3   OH211783   1.204   0.495   4.794
 3926TIP3    H111784   1.116   0.524   4.774
 3926TIP3    H211785   1.246   0.572   4.833
 3927TIP3   OH211786   3.321   0.267   3.453
 3927TIP3    H111787   3.413   0.290   3.459
 3927TIP3    H211788   3.310   0.233   3.364
 3928TIP3   OH211789   1.108   3.794   5.199
 3928TIP3    H111790   1.175   3.772   5.134
 3928TIP3    H211791   1.135   3.879   5.233
 3929TIP3   OH211792   1.814   5.271   4.223
 3929TIP3    H111793   1.825   5.268   4.318
 3929TIP3    H211794   1.738   5.217   4.206
 3930TIP3   OH211795   1.208   0.947   0.481
 3930TIP3    H111796   1.267   0.960   0.407
 3930TIP3    H211797   1.120   0.952   0.442
 3931TIP3   OH211798   3.680   1.362   0.986
 3931TIP3    H111799   3.617   1.375   1.057
 3931TIP3    H211800   3.763   1.344   1.031
 3932TIP3   OH211801   2.006   0.534   1.313
 3932TIP3    H111802   2.041   0.451   1.282
 3932TIP3    H211803   2.078   0.596   1.302
 3933TIP3   OH211804   4.777   1.635   2.196
 3933TIP3    H111805   4.845   1.620   2.262
 3933TIP3    H211806   4.713   1.691   2.241
 3934TIP3   OH211807   1.347   1.932   0.932
 3934TIP3    H111808   1.297   2.010   0.957
 3934TIP3    H211809   1.431   1.966   0.903
 3935TIP3   OH211810   5.185   1.938   2.824
 3935TIP3    H111811   5.198   2.015   2.768
 3935TIP3    H211812   5.259   1.941   2.885
 3936TIP3   OH211813   2.264   2.123   3.326
 3936TIP3    H111814   2.254   2.215   3.352
 3936TIP3    H211815   2.195   2.110   3.260
 3937TIP3   OH211816   2.980   1.617   0.736
 3937TIP3    H111817   3.029   1.537   0.716
 3937TIP3    H211818   3.047   1.683   0.754
 3938TIP3   OH211819   5.001   0.872   4.480
 3938TIP3    H111820   4.939   0.839   4.545
 3938TIP3    H211821   5.023   0.796   4.426
 3939TIP3   OH211822   1.425   2.129   2.255
 3939TIP3    H111823   1.344   2.180   2.252
 3939TIP3    H211824   1.436   2.107   2.348
 3940TIP3   OH211825   6.192   0.214   3.290
 3940TIP3    H111826   6.189   0.288   3.351
 3940TIP3    H211827   6.285   0.199   3.275
 3941TIP3   OH211828   1.307   5.009   1.395
 3941TIP3    H111829   1.288   5.030   1.487
 3941TIP3    H211830   1.272   4.921   1.384
 3942TIP3   OH211831   0.751   5.135   1.684
 3942TIP3    H111832   0.670   5.084   1.675
 3942TIP3    H211833   0.818   5.081   1.642
 3943TIP3   OH211834   0.044   0.417   0.689
 3943TIP3    H111835   0.048   0.408   0.784
 3943TIP3    H211836   0.067   0.508   0.672
 3944TIP3   OH211837   5.651   5.232   4.049
 3944TIP3    H111838   5.698   5.307   4.012
 3944TIP3    H211839   5.566   5.234   4.006
 3945TIP3   OH211840   3.470   5.085   2.936
 3945TIP3    H111841   3.434   5.037   2.861
 3945TIP3    H211842   3.530   5.148   2.897
 3946TIP3   OH211843   5.660   0.944   3.337
 3946TIP3    H111844   5.748   0.946   3.374
 3946TIP3    H211845   5.602   0.951   3.412
 3947TIP3   OH211846   5.554   2.285   0.440
 3947TIP3    H111847   5.488   2.297   0.372
 3947TIP3    H211848   5.550   2.365   0.492
 3948TIP3   OH211849   4.191   2.447   3.125
 3948TIP3    H111850   4.219   2.439   3.215
 3948TIP3    H211851   4.263   2.411   3.073
 3949TIP3   OH211852   1.085   5.106   3.584
 3949TIP3    H111853   1.171   5.136   3.555
 3949TIP3    H211854   1.035   5.186   3.597
 3950TIP3   OH211855   2.232   2.562   5.183
 3950TIP3    H111856   2.252   2.650   5.215
 3950TIP3    H211857   2.304   2.508   5.214
 3951TIP3   OH211858   1.220   1.507   1.471
 3951TIP3    H111859   1.265   1.445   1.527
 3951TIP3    H211860   1.127   1.482   1.476
 3952TIP3   OH211861   2.721   2.005   1.945
 3952TIP3    H111862   2.676   2.004   2.029
 3952TIP3    H211863   2.799   1.951   1.958
 3953TIP3   OH211864   3.675   0.950   3.913
 3953TIP3    H111865   3.593   0.967   3.866
 3953TIP3    H211866   3.722   0.888   3.858
 3954TIP3   OH211867   3.780   4.543   0.729
 3954TIP3    H111868   3.776   4.495   0.812
 3954TIP3    H211869   3.870   4.531   0.699
 3955TIP3   OH211870   3.677   5.371   3.320
 3955TIP3    H111871   3.599   5.361   3.265
 3955TIP3    H211872   3.700   5.281   3.345
 3956TIP3   OH211873   1.292   4.287   0.556
 3956TIP3    H111874   1.297   4.352   0.626
 3956TIP3    H211875   1.360   4.314   0.493
 3957TIP3   OH211876   1.744   1.591   3.357
 3957TIP3    H111877   1.744   1.503   3.319
 3957TIP3    H211878   1.681   1.640   3.303
 3958TIP3   OH211879   2.399   1.095   1.972
 3958TIP3    H111880   2.406   1.186   2.002
 3958TIP3    H211881   2.465   1.087   1.903
 3959TIP3   OH211882   3.648   0.984   2.084
 3959TIP3    H111883   3.718   1.031   2.129
 3959TIP3    H211884   3.592   0.952   2.154
 3960TIP3   OH211885   4.429   1.197   1.023
 3960TIP3    H111886   4.451   1.110   1.057
 3960TIP3    H211887   4.426   1.252   1.101
 3961TIP3   OH211888   1.176   1.971   1.977
 3961TIP3    H111889   1.117   1.963   2.052
 3961TIP3    H211890   1.203   1.881   1.958
 3962TIP3   OH211891   5.596   3.456   4.234
 3962TIP3    H111892   5.535   3.530   4.233
 3962TIP3    H211893   5.589   3.419   4.146
 3963TIP3   OH211894   1.943   5.045   1.468
 3963TIP3    H111895   1.861   5.016   1.509
 3963TIP3    H211896   1.914   5.095   1.391
 3964TIP3   OH211897   6.215   2.996   3.815
 3964TIP3    H111898   6.304   3.026   3.796
 3964TIP3    H211899   6.186   2.953   3.735
 3965TIP3   OH211900   4.697   2.517   4.405
 3965TIP3    H111901   4.689   2.431   4.446
 3965TIP3    H211902   4.775   2.556   4.444
 3966TIP3   OH211903   0.889   2.915   1.929
 3966TIP3    H111904   0.840   2.871   1.998
 3966TIP3    H211905   0.981   2.901   1.952
 3967TIP3   OH211906   4.266   3.888   2.401
 3967TIP3    H111907   4.361   3.887   2.386
 3967TIP3    H211908   4.251   3.966   2.454
 3968TIP3   OH211909   4.362   5.560   4.949
 3968TIP3    H111910   4.294   5.506   4.910
 3968TIP3    H211911   4.336   5.650   4.929
 3969TIP3   OH211912   2.290   2.816   2.855
 3969TIP3    H111913   2.265   2.784   2.941
 3969TIP3    H211914   2.361   2.878   2.872
 3970TIP3   OH211915   5.575   4.780   0.684
 3970TIP3    H111916   5.503   4.725   0.655
 3970TIP3    H211917   5.533   4.853   0.730
 3971TIP3   OH211918   2.407   4.876   3.866
 3971TIP3    H111919   2.497   4.875   3.897
 3971TIP3    H211920   2.412   4.909   3.776
 3972TIP3   OH211921   5.131   5.412   1.952
 3972TIP3    H111922   5.199   5.365   1.904
 3972TIP3    H211923   5.050   5.368   1.928
 3973TIP3   OH211924   5.037   3.577   1.212
 3973TIP3    H111925   5.125   3.540   1.214
 3973TIP3    H211926   5.049   3.670   1.234
 3974TIP3   OH211927   1.939   3.498   3.538
 3974TIP3    H111928   1.898   3.412   3.542
 3974TIP3    H211929   1.992   3.504   3.617
 3975TIP3   OH211930   4.286   1.066   4.880
 3975TIP3    H111931   4.223   1.076   4.809
 3975TIP3    H211932   4.281   0.973   4.904
 3976TIP3   OH211933   0.128   0.399   1.606
 3976TIP3    H111934   0.121   0.489   1.639
 3976TIP3    H211935   0.060   0.394   1.538
 3977TIP3   OH211936   5.873   4.650   1.030
 3977TIP3    H111937   5.880   4.744   1.014
 3977TIP3    H211938   5.894   4.640   1.123
 3978TIP3   OH211939   0.240   4.015   4.491
 3978TIP3    H111940   0.165   3.978   4.537
 3978TIP3    H211941   0.305   3.944   4.491
 3979TIP3   OH211942   1.913   4.908   4.460
 3979TIP3    H111943   1.818   4.919   4.451
 3979TIP3    H211944   1.927   4.814   4.450
 3980TIP3   OH211945   3.275   1.295   2.623
 3980TIP3    H111946   3.217   1.222   2.601
 3980TIP3    H211947   3.218   1.361   2.663
 3981TIP3   OH211948   2.433   2.118   4.758
 3981TIP3    H111949   2.414   2.026   4.739
 3981TIP3    H211950   2.347   2.160   4.759
 3982TIP3   OH211951   4.502   3.146   4.282
 3982TIP3    H111952   4.461   3.141   4.195
 3982TIP3    H211953   4.596   3.143   4.264
 3983TIP3   OH211954   5.585   1.826   4.747
 3983TIP3    H111955   5.536   1.905   4.723
 3983TIP3    H211956   5.553   1.759   4.686
 3984TIP3   OH211957   0.647   1.231   3.546
 3984TIP3    H111958   0.682   1.155   3.592
 3984TIP3    H211959   0.593   1.195   3.477
 3985TIP3   OH211960   1.398   1.176   4.724
 3985TIP3    H111961   1.372   1.158   4.633
 3985TIP3    H211962   1.493   1.178   4.721
 3986TIP3   OH211963   0.832   0.973   5.133
 3986TIP3    H111964   0.776   0.897   5.151
 3986TIP3    H211965   0.807   1.038   5.199
 3987TIP3   OH211966   4.142   2.049   4.967
 3987TIP3    H111967   4.198   1.981   4.928
 3987TIP3    H211968   4.055   2.031   4.930
 3988TIP3   OH211969   6.205   1.018   2.837
 3988TIP3    H111970   6.131   1.058   2.883
 3988TIP3    H211971   6.210   1.064   2.753
 3989TIP3   OH211972   6.274   3.184   2.837
 3989TIP3    H111973   6.199   3.186   2.777
 3989TIP3    H211974   6.325   3.261   2.815
 3990TIP3   OH211975   0.357   0.814   5.040
 3990TIP3    H111976   0.328   0.727   5.011
 3990TIP3    H211977   0.415   0.797   5.113
 3991TIP3   OH211978   2.210   0.431   4.548
 3991TIP3    H111979   2.218   0.519   4.586
 3991TIP3    H211980   2.235   0.442   4.456
 3992TIP3   OH211981   5.429   2.014   0.429
 3992TIP3    H111982   5.443   2.100   0.470
 3992TIP3    H211983   5.511   1.997   0.382
 3993TIP3   OH211984   6.094   5.412   0.860
 3993TIP3    H111985   6.020   5.445   0.911
 3993TIP3    H211986   6.136   5.491   0.825
 3994TIP3   OH211987   5.722   3.069   1.830
 3994TIP3    H111988   5.662   3.003   1.796
 3994TIP3    H211989   5.745   3.038   1.917
 3995TIP3   OH211990   1.535   0.285   2.905
 3995TIP3    H111991   1.535   0.192   2.930
 3995TIP3    H211992   1.443   0.305   2.887
 3996TIP3   OH211993   1.601   1.126   1.186
 3996TIP3    H111994   1.622   1.036   1.213
 3996TIP3    H211995   1.507   1.125   1.170
 3997TIP3   OH211996   0.605   4.447   2.872
 3997TIP3    H111997   0.563   4.519   2.825
 3997TIP3    H211998   0.532   4.388   2.895
 3998TIP3   OH211999   3.661   2.875   0.966
 3998TIP3    H112000   3.580   2.922   0.984
 3998TIP3    H212001   3.729   2.942   0.971
 3999TIP3   OH212002   4.623   3.525   3.270
 3999TIP3    H112003   4.584   3.612   3.269
 3999TIP3    H212004   4.711   3.537   3.233
 4000TIP3   OH212005   1.482   1.640   4.575
 4000TIP3    H112006   1.392   1.652   4.544
 4000TIP3    H212007   1.502   1.548   4.556
 4001TIP3   OH212008   2.526   2.370   5.070
 4001TIP3    H112009   2.527   2.274   5.063
 4001TIP3    H212010   2.552   2.388   5.160
 4002TIP3   OH212011   1.327   3.324   4.465
 4002TIP3    H112012   1.236   3.324   4.495
 4002TIP3    H212013   1.363   3.406   4.498
 4003TIP3   OH212014   4.300   5.073   0.600
 4003TIP3    H112015   4.362   5.060   0.528
 4003TIP3    H212016   4.259   5.157   0.581
 4004TIP3   OH212017   4.531   3.484   1.211
 4004TIP3    H112018   4.504   3.572   1.238
 4004TIP3    H212019   4.608   3.497   1.157
 4005TIP3   OH212020   4.598   3.630   0.721
 4005TIP3    H112021   4.623   3.563   0.784
 4005TIP3    H212022   4.664   3.623   0.651
 4006TIP3   OH212023   0.602   5.845   4.590
 4006TIP3    H112024   0.529   5.784   4.586
 4006TIP3    H212025   0.575   5.911   4.654
 4007TIP3   OH212026   1.673   2.610   2.356
 4007TIP3    H112027   1.739   2.568   2.410
 4007TIP3    H212028   1.662   2.551   2.282
 4008TIP3   OH212029   3.829   5.549   1.112
 4008TIP3    H112030   3.819   5.503   1.195
 4008TIP3    H212031   3.740   5.578   1.090
 4009TIP3   OH212032   1.836   2.619   3.576
 4009TIP3    H112033   1.884   2.555   3.628
 4009TIP3    H212034   1.800   2.680   3.641
 4010TIP3   OH212035   0.831   0.806   2.606
 4010TIP3    H112036   0.799   0.735   2.550
 4010TIP3    H212037   0.911   0.771   2.646
 4011TIP3   OH212038   0.581   1.865   1.511
 4011TIP3    H112039   0.662   1.854   1.561
 4011TIP3    H212040   0.560   1.777   1.480
 4012TIP3   OH212041   1.104   1.186   0.259
 4012TIP3    H112042   1.075   1.271   0.225
 4012TIP3    H212043   1.200   1.192   0.258
 4013TIP3   OH212044   0.544   2.679   2.630
 4013TIP3    H112045   0.521   2.684   2.537
 4013TIP3    H212046   0.470   2.720   2.675
 4014TIP3   OH212047   3.115   2.117   4.926
 4014TIP3    H112048   3.130   2.032   4.884
 4014TIP3    H212049   3.199   2.140   4.965
 4015TIP3   OH212050   2.462   2.847   0.059
 4015TIP3    H112051   2.510   2.783   0.006
 4015TIP3    H212052   2.480   2.931   0.015
 4016TIP3   OH212053   0.217   3.751   1.145
 4016TIP3    H112054   0.176   3.752   1.231
 4016TIP3    H212055   0.145   3.765   1.083
 4017TIP3   OH212056   3.625   5.068   1.940
 4017TIP3    H112057   3.603   5.155   1.974
 4017TIP3    H212058   3.721   5.065   1.943
 4018TIP3   OH212059   3.453   2.745   0.157
 4018TIP3    H112060   3.472   2.699   0.075
 4018TIP3    H212061   3.539   2.756   0.198
 4019TIP3   OH212062   5.123   1.290   0.553
 4019TIP3    H112063   5.035   1.265   0.579
 4019TIP3    H212064   5.179   1.252   0.621
 4020TIP3   OH212065   1.584   0.089   4.804
 4020TIP3    H112066   1.544   0.013   4.847
 4020TIP3    H212067   1.605   0.059   4.716
 4021TIP3   OH212068   2.648   4.762   2.792
 4021TIP3    H112069   2.743   4.775   2.790
 4021TIP3    H212070   2.635   4.686   2.849
 4022TIP3   OH212071   3.147   2.539   3.598
 4022TIP3    H112072   3.204   2.556   3.524
 4022TIP3    H212073   3.083   2.476   3.566
 4023TIP3   OH212074   1.236   5.685   3.662
 4023TIP3    H112075   1.166   5.707   3.601
 4023TIP3    H212076   1.203   5.609   3.710
 4024TIP3   OH212077   2.839   2.228   4.490
 4024TIP3    H112078   2.921   2.196   4.526
 4024TIP3    H212079   2.773   2.205   4.555
 4025TIP3   OH212080   0.923   3.827   3.492
 4025TIP3    H112081   0.898   3.916   3.515
 4025TIP3    H212082   1.003   3.811   3.542
 4026TIP3   OH212083   3.557   0.286   4.115
 4026TIP3    H112084   3.569   0.284   4.210
 4026TIP3    H212085   3.480   0.341   4.102
 4027TIP3   OH212086   6.357   5.374   1.904
 4027TIP3    H112087   6.450   5.358   1.888
 4027TIP3    H212088   6.314   5.348   1.822
 4028TIP3   OH212089   4.682   4.851   3.750
 4028TIP3    H112090   4.633   4.813   3.678
 4028TIP3    H212091   4.618   4.903   3.798
 4029TIP3   OH212092   4.620   1.984   0.294
 4029TIP3    H112093   4.572   2.067   0.295
 4029TIP3    H212094   4.592   1.941   0.213
 4030TIP3   OH212095   3.392   5.664   2.097
 4030TIP3    H112096   3.422   5.752   2.120
 4030TIP3    H212097   3.374   5.622   2.181
 4031TIP3   OH212098   5.092   5.917   3.244
 4031TIP3    H112099   5.155   5.982   3.274
 4031TIP3    H212100   5.110   5.839   3.297
 4032TIP3   OH212101   4.103   1.855   0.524
 4032TIP3    H112102   4.188   1.867   0.481
 4032TIP3    H212103   4.061   1.941   0.520
 4033TIP3   OH212104   0.635   1.107   1.686
 4033TIP3    H112105   0.599   1.150   1.763
 4033TIP3    H212106   0.633   1.014   1.707
 4034TIP3   OH212107   5.385   4.001   3.574
 4034TIP3    H112108   5.434   4.053   3.510
 4034TIP3    H212109   5.360   4.064   3.642
 4035TIP3   OH212110   0.252   3.618   1.787
 4035TIP3    H112111   0.267   3.528   1.760
 4035TIP3    H212112   0.313   3.631   1.860
 4036TIP3   OH212113   5.887   2.483   0.968
 4036TIP3    H112114   5.943   2.495   1.045
 4036TIP3    H212115   5.841   2.566   0.959
 4037TIP3   OH212116   3.147   4.702   0.175
 4037TIP3    H112117   3.217   4.640   0.196
 4037TIP3    H212118   3.110   4.670   0.093
 4038TIP3   OH212119   4.386   0.328   4.740
 4038TIP3    H112120   4.338   0.248   4.722
 4038TIP3    H212121   4.434   0.346   4.659
 4039TIP3   OH212122   5.278   2.291   4.113
 4039TIP3    H112123   5.315   2.323   4.031
 4039TIP3    H212124   5.275   2.369   4.169
 4040TIP3   OH212125   5.284   1.047   2.001
 4040TIP3    H112126   5.202   1.095   1.988
 4040TIP3    H212127   5.260   0.972   2.055
 4041TIP3   OH212128   3.961   3.584   2.614
 4041TIP3    H112129   3.958   3.653   2.548
 4041TIP3    H212130   3.905   3.515   2.579
 4042TIP3   OH212131   5.598   0.966   0.382
 4042TIP3    H112132   5.632   0.971   0.292
 4042TIP3    H212133   5.547   1.047   0.392
 4043TIP3   OH212134   5.626   3.808   1.425
 4043TIP3    H112135   5.608   3.839   1.514
 4043TIP3    H212136   5.558   3.849   1.372
 4044TIP3   OH212137   2.343   3.844   1.471
 4044TIP3    H112138   2.393   3.764   1.488
 4044TIP3    H212139   2.256   3.813   1.444
 4045TIP3   OH212140   1.429   2.276   4.681
 4045TIP3    H112141   1.358   2.226   4.639
 4045TIP3    H212142   1.407   2.274   4.775
 4046TIP3   OH212143   2.609   4.025   3.612
 4046TIP3    H112144   2.632   4.060   3.526
 4046TIP3    H212145   2.596   4.103   3.666
 4047TIP3   OH212146   5.170   5.604   0.531
 4047TIP3    H112147   5.148   5.598   0.438
 4047TIP3    H212148   5.265   5.594   0.533
 4048TIP3   OH212149   3.324   3.403   1.697
 4048TIP3    H112150   3.412   3.385   1.732
 4048TIP3    H212151   3.265   3.378   1.768
 4049TIP3   OH212152   5.115   5.175   2.193
 4049TIP3    H112153   5.077   5.230   2.262
 4049TIP3    H212154   5.210   5.181   2.207
 4050TIP3   OH212155   1.465   5.946   4.462
 4050TIP3    H112156   1.387   5.897   4.436
 4050TIP3    H212157   1.457   5.956   4.557
 4051TIP3   OH212158   2.092   2.869   0.889
 4051TIP3    H112159   2.121   2.779   0.875
 4051TIP3    H212160   2.144   2.900   0.963
 4052TIP3   OH212161   4.984   4.829   1.286
 4052TIP3    H112162   4.978   4.805   1.193
 4052TIP3    H212163   5.055   4.893   1.289
 4053TIP3   OH212164   6.025   1.866   1.116
 4053TIP3    H112165   6.120   1.856   1.103
 4053TIP3    H212166   5.987   1.842   1.032
 4054TIP3   OH212167   5.827   3.290   0.379
 4054TIP3    H112168   5.860   3.380   0.378
 4054TIP3    H212169   5.733   3.298   0.395
 4055TIP3   OH212170   0.143   0.159   0.540
 4055TIP3    H112171   0.151   0.237   0.596
 4055TIP3    H212172   0.125   0.088   0.602
 4056TIP3   OH212173   6.195   1.091   0.007
 4056TIP3    H112174   6.225   1.176   0.037
 4056TIP3    H212175   6.119   1.071   0.062
 4057TIP3   OH212176   0.133   2.352   0.405
 4057TIP3    H112177   0.053   2.396   0.376
 4057TIP3    H212178   0.117   2.334   0.498
 4058TIP3   OH212179   3.740   5.443   1.498
 4058TIP3    H112180   3.659   5.493   1.497
 4058TIP3    H212181   3.806   5.504   1.532
 4059TIP3   OH212182   0.150   4.024   0.947
 4059TIP3    H112183   0.114   3.968   0.878
 4059TIP3    H212184   0.245   4.014   0.938
 4060TIP3   OH212185   1.365   4.563   1.300
 4060TIP3    H112186   1.434   4.526   1.355
 4060TIP3    H212187   1.311   4.488   1.275
 4061TIP3   OH212188   5.615   2.660   2.886
 4061TIP3    H112189   5.563   2.582   2.906
 4061TIP3    H212190   5.682   2.629   2.825
 4062TIP3   OH212191   4.456   3.138   5.154
 4062TIP3    H112192   4.421   3.202   5.092
 4062TIP3    H212193   4.385   3.074   5.165
 4063TIP3   OH212194   2.242   5.239   4.193
 4063TIP3    H112195   2.209   5.309   4.250
 4063TIP3    H212196   2.213   5.158   4.235
 4064TIP3   OH212197   0.019   0.966   1.196
 4064TIP3    H112198   0.099   0.914   1.202
 4064TIP3    H212199  -0.005   0.960   1.103
 4065TIP3   OH212200   2.421   1.844   4.736
 4065TIP3    H112201   2.368   1.791   4.795
 4065TIP3    H212202   2.512   1.825   4.760
 4066TIP3   OH212203   2.378   0.473   3.851
 4066TIP3    H112204   2.287   0.502   3.851
 4066TIP3    H212205   2.413   0.504   3.934
 4067TIP3   OH212206   1.874   3.647   2.396
 4067TIP3    H112207   1.946   3.704   2.370
 4067TIP3    H212208   1.908   3.558   2.384
 4068TIP3   OH212209   4.207   4.919   4.266
 4068TIP3    H112210   4.194   4.834   4.309
 4068TIP3    H212211   4.288   4.952   4.303
 4069TIP3   OH212212   4.017   0.441   2.428
 4069TIP3    H112213   4.069   0.410   2.354
 4069TIP3    H212214   4.002   0.364   2.482
 4070TIP3   OH212215   2.013   3.862   1.631
 4070TIP3    H112216   2.050   3.937   1.585
 4070TIP3    H212217   1.922   3.887   1.650
 4071TIP3   OH212218   2.685   3.031   1.303
 4071TIP3    H112219   2.608   2.982   1.329
 4071TIP3    H212220   2.693   3.016   1.209
 4072TIP3   OH212221   2.431   1.763   3.596
 4072TIP3    H112222   2.361   1.822   3.567
 4072TIP3    H212223   2.508   1.820   3.603
 4073TIP3   OH212224   5.337   4.548   2.844
 4073TIP3    H112225   5.379   4.581   2.923
 4073TIP3    H212226   5.408   4.506   2.795
 4074TIP3   OH212227   6.191   4.989   0.941
 4074TIP3    H112228   6.250   4.998   0.866
 4074TIP3    H212229   6.239   4.933   1.002
 4075TIP3   OH212230   1.638   4.903   4.470
 4075TIP3    H112231   1.588   4.877   4.547
 4075TIP3    H212232   1.593   4.862   4.396
 4076TIP3   OH212233   0.401   5.857   2.639
 4076TIP3    H112234   0.410   5.913   2.562
 4076TIP3    H212235   0.491   5.837   2.665
 4077TIP3   OH212236   6.105   0.514   3.203
 4077TIP3    H112237   6.119   0.422   3.226
 4077TIP3    H212238   6.019   0.535   3.241
 4078TIP3   OH212239   0.042   1.270   0.541
 4078TIP3    H112240  -0.009   1.326   0.482
 4078TIP3    H212241  -0.024   1.218   0.588
 4079TIP3   OH212242   2.743   4.272   4.594
 4079TIP3    H112243   2.773   4.257   4.504
 4079TIP3    H212244   2.813   4.322   4.634
 4080TIP3   OH212245   2.209   3.301   0.292
 4080TIP3    H112246   2.279   3.366   0.305
 4080TIP3    H212247   2.256   3.218   0.279
 4081TIP3   OH212248   2.105   2.413   3.316
 4081TIP3    H112249   2.117   2.457   3.400
 4081TIP3    H212250   2.166   2.458   3.257
 4082TIP3   OH212251   1.792   5.469   1.238
 4082TIP3    H112252   1.840   5.392   1.209
 4082TIP3    H212253   1.859   5.526   1.275
 4083TIP3   OH212254   4.345   2.111   0.545
 4083TIP3    H112255   4.322   2.144   0.632
 4083TIP3    H212256   4.400   2.035   0.561
 4084TIP3   OH212257   0.530   2.415   3.675
 4084TIP3    H112258   0.496   2.498   3.706
 4084TIP3    H212259   0.469   2.349   3.708
 4085TIP3   OH212260   5.836   0.229   0.103
 4085TIP3    H112261   5.811   0.144   0.138
 4085TIP3    H212262   5.920   0.249   0.145
 4086TIP3   OH212263   2.846   3.105   4.575
 4086TIP3    H112264   2.813   3.194   4.560
 4086TIP3    H212265   2.839   3.093   4.669
 4087TIP3   OH212266   3.098   5.430   1.169
 4087TIP3    H112267   3.027   5.429   1.105
 4087TIP3    H212268   3.178   5.434   1.117
 4088TIP3   OH212269   1.259   0.683   0.045
 4088TIP3    H112270   1.287   0.673  -0.046
 4088TIP3    H212271   1.238   0.594   0.074
 4089TIP3   OH212272   2.884   5.634   4.688
 4089TIP3    H112273   2.811   5.583   4.724
 4089TIP3    H212274   2.886   5.610   4.595
 4090TIP3   OH212275   2.284   3.972   1.955
 4090TIP3    H112276   2.310   3.992   2.045
 4090TIP3    H212277   2.263   3.879   1.957
 4091TIP3   OH212278   5.387   0.635   1.223
 4091TIP3    H112279   5.459   0.697   1.218
 4091TIP3    H212280   5.355   0.629   1.133
 4092TIP3   OH212281   1.060   1.798   4.271
 4092TIP3    H112282   1.043   1.794   4.365
 4092TIP3    H212283   1.003   1.732   4.233
 4093TIP3   OH212284   0.275   5.930   3.228
 4093TIP3    H112285   0.355   5.959   3.186
 4093TIP3    H212286   0.295   5.932   3.322
 4094TIP3   OH212287   0.159   5.761   3.592
 4094TIP3    H112288   0.216   5.704   3.644
 4094TIP3    H212289   0.219   5.810   3.536
 4095TIP3   OH212290   2.939   3.011   1.841
 4095TIP3    H112291   2.855   2.966   1.839
 4095TIP3    H212292   2.972   3.006   1.752
 4096TIP3   OH212293   1.704   1.284   0.260
 4096TIP3    H112294   1.633   1.238   0.304
 4096TIP3    H212295   1.763   1.312   0.330
 4097TIP3   OH212296   4.182   2.988   3.189
 4097TIP3    H112297   4.246   2.945   3.132
 4097TIP3    H212298   4.152   3.063   3.138
 4098TIP3   OH212299   4.671   3.827   1.037
 4098TIP3    H112300   4.579   3.850   1.051
 4098TIP3    H212301   4.685   3.837   0.943
 4099TIP3   OH212302   6.290   5.230   4.385
 4099TIP3    H112303   6.334   5.158   4.342
 4099TIP3    H212304   6.276   5.200   4.475
 4100TIP3   OH212305   1.336   2.025   4.041
 4100TIP3    H112306   1.269   1.960   4.020
 4100TIP3    H212307   1.402   1.975   4.090
 4101TIP3   OH212308   0.253   5.358   1.253
 4101TIP3    H112309   0.213   5.306   1.183
 4101TIP3    H212310   0.229   5.448   1.232
 4102TIP3   OH212311   4.875   2.816   4.229
 4102TIP3    H112312   4.956   2.807   4.180
 4102TIP3    H212313   4.807   2.827   4.163
 4103TIP3   OH212314   4.609   0.694   2.232
 4103TIP3    H112315   4.555   0.687   2.311
 4103TIP3    H212316   4.598   0.609   2.188
 4104TIP3   OH212317   1.703   2.020   4.826
 4104TIP3    H112318   1.708   1.941   4.773
 4104TIP3    H212319   1.738   1.995   4.911
 4105TIP3   OH212320   5.504   2.643   2.398
 4105TIP3    H112321   5.577   2.588   2.427
 4105TIP3    H212322   5.446   2.583   2.350
 4106TIP3   OH212323   6.332   4.071   4.377
 4106TIP3    H112324   6.344   3.976   4.383
 4106TIP3    H212325   6.373   4.105   4.457
 4107TIP3   OH212326   6.040   0.858   3.931
 4107TIP3    H112327   6.093   0.936   3.947
 4107TIP3    H212328   5.960   0.892   3.890
 4108TIP3   OH212329   4.853   4.693   0.767
 4108TIP3    H112330   4.812   4.721   0.685
 4108TIP3    H212331   4.947   4.691   0.747
 4109TIP3   OH212332   2.854   3.399   2.894
 4109TIP3    H112333   2.780   3.444   2.934
 4109TIP3    H212334   2.923   3.402   2.960
 4110TIP3   OH212335   0.094   2.139   2.401
 4110TIP3    H112336   0.164   2.138   2.466
 4110TIP3    H212337   0.042   2.216   2.424
 4111TIP3   OH212338   0.205   2.184   2.069
 4111TIP3    H112339   0.182   2.224   1.985
 4111TIP3    H212340   0.220   2.259   2.127
 4112TIP3   OH212341   5.084   2.617   3.393
 4112TIP3    H112342   5.047   2.533   3.419
 4112TIP3    H212343   5.009   2.669   3.364
 4113TIP3   OH212344   0.687   4.598   1.664
 4113TIP3    H112345   0.778   4.598   1.633
 4113TIP3    H212346   0.635   4.621   1.588
 4114TIP3   OH212347   4.575   3.513   2.079
 4114TIP3    H112348   4.586   3.434   2.131
 4114TIP3    H212349   4.598   3.487   1.989
 4115TIP3   OH212350   2.814   4.189   2.393
 4115TIP3    H112351   2.755   4.253   2.354
 4115TIP3    H212352   2.887   4.240   2.425
 4116TIP3   OH212353   0.365   5.322   4.948
 4116TIP3    H112354   0.284   5.341   4.901
 4116TIP3    H212355   0.381   5.229   4.931
 4117TIP3   OH212356   5.763   4.337   3.682
 4117TIP3    H112357   5.729   4.271   3.622
 4117TIP3    H212358   5.813   4.287   3.747
 4118TIP3   OH212359   0.598   6.014   0.119
 4118TIP3    H112360   0.667   5.991   0.182
 4118TIP3    H212361   0.557   5.931   0.096
 4119TIP3   OH212362   5.519   0.387   2.293
 4119TIP3    H112363   5.603   0.361   2.256
 4119TIP3    H212364   5.509   0.333   2.372
 4120TIP3   OH212365   2.212   3.852   0.868
 4120TIP3    H112366   2.301   3.834   0.897
 4120TIP3    H212367   2.211   3.945   0.846
 4121TIP3   OH212368   2.244   3.710   2.048
 4121TIP3    H112369   2.289   3.629   2.071
 4121TIP3    H212370   2.191   3.688   1.972
 4122TIP3   OH212371   0.554   3.419   4.426
 4122TIP3    H112372   0.603   3.434   4.345
 4122TIP3    H212373   0.621   3.399   4.491
 4123TIP3   OH212374   0.916   0.440   4.083
 4123TIP3    H112375   0.829   0.463   4.050
 4123TIP3    H212376   0.972   0.443   4.005
 4124TIP3   OH212377   4.627   4.417   4.240
 4124TIP3    H112378   4.566   4.384   4.174
 4124TIP3    H212379   4.597   4.378   4.322
 4125TIP3   OH212380   4.254   5.469   2.669
 4125TIP3    H112381   4.348   5.486   2.674
 4125TIP3    H212382   4.247   5.374   2.658
 4126TIP3   OH212383   3.501   1.542   4.338
 4126TIP3    H112384   3.567   1.609   4.352
 4126TIP3    H212385   3.451   1.573   4.262
 4127TIP3   OH212386   5.578   4.448   2.744
 4127TIP3    H112387   5.645   4.437   2.676
 4127TIP3    H212388   5.610   4.397   2.818
 4128TIP3   OH212389   2.835   1.560   4.252
 4128TIP3    H112390   2.760   1.580   4.308
 4128TIP3    H212391   2.831   1.625   4.182
 4129TIP3   OH212392   5.779   1.012   3.927
 4129TIP3    H112393   5.827   1.058   3.858
 4129TIP3    H212394   5.701   0.978   3.883
 4130TIP3   OH212395   4.383   2.093   3.987
 4130TIP3    H112396   4.465   2.084   3.938
 4130TIP3    H212397   4.381   2.016   4.045
 4131TIP3   OH212398   3.449   2.609   4.586
 4131TIP3    H112399   3.454   2.523   4.628
 4131TIP3    H212400   3.456   2.591   4.493
 4132TIP3   OH212401   5.785   1.313   3.909
 4132TIP3    H112402   5.692   1.292   3.909
 4132TIP3    H212403   5.808   1.321   4.002
 4133TIP3   OH212404   0.629   5.699   3.980
 4133TIP3    H112405   0.694   5.756   4.021
 4133TIP3    H212406   0.545   5.740   4.000
 4134TIP3   OH212407   4.286   5.516   1.884
 4134TIP3    H112408   4.308   5.426   1.863
 4134TIP3    H212409   4.212   5.510   1.944
 4135TIP3   OH212410   2.303   0.426   4.270
 4135TIP3    H112411   2.266   0.455   4.187
 4135TIP3    H212412   2.286   0.332   4.273
 4136TIP3   OH212413   1.024   0.678   5.034
 4136TIP3    H112414   1.009   0.704   4.944
 4136TIP3    H212415   1.119   0.666   5.041
 4137TIP3   OH212416   5.829   0.663   4.832
 4137TIP3    H112417   5.840   0.637   4.741
 4137TIP3    H212418   5.755   0.611   4.863
 4138TIP3   OH212419   2.290   1.972   1.782
 4138TIP3    H112420   2.220   1.920   1.823
 4138TIP3    H212421   2.273   2.062   1.810
 4139TIP3   OH212422   6.099   3.240   4.591
 4139TIP3    H112423   6.122   3.328   4.619
 4139TIP3    H212424   6.007   3.230   4.614
 4140TIP3   OH212425   2.715   1.667   0.626
 4140TIP3    H112426   2.715   1.755   0.587
 4140TIP3    H212427   2.804   1.654   0.656
 4141TIP3   OH212428   5.027   1.625   3.141
 4141TIP3    H112429   4.979   1.543   3.136
 4141TIP3    H212430   5.111   1.606   3.099
 4142TIP3   OH212431   0.394   2.255   4.611
 4142TIP3    H112432   0.477   2.207   4.621
 4142TIP3    H212433   0.416   2.329   4.555
 4143TIP3   OH212434   2.678   4.324   1.789
 4143TIP3    H112435   2.704   4.374   1.712
 4143TIP3    H212436   2.683   4.233   1.762
 4144TIP3   OH212437   5.697   5.428   2.993
 4144TIP3    H112438   5.690   5.408   2.900
 4144TIP3    H212439   5.678   5.345   3.037
 4145TIP3   OH212440   5.304   5.125   0.086
 4145TIP3    H112441   5.344   5.147   0.171
 4145TIP3    H212442   5.284   5.210   0.047
 4146TIP3   OH212443   1.714   4.523   1.325
 4146TIP3    H112444   1.727   4.594   1.389
 4146TIP3    H212445   1.694   4.446   1.379
 4147TIP3   OH212446   1.238   0.170   1.037
 4147TIP3    H112447   1.154   0.213   1.049
 4147TIP3    H212448   1.229   0.120   0.955
 4148TIP3   OH212449   3.060   5.471   1.851
 4148TIP3    H112450   3.135   5.428   1.891
 4148TIP3    H212451   2.984   5.424   1.886
 4149TIP3   OH212452   0.043   4.155   2.872
 4149TIP3    H112453   0.035   4.212   2.948
 4149TIP3    H212454   0.052   4.215   2.798
 4150TIP3   OH212455   0.562   5.630   0.672
 4150TIP3    H112456   0.469   5.648   0.661
 4150TIP3    H212457   0.592   5.606   0.584
 4151TIP3   OH212458   2.397   1.751   2.369
 4151TIP3    H112459   2.339   1.774   2.442
 4151TIP3    H212460   2.476   1.716   2.412
 4152TIP3   OH212461   3.171   3.766   4.914
 4152TIP3    H112462   3.190   3.857   4.894
 4152TIP3    H212463   3.105   3.770   4.984
 4153TIP3   OH212464   5.853   3.967   4.814
 4153TIP3    H112465   5.880   3.883   4.852
 4153TIP3    H212466   5.772   3.948   4.767
 4154TIP3   OH212467   5.207   2.925   1.584
 4154TIP3    H112468   5.147   2.979   1.635
 4154TIP3    H212469   5.231   2.980   1.509
 4155TIP3   OH212470   2.597   4.732   1.170
 4155TIP3    H112471   2.629   4.810   1.124
 4155TIP3    H212472   2.605   4.662   1.105
 4156TIP3   OH212473   3.670   5.760   4.887
 4156TIP3    H112474   3.668   5.665   4.901
 4156TIP3    H212475   3.760   5.779   4.862
 4157TIP3   OH212476   2.575   1.468   0.741
 4157TIP3    H112477   2.640   1.522   0.695
 4157TIP3    H212478   2.612   1.457   0.829
 4158TIP3   OH212479   3.816   5.409   2.463
 4158TIP3    H112480   3.731   5.391   2.504
 4158TIP3    H212481   3.871   5.439   2.535
 4159TIP3   OH212482   2.016   2.043   1.135
 4159TIP3    H112483   2.017   2.127   1.181
 4159TIP3    H212484   1.925   2.031   1.108
 4160TIP3   OH212485   2.416   2.360   2.016
 4160TIP3    H112486   2.375   2.346   1.931
 4160TIP3    H212487   2.503   2.393   1.995
 4161TIP3   OH212488   1.733   0.946   4.199
 4161TIP3    H112489   1.803   0.882   4.192
 4161TIP3    H212490   1.726   0.983   4.110
 4162TIP3   OH212491   2.854   3.039   2.104
 4162TIP3    H112492   2.899   3.047   2.188
 4162TIP3    H212493   2.925   3.041   2.039
 4163TIP3   OH212494   5.855   4.956   4.754
 4163TIP3    H112495   5.922   4.969   4.687
 4163TIP3    H212496   5.900   4.907   4.823
 4164TIP3   OH212497   1.731   4.949   2.897
 4164TIP3    H112498   1.681   4.992   2.966
 4164TIP3    H212499   1.787   4.887   2.944
 4165TIP3   OH212500   4.452   1.550   3.152
 4165TIP3    H112501   4.397   1.473   3.137
 4165TIP3    H212502   4.486   1.572   3.065
 4166TIP3   OH212503   0.264   0.799   4.371
 4166TIP3    H112504   0.314   0.818   4.451
 4166TIP3    H212505   0.306   0.854   4.304
 4167TIP3   OH212506   1.795   3.212   0.455
 4167TIP3    H112507   1.881   3.171   0.464
 4167TIP3    H212508   1.734   3.138   0.453
 4168TIP3   OH212509   3.179   2.075   1.325
 4168TIP3    H112510   3.138   2.021   1.258
 4168TIP3    H212511   3.107   2.102   1.382
 4169TIP3   OH212512   4.783   2.881   0.994
 4169TIP3    H112513   4.818   2.880   0.905
 4169TIP3    H212514   4.708   2.821   0.991
 4170TIP3   OH212515   3.461   3.934   1.762
 4170TIP3    H112516   3.415   3.852   1.741
 4170TIP3    H212517   3.530   3.908   1.823
 4171TIP3   OH212518   1.893   1.515   1.118
 4171TIP3    H112519   1.810   1.529   1.162
 4171TIP3    H212520   1.932   1.602   1.111
 4172TIP3   OH212521   4.351   0.720   4.087
 4172TIP3    H112522   4.268   0.718   4.135
 4172TIP3    H212523   4.396   0.797   4.121
 4173TIP3   OH212524   4.666   2.478   4.138
 4173TIP3    H112525   4.696   2.469   4.228
 4173TIP3    H212526   4.605   2.405   4.125
 4174TIP3   OH212527   2.929   5.348   0.438
 4174TIP3    H112528   2.857   5.346   0.502
 4174TIP3    H212529   2.933   5.439   0.410
 4175TIP3   OH212530   1.862   1.024   0.430
 4175TIP3    H112531   1.778   1.001   0.469
 4175TIP3    H212532   1.860   1.120   0.423
 4176TIP3   OH212533   5.911   2.092   1.696
 4176TIP3    H112534   5.975   2.161   1.717
 4176TIP3    H212535   5.943   2.015   1.743
 4177TIP3   OH212536   5.607   4.926   1.805
 4177TIP3    H112537   5.675   4.861   1.787
 4177TIP3    H212538   5.656   5.006   1.823
 4178TIP3   OH212539   6.202   3.022   4.718
 4178TIP3    H112540   6.180   3.100   4.666
 4178TIP3    H212541   6.138   3.022   4.789
 4179TIP3   OH212542   0.993   1.716   2.944
 4179TIP3    H112543   1.086   1.733   2.956
 4179TIP3    H212544   0.957   1.800   2.914
 4180TIP3   OH212545   2.418   4.214   5.088
 4180TIP3    H112546   2.443   4.141   5.145
 4180TIP3    H212547   2.499   4.265   5.077
 4181TIP3   OH212548   5.516   0.889   2.487
 4181TIP3    H112549   5.528   0.797   2.465
 4181TIP3    H212550   5.532   0.894   2.581
 4182TIP3   OH212551   3.836   2.467   0.165
 4182TIP3    H112552   3.927   2.440   0.179
 4182TIP3    H212553   3.804   2.489   0.252
 4183TIP3   OH212554   3.804   5.483   4.393
 4183TIP3    H112555   3.793   5.397   4.354
 4183TIP3    H212556   3.899   5.491   4.405
 4184TIP3   OH212557   1.599   3.343   4.720
 4184TIP3    H112558   1.542   3.416   4.700
 4184TIP3    H212559   1.567   3.271   4.665
 4185TIP3   OH212560   0.727   4.284   3.119
 4185TIP3    H112561   0.746   4.271   3.026
 4185TIP3    H212562   0.633   4.297   3.123
 4186TIP3   OH212563   0.780   3.398   4.583
 4186TIP3    H112564   0.813   3.478   4.543
 4186TIP3    H212565   0.856   3.340   4.586
 4187TIP3   OH212566   4.154   0.124   0.968
 4187TIP3    H112567   4.209   0.176   1.026
 4187TIP3    H212568   4.188   0.141   0.881
 4188TIP3   OH212569   6.154   2.159   0.124
 4188TIP3    H112570   6.167   2.143   0.217
 4188TIP3    H212571   6.060   2.150   0.110
 4189TIP3   OH212572   3.805   2.212   0.433
 4189TIP3    H112573   3.899   2.191   0.429
 4189TIP3    H212574   3.801   2.298   0.475
 4190TIP3   OH212575   5.002   3.556   1.920
 4190TIP3    H112576   5.032   3.646   1.936
 4190TIP3    H212577   4.993   3.518   2.008
 4191TIP3   OH212578   2.396   2.276   1.350
 4191TIP3    H112579   2.341   2.351   1.327
 4191TIP3    H212580   2.334   2.206   1.369
 4192TIP3   OH212581   1.708   3.867   2.349
 4192TIP3    H112582   1.703   3.816   2.268
 4192TIP3    H212583   1.775   3.823   2.401
 4193TIP3   OH212584   3.302   2.129   2.985
 4193TIP3    H112585   3.225   2.075   3.006
 4193TIP3    H212586   3.323   2.107   2.895
 4194TIP3   OH212587   4.294   2.389   3.380
 4194TIP3    H112588   4.337   2.472   3.359
 4194TIP3    H212589   4.295   2.386   3.476
 4195TIP3   OH212590   3.659   2.952   1.491
 4195TIP3    H112591   3.650   2.983   1.401
 4195TIP3    H212592   3.626   2.862   1.489
 4196TIP3   OH212593   2.343   3.635   4.415
 4196TIP3    H112594   2.342   3.540   4.405
 4196TIP3    H212595   2.252   3.659   4.433
 4197TIP3   OH212596   5.931   1.792   3.355
 4197TIP3    H112597   5.993   1.814   3.424
 4197TIP3    H212598   5.938   1.864   3.292
 4198TIP3   OH212599   4.998   4.728   3.487
 4198TIP3    H112600   5.000   4.823   3.472
 4198TIP3    H212601   5.090   4.704   3.501
 4199TIP3   OH212602   3.756   3.912   4.489
 4199TIP3    H112603   3.732   3.895   4.398
 4199TIP3    H212604   3.695   3.979   4.519
 4200TIP3   OH212605   4.354   1.846   0.800
 4200TIP3    H112606   4.334   1.833   0.707
 4200TIP3    H212607   4.318   1.769   0.843
 4201TIP3   OH212608   4.478   0.051   4.554
 4201TIP3    H112609   4.389   0.080   4.576
 4201TIP3    H212610   4.477   0.041   4.459
 4202TIP3   OH212611   2.244   1.967   5.077
 4202TIP3    H112612   2.281   1.891   5.033
 4202TIP3    H212613   2.151   1.966   5.054
 4203TIP3   OH212614   0.655   0.835   1.086
 4203TIP3    H112615   0.674   0.890   1.010
 4203TIP3    H212616   0.741   0.814   1.123
 4204TIP3   OH212617   3.347   5.769   5.012
 4204TIP3    H112618   3.327   5.749   5.104
 4204TIP3    H212619   3.274   5.731   4.963
 4205TIP3   OH212620   4.210   4.830   4.012
 4205TIP3    H112621   4.198   4.858   4.103
 4205TIP3    H212622   4.304   4.834   3.998
 4206TIP3   OH212623   1.365   0.316   0.773
 4206TIP3    H112624   1.459   0.318   0.756
 4206TIP3    H212625   1.332   0.247   0.715
 4207TIP3   OH212626   3.886   3.654   3.197
 4207TIP3    H112627   3.961   3.698   3.238
 4207TIP3    H212628   3.859   3.714   3.126
 4208TIP3   OH212629   6.227   4.255   1.185
 4208TIP3    H112630   6.306   4.305   1.163
 4208TIP3    H212631   6.171   4.263   1.108
 4209TIP3   OH212632   0.008   4.589   1.935
 4209TIP3    H112633  -0.047   4.667   1.925
 4209TIP3    H212634   0.091   4.623   1.967
 4210TIP3   OH212635   3.844   2.964   0.065
 4210TIP3    H112636   3.886   2.955   0.151
 4210TIP3    H212637   3.799   2.881   0.051
 4211TIP3   OH212638   5.648   1.613   3.000
 4211TIP3    H112639   5.630   1.690   2.945
 4211TIP3    H212640   5.654   1.648   3.089
 4212TIP3   OH212641   0.886   1.390   3.918
 4212TIP3    H112642   0.889   1.372   3.824
 4212TIP3    H212643   0.977   1.408   3.941
 4213TIP3   OH212644   0.795   3.147   4.193
 4213TIP3    H112645   0.849   3.080   4.151
 4213TIP3    H212646   0.706   3.110   4.191
 4214TIP3   OH212647   2.161   5.949   3.438
 4214TIP3    H112648   2.131   5.863   3.409
 4214TIP3    H212649   2.219   5.931   3.512
 4215TIP3   OH212650   1.298   2.858   4.709
 4215TIP3    H112651   1.209   2.867   4.676
 4215TIP3    H212652   1.326   2.772   4.678
 4216TIP3   OH212653   5.339   5.340   3.025
 4216TIP3    H112654   5.280   5.312   3.094
 4216TIP3    H212655   5.402   5.397   3.068
 4217TIP3   OH212656   0.307   1.615   0.916
 4217TIP3    H112657   0.392   1.607   0.871
 4217TIP3    H212658   0.290   1.528   0.952
 4218TIP3   OH212659   2.455   0.192   0.773
 4218TIP3    H112660   2.495   0.119   0.820
 4218TIP3    H212661   2.368   0.202   0.811
 4219TIP3   OH212662   1.186   3.661   1.408
 4219TIP3    H112663   1.102   3.631   1.373
 4219TIP3    H212664   1.224   3.712   1.337
 4220TIP3   OH212665   3.189   0.961   3.056
 4220TIP3    H112666   3.268   0.938   3.006
 4220TIP3    H212667   3.214   0.947   3.148
 4221TIP3   OH212668   1.523   3.129   1.780
 4221TIP3    H112669   1.586   3.084   1.836
 4221TIP3    H212670   1.456   3.161   1.840
 4222TIP3   OH212671   4.477   4.863   3.189
 4222TIP3    H112672   4.556   4.834   3.144
 4222TIP3    H212673   4.407   4.809   3.152
 4223TIP3   OH212674   4.675   3.862   0.313
 4223TIP3    H112675   4.586   3.829   0.323
 4223TIP3    H212676   4.674   3.907   0.228
 4224TIP3   OH212677   0.613   3.686   4.874
 4224TIP3    H112678   0.522   3.663   4.893
 4224TIP3    H212679   0.611   3.782   4.864
 4225TIP3   OH212680   1.871   2.817   0.555
 4225TIP3    H112681   1.882   2.868   0.635
 4225TIP3    H212682   1.959   2.808   0.520
 4226TIP3   OH212683   4.450   5.118   2.956
 4226TIP3    H112684   4.514   5.145   2.890
 4226TIP3    H212685   4.388   5.064   2.908
 4227TIP3   OH212686   0.638   0.444   4.976
 4227TIP3    H112687   0.644   0.535   5.003
 4227TIP3    H212688   0.721   0.405   5.004
 4228TIP3   OH212689   3.230   0.627   2.993
 4228TIP3    H112690   3.284   0.574   3.052
 4228TIP3    H212691   3.280   0.707   2.979
 4229TIP3   OH212692   1.970   2.573   2.127
 4229TIP3    H112693   2.016   2.577   2.211
 4229TIP3    H212694   1.898   2.636   2.136
 4230TIP3   OH212695   3.989   0.084   0.558
 4230TIP3    H112696   3.941   0.156   0.517
 4230TIP3    H212697   3.928   0.011   0.558
 4231TIP3   OH212698   3.580   3.327   3.975
 4231TIP3    H112699   3.590   3.325   3.880
 4231TIP3    H212700   3.600   3.238   4.003
 4232TIP3   OH212701   1.361   3.756   3.779
 4232TIP3    H112702   1.303   3.689   3.744
 4232TIP3    H212703   1.438   3.708   3.810
 4233TIP3   OH212704   4.531   2.039   4.450
 4233TIP3    H112705   4.488   2.052   4.535
 4233TIP3    H212706   4.623   2.060   4.467
 4234TIP3   OH212707   6.171   0.795   2.666
 4234TIP3    H112708   6.164   0.871   2.723
 4234TIP3    H212709   6.080   0.769   2.649
 4235TIP3   OH212710   2.244   3.299   5.128
 4235TIP3    H112711   2.221   3.331   5.040
 4235TIP3    H212712   2.239   3.376   5.184
 4236TIP3   OH212713   3.827   3.771   4.709
 4236TIP3    H112714   3.797   3.834   4.643
 4236TIP3    H212715   3.765   3.782   4.781
 4237TIP3   OH212716   4.242   0.353   4.291
 4237TIP3    H112717   4.302   0.286   4.258
 4237TIP3    H212718   4.185   0.372   4.216
 4238TIP3   OH212719   3.506   0.600   3.305
 4238TIP3    H112720   3.440   0.545   3.263
 4238TIP3    H212721   3.560   0.632   3.233
 4239TIP3   OH212722   4.611   1.362   0.511
 4239TIP3    H112723   4.542   1.410   0.558
 4239TIP3    H212724   4.687   1.419   0.515
 4240TIP3   OH212725   2.352   4.078   1.118
 4240TIP3    H112726   2.415   4.008   1.136
 4240TIP3    H212727   2.281   4.035   1.071
 4241TIP3   OH212728   4.160   3.470  -0.027
 4241TIP3    H112729   4.157   3.559  -0.063
 4241TIP3    H212730   4.147   3.482   0.067
 4242TIP3   OH212731   0.636   1.506   2.132
 4242TIP3    H112732   0.595   1.438   2.078
 4242TIP3    H212733   0.581   1.583   2.120
 4243TIP3   OH212734   0.977   4.490  -0.007
 4243TIP3    H112735   0.887   4.486   0.025
 4243TIP3    H212736   1.009   4.400  -0.001
 4244TIP3   OH212737   2.528  -0.019   4.742
 4244TIP3    H112738   2.464  -0.017   4.671
 4244TIP3    H212739   2.530   0.071   4.775
 4245TIP3   OH212740   5.253   0.997   0.181
 4245TIP3    H112741   5.239   1.090   0.163
 4245TIP3    H212742   5.220   0.984   0.270
 4246TIP3   OH212743   2.204   1.372   1.453
 4246TIP3    H112744   2.176   1.463   1.465
 4246TIP3    H212745   2.229   1.344   1.541
 4247TIP3   OH212746   4.845   1.657   1.813
 4247TIP3    H112747   4.787   1.715   1.863
 4247TIP3    H212748   4.899   1.716   1.760
 4248TIP3   OH212749   1.701   0.294   2.674
 4248TIP3    H112750   1.646   0.301   2.752
 4248TIP3    H212751   1.682   0.374   2.625
 4249TIP3   OH212752   5.213   0.823   4.076
 4249TIP3    H112753   5.285   0.770   4.111
 4249TIP3    H212754   5.227   0.820   3.981
 4250TIP3   OH212755   0.163   4.824   1.905
 4250TIP3    H112756   0.178   4.803   1.813
 4250TIP3    H212757   0.234   4.779   1.951
 4251TIP3   OH212758   4.846   1.808   3.035
 4251TIP3    H112759   4.919   1.759   3.074
 4251TIP3    H212760   4.888   1.886   2.997
 4252TIP3   OH212761   5.818   1.963   4.656
 4252TIP3    H112762   5.852   1.899   4.594
 4252TIP3    H212763   5.816   1.916   4.740
 4253TIP3   OH212764   4.881   0.419   0.809
 4253TIP3    H112765   4.864   0.343   0.864
 4253TIP3    H212766   4.930   0.383   0.735
 4254TIP3   OH212767   3.859   3.692   3.630
 4254TIP3    H112768   3.847   3.715   3.722
 4254TIP3    H212769   3.787   3.736   3.584
 4255TIP3   OH212770   0.666   1.262   3.239
 4255TIP3    H112771   0.659   1.292   3.148
 4255TIP3    H212772   0.652   1.340   3.292
 4256TIP3   OH212773   3.697   5.249   3.667
 4256TIP3    H112774   3.720   5.233   3.575
 4256TIP3    H212775   3.766   5.207   3.717
 4257TIP3   OH212776   5.799   1.818   4.927
 4257TIP3    H112777   5.719   1.818   4.874
 4257TIP3    H212778   5.770   1.798   5.016
 4258TIP3   OH212779   1.867   4.636   3.855
 4258TIP3    H112780   1.906   4.550   3.838
 4258TIP3    H212781   1.785   4.635   3.807
 4259TIP3   OH212782   4.459   5.316   1.635
 4259TIP3    H112783   4.399   5.274   1.573
 4259TIP3    H212784   4.442   5.272   1.718
 4260TIP3   OH212785   0.753   1.952   0.181
 4260TIP3    H112786   0.775   1.934   0.273
 4260TIP3    H212787   0.705   2.034   0.184
 4261TIP3   OH212788   1.245   4.415   0.894
 4261TIP3    H112789   1.230   4.437   0.803
 4261TIP3    H212790   1.167   4.368   0.922
 4262TIP3   OH212791   4.512   5.051   3.877
 4262TIP3    H112792   4.424   5.075   3.848
 4262TIP3    H212793   4.542   5.126   3.928
 4263TIP3   OH212794   0.564   5.800   1.684
 4263TIP3    H112795   0.526   5.739   1.622
 4263TIP3    H212796   0.498   5.869   1.694
 4264TIP3   OH212797   0.859   4.245   0.496
 4264TIP3    H112798   0.900   4.329   0.474
 4264TIP3    H212799   0.926   4.198   0.545
 4265TIP3   OH212800   2.465   0.783   2.504
 4265TIP3    H112801   2.379   0.751   2.529
 4265TIP3    H212802   2.505   0.711   2.455
 4266TIP3   OH212803   0.206   4.092   4.799
 4266TIP3    H112804   0.137   4.096   4.865
 4266TIP3    H212805   0.270   4.029   4.834
 4267TIP3   OH212806   0.280   1.887   4.646
 4267TIP3    H112807   0.213   1.822   4.624
 4267TIP3    H212808   0.262   1.909   4.738
 4268TIP3   OH212809   0.562   1.661   4.758
 4268TIP3    H112810   0.551   1.718   4.682
 4268TIP3    H212811   0.575   1.574   4.720
 4269TIP3   OH212812   0.554   4.316   2.000
 4269TIP3    H112813   0.593   4.320   2.087
 4269TIP3    H212814   0.505   4.398   1.992
 4270TIP3   OH212815   5.598   3.335   4.462
 4270TIP3    H112816   5.608   3.368   4.372
 4270TIP3    H212817   5.632   3.245   4.458
 4271TIP3   OH212818   3.763   2.862   1.935
 4271TIP3    H112819   3.857   2.879   1.928
 4271TIP3    H212820   3.741   2.815   1.855
 4272TIP3   OH212821   5.102   2.731   5.046
 4272TIP3    H112822   5.091   2.823   5.068
 4272TIP3    H212823   5.123   2.688   5.129
 4273TIP3   OH212824   2.264   3.055   1.964
 4273TIP3    H112825   2.221   3.134   1.996
 4273TIP3    H212826   2.205   3.022   1.896
 4274TIP3   OH212827   4.136   3.159   1.784
 4274TIP3    H112828   4.158   3.241   1.827
 4274TIP3    H212829   4.184   3.162   1.701
 4275TIP3   OH212830   4.260   2.813   1.225
 4275TIP3    H112831   4.234   2.857   1.305
 4275TIP3    H212832   4.324   2.872   1.184
 4276TIP3   OH212833   2.501   0.895   4.710
 4276TIP3    H112834   2.587   0.863   4.739
 4276TIP3    H212835   2.505   0.990   4.726
 4277TIP3   OH212836   6.309   1.686   2.545
 4277TIP3    H112837   6.256   1.719   2.472
 4277TIP3    H212838   6.245   1.668   2.615
 4278TIP3   OH212839   6.013   4.485   4.048
 4278TIP3    H112840   5.920   4.484   4.066
 4278TIP3    H212841   6.040   4.575   4.066
 4279TIP3   OH212842   3.339   4.640   4.387
 4279TIP3    H112843   3.337   4.690   4.469
 4279TIP3    H212844   3.256   4.593   4.386
 4280TIP3   OH212845   0.384   4.665   4.065
 4280TIP3    H112846   0.444   4.729   4.027
 4280TIP3    H212847   0.335   4.631   3.990
 4281TIP3   OH212848   2.902   2.573   1.855
 4281TIP3    H112849   2.953   2.561   1.936
 4281TIP3    H212850   2.912   2.665   1.834
 4282TIP3   OH212851   1.981   5.818   3.864
 4282TIP3    H112852   1.913   5.808   3.931
 4282TIP3    H212853   2.062   5.830   3.914
 4283TIP3   OH212854   4.733   4.534   2.803
 4283TIP3    H112855   4.710   4.471   2.735
 4283TIP3    H212856   4.718   4.619   2.764
 4284TIP3   OH212857   3.602   3.177   5.168
 4284TIP3    H112858   3.651   3.253   5.200
 4284TIP3    H212859   3.561   3.207   5.087
 4285TIP3   OH212860   1.175   5.835   2.053
 4285TIP3    H112861   1.179   5.740   2.055
 4285TIP3    H212862   1.104   5.855   1.991
 4286TIP3   OH212863   6.283   3.328   1.539
 4286TIP3    H112864   6.214   3.393   1.531
 4286TIP3    H212865   6.338   3.342   1.462
 4287TIP3   OH212866   2.565   2.411   4.773
 4287TIP3    H112867   2.479   2.438   4.805
 4287TIP3    H212868   2.622   2.417   4.849
 4288TIP3   OH212869   0.231   5.782   2.175
 4288TIP3    H112870   0.217   5.822   2.261
 4288TIP3    H212871   0.289   5.708   2.192
 4289TIP3   OH212872   1.722   1.736   3.036
 4289TIP3    H112873   1.654   1.728   3.103
 4289TIP3    H212874   1.687   1.689   2.960
 4290TIP3   OH212875   1.090   2.340   2.843
 4290TIP3    H112876   1.144   2.261   2.835
 4290TIP3    H212877   1.141   2.409   2.799
 4291TIP3   OH212878   5.417   3.971   0.777
 4291TIP3    H112879   5.443   3.946   0.688
 4291TIP3    H212880   5.499   3.996   0.819
 4292TIP3   OH212881   1.715   1.076   3.961
 4292TIP3    H112882   1.739   1.168   3.976
 4292TIP3    H212883   1.655   1.079   3.886
 4293TIP3   OH212884   3.803   2.440   1.206
 4293TIP3    H112885   3.861   2.471   1.275
 4293TIP3    H212886   3.732   2.395   1.252
 4294TIP3   OH212887   1.253   1.540   3.180
 4294TIP3    H112888   1.178   1.492   3.144
 4294TIP3    H212889   1.214   1.607   3.236
 4295TIP3   OH212890   0.361   1.353   1.055
 4295TIP3    H112891   0.322   1.285   1.111
 4295TIP3    H212892   0.411   1.304   0.990
 4296TIP3   OH212893   5.345   3.967   5.027
 4296TIP3    H112894   5.383   4.029   5.089
 4296TIP3    H212895   5.407   3.894   5.025
 4297TIP3   OH212896   1.029   4.891   4.984
 4297TIP3    H112897   0.963   4.929   5.042
 4297TIP3    H212898   1.031   4.798   5.007
 4298TIP3   OH212899   3.193   2.800   3.129
 4298TIP3    H112900   3.195   2.833   3.218
 4298TIP3    H212901   3.285   2.793   3.104
 4299TIP3   OH212902   6.198   3.021   0.922
 4299TIP3    H112903   6.256   2.944   0.914
 4299TIP3    H212904   6.257   3.096   0.918
 4300TIP3   OH212905   0.829   5.453   0.948
 4300TIP3    H112906   0.856   5.364   0.926
 4300TIP3    H212907   0.855   5.464   1.040
 4301TIP3   OH212908   2.230   1.470   2.443
 4301TIP3    H112909   2.300   1.408   2.419
 4301TIP3    H212910   2.254   1.500   2.530
 4302TIP3   OH212911   2.490   5.520   0.512
 4302TIP3    H112912   2.492   5.427   0.491
 4302TIP3    H212913   2.428   5.527   0.585
 4303TIP3   OH212914   4.104   5.426   4.960
 4303TIP3    H112915   4.109   5.332   4.981
 4303TIP3    H212916   4.052   5.463   5.032
 4304TIP3   OH212917   5.123   3.473   0.380
 4304TIP3    H112918   5.183   3.501   0.449
 4304TIP3    H212919   5.071   3.551   0.359
 4305TIP3   OH212920   1.196   0.046   2.100
 4305TIP3    H112921   1.148   0.105   2.042
 4305TIP3    H212922   1.239   0.105   2.163
 4306TIP3   OH212923   2.552   2.579   2.319
 4306TIP3    H112924   2.574   2.670   2.341
 4306TIP3    H212925   2.636   2.538   2.302
 4307TIP3   OH212926   5.977   0.481   3.538
 4307TIP3    H112927   5.959   0.420   3.609
 4307TIP3    H212928   5.998   0.563   3.582
 4308TIP3   OH212929   1.784   3.107   2.635
 4308TIP3    H112930   1.753   3.020   2.658
 4308TIP3    H212931   1.794   3.104   2.539
 4309TIP3   OH212932   2.852   2.749   2.903
 4309TIP3    H112933   2.815   2.675   2.854
 4309TIP3    H212934   2.922   2.710   2.956
 4310TIP3   OH212935   5.916   3.932   0.460
 4310TIP3    H112936   6.005   3.900   0.473
 4310TIP3    H212937   5.874   3.865   0.407
 4311TIP3   OH212938   3.009   5.901   1.066
 4311TIP3    H112939   3.092   5.866   1.098
 4311TIP3    H212940   3.023   5.996   1.063
 4312TIP3   OH212941   0.094   4.345   3.850
 4312TIP3    H112942   0.100   4.277   3.917
 4312TIP3    H212943   0.000   4.358   3.837
 4313TIP3   OH212944   1.513   0.083   0.990
 4313TIP3    H112945   1.431   0.122   1.022
 4313TIP3    H212946   1.503   0.083   0.895
 4314TIP3   OH212947   2.509   3.900   1.249
 4314TIP3    H112948   2.559   3.974   1.283
 4314TIP3    H212949   2.449   3.878   1.320
 4315TIP3   OH212950   4.912   3.117   4.584
 4315TIP3    H112951   5.001   3.134   4.614
 4315TIP3    H212952   4.860   3.111   4.665
 4316TIP3   OH212953   0.654   4.894   2.138
 4316TIP3    H112954   0.671   4.847   2.220
 4316TIP3    H212955   0.667   4.827   2.070
 4317TIP3   OH212956   0.200   2.486   3.462
 4317TIP3    H112957   0.150   2.405   3.474
 4317TIP3    H212958   0.179   2.515   3.374
 4318TIP3   OH212959   2.778   5.911   4.222
 4318TIP3    H112960   2.838   5.970   4.267
 4318TIP3    H212961   2.836   5.853   4.172
 4319TIP3   OH212962   5.087   4.416   3.109
 4319TIP3    H112963   5.000   4.377   3.120
 4319TIP3    H212964   5.085   4.453   3.020
 4320TIP3   OH212965   2.993   5.973   1.771
 4320TIP3    H112966   2.989   5.878   1.786
 4320TIP3    H212967   3.043   6.007   1.845
 4321TIP3   OH212968   4.327   0.055   2.641
 4321TIP3    H112969   4.255   0.087   2.696
 4321TIP3    H212970   4.384   0.131   2.630
 4322TIP3   OH212971   2.862   2.620   0.116
 4322TIP3    H112972   2.807   2.626   0.038
 4322TIP3    H212973   2.947   2.656   0.088
 4323TIP3   OH212974   2.102   1.976   0.675
 4323TIP3    H112975   2.112   2.025   0.593
 4323TIP3    H212976   2.122   2.040   0.743
 4324TIP3   OH212977   3.963   2.699   2.617
 4324TIP3    H112978   3.943   2.632   2.683
 4324TIP3    H212979   3.949   2.656   2.533
 4325TIP3   OH212980   4.859   3.202   0.945
 4325TIP3    H112981   4.942   3.184   0.901
 4325TIP3    H212982   4.793   3.167   0.886
 4326TIP3   OH212983   1.705   5.238   1.634
 4326TIP3    H112984   1.758   5.215   1.557
 4326TIP3    H212985   1.766   5.234   1.707
 4327TIP3   OH212986   4.687   4.414   0.994
 4327TIP3    H112987   4.713   4.482   1.055
 4327TIP3    H212988   4.673   4.460   0.911
 4328TIP3   OH212989   4.050   5.801   2.323
 4328TIP3    H112990   4.047   5.894   2.347
 4328TIP3    H212991   4.066   5.800   2.229
 4329TIP3   OH212992   2.390   5.380   2.225
 4329TIP3    H112993   2.300   5.386   2.194
 4329TIP3    H212994   2.420   5.471   2.233
 4330TIP3   OH212995   3.965   2.859   0.308
 4330TIP3    H112996   4.037   2.905   0.350
 4330TIP3    H212997   3.984   2.766   0.322
 4331TIP3   OH212998   1.356   5.468   4.682
 4331TIP3    H112999   1.392   5.535   4.740
 4331TIP3    H213000   1.267   5.498   4.662
 4332TIP3   OH213001   1.824   0.063   3.594
 4332TIP3    H113002   1.794  -0.019   3.635
 4332TIP3    H213003   1.901   0.037   3.543
 4333TIP3   OH213004   0.729   1.008   3.220
 4333TIP3    H113005   0.777   1.013   3.138
 4333TIP3    H213006   0.695   1.097   3.234
 4334TIP3   OH213007   4.507   3.791   3.570
 4334TIP3    H113008   4.424   3.754   3.600
 4334TIP3    H213009   4.486   3.881   3.547
 4335TIP3   OH213010   4.952   4.130   3.839
 4335TIP3    H113011   4.859   4.110   3.851
 4335TIP3    H213012   4.962   4.218   3.875
 4336TIP3   OH213013   0.429   3.602   1.072
 4336TIP3    H113014   0.347   3.651   1.083
 4336TIP3    H213015   0.409   3.514   1.106
 4337TIP3   OH213016   4.654   2.491   2.448
 4337TIP3    H113017   4.627   2.466   2.359
 4337TIP3    H213018   4.742   2.454   2.457
 4338TIP3   OH213019   5.577   2.839   0.257
 4338TIP3    H113020   5.641   2.879   0.198
 4338TIP3    H213021   5.600   2.746   0.258
 4339TIP3   OH213022   3.369   2.419   3.123
 4339TIP3    H113023   3.312   2.430   3.047
 4339TIP3    H213024   3.438   2.360   3.093
 4340TIP3   OH213025   3.877   4.481   3.907
 4340TIP3    H113026   3.851   4.549   3.845
 4340TIP3    H213027   3.959   4.446   3.872
 4341TIP3   OH213028   5.359   0.078   3.689
 4341TIP3    H113029   5.291   0.087   3.756
 4341TIP3    H213030   5.313   0.093   3.606
 4342TIP3   OH213031   4.367   5.071   0.137
 4342TIP3    H113032   4.339   5.041   0.050
 4342TIP3    H213033   4.294   5.048   0.194
 4343TIP3   OH213034   1.602   6.015   4.223
 4343TIP3    H113035   1.536   5.966   4.173
 4343TIP3    H213036   1.574   6.006   4.314
 4344TIP3   OH213037   2.682   3.342   3.853
 4344TIP3    H113038   2.631   3.348   3.934
 4344TIP3    H213039   2.734   3.262   3.864
 4345TIP3   OH213040   6.075   2.149   0.667
 4345TIP3    H113041   6.070   2.242   0.687
 4345TIP3    H213042   6.014   2.108   0.728
 4346TIP3   OH213043   3.437   4.725   2.874
 4346TIP3    H113044   3.390   4.807   2.859
 4346TIP3    H213045   3.374   4.657   2.852
 4347TIP3   OH213046   5.334   3.112   3.517
 4347TIP3    H113047   5.397   3.096   3.587
 4347TIP3    H213048   5.347   3.204   3.492
 4348TIP3   OH213049   5.092   2.806   4.601
 4348TIP3    H113050   5.142   2.758   4.668
 4348TIP3    H213051   5.145   2.884   4.583
 4349TIP3   OH213052   0.438   3.926   3.180
 4349TIP3    H113053   0.432   4.017   3.209
 4349TIP3    H213054   0.363   3.883   3.221
 4350TIP3   OH213055   5.315   5.338   1.622
 4350TIP3    H113056   5.383   5.336   1.689
 4350TIP3    H213057   5.277   5.251   1.624
 4351TIP3   OH213058   4.866   4.894   1.637
 4351TIP3    H113059   4.947   4.845   1.622
 4351TIP3    H213060   4.863   4.908   1.731
 4352TIP3   OH213061   3.617   4.242   3.647
 4352TIP3    H113062   3.668   4.321   3.633
 4352TIP3    H213063   3.677   4.170   3.627
 4353TIP3   OH213064   1.799   5.178   1.275
 4353TIP3    H113065   1.778   5.093   1.235
 4353TIP3    H213066   1.714   5.213   1.302
 4354TIP3   OH213067   1.876   5.008   0.256
 4354TIP3    H113068   1.789   4.982   0.225
 4354TIP3    H213069   1.934   4.938   0.225
 4355TIP3   OH213070   1.063   4.469   2.734
 4355TIP3    H113071   1.101   4.439   2.817
 4355TIP3    H213072   0.985   4.416   2.722
 4356TIP3   OH213073   1.982   1.270   4.979
 4356TIP3    H113074   2.055   1.271   4.917
 4356TIP3    H213075   1.933   1.191   4.956
 4357TIP3   OH213076   5.002   1.063   1.669
 4357TIP3    H113077   4.922   1.026   1.708
 4357TIP3    H213078   4.970   1.123   1.602
 4358TIP3   OH213079   5.753   1.590   3.859
 4358TIP3    H113080   5.720   1.503   3.878
 4358TIP3    H213081   5.828   1.600   3.917
 4359TIP3   OH213082   1.320   4.350   4.499
 4359TIP3    H113083   1.226   4.336   4.489
 4359TIP3    H213084   1.334   4.440   4.470
 4360TIP3   OH213085   5.187   5.083   1.581
 4360TIP3    H113086   5.247   5.014   1.552
 4360TIP3    H213087   5.192   5.080   1.676
 4361TIP3   OH213088   2.009   1.083   3.755
 4361TIP3    H113089   1.992   1.165   3.801
 4361TIP3    H213090   2.064   1.033   3.814
 4362TIP3   OH213091   2.518   2.159   3.982
 4362TIP3    H113092   2.469   2.080   4.005
 4362TIP3    H213093   2.486   2.183   3.895
 4363TIP3   OH213094   1.398   5.608   5.117
 4363TIP3    H113095   1.440   5.618   5.202
 4363TIP3    H213096   1.334   5.537   5.130
 4364TIP3   OH213097   5.744   0.476   3.010
 4364TIP3    H113098   5.823   0.479   2.956
 4364TIP3    H213099   5.775   0.500   3.097
 4365TIP3   OH213100   3.053   0.299   4.590
 4365TIP3    H113101   2.974   0.350   4.605
 4365TIP3    H213102   3.118   0.364   4.562
 4366TIP3   OH213103   2.584   4.170   0.419
 4366TIP3    H113104   2.669   4.213   0.431
 4366TIP3    H213105   2.557   4.144   0.507
 4367TIP3   OH213106   5.727   5.536   4.821
 4367TIP3    H113107   5.744   5.442   4.816
 4367TIP3    H213108   5.674   5.555   4.743
 4368TIP3   OH213109   3.615   2.173   3.602
 4368TIP3    H113110   3.653   2.170   3.514
 4368TIP3    H213111   3.524   2.201   3.588
 4369TIP3   OH213112   1.551   1.936   4.471
 4369TIP3    H113113   1.461   1.966   4.489
 4369TIP3    H213114   1.553   1.847   4.505
 4370TIP3   OH213115   6.190   5.001   0.042
 4370TIP3    H113116   6.205   4.906   0.042
 4370TIP3    H213117   6.223   5.031  -0.043
 4371TIP3   OH213118   3.758   0.255   3.644
 4371TIP3    H113119   3.839   0.224   3.685
 4371TIP3    H213120   3.691   0.239   3.710
 4372TIP3   OH213121   0.100   3.440   3.600
 4372TIP3    H113122   0.185   3.415   3.564
 4372TIP3    H213123   0.040   3.436   3.525
 4373TIP3   OH213124   0.524   0.723   3.320
 4373TIP3    H113125   0.429   0.720   3.331
 4373TIP3    H213126   0.538   0.758   3.232
 4374TIP3   OH213127   4.257   4.924   2.787
 4374TIP3    H113128   4.270   4.834   2.760
 4374TIP3    H213129   4.184   4.921   2.849
 4375TIP3   OH213130   1.138   3.595   3.066
 4375TIP3    H113131   1.213   3.555   3.110
 4375TIP3    H213132   1.136   3.553   2.980
 4376TIP3   OH213133   0.622   5.274   2.153
 4376TIP3    H113134   0.551   5.309   2.098
 4376TIP3    H213135   0.683   5.236   2.090
 4377TIP3   OH213136   5.414   1.508   2.616
 4377TIP3    H113137   5.448   1.451   2.686
 4377TIP3    H213138   5.365   1.576   2.663
 4378TIP3   OH213139   4.075   4.790   3.313
 4378TIP3    H113140   4.138   4.743   3.259
 4378TIP3    H213141   3.990   4.753   3.288
 4379TIP3   OH213142   2.165   2.740   4.882
 4379TIP3    H113143   2.170   2.821   4.831
 4379TIP3    H213144   2.247   2.739   4.932
 4380TIP3   OH213145   1.223   4.560   5.092
 4380TIP3    H113146   1.257   4.583   5.005
 4380TIP3    H213147   1.157   4.627   5.111
 4381TIP3   OH213148   0.620   1.413   4.987
 4381TIP3    H113149   0.554   1.441   4.923
 4381TIP3    H213150   0.690   1.375   4.934
 4382TIP3   OH213151   1.864   2.904   1.670
 4382TIP3    H113152   1.944   2.869   1.708
 4382TIP3    H213153   1.797   2.839   1.693
 4383TIP3   OH213154   0.814   0.311   4.292
 4383TIP3    H113155   0.848   0.354   4.213
 4383TIP3    H213156   0.893   0.289   4.342
 4384TIP3   OH213157   1.730   5.669   0.049
 4384TIP3    H113158   1.643   5.703   0.066
 4384TIP3    H213159   1.752   5.700  -0.039
 4385TIP3   OH213160   1.759   1.426   4.795
 4385TIP3    H113161   1.739   1.367   4.722
 4385TIP3    H213162   1.778   1.368   4.868
 4386TIP3   OH213163   2.514   5.640   1.496
 4386TIP3    H113164   2.452   5.714   1.491
 4386TIP3    H213165   2.579   5.669   1.560
 4387TIP3   OH213166   4.504   2.266   4.187
 4387TIP3    H113167   4.509   2.175   4.217
 4387TIP3    H213168   4.411   2.289   4.196
 4388TIP3   OH213169   3.641   2.369   0.708
 4388TIP3    H113170   3.573   2.348   0.773
 4388TIP3    H213171   3.664   2.460   0.727
 4389TIP3   OH213172   3.118   2.399   4.949
 4389TIP3    H113173   3.145   2.406   5.041
 4389TIP3    H213174   3.091   2.308   4.939
 4390TIP3   OH213175   4.965   2.234   0.555
 4390TIP3    H113176   4.875   2.218   0.584
 4390TIP3    H213177   4.983   2.164   0.493
 4391TIP3   OH213178   0.165   5.234   3.579
 4391TIP3    H113179   0.115   5.262   3.656
 4391TIP3    H213180   0.116   5.159   3.544
 4392TIP3   OH213181   3.389   3.334   4.466
 4392TIP3    H113182   3.459   3.314   4.405
 4392TIP3    H213183   3.337   3.254   4.472
 4393TIP3   OH213184   4.667   1.436   3.752
 4393TIP3    H113185   4.676   1.391   3.836
 4393TIP3    H213186   4.616   1.377   3.697
 4394TIP3   OH213187   5.422   4.539   2.493
 4394TIP3    H113188   5.350   4.535   2.430
 4394TIP3    H213189   5.379   4.549   2.578
 4395TIP3   OH213190   0.260   3.238   1.664
 4395TIP3    H113191   0.229   3.307   1.605
 4395TIP3    H213192   0.286   3.167   1.606
 4396TIP3   OH213193   5.811   4.712   2.047
 4396TIP3    H113194   5.899   4.750   2.052
 4396TIP3    H213195   5.812   4.662   1.966
 4397TIP3   OH213196   1.446   0.879   5.165
 4397TIP3    H113197   1.477   0.852   5.078
 4397TIP3    H213198   1.362   0.835   5.174
 4398TIP3   OH213199   4.361   2.821   0.095
 4398TIP3    H113200   4.315   2.737   0.098
 4398TIP3    H213201   4.296   2.883   0.062
 4399TIP3   OH213202   1.895   4.367   3.106
 4399TIP3    H113203   1.984   4.400   3.114
 4399TIP3    H213204   1.857   4.418   3.034
 4400TIP3   OH213205   2.557   3.661   4.873
 4400TIP3    H113206   2.521   3.747   4.894
 4400TIP3    H213207   2.513   3.601   4.933
 4401TIP3   OH213208   5.002   2.147   4.947
 4401TIP3    H113209   4.994   2.060   4.988
 4401TIP3    H213210   5.050   2.199   5.012
 4402TIP3   OH213211   3.686   2.743   2.721
 4402TIP3    H113212   3.769   2.791   2.714
 4402TIP3    H213213   3.628   2.803   2.768
 4403TIP3   OH213214   6.076   0.811   0.791
 4403TIP3    H113215   6.012   0.870   0.829
 4403TIP3    H213216   6.039   0.724   0.804
 4404TIP3   OH213217   0.252   3.399   2.121
 4404TIP3    H113218   0.338   3.436   2.099
 4404TIP3    H213219   0.220   3.362   2.038
 4405TIP3   OH213220   4.702   4.153   4.434
 4405TIP3    H113221   4.790   4.173   4.466
 4405TIP3    H213222   4.643   4.200   4.494
 4406TIP3   OH213223   4.262   4.156   4.746
 4406TIP3    H113224   4.283   4.108   4.826
 4406TIP3    H213225   4.250   4.088   4.679
 4407TIP3   OH213226   3.269   2.571   3.336
 4407TIP3    H113227   3.292   2.660   3.308
 4407TIP3    H213228   3.323   2.514   3.282
 4408TIP3   OH213229   4.731   4.030   4.145
 4408TIP3    H113230   4.710   4.096   4.079
 4408TIP3    H213231   4.727   4.077   4.229
 4409TIP3   OH213232   0.536   2.887   0.199
 4409TIP3    H113233   0.610   2.944   0.177
 4409TIP3    H213234   0.487   2.879   0.117
 4410TIP3   OH213235   3.627   2.207   2.737
 4410TIP3    H113236   3.568   2.274   2.771
 4410TIP3    H213237   3.586   2.124   2.763
 4411TIP3   OH213238   5.873   2.683   3.891
 4411TIP3    H113239   5.965   2.662   3.874
 4411TIP3    H213240   5.874   2.776   3.915
 4412TIP3   OH213241   5.257   2.959   3.785
 4412TIP3    H113242   5.348   2.945   3.760
 4412TIP3    H213243   5.207   2.897   3.732
 4413TIP3   OH213244   5.263   0.920   1.716
 4413TIP3    H113245   5.256   0.949   1.807
 4413TIP3    H213246   5.187   0.959   1.673
 4414TIP3   OH213247   3.255   4.827   3.961
 4414TIP3    H113248   3.257   4.865   4.048
 4414TIP3    H213249   3.347   4.807   3.942
 4415TIP3   OH213250   2.561   3.607   3.628
 4415TIP3    H113251   2.541   3.571   3.715
 4415TIP3    H213252   2.649   3.575   3.608
 4416TIP3   OH213253   4.790   5.036   2.584
 4416TIP3    H113254   4.876   5.009   2.617
 4416TIP3    H213255   4.800   5.037   2.489
 4417TIP3   OH213256   1.521   3.488   0.698
 4417TIP3    H113257   1.548   3.403   0.735
 4417TIP3    H213258   1.435   3.471   0.659
 4418TIP3   OH213259   4.626   5.917   1.748
 4418TIP3    H113260   4.689   5.922   1.820
 4418TIP3    H213261   4.679   5.899   1.671
 4419TIP3   OH213262   5.522   0.903   4.768
 4419TIP3    H113263   5.466   0.839   4.812
 4419TIP3    H213264   5.604   0.901   4.818
 4420TIP3   OH213265   0.544   1.853   2.081
 4420TIP3    H113266   0.533   1.926   2.142
 4420TIP3    H213267   0.633   1.864   2.046
 4421TIP3   OH213268   1.174   4.231   4.769
 4421TIP3    H113269   1.115   4.206   4.698
 4421TIP3    H213270   1.156   4.324   4.784
 4422TIP3   OH213271   0.431   2.821   2.399
 4422TIP3    H113272   0.376   2.785   2.329
 4422TIP3    H213273   0.373   2.880   2.447
 4423TIP3   OH213274   4.678   3.431   0.891
 4423TIP3    H113275   4.642   3.353   0.933
 4423TIP3    H213276   4.746   3.462   0.951
 4424TIP3   OH213277   1.762   5.847   5.065
 4424TIP3    H113278   1.812   5.784   5.117
 4424TIP3    H213279   1.772   5.818   4.975
 4425TIP3   OH213280   5.190   3.301   1.442
 4425TIP3    H113281   5.137   3.267   1.514
 4425TIP3    H213282   5.204   3.393   1.464
 4426TIP3   OH213283   6.122   0.051   1.872
 4426TIP3    H113284   6.099   0.120   1.809
 4426TIP3    H213285   6.087  -0.029   1.834
 4427TIP3   OH213286   3.429   2.246   1.629
 4427TIP3    H113287   3.435   2.177   1.563
 4427TIP3    H213288   3.490   2.218   1.698
 4428TIP3   OH213289   1.931   1.701   3.987
 4428TIP3    H113290   1.851   1.750   3.965
 4428TIP3    H213291   1.987   1.765   4.031
 4429TIP3   OH213292   0.593   5.063   4.687
 4429TIP3    H113293   0.651   5.130   4.650
 4429TIP3    H213294   0.652   4.992   4.711
 4430TIP3   OH213295   0.591   3.823   3.509
 4430TIP3    H113296   0.641   3.784   3.581
 4430TIP3    H213297   0.500   3.799   3.527
 4431TIP3   OH213298   0.132   5.591   3.853
 4431TIP3    H113299   0.064   5.646   3.892
 4431TIP3    H213300   0.083   5.524   3.805
 4432TIP3   OH213301   4.094   1.496   3.354
 4432TIP3    H113302   4.105   1.564   3.288
 4432TIP3    H213303   4.070   1.418   3.303
 4433TIP3   OH213304   0.202   3.959   0.291
 4433TIP3    H113305   0.235   3.961   0.201
 4433TIP3    H213306   0.120   4.007   0.288
 4434TIP3   OH213307   6.033   5.684   0.446
 4434TIP3    H113308   6.070   5.628   0.377
 4434TIP3    H213309   6.110   5.721   0.489
 4435TIP3   OH213310   1.700   3.703   3.326
 4435TIP3    H113311   1.668   3.748   3.248
 4435TIP3    H213312   1.792   3.684   3.307
 4436TIP3   OH213313   1.784   1.131   0.033
 4436TIP3    H113314   1.714   1.132  -0.033
 4436TIP3    H213315   1.755   1.193   0.100
 4437TIP3   OH213316   3.170   3.136   1.417
 4437TIP3    H113317   3.124   3.203   1.469
 4437TIP3    H213318   3.169   3.058   1.473
 4438TIP3   OH213319   0.761   3.777   1.592
 4438TIP3    H113320   0.778   3.698   1.643
 4438TIP3    H213321   0.829   3.839   1.620
 4439TIP3   OH213322   3.000   4.969   1.555
 4439TIP3    H113323   3.035   4.946   1.641
 4439TIP3    H213324   2.935   5.038   1.573
 4440TIP3   OH213325   5.922   2.823   1.614
 4440TIP3    H113326   5.842   2.774   1.594
 4440TIP3    H213327   5.967   2.830   1.530
 4441TIP3   OH213328   1.437   2.721   1.576
 4441TIP3    H113329   1.425   2.629   1.555
 4441TIP3    H213330   1.365   2.741   1.636
 4442TIP3   OH213331   2.717   0.613   2.919
 4442TIP3    H113332   2.785   0.589   2.856
 4442TIP3    H213333   2.670   0.531   2.936
 4443TIP3   OH213334   1.956   1.299   3.555
 4443TIP3    H113335   1.957   1.289   3.650
 4443TIP3    H213336   1.888   1.239   3.525
 4444TIP3   OH213337   1.844   3.185   5.111
 4444TIP3    H113338   1.796   3.106   5.085
 4444TIP3    H213339   1.870   3.225   5.028
 4445TIP3   OH213340   5.115   1.809   3.353
 4445TIP3    H113341   5.090   1.730   3.306
 4445TIP3    H213342   5.047   1.820   3.419
 4446TIP3   OH213343   0.179   5.482   4.825
 4446TIP3    H113344   0.089   5.486   4.857
 4446TIP3    H213345   0.227   5.544   4.881
 4447TIP3   OH213346   3.440   5.405   3.909
 4447TIP3    H113347   3.368   5.468   3.905
 4447TIP3    H213348   3.467   5.405   4.000
 4448TIP3   OH213349   4.586   0.328   1.285
 4448TIP3    H113350   4.633   0.381   1.220
 4448TIP3    H213351   4.641   0.251   1.297
 4449TIP3   OH213352   3.505   1.228   1.717
 4449TIP3    H113353   3.439   1.296   1.734
 4449TIP3    H213354   3.489   1.162   1.783
 4450TIP3   OH213355   4.410   0.661   4.391
 4450TIP3    H113356   4.335   0.696   4.342
 4450TIP3    H213357   4.447   0.595   4.332
 4451TIP3   OH213358   2.452   3.137   5.019
 4451TIP3    H113359   2.524   3.145   5.081
 4451TIP3    H213360   2.377   3.175   5.064
 4452TIP3   OH213361   1.897   0.155   2.803
 4452TIP3    H113362   1.825   0.201   2.759
 4452TIP3    H213363   1.860   0.069   2.825
 4453TIP3   OH213364   1.212   1.836   5.021
 4453TIP3    H113365   1.267   1.772   5.065
 4453TIP3    H213366   1.163   1.786   4.956
 4454TIP3   OH213367   0.611   2.093   4.672
 4454TIP3    H113368   0.597   1.999   4.676
 4454TIP3    H213369   0.698   2.106   4.708
 4455TIP3   OH213370   1.722   1.710   0.754
 4455TIP3    H113371   1.697   1.791   0.709
 4455TIP3    H213372   1.648   1.692   0.812
 4456TIP3   OH213373   6.017   0.724   5.036
 4456TIP3    H113374   5.975   0.715   4.950
 4456TIP3    H213375   5.962   0.674   5.096
 4457TIP3   OH213376   4.130   1.314   4.519
 4457TIP3    H113377   4.139   1.303   4.614
 4457TIP3    H213378   4.215   1.287   4.484
 4458TIP3   OH213379   4.739   5.067   0.766
 4458TIP3    H113380   4.666   5.129   0.770
 4458TIP3    H213381   4.801   5.106   0.704
 4459TIP3   OH213382   2.062   0.351   3.902
 4459TIP3    H113383   2.051   0.445   3.892
 4459TIP3    H213384   1.972   0.317   3.904
 4460TIP3   OH213385   1.546   2.796   4.500
 4460TIP3    H113386   1.561   2.715   4.451
 4460TIP3    H213387   1.478   2.773   4.564
 4461TIP3   OH213388   6.105   3.748   0.188
 4461TIP3    H113389   6.179   3.711   0.140
 4461TIP3    H213390   6.099   3.839   0.159
 4462TIP3   OH213391   6.163   1.671   2.786
 4462TIP3    H113392   6.173   1.765   2.802
 4462TIP3    H213393   6.069   1.659   2.773
 4463TIP3   OH213394   5.136   1.460   4.210
 4463TIP3    H113395   5.221   1.489   4.243
 4463TIP3    H213396   5.072   1.510   4.261
 4464TIP3   OH213397   2.616   4.814   0.215
 4464TIP3    H113398   2.633   4.754   0.287
 4464TIP3    H213399   2.693   4.806   0.159
 4465TIP3   OH213400   6.085   2.428   1.975
 4465TIP3    H113401   5.998   2.468   1.963
 4465TIP3    H213402   6.106   2.443   2.067
 4466TIP3   OH213403   6.144   2.878   2.605
 4466TIP3    H113404   6.238   2.878   2.586
 4466TIP3    H213405   6.102   2.856   2.522
 4467TIP3   OH213406   3.016   1.711   0.144
 4467TIP3    H113407   3.096   1.736   0.190
 4467TIP3    H213408   2.947   1.762   0.185
 4468TIP3   OH213409   3.438   0.968   4.608
 4468TIP3    H113410   3.420   0.881   4.642
 4468TIP3    H213411   3.418   1.027   4.681
 4469TIP3   OH213412   5.701   5.181   1.997
 4469TIP3    H113413   5.651   5.124   2.055
 4469TIP3    H213414   5.785   5.137   1.986
 4470TIP3   OH213415   5.188   0.147   1.558
 4470TIP3    H113416   5.163   0.094   1.634
 4470TIP3    H213417   5.268   0.106   1.524
 4471TIP3   OH213418   4.843   4.426   4.880
 4471TIP3    H113419   4.868   4.514   4.910
 4471TIP3    H213420   4.905   4.405   4.811
 4472TIP3   OH213421   3.042   2.097   4.629
 4472TIP3    H113422   3.079   2.163   4.688
 4472TIP3    H213423   3.115   2.071   4.573
 4473TIP3   OH213424   0.224   4.749   1.145
 4473TIP3    H113425   0.166   4.697   1.200
 4473TIP3    H213426   0.174   4.828   1.124
 4474TIP3   OH213427   0.976   4.863   2.949
 4474TIP3    H113428   0.985   4.835   2.858
 4474TIP3    H213429   0.964   4.781   2.998
 4475TIP3   OH213430   2.834   5.105   4.727
 4475TIP3    H113431   2.831   5.188   4.680
 4475TIP3    H213432   2.780   5.119   4.805
 4476TIP3   OH213433   1.804   4.339   0.568
 4476TIP3    H113434   1.726   4.287   0.587
 4476TIP3    H213435   1.866   4.276   0.531
 4477TIP3   OH213436   3.999   1.676   3.160
 4477TIP3    H113437   3.937   1.727   3.212
 4477TIP3    H213438   3.959   1.672   3.073
 4478TIP3   OH213439   5.075   4.392   1.131
 4478TIP3    H113440   5.022   4.439   1.195
 4478TIP3    H213441   5.142   4.455   1.104
 4479TIP3   OH213442   2.163   2.168   4.091
 4479TIP3    H113443   2.245   2.195   4.133
 4479TIP3    H213444   2.097   2.225   4.131
 4480TIP3   OH213445   0.211   2.481   1.749
 4480TIP3    H113446   0.121   2.494   1.716
 4480TIP3    H213447   0.223   2.386   1.749
 4481TIP3   OH213448   1.977   4.461   1.274
 4481TIP3    H113449   1.904   4.522   1.275
 4481TIP3    H213450   2.039   4.496   1.339
 4482TIP3   OH213451   5.879   5.082   4.119
 4482TIP3    H113452   5.915   5.165   4.149
 4482TIP3    H213453   5.801   5.106   4.069
 4483TIP3   OH213454   5.098   2.460   3.810
 4483TIP3    H113455   5.048   2.541   3.802
 4483TIP3    H213456   5.113   2.432   3.719
 4484TIP3   OH213457   3.939   0.129   2.249
 4484TIP3    H113458   3.848   0.120   2.221
 4484TIP3    H213459   3.934   0.138   2.344
 4485TIP3   OH213460   0.126   5.388   3.038
 4485TIP3    H113461   0.189   5.436   3.093
 4485TIP3    H213462   0.136   5.426   2.951
 4486TIP3   OH213463   3.313   5.444   2.278
 4486TIP3    H113464   3.328   5.354   2.249
 4486TIP3    H213465   3.351   5.447   2.365
 4487TIP3   OH213466   0.872   2.909   4.118
 4487TIP3    H113467   0.950   2.868   4.155
 4487TIP3    H213468   0.861   2.866   4.033
 4488TIP3   OH213469   6.261   1.864   1.942
 4488TIP3    H113470   6.333   1.908   1.896
 4488TIP3    H213471   6.290   1.860   2.033
 4489TIP3   OH213472   6.111   2.602   4.731
 4489TIP3    H113473   6.181   2.666   4.720
 4489TIP3    H213474   6.154   2.517   4.723
 4490TIP3   OH213475   4.220   2.120   2.462
 4490TIP3    H113476   4.220   2.164   2.547
 4490TIP3    H213477   4.128   2.098   2.446
 4491TIP3   OH213478   6.162   5.455   1.238
 4491TIP3    H113479   6.150   5.379   1.182
 4491TIP3    H213480   6.088   5.453   1.299
 4492TIP3   OH213481   4.195   0.551   0.339
 4492TIP3    H113482   4.100   0.540   0.345
 4492TIP3    H213483   4.223   0.565   0.430
 4493TIP3   OH213484   1.104   3.139   0.565
 4493TIP3    H113485   1.135   3.065   0.617
 4493TIP3    H213486   1.109   3.109   0.474
 4494TIP3   OH213487   3.653   0.789   4.209
 4494TIP3    H113488   3.640   0.873   4.252
 4494TIP3    H213489   3.748   0.779   4.205
 4495TIP3   OH213490   0.930   1.646   5.095
 4495TIP3    H113491   1.002   1.585   5.111
 4495TIP3    H213492   0.895   1.620   5.010
 4496TIP3   OH213493   4.858   5.038   4.198
 4496TIP3    H113494   4.913   4.960   4.191
 4496TIP3    H213495   4.798   5.018   4.270
 4497TIP3   OH213496   1.480   3.892   0.661
 4497TIP3    H113497   1.438   3.813   0.695
 4497TIP3    H213498   1.520   3.864   0.578
 4498TIP3   OH213499   1.356   4.143   2.947
 4498TIP3    H113500   1.279   4.094   2.977
 4498TIP3    H213501   1.377   4.105   2.862
 4499TIP3   OH213502   5.775   0.276   0.671
 4499TIP3    H113503   5.714   0.209   0.641
 4499TIP3    H213504   5.760   0.350   0.612
 4500TIP3   OH213505   4.124   1.114   0.549
 4500TIP3    H113506   4.188   1.100   0.619
 4500TIP3    H213507   4.177   1.136   0.472
 4501TIP3   OH213508   4.280   5.941   3.383
 4501TIP3    H113509   4.269   5.970   3.292
 4501TIP3    H213510   4.207   5.881   3.397
 4502TIP3   OH213511   0.435   1.272   0.780
 4502TIP3    H113512   0.505   1.248   0.840
 4502TIP3    H213513   0.413   1.191   0.735
 4503TIP3   OH213514   2.836   0.338   2.734
 4503TIP3    H113515   2.907   0.314   2.794
 4503TIP3    H213516   2.773   0.266   2.742
 4504TIP3   OH213517   3.269   5.509   4.268
 4504TIP3    H113518   3.344   5.563   4.294
 4504TIP3    H213519   3.274   5.507   4.173
 4505TIP3   OH213520   1.804   1.679   1.582
 4505TIP3    H113521   1.890   1.685   1.542
 4505TIP3    H213522   1.749   1.639   1.515
 4506TIP3   OH213523   6.301   3.137   0.413
 4506TIP3    H113524   6.277   3.173   0.327
 4506TIP3    H213525   6.320   3.214   0.467
 4507TIP3   OH213526   2.521   2.640   1.480
 4507TIP3    H113527   2.608   2.612   1.452
 4507TIP3    H213528   2.466   2.563   1.467
 4508TIP3   OH213529   1.947   3.199   3.123
 4508TIP3    H113530   1.925   3.153   3.204
 4508TIP3    H213531   1.879   3.172   3.061
 4509TIP3   OH213532   4.922   5.162   1.593
 4509TIP3    H113533   4.862   5.092   1.569
 4509TIP3    H213534   5.008   5.120   1.594
 4510TIP3   OH213535   0.426   2.751   5.118
 4510TIP3    H113536   0.467   2.704   5.045
 4510TIP3    H213537   0.333   2.752   5.096
 4511TIP3   OH213538   2.260   0.258   1.499
 4511TIP3    H113539   2.343   0.301   1.478
 4511TIP3    H213540   2.240   0.286   1.588
 4512TIP3   OH213541   5.465   5.139   1.390
 4512TIP3    H113542   5.399   5.204   1.366
 4512TIP3    H213543   5.531   5.189   1.439
 4513TIP3   OH213544   5.650   2.194   2.012
 4513TIP3    H113545   5.641   2.147   1.930
 4513TIP3    H213546   5.627   2.129   2.079
 4514TIP3   OH213547   3.024   3.321   1.590
 4514TIP3    H113548   2.995   3.406   1.556
 4514TIP3    H213549   2.966   3.304   1.664
 4515TIP3   OH213550   2.985   3.467   3.135
 4515TIP3    H113551   2.984   3.557   3.102
 4515TIP3    H213552   2.917   3.466   3.203
 4516TIP3   OH213553   4.829   3.411   0.423
 4516TIP3    H113554   4.882   3.433   0.347
 4516TIP3    H213555   4.742   3.393   0.386
 4517TIP3   OH213556   1.631   3.003   0.431
 4517TIP3    H113557   1.606   2.960   0.513
 4517TIP3    H213558   1.610   2.940   0.363
 4518TIP3   OH213559   1.972   5.860   2.341
 4518TIP3    H113560   1.923   5.796   2.289
 4518TIP3    H213561   1.963   5.942   2.294
 4519TIP3   OH213562   5.283   3.405   3.472
 4519TIP3    H113563   5.207   3.400   3.414
 4519TIP3    H213564   5.246   3.401   3.561
 4520TIP3   OH213565   4.084   2.191   0.431
 4520TIP3    H113566   4.175   2.170   0.410
 4520TIP3    H213567   4.087   2.220   0.523
 4521TIP3   OH213568   5.411   5.202   2.746
 4521TIP3    H113569   5.369   5.230   2.827
 4521TIP3    H213570   5.361   5.244   2.677
 4522TIP3   OH213571   0.676   3.110   2.549
 4522TIP3    H113572   0.692   3.106   2.455
 4522TIP3    H213573   0.580   3.109   2.556
 4523TIP3   OH213574   1.422   1.179   3.904
 4523TIP3    H113575   1.487   1.216   3.845
 4523TIP3    H213576   1.344   1.165   3.849
 4524TIP3   OH213577   2.750   3.921   2.359
 4524TIP3    H113578   2.713   3.896   2.443
 4524TIP3    H213579   2.781   4.011   2.372
 4525TIP3   OH213580   0.284   0.516   4.340
 4525TIP3    H113581   0.291   0.598   4.389
 4525TIP3    H213582   0.363   0.467   4.365
 4526TIP3   OH213583   2.272   4.654   3.242
 4526TIP3    H113584   2.265   4.679   3.150
 4526TIP3    H213585   2.325   4.723   3.281
 4527TIP3   OH213586   1.942   4.823   3.041
 4527TIP3    H113587   2.022   4.874   3.041
 4527TIP3    H213588   1.909   4.830   3.131
 4528TIP3   OH213589   4.876   0.873   4.100
 4528TIP3    H113590   4.955   0.861   4.047
 4528TIP3    H213591   4.861   0.788   4.141
 4529TIP3   OH213592   0.903   3.364   0.258
 4529TIP3    H113593   0.991   3.329   0.267
 4529TIP3    H213594   0.883   3.402   0.344
 4530TIP3   OH213595   0.052   4.536   2.906
 4530TIP3    H113596   0.115   4.597   2.944
 4530TIP3    H213597   0.042   4.468   2.974
 4531TIP3   OH213598   3.027   5.437   1.458
 4531TIP3    H113599   3.065   5.358   1.498
 4531TIP3    H213600   3.037   5.423   1.364
 4532TIP3   OH213601   3.247   5.226   3.025
 4532TIP3    H113602   3.321   5.169   3.004
 4532TIP3    H213603   3.288   5.309   3.050
 4533TIP3   OH213604   4.389   4.352   4.096
 4533TIP3    H113605   4.337   4.421   4.054
 4533TIP3    H213606   4.366   4.358   4.189
 4534TIP3   OH213607   2.947   4.021   2.958
 4534TIP3    H113608   2.997   4.035   2.879
 4534TIP3    H213609   2.996   4.066   3.027
 4535TIP3   OH213610   4.395   1.930   3.013
 4535TIP3    H113611   4.490   1.943   3.011
 4535TIP3    H213612   4.365   1.981   3.088
 4536TIP3   OH213613   3.126   3.326   2.519
 4536TIP3    H113614   3.196   3.291   2.463
 4536TIP3    H213615   3.172   3.359   2.597
 4537TIP3   OH213616   2.267   5.965   5.062
 4537TIP3    H113617   2.308   6.052   5.060
 4537TIP3    H213618   2.325   5.913   5.117
 4538TIP3   OH213619   1.956   0.353   4.574
 4538TIP3    H113620   2.050   0.362   4.555
 4538TIP3    H213621   1.930   0.439   4.605
 4539TIP3   OH213622   5.126   0.103   2.027
 4539TIP3    H113623   5.040   0.144   2.024
 4539TIP3    H213624   5.185   0.172   2.058
 4540TIP3   OH213625   4.789   5.578   1.791
 4540TIP3    H113626   4.723   5.641   1.762
 4540TIP3    H213627   4.746   5.530   1.862
 4541TIP3   OH213628   1.493   3.928   4.622
 4541TIP3    H113629   1.521   3.847   4.665
 4541TIP3    H213630   1.428   3.966   4.681
 4542TIP3   OH213631   1.829   5.006   4.720
 4542TIP3    H113632   1.766   4.942   4.753
 4542TIP3    H213633   1.864   4.967   4.640
 4543TIP3   OH213634   1.962   2.611   5.178
 4543TIP3    H113635   2.052   2.581   5.167
 4543TIP3    H213636   1.909   2.550   5.126
 4544TIP3   OH213637   1.479   4.373   0.344
 4544TIP3    H113638   1.492   4.458   0.385
 4544TIP3    H213639   1.451   4.394   0.254
 4545TIP3   OH213640   1.984   1.851   4.315
 4545TIP3    H113641   2.036   1.902   4.377
 4545TIP3    H213642   2.036   1.849   4.235
 4546TIP3   OH213643   5.636   5.325   1.521
 4546TIP3    H113644   5.615   5.333   1.614
 4546TIP3    H213645   5.633   5.414   1.487
 4547TIP3   OH213646   2.549   4.585   0.930
 4547TIP3    H113647   2.518   4.496   0.914
 4547TIP3    H213648   2.486   4.641   0.885
 4548TIP3   OH213649   3.167   1.435   4.149
 4548TIP3    H113650   3.194   1.521   4.117
 4548TIP3    H213651   3.100   1.406   4.087
 4549TIP3   OH213652   4.239   2.866   3.421
 4549TIP3    H113653   4.234   2.915   3.339
 4549TIP3    H213654   4.149   2.866   3.454
 4550TIP3   OH213655   0.425   4.611   1.012
 4550TIP3    H113656   0.365   4.674   1.053
 4550TIP3    H213657   0.465   4.565   1.086
 4551TIP3   OH213658   3.585   2.320   1.330
 4551TIP3    H113659   3.509   2.324   1.270
 4551TIP3    H213660   3.586   2.230   1.362
 4552TIP3   OH213661   4.931   5.216   0.612
 4552TIP3    H113662   4.938   5.305   0.646
 4552TIP3    H213663   5.013   5.201   0.566
 4553TIP3   OH213664   3.228   4.430   0.183
 4553TIP3    H113665   3.140   4.393   0.177
 4553TIP3    H213666   3.286   4.356   0.165
 4554TIP3   OH213667   0.940   4.980   1.544
 4554TIP3    H113668   0.941   4.999   1.450
 4554TIP3    H213669   1.023   4.935   1.560
 4555TIP3   OH213670   0.885   0.602   1.751
 4555TIP3    H113671   0.829   0.529   1.723
 4555TIP3    H213672   0.873   0.607   1.846
 4556TIP3   OH213673   3.576   1.106   5.126
 4556TIP3    H113674   3.620   1.169   5.184
 4556TIP3    H213675   3.606   1.021   5.156
 4557TIP3   OH213676   1.724   3.257   3.992
 4557TIP3    H113677   1.735   3.304   4.075
 4557TIP3    H213678   1.761   3.171   4.009
 4558TIP3   OH213679   1.089   1.332   3.195
 4558TIP3    H113680   1.006   1.374   3.172
 4558TIP3    H213681   1.082   1.316   3.289
 4559TIP3   OH213682   3.200   4.526   2.881
 4559TIP3    H113683   3.171   4.486   2.963
 4559TIP3    H213684   3.228   4.452   2.827
 4560TIP3   OH213685   1.894   4.526   4.717
 4560TIP3    H113686   1.915   4.434   4.703
 4560TIP3    H213687   1.977   4.567   4.740
 4561TIP3   OH213688   1.819   5.407   2.986
 4561TIP3    H113689   1.821   5.429   3.079
 4561TIP3    H213690   1.855   5.318   2.981
 4562TIP3   OH213691   4.082   4.649   1.363
 4562TIP3    H113692   4.077   4.670   1.270
 4562TIP3    H213693   4.051   4.728   1.408
 4563TIP3   OH213694   4.531   0.837   0.628
 4563TIP3    H113695   4.592   0.832   0.555
 4563TIP3    H213696   4.570   0.901   0.688
 4564TIP3   OH213697   5.348   1.092   4.087
 4564TIP3    H113698   5.331   1.000   4.068
 4564TIP3    H213699   5.268   1.124   4.128
 4565TIP3   OH213700   5.614   2.402   1.836
 4565TIP3    H113701   5.570   2.366   1.758
 4565TIP3    H213702   5.624   2.326   1.894
 4566TIP3   OH213703   3.206   0.558   3.979
 4566TIP3    H113704   3.248   0.639   4.006
 4566TIP3    H213705   3.268   0.517   3.918
 4567TIP3   OH213706   5.098   5.396   1.452
 4567TIP3    H113707   5.047   5.477   1.464
 4567TIP3    H213708   5.118   5.367   1.541
 4568TIP3   OH213709   5.425   0.524   1.613
 4568TIP3    H113710   5.466   0.461   1.553
 4568TIP3    H213711   5.496   0.549   1.672
 4569TIP3   OH213712   2.068   5.647   0.689
 4569TIP3    H113713   2.030   5.694   0.615
 4569TIP3    H213714   2.143   5.701   0.716
 4570TIP3   OH213715   2.972   4.214   2.072
 4570TIP3    H113716   2.883   4.191   2.098
 4570TIP3    H213717   2.961   4.255   1.986
 4571TIP3   OH213718   4.277   3.223   1.544
 4571TIP3    H113719   4.363   3.182   1.553
 4571TIP3    H213720   4.276   3.257   1.454
 4572TIP3   OH213721   1.089   5.886   4.864
 4572TIP3    H113722   1.174   5.890   4.820
 4572TIP3    H213723   1.068   5.977   4.885
 4573TIP3   OH213724   0.796   1.004   1.989
 4573TIP3    H113725   0.722   1.064   1.987
 4573TIP3    H213726   0.769   0.934   2.050
 4574TIP3   OH213727   2.931   0.991   0.715
 4574TIP3    H113728   2.979   0.909   0.701
 4574TIP3    H213729   2.855   0.984   0.658
 4575TIP3   OH213730   2.332   0.691   0.587
 4575TIP3    H113731   2.420   0.723   0.608
 4575TIP3    H213732   2.347   0.610   0.537
 4576TIP3   OH213733   0.798   5.891   1.559
 4576TIP3    H113734   0.761   5.943   1.488
 4576TIP3    H213735   0.724   5.841   1.594
 4577TIP3   OH213736   4.320   2.221   0.788
 4577TIP3    H113737   4.383   2.293   0.791
 4577TIP3    H213738   4.319   2.186   0.877
 4578TIP3   OH213739   2.244   4.221   1.323
 4578TIP3    H113740   2.154   4.229   1.290
 4578TIP3    H213741   2.288   4.167   1.257
 4579TIP3   OH213742   5.857   4.820   0.079
 4579TIP3    H113743   5.904   4.786   0.003
 4579TIP3    H213744   5.809   4.896   0.045
 4580TIP3   OH213745   2.549   2.545   0.908
 4580TIP3    H113746   2.544   2.453   0.882
 4580TIP3    H213747   2.462   2.564   0.944
 4581TIP3   OH213748   5.061   1.035   2.251
 4581TIP3    H113749   4.991   1.027   2.316
 4581TIP3    H213750   5.057   0.954   2.200
 4582TIP3   OH213751   5.828   2.881   2.339
 4582TIP3    H113752   5.803   2.793   2.311
 4582TIP3    H213753   5.923   2.882   2.334
 4583TIP3   OH213754   4.891   0.503   2.738
 4583TIP3    H113755   4.836   0.443   2.789
 4583TIP3    H213756   4.843   0.517   2.657
 4584TIP3   OH213757   4.673   4.230   3.938
 4584TIP3    H113758   4.600   4.179   3.903
 4584TIP3    H213759   4.700   4.287   3.866
 4585TIP3   OH213760   1.318   4.322   2.590
 4585TIP3    H113761   1.350   4.347   2.677
 4585TIP3    H213762   1.266   4.397   2.561
 4586TIP3   OH213763   5.757   3.038   2.780
 4586TIP3    H113764   5.831   3.028   2.720
 4586TIP3    H213765   5.764   3.127   2.813
 4587TIP3   OH213766   6.005   4.437   2.963
 4587TIP3    H113767   5.999   4.514   2.906
 4587TIP3    H213768   5.988   4.471   3.050
 4588TIP3   OH213769   1.579   3.785   0.432
 4588TIP3    H113770   1.564   3.692   0.414
 4588TIP3    H213771   1.605   3.821   0.348
 4589TIP3   OH213772   4.168   3.520   2.801
 4589TIP3    H113773   4.080   3.534   2.765
 4589TIP3    H213774   4.226   3.531   2.725
 4590TIP3   OH213775   0.329   4.412   2.302
 4590TIP3    H113776   0.304   4.447   2.217
 4590TIP3    H213777   0.293   4.473   2.366
 4591TIP3   OH213778   4.193   3.794   2.935
 4591TIP3    H113779   4.193   3.818   2.842
 4591TIP3    H213780   4.253   3.721   2.941
 4592TIP3   OH213781   2.715   1.935   2.321
 4592TIP3    H113782   2.762   1.980   2.391
 4592TIP3    H213783   2.751   1.846   2.321
 4593TIP3   OH213784   4.147   0.052   1.697
 4593TIP3    H113785   4.118   0.000   1.623
 4593TIP3    H213786   4.180   0.133   1.658
 4594TIP3   OH213787   1.224   3.507   0.316
 4594TIP3    H113788   1.176   3.540   0.392
 4594TIP3    H213789   1.186   3.420   0.300
 4595TIP3   OH213790   2.416   3.568   0.243
 4595TIP3    H113791   2.478   3.627   0.284
 4595TIP3    H213792   2.330   3.606   0.263
 4596TIP3   OH213793   1.603   0.224   2.175
 4596TIP3    H113794   1.548   0.294   2.139
 4596TIP3    H213795   1.690   0.242   2.141
 4597TIP3   OH213796   4.610   1.522   2.721
 4597TIP3    H113797   4.670   1.500   2.649
 4597TIP3    H213798   4.660   1.583   2.776
 4598TIP3   OH213799   0.009   1.060   0.719
 4598TIP3    H113800   0.061   1.125   0.766
 4598TIP3    H213801  -0.016   0.997   0.786
 4599TIP3   OH213802   4.999   3.950   4.710
 4599TIP3    H113803   4.999   3.962   4.615
 4599TIP3    H213804   5.031   4.033   4.744
 4600TIP3   OH213805   4.557   3.729   3.882
 4600TIP3    H113806   4.467   3.756   3.864
 4600TIP3    H213807   4.564   3.730   3.978
 4601TIP3   OH213808   5.845   2.399   0.623
 4601TIP3    H113809   5.912   2.394   0.692
 4601TIP3    H213810   5.857   2.486   0.585
 4602TIP3   OH213811   5.562   1.137   4.255
 4602TIP3    H113812   5.570   1.227   4.223
 4602TIP3    H213813   5.474   1.110   4.227
 4603TIP3   OH213814   2.641   4.516   0.314
 4603TIP3    H113815   2.671   4.528   0.224
 4603TIP3    H213816   2.570   4.452   0.307
 4604TIP3   OH213817   4.099   0.372   2.978
 4604TIP3    H113818   4.059   0.323   3.050
 4604TIP3    H213819   4.034   0.438   2.954
 4605TIP3   OH213820   4.146   1.237   0.953
 4605TIP3    H113821   4.240   1.243   0.969
 4605TIP3    H213822   4.122   1.151   0.989
 4606TIP3   OH213823   5.880   3.672   2.359
 4606TIP3    H113824   5.922   3.663   2.273
 4606TIP3    H213825   5.812   3.605   2.359
 4607TIP3   OH213826   5.166   1.793   4.177
 4607TIP3    H113827   5.123   1.877   4.161
 4607TIP3    H213828   5.118   1.755   4.250
 4608TIP3   OH213829   1.564   1.922   4.147
 4608TIP3    H113830   1.610   1.857   4.094
 4608TIP3    H213831   1.621   1.936   4.223
 4609TIP3   OH213832   5.555   1.885   0.179
 4609TIP3    H113833   5.596   1.862   0.096
 4609TIP3    H213834   5.461   1.887   0.160
 4610TIP3   OH213835   0.061   4.590   5.033
 4610TIP3    H113836   0.133   4.601   5.096
 4610TIP3    H213837  -0.011   4.557   5.086
 4611TIP3   OH213838   1.941   1.351   3.859
 4611TIP3    H113839   1.883   1.366   3.934
 4611TIP3    H213840   1.985   1.435   3.845
 4612TIP3   OH213841   0.607   3.718   2.376
 4612TIP3    H113842   0.519   3.752   2.359
 4612TIP3    H213843   0.593   3.632   2.414
 4613TIP3   OH213844   0.417   0.386   3.697
 4613TIP3    H113845   0.352   0.351   3.757
 4613TIP3    H213846   0.469   0.309   3.670
 4614TIP3   OH213847   2.394   1.405   0.239
 4614TIP3    H113848   2.485   1.393   0.267
 4614TIP3    H213849   2.390   1.364   0.153
 4615TIP3   OH213850   2.683   0.617   4.465
 4615TIP3    H113851   2.721   0.603   4.378
 4615TIP3    H213852   2.616   0.549   4.473
 4616TIP3   OH213853   3.191   4.220   0.800
 4616TIP3    H113854   3.099   4.216   0.823
 4616TIP3    H213855   3.191   4.233   0.705
 4617TIP3   OH213856   2.521   1.315   2.961
 4617TIP3    H113857   2.564   1.400   2.959
 4617TIP3    H213858   2.592   1.252   2.975
 4618TIP3   OH213859   0.293   5.664   4.996
 4618TIP3    H113860   0.271   5.756   5.011
 4618TIP3    H213861   0.377   5.651   5.039
 4619TIP3   OH213862   2.085   2.094   4.414
 4619TIP3    H113863   2.041   2.177   4.396
 4619TIP3    H213864   2.143   2.112   4.488
 4620TIP3   OH213865   3.794   2.522   4.380
 4620TIP3    H113866   3.699   2.530   4.385
 4620TIP3    H213867   3.823   2.514   4.471
 4621TIP3   OH213868   1.097   0.484   2.016
 4621TIP3    H113869   1.114   0.397   1.979
 4621TIP3    H213870   1.004   0.500   1.998
 4622TIP3   OH213871   1.000   0.557   2.286
 4622TIP3    H113872   1.038   0.575   2.371
 4622TIP3    H213873   1.074   0.553   2.226
 4623TIP3   OH213874   4.652   5.867   3.653
 4623TIP3    H113875   4.716   5.811   3.697
 4623TIP3    H213876   4.609   5.915   3.723
 4624TIP3   OH213877   5.287   1.319   1.768
 4624TIP3    H113878   5.263   1.363   1.686
 4624TIP3    H213879   5.205   1.315   1.818
 4625TIP3   OH213880   2.926   2.499   4.482
 4625TIP3    H113881   2.899   2.423   4.430
 4625TIP3    H213882   2.889   2.483   4.569
 4626TIP3   OH213883   3.426   1.836   4.893
 4626TIP3    H113884   3.330   1.833   4.891
 4626TIP3    H213885   3.451   1.844   4.801
 4627TIP3   OH213886   0.033   3.571   4.989
 4627TIP3    H113887  -0.023   3.503   4.951
 4627TIP3    H213888   0.096   3.591   4.920
 4628TIP3   OH213889   1.841   2.169   3.849
 4628TIP3    H113890   1.768   2.198   3.794
 4628TIP3    H213891   1.810   2.185   3.939
 4629TIP3   OH213892   1.880   1.803   2.701
 4629TIP3    H113893   1.833   1.790   2.618
 4629TIP3    H213894   1.894   1.715   2.734
 4630TIP3   OH213895   3.335   4.120   0.305
 4630TIP3    H113896   3.256   4.073   0.330
 4630TIP3    H213897   3.340   4.194   0.366
 4631TIP3   OH213898   1.011   2.639   4.569
 4631TIP3    H113899   1.019   2.732   4.547
 4631TIP3    H213900   0.918   2.621   4.560
 4632TIP3   OH213901   1.596   2.554   3.452
 4632TIP3    H113902   1.533   2.618   3.486
 4632TIP3    H213903   1.679   2.577   3.494
 4633TIP3   OH213904   3.728   1.693   1.875
 4633TIP3    H113905   3.788   1.621   1.896
 4633TIP3    H213906   3.688   1.716   1.959
 4634TIP3   OH213907   0.687   5.274   0.307
 4634TIP3    H113908   0.764   5.219   0.323
 4634TIP3    H213909   0.646   5.235   0.230
 4635TIP3   OH213910   5.333   0.852   4.465
 4635TIP3    H113911   5.329   0.826   4.373
 4635TIP3    H213912   5.338   0.769   4.513
 4636TIP3   OH213913   2.283   2.123   2.027
 4636TIP3    H113914   2.314   2.034   2.045
 4636TIP3    H213915   2.362   2.176   2.025
 4637TIP3   OH213916   5.244   3.765   2.260
 4637TIP3    H113917   5.224   3.673   2.280
 4637TIP3    H213918   5.336   3.775   2.283
 4638TIP3   OH213919   0.528   2.911   0.951
 4638TIP3    H113920   0.558   2.906   0.860
 4638TIP3    H213921   0.493   2.999   0.959
 4639TIP3   OH213922   5.870   4.504   0.801
 4639TIP3    H113923   5.932   4.546   0.741
 4639TIP3    H213924   5.881   4.551   0.883
 4640TIP3   OH213925   5.594   0.569   4.925
 4640TIP3    H113926   5.502   0.573   4.948
 4640TIP3    H213927   5.601   0.493   4.868
 4641TIP3   OH213928   2.198   2.620   3.512
 4641TIP3    H113929   2.151   2.696   3.547
 4641TIP3    H213930   2.291   2.643   3.521
 4642TIP3   OH213931   2.096   0.348   1.803
 4642TIP3    H113932   2.024   0.327   1.863
 4642TIP3    H213933   2.052   0.384   1.726
 4643TIP3   OH213934   5.312   2.264   1.746
 4643TIP3    H113935   5.365   2.264   1.667
 4643TIP3    H213936   5.229   2.303   1.719
 4644TIP3   OH213937   1.149   3.815   3.236
 4644TIP3    H113938   1.059   3.810   3.267
 4644TIP3    H213939   1.146   3.786   3.145
 4645TIP3   OH213940   5.694   5.936   0.473
 4645TIP3    H113941   5.727   5.909   0.387
 4645TIP3    H213942   5.605   5.966   0.456
 4646TIP3   OH213943   5.059   3.042   4.334
 4646TIP3    H113944   5.110   2.991   4.271
 4646TIP3    H213945   5.086   3.133   4.319
 4647TIP3   OH213946   1.200   3.988   4.524
 4647TIP3    H113947   1.209   4.015   4.616
 4647TIP3    H213948   1.133   4.047   4.489
 4648TIP3   OH213949   0.581   4.136   0.219
 4648TIP3    H113950   0.559   4.083   0.296
 4648TIP3    H213951   0.530   4.216   0.231
 4649TIP3   OH213952   5.994   2.318   4.547
 4649TIP3    H113953   6.066   2.292   4.605
 4649TIP3    H213954   6.033   2.386   4.491
 4650TIP3   OH213955   0.533   0.201   2.081
 4650TIP3    H113956   0.540   0.181   2.175
 4650TIP3    H213957   0.547   0.296   2.077
 4651TIP3   OH213958   2.498   2.409   2.522
 4651TIP3    H113959   2.465   2.323   2.496
 4651TIP3    H213960   2.537   2.445   2.443
 4652TIP3   OH213961   0.937   4.108   3.543
 4652TIP3    H113962   1.017   4.150   3.512
 4652TIP3    H213963   0.868   4.172   3.523
 4653TIP3   OH213964   0.143   1.724   4.013
 4653TIP3    H113965   0.163   1.669   4.089
 4653TIP3    H213966   0.052   1.704   3.992
 4654TIP3   OH213967   1.700   1.865   3.579
 4654TIP3    H113968   1.652   1.937   3.620
 4654TIP3    H213969   1.632   1.802   3.556
 4655TIP3   OH213970   3.390   1.728   1.114
 4655TIP3    H113971   3.349   1.815   1.112
 4655TIP3    H213972   3.424   1.715   1.025
 4656TIP3   OH213973   1.385   1.307   0.968
 4656TIP3    H113974   1.356   1.226   1.008
 4656TIP3    H213975   1.461   1.283   0.915
 4657TIP3   OH213976   4.185   1.882   3.458
 4657TIP3    H113977   4.213   1.927   3.538
 4657TIP3    H213978   4.244   1.807   3.451
 4658TIP3   OH213979   3.308   5.465   3.452
 4658TIP3    H113980   3.324   5.508   3.368
 4658TIP3    H213981   3.388   5.479   3.502
 4659TIP3   OH213982   6.303   2.197   3.913
 4659TIP3    H113983   6.216   2.235   3.922
 4659TIP3    H213984   6.291   2.104   3.930
 4660TIP3   OH213985   4.072   4.606   2.447
 4660TIP3    H113986   4.093   4.698   2.464
 4660TIP3    H213987   4.071   4.599   2.352
 4661TIP3   OH213988   6.130   3.474   2.818
 4661TIP3    H113989   6.140   3.536   2.890
 4661TIP3    H213990   6.171   3.517   2.743
 4662TIP3   OH213991   2.963   5.683   3.356
 4662TIP3    H113992   2.978   5.611   3.295
 4662TIP3    H213993   2.878   5.719   3.330
 4663TIP3   OH213994   6.020   5.661   2.667
 4663TIP3    H113995   6.006   5.644   2.574
 4663TIP3    H213996   6.111   5.691   2.673
 4664TIP3   OH213997   2.963   4.496   4.628
 4664TIP3    H113998   3.039   4.450   4.662
 4664TIP3    H213999   2.998   4.550   4.557
 4665TIP3   OH214000   2.976   1.787   2.577
 4665TIP3    H114001   3.064   1.754   2.561
 4665TIP3    H214002   2.928   1.713   2.612
 4666TIP3   OH214003   0.322   3.049   1.484
 4666TIP3    H114004   0.351   3.035   1.393
 4666TIP3    H214005   0.401   3.033   1.536
 4667TIP3   OH214006   2.039   5.445   4.610
 4667TIP3    H114007   1.967   5.396   4.569
 4667TIP3    H214008   2.111   5.382   4.614
 4668TIP3   OH214009   1.263   4.550   1.930
 4668TIP3    H114010   1.195   4.523   1.993
 4668TIP3    H214011   1.288   4.638   1.957
 4669TIP3   OH214012   6.244   5.814   1.546
 4669TIP3    H114013   6.323   5.868   1.554
 4669TIP3    H214014   6.201   5.846   1.467
 4670TIP3   OH214015   3.392   5.073   1.148
 4670TIP3    H114016   3.370   5.105   1.061
 4670TIP3    H214017   3.331   5.119   1.206
 4671TIP3   OH214018   0.331   3.896   4.912
 4671TIP3    H114019   0.313   3.828   4.846
 4671TIP3    H214020   0.296   3.859   4.993
 4672TIP3   OH214021   0.097   0.096   0.113
 4672TIP3    H114022   0.016   0.113   0.161
 4672TIP3    H214023   0.098   0.161   0.043
 4673TIP3   OH214024   2.011   4.350   2.182
 4673TIP3    H114025   1.917   4.351   2.163
 4673TIP3    H214026   2.053   4.352   2.097
 4674TIP3   OH214027   1.086   0.528   1.564
 4674TIP3    H114028   1.049   0.560   1.646
 4674TIP3    H214029   1.139   0.600   1.530
 4675TIP3   OH214030   2.159   0.732   2.328
 4675TIP3    H114031   2.242   0.752   2.284
 4675TIP3    H214032   2.184   0.677   2.402
 4676TIP3   OH214033   5.545   2.904   0.724
 4676TIP3    H114034   5.465   2.950   0.695
 4676TIP3    H214035   5.599   2.973   0.763
 4677TIP3   OH214036   2.858   5.279   2.961
 4677TIP3    H114037   2.819   5.315   2.882
 4677TIP3    H214038   2.921   5.214   2.930
 4678TIP3   OH214039   6.243   3.500   2.180
 4678TIP3    H114040   6.325   3.470   2.140
 4678TIP3    H214041   6.188   3.526   2.107
 4679TIP3   OH214042   1.143   3.587   0.589
 4679TIP3    H114043   1.128   3.591   0.683
 4679TIP3    H214044   1.131   3.677   0.558
 4680TIP3   OH214045   2.393   1.527   2.698
 4680TIP3    H114046   2.377   1.572   2.781
 4680TIP3    H214047   2.378   1.435   2.717
 4681TIP3   OH214048   1.442   2.082   3.457
 4681TIP3    H114049   1.465   2.021   3.527
 4681TIP3    H214050   1.413   2.026   3.385
 4682TIP3   OH214051   4.415   4.175   0.638
 4682TIP3    H114052   4.457   4.154   0.555
 4682TIP3    H214053   4.482   4.160   0.704
 4683TIP3   OH214054   0.024   1.467   4.292
 4683TIP3    H114055   0.031   1.398   4.226
 4683TIP3    H214056  -0.067   1.462   4.323
 4684TIP3   OH214057   1.908   4.203   1.309
 4684TIP3    H114058   1.819   4.177   1.286
 4684TIP3    H214059   1.910   4.297   1.291
 4685TIP3   OH214060   5.927   0.049   3.325
 4685TIP3    H114061   5.888   0.104   3.257
 4685TIP3    H214062   6.004   0.097   3.354
 4686TIP3   OH214063   4.284   5.992   4.106
 4686TIP3    H114064   4.288   5.904   4.070
 4686TIP3    H214065   4.191   6.005   4.127
 4687TIP3   OH214066   3.841   2.119   4.550
 4687TIP3    H114067   3.841   2.095   4.642
 4687TIP3    H214068   3.857   2.213   4.549
 4688TIP3   OH214069   5.717   4.614   0.132
 4688TIP3    H114070   5.771   4.563   0.193
 4688TIP3    H214071   5.773   4.688   0.108
 4689TIP3   OH214072   2.530   0.856   1.207
 4689TIP3    H114073   2.554   0.922   1.142
 4689TIP3    H214074   2.543   0.899   1.291
 4690TIP3   OH214075   0.679   5.479   1.477
 4690TIP3    H114076   0.670   5.410   1.544
 4690TIP3    H214077   0.638   5.443   1.399
 4691TIP3   OH214078   5.248   2.406   3.156
 4691TIP3    H114079   5.302   2.454   3.093
 4691TIP3    H214080   5.270   2.444   3.241
 4692TIP3   OH214081   5.590   3.019   3.059
 4692TIP3    H114082   5.639   3.088   3.014
 4692TIP3    H214083   5.597   3.043   3.152
 4693TIP3   OH214084   3.743   3.631   1.834
 4693TIP3    H114085   3.730   3.703   1.772
 4693TIP3    H214086   3.838   3.625   1.843
 4694TIP3   OH214087   5.323   0.632   3.317
 4694TIP3    H114088   5.240   0.594   3.348
 4694TIP3    H214089   5.306   0.726   3.313
 4695TIP3   OH214090   5.545   3.201   0.464
 4695TIP3    H114091   5.459   3.240   0.481
 4695TIP3    H214092   5.569   3.232   0.377
 4696TIP3   OH214093   4.017   2.132   4.253
 4696TIP3    H114094   4.071   2.053   4.255
 4696TIP3    H214095   3.928   2.101   4.272
 4697TIP3   OH214096   2.435   3.992   2.474
 4697TIP3    H114097   2.520   4.024   2.504
 4697TIP3    H214098   2.451   3.901   2.451
 4698TIP3   OH214099   3.819   3.415   2.771
 4698TIP3    H114100   3.766   3.427   2.693
 4698TIP3    H214101   3.896   3.470   2.758
 4699TIP3   OH214102   0.398   0.429   2.694
 4699TIP3    H114103   0.333   0.380   2.644
 4699TIP3    H214104   0.358   0.515   2.707
 4700TIP3   OH214105   4.491   2.542   0.572
 4700TIP3    H114106   4.549   2.616   0.589
 4700TIP3    H214107   4.548   2.475   0.534
 4701TIP3   OH214108   1.085   1.777   0.644
 4701TIP3    H114109   1.004   1.735   0.615
 4701TIP3    H214110   1.151   1.707   0.642
 4702TIP3   OH214111   1.572   2.425   2.763
 4702TIP3    H114112   1.506   2.371   2.805
 4702TIP3    H214113   1.587   2.383   2.678
 4703TIP3   OH214114   3.946   4.059   3.298
 4703TIP3    H114115   3.857   4.032   3.319
 4703TIP3    H214116   3.946   4.073   3.203
 4704TIP3   OH214117   3.279   5.775   4.527
 4704TIP3    H114118   3.361   5.774   4.477
 4704TIP3    H214119   3.210   5.781   4.461
 4705TIP3   OH214120   3.179   0.451   1.759
 4705TIP3    H114121   3.204   0.510   1.687
 4705TIP3    H214122   3.232   0.480   1.833
 4706TIP3   OH214123   5.841   5.844   1.927
 4706TIP3    H114124   5.796   5.787   1.864
 4706TIP3    H214125   5.928   5.804   1.937
 4707TIP3   OH214126   4.434   1.363   1.270
 4707TIP3    H114127   4.504   1.400   1.216
 4707TIP3    H214128   4.448   1.401   1.357
 4708TIP3   OH214129   3.502   1.937   2.820
 4708TIP3    H114130   3.549   1.872   2.768
 4708TIP3    H214131   3.513   1.906   2.911
 4709TIP3   OH214132   3.699   5.140   2.739
 4709TIP3    H114133   3.713   5.046   2.733
 4709TIP3    H214134   3.780   5.173   2.779
 4710TIP3   OH214135   3.878   0.615   1.752
 4710TIP3    H114136   3.933   0.587   1.824
 4710TIP3    H214137   3.848   0.533   1.711
 4711TIP3   OH214138   0.666   1.227   4.013
 4711TIP3    H114139   0.734   1.267   3.958
 4711TIP3    H214140   0.666   1.279   4.093
 4712TIP3   OH214141   1.260   3.330   3.853
 4712TIP3    H114142   1.242   3.358   3.943
 4712TIP3    H214143   1.225   3.241   3.849
 4713TIP3   OH214144   0.665   0.684   4.468
 4713TIP3    H114145   0.586   0.733   4.493
 4713TIP3    H214146   0.733   0.750   4.460
 4714TIP3   OH214147   2.212   1.564   0.050
 4714TIP3    H114148   2.162   1.487   0.023
 4714TIP3    H214149   2.229   1.551   0.144
 4715TIP3   OH214150   6.105   4.417   1.420
 4715TIP3    H114151   6.044   4.463   1.363
 4715TIP3    H214152   6.083   4.324   1.410
 4716TIP3   OH214153   0.244   0.606   3.868
 4716TIP3    H114154   0.300   0.621   3.945
 4716TIP3    H214155   0.203   0.691   3.851
 4717TIP3   OH214156   1.464   0.775   4.588
 4717TIP3    H114157   1.452   0.844   4.522
 4717TIP3    H214158   1.548   0.736   4.565
 4718TIP3   OH214159   6.249   2.473   0.351
 4718TIP3    H114160   6.244   2.543   0.417
 4718TIP3    H214161   6.158   2.454   0.328
 4719TIP3   OH214162   1.893   1.487   2.766
 4719TIP3    H114163   1.904   1.452   2.854
 4719TIP3    H214164   1.953   1.436   2.712
 4720TIP3   OH214165   3.281   1.662   4.016
 4720TIP3    H114166   3.330   1.739   4.047
 4720TIP3    H214167   3.310   1.650   3.926
 4721TIP3   OH214168   2.071   1.904   0.221
 4721TIP3    H114169   1.987   1.930   0.260
 4721TIP3    H214170   2.082   1.812   0.246
 4722TIP3   OH214171   2.725   2.348   2.181
 4722TIP3    H114172   2.762   2.436   2.168
 4722TIP3    H214173   2.682   2.328   2.098
 4723TIP3   OH214174   2.890   2.389   4.129
 4723TIP3    H114175   2.853   2.340   4.056
 4723TIP3    H214176   2.945   2.325   4.175
 4724TIP3   OH214177   5.847   4.355   4.551
 4724TIP3    H114178   5.849   4.401   4.467
 4724TIP3    H214179   5.939   4.346   4.576
 4725TIP3   OH214180   0.090   3.126   1.204
 4725TIP3    H114181   0.087   3.149   1.111
 4725TIP3    H214182   0.094   3.030   1.204
 4726TIP3   OH214183   1.378   1.890   0.627
 4726TIP3    H114184   1.384   1.828   0.700
 4726TIP3    H214185   1.371   1.835   0.549
 4727TIP3   OH214186   0.379   5.515   3.744
 4727TIP3    H114187   0.292   5.530   3.781
 4727TIP3    H214188   0.425   5.598   3.756
 4728TIP3   OH214189   5.826   1.700   4.450
 4728TIP3    H114190   5.907   1.751   4.459
 4728TIP3    H214191   5.826   1.641   4.525
 4729TIP3   OH214192   1.967   3.139   2.246
 4729TIP3    H114193   1.904   3.118   2.177
 4729TIP3    H214194   1.962   3.065   2.307
 4730TIP3   OH214195  -0.018   0.693   4.902
 4730TIP3    H114196   0.035   0.748   4.845
 4730TIP3    H214197  -0.020   0.740   4.986
 4731TIP3   OH214198   5.518   0.738   3.528
 4731TIP3    H114199   5.482   0.724   3.441
 4731TIP3    H214200   5.448   0.712   3.588
 4732TIP3   OH214201   1.062   0.229   1.933
 4732TIP3    H114202   0.977   0.200   1.966
 4732TIP3    H214203   1.051   0.233   1.838
 4733TIP3   OH214204   5.356   2.948   0.950
 4733TIP3    H114205   5.374   2.861   0.984
 4733TIP3    H214206   5.432   3.000   0.976
 4734TIP3   OH214207   1.396   3.009   2.269
 4734TIP3    H114208   1.367   3.058   2.346
 4734TIP3    H214209   1.358   2.922   2.280
 4735TIP3   OH214210   4.807   0.869   1.220
 4735TIP3    H114211   4.803   0.866   1.316
 4735TIP3    H214212   4.874   0.804   1.197
 4736TIP3   OH214213   5.384   1.054   2.271
 4736TIP3    H114214   5.394   0.996   2.346
 4736TIP3    H214215   5.289   1.061   2.259
 4737TIP3   OH214216   3.501   2.312   2.135
 4737TIP3    H114217   3.584   2.360   2.135
 4737TIP3    H214218   3.435   2.380   2.121
 4738TIP3   OH214219   0.105   2.372   4.961
 4738TIP3    H114220   0.094   2.292   4.910
 4738TIP3    H214221   0.181   2.415   4.921
 4739TIP3   OH214222   0.238   1.031   2.290
 4739TIP3    H114223   0.241   1.101   2.355
 4739TIP3    H214224   0.319   1.041   2.241
 4740TIP3   OH214225   4.026   4.448   0.313
 4740TIP3    H114226   3.972   4.375   0.281
 4740TIP3    H214227   4.063   4.487   0.234
 4741TIP3   OH214228   3.552   3.758   3.195
 4741TIP3    H114229   3.537   3.675   3.241
 4741TIP3    H214230   3.610   3.735   3.123
 4742TIP3   OH214231   2.328   5.623   1.009
 4742TIP3    H114232   2.370   5.590   1.089
 4742TIP3    H214233   2.244   5.577   1.006
 4743TIP3   OH214234   1.784   0.231   0.136
 4743TIP3    H114235   1.854   0.247   0.073
 4743TIP3    H214236   1.767   0.137   0.129
 4744TIP3   OH214237   2.477   3.483   5.048
 4744TIP3    H114238   2.547   3.417   5.056
 4744TIP3    H214239   2.410   3.440   4.996
 4745TIP3   OH214240   2.678   4.077   1.608
 4745TIP3    H114241   2.595   4.104   1.569
 4745TIP3    H214242   2.677   3.982   1.602
 4746TIP3   OH214243   3.168   5.182   4.317
 4746TIP3    H114244   3.220   5.204   4.239
 4746TIP3    H214245   3.185   5.254   4.378
 4747TIP3   OH214246   5.391   3.359   4.834
 4747TIP3    H114247   5.359   3.408   4.758
 4747TIP3    H214248   5.344   3.398   4.908
 4748TIP3   OH214249   2.090   1.312   1.217
 4748TIP3    H114250   2.023   1.373   1.186
 4748TIP3    H214251   2.106   1.338   1.308
 4749TIP3   OH214252   5.756   0.741   3.746
 4749TIP3    H114253   5.706   0.734   3.665
 4749TIP3    H214254   5.848   0.740   3.718
 4750TIP3   OH214255   0.072   3.995   5.016
 4750TIP3    H114256  -0.023   4.001   5.020
 4750TIP3    H214257   0.092   3.907   5.049
 4751TIP3   OH214258   2.019   1.759   1.118
 4751TIP3    H114259   2.013   1.853   1.135
 4751TIP3    H214260   2.040   1.753   1.025
 4752TIP3   OH214261   5.049   3.193   1.724
 4752TIP3    H114262   5.118   3.226   1.781
 4752TIP3    H214263   5.014   3.117   1.770
 4753TIP3   OH214264   3.642   5.585   2.016
 4753TIP3    H114265   3.705   5.652   2.043
 4753TIP3    H214266   3.563   5.605   2.067
 4754TIP3   OH214267   1.026   3.541   2.179
 4754TIP3    H114268   0.955   3.588   2.135
 4754TIP3    H214269   1.021   3.572   2.270
 4755TIP3   OH214270   2.376   1.603   0.852
 4755TIP3    H114271   2.441   1.547   0.809
 4755TIP3    H214272   2.313   1.623   0.782
 4756TIP3   OH214273   1.109   3.897   0.225
 4756TIP3    H114274   1.024   3.941   0.219
 4756TIP3    H214275   1.164   3.958   0.275
 4757TIP3   OH214276   5.080   4.939   4.428
 4757TIP3    H114277   5.052   4.960   4.517
 4757TIP3    H214278   5.017   4.874   4.398
 4758TIP3   OH214279   0.144   0.514   0.112
 4758TIP3    H114280   0.205   0.587   0.110
 4758TIP3    H214281   0.083   0.535   0.182
 4759TIP3   OH214282   5.170   2.739   1.385
 4759TIP3    H114283   5.211   2.780   1.461
 4759TIP3    H214284   5.136   2.812   1.333
 4760TIP3   OH214285   2.562   3.154   0.835
 4760TIP3    H114286   2.560   3.061   0.814
 4760TIP3    H214287   2.632   3.162   0.900
 4761TIP3   OH214288   3.827   1.913   1.779
 4761TIP3    H114289   3.783   1.949   1.702
 4761TIP3    H214290   3.778   1.833   1.799
 4762TIP3   OH214291   4.679   4.847   2.950
 4762TIP3    H114292   4.652   4.938   2.965
 4762TIP3    H214293   4.769   4.843   2.983
 4763TIP3   OH214294   0.926   0.997   0.388
 4763TIP3    H114295   0.853   0.950   0.348
 4763TIP3    H214296   0.960   1.053   0.318
 4764TIP3   OH214297   3.258   2.429   0.230
 4764TIP3    H114298   3.233   2.521   0.240
 4764TIP3    H214299   3.187   2.380   0.271
 4765TIP3   OH214300   0.972   3.536   1.791
 4765TIP3    H114301   1.040   3.534   1.724
 4765TIP3    H214302   0.892   3.511   1.745
 4766TIP3   OH214303   2.544   3.637   0.684
 4766TIP3    H114304   2.451   3.619   0.669
 4766TIP3    H214305   2.582   3.552   0.704
 4767TIP3   OH214306   5.114   2.481   1.231
 4767TIP3    H114307   5.041   2.540   1.212
 4767TIP3    H214308   5.142   2.506   1.319
 4768TIP3   OH214309   1.363   4.957   1.093
 4768TIP3    H114310   1.312   5.033   1.065
 4768TIP3    H214311   1.375   4.970   1.187
 4769TIP3   OH214312   0.944   3.009   2.962
 4769TIP3    H114313   0.933   3.005   2.867
 4769TIP3    H214314   0.857   3.033   2.995
 4770TIP3   OH214315   3.188   3.737   4.161
 4770TIP3    H114316   3.109   3.787   4.182
 4770TIP3    H214317   3.215   3.699   4.244
 4771TIP3   OH214318   0.437   2.512   0.827
 4771TIP3    H114319   0.396   2.448   0.886
 4771TIP3    H214320   0.436   2.594   0.877
 4772TIP3   OH214321   2.217   1.745   1.977
 4772TIP3    H114322   2.238   1.655   2.004
 4772TIP3    H214323   2.138   1.766   2.027
 4773TIP3   OH214324   1.388   5.911   1.005
 4773TIP3    H114325   1.386   5.990   1.058
 4773TIP3    H214326   1.463   5.862   1.038
 4774TIP3   OH214327   4.505   3.447   3.025
 4774TIP3    H114328   4.414   3.418   3.018
 4774TIP3    H214329   4.555   3.368   3.043
 4775TIP3   OH214330   4.907   3.219   2.071
 4775TIP3    H114331   4.818   3.204   2.039
 4775TIP3    H214332   4.914   3.163   2.149
 4776TIP3   OH214333   2.145   2.084   0.408
 4776TIP3    H114334   2.234   2.116   0.389
 4776TIP3    H214335   2.130   2.017   0.341
 4777TIP3   OH214336   4.350   1.864   2.052
 4777TIP3    H114337   4.350   1.861   2.147
 4777TIP3    H214338   4.299   1.787   2.026
 4778TIP3   OH214339   3.916   3.553   4.013
 4778TIP3    H114340   3.899   3.461   3.995
 4778TIP3    H214341   3.839   3.599   3.981
 4779TIP3   OH214342   4.477   4.881   4.739
 4779TIP3    H114343   4.516   4.873   4.653
 4779TIP3    H214344   4.389   4.843   4.729
 4780TIP3   OH214345   1.642   1.426   1.528
 4780TIP3    H114346   1.657   1.446   1.435
 4780TIP3    H214347   1.557   1.466   1.547
 4781TIP3   OH214348   2.722   5.227   2.690
 4781TIP3    H114349   2.741   5.308   2.642
 4781TIP3    H214350   2.630   5.209   2.671
 4782TIP3   OH214351   4.061   2.148   3.023
 4782TIP3    H114352   4.081   2.235   3.056
 4782TIP3    H214353   4.085   2.089   3.095
 4783TIP3   OH214354   2.356   3.072   0.241
 4783TIP3    H114355   2.382   3.011   0.173
 4783TIP3    H214356   2.369   3.025   0.323
 4784TIP3   OH214357   0.543   1.227   0.206
 4784TIP3    H114358   0.605   1.273   0.263
 4784TIP3    H214359   0.468   1.286   0.199
 4785TIP3   OH214360   5.572   5.482   0.057
 4785TIP3    H114361   5.658   5.452   0.026
 4785TIP3    H214362   5.561   5.439   0.142
 4786TIP3   OH214363   3.980   3.844   0.703
 4786TIP3    H114364   3.913   3.906   0.734
 4786TIP3    H214365   4.062   3.877   0.740
 4787TIP3   OH214366   0.439   4.871   3.007
 4787TIP3    H114367   0.524   4.883   2.966
 4787TIP3    H214368   0.438   4.934   3.079
 4788TIP3   OH214369   5.680   2.086   1.131
 4788TIP3    H114370   5.746   2.054   1.193
 4788TIP3    H214371   5.729   2.144   1.073
 4789TIP3   OH214372   5.979   1.964   4.244
 4789TIP3    H114373   5.895   1.945   4.201
 4789TIP3    H214374   5.981   2.059   4.251
 4790TIP3   OH214375   4.020   1.831   0.098
 4790TIP3    H114376   4.016   1.912   0.047
 4790TIP3    H214377   3.932   1.793   0.088
 4791TIP3   OH214378   5.756   2.540   1.228
 4791TIP3    H114379   5.724   2.544   1.138
 4791TIP3    H214380   5.805   2.458   1.232
 4792TIP3   OH214381   0.532   3.142   0.440
 4792TIP3    H114382   0.594   3.070   0.431
 4792TIP3    H214383   0.586   3.220   0.445
 4793TIP3   OH214384   5.035   3.018   3.153
 4793TIP3    H114385   5.011   3.108   3.130
 4793TIP3    H214386   5.126   3.024   3.181
 4794TIP3   OH214387   0.215   3.395   2.464
 4794TIP3    H114388   0.128   3.384   2.427
 4794TIP3    H214389   0.266   3.323   2.427
 4795TIP3   OH214390   4.029   3.365   2.353
 4795TIP3    H114391   4.072   3.327   2.429
 4795TIP3    H214392   4.053   3.458   2.355
 4796TIP3   OH214393   4.568   2.749   2.193
 4796TIP3    H114394   4.501   2.799   2.241
 4796TIP3    H214395   4.639   2.738   2.256
 4797TIP3   OH214396   0.816   4.127   4.848
 4797TIP3    H114397   0.862   4.131   4.764
 4797TIP3    H214398   0.884   4.140   4.913
 4798TIP3   OH214399   0.628   3.824   0.813
 4798TIP3    H114400   0.602   3.732   0.818
 4798TIP3    H214401   0.686   3.829   0.738
 4799TIP3   OH214402   6.318   3.436   1.090
 4799TIP3    H114403   6.362   3.376   1.031
 4799TIP3    H214404   6.256   3.483   1.034
 4800TIP3   OH214405   0.713   3.376   1.008
 4800TIP3    H114406   0.676   3.315   0.944
 4800TIP3    H214407   0.730   3.456   0.958
 4801TIP3   OH214408   5.320   1.610   2.384
 4801TIP3    H114409   5.373   1.586   2.460
 4801TIP3    H214410   5.343   1.545   2.317
 4802TIP3   OH214411   0.426   5.612   4.254
 4802TIP3    H114412   0.391   5.557   4.184
 4802TIP3    H214413   0.460   5.690   4.209
 4803TIP3   OH214414   5.813   4.909   0.818
 4803TIP3    H114415   5.878   4.946   0.758
 4803TIP3    H214416   5.750   4.865   0.762
 4804TIP3   OH214417   2.505   0.365   4.524
 4804TIP3    H114418   2.564   0.302   4.564
 4804TIP3    H214419   2.457   0.403   4.598
 4805TIP3   OH214420   2.352   2.297   4.267
 4805TIP3    H114421   2.356   2.383   4.226
 4805TIP3    H214422   2.330   2.314   4.358
 4806TIP3   OH214423   1.628   1.881   2.281
 4806TIP3    H114424   1.649   1.830   2.358
 4806TIP3    H214425   1.679   1.961   2.290
 4807TIP3   OH214426   4.945   2.227   0.142
 4807TIP3    H114427   4.993   2.310   0.138
 4807TIP3    H214428   4.857   2.248   0.111
 4808TIP3   OH214429   1.151   3.250   0.243
 4808TIP3    H114430   1.125   3.263   0.152
 4808TIP3    H214431   1.170   3.157   0.249
 4809TIP3   OH214432   1.060   0.241   3.591
 4809TIP3    H114433   1.025   0.155   3.616
 4809TIP3    H214434   0.984   0.291   3.565
 4810TIP3   OH214435   2.714   1.312   2.598
 4810TIP3    H114436   2.677   1.235   2.641
 4810TIP3    H214437   2.808   1.294   2.592
 4811TIP3   OH214438   5.703   3.571   1.717
 4811TIP3    H114439   5.648   3.588   1.794
 4811TIP3    H214440   5.731   3.480   1.728
 4812TIP3   OH214441   3.617   4.549   5.024
 4812TIP3    H114442   3.664   4.478   4.982
 4812TIP3    H214443   3.581   4.510   5.104
 4813TIP3   OH214444   6.226   0.437   0.963
 4813TIP3    H114445   6.140   0.449   0.925
 4813TIP3    H214446   6.271   0.521   0.948
 4814TIP3   OH214447   0.271   2.372   1.446
 4814TIP3    H114448   0.191   2.414   1.412
 4814TIP3    H214449   0.340   2.435   1.428
 4815TIP3   OH214450   1.522   5.279   2.364
 4815TIP3    H114451   1.474   5.361   2.356
 4815TIP3    H214452   1.456   5.211   2.350
 4816TIP3   OH214453   3.217   1.669   1.788
 4816TIP3    H114454   3.271   1.725   1.733
 4816TIP3    H214455   3.147   1.639   1.730
 4817TIP3   OH214456   3.814   4.471   3.590
 4817TIP3    H114457   3.871   4.434   3.523
 4817TIP3    H214458   3.811   4.565   3.570
 4818TIP3   OH214459   4.522   0.721   1.293
 4818TIP3    H114460   4.478   0.737   1.377
 4818TIP3    H214461   4.565   0.804   1.272
 4819TIP3   OH214462   2.220   4.967   1.463
 4819TIP3    H114463   2.130   4.992   1.480
 4819TIP3    H214464   2.251   5.030   1.398
 4820TIP3   OH214465   5.245   0.923   3.712
 4820TIP3    H114466   5.245   0.838   3.669
 4820TIP3    H214467   5.158   0.930   3.752
 4821TIP3   OH214468   6.036   0.879   1.797
 4821TIP3    H114469   6.029   0.796   1.845
 4821TIP3    H214470   5.946   0.913   1.795
 4822TIP3   OH214471   5.710   2.718   3.142
 4822TIP3    H114472   5.803   2.740   3.132
 4822TIP3    H214473   5.678   2.710   3.052
 4823TIP3   OH214474   6.239   4.724   0.111
 4823TIP3    H114475   6.319   4.696   0.155
 4823TIP3    H214476   6.178   4.745   0.183
 4824TIP3   OH214477   0.514   1.081   4.390
 4824TIP3    H114478   0.573   1.066   4.316
 4824TIP3    H214479   0.460   1.155   4.363
 4825TIP3   OH214480   2.279   3.418   0.710
 4825TIP3    H114481   2.353   3.369   0.672
 4825TIP3    H214482   2.294   3.509   0.684
 4826TIP3   OH214483   5.581   2.106   4.836
 4826TIP3    H114484   5.569   2.183   4.892
 4826TIP3    H214485   5.669   2.115   4.801
 4827TIP3   OH214486   3.659   0.733   3.718
 4827TIP3    H114487   3.565   0.740   3.707
 4827TIP3    H214488   3.694   0.729   3.629
 4828TIP3   OH214489   0.829   0.463   4.553
 4828TIP3    H114490   0.905   0.458   4.496
 4828TIP3    H214491   0.768   0.522   4.508
 4829TIP3   OH214492   3.073   4.204   3.132
 4829TIP3    H114493   3.096   4.294   3.153
 4829TIP3    H214494   3.134   4.151   3.182
 4830TIP3   OH214495   5.251   5.009   2.894
 4830TIP3    H114496   5.288   5.005   2.981
 4830TIP3    H214497   5.320   5.047   2.840
 4831TIP3   OH214498   6.040   5.345   0.609
 4831TIP3    H114499   5.994   5.422   0.575
 4831TIP3    H214500   6.054   5.365   0.701
 4832TIP3   OH214501   3.010   2.080   2.183
 4832TIP3    H114502   3.104   2.087   2.164
 4832TIP3    H214503   2.982   2.002   2.135
 4833TIP3   OH214504   1.341   4.588   4.850
 4833TIP3    H114505   1.354   4.672   4.806
 4833TIP3    H214506   1.409   4.532   4.814
 4834TIP3   OH214507   3.869   3.893   2.633
 4834TIP3    H114508   3.784   3.851   2.640
 4834TIP3    H214509   3.852   3.987   2.645
 4835TIP3   OH214510   6.162   3.473   3.486
 4835TIP3    H114511   6.131   3.383   3.495
 4835TIP3    H214512   6.123   3.520   3.560
 4836TIP3   OH214513   4.804   2.929   2.055
 4836TIP3    H114514   4.741   2.947   1.985
 4836TIP3    H214515   4.883   2.901   2.008
 4837TIP3   OH214516   3.158   3.682   2.856
 4837TIP3    H114517   3.126   3.730   2.779
 4837TIP3    H214518   3.078   3.660   2.905
 4838TIP3   OH214519   3.053   5.172   5.018
 4838TIP3    H114520   3.041   5.083   5.051
 4838TIP3    H214521   3.008   5.227   5.083
 4839TIP3   OH214522   2.532   5.841   4.624
 4839TIP3    H114523   2.519   5.822   4.717
 4839TIP3    H214524   2.471   5.912   4.605
 4840TIP3   OH214525   3.512   1.135   3.052
 4840TIP3    H114526   3.530   1.102   2.963
 4840TIP3    H214527   3.445   1.202   3.039
 4841TIP3   OH214528   4.246   5.661   4.701
 4841TIP3    H114529   4.282   5.687   4.617
 4841TIP3    H214530   4.219   5.569   4.689
 4842TIP3   OH214531   0.727   0.623   2.270
 4842TIP3    H114532   0.692   0.556   2.330
 4842TIP3    H214533   0.822   0.609   2.271
 4843TIP3   OH214534   1.970   2.072   2.036
 4843TIP3    H114535   2.017   2.082   2.119
 4843TIP3    H214536   1.947   1.979   2.032
 4844TIP3   OH214537   5.811   2.375   0.104
 4844TIP3    H114538   5.749   2.302   0.100
 4844TIP3    H214539   5.867   2.364   0.028
 4845TIP3   OH214540   0.776   0.237   1.119
 4845TIP3    H114541   0.869   0.254   1.105
 4845TIP3    H214542   0.770   0.211   1.211
 4846TIP3   OH214543   3.656   4.212   3.352
 4846TIP3    H114544   3.688   4.285   3.299
 4846TIP3    H214545   3.595   4.252   3.414
 4847TIP3   OH214546   0.343   0.411   0.516
 4847TIP3    H114547   0.312   0.359   0.442
 4847TIP3    H214548   0.398   0.351   0.567
 4848TIP3   OH214549   3.166   4.909   0.805
 4848TIP3    H114550   3.169   4.955   0.721
 4848TIP3    H214551   3.258   4.891   0.826
 4849TIP3   OH214552   2.907   3.244   2.680
 4849TIP3    H114553   2.978   3.264   2.619
 4849TIP3    H214554   2.915   3.310   2.749
 4850TIP3   OH214555   2.636   2.491   1.953
 4850TIP3    H114556   2.730   2.501   1.944
 4850TIP3    H214557   2.602   2.581   1.952
 4851TIP3   OH214558   1.696   5.429   2.517
 4851TIP3    H114559   1.634   5.489   2.560
 4851TIP3    H214560   1.671   5.342   2.548
 4852TIP3   OH214561   6.108   5.327   3.810
 4852TIP3    H114562   6.029   5.276   3.794
 4852TIP3    H214563   6.082   5.394   3.873
 4853TIP3   OH214564   3.970   2.737   4.341
 4853TIP3    H114565   3.974   2.780   4.426
 4853TIP3    H214566   3.908   2.665   4.353
 4854TIP3   OH214567   2.443   1.736   0.074
 4854TIP3    H114568   2.458   1.732  -0.020
 4854TIP3    H214569   2.353   1.707   0.086
 4855TIP3   OH214570   3.869   1.632   0.970
 4855TIP3    H114571   3.812   1.698   0.930
 4855TIP3    H214572   3.912   1.590   0.896
 4856TIP3   OH214573   2.639   1.376   1.511
 4856TIP3    H114574   2.603   1.455   1.552
 4856TIP3    H214575   2.601   1.375   1.424
 4857TIP3   OH214576   3.887   0.541   3.594
 4857TIP3    H114577   3.912   0.633   3.602
 4857TIP3    H214578   3.815   0.530   3.657
 4858TIP3   OH214579   2.461   1.076   3.530
 4858TIP3    H114580   2.508   1.153   3.497
 4858TIP3    H214581   2.495   1.064   3.618
 4859TIP3   OH214582   1.018   4.978   1.258
 4859TIP3    H114583   1.033   4.891   1.222
 4859TIP3    H214584   0.940   5.010   1.212
 4860TIP3   OH214585   3.475   3.478   3.223
 4860TIP3    H114586   3.463   3.448   3.133
 4860TIP3    H214587   3.393   3.454   3.267
 4861TIP3   OH214588   1.918   5.352   1.894
 4861TIP3    H114589   1.985   5.285   1.884
 4861TIP3    H214590   1.964   5.435   1.880
 4862TIP3   OH214591   4.282   1.687   2.945
 4862TIP3    H114592   4.333   1.639   2.880
 4862TIP3    H214593   4.336   1.764   2.965
 4863TIP3   OH214594   4.233   3.222   2.133
 4863TIP3    H114595   4.142   3.251   2.125
 4863TIP3    H214596   4.233   3.132   2.102
 4864TIP3   OH214597   0.730   0.152   1.375
 4864TIP3    H114598   0.791   0.208   1.423
 4864TIP3    H214599   0.758   0.062   1.396
 4865TIP3   OH214600   2.479   0.773   1.766
 4865TIP3    H114601   2.524   0.841   1.817
 4865TIP3    H214602   2.398   0.757   1.814
 4866TIP3   OH214603   2.159   5.388   2.852
 4866TIP3    H114604   2.236   5.418   2.803
 4866TIP3    H214605   2.137   5.461   2.910
 4867TIP3   OH214606   1.290   2.168   0.539
 4867TIP3    H114607   1.361   2.228   0.516
 4867TIP3    H214608   1.333   2.098   0.588
 4868TIP3   OH214609   3.178   3.149   4.772
 4868TIP3    H114610   3.118   3.096   4.824
 4868TIP3    H214611   3.245   3.178   4.834
 4869TIP3   OH214612   5.261   2.461   0.873
 4869TIP3    H114613   5.257   2.443   0.779
 4869TIP3    H214614   5.351   2.488   0.888
 4870TIP3   OH214615   5.353   0.902   3.292
 4870TIP3    H114616   5.333   0.976   3.350
 4870TIP3    H214617   5.412   0.938   3.227
 4871TIP3   OH214618   2.313   2.982   1.637
 4871TIP3    H114619   2.309   3.077   1.622
 4871TIP3    H214620   2.388   2.953   1.586
 4872TIP3   OH214621   3.479   2.029   1.100
 4872TIP3    H114622   3.541   2.041   1.028
 4872TIP3    H214623   3.393   2.029   1.058
 4873TIP3   OH214624   2.786   4.372   1.150
 4873TIP3    H114625   2.819   4.460   1.129
 4873TIP3    H214626   2.807   4.361   1.243
 4874TIP3   OH214627   4.936   2.519   0.439
 4874TIP3    H114628   4.885   2.552   0.365
 4874TIP3    H214629   4.902   2.431   0.455
 4875TIP3   OH214630   0.994   3.681   0.879
 4875TIP3    H114631   1.009   3.613   0.945
 4875TIP3    H214632   1.076   3.729   0.874
 4876TIP3   OH214633   2.573   3.291   2.038
 4876TIP3    H114634   2.552   3.232   1.965
 4876TIP3    H214635   2.618   3.237   2.102
 4877TIP3   OH214636   3.431   0.476   3.852
 4877TIP3    H114637   3.511   0.519   3.884
 4877TIP3    H214638   3.394   0.539   3.790
 4878TIP3   OH214639   3.838   5.727   1.826
 4878TIP3    H114640   3.772   5.793   1.847
 4878TIP3    H214641   3.796   5.669   1.763
 4879TIP3   OH214642   5.086   2.660   0.975
 4879TIP3    H114643   5.112   2.743   0.936
 4879TIP3    H214644   5.153   2.598   0.947
 4880TIP3   OH214645   4.651   5.514   4.860
 4880TIP3    H114646   4.667   5.575   4.789
 4880TIP3    H214647   4.556   5.500   4.859
 4881TIP3   OH214648   1.990   1.318   4.500
 4881TIP3    H114649   1.952   1.377   4.434
 4881TIP3    H214650   1.915   1.280   4.544
 4882TIP3   OH214651   1.383   3.288   3.098
 4882TIP3    H114652   1.398   3.382   3.104
 4882TIP3    H214653   1.427   3.251   3.175
 4883TIP3   OH214654  -0.005   1.199   3.141
 4883TIP3    H114655   0.051   1.260   3.189
 4883TIP3    H214656   0.034   1.194   3.053
 4884TIP3   OH214657   3.946   0.207   1.404
 4884TIP3    H114658   3.984   0.140   1.348
 4884TIP3    H214659   3.862   0.170   1.432
 4885TIP3   OH214660   6.311   5.049   4.131
 4885TIP3    H114661   6.406   5.048   4.135
 4885TIP3    H214662   6.291   5.068   4.039
 4886TIP3   OH214663   0.128   3.286   4.293
 4886TIP3    H114664   0.190   3.230   4.338
 4886TIP3    H214665   0.170   3.307   4.210
 4887TIP3   OH214666   3.175   4.462   4.069
 4887TIP3    H114667   3.132   4.380   4.091
 4887TIP3    H214668   3.150   4.478   3.978
 4888TIP3   OH214669   3.121   3.404   1.945
 4888TIP3    H114670   3.072   3.345   1.887
 4888TIP3    H214671   3.056   3.467   1.976
 4889TIP3   OH214672   5.638   5.080   4.657
 4889TIP3    H114673   5.656   5.028   4.578
 4889TIP3    H214674   5.695   5.043   4.724
 4890TIP3   OH214675   5.623   1.813   3.878
 4890TIP3    H114676   5.657   1.723   3.879
 4890TIP3    H214677   5.544   1.808   3.931
 4891TIP3   OH214678   5.267   4.101   4.074
 4891TIP3    H114679   5.233   4.175   4.124
 4891TIP3    H214680   5.222   4.024   4.110
 4892TIP3   OH214681   1.348   1.954   1.350
 4892TIP3    H114682   1.261   1.918   1.332
 4892TIP3    H214683   1.376   1.993   1.267
 4893TIP3   OH214684   0.031   5.064   1.950
 4893TIP3    H114685   0.062   4.974   1.947
 4893TIP3    H214686   0.083   5.110   1.885
 4894TIP3   OH214687   3.378   2.002   4.281
 4894TIP3    H114688   3.340   1.959   4.204
 4894TIP3    H214689   3.458   1.953   4.298
 4895TIP3   OH214690   5.262   1.802   1.654
 4895TIP3    H114691   5.326   1.853   1.605
 4895TIP3    H214692   5.215   1.868   1.707
 4896TIP3   OH214693   0.743   2.592   4.466
 4896TIP3    H114694   0.737   2.499   4.489
 4896TIP3    H214695   0.657   2.628   4.485
 4897TIP3   OH214696   5.317   0.599   4.590
 4897TIP3    H114697   5.338   0.573   4.500
 4897TIP3    H214698   5.305   0.516   4.636
 4898TIP3   OH214699   5.357   1.230   3.116
 4898TIP3    H114700   5.404   1.150   3.140
 4898TIP3    H214701   5.370   1.289   3.190
 4899TIP3   OH214702   0.092   3.317   4.638
 4899TIP3    H114703   0.153   3.284   4.704
 4899TIP3    H214704   0.084   3.245   4.575
 4900TIP3   OH214705   0.340   2.647   3.178
 4900TIP3    H114706   0.261   2.596   3.160
 4900TIP3    H214707   0.412   2.593   3.144
 4901TIP3   OH214708   2.218   4.648   3.842
 4901TIP3    H114709   2.135   4.691   3.820
 4901TIP3    H214710   2.279   4.721   3.857
 4902TIP3   OH214711   4.169   4.561   3.738
 4902TIP3    H114712   4.132   4.472   3.735
 4902TIP3    H214713   4.212   4.565   3.824
 4903TIP3   OH214714   2.134   5.047   4.803
 4903TIP3    H114715   2.064   4.983   4.818
 4903TIP3    H214716   2.212   4.994   4.786
 4904TIP3   OH214717   2.019   0.608   4.282
 4904TIP3    H114718   2.042   0.700   4.295
 4904TIP3    H214719   2.082   0.577   4.217
 4905TIP3   OH214720   6.242   2.261   2.870
 4905TIP3    H114721   6.311   2.195   2.859
 4905TIP3    H214722   6.217   2.253   2.963
 4906TIP3   OH214723   5.057   3.830   2.445
 4906TIP3    H114724   5.119   3.798   2.380
 4906TIP3    H214725   5.100   3.906   2.485
 4907TIP3   OH214726   1.123   1.429   4.276
 4907TIP3    H114727   1.208   1.401   4.243
 4907TIP3    H214728   1.064   1.357   4.254
 4908TIP3   OH214729   4.387   3.673   3.274
 4908TIP3    H114730   4.349   3.660   3.360
 4908TIP3    H214731   4.389   3.586   3.234
 4909TIP3   OH214732   3.966   5.198   2.807
 4909TIP3    H114733   3.994   5.202   2.899
 4909TIP3    H214734   4.048   5.189   2.758
 4910TIP3   OH214735   1.688   3.530   2.553
 4910TIP3    H114736   1.746   3.483   2.612
 4910TIP3    H214737   1.748   3.580   2.497
 4911TIP3   OH214738   4.845   4.752   4.061
 4911TIP3    H114739   4.790   4.757   3.983
 4911TIP3    H214740   4.910   4.821   4.050
 4912TIP3   OH214741   2.663   3.159   3.023
 4912TIP3    H114742   2.626   3.225   2.964
 4912TIP3    H214743   2.597   3.148   3.091
 4913TIP3   OH214744   1.079   3.450   4.592
 4913TIP3    H114745   1.062   3.534   4.550
 4913TIP3    H214746   1.107   3.472   4.680
 4914TIP3   OH214747   3.954   0.809   3.583
 4914TIP3    H114748   3.999   0.779   3.504
 4914TIP3    H214749   3.897   0.880   3.552
 4915TIP3   OH214750   2.700   5.647   0.130
 4915TIP3    H114751   2.643   5.601   0.191
 4915TIP3    H214752   2.642   5.674   0.058
 4916TIP3   OH214753   3.115   0.067   3.597
 4916TIP3    H114754   3.096   0.160   3.585
 4916TIP3    H214755   3.164   0.042   3.519
 4917TIP3   OH214756   1.580   4.986   3.101
 4917TIP3    H114757   1.589   4.923   3.172
 4917TIP3    H214758   1.486   4.991   3.085
 4918TIP3   OH214759   1.899   4.618   4.389
 4918TIP3    H114760   1.961   4.571   4.445
 4918TIP3    H214761   1.936   4.611   4.301
 4919TIP3   OH214762   3.310   5.493   3.058
 4919TIP3    H114763   3.356   5.559   3.111
 4919TIP3    H214764   3.237   5.540   3.019
 4920TIP3   OH214765   5.165   5.838   0.723
 4920TIP3    H114766   5.185   5.767   0.662
 4920TIP3    H214767   5.079   5.870   0.697
 4921TIP3   OH214768   6.083   1.147   1.727
 4921TIP3    H114769   6.026   1.173   1.800
 4921TIP3    H214770   6.072   1.053   1.720
 4922TIP3   OH214771   2.450   2.096   0.388
 4922TIP3    H114772   2.514   2.166   0.372
 4922TIP3    H214773   2.472   2.062   0.475
 4923TIP3   OH214774   0.083   2.594   3.921
 4923TIP3    H114775   0.090   2.668   3.861
 4923TIP3    H214776   0.162   2.599   3.976
 4924TIP3   OH214777   5.998   2.799   3.356
 4924TIP3    H114778   5.981   2.891   3.338
 4924TIP3    H214779   6.046   2.799   3.439
 4925TIP3   OH214780   4.680   1.699   3.255
 4925TIP3    H114781   4.727   1.725   3.176
 4925TIP3    H214782   4.599   1.659   3.222
 4926TIP3   OH214783   2.933   1.217   2.869
 4926TIP3    H114784   2.921   1.227   2.963
 4926TIP3    H214785   2.996   1.285   2.845
 4927TIP3   OH214786   6.213   2.586   3.406
 4927TIP3    H114787   6.159   2.580   3.328
 4927TIP3    H214788   6.299   2.553   3.378
 4928TIP3   OH214789   4.133   4.654   0.838
 4928TIP3    H114790   4.173   4.737   0.864
 4928TIP3    H214791   4.137   4.654   0.743
 4929TIP3   OH214792   4.625   0.354   1.562
 4929TIP3    H114793   4.702   0.320   1.517
 4929TIP3    H214794   4.579   0.405   1.496
 4930TIP3   OH214795   4.470   0.875   3.715
 4930TIP3    H114796   4.489   0.910   3.802
 4930TIP3    H214797   4.541   0.909   3.660
 4931TIP3   OH214798   0.725   1.075   4.785
 4931TIP3    H114799   0.660   1.005   4.789
 4931TIP3    H214800   0.802   1.039   4.828
 4932TIP3   OH214801   6.267   1.557   1.439
 4932TIP3    H114802   6.324   1.548   1.515
 4932TIP3    H214803   6.230   1.645   1.447
 4933TIP3   OH214804   2.256   2.512   0.975
 4933TIP3    H114805   2.177   2.464   0.952
 4933TIP3    H214806   2.256   2.515   1.070
 4934TIP3   OH214807   4.126   5.001   1.182
 4934TIP3    H114808   4.187   5.019   1.111
 4934TIP3    H214809   4.086   5.085   1.202
 4935TIP3   OH214810   3.968   2.817   1.556
 4935TIP3    H114811   4.026   2.740   1.560
 4935TIP3    H214812   3.880   2.780   1.547
 4936TIP3   OH214813   5.933   1.570   3.572
 4936TIP3    H114814   5.941   1.612   3.487
 4936TIP3    H214815   5.883   1.632   3.626
 4937TIP3   OH214816   2.848   5.159   3.924
 4937TIP3    H114817   2.803   5.128   3.846
 4937TIP3    H214818   2.865   5.080   3.976
 4938TIP3   OH214819   1.343   4.591   0.173
 4938TIP3    H114820   1.349   4.655   0.244
 4938TIP3    H214821   1.277   4.529   0.203
 4939TIP3   OH214822   3.811   3.777   0.088
 4939TIP3    H114823   3.731   3.829   0.077
 4939TIP3    H214824   3.878   3.825   0.039
 4940TIP3   OH214825   4.161   2.535   1.603
 4940TIP3    H114826   4.098   2.543   1.676
 4940TIP3    H214827   4.202   2.450   1.617
 4941TIP3   OH214828   3.773   0.379   3.968
 4941TIP3    H114829   3.707   0.325   4.013
 4941TIP3    H214830   3.729   0.463   3.953
 4942TIP3   OH214831   1.683   1.740   2.504
 4942TIP3    H114832   1.742   1.669   2.480
 4942TIP3    H214833   1.614   1.698   2.556
 4943TIP3   OH214834   1.523   0.383   4.775
 4943TIP3    H114835   1.540   0.293   4.803
 4943TIP3    H214836   1.559   0.436   4.846
 4944TIP3   OH214837   0.757   0.733   4.941
 4944TIP3    H114838   0.827   0.735   5.006
 4944TIP3    H214839   0.796   0.691   4.864
 4945TIP3   OH214840   2.217   4.084   4.337
 4945TIP3    H114841   2.131   4.127   4.337
 4945TIP3    H214842   2.278   4.152   4.311
 4946TIP3   OH214843   5.514   2.811   3.881
 4946TIP3    H114844   5.445   2.751   3.909
 4946TIP3    H214845   5.591   2.755   3.869
 4947TIP3   OH214846   0.761   5.406   1.748
 4947TIP3    H114847   0.756   5.312   1.764
 4947TIP3    H214848   0.829   5.415   1.681
 4948TIP3   OH214849   2.693   3.224   2.269
 4948TIP3    H114850   2.682   3.146   2.323
 4948TIP3    H214851   2.787   3.241   2.269
 4949TIP3   OH214852   2.553   2.161   1.136
 4949TIP3    H114853   2.640   2.193   1.158
 4949TIP3    H214854   2.495   2.201   1.200
 4950TIP3   OH214855   3.298   1.962   0.656
 4950TIP3    H114856   3.326   1.921   0.575
 4950TIP3    H214857   3.296   2.056   0.636
 4951TIP3   OH214858   2.085   2.230   2.274
 4951TIP3    H114859   2.123   2.264   2.194
 4951TIP3    H214860   2.118   2.287   2.343
 4952TIP3   OH214861   0.923   5.238   3.287
 4952TIP3    H114862   0.909   5.202   3.199
 4952TIP3    H214863   0.836   5.240   3.327
 4953TIP3   OH214864   5.623   0.723   4.001
 4953TIP3    H114865   5.704   0.726   3.951
 4953TIP3    H214866   5.561   0.773   3.949
 4954TIP3   OH214867   0.409   0.497   3.173
 4954TIP3    H114868   0.435   0.424   3.229
 4954TIP3    H214869   0.320   0.519   3.200
 4955TIP3   OH214870   4.016   2.953   0.690
 4955TIP3    H114871   4.103   2.919   0.711
 4955TIP3    H214872   3.956   2.892   0.733
 4956TIP3   OH214873   1.106   0.702   2.721
 4956TIP3    H114874   1.079   0.762   2.790
 4956TIP3    H214875   1.188   0.738   2.688
 4957TIP3   OH214876   3.131   2.957   1.207
 4957TIP3    H114877   3.132   3.031   1.268
 4957TIP3    H214878   3.213   2.911   1.224
 4958TIP3   OH214879   4.279   2.656   2.828
 4958TIP3    H114880   4.297   2.563   2.813
 4958TIP3    H214881   4.227   2.657   2.908
 4959TIP3   OH214882   3.546   1.038   4.346
 4959TIP3    H114883   3.556   1.134   4.349
 4959TIP3    H214884   3.557   1.010   4.436
 4960TIP3   OH214885   2.419   0.025   3.927
 4960TIP3    H114886   2.343   0.055   3.976
 4960TIP3    H214887   2.422   0.083   3.851
 4961TIP3   OH214888   1.050   0.497   4.396
 4961TIP3    H114889   1.126   0.550   4.374
 4961TIP3    H214890   0.987   0.515   4.326
 4962TIP3   OH214891   1.721   3.329   1.364
 4962TIP3    H114892   1.740   3.241   1.395
 4962TIP3    H214893   1.635   3.350   1.402
 4963TIP3   OH214894   2.860   0.783   1.084
 4963TIP3    H114895   2.817   0.714   1.033
 4963TIP3    H214896   2.817   0.863   1.057
 4964TIP3   OH214897   5.079   5.220   2.874
 4964TIP3    H114898   5.132   5.140   2.877
 4964TIP3    H214899   5.089   5.258   2.961
 4965TIP3   OH214900   0.833   4.341   1.955
 4965TIP3    H114901   0.891   4.312   1.884
 4965TIP3    H214902   0.746   4.310   1.930
 4966TIP3   OH214903   0.937   1.063   2.555
 4966TIP3    H114904   0.941   0.976   2.594
 4966TIP3    H214905   0.871   1.110   2.606
 4967TIP3   OH214906   5.667   3.429   4.977
 4967TIP3    H114907   5.622   3.377   4.911
 4967TIP3    H214908   5.610   3.425   5.054
 4968TIP3   OH214909   0.687   5.720   4.345
 4968TIP3    H114910   0.631   5.642   4.340
 4968TIP3    H214911   0.673   5.754   4.433
 4969TIP3   OH214912   1.937   0.630   0.584
 4969TIP3    H114913   2.007   0.590   0.534
 4969TIP3    H214914   1.945   0.592   0.672
 4970TIP3   OH214915   1.750   3.816   5.062
 4970TIP3    H114916   1.835   3.840   5.026
 4970TIP3    H214917   1.771   3.763   5.139
 4971TIP3   OH214918   4.404   4.460   3.200
 4971TIP3    H114919   4.481   4.415   3.237
 4971TIP3    H214920   4.413   4.448   3.106
 4972TIP3   OH214921   4.694   4.989   3.396
 4972TIP3    H114922   4.708   4.895   3.389
 4972TIP3    H214923   4.780   5.028   3.379
 4973TIP3   OH214924   0.669   5.895   3.326
 4973TIP3    H114925   0.610   5.824   3.352
 4973TIP3    H214926   0.757   5.861   3.344
 4974TIP3   OH214927   3.076   2.867   1.479
 4974TIP3    H114928   3.059   2.831   1.392
 4974TIP3    H214929   3.086   2.790   1.535
 4975TIP3   OH214930   6.371   2.072   4.782
 4975TIP3    H114931   6.279   2.084   4.805
 4975TIP3    H214932   6.376   2.090   4.688
 4976TIP3   OH214933   5.344   1.457   3.273
 4976TIP3    H114934   5.317   1.498   3.191
 4976TIP3    H214935   5.384   1.528   3.323
 4977TIP3   OH214936   1.414   5.332   3.253
 4977TIP3    H114937   1.478   5.320   3.183
 4977TIP3    H214938   1.386   5.423   3.245
 4978TIP3   OH214939   1.642   1.951   0.582
 4978TIP3    H114940   1.686   2.005   0.649
 4978TIP3    H214941   1.550   1.950   0.609
 4979TIP3   OH214942   6.280   2.859   1.166
 4979TIP3    H114943   6.308   2.824   1.081
 4979TIP3    H214944   6.339   2.820   1.229
 4980TIP3   OH214945   2.035   4.000   3.407
 4980TIP3    H114946   2.095   3.961   3.344
 4980TIP3    H214947   1.992   3.926   3.449
 4981TIP3   OH214948   1.115   5.168   3.993
 4981TIP3    H114949   1.034   5.158   3.943
 4981TIP3    H214950   1.102   5.246   4.046
 4982TIP3   OH214951   2.746   2.931   4.978
 4982TIP3    H114952   2.655   2.917   4.952
 4982TIP3    H214953   2.755   2.880   5.059
 4983TIP3   OH214954   0.046   1.610   2.045
 4983TIP3    H114955   0.022   1.586   1.955
 4983TIP3    H214956   0.138   1.636   2.038
 4984TIP3   OH214957   4.733   3.033   3.911
 4984TIP3    H114958   4.724   2.951   3.861
 4984TIP3    H214959   4.805   3.079   3.869
 4985TIP3   OH214960   2.276   5.119   1.238
 4985TIP3    H114961   2.344   5.090   1.178
 4985TIP3    H214962   2.196   5.120   1.186
 4986TIP3   OH214963   3.793   5.175   1.542
 4986TIP3    H114964   3.720   5.121   1.512
 4986TIP3    H214965   3.773   5.263   1.508
 4987TIP3   OH214966   1.808   4.827   2.375
 4987TIP3    H114967   1.717   4.852   2.392
 4987TIP3    H214968   1.855   4.849   2.455
 4988TIP3   OH214969   5.469   3.917   1.652
 4988TIP3    H114970   5.401   3.899   1.587
 4988TIP3    H214971   5.453   3.854   1.722
 4989TIP3   OH214972   3.016  -0.029   2.536
 4989TIP3    H114973   3.024  -0.005   2.628
 4989TIP3    H214974   3.107  -0.045   2.507
 4990TIP3   OH214975   6.245   0.282   2.730
 4990TIP3    H114976   6.253   0.376   2.715
 4990TIP3    H214977   6.246   0.243   2.642
 4991TIP3   OH214978   2.295   2.331   1.759
 4991TIP3    H114979   2.217   2.322   1.704
 4991TIP3    H214980   2.309   2.425   1.765
 4992TIP3   OH214981   2.425   4.305   1.510
 4992TIP3    H114982   2.448   4.237   1.574
 4992TIP3    H214983   2.348   4.270   1.464
 4993TIP3   OH214984   3.335   5.578   0.250
 4993TIP3    H114985   3.355   5.670   0.267
 4993TIP3    H214986   3.376   5.559   0.166
 4994TIP3   OH214987   4.052   3.390   1.562
 4994TIP3    H114988   4.116   3.319   1.566
 4994TIP3    H214989   4.088   3.458   1.618
 4995TIP3   OH214990   3.335   5.872   4.232
 4995TIP3    H114991   3.354   5.929   4.157
 4995TIP3    H214992   3.370   5.786   4.206
 4996TIP3   OH214993   3.074   5.802   2.122
 4996TIP3    H114994   3.127   5.877   2.150
 4996TIP3    H214995   3.092   5.735   2.187
 4997TIP3   OH214996   0.620   4.983   0.492
 4997TIP3    H114997   0.709   4.949   0.486
 4997TIP3    H214998   0.580   4.961   0.408
 4998TIP3   OH214999   5.025   3.589   1.502
 4998TIP3    H115000   4.971   3.552   1.433
 4998TIP3    H215001   4.975   3.575   1.582
 4999TIP3   OH215002   2.294   5.877   3.691
 4999TIP3    H115003   2.350   5.888   3.768
 4999TIP3    H215004   2.251   5.792   3.704
 5000TIP3   OH215005   1.498   3.005   3.541
 5000TIP3    H115006   1.523   2.927   3.590
 5000TIP3    H215007   1.521   3.078   3.599
 5001TIP3   OH215008   4.306   2.282   5.041
 5001TIP3    H115009   4.238   2.215   5.037
 5001TIP3    H215010   4.382   2.242   5.001
 5002TIP3   OH215011   0.943   4.663   5.123
 5002TIP3    H115012   0.872   4.693   5.180
 5002TIP3    H215013   0.899   4.609   5.057
 5003TIP3   OH215014   5.836   5.278   3.505
 5003TIP3    H115015   5.884   5.359   3.521
 5003TIP3    H215016   5.819   5.278   3.411
 5004TIP3   OH215017   5.721   3.772   0.689
 5004TIP3    H115018   5.700   3.824   0.767
 5004TIP3    H215019   5.696   3.828   0.615
 5005TIP3   OH215020   3.532   4.885   4.653
 5005TIP3    H115021   3.492   4.933   4.725
 5005TIP3    H215022   3.513   4.793   4.671
 5006TIP3   OH215023   0.913   2.657   0.880
 5006TIP3    H115024   0.990   2.688   0.928
 5006TIP3    H215025   0.845   2.722   0.899
 5007TIP3   OH215026   0.506   3.165   1.956
 5007TIP3    H115027   0.559   3.185   2.033
 5007TIP3    H215028   0.489   3.071   1.962
 5008TIP3   OH215029   4.744   4.564   1.556
 5008TIP3    H115030   4.837   4.565   1.531
 5008TIP3    H215031   4.715   4.655   1.543
 5009TIP3   OH215032   1.256   0.331   3.001
 5009TIP3    H115033   1.306   0.343   3.082
 5009TIP3    H215034   1.201   0.409   2.995
 5010TIP3   OH215035   0.249   4.874   0.192
 5010TIP3    H115036   0.194   4.812   0.240
 5010TIP3    H215037   0.249   4.841   0.102
 5011TIP3   OH215038   0.388   2.599   0.562
 5011TIP3    H115039   0.392   2.567   0.652
 5011TIP3    H215040   0.313   2.658   0.561
 5012TIP3   OH215041   4.451   2.216   4.811
 5012TIP3    H115042   4.401   2.246   4.735
 5012TIP3    H215043   4.502   2.293   4.837
 5013TIP3   OH215044   0.389   5.879   3.483
 5013TIP3    H115045   0.439   5.937   3.540
 5013TIP3    H215046   0.441   5.798   3.479
 5014TIP3   OH215047   1.109   4.063   1.920
 5014TIP3    H115048   1.121   4.089   2.011
 5014TIP3    H215049   1.080   3.972   1.925
 5015TIP3   OH215050   1.956   4.657   4.122
 5015TIP3    H115051   1.952   4.752   4.126
 5015TIP3    H215052   1.925   4.635   4.034
 5016TIP3   OH215053   1.953   4.400   3.767
 5016TIP3    H115054   1.914   4.313   3.756
 5016TIP3    H215055   1.964   4.433   3.679
 5017TIP3   OH215056   4.621   5.605   0.569
 5017TIP3    H115057   4.571   5.566   0.641
 5017TIP3    H215058   4.562   5.599   0.493
 5018TIP3   OH215059   0.597   5.447   4.857
 5018TIP3    H115060   0.667   5.408   4.909
 5018TIP3    H215061   0.518   5.401   4.885
 5019TIP3   OH215062   5.528   5.308   4.726
 5019TIP3    H115063   5.526   5.305   4.821
 5019TIP3    H215064   5.550   5.219   4.699
 5020TIP3   OH215065   1.119   0.713   1.206
 5020TIP3    H115066   1.066   0.759   1.141
 5020TIP3    H215067   1.056   0.682   1.271
 5021TIP3   OH215068   0.317   1.144   4.632
 5021TIP3    H115069   0.237   1.111   4.673
 5021TIP3    H215070   0.286   1.199   4.560
 5022TIP3   OH215071   4.398   0.524   3.448
 5022TIP3    H115072   4.438   0.496   3.365
 5022TIP3    H215073   4.428   0.459   3.512
 5023TIP3   OH215074   2.719   2.201   1.569
 5023TIP3    H115075   2.646   2.263   1.572
 5023TIP3    H215076   2.774   2.224   1.644
 5024TIP3   OH215077   4.350   4.852   1.979
 5024TIP3    H115078   4.327   4.919   1.915
 5024TIP3    H215079   4.295   4.872   2.055
 5025TIP3   OH215080   4.256   5.540   1.122
 5025TIP3    H115081   4.311   5.617   1.140
 5025TIP3    H215082   4.317   5.474   1.089
 5026TIP3   OH215083   5.798   5.898   4.342
 5026TIP3    H115084   5.830   5.937   4.260
 5026TIP3    H215085   5.765   5.973   4.392
 5027TIP3   OH215086   1.700   4.959   1.790
 5027TIP3    H115087   1.614   4.955   1.832
 5027TIP3    H215088   1.746   4.881   1.823
 5028TIP3   OH215089   5.446   3.758   3.862
 5028TIP3    H115090   5.484   3.693   3.803
 5028TIP3    H215091   5.504   3.834   3.855
 5029TIP3   OH215092   2.989   1.993   2.768
 5029TIP3    H115093   2.956   1.914   2.726
 5029TIP3    H215094   3.078   2.003   2.733
 5030TIP3   OH215095   0.803   4.621   4.079
 5030TIP3    H115096   0.785   4.568   4.001
 5030TIP3    H215097   0.742   4.694   4.073
 5031TIP3   OH215098   5.256   2.474   2.001
 5031TIP3    H115099   5.197   2.538   1.961
 5031TIP3    H215100   5.288   2.421   1.929
 5032TIP3   OH215101   1.806   0.353   2.027
 5032TIP3    H115102   1.763   0.434   1.998
 5032TIP3    H215103   1.879   0.383   2.082
 5033TIP3   OH215104   1.180   4.842   1.933
 5033TIP3    H115105   1.127   4.824   2.011
 5033TIP3    H215106   1.122   4.821   1.860
 5034TIP3   OH215107   3.843   1.778   4.997
 5034TIP3    H115108   3.844   1.746   4.907
 5034TIP3    H215109   3.847   1.873   4.989
 5035TIP3   OH215110   2.684   0.962   0.100
 5035TIP3    H115111   2.701   1.027   0.168
 5035TIP3    H215112   2.589   0.958   0.093
 5036TIP3   OH215113   1.053   2.117   4.499
 5036TIP3    H115114   1.032   2.096   4.408
 5036TIP3    H215115   1.037   2.211   4.506
 5037TIP3   OH215116   0.420   1.713   1.203
 5037TIP3    H115117   0.332   1.736   1.234
 5037TIP3    H215118   0.419   1.733   1.110
 5038TIP3   OH215119   2.464   0.478   0.489
 5038TIP3    H115120   2.531   0.523   0.437
 5038TIP3    H215121   2.491   0.386   0.487
 5039TIP3   OH215122   5.886   1.554   2.001
 5039TIP3    H115123   5.940   1.613   1.949
 5039TIP3    H215124   5.848   1.609   2.069
 5040TIP3   OH215125   6.016   2.830   0.181
 5040TIP3    H115126   6.013   2.830   0.276
 5040TIP3    H215127   6.095   2.880   0.159
 5041TIP3   OH215128   3.560   3.254   0.445
 5041TIP3    H115129   3.506   3.328   0.474
 5041TIP3    H215130   3.531   3.181   0.500
 5042TIP3   OH215131   4.129   4.308   5.114
 5042TIP3    H115132   4.048   4.259   5.102
 5042TIP3    H215133   4.128   4.335   5.206
 5043TIP3   OH215134   2.105   0.528   0.389
 5043TIP3    H115135   2.032   0.487   0.342
 5043TIP3    H215136   2.165   0.557   0.319
 5044TIP3   OH215137   2.242   2.672   0.213
 5044TIP3    H115138   2.295   2.605   0.170
 5044TIP3    H215139   2.288   2.754   0.197
 5045TIP3   OH215140   0.337   5.236   0.303
 5045TIP3    H115141   0.397   5.204   0.236
 5045TIP3    H215142   0.253   5.245   0.258
 5046TIP3   OH215143   1.431   2.055   4.905
 5046TIP3    H115144   1.397   1.973   4.870
 5046TIP3    H215145   1.521   2.060   4.871
 5047TIP3   OH215146   0.561   4.004   2.150
 5047TIP3    H115147   0.576   4.091   2.186
 5047TIP3    H215148   0.537   3.951   2.226
 5048TIP3   OH215149   1.404   0.051   3.335
 5048TIP3    H115150   1.380   0.129   3.385
 5048TIP3    H215151   1.477   0.080   3.281
 5049TIP3   OH215152   5.398   2.036   1.524
 5049TIP3    H115153   5.322   2.037   1.466
 5049TIP3    H215154   5.444   2.119   1.506
 5050TIP3   OH215155   6.098   0.829   2.067
 5050TIP3    H115156   6.019   0.830   2.120
 5050TIP3    H215157   6.123   0.922   2.060
 5051TIP3   OH215158   3.364   4.960   4.452
 5051TIP3    H115159   3.430   4.921   4.509
 5051TIP3    H215160   3.345   5.045   4.491
 5052TIP3   OH215161   1.217   4.831   4.392
 5052TIP3    H115162   1.212   4.755   4.334
 5052TIP3    H215163   1.267   4.896   4.342
 5053TIP3   OH215164   5.968   3.665   0.710
 5053TIP3    H115165   6.024   3.706   0.644
 5053TIP3    H215166   5.879   3.693   0.686
 5054TIP3   OH215167   2.856   3.389   0.467
 5054TIP3    H115168   2.767   3.405   0.436
 5054TIP3    H215169   2.850   3.389   0.562
 5055TIP3   OH215170   3.078   5.736   0.795
 5055TIP3    H115171   3.099   5.744   0.702
 5055TIP3    H215172   3.041   5.820   0.819
 5056TIP3   OH215173   0.980   1.196   0.766
 5056TIP3    H115174   1.065   1.154   0.778
 5056TIP3    H215175   0.983   1.231   0.677
 5057TIP3   OH215176   2.958   1.328   0.957
 5057TIP3    H115177   2.983   1.413   0.921
 5057TIP3    H215178   3.006   1.264   0.905
 5058TIP3   OH215179   1.547   5.981   4.984
 5058TIP3    H115180   1.474   5.924   5.007
 5058TIP3    H215181   1.624   5.940   5.024
 5059TIP3   OH215182   2.006   1.160   2.957
 5059TIP3    H115183   2.034   1.112   3.035
 5059TIP3    H215184   1.950   1.229   2.991
 5060TIP3   OH215185   1.516   0.747   4.873
 5060TIP3    H115186   1.567   0.671   4.901
 5060TIP3    H215187   1.511   0.738   4.777
 5061TIP3   OH215188   6.377   4.510   1.403
 5061TIP3    H115189   6.364   4.527   1.496
 5061TIP3    H215190   6.314   4.441   1.382
 5062TIP3   OH215191   4.967   4.556   4.672
 5062TIP3    H115192   5.042   4.567   4.729
 5062TIP3    H215193   5.003   4.557   4.583
 5063TIP3   OH215194   4.056   3.919   4.057
 5063TIP3    H115195   4.139   3.967   4.063
 5063TIP3    H215196   4.076   3.833   4.093
 5064TIP3   OH215197   5.558   2.111   3.792
 5064TIP3    H115198   5.601   2.094   3.875
 5064TIP3    H215199   5.628   2.105   3.727
 5065TIP3   OH215200   3.162   4.167   0.068
 5065TIP3    H115201   3.068   4.170   0.089
 5065TIP3    H215202   3.188   4.077   0.087
 5066TIP3   OH215203   0.792   1.033   3.705
 5066TIP3    H115204   0.775   0.963   3.769
 5066TIP3    H215205   0.808   0.986   3.623
 5067TIP3   OH215206   4.341   0.189   0.476
 5067TIP3    H115207   4.373   0.275   0.449
 5067TIP3    H215208   4.349   0.134   0.398
 5068TIP3   OH215209   2.914   4.808   2.747
 5068TIP3    H115210   2.982   4.853   2.796
 5068TIP3    H215211   2.897   4.865   2.671
 5069TIP3   OH215212   1.868   0.041   2.256
 5069TIP3    H115213   1.867   0.064   2.349
 5069TIP3    H215214   1.782   0.001   2.241
 5070TIP3   OH215215   2.797   1.049   3.449
 5070TIP3    H115216   2.706   1.064   3.426
 5070TIP3    H215217   2.831   0.994   3.379
 5071TIP3   OH215218   2.621   5.065   4.274
 5071TIP3    H115219   2.597   5.047   4.365
 5071TIP3    H215220   2.706   5.108   4.279
 5072TIP3   OH215221   2.816   0.954   2.268
 5072TIP3    H115222   2.908   0.978   2.257
 5072TIP3    H215223   2.817   0.859   2.273
 5073TIP3   OH215224   1.620   4.781   3.288
 5073TIP3    H115225   1.525   4.780   3.304
 5073TIP3    H215226   1.639   4.693   3.254
 5074TIP3   OH215227   6.003   0.976   1.093
 5074TIP3    H115228   5.983   0.995   1.184
 5074TIP3    H215229   6.048   0.892   1.095
 5075TIP3   OH215230   2.423   1.971   3.096
 5075TIP3    H115231   2.382   2.031   3.033
 5075TIP3    H215232   2.406   2.011   3.181
 5076TIP3   OH215233   3.846   1.063   3.357
 5076TIP3    H115234   3.860   1.133   3.294
 5076TIP3    H215235   3.929   1.014   3.357
 5077TIP3   OH215236   6.231   4.473   4.796
 5077TIP3    H115237   6.185   4.555   4.814
 5077TIP3    H215238   6.324   4.497   4.795
 5078TIP3   OH215239   6.134   0.408   1.224
 5078TIP3    H115240   6.047   0.371   1.210
 5078TIP3    H215241   6.177   0.401   1.139
 5079TIP3   OH215242   2.175   0.607   4.068
 5079TIP3    H115243   2.134   0.623   3.983
 5079TIP3    H215244   2.220   0.689   4.089
 5080TIP3   OH215245   4.250   4.469   1.511
 5080TIP3    H115246   4.190   4.526   1.463
 5080TIP3    H215247   4.209   4.383   1.507
 5081TIP3   OH215248   0.393   1.479   1.788
 5081TIP3    H115249   0.444   1.403   1.816
 5081TIP3    H215250   0.316   1.442   1.745
 5082TIP3   OH215251   2.127   1.946   2.292
 5082TIP3    H115252   2.060   1.969   2.356
 5082TIP3    H215253   2.162   2.030   2.263
 5083TIP3   OH215254   2.132   5.320   0.380
 5083TIP3    H115255   2.108   5.314   0.288
 5083TIP3    H215256   2.223   5.293   0.383
 5084TIP3   OH215257   0.886   2.654   2.321
 5084TIP3    H115258   0.918   2.668   2.410
 5084TIP3    H215259   0.869   2.560   2.317
 5085TIP3   OH215260   2.570   1.839   1.759
 5085TIP3    H115261   2.619   1.845   1.841
 5085TIP3    H215262   2.492   1.892   1.774
 5086TIP3   OH215263   3.163   5.963   2.328
 5086TIP3    H115264   3.251   5.945   2.361
 5086TIP3    H215265   3.106   5.954   2.404
 5087TIP3   OH215266   0.132   5.965   1.551
 5087TIP3    H115267   0.214   5.941   1.508
 5087TIP3    H215268   0.122   6.059   1.532
 5088TIP3   OH215269   2.266   0.267   3.391
 5088TIP3    H115270   2.234   0.214   3.318
 5088TIP3    H215271   2.189   0.281   3.446
 5089TIP3   OH215272   3.827   4.171   1.888
 5089TIP3    H115273   3.887   4.232   1.930
 5089TIP3    H215274   3.877   4.135   1.814
 5090TIP3   OH215275   0.348   1.759   3.670
 5090TIP3    H115276   0.269   1.813   3.667
 5090TIP3    H215277   0.316   1.669   3.668
 5091TIP3   OH215278   5.534   4.866   1.446
 5091TIP3    H115279   5.622   4.829   1.434
 5091TIP3    H215280   5.539   4.952   1.404
 5092TIP3   OH215281   5.389   4.961   3.103
 5092TIP3    H115282   5.389   4.954   3.199
 5092TIP3    H215283   5.389   4.870   3.073
 5093TIP3   OH215284   0.708   1.901   1.211
 5093TIP3    H115285   0.658   1.848   1.149
 5093TIP3    H215286   0.758   1.837   1.262
 5094TIP3   OH215287   2.846   5.891   2.740
 5094TIP3    H115288   2.792   5.969   2.751
 5094TIP3    H215289   2.787   5.818   2.758
 5095TIP3   OH215290   6.325   2.476   1.350
 5095TIP3    H115291   6.236   2.507   1.368
 5095TIP3    H215292   6.366   2.548   1.303
 5096TIP3   OH215293   4.359   4.066   0.943
 5096TIP3    H115294   4.384   4.020   1.023
 5096TIP3    H215295   4.436   4.119   0.921
 5097TIP3   OH215296   0.401   3.933   2.371
 5097TIP3    H115297   0.405   4.026   2.393
 5097TIP3    H215298   0.350   3.894   2.442
 5098TIP3   OH215299   4.235   3.925   1.740
 5098TIP3    H115300   4.322   3.940   1.702
 5098TIP3    H215301   4.241   3.959   1.829
 5099TIP3   OH215302   3.645   5.958   0.189
 5099TIP3    H115303   3.553   5.932   0.195
 5099TIP3    H215304   3.688   5.886   0.144
 5100TIP3   OH215305   3.634   1.196   3.660
 5100TIP3    H115306   3.571   1.133   3.624
 5100TIP3    H215307   3.589   1.234   3.736
 5101TIP3   OH215308   3.903   2.788   3.991
 5101TIP3    H115309   3.856   2.705   3.991
 5101TIP3    H215310   3.993   2.765   4.015
 5102TIP3   OH215311   5.836   0.192   3.117
 5102TIP3    H115312   5.848   0.286   3.127
 5102TIP3    H215313   5.833   0.179   3.022
 5103TIP3   OH215314   2.688   5.352   1.796
 5103TIP3    H115315   2.764   5.313   1.752
 5103TIP3    H215316   2.622   5.361   1.728
 5104TIP3   OH215317   1.651   0.960   0.200
 5104TIP3    H115318   1.651   0.888   0.136
 5104TIP3    H215319   1.698   1.031   0.156
 5105TIP3   OH215320   3.556   4.649   4.167
 5105TIP3    H115321   3.625   4.626   4.229
 5105TIP3    H215322   3.478   4.662   4.222
 5106TIP3   OH215323   5.194   1.544   1.590
 5106TIP3    H115324   5.209   1.628   1.633
 5106TIP3    H215325   5.233   1.554   1.503
 5107TIP3   OH215326   0.703   4.975   4.377
 5107TIP3    H115327   0.682   4.883   4.361
 5107TIP3    H215328   0.618   5.018   4.385
 5108TIP3   OH215329   3.713   2.022   4.321
 5108TIP3    H115330   3.666   2.093   4.277
 5108TIP3    H215331   3.722   2.053   4.412
 5109TIP3   OH215332   5.549   3.434   2.710
 5109TIP3    H115333   5.503   3.375   2.651
 5109TIP3    H215334   5.528   3.522   2.679
 5110TIP3   OH215335   2.508   0.030   1.713
 5110TIP3    H115336   2.447   0.021   1.786
 5110TIP3    H215337   2.453   0.060   1.640
 5111TIP3   OH215338   2.016   1.649   3.413
 5111TIP3    H115339   1.923   1.629   3.406
 5111TIP3    H215340   2.024   1.696   3.496
 5112TIP3   OH215341   2.393   1.325   0.591
 5112TIP3    H115342   2.366   1.244   0.635
 5112TIP3    H215343   2.453   1.366   0.653
 5113TIP3   OH215344   2.371   1.634   1.132
 5113TIP3    H115345   2.327   1.716   1.152
 5113TIP3    H215346   2.372   1.630   1.036
 5114TIP3   OH215347   4.347   2.926   5.073
 5114TIP3    H115348   4.387   2.941   4.987
 5114TIP3    H215349   4.254   2.942   5.060
 5115TIP3   OH215350   1.091   5.537   0.660
 5115TIP3    H115351   1.046   5.540   0.576
 5115TIP3    H215352   1.074   5.622   0.700
 5116TIP3   OH215353   4.053   5.063   4.703
 5116TIP3    H115354   4.053   4.981   4.653
 5116TIP3    H215355   3.960   5.085   4.711
 5117TIP3   OH215356   2.528   0.835   4.437
 5117TIP3    H115357   2.524   0.859   4.530
 5117TIP3    H215358   2.595   0.767   4.433
 5118TIP3   OH215359   6.351   5.401   3.734
 5118TIP3    H115360   6.272   5.353   3.762
 5118TIP3    H215361   6.327   5.441   3.651
 5119TIP3   OH215362   0.235   1.205   0.355
 5119TIP3    H115363   0.263   1.117   0.380
 5119TIP3    H215364   0.158   1.222   0.410
 5120TIP3   OH215365   1.061   1.279   4.987
 5120TIP3    H115366   1.094   1.361   5.025
 5120TIP3    H215367   1.060   1.218   5.060
 5121TIP3   OH215368   3.169   1.324   5.029
 5121TIP3    H115369   3.228   1.309   4.955
 5121TIP3    H215370   3.224   1.310   5.107
 5122TIP3   OH215371   2.245   0.853   4.149
 5122TIP3    H115372   2.206   0.934   4.116
 5122TIP3    H215373   2.255   0.868   4.243
 5123TIP3   OH215374   1.502   0.127   3.694
 5123TIP3    H115375   1.544   0.041   3.686
 5123TIP3    H215376   1.446   0.134   3.617
 5124TIP3   OH215377   3.371   1.250   4.059
 5124TIP3    H115378   3.369   1.188   4.132
 5124TIP3    H215379   3.290   1.300   4.068
 5125TIP3   OH215380   2.029   0.887   0.223
 5125TIP3    H115381   2.106   0.868   0.277
 5125TIP3    H215382   1.961   0.911   0.285
 5126TIP3   OH215383   4.378   1.228   4.440
 5126TIP3    H115384   4.421   1.196   4.519
 5126TIP3    H215385   4.445   1.221   4.371
 5127TIP3   OH215386   1.991   4.084   0.676
 5127TIP3    H115387   2.054   4.074   0.605
 5127TIP3    H215388   1.922   4.021   0.655
 5128TIP3   OH215389   2.130   5.055   4.390
 5128TIP3    H115390   2.164   4.969   4.365
 5128TIP3    H215391   2.055   5.035   4.447
 5129TIP3   OH215392   1.085   0.734   0.818
 5129TIP3    H115393   1.066   0.795   0.890
 5129TIP3    H215394   1.181   0.734   0.812
 5130TIP3   OH215395   6.327   3.321   2.386
 5130TIP3    H115396   6.260   3.258   2.412
 5130TIP3    H215397   6.280   3.385   2.331
 5131TIP3   OH215398   0.227   5.955   1.943
 5131TIP3    H115399   0.240   5.907   2.024
 5131TIP3    H215400   0.134   5.943   1.923
 5132TIP3   OH215401   3.603   4.170   4.288
 5132TIP3    H115402   3.528   4.225   4.314
 5132TIP3    H215403   3.652   4.224   4.226
 5133TIP3   OH215404   0.970   4.147   4.599
 5133TIP3    H115405   0.994   4.223   4.546
 5133TIP3    H215406   0.949   4.079   4.535
 5134TIP3   OH215407   0.574   5.030   2.620
 5134TIP3    H115408   0.644   5.020   2.555
 5134TIP3    H215409   0.619   5.031   2.704
 5135TIP3   OH215410   4.198   4.519   0.082
 5135TIP3    H115411   4.210   4.520  -0.013
 5135TIP3    H215412   4.195   4.611   0.107
 5136TIP3   OH215413   2.911   5.721   4.037
 5136TIP3    H115414   2.983   5.768   3.995
 5136TIP3    H215415   2.902   5.640   3.987
 5137TIP3   OH215416   3.183   5.758   1.270
 5137TIP3    H115417   3.229   5.748   1.187
 5137TIP3    H215418   3.127   5.680   1.277
 5138TIP3   OH215419   3.781   4.753   5.080
 5138TIP3    H115420   3.850   4.687   5.087
 5138TIP3    H215421   3.711   4.710   5.030
 5139TIP3   OH215422   0.926   2.081   4.227
 5139TIP3    H115423   0.970   1.997   4.244
 5139TIP3    H215424   0.839   2.057   4.196
 5140TIP3   OH215425   3.755   5.268   5.069
 5140TIP3    H115426   3.761   5.197   5.132
 5140TIP3    H215427   3.833   5.322   5.086
 5141TIP3   OH215428   5.620   0.161   3.760
 5141TIP3    H115429   5.678   0.106   3.708
 5141TIP3    H215430   5.532   0.127   3.742
 5142TIP3   OH215431   4.103   1.901   1.734
 5142TIP3    H115432   4.010   1.904   1.713
 5142TIP3    H215433   4.108   1.857   1.819
 5143TIP3   OH215434   2.146   5.644   3.738
 5143TIP3    H115435   2.195   5.620   3.816
 5143TIP3    H215436   2.076   5.701   3.770
 5144TIP3   OH215437   1.041   0.984   1.871
 5144TIP3    H115438   0.954   0.996   1.910
 5144TIP3    H215439   1.074   0.903   1.910
 5145TIP3   OH215440   6.089   1.459   0.827
 5145TIP3    H115441   6.063   1.370   0.853
 5145TIP3    H215442   6.023   1.486   0.763
 5146TIP3   OH215443   3.892   1.244   2.024
 5146TIP3    H115444   3.845   1.185   1.965
 5146TIP3    H215445   3.984   1.226   2.007
 5147TIP3   OH215446   3.263   0.449   4.413
 5147TIP3    H115447   3.303   0.533   4.391
 5147TIP3    H215448   3.278   0.395   4.336
 5148TIP3   OH215449   5.929   1.066   3.696
 5148TIP3    H115450   5.875   1.052   3.619
 5148TIP3    H215451   5.996   1.128   3.669
 5149TIP3   OH215452   0.212   4.251   3.142
 5149TIP3    H115453   0.144   4.186   3.121
 5149TIP3    H215454   0.210   4.258   3.238
 5150TIP3   OH215455   2.618   5.727   1.744
 5150TIP3    H115456   2.692   5.673   1.770
 5150TIP3    H215457   2.555   5.717   1.815
 5151TIP3   OH215458   4.360   4.043   3.414
 5151TIP3    H115459   4.346   4.039   3.320
 5151TIP3    H215460   4.273   4.055   3.451
 5152TIP3   OH215461   0.830   2.617   3.034
 5152TIP3    H115462   0.799   2.673   2.962
 5152TIP3    H215463   0.754   2.563   3.056
 5153TIP3   OH215464   2.421   2.490   3.789
 5153TIP3    H115465   2.506   2.470   3.830
 5153TIP3    H215466   2.444   2.528   3.704
 5154TIP3   OH215467   5.130   4.187   4.740
 5154TIP3    H115468   5.217   4.166   4.706
 5154TIP3    H215469   5.146   4.216   4.830
 5155TIP3   OH215470   4.250   1.572   2.075
 5155TIP3    H115471   4.219   1.485   2.048
 5155TIP3    H215472   4.285   1.559   2.163
 5156TIP3   OH215473   0.969   1.016   4.899
 5156TIP3    H115474   1.056   1.051   4.915
 5156TIP3    H215475   0.932   1.003   4.986
 5157TIP3   OH215476   5.722   4.433   4.023
 5157TIP3    H115477   5.650   4.370   4.035
 5157TIP3    H215478   5.678   4.513   3.995
 5158TIP3   OH215479   5.002   4.279   4.515
 5158TIP3    H115480   5.031   4.269   4.605
 5158TIP3    H215481   5.047   4.357   4.483
 5159TIP3   OH215482   1.181   2.923   2.620
 5159TIP3    H115483   1.255   2.938   2.679
 5159TIP3    H215484   1.199   2.979   2.544
 5160TIP3   OH215485   5.613   1.679   4.261
 5160TIP3    H115486   5.675   1.668   4.334
 5160TIP3    H215487   5.536   1.718   4.302
 5161TIP3   OH215488   0.386   5.030   1.240
 5161TIP3    H115489   0.343   5.010   1.156
 5161TIP3    H215490   0.337   5.104   1.275
 5162TIP3   OH215491   6.106   0.108   0.834
 5162TIP3    H115492   6.065   0.047   0.773
 5162TIP3    H215493   6.038   0.124   0.900
 5163TIP3   OH215494   5.362   2.302   0.260
 5163TIP3    H115495   5.319   2.243   0.198
 5163TIP3    H215496   5.311   2.383   0.255
 5164TIP3   OH215497   5.047   5.582   2.597
 5164TIP3    H115498   5.094   5.575   2.680
 5164TIP3    H215499   4.961   5.544   2.615
 5165TIP3   OH215500   4.141   4.213   1.463
 5165TIP3    H115501   4.191   4.134   1.482
 5165TIP3    H215502   4.053   4.182   1.442
 5166TIP3   OH215503   5.125   1.170   4.215
 5166TIP3    H115504   5.040   1.148   4.253
 5166TIP3    H215505   5.112   1.257   4.176
 5167TIP3   OH215506   3.472   5.158   3.812
 5167TIP3    H115507   3.528   5.151   3.735
 5167TIP3    H215508   3.471   5.251   3.833
 5168TIP3   OH215509   5.852   1.111   2.585
 5168TIP3    H115510   5.843   1.023   2.622
 5168TIP3    H215511   5.808   1.106   2.500
 5169TIP3   OH215512   5.919   3.126   1.307
 5169TIP3    H115513   6.006   3.153   1.335
 5169TIP3    H215514   5.915   3.150   1.214
 5170TIP3   OH215515   6.265   0.947   4.359
 5170TIP3    H115516   6.273   0.930   4.266
 5170TIP3    H215517   6.248   0.862   4.398
 5171TIP3   OH215518   3.276   1.395   3.166
 5171TIP3    H115519   3.195   1.428   3.206
 5171TIP3    H215520   3.344   1.453   3.199
 5172TIP3   OH215521   4.802   5.741   2.499
 5172TIP3    H115522   4.893   5.740   2.529
 5172TIP3    H215523   4.798   5.676   2.429
 5173TIP3   OH215524   2.316   3.828   4.830
 5173TIP3    H115525   2.273   3.911   4.851
 5173TIP3    H215526   2.299   3.814   4.737
 5174TIP3   OH215527   4.103   1.702   4.973
 5174TIP3    H115528   4.088   1.609   4.993
 5174TIP3    H215529   4.019   1.744   4.986
 5175TIP3   OH215530   2.603   2.667   4.357
 5175TIP3    H115531   2.652   2.650   4.437
 5175TIP3    H215532   2.670   2.689   4.292
 5176TIP3   OH215533   0.049   4.288   0.946
 5176TIP3    H115534   0.080   4.197   0.941
 5176TIP3    H215535   0.108   4.329   1.009
 5177TIP3   OH215536   3.808   0.588   4.484
 5177TIP3    H115537   3.900   0.564   4.492
 5177TIP3    H215538   3.780   0.548   4.401
 5178TIP3   OH215539   5.158   2.848   0.800
 5178TIP3    H115540   5.237   2.891   0.833
 5178TIP3    H215541   5.158   2.866   0.706
 5179TIP3   OH215542   5.811   4.862   3.391
 5179TIP3    H115543   5.826   4.774   3.425
 5179TIP3    H215544   5.862   4.865   3.310
 5180TIP3   OH215545   1.692   5.892   3.622
 5180TIP3    H115546   1.748   5.932   3.689
 5180TIP3    H215547   1.731   5.807   3.605
 5181TIP3   OH215548   2.279   5.284   3.922
 5181TIP3    H115549   2.240   5.207   3.879
 5181TIP3    H215550   2.269   5.267   4.015
 5182TIP3   OH215551   3.298   4.713   3.216
 5182TIP3    H115552   3.363   4.775   3.181
 5182TIP3    H215553   3.213   4.753   3.193
 5183TIP3   OH215554   5.885   5.100   2.932
 5183TIP3    H115555   5.816   5.036   2.947
 5183TIP3    H215556   5.913   5.084   2.842
 5184TIP3   OH215557   3.429   3.806   1.351
 5184TIP3    H115558   3.427   3.901   1.357
 5184TIP3    H215559   3.359   3.777   1.408
 5185TIP3   OH215560   1.900   0.791   3.986
 5185TIP3    H115561   1.931   0.712   3.942
 5185TIP3    H215562   1.835   0.828   3.927
 5186TIP3   OH215563   0.329   1.015   3.761
 5186TIP3    H115564   0.267   0.961   3.711
 5186TIP3    H215565   0.411   1.007   3.714
 5187TIP3   OH215566   4.858   4.910   1.932
 5187TIP3    H115567   4.841   4.999   1.962
 5187TIP3    H215568   4.772   4.871   1.921
 5188TIP3   OH215569   1.726   2.134   3.062
 5188TIP3    H115570   1.778   2.054   3.050
 5188TIP3    H215571   1.688   2.124   3.149
 5189TIP3   OH215572   4.988   3.982   4.159
 5189TIP3    H115573   4.992   3.912   4.094
 5189TIP3    H215574   4.898   4.014   4.155
 5190TIP3   OH215575   5.248   4.679   3.564
 5190TIP3    H115576   5.247   4.588   3.532
 5190TIP3    H215577   5.340   4.704   3.559
 5191TIP3   OH215578   2.532   4.562   2.934
 5191TIP3    H115579   2.578   4.560   3.019
 5191TIP3    H215580   2.452   4.611   2.952
 5192TIP3   OH215581   3.819   0.466   3.327
 5192TIP3    H115582   3.835   0.471   3.422
 5192TIP3    H215583   3.796   0.556   3.302
 5193TIP3   OH215584   5.707   3.817   2.579
 5193TIP3    H115585   5.724   3.764   2.501
 5193TIP3    H215586   5.791   3.818   2.626
 5194TIP3   OH215587   6.304   0.820   4.027
 5194TIP3    H115588   6.223   0.792   3.984
 5194TIP3    H215589   6.353   0.739   4.040
 5195TIP3   OH215590   1.738   4.492   1.835
 5195TIP3    H115591   1.736   4.528   1.746
 5195TIP3    H215592   1.647   4.469   1.853
 5196TIP3   OH215593   0.867   4.136   2.140
 5196TIP3    H115594   0.842   4.195   2.069
 5196TIP3    H215595   0.803   4.064   2.136
 5197TIP3   OH215596   1.016   5.641   2.263
 5197TIP3    H115597   1.010   5.736   2.261
 5197TIP3    H215598   0.947   5.611   2.204
 5198TIP3   OH215599   1.780   2.603   1.372
 5198TIP3    H115600   1.824   2.583   1.454
 5198TIP3    H215601   1.734   2.522   1.349
 5199TIP3   OH215602   0.815   1.294   0.154
 5199TIP3    H115603   0.805   1.296   0.249
 5199TIP3    H215604   0.860   1.211   0.136
 5200TIP3   OH215605   1.086   3.229   1.771
 5200TIP3    H115606   1.159   3.194   1.719
 5200TIP3    H215607   1.127   3.295   1.828
 5201TIP3   OH215608   3.325   1.652   2.531
 5201TIP3    H115609   3.399   1.618   2.481
 5201TIP3    H215610   3.331   1.747   2.522
 5202TIP3   OH215611   2.089   5.631   2.682
 5202TIP3    H115612   2.111   5.700   2.619
 5202TIP3    H215613   2.064   5.556   2.627
 5203TIP3   OH215614   5.691   1.115   2.370
 5203TIP3    H115615   5.611   1.068   2.395
 5203TIP3    H215616   5.661   1.184   2.311
 5204TIP3   OH215617   1.469   5.912   1.300
 5204TIP3    H115618   1.521   5.963   1.238
 5204TIP3    H215619   1.523   5.835   1.320
 5205TIP3   OH215620   4.155   5.401   4.687
 5205TIP3    H115621   4.125   5.406   4.778
 5205TIP3    H215622   4.219   5.331   4.687
 5206TIP3   OH215623   5.724   2.701   0.959
 5206TIP3    H115624   5.672   2.734   1.032
 5206TIP3    H215625   5.724   2.773   0.896
 5207TIP3   OH215626   1.097   0.152   1.643
 5207TIP3    H115627   1.088   0.177   1.552
 5207TIP3    H215628   1.047   0.070   1.650
 5208TIP3   OH215629   1.197   1.369   4.757
 5208TIP3    H115630   1.149   1.341   4.835
 5208TIP3    H215631   1.267   1.304   4.748
 5209TIP3   OH215632   0.515   5.180   0.088
 5209TIP3    H115633   0.532   5.267   0.052
 5209TIP3    H215634   0.516   5.122   0.011
 5210TIP3   OH215635   4.797   0.974   4.766
 5210TIP3    H115636   4.843   0.939   4.843
 5210TIP3    H215637   4.783   0.898   4.710
 5211TIP3   OH215638   2.230   5.360   1.482
 5211TIP3    H115639   2.281   5.376   1.561
 5211TIP3    H215640   2.139   5.355   1.513
 5212TIP3   OH215641   1.931   5.056   0.546
 5212TIP3    H115642   1.898   5.069   0.457
 5212TIP3    H215643   2.025   5.075   0.539
 5213TIP3   OH215644   1.555   5.667   3.289
 5213TIP3    H115645   1.567   5.640   3.380
 5213TIP3    H215646   1.470   5.630   3.264
 5214TIP3   OH215647   5.314   5.687   3.330
 5214TIP3    H115648   5.382   5.660   3.269
 5214TIP3    H215649   5.258   5.610   3.341
 5215TIP3   OH215650   0.205   4.462   4.596
 5215TIP3    H115651   0.207   4.475   4.691
 5215TIP3    H215652   0.116   4.485   4.570
 5216TIP3   OH215653   5.941   4.939   1.045
 5216TIP3    H115654   5.910   4.928   0.956
 5216TIP3    H215655   6.024   4.986   1.036
 5217TIP3   OH215656   1.222   0.682   3.098
 5217TIP3    H115657   1.129   0.676   3.076
 5217TIP3    H215658   1.267   0.677   3.014
 5218TIP3   OH215659   3.356   0.669   1.916
 5218TIP3    H115660   3.450   0.679   1.899
 5218TIP3    H215661   3.350   0.658   2.011
 5219TIP3   OH215662   1.312   5.838   5.050
 5219TIP3    H115663   1.369   5.766   5.075
 5219TIP3    H215664   1.228   5.796   5.031
 5220TIP3   OH215665   3.684   2.799   0.266
 5220TIP3    H115666   3.770   2.841   0.265
 5220TIP3    H215667   3.687   2.739   0.340
 5221TIP3   OH215668   4.256   0.938   3.577
 5221TIP3    H115669   4.261   0.971   3.487
 5221TIP3    H215670   4.347   0.927   3.603
 5222TIP3   OH215671   0.363   4.635   0.717
 5222TIP3    H115672   0.447   4.680   0.733
 5222TIP3    H215673   0.360   4.565   0.782
 5223TIP3   OH215674   0.705   4.699   0.661
 5223TIP3    H115675   0.673   4.693   0.571
 5223TIP3    H215676   0.796   4.727   0.652
 5224TIP3   OH215677   5.554   3.748   5.021
 5224TIP3    H115678   5.521   3.718   4.936
 5224TIP3    H215679   5.641   3.783   5.002
 5225TIP3   OH215680   1.995   2.387   4.150
 5225TIP3    H115681   1.986   2.385   4.246
 5225TIP3    H215682   1.906   2.372   4.118
 5226TIP3   OH215683   5.499   1.359   1.416
 5226TIP3    H115684   5.438   1.304   1.465
 5226TIP3    H215685   5.580   1.356   1.468
 5227TIP3   OH215686   3.796   3.488   0.058
 5227TIP3    H115687   3.888   3.460   0.050
 5227TIP3    H215688   3.801   3.584   0.061
 5228TIP3   OH215689   1.592   0.761   2.479
 5228TIP3    H115690   1.618   0.686   2.425
 5228TIP3    H215691   1.663   0.772   2.542
 5229TIP3   OH215692   5.474   5.550   0.731
 5229TIP3    H115693   5.561   5.584   0.750
 5229TIP3    H215694   5.465   5.559   0.636
 5230TIP3   OH215695   0.509   2.636   4.727
 5230TIP3    H115696   0.509   2.732   4.735
 5230TIP3    H215697   0.566   2.606   4.798
 5231TIP3   OH215698   5.441   2.551   1.366
 5231TIP3    H115699   5.415   2.490   1.297
 5231TIP3    H215700   5.451   2.635   1.321
 5232TIP3   OH215701   2.729   0.740   4.688
 5232TIP3    H115702   2.707   0.701   4.603
 5232TIP3    H215703   2.817   0.775   4.677
 5233TIP3   OH215704   3.278   4.375   2.623
 5233TIP3    H115705   3.266   4.385   2.529
 5233TIP3    H215706   3.322   4.291   2.633
 5234TIP3   OH215707   4.989   5.262   4.249
 5234TIP3    H115708   5.074   5.218   4.259
 5234TIP3    H215709   4.929   5.193   4.223
 5235TIP3   OH215710   1.092   4.116   0.617
 5235TIP3    H115711   1.098   4.086   0.707
 5235TIP3    H215712   1.162   4.182   0.609
 5236TIP3   OH215713   1.310   5.575   3.243
 5236TIP3    H115714   1.255   5.612   3.174
 5236TIP3    H215715   1.255   5.578   3.322
 5237TIP3   OH215716   6.004   1.097   5.044
 5237TIP3    H115717   5.963   1.091   5.130
 5237TIP3    H215718   6.069   1.166   5.052
 5238TIP3   OH215719   5.153   4.396   0.465
 5238TIP3    H115720   5.179   4.406   0.556
 5238TIP3    H215721   5.135   4.303   0.455
 5239TIP3   OH215722   4.155   2.109   2.128
 5239TIP3    H115723   4.234   2.064   2.157
 5239TIP3    H215724   4.085   2.072   2.183
 5240TIP3   OH215725   5.919   2.699   4.201
 5240TIP3    H115726   5.897   2.791   4.188
 5240TIP3    H215727   5.913   2.685   4.296
 5241TIP3   OH215728   4.481   5.777   3.441
 5241TIP3    H115729   4.501   5.794   3.533
 5241TIP3    H215730   4.410   5.838   3.421
 5242TIP3   OH215731   1.111   1.467   0.193
 5242TIP3    H115732   1.160   1.496   0.115
 5242TIP3    H215733   1.113   1.543   0.251
 5243TIP3   OH215734   2.641   5.012   1.913
 5243TIP3    H115735   2.680   4.936   1.957
 5243TIP3    H215736   2.715   5.069   1.894
 5244TIP3   OH215737   1.527   4.453   4.107
 5244TIP3    H115738   1.592   4.434   4.175
 5244TIP3    H215739   1.572   4.432   4.025
 5245TIP3   OH215740   4.390   0.774   1.513
 5245TIP3    H115741   4.318   0.770   1.575
 5245TIP3    H215742   4.444   0.847   1.542
 5246TIP3   OH215743   3.625   5.821   3.763
 5246TIP3    H115744   3.613   5.895   3.704
 5246TIP3    H215745   3.712   5.834   3.801
 5247TIP3   OH215746   5.246   5.754   3.889
 5247TIP3    H115747   5.299   5.689   3.935
 5247TIP3    H215748   5.192   5.793   3.958
 5248TIP3   OH215749   2.487   1.094   1.365
 5248TIP3    H115750   2.410   1.088   1.309
 5248TIP3    H215751   2.554   1.135   1.310
 5249TIP3   OH215752   0.666   5.059   2.353
 5249TIP3    H115753   0.716   5.140   2.349
 5249TIP3    H215754   0.651   5.035   2.262
 5250TIP3   OH215755   3.184   0.657   1.565
 5250TIP3    H115756   3.097   0.677   1.529
 5250TIP3    H215757   3.243   0.715   1.516
 5251TIP3   OH215758   4.636   3.815   3.294
 5251TIP3    H115759   4.613   3.794   3.384
 5251TIP3    H215760   4.557   3.855   3.258
 5252TIP3   OH215761   5.245   3.709   3.196
 5252TIP3    H115762   5.224   3.797   3.227
 5252TIP3    H215763   5.324   3.684   3.245
 5253TIP3   OH215764   3.119   1.154   0.830
 5253TIP3    H115765   3.054   1.109   0.776
 5253TIP3    H215766   3.173   1.083   0.865
 5254TIP3   OH215767   4.429   1.314   4.938
 5254TIP3    H115768   4.376   1.244   4.901
 5254TIP3    H215769   4.519   1.281   4.936
 5255TIP3   OH215770   2.674   4.783   3.857
 5255TIP3    H115771   2.707   4.694   3.842
 5255TIP3    H215772   2.662   4.789   3.952
 5256TIP3   OH215773   2.487   4.371   4.610
 5256TIP3    H115774   2.473   4.411   4.525
 5256TIP3    H215775   2.577   4.340   4.608
 5257TIP3   OH215776   2.819   1.936   4.654
 5257TIP3    H115777   2.891   1.999   4.645
 5257TIP3    H215778   2.791   1.946   4.745
 5258TIP3   OH215779   2.786   2.235   2.448
 5258TIP3    H115780   2.750   2.242   2.359
 5258TIP3    H215781   2.858   2.298   2.449
 5259TIP3   OH215782   3.494   2.763   0.541
 5259TIP3    H115783   3.523   2.738   0.629
 5259TIP3    H215784   3.483   2.681   0.494
 5260TIP3   OH215785   0.156   3.724   2.994
 5260TIP3    H115786   0.085   3.704   2.934
 5260TIP3    H215787   0.113   3.767   3.068
 5261TIP3   OH215788   0.918   5.728   0.157
 5261TIP3    H115789   0.842   5.749   0.212
 5261TIP3    H215790   0.972   5.806   0.161
 5262TIP3   OH215791   0.879   4.680   1.448
 5262TIP3    H115792   0.852   4.698   1.359
 5262TIP3    H215793   0.903   4.766   1.484
 5263TIP3   OH215794   3.973   5.141   0.901
 5263TIP3    H115795   4.063   5.174   0.896
 5263TIP3    H215796   3.981   5.047   0.882
 5264TIP3   OH215797   3.973   3.203   2.160
 5264TIP3    H115798   3.880   3.222   2.172
 5264TIP3    H215799   4.016   3.243   2.235
 5265TIP3   OH215800   2.803   3.759   4.810
 5265TIP3    H115801   2.727   3.714   4.846
 5265TIP3    H215802   2.876   3.733   4.867
 5266TIP3   OH215803   2.066   2.351   0.250
 5266TIP3    H115804   2.023   2.436   0.251
 5266TIP3    H215805   2.126   2.353   0.323
 5267TIP3   OH215806   4.575   2.732   1.035
 5267TIP3    H115807   4.562   2.671   1.108
 5267TIP3    H215808   4.516   2.804   1.054
 5268TIP3   OH215809   6.145   3.176   1.979
 5268TIP3    H115810   6.180   3.241   1.918
 5268TIP3    H215811   6.078   3.129   1.929
 5269TIP3   OH215812   0.725   2.631   3.974
 5269TIP3    H115813   0.749   2.710   3.924
 5269TIP3    H215814   0.689   2.572   3.908
 5270TIP3   OH215815   5.349   2.170   0.932
 5270TIP3    H115816   5.355   2.194   0.840
 5270TIP3    H215817   5.401   2.090   0.939
 5271TIP3   OH215818   0.992   4.729   2.685
 5271TIP3    H115819   1.067   4.763   2.637
 5271TIP3    H215820   1.022   4.644   2.719
 5272TIP3   OH215821   2.750   2.694   4.820
 5272TIP3    H115822   2.663   2.666   4.850
 5272TIP3    H215823   2.771   2.770   4.874
 5273TIP3   OH215824   3.352   3.685   1.709
 5273TIP3    H115825   3.338   3.593   1.688
 5273TIP3    H215826   3.284   3.731   1.661
 5274TIP3   OH215827   1.489   2.155   1.547
 5274TIP3    H115828   1.441   2.187   1.623
 5274TIP3    H215829   1.433   2.086   1.511
 5275TIP3   OH215830   2.136   3.604   4.045
 5275TIP3    H115831   2.171   3.524   4.083
 5275TIP3    H215832   2.062   3.627   4.101
 5276TIP3   OH215833   6.077   5.994   1.738
 5276TIP3    H115834   6.058   5.992   1.832
 5276TIP3    H215835   6.150   5.932   1.727
 5277TIP3   OH215836   5.708   4.058   1.688
 5277TIP3    H115837   5.633   4.008   1.655
 5277TIP3    H215838   5.756   3.995   1.742
 5278TIP3   OH215839   2.353   2.731   3.934
 5278TIP3    H115840   2.358   2.652   3.882
 5278TIP3    H215841   2.267   2.728   3.975
 5279TIP3   OH215842   6.216   1.740   2.211
 5279TIP3    H115843   6.276   1.809   2.238
 5279TIP3    H215844   6.265   1.689   2.147
 5280TIP3   OH215845   1.547   1.563   4.263
 5280TIP3    H115846   1.529   1.485   4.315
 5280TIP3    H215847   1.466   1.614   4.267
 5281TIP3   OH215848   2.546   5.882   3.147
 5281TIP3    H115849   2.511   5.851   3.231
 5281TIP3    H215850   2.480   5.945   3.115
 5282TIP3   OH215851   2.706   5.326   0.097
 5282TIP3    H115852   2.679   5.323   0.005
 5282TIP3    H215853   2.633   5.369   0.142
 5283TIP3   OH215854   4.089   2.516   5.031
 5283TIP3    H115855   4.096   2.425   5.003
 5283TIP3    H215856   4.170   2.557   5.001
 5284TIP3   OH215857   0.332   0.933   0.373
 5284TIP3    H115858   0.249   0.900   0.407
 5284TIP3    H215859   0.395   0.863   0.389
 5285TIP3   OH215860   3.225   0.950   1.198
 5285TIP3    H115861   3.254   0.975   1.111
 5285TIP3    H215862   3.133   0.975   1.201
 5286TIP3   OH215863   0.754   5.930   4.920
 5286TIP3    H115864   0.754   5.840   4.886
 5286TIP3    H215865   0.847   5.949   4.934
 5287TIP3   OH215866   2.239   2.370   0.706
 5287TIP3    H115867   2.323   2.369   0.751
 5287TIP3    H215868   2.191   2.295   0.742
 5288TIP3   OH215869   4.397   2.632   1.492
 5288TIP3    H115870   4.331   2.562   1.491
 5288TIP3    H215871   4.386   2.673   1.578
 5289TIP3   OH215872   0.681   5.695   2.774
 5289TIP3    H115873   0.684   5.741   2.690
 5289TIP3    H215874   0.732   5.751   2.833
 5290TIP3   OH215875   4.352   4.204   1.233
 5290TIP3    H115876   4.276   4.218   1.177
 5290TIP3    H215877   4.324   4.232   1.320
 5291TIP3   OH215878   1.145   1.747   3.351
 5291TIP3    H115879   1.164   1.743   3.445
 5291TIP3    H215880   1.146   1.841   3.331
 5292TIP3   OH215881   0.007   5.935   4.654
 5292TIP3    H115882  -0.078   5.978   4.638
 5292TIP3    H215883   0.072   6.002   4.632
 5293TIP3   OH215884   4.856   2.568   1.188
 5293TIP3    H115885   4.832   2.655   1.157
 5293TIP3    H215886   4.861   2.514   1.109
 5294TIP3   OH215887   5.952   1.567   4.054
 5294TIP3    H115888   5.945   1.482   4.097
 5294TIP3    H215889   6.010   1.618   4.111
 5295TIP3   OH215890   1.188   4.754   0.568
 5295TIP3    H115891   1.140   4.741   0.486
 5295TIP3    H215892   1.125   4.797   0.625
 5296TIP3   OH215893   1.579   1.552   3.860
 5296TIP3    H115894   1.605   1.539   3.769
 5296TIP3    H215895   1.660   1.542   3.910
 5297TIP3   OH215896   2.989   5.008   3.346
 5297TIP3    H115897   3.034   4.935   3.389
 5297TIP3    H215898   2.912   5.024   3.399
 5298TIP3   OH215899   2.769   2.638   0.402
 5298TIP3    H115900   2.796   2.634   0.310
 5298TIP3    H215901   2.711   2.714   0.407
 5299TIP3   OH215902   3.402   1.642   3.266
 5299TIP3    H115903   3.356   1.704   3.322
 5299TIP3    H215904   3.435   1.575   3.325
 5300TIP3   OH215905   2.398   5.165   1.898
 5300TIP3    H115906   2.334   5.150   1.967
 5300TIP3    H215907   2.475   5.115   1.924
 5301TIP3   OH215908   2.451   5.817   0.314
 5301TIP3    H115909   2.412   5.896   0.275
 5301TIP3    H215910   2.376   5.769   0.350
 5302TIP3   OH215911   4.521   3.650   5.168
 5302TIP3    H115912   4.516   3.607   5.083
 5302TIP3    H215913   4.608   3.629   5.201
 5303TIP3   OH215914   1.428   1.953   3.205
 5303TIP3    H115915   1.479   1.873   3.194
 5303TIP3    H215916   1.370   1.955   3.128
 5304TIP3   OH215917   6.058   3.699   4.663
 5304TIP3    H115918   6.111   3.623   4.638
 5304TIP3    H215919   6.003   3.715   4.587
 5305TIP3   OH215920   2.001   0.980   1.008
 5305TIP3    H115921   1.962   0.936   0.932
 5305TIP3    H215922   1.951   1.061   1.017
 5306TIP3   OH215923   0.974   5.719   4.675
 5306TIP3    H115924   0.880   5.704   4.669
 5306TIP3    H215925   0.984   5.790   4.739
 5307TIP3   OH215926   1.093   5.167   4.896
 5307TIP3    H115927   1.187   5.163   4.884
 5307TIP3    H215928   1.062   5.078   4.878
 5308TIP3   OH215929   3.000   1.518   3.330
 5308TIP3    H115930   3.001   1.443   3.390
 5308TIP3    H215931   3.013   1.594   3.386
 5309TIP3   OH215932   4.047   3.721   1.900
 5309TIP3    H115933   4.023   3.812   1.881
 5309TIP3    H215934   4.135   3.726   1.936
 5310TIP3   OH215935   5.044   5.711   3.459
 5310TIP3    H115936   4.960   5.677   3.490
 5310TIP3    H215937   5.084   5.636   3.414
 5311TIP3   OH215938   5.963   2.408   0.355
 5311TIP3    H115939   5.922   2.396   0.269
 5311TIP3    H215940   5.914   2.481   0.395
 5312TIP3   OH215941   2.136   0.071   3.225
 5312TIP3    H115942   2.089   0.032   3.152
 5312TIP3    H215943   2.213   0.015   3.237
 5313TIP3   OH215944   2.006   3.979   0.242
 5313TIP3    H115945   1.988   3.894   0.200
 5313TIP3    H215946   2.079   4.015   0.192
 5314TIP3   OH215947   0.995   5.277   2.271
 5314TIP3    H115948   0.965   5.346   2.213
 5314TIP3    H215949   1.029   5.209   2.213
 5315TIP3   OH215950   4.068   4.915   0.635
 5315TIP3    H115951   4.151   4.929   0.681
 5315TIP3    H215952   4.013   4.871   0.700
 5316TIP3   OH215953   4.056   0.931   2.639
 5316TIP3    H115954   4.059   0.868   2.567
 5316TIP3    H215955   4.062   0.877   2.718
 5317TIP3   OH215956   4.256   2.792   4.411
 5317TIP3    H115957   4.346   2.809   4.384
 5317TIP3    H215958   4.255   2.700   4.435
 5318TIP3   OH215959   1.778   5.574   0.720
 5318TIP3    H115960   1.817   5.510   0.661
 5318TIP3    H215961   1.691   5.539   0.739
 5319TIP3   OH215962   3.514   0.901   2.310
 5319TIP3    H115963   3.457   0.826   2.325
 5319TIP3    H215964   3.463   0.977   2.336
 5320TIP3   OH215965   1.230   2.246   2.015
 5320TIP3    H115966   1.178   2.249   2.096
 5320TIP3    H215967   1.215   2.158   1.981
 5321TIP3   OH215968   3.783   0.503   2.123
 5321TIP3    H115969   3.707   0.446   2.111
 5321TIP3    H215970   3.858   0.443   2.120
 5322TIP3   OH215971   4.091   4.102   0.533
 5322TIP3    H115972   4.024   4.166   0.558
 5322TIP3    H215973   4.170   4.131   0.579
 5323TIP3   OH215974   2.942   4.299   0.842
 5323TIP3    H115975   2.849   4.277   0.842
 5323TIP3    H215976   2.948   4.378   0.896
 5324TIP3   OH215977   5.994   4.183   1.346
 5324TIP3    H115978   6.025   4.093   1.356
 5324TIP3    H215979   5.979   4.193   1.252
 5325TIP3   OH215980   5.510   4.269   0.863
 5325TIP3    H115981   5.540   4.293   0.950
 5325TIP3    H215982   5.419   4.240   0.877
 5326TIP3   OH215983   0.249   5.744   0.586
 5326TIP3    H115984   0.210   5.658   0.569
 5326TIP3    H215985   0.230   5.794   0.506
 5327TIP3   OH215986   3.183   2.074   0.076
 5327TIP3    H115987   3.223   2.110  -0.003
 5327TIP3    H215988   3.093   2.053   0.049
 5328TIP3   OH215989   4.921   2.259   2.765
 5328TIP3    H115990   4.900   2.335   2.710
 5328TIP3    H215991   4.908   2.290   2.854
 5329TIP3   OH215992   3.558   3.792   2.163
 5329TIP3    H115993   3.519   3.756   2.084
 5329TIP3    H215994   3.517   3.744   2.235
 5330TIP3   OH215995   3.799   5.895   2.959
 5330TIP3    H115996   3.760   5.982   2.956
 5330TIP3    H215997   3.840   5.884   2.873
 5331TIP3   OH215998   0.747   3.206   2.186
 5331TIP3    H115999   0.723   3.123   2.227
 5331TIP3    H216000   0.802   3.180   2.111
 5332TIP3   OH216001   3.232   4.933   4.214
 5332TIP3    H116002   3.187   5.017   4.209
 5332TIP3    H216003   3.293   4.943   4.288
 5333TIP3   OH216004   5.381   1.647   1.932
 5333TIP3    H116005   5.331   1.572   1.966
 5333TIP3    H216006   5.459   1.651   1.987
 5334TIP3   OH216007   2.602   3.739   1.867
 5334TIP3    H116008   2.531   3.678   1.844
 5334TIP3    H216009   2.599   3.744   1.962
 5335TIP3   OH216010   5.621   5.127   2.614
 5335TIP3    H116011   5.536   5.127   2.658
 5335TIP3    H216012   5.650   5.036   2.619
 5336TIP3   OH216013   6.201   4.479   4.331
 5336TIP3    H116014   6.188   4.396   4.377
 5336TIP3    H216015   6.118   4.525   4.340
 5337TIP3   OH216016   5.933   1.987   3.173
 5337TIP3    H116017   5.952   2.069   3.127
 5337TIP3    H216018   5.934   1.920   3.105
 5338TIP3   OH216019   0.335   2.255   3.744
 5338TIP3    H116020   0.247   2.281   3.718
 5338TIP3    H216021   0.337   2.264   3.839
 5339TIP3   OH216022   4.086   0.833   0.256
 5339TIP3    H116023   4.053   0.791   0.335
 5339TIP3    H216024   4.136   0.764   0.211
 5340TIP3   OH216025   1.500   3.606   2.355
 5340TIP3    H116026   1.429   3.640   2.410
 5340TIP3    H216027   1.556   3.557   2.415
 5341TIP3   OH216028   6.111   4.767   3.390
 5341TIP3    H116029   6.201   4.734   3.392
 5341TIP3    H216030   6.066   4.719   3.460
 5342TIP3   OH216031   4.473   2.291   1.913
 5342TIP3    H116032   4.413   2.363   1.930
 5342TIP3    H216033   4.417   2.220   1.881
 5343TIP3   OH216034   4.967   5.213   1.291
 5343TIP3    H116035   4.991   5.261   1.370
 5343TIP3    H216036   4.907   5.145   1.321
 5344TIP3   OH216037   2.878   0.386   4.134
 5344TIP3    H116038   2.920   0.434   4.206
 5344TIP3    H216039   2.862   0.453   4.067
 5345TIP3   OH216040   1.492   3.928   5.057
 5345TIP3    H116041   1.501   4.006   5.002
 5345TIP3    H216042   1.580   3.889   5.058
 5346TIP3   OH216043   3.363   2.443   4.267
 5346TIP3    H116044   3.423   2.515   4.247
 5346TIP3    H216045   3.279   2.485   4.283
 5347TIP3   OH216046   4.049   4.898   3.023
 5347TIP3    H116047   4.051   4.852   3.106
 5347TIP3    H216048   4.003   4.839   2.963
 5348TIP3   OH216049   4.438   0.427   5.127
 5348TIP3    H116050   4.435   0.511   5.172
 5348TIP3    H216051   4.381   0.439   5.051
 5349TIP3   OH216052   1.061   2.167   1.229
 5349TIP3    H116053   0.974   2.203   1.244
 5349TIP3    H216054   1.100   2.162   1.317
 5350TIP3   OH216055   1.528   0.066   0.702
 5350TIP3    H116056   1.517   0.044   0.609
 5350TIP3    H216057   1.615   0.105   0.707
 5351TIP3   OH216058   4.885   2.902   0.729
 5351TIP3    H116059   4.973   2.907   0.766
 5351TIP3    H216060   4.864   2.991   0.703
 5352TIP3   OH216061   1.866   1.400   3.037
 5352TIP3    H116062   1.924   1.459   3.086
 5352TIP3    H216063   1.787   1.394   3.091
 5353TIP3   OH216064   0.696   4.146   2.378
 5353TIP3    H116065   0.789   4.151   2.400
 5353TIP3    H216066   0.661   4.077   2.435
 5354TIP3   OH216067   1.299   0.605   4.383
 5354TIP3    H116068   1.299   0.512   4.406
 5354TIP3    H216069   1.336   0.648   4.460
 5355TIP3   OH216070   3.414   3.606   4.960
 5355TIP3    H116071   3.388   3.671   4.895
 5355TIP3    H216072   3.333   3.558   4.979
 5356TIP3   OH216073   4.710   0.489   4.889
 5356TIP3    H116074   4.714   0.489   4.985
 5356TIP3    H216075   4.655   0.564   4.868
 5357TIP3   OH216076   0.257   2.455   2.229
 5357TIP3    H116077   0.316   2.516   2.184
 5357TIP3    H216078   0.310   2.421   2.302
 5358TIP3   OH216079   3.206   1.248   3.810
 5358TIP3    H116080   3.283   1.301   3.791
 5358TIP3    H216081   3.141   1.311   3.842
 5359TIP3   OH216082   1.263   4.938   0.185
 5359TIP3    H116083   1.180   4.939   0.137
 5359TIP3    H216084   1.323   4.989   0.130
 5360TIP3   OH216085   5.746   2.766   3.610
 5360TIP3    H116086   5.772   2.789   3.699
 5360TIP3    H216087   5.758   2.846   3.560
 5361TIP3   OH216088   2.682   0.341   0.925
 5361TIP3    H116089   2.601   0.295   0.901
 5361TIP3    H216090   2.749   0.301   0.870
 5362TIP3   OH216091   5.378   3.610   1.203
 5362TIP3    H116092   5.374   3.649   1.116
 5362TIP3    H216093   5.472   3.596   1.218
 5363TIP3   OH216094   1.221   5.182   1.983
 5363TIP3    H116095   1.156   5.251   1.980
 5363TIP3    H216096   1.171   5.100   1.982
 5364TIP3   OH216097   1.027   3.798   4.839
 5364TIP3    H116098   0.953   3.805   4.899
 5364TIP3    H216099   1.086   3.735   4.881
 5365TIP3   OH216100   3.052   5.363   3.540
 5365TIP3    H116101   3.087   5.307   3.609
 5365TIP3    H216102   3.129   5.402   3.499
 5366TIP3   OH216103   1.972   3.170   1.718
 5366TIP3    H116104   1.954   3.084   1.679
 5366TIP3    H216105   2.064   3.187   1.698
 5367TIP3   OH216106   5.983   4.619   4.387
 5367TIP3    H116107   5.889   4.602   4.384
 5367TIP3    H216108   5.996   4.693   4.328
 5368TIP3   OH216109   3.267   1.831   0.194
 5368TIP3    H116110   3.247   1.922   0.173
 5368TIP3    H216111   3.347   1.836   0.247
 5369TIP3   OH216112   2.230   0.725   1.892
 5369TIP3    H116113   2.188   0.683   1.817
 5369TIP3    H216114   2.187   0.810   1.900
 5370TIP3   OH216115   0.522   4.491   3.289
 5370TIP3    H116116   0.603   4.532   3.256
 5370TIP3    H216117   0.504   4.536   3.371
 5371TIP3   OH216118   3.755   2.543   4.042
 5371TIP3    H116119   3.752   2.496   4.125
 5371TIP3    H216120   3.799   2.483   3.982
 5372TIP3   OH216121   5.114   4.654   0.708
 5372TIP3    H116122   5.146   4.564   0.717
 5372TIP3    H216123   5.189   4.702   0.673
 5373TIP3   OH216124   3.775   1.941   0.517
 5373TIP3    H116125   3.776   2.026   0.472
 5373TIP3    H216126   3.835   1.886   0.466
 5374TIP3   OH216127   3.760   1.125   2.668
 5374TIP3    H116128   3.795   1.063   2.604
 5374TIP3    H216129   3.819   1.200   2.663
 5375TIP3   OH216130   6.240   3.882   3.567
 5375TIP3    H116131   6.317   3.925   3.603
 5375TIP3    H216132   6.190   3.954   3.527
 5376TIP3   OH216133   2.285   4.835   1.047
 5376TIP3    H116134   2.315   4.745   1.035
 5376TIP3    H216135   2.364   4.888   1.037
 5377TIP3   OH216136   2.721   1.207   2.300
 5377TIP3    H116137   2.636   1.203   2.345
 5377TIP3    H216138   2.735   1.117   2.269
 5378TIP3   OH216139   0.158   5.084   4.367
 5378TIP3    H116140   0.165   5.056   4.458
 5378TIP3    H216141   0.223   5.030   4.321
 5379TIP3   OH216142   2.457   2.317   3.112
 5379TIP3    H116143   2.395   2.271   3.056
 5379TIP3    H216144   2.538   2.267   3.104
 5380TIP3   OH216145   4.976   3.521   4.659
 5380TIP3    H116146   4.913   3.538   4.729
 5380TIP3    H216147   4.980   3.425   4.654
 5381TIP3   OH216148   5.810   3.935   3.400
 5381TIP3    H116149   5.765   3.873   3.344
 5381TIP3    H216150   5.810   3.895   3.487
 5382TIP3   OH216151   2.920   1.667   1.704
 5382TIP3    H116152   2.867   1.666   1.784
 5382TIP3    H216153   2.944   1.576   1.689
 5383TIP3   OH216154   0.718   4.343   3.970
 5383TIP3    H116155   0.802   4.338   3.925
 5383TIP3    H216156   0.729   4.288   4.048
 5384TIP3   OH216157   5.618   5.562   1.406
 5384TIP3    H116158   5.672   5.613   1.346
 5384TIP3    H216159   5.552   5.624   1.438
 5385TIP3   OH216160   5.067   2.506   2.198
 5385TIP3    H116161   4.994   2.544   2.147
 5385TIP3    H216162   5.088   2.573   2.263
 5386TIP3   OH216163   1.108   3.914   1.164
 5386TIP3    H116164   1.053   3.973   1.215
 5386TIP3    H216165   1.063   3.830   1.165
 5387TIP3   OH216166   2.856   1.815   0.882
 5387TIP3    H116167   2.934   1.869   0.880
 5387TIP3    H216168   2.885   1.730   0.849
 5388TIP3   OH216169   4.313   3.321   1.291
 5388TIP3    H116170   4.397   3.367   1.282
 5388TIP3    H216171   4.248   3.385   1.264
 5389TIP3   OH216172   3.542   4.953   3.422
 5389TIP3    H116173   3.573   4.894   3.491
 5389TIP3    H216174   3.472   5.003   3.464
 5390TIP3   OH216175   3.833   4.898   4.823
 5390TIP3    H116176   3.905   4.842   4.795
 5390TIP3    H216177   3.773   4.839   4.870
 5391TIP3   OH216178   4.633   1.011   3.943
 5391TIP3    H116179   4.570   1.030   4.012
 5391TIP3    H216180   4.673   0.928   3.970
 5392TIP3   OH216181   1.510   1.901   1.710
 5392TIP3    H116182   1.602   1.904   1.736
 5392TIP3    H216183   1.508   1.842   1.635
 5393TIP3   OH216184   0.299   0.141   4.425
 5393TIP3    H116185   0.217   0.094   4.436
 5393TIP3    H216186   0.354   0.111   4.498
 5394TIP3   OH216187   0.807   2.000   0.964
 5394TIP3    H116188   0.767   2.086   0.954
 5394TIP3    H216189   0.824   1.993   1.058
 5395TIP3   OH216190   4.851   2.262   4.742
 5395TIP3    H116191   4.930   2.315   4.730
 5395TIP3    H216192   4.863   2.221   4.828
 5396TIP3   OH216193   5.155   2.497   2.713
 5396TIP3    H116194   5.233   2.480   2.660
 5396TIP3    H216195   5.162   2.589   2.736
 5397TIP3   OH216196   3.008   4.465   0.577
 5397TIP3    H116197   3.026   4.542   0.523
 5397TIP3    H216198   2.998   4.499   0.666
 5398TIP3   OH216199   0.990   2.732   2.586
 5398TIP3    H116200   1.033   2.647   2.578
 5398TIP3    H216201   1.062   2.793   2.604
 5399TIP3   OH216202   3.309   2.711   0.848
 5399TIP3    H116203   3.266   2.647   0.791
 5399TIP3    H216204   3.263   2.705   0.931
 5400TIP3   OH216205   4.561   0.184   5.010
 5400TIP3    H116206   4.552   0.276   5.034
 5400TIP3    H216207   4.582   0.186   4.916
 5401TIP3   OH216208   0.315   1.499   2.812
 5401TIP3    H116209   0.292   1.416   2.770
 5401TIP3    H216210   0.386   1.478   2.872
 5402TIP3   OH216211   4.667   0.650   0.254
 5402TIP3    H116212   4.710   0.647   0.169
 5402TIP3    H216213   4.701   0.730   0.295
 5403TIP3   OH216214   3.378   0.076   0.809
 5403TIP3    H116215   3.436   0.030   0.869
 5403TIP3    H216216   3.308   0.111   0.864
 5404TIP3   OH216217   4.705   1.583   4.198
 5404TIP3    H116218   4.735   1.669   4.229
 5404TIP3    H216219   4.778   1.549   4.147
 5405TIP3   OH216220   2.688   0.321   3.065
 5405TIP3    H116221   2.595   0.325   3.089
 5405TIP3    H216222   2.729   0.269   3.134
 5406TIP3   OH216223   3.567   3.679   3.503
 5406TIP3    H116224   3.550   3.588   3.527
 5406TIP3    H216225   3.482   3.722   3.511
 5407TIP3   OH216226   3.852   1.591   4.298
 5407TIP3    H116227   3.798   1.514   4.319
 5407TIP3    H216228   3.934   1.554   4.265
 5408TIP3   OH216229   0.151   1.304   4.076
 5408TIP3    H116230   0.233   1.338   4.040
 5408TIP3    H216231   0.147   1.213   4.045
 5409TIP3   OH216232   6.074   1.164   0.922
 5409TIP3    H116233   6.049   1.093   0.982
 5409TIP3    H216234   6.167   1.178   0.939
 5410TIP3   OH216235   0.573   4.935   5.151
 5410TIP3    H116236   0.483   4.903   5.148
 5410TIP3    H216237   0.566   5.029   5.138
 5411TIP3   OH216238   1.763   3.965   4.616
 5411TIP3    H116239   1.679   3.918   4.613
 5411TIP3    H216240   1.824   3.901   4.654
 5412TIP3   OH216241   5.888   2.929   4.627
 5412TIP3    H116242   5.939   2.866   4.577
 5412TIP3    H216243   5.806   2.938   4.578
 5413TIP3   OH216244   5.808   3.140   2.386
 5413TIP3    H116245   5.798   3.044   2.387
 5413TIP3    H216246   5.727   3.172   2.346
 5414TIP3   OH216247   1.833   0.844   2.006
 5414TIP3    H116248   1.825   0.835   1.911
 5414TIP3    H216249   1.873   0.930   2.019
 5415TIP3   OH216250   1.060   2.422   1.005
 5415TIP3    H116251   1.039   2.443   0.914
 5415TIP3    H216252   1.069   2.508   1.047
 5416TIP3   OH216253   0.706   0.934   4.231
 5416TIP3    H116254   0.766   0.917   4.158
 5416TIP3    H216255   0.755   0.910   4.309
 5417TIP3   OH216256   0.662   3.716   1.950
 5417TIP3    H116257   0.700   3.628   1.948
 5417TIP3    H216258   0.683   3.750   2.037
 5418TIP3   OH216259   3.743   2.888   4.216
 5418TIP3    H116260   3.808   2.823   4.189
 5418TIP3    H216261   3.778   2.925   4.297
 5419TIP3   OH216262   5.092   3.907   3.595
 5419TIP3    H116263   5.097   3.928   3.688
 5419TIP3    H216264   5.167   3.952   3.556
 5420TIP3   OH216265   1.189   1.496   5.044
 5420TIP3    H116266   1.257   1.518   5.107
 5420TIP3    H216267   1.228   1.514   4.959
 5421TIP3   OH216268   1.972   5.830   0.493
 5421TIP3    H116269   1.979   5.920   0.523
 5421TIP3    H216270   1.878   5.816   0.480
 5422TIP3   OH216271   0.820   2.856   4.388
 5422TIP3    H116272   0.809   2.881   4.297
 5422TIP3    H216273   0.768   2.776   4.398
 5423TIP3   OH216274   3.076   4.533   5.015
 5423TIP3    H116275   3.157   4.563   5.055
 5423TIP3    H216276   3.007   4.565   5.072
 5424TIP3   OH216277   1.883   4.898   3.855
 5424TIP3    H116278   1.872   4.805   3.871
 5424TIP3    H216279   1.813   4.940   3.906
 5425TIP3   OH216280   1.051   3.462   1.055
 5425TIP3    H116281   1.126   3.416   1.093
 5425TIP3    H216282   0.986   3.393   1.041
 5426TIP3   OH216283   2.927   2.804   3.880
 5426TIP3    H116284   2.868   2.764   3.816
 5426TIP3    H216285   2.979   2.731   3.915
 5427TIP3   OH216286   4.428   0.165   4.216
 5427TIP3    H116287   4.522   0.183   4.227
 5427TIP3    H216288   4.414   0.163   4.122
 5428TIP3   OH216289   0.448   1.969   0.305
 5428TIP3    H116290   0.497   1.975   0.387
 5428TIP3    H216291   0.403   2.053   0.296
 5429TIP3   OH216292   3.703   4.463   1.576
 5429TIP3    H116293   3.719   4.379   1.620
 5429TIP3    H216294   3.612   4.459   1.548
 5430TIP3   OH216295   4.330   1.250   4.085
 5430TIP3    H116296   4.240   1.230   4.109
 5430TIP3    H216297   4.324   1.320   4.021
 5431TIP3   OH216298   3.892   3.206   3.468
 5431TIP3    H116299   3.801   3.178   3.469
 5431TIP3    H216300   3.887   3.302   3.469
 5432TIP3   OH216301   4.159   5.831   0.601
 5432TIP3    H116302   4.097   5.788   0.660
 5432TIP3    H216303   4.104   5.881   0.540
 5433TIP3   OH216304   1.883   0.076   2.529
 5433TIP3    H116305   1.902   0.086   2.622
 5433TIP3    H216306   1.834  -0.006   2.523
 5434TIP3   OH216307   5.450   1.820   0.660
 5434TIP3    H116308   5.389   1.772   0.604
 5434TIP3    H216309   5.506   1.869   0.599
 5435TIP3   OH216310   2.223   3.594   1.101
 5435TIP3    H116311   2.313   3.622   1.088
 5435TIP3    H216312   2.188   3.655   1.166
 5436TIP3   OH216313   4.474   0.061   3.037
 5436TIP3    H116314   4.446   0.031   2.951
 5436TIP3    H216315   4.396   0.101   3.075
 5437TIP3   OH216316   5.164   3.957   3.209
 5437TIP3    H116317   5.072   3.973   3.190
 5437TIP3    H216318   5.189   4.026   3.270
 5438TIP3   OH216319   3.947   4.011   1.668
 5438TIP3    H116320   3.962   4.071   1.595
 5438TIP3    H216321   4.034   3.977   1.689
 5439TIP3   OH216322   5.753   1.872   4.109
 5439TIP3    H116323   5.725   1.820   4.184
 5439TIP3    H216324   5.701   1.840   4.036
 5440TIP3   OH216325   3.748   1.420   3.467
 5440TIP3    H116326   3.736   1.378   3.552
 5440TIP3    H216327   3.806   1.494   3.484
 5441TIP3   OH216328   5.634   3.289   2.948
 5441TIP3    H116329   5.593   3.333   2.873
 5441TIP3    H216330   5.722   3.326   2.952
 5442TIP3   OH216331   1.339   4.098   1.352
 5442TIP3    H116332   1.257   4.063   1.385
 5442TIP3    H216333   1.313   4.173   1.299
 5443TIP3   OH216334   4.351   3.017   2.788
 5443TIP3    H116335   4.261   3.038   2.815
 5443TIP3    H216336   4.341   2.949   2.722
 5444TIP3   OH216337   4.920   5.452   3.926
 5444TIP3    H116338   4.886   5.535   3.959
 5444TIP3    H216339   4.850   5.389   3.942
 5445TIP3   OH216340   6.367   4.945   2.590
 5445TIP3    H116341   6.278   4.915   2.606
 5445TIP3    H216342   6.374   4.950   2.495
 5446TIP3   OH216343   4.815   5.109   2.924
 5446TIP3    H116344   4.886   5.159   2.884
 5446TIP3    H216345   4.836   5.110   3.018
 5447TIP3   OH216346   0.936   1.269   2.820
 5447TIP3    H116347   0.890   1.189   2.794
 5447TIP3    H216348   0.866   1.335   2.829
 5448TIP3   OH216349   1.710   0.936   3.280
 5448TIP3    H116350   1.640   0.947   3.216
 5448TIP3    H216351   1.758   0.858   3.252
 5449TIP3   OH216352   4.484   4.156   0.368
 5449TIP3    H116353   4.563   4.130   0.320
 5449TIP3    H216354   4.462   4.242   0.333
 5450TIP3   OH216355   0.727   4.671   2.640
 5450TIP3    H116356   0.801   4.659   2.699
 5450TIP3    H216357   0.660   4.713   2.693
 5451TIP3   OH216358   5.933   4.170   3.123
 5451TIP3    H116359   5.889   4.244   3.166
 5451TIP3    H216360   5.899   4.171   3.033
 5452TIP3   OH216361   4.901   0.873   0.151
 5452TIP3    H116362   4.869   0.961   0.171
 5452TIP3    H216363   4.840   0.840   0.085
 5453TIP3   OH216364   2.854   4.158   0.123
 5453TIP3    H116365   2.852   4.218   0.198
 5453TIP3    H216366   2.786   4.191   0.065
 5454TIP3   OH216367   3.665   1.761   4.433
 5454TIP3    H116368   3.688   1.837   4.379
 5454TIP3    H216369   3.733   1.697   4.414
 5455TIP3   OH216370   0.381   5.954   1.428
 5455TIP3    H116371   0.470   5.984   1.441
 5455TIP3    H216372   0.379   5.921   1.338
 5456TIP3   OH216373   1.213   0.106   4.941
 5456TIP3    H116374   1.304   0.075   4.938
 5456TIP3    H216375   1.203   0.141   5.029
 5457TIP3   OH216376   5.864   5.545   0.982
 5457TIP3    H116377   5.828   5.632   0.964
 5457TIP3    H216378   5.789   5.495   1.016
 5458TIP3   OH216379   6.092   0.568   3.952
 5458TIP3    H116380   6.173   0.558   4.002
 5458TIP3    H216381   6.078   0.663   3.950
 5459TIP3   OH216382   1.603   5.527   0.399
 5459TIP3    H116383   1.661   5.599   0.426
 5459TIP3    H216384   1.516   5.556   0.424
 5460TIP3   OH216385   4.595   0.544   3.054
 5460TIP3    H116386   4.550   0.482   3.112
 5460TIP3    H216387   4.532   0.615   3.041
 5461TIP3   OH216388   2.961   5.480   0.905
 5461TIP3    H116389   3.029   5.546   0.890
 5461TIP3    H216390   2.957   5.430   0.824
 5462TIP3   OH216391   2.012   5.449   4.011
 5462TIP3    H116392   2.017   5.356   4.032
 5462TIP3    H216393   2.103   5.476   3.998
 5463TIP3   OH216394   3.324   2.843   4.268
 5463TIP3    H116395   3.230   2.856   4.261
 5463TIP3    H216396   3.356   2.850   4.178
 5464TIP3   OH216397   5.975   3.413   5.023
 5464TIP3    H116398   5.893   3.422   4.975
 5464TIP3    H216399   5.963   3.467   5.101
 5465TIP3   OH216400   3.874   0.865   4.503
 5465TIP3    H116401   3.911   0.801   4.563
 5465TIP3    H216402   3.840   0.813   4.430
 5466TIP3   OH216403   5.299   3.058   1.376
 5466TIP3    H116404   5.390   3.086   1.376
 5466TIP3    H216405   5.249   3.139   1.385
 5467TIP3   OH216406   3.175   1.733   2.066
 5467TIP3    H116407   3.180   1.724   1.971
 5467TIP3    H216408   3.218   1.655   2.100
 5468TIP3   OH216409   4.840   3.357   0.000
 5468TIP3    H116410   4.931   3.379   0.018
 5468TIP3    H216411   4.790   3.418   0.055
 5469TIP3   OH216412   3.078   0.761   1.843
 5469TIP3    H116413   3.155   0.711   1.817
 5469TIP3    H216414   3.108   0.852   1.845
 5470TIP3   OH216415   4.791  -0.015   4.953
 5470TIP3    H116416   4.885  -0.030   4.942
 5470TIP3    H216417   4.766   0.034   4.875
 5471TIP3   OH216418   0.803   3.820   2.518
 5471TIP3    H116419   0.884   3.773   2.499
 5471TIP3    H216420   0.740   3.786   2.454
 5472TIP3   OH216421   5.707   4.593   4.830
 5472TIP3    H116422   5.772   4.650   4.789
 5472TIP3    H216423   5.635   4.652   4.853
 5473TIP3   OH216424   0.180   0.375   2.449
 5473TIP3    H116425   0.084   0.384   2.441
 5473TIP3    H216426   0.194   0.286   2.479
 5474TIP3   OH216427   5.045   4.453   3.876
 5474TIP3    H116428   4.975   4.484   3.818
 5474TIP3    H216429   5.004   4.450   3.963
 5475TIP3   OH216430   4.725   0.050   1.346
 5475TIP3    H116431   4.770   0.006   1.418
 5475TIP3    H216432   4.724  -0.014   1.275
 5476TIP3   OH216433   3.556   0.274   4.388
 5476TIP3    H116434   3.632   0.248   4.441
 5476TIP3    H216435   3.481   0.258   4.446
 5477TIP3   OH216436   0.689   3.642   3.698
 5477TIP3    H116437   0.677   3.572   3.634
 5477TIP3    H216438   0.783   3.645   3.714
 5478TIP3   OH216439   2.929   5.494   0.144
 5478TIP3    H116440   2.844   5.536   0.131
 5478TIP3    H216441   2.969   5.543   0.216
 5479TIP3   OH216442   4.171   0.283   1.552
 5479TIP3    H116443   4.091   0.263   1.503
 5479TIP3    H216444   4.237   0.296   1.484
 5480TIP3   OH216445   2.434   3.697   2.444
 5480TIP3    H116446   2.472   3.612   2.468
 5480TIP3    H216447   2.348   3.676   2.407
 5481TIP3   OH216448   3.356   4.093   2.713
 5481TIP3    H116449   3.330   4.010   2.751
 5481TIP3    H216450   3.450   4.099   2.730
 5482TIP3   OH216451   5.606   2.080   1.746
 5482TIP3    H116452   5.530   2.045   1.698
 5482TIP3    H216453   5.679   2.070   1.685
 5483TIP3   OH216454   5.373   2.581   0.244
 5483TIP3    H116455   5.306   2.648   0.230
 5483TIP3    H216456   5.382   2.576   0.339
 5484TIP3   OH216457   4.835   1.989   4.522
 5484TIP3    H116458   4.917   2.000   4.476
 5484TIP3    H216459   4.859   1.949   4.606
 5485TIP3   OH216460   4.092   3.472   0.584
 5485TIP3    H116461   4.094   3.476   0.680
 5485TIP3    H216462   3.999   3.480   0.562
 5486TIP3   OH216463   5.628   5.984   0.152
 5486TIP3    H116464   5.708   5.936   0.176
 5486TIP3    H216465   5.660   6.056   0.097
 5487TIP3   OH216466   2.065   3.814   3.009
 5487TIP3    H116467   2.100   3.827   3.097
 5487TIP3    H216468   1.996   3.880   3.000
 5488TIP3   OH216469   5.367   2.933   4.612
 5488TIP3    H116470   5.320   3.016   4.599
 5488TIP3    H216471   5.375   2.897   4.523
 5489TIP3   OH216472   5.533   4.798   3.537
 5489TIP3    H116473   5.624   4.770   3.529
 5489TIP3    H216474   5.521   4.860   3.465
 5490TIP3   OH216475   1.969   1.395   2.509
 5490TIP3    H116476   2.053   1.416   2.467
 5490TIP3    H216477   1.945   1.309   2.472
 5491TIP3   OH216478   0.701   3.825   1.080
 5491TIP3    H116479   0.677   3.827   0.987
 5491TIP3    H216480   0.737   3.738   1.094
 5492TIP3   OH216481   3.353   1.530   4.590
 5492TIP3    H116482   3.389   1.494   4.509
 5492TIP3    H216483   3.265   1.493   4.596
 5493TIP3   OH216484   2.147   0.207   2.466
 5493TIP3    H116485   2.056   0.181   2.480
 5493TIP3    H216486   2.144   0.302   2.455
 5494TIP3   OH216487   4.950   3.678   0.292
 5494TIP3    H116488   4.901   3.744   0.342
 5494TIP3    H216489   5.017   3.728   0.246
 5495TIP3   OH216490   2.041   1.512   0.682
 5495TIP3    H116491   2.083   1.456   0.747
 5495TIP3    H216492   2.098   1.589   0.678
 5496TIP3   OH216493   5.720   1.974   2.192
 5496TIP3    H116494   5.679   1.960   2.276
 5496TIP3    H216495   5.810   1.944   2.204
 5497TIP3   OH216496   2.216   0.020   1.002
 5497TIP3    H116497   2.203   0.092   0.941
 5497TIP3    H216498   2.305   0.034   1.037
 5498TIP3   OH216499   1.822   3.357   4.906
 5498TIP3    H116500   1.892   3.421   4.890
 5498TIP3    H216501   1.755   3.378   4.842
 5499TIP3   OH216502   4.939   1.381   3.113
 5499TIP3    H116503   4.850   1.347   3.125
 5499TIP3    H216504   4.993   1.302   3.105
 5500TIP3   OH216505   4.661   2.193   0.020
 5500TIP3    H116506   4.607   2.128  -0.024
 5500TIP3    H216507   4.603   2.268   0.033
 5501TIP3   OH216508   4.948   4.553   1.320
 5501TIP3    H116509   4.866   4.536   1.274
 5501TIP3    H216510   4.963   4.647   1.307
 5502TIP3   OH216511   6.091   2.080   4.773
 5502TIP3    H116512   6.067   2.013   4.836
 5502TIP3    H216513   6.068   2.042   4.688
 5503TIP3   OH216514   2.425   4.879   0.463
 5503TIP3    H116515   2.517   4.903   0.452
 5503TIP3    H216516   2.427   4.785   0.482
 5504TIP3   OH216517   1.985   3.385   2.407
 5504TIP3    H116518   2.042   3.325   2.456
 5504TIP3    H216519   1.950   3.331   2.336
 5505TIP3   OH216520   5.740   5.025   3.587
 5505TIP3    H116521   5.752   5.115   3.556
 5505TIP3    H216522   5.760   4.970   3.511
 5506TIP3   OH216523   5.153   3.712   0.131
 5506TIP3    H116524   5.203   3.632   0.147
 5506TIP3    H216525   5.142   3.714   0.036
 5507TIP3   OH216526   4.819   5.894   3.220
 5507TIP3    H116527   4.913   5.908   3.232
 5507TIP3    H216528   4.813   5.807   3.181
 5508TIP3   OH216529   2.532   3.387   2.961
 5508TIP3    H116530   2.501   3.402   3.050
 5508TIP3    H216531   2.473   3.440   2.906
 5509TIP3   OH216532   5.543   1.427   4.185
 5509TIP3    H116533   5.597   1.505   4.176
 5509TIP3    H216534   5.464   1.457   4.231
 5510TIP3   OH216535   0.303   3.109   3.121
 5510TIP3    H116536   0.348   3.027   3.141
 5510TIP3    H216537   0.218   3.082   3.088
 5511TIP3   OH216538   1.850   1.215   1.003
 5511TIP3    H116539   1.773   1.188   1.052
 5511TIP3    H216540   1.834   1.306   0.980
 5512TIP3   OH216541   3.952   3.080   1.257
 5512TIP3    H116542   3.908   3.151   1.303
 5512TIP3    H216543   4.000   3.033   1.325
 5513TIP3   OH216544   3.790   0.872   0.260
 5513TIP3    H116545   3.886   0.872   0.265
 5513TIP3    H216546   3.770   0.931   0.187
 5514TIP3   OH216547   0.028   2.044   3.461
 5514TIP3    H116548   0.056   2.134   3.477
 5514TIP3    H216549   0.094   2.008   3.402
 5515TIP3   OH216550   5.842   0.544   4.565
 5515TIP3    H116551   5.760   0.553   4.517
 5515TIP3    H216552   5.910   0.559   4.499
 5516TIP3   OH216553   5.854   4.570   3.781
 5516TIP3    H116554   5.809   4.492   3.749
 5516TIP3    H216555   5.800   4.599   3.855
 5517TIP3   OH216556   6.135   5.457   2.855
 5517TIP3    H116557   6.068   5.497   2.801
 5517TIP3    H216558   6.184   5.530   2.892
 5518TIP3   OH216559   5.018   2.308   1.457
 5518TIP3    H116560   4.983   2.219   1.449
 5518TIP3    H216561   5.038   2.333   1.367
 5519TIP3   OH216562   0.062   5.943   2.779
 5519TIP3    H116563   0.032   5.927   2.690
 5519TIP3    H216564   0.006   5.888   2.834
 5520TIP3   OH216565   2.683   1.922   3.637
 5520TIP3    H116566   2.682   1.889   3.727
 5520TIP3    H216567   2.766   1.970   3.630
 5521TIP3   OH216568   0.144   3.753   2.174
 5521TIP3    H116569   0.081   3.777   2.242
 5521TIP3    H216570   0.102   3.780   2.092
 5522TIP3   OH216571   2.358   1.496   3.109
 5522TIP3    H116572   2.321   1.433   3.171
 5522TIP3    H216573   2.404   1.442   3.044
 5523TIP3   OH216574   3.449   5.260   2.117
 5523TIP3    H116575   3.524   5.236   2.170
 5523TIP3    H216576   3.392   5.183   2.117
 5524TIP3   OH216577   0.087   3.118   2.083
 5524TIP3    H116578   0.104   3.187   2.019
 5524TIP3    H216579  -0.009   3.112   2.087
 5525TIP3   OH216580   0.558   0.578   3.872
 5525TIP3    H116581   0.497   0.585   3.946
 5525TIP3    H216582   0.514   0.520   3.810
 5526TIP3   OH216583   0.383   4.271   4.219
 5526TIP3    H116584   0.353   4.286   4.309
 5526TIP3    H216585   0.461   4.217   4.229
 5527TIP3   OH216586   5.864   3.073   0.931
 5527TIP3    H116587   5.905   2.989   0.908
 5527TIP3    H216588   5.821   3.101   0.851
 5528TIP3   OH216589   5.296   3.311   4.139
 5528TIP3    H116590   5.352   3.297   4.062
 5528TIP3    H216591   5.224   3.365   4.107
 5529TIP3   OH216592   5.065   3.994   0.256
 5529TIP3    H116593   5.017   4.020   0.178
 5529TIP3    H216594   5.049   4.064   0.319
 5530TIP3   OH216595   3.968   0.260   1.995
 5530TIP3    H116596   3.985   0.220   2.081
 5530TIP3    H216597   3.922   0.192   1.946
 5531TIP3   OH216598   3.961   4.125   2.216
 5531TIP3    H116599   3.977   4.201   2.159
 5531TIP3    H216600   3.876   4.092   2.188
 5532TIP3   OH216601   5.718   5.308   0.661
 5532TIP3    H116602   5.753   5.396   0.675
 5532TIP3    H216603   5.727   5.264   0.746
 5533TIP3   OH216604   1.401   2.554   2.507
 5533TIP3    H116605   1.377   2.462   2.516
 5533TIP3    H216606   1.496   2.553   2.490
 5534TIP3   OH216607   6.174   5.424   2.136
 5534TIP3    H116608   6.099   5.449   2.081
 5534TIP3    H216609   6.235   5.382   2.075
 5535TIP3   OH216610   6.080   5.686   3.752
 5535TIP3    H116611   6.159   5.678   3.698
 5535TIP3    H216612   6.015   5.727   3.694
 5536TIP3   OH216613   4.892   1.284   3.480
 5536TIP3    H116614   4.837   1.210   3.456
 5536TIP3    H216615   4.974   1.269   3.432
 5537TIP3   OH216616   1.102   2.402   4.506
 5537TIP3    H116617   1.100   2.401   4.410
 5537TIP3    H216618   1.065   2.487   4.530
 5538TIP3   OH216619   3.657   0.093   2.978
 5538TIP3    H116620   3.673   0.005   3.011
 5538TIP3    H216621   3.700   0.151   3.041
 5539TIP3   OH216622   3.849   2.516   2.806
 5539TIP3    H116623   3.868   2.434   2.761
 5539TIP3    H216624   3.776   2.554   2.758
 5540TIP3   OH216625   0.501   5.974   4.363
 5540TIP3    H116626   0.578   6.011   4.321
 5540TIP3    H216627   0.535   5.915   4.431
 5541TIP3   OH216628   2.260   0.889   0.972
 5541TIP3    H116629   2.237   0.828   0.902
 5541TIP3    H216630   2.177   0.926   1.000
 5542TIP3   OH216631   1.925   2.388   0.655
 5542TIP3    H116632   2.014   2.410   0.680
 5542TIP3    H216633   1.934   2.332   0.578
 5543TIP3   OH216634   0.500   1.521   0.512
 5543TIP3    H116635   0.533   1.541   0.600
 5543TIP3    H216636   0.412   1.488   0.526
 5544TIP3   OH216637   0.612   3.902   4.509
 5544TIP3    H116638   0.619   3.896   4.604
 5544TIP3    H216639   0.533   3.852   4.488
 5545TIP3   OH216640   0.333   3.486   4.561
 5545TIP3    H116641   0.261   3.426   4.541
 5545TIP3    H216642   0.406   3.454   4.508
 5546TIP3   OH216643   2.441   4.633   0.048
 5546TIP3    H116644   2.420   4.697   0.116
 5546TIP3    H216645   2.512   4.673  -0.002
 5547TIP3   OH216646   2.647   2.296   0.379
 5547TIP3    H116647   2.705   2.296   0.456
 5547TIP3    H216648   2.707   2.292   0.304
 5548TIP3   OH216649   3.141   0.049   1.578
 5548TIP3    H116650   3.073  -0.019   1.572
 5548TIP3    H216651   3.161   0.071   1.487
 5549TIP3   OH216652   4.978   5.608   2.145
 5549TIP3    H116653   5.023   5.578   2.223
 5549TIP3    H216654   5.000   5.544   2.078
 5550TIP3   OH216655   1.190   1.254   2.942
 5550TIP3    H116656   1.111   1.282   2.897
 5550TIP3    H216657   1.174   1.276   3.034
 5551TIP3   OH216658   1.336   2.823   1.274
 5551TIP3    H116659   1.280   2.756   1.313
 5551TIP3    H216660   1.425   2.791   1.290
 5552TIP3   OH216661   2.386   0.499   0.813
 5552TIP3    H116662   2.456   0.503   0.748
 5552TIP3    H216663   2.332   0.576   0.795
 5553TIP3   OH216664   3.236   4.763   2.562
 5553TIP3    H116665   3.277   4.727   2.483
 5553TIP3    H216666   3.178   4.694   2.592
 5554TIP3   OH216667   5.805   2.197   0.428
 5554TIP3    H116668   5.844   2.253   0.495
 5554TIP3    H216669   5.718   2.235   0.413
 5555TIP3   OH216670   5.131  -0.003   0.278
 5555TIP3    H116671   5.203   0.000   0.215
 5555TIP3    H216672   5.124   0.087   0.310
 5556TIP3   OH216673   1.661   1.757   0.177
 5556TIP3    H116674   1.567   1.765   0.164
 5556TIP3    H216675   1.698   1.759   0.088
 5557TIP3   OH216676   2.874   3.854   1.432
 5557TIP3    H116677   2.810   3.857   1.503
 5557TIP3    H216678   2.824   3.820   1.358
 5558TIP3   OH216679   5.153   3.275   1.949
 5558TIP3    H116680   5.065   3.270   1.985
 5558TIP3    H216681   5.209   3.238   2.018
 5559TIP3   OH216682   0.230   2.962   0.787
 5559TIP3    H116683   0.182   3.032   0.831
 5559TIP3    H216684   0.183   2.882   0.810
 5560TIP3   OH216685   5.035   0.754   0.566
 5560TIP3    H116686   5.095   0.681   0.554
 5560TIP3    H216687   4.983   0.729   0.643
 5561TIP3   OH216688   0.541   0.176   2.356
 5561TIP3    H116689   0.475   0.138   2.413
 5561TIP3    H216690   0.607   0.212   2.415
 5562TIP3   OH216691   4.526   2.080   2.396
 5562TIP3    H116692   4.548   2.095   2.304
 5562TIP3    H216693   4.491   2.164   2.427
 5563TIP3   OH216694   6.169   3.240   1.212
 5563TIP3    H116695   6.212   3.323   1.194
 5563TIP3    H216696   6.239   3.175   1.207
 5564TIP3   OH216697   0.540   5.383   1.228
 5564TIP3    H116698   0.547   5.334   1.146
 5564TIP3    H216699   0.446   5.387   1.246
 5565TIP3   OH216700   1.463   4.871   0.529
 5565TIP3    H116701   1.504   4.922   0.600
 5565TIP3    H216702   1.370   4.870   0.551
 5566TIP3   OH216703   0.109   5.190   1.044
 5566TIP3    H116704   0.064   5.228   0.968
 5566TIP3    H216705   0.159   5.117   1.008
 5567TIP3   OH216706   5.728   1.524   2.698
 5567TIP3    H116707   5.797   1.465   2.667
 5567TIP3    H216708   5.707   1.492   2.786
 5568TIP3   OH216709   0.105   2.342   4.115
 5568TIP3    H116710   0.090   2.432   4.084
 5568TIP3    H216711   0.074   2.287   4.044
 5569TIP3   OH216712   4.325   3.784   0.200
 5569TIP3    H116713   4.293   3.724   0.267
 5569TIP3    H216714   4.307   3.871   0.236
 5570TIP3   OH216715   3.499   3.785   3.803
 5570TIP3    H116716   3.429   3.729   3.837
 5570TIP3    H216717   3.456   3.840   3.738
 5571TIP3   OH216718   6.107   4.514   2.154
 5571TIP3    H116719   6.162   4.455   2.101
 5571TIP3    H216720   6.143   4.601   2.138
 5572TIP3   OH216721   4.329   5.983   4.613
 5572TIP3    H116722   4.391   5.985   4.685
 5572TIP3    H216723   4.319   5.891   4.591
 5573TIP3   OH216724   5.409   3.028   1.969
 5573TIP3    H116725   5.410   2.940   2.007
 5573TIP3    H216726   5.438   3.016   1.879
 5574TIP3   OH216727   2.325   1.660   4.137
 5574TIP3    H116728   2.250   1.616   4.178
 5574TIP3    H216729   2.395   1.595   4.138
 5575TIP3   OH216730   2.790   0.497   2.402
 5575TIP3    H116731   2.757   0.418   2.443
 5575TIP3    H216732   2.817   0.553   2.475
 5576TIP3   OH216733   4.009   5.779   1.082
 5576TIP3    H116734   3.928   5.790   1.131
 5576TIP3    H216735   4.025   5.685   1.083
 5577TIP3   OH216736   4.488   0.644   4.799
 5577TIP3    H116737   4.468   0.709   4.732
 5577TIP3    H216738   4.500   0.563   4.751
 5578TIP3   OH216739   4.450   2.545   3.565
 5578TIP3    H116740   4.397   2.606   3.513
 5578TIP3    H216741   4.533   2.539   3.517
 5579TIP3   OH216742   4.359   0.730   1.016
 5579TIP3    H116743   4.424   0.712   0.948
 5579TIP3    H216744   4.401   0.701   1.097
 5580TIP3   OH216745   5.731   4.149   5.013
 5580TIP3    H116746   5.696   4.226   4.969
 5580TIP3    H216747   5.774   4.099   4.943
 5581TIP3   OH216748   1.841   3.502   3.862
 5581TIP3    H116749   1.835   3.411   3.889
 5581TIP3    H216750   1.930   3.511   3.827
 5582TIP3   OH216751   3.406   1.729   3.754
 5582TIP3    H116752   3.441   1.813   3.783
 5582TIP3    H216753   3.466   1.700   3.685
 5583TIP3   OH216754   2.279   1.575   1.760
 5583TIP3    H116755   2.207   1.538   1.709
 5583TIP3    H216756   2.242   1.655   1.799
 5584TIP3   OH216757   6.251   5.119   4.621
 5584TIP3    H116758   6.342   5.098   4.645
 5584TIP3    H216759   6.213   5.152   4.702
 5585TIP3   OH216760   5.503   5.554   3.131
 5585TIP3    H116761   5.585   5.513   3.106
 5585TIP3    H216762   5.481   5.612   3.058
 5586TIP3   OH216763   2.782   1.959   1.177
 5586TIP3    H116764   2.694   1.948   1.212
 5586TIP3    H216765   2.789   2.053   1.158
 5587TIP3   OH216766   4.813   2.119   1.928
 5587TIP3    H116767   4.907   2.135   1.938
 5587TIP3    H216768   4.796   2.132   1.835
 5588TIP3   OH216769   3.598   3.259   4.322
 5588TIP3    H116770   3.637   3.198   4.259
 5588TIP3    H216771   3.643   3.342   4.306
 5589TIP3   OH216772   3.275   2.853   1.683
 5589TIP3    H116773   3.277   2.852   1.778
 5589TIP3    H216774   3.302   2.766   1.657
 5590TIP3   OH216775   5.856   0.668   2.305
 5590TIP3    H116776   5.770   0.633   2.329
 5590TIP3    H216777   5.838   0.757   2.274
 5591TIP3   OH216778   4.659   0.126   4.752
 5591TIP3    H116779   4.586   0.108   4.692
 5591TIP3    H216780   4.734   0.142   4.694
 5592TIP3   OH216781   1.290   2.751   0.349
 5592TIP3    H116782   1.289   2.659   0.325
 5592TIP3    H216783   1.304   2.751   0.444
 5593TIP3   OH216784   3.429   5.062   4.876
 5593TIP3    H116785   3.522   5.072   4.859
 5593TIP3    H216786   3.395   5.152   4.877
 5594TIP3   OH216787   2.042   2.906   2.463
 5594TIP3    H116788   2.021   2.814   2.451
 5594TIP3    H216789   2.032   2.921   2.557
 5595TIP3   OH216790   2.052   1.924   4.863
 5595TIP3    H116791   1.974   1.896   4.912
 5595TIP3    H216792   2.045   1.880   4.779
 5596TIP3   OH216793   4.616   5.184   2.746
 5596TIP3    H116794   4.675   5.168   2.820
 5596TIP3    H216795   4.655   5.134   2.673
 5597TIP3   OH216796   6.149   3.860   1.952
 5597TIP3    H116797   6.137   3.955   1.948
 5597TIP3    H216798   6.244   3.847   1.943
 5598TIP3   OH216799   5.698   5.758   1.232
 5598TIP3    H116800   5.761   5.792   1.168
 5598TIP3    H216801   5.693   5.827   1.298
 5599TIP3   OH216802   4.310   4.938   2.247
 5599TIP3    H116803   4.387   4.977   2.289
 5599TIP3    H216804   4.239   4.950   2.311
 5600TIP3   OH216805   0.700   4.059   1.805
 5600TIP3    H116806   0.768   4.000   1.771
 5600TIP3    H216807   0.691   4.127   1.738
 5601TIP3   OH216808   6.136   0.727   1.156
 5601TIP3    H116809   6.086   0.675   1.218
 5601TIP3    H216810   6.207   0.669   1.127
 5602TIP3   OH216811   3.563   3.791   0.308
 5602TIP3    H116812   3.578   3.790   0.213
 5602TIP3    H216813   3.575   3.700   0.335
 5603TIP3   OH216814   2.320   5.313   0.927
 5603TIP3    H116815   2.258   5.242   0.946
 5603TIP3    H216816   2.274   5.370   0.866
 5604TIP3   OH216817   1.603   5.053   0.701
 5604TIP3    H116818   1.682   5.044   0.647
 5604TIP3    H216819   1.637   5.068   0.789
 5605TIP3   OH216820   5.209   2.851   0.527
 5605TIP3    H116821   5.213   2.755   0.517
 5605TIP3    H216822   5.183   2.883   0.442
 5606TIP3   OH216823   1.709   2.935   4.723
 5606TIP3    H116824   1.748   2.995   4.660
 5606TIP3    H216825   1.659   2.873   4.671
 5607TIP3   OH216826   1.037   3.291   1.349
 5607TIP3    H116827   1.061   3.325   1.436
 5607TIP3    H216828   0.945   3.316   1.338
 5608TIP3   OH216829   1.806   0.730   1.319
 5608TIP3    H116830   1.867   0.794   1.356
 5608TIP3    H216831   1.861   0.656   1.295
 5609TIP3   OH216832   2.335   5.897   1.818
 5609TIP3    H116833   2.326   5.977   1.766
 5609TIP3    H216834   2.429   5.883   1.825
 5610TIP3   OH216835   4.900   5.264   1.838
 5610TIP3    H116836   4.928   5.223   1.756
 5610TIP3    H216837   4.827   5.320   1.813
 5611TIP3   OH216838   3.812   4.737   3.231
 5611TIP3    H116839   3.723   4.703   3.239
 5611TIP3    H216840   3.805   4.810   3.170
 5612TIP3   OH216841   4.007   4.742   1.114
 5612TIP3    H116842   4.035   4.834   1.109
 5612TIP3    H216843   3.921   4.741   1.073
 5613TIP3   OH216844   2.702   2.120   3.195
 5613TIP3    H116845   2.761   2.050   3.224
 5613TIP3    H216846   2.643   2.134   3.269
 5614TIP3   OH216847   3.974   3.239   0.845
 5614TIP3    H116848   3.987   3.333   0.852
 5614TIP3    H216849   4.062   3.204   0.829
 5615TIP3   OH216850   1.421  -0.028   1.408
 5615TIP3    H116851   1.435   0.059   1.371
 5615TIP3    H216852   1.413  -0.012   1.503
 5616TIP3   OH216853   3.705   0.071   1.758
 5616TIP3    H116854   3.639   0.008   1.785
 5616TIP3    H216855   3.784   0.046   1.806
 5617TIP3   OH216856   3.337   5.459   1.054
 5617TIP3    H116857   3.415   5.403   1.053
 5617TIP3    H216858   3.365   5.539   1.011
 5618TIP3   OH216859   2.548   0.874   3.349
 5618TIP3    H116860   2.473   0.905   3.298
 5618TIP3    H216861   2.533   0.908   3.437
 5619TIP3   OH216862   2.284   4.174   3.996
 5619TIP3    H116863   2.193   4.166   4.026
 5619TIP3    H216864   2.333   4.194   4.075
 5620TIP3   OH216865   4.216   0.568   3.144
 5620TIP3    H116866   4.190   0.487   3.099
 5620TIP3    H216867   4.267   0.616   3.079
 5621TIP3   OH216868   1.032   2.119   3.346
 5621TIP3    H116869   1.070   2.052   3.288
 5621TIP3    H216870   0.942   2.090   3.360
 5622TIP3   OH216871   4.138   1.793   2.585
 5622TIP3    H116872   4.231   1.812   2.596
 5622TIP3    H216873   4.107   1.772   2.673
 5623TIP3   OH216874   1.552   0.613   1.929
 5623TIP3    H116875   1.605   0.634   1.852
 5623TIP3    H216876   1.536   0.697   1.972
 5624TIP3   OH216877   5.437   3.856   2.652
 5624TIP3    H116878   5.529   3.848   2.628
 5624TIP3    H216879   5.397   3.776   2.618
 5625TIP3   OH216880   2.630   2.538   2.998
 5625TIP3    H116881   2.703   2.499   3.046
 5625TIP3    H216882   2.553   2.491   3.031
 5626TIP3   OH216883   4.925   5.117   3.880
 5626TIP3    H116884   4.948   5.063   3.956
 5626TIP3    H216885   4.993   5.097   3.815
 5627TIP3   OH216886   0.948   5.976   2.805
 5627TIP3    H116887   1.017   5.912   2.823
 5627TIP3    H216888   0.887   5.967   2.878
 5628TIP3   OH216889   1.904   2.180   1.437
 5628TIP3    H116890   1.831   2.219   1.486
 5628TIP3    H216891   1.863   2.143   1.359
 5629TIP3   OH216892   4.017   0.849   0.531
 5629TIP3    H116893   3.934   0.861   0.577
 5629TIP3    H216894   4.048   0.938   0.514
 5630TIP3   OH216895   3.827   0.875   2.307
 5630TIP3    H116896   3.876   0.794   2.318
 5630TIP3    H216897   3.761   0.873   2.376
 5631TIP3   OH216898   5.318   5.139   3.662
 5631TIP3    H116899   5.404   5.097   3.667
 5631TIP3    H216900   5.331   5.226   3.699
 5632TIP3   OH216901   2.207   2.972   0.665
 5632TIP3    H116902   2.141   2.958   0.733
 5632TIP3    H216903   2.286   2.929   0.699
 5633TIP3   OH216904   2.419   2.885   0.804
 5633TIP3    H116905   2.504   2.841   0.805
 5633TIP3    H216906   2.405   2.912   0.895
 5634TIP3   OH216907   4.874   0.406   4.032
 5634TIP3    H116908   4.903   0.464   3.962
 5634TIP3    H216909   4.893   0.318   3.999
 5635TIP3   OH216910   1.190   2.038   3.683
 5635TIP3    H116911   1.166   2.103   3.617
 5635TIP3    H216912   1.115   2.035   3.742
 5636TIP3   OH216913   5.608   5.722   2.431
 5636TIP3    H116914   5.622   5.758   2.344
 5636TIP3    H216915   5.573   5.634   2.416
 5637TIP3   OH216916   6.328   4.694   3.932
 5637TIP3    H116917   6.355   4.630   3.999
 5637TIP3    H216918   6.258   4.744   3.974
 5638TIP3   OH216919   2.783   2.253   1.250
 5638TIP3    H116920   2.832   2.207   1.318
 5638TIP3    H216921   2.782   2.344   1.280
 5639TIP3   OH216922   0.839   5.864   0.508
 5639TIP3    H116923   0.749   5.896   0.501
 5639TIP3    H216924   0.843   5.791   0.446
 5640TIP3   OH216925   6.221   3.831   4.842
 5640TIP3    H116926   6.265   3.868   4.766
 5640TIP3    H216927   6.146   3.783   4.805
 5641TIP3   OH216928   4.236   0.911   0.824
 5641TIP3    H116929   4.309   0.952   0.778
 5641TIP3    H216930   4.277   0.849   0.885
 5642TIP3   OH216931   1.223   3.014   3.930
 5642TIP3    H116932   1.209   3.023   4.024
 5642TIP3    H216933   1.303   2.963   3.922
 5643TIP3   OH216934   3.538   2.692   4.329
 5643TIP3    H116935   3.455   2.736   4.311
 5643TIP3    H216936   3.598   2.726   4.262
 5644TIP3   OH216937   4.642   1.053   2.164
 5644TIP3    H116938   4.592   0.994   2.107
 5644TIP3    H216939   4.616   1.029   2.253
 5645TIP3   OH216940   2.605   5.005   3.067
 5645TIP3    H116941   2.641   5.084   3.107
 5645TIP3    H216942   2.649   5.000   2.982
 5646TIP3   OH216943   2.273   1.054   3.872
 5646TIP3    H116944   2.303   1.131   3.823
 5646TIP3    H216945   2.212   1.089   3.937
 5647TIP3   OH216946   0.946   5.028   0.149
 5647TIP3    H116947   0.965   5.095   0.083
 5647TIP3    H216948   0.936   4.947   0.099
 5648TIP3   OH216949   0.282   2.161   4.849
 5648TIP3    H116950   0.303   2.175   4.757
 5648TIP3    H216951   0.190   2.134   4.849
 5649TIP3   OH216952   3.949   1.897   2.166
 5649TIP3    H116953   3.895   1.845   2.227
 5649TIP3    H216954   3.976   1.834   2.099
 5650TIP3   OH216955   6.008   5.032   4.521
 5650TIP3    H116956   5.983   5.122   4.539
 5650TIP3    H216957   6.103   5.033   4.517
 5651TIP3   OH216958   0.018   4.336   2.429
 5651TIP3    H116959   0.055   4.264   2.377
 5651TIP3    H216960   0.026   4.413   2.373
 5652TIP3   OH216961   4.163   3.173   2.527
 5652TIP3    H116962   4.077   3.131   2.536
 5652TIP3    H216963   4.206   3.158   2.611
 5653TIP3   OH216964   0.389   0.013   4.647
 5653TIP3    H116965   0.411   0.078   4.714
 5653TIP3    H216966   0.469  -0.038   4.635
 5654TIP3   OH216967   1.003   3.189   4.601
 5654TIP3    H116968   1.059   3.265   4.585
 5654TIP3    H216969   1.006   3.176   4.696
 5655TIP3   OH216970   5.402   5.950   2.475
 5655TIP3    H116971   5.338   5.980   2.411
 5655TIP3    H216972   5.481   5.932   2.424
 5656TIP3   OH216973   3.488   4.510   1.975
 5656TIP3    H116974   3.410   4.500   1.920
 5656TIP3    H216975   3.455   4.515   2.064
 5657TIP3   OH216976   0.308   0.232   2.941
 5657TIP3    H116977   0.235   0.294   2.945
 5657TIP3    H216978   0.382   0.284   2.910
 5658TIP3   OH216979   1.455   2.525   1.025
 5658TIP3    H116980   1.480   2.446   0.977
 5658TIP3    H216981   1.501   2.518   1.108
 5659TIP3   OH216982   3.161   3.801   4.534
 5659TIP3    H116983   3.066   3.796   4.522
 5659TIP3    H216984   3.189   3.710   4.547
 5660TIP3   OH216985   2.254   2.921   4.569
 5660TIP3    H116986   2.258   2.979   4.493
 5660TIP3    H216987   2.174   2.946   4.615
 5661TIP3   OH216988   5.600   5.957   2.812
 5661TIP3    H116989   5.669   5.984   2.873
 5661TIP3    H216990   5.638   5.882   2.766
 5662TIP3   OH216991   3.145   2.436   1.051
 5662TIP3    H116992   3.125   2.526   1.079
 5662TIP3    H216993   3.069   2.409   1.000
 5663TIP3   OH216994   1.648   5.737   1.374
 5663TIP3    H116995   1.687   5.684   1.305
 5663TIP3    H216996   1.647   5.680   1.451
 5664TIP3   OH216997   4.237   4.862   1.681
 5664TIP3    H116998   4.161   4.835   1.733
 5664TIP3    H216999   4.289   4.782   1.672
 5665TIP3   OH217000   0.354   3.707   2.742
 5665TIP3    H117001   0.423   3.682   2.680
 5665TIP3    H217002   0.290   3.754   2.689
 5666TIP3   OH217003   6.075   4.054   4.249
 5666TIP3    H117004   6.142   4.058   4.318
 5666TIP3    H217005   5.993   4.040   4.296
 5667TIP3   OH217006   4.619   4.820   1.554
 5667TIP3    H117007   4.551   4.858   1.609
 5667TIP3    H217008   4.699   4.866   1.581
 5668TIP3   OH217009   3.783   4.801   0.442
 5668TIP3    H117010   3.843   4.742   0.487
 5668TIP3    H217011   3.832   4.883   0.432
 5669TIP3   OH217012   3.367   5.842   3.859
 5669TIP3    H117013   3.459   5.828   3.838
 5669TIP3    H217014   3.323   5.843   3.775
 5670TIP3   OH217015   6.259   5.151   0.571
 5670TIP3    H117016   6.221   5.194   0.494
 5670TIP3    H217017   6.328   5.094   0.536
 5671TIP3   OH217018   2.776   3.740   4.149
 5671TIP3    H117019   2.695   3.773   4.189
 5671TIP3    H217020   2.801   3.666   4.204
 5672TIP3   OH217021   0.246   0.855   2.509
 5672TIP3    H117022   0.293   0.918   2.564
 5672TIP3    H217023   0.231   0.902   2.427
 5673TIP3   OH217024   0.903   0.806   4.406
 5673TIP3    H117025   0.960   0.827   4.480
 5673TIP3    H217026   0.964   0.792   4.333
 5674TIP3   OH217027   4.717   2.337   3.092
 5674TIP3    H117028   4.810   2.326   3.115
 5674TIP3    H217029   4.716   2.412   3.032
 5675TIP3   OH217030   5.468   3.675   4.132
 5675TIP3    H117031   5.486   3.692   4.040
 5675TIP3    H217032   5.439   3.759   4.167
 5676TIP3   OH217033   1.820   4.740   1.936
 5676TIP3    H117034   1.838   4.718   2.028
 5676TIP3    H217035   1.780   4.662   1.900
 5677TIP3   OH217036   0.094   0.561   4.605
 5677TIP3    H117037   0.118   0.643   4.649
 5677TIP3    H217038   0.015   0.582   4.556
 5678TIP3   OH217039   0.835   0.031   0.084
 5678TIP3    H117040   0.821  -0.063   0.095
 5678TIP3    H217041   0.930   0.042   0.094
 5679TIP3   OH217042   0.930   4.648   0.874
 5679TIP3    H117043   1.025   4.647   0.889
 5679TIP3    H217044   0.906   4.740   0.879
 5680TIP3   OH217045   2.885   5.143   4.317
 5680TIP3    H117046   2.974   5.147   4.350
 5680TIP3    H217047   2.862   5.235   4.298
 5681TIP3   OH217048   2.729   4.084   4.908
 5681TIP3    H117049   2.771   4.087   4.822
 5681TIP3    H217050   2.747   4.169   4.947
 5682TIP3   OH217051   3.045   1.540   1.278
 5682TIP3    H117052   2.954   1.513   1.295
 5682TIP3    H217053   3.061   1.515   1.187
 5683TIP3   OH217054   1.779   0.510   2.408
 5683TIP3    H117055   1.812   0.559   2.333
 5683TIP3    H217056   1.852   0.455   2.436
 5684TIP3   OH217057   1.966   3.671   0.639
 5684TIP3    H117058   1.912   3.597   0.612
 5684TIP3    H217059   1.966   3.666   0.735
 5685TIP3   OH217060   2.735   0.027   3.839
 5685TIP3    H117061   2.645   0.055   3.857
 5685TIP3    H217062   2.779   0.033   3.924
 5686TIP3   OH217063   5.292   1.180   4.464
 5686TIP3    H117064   5.252   1.158   4.379
 5686TIP3    H217065   5.236   1.249   4.500
 5687TIP3   OH217066   1.524   3.151   4.551
 5687TIP3    H117067   1.460   3.200   4.500
 5687TIP3    H217068   1.485   3.064   4.561
 5688TIP3   OH217069   3.538   3.552   0.137
 5688TIP3    H117070   3.624   3.518   0.113
 5688TIP3    H217071   3.484   3.474   0.150
 5689TIP3   OH217072   4.987   2.296   3.108
 5689TIP3    H117073   5.061   2.357   3.110
 5689TIP3    H217074   5.027   2.209   3.106
 5690TIP3   OH217075   3.139   1.104   4.522
 5690TIP3    H117076   3.066   1.064   4.475
 5690TIP3    H217077   3.173   1.170   4.461
 5691TIP3   OH217078   3.928   5.166   3.807
 5691TIP3    H117079   3.946   5.252   3.769
 5691TIP3    H217080   4.000   5.152   3.869
 5692TIP3   OH217081   4.377   3.101   0.433
 5692TIP3    H117082   4.283   3.086   0.433
 5692TIP3    H217083   4.387   3.193   0.412
 5693TIP3   OH217084   1.215   4.450   3.534
 5693TIP3    H117085   1.205   4.481   3.444
 5693TIP3    H217086   1.250   4.362   3.526
 5694TIP3   OH217087   5.447   4.139   3.875
 5694TIP3    H117088   5.529   4.131   3.924
 5694TIP3    H217089   5.379   4.133   3.942
 5695TIP3   OH217090   5.345   2.190   2.395
 5695TIP3    H117091   5.342   2.208   2.301
 5695TIP3    H217092   5.362   2.096   2.401
 5696TIP3   OH217093   5.402   5.240   3.910
 5696TIP3    H117094   5.365   5.156   3.937
 5696TIP3    H217095   5.328   5.300   3.911
 5697TIP3   OH217096   2.249   0.366   2.025
 5697TIP3    H117097   2.209   0.390   1.942
 5697TIP3    H217098   2.299   0.287   2.006
 5698TIP3   OH217099   2.453   3.124   2.816
 5698TIP3    H117100   2.448   3.209   2.772
 5698TIP3    H217101   2.425   3.143   2.906
 5699TIP3   OH217102   3.465   3.189   0.804
 5699TIP3    H117103   3.421   3.158   0.883
 5699TIP3    H217104   3.487   3.109   0.755
 5700TIP3   OH217105   5.021   0.516   3.284
 5700TIP3    H117106   4.968   0.503   3.364
 5700TIP3    H217107   4.964   0.567   3.226
 5701TIP3   OH217108   4.179   1.462   0.449
 5701TIP3    H117109   4.220   1.377   0.431
 5701TIP3    H217110   4.212   1.520   0.380
 5702TIP3   OH217111   1.676   2.300   2.534
 5702TIP3    H117112   1.649   2.271   2.447
 5702TIP3    H217113   1.757   2.348   2.520
 5703TIP3   OH217114   2.640   0.821   2.005
 5703TIP3    H117115   2.663   0.730   1.985
 5703TIP3    H217116   2.671   0.835   2.094
 5704TIP3   OH217117   1.115   2.826   0.570
 5704TIP3    H117118   1.187   2.774   0.606
 5704TIP3    H217119   1.054   2.761   0.536
 5705TIP3   OH217120   1.352   4.543   0.637
 5705TIP3    H117121   1.275   4.598   0.618
 5705TIP3    H217122   1.423   4.585   0.589
 5706TIP3   OH217123   0.322   0.972   2.800
 5706TIP3    H117124   0.300   1.059   2.768
 5706TIP3    H217125   0.238   0.933   2.825
 5707TIP3   OH217126   0.396   3.423   2.747
 5707TIP3    H117127   0.382   3.491   2.813
 5707TIP3    H217128   0.321   3.432   2.687
 5708TIP3   OH217129   2.214   4.769   4.451
 5708TIP3    H117130   2.294   4.771   4.504
 5708TIP3    H217131   2.177   4.682   4.467
 5709TIP3   OH217132   2.632   3.042   0.440
 5709TIP3    H117133   2.726   3.034   0.454
 5709TIP3    H217134   2.608   2.965   0.389
 5710TIP3   OH217135   2.222   2.400   4.506
 5710TIP3    H117136   2.202   2.479   4.454
 5710TIP3    H217137   2.151   2.395   4.570
 5711TIP3   OH217138   4.604   2.149   3.544
 5711TIP3    H117139   4.578   2.186   3.460
 5711TIP3    H217140   4.633   2.060   3.524
 5712TIP3   OH217141   5.369   2.395   2.566
 5712TIP3    H117142   5.366   2.445   2.485
 5712TIP3    H217143   5.374   2.304   2.537
 5713TIP3   OH217144   3.560   2.611   3.824
 5713TIP3    H117145   3.630   2.600   3.888
 5713TIP3    H217146   3.479   2.597   3.874
 5714TIP3   OH217147   2.107   5.069   5.136
 5714TIP3    H117148   2.039   5.084   5.200
 5714TIP3    H217149   2.063   5.075   5.051
 5715TIP3   OH217150   1.348   4.843   5.088
 5715TIP3    H117151   1.436   4.865   5.057
 5715TIP3    H217152   1.314   4.783   5.021
 5716TIP3   OH217153   5.827   4.736   1.737
 5716TIP3    H117154   5.915   4.739   1.700
 5716TIP3    H217155   5.777   4.680   1.678
 5717TIP3   OH217156   0.700   0.642   4.090
 5717TIP3    H117157   0.667   0.635   4.001
 5717TIP3    H217158   0.627   0.678   4.140
 5718TIP3   OH217159   2.714   2.399   3.728
 5718TIP3    H117160   2.714   2.353   3.644
 5718TIP3    H217161   2.721   2.491   3.704
 5719TIP3   OH217162   6.146   0.073   0.164
 5719TIP3    H117163   6.163  -0.021   0.158
 5719TIP3    H217164   6.130   0.100   0.073
 5720TIP3   OH217165   2.436   1.399   4.683
 5720TIP3    H117166   2.461   1.479   4.730
 5720TIP3    H217167   2.407   1.430   4.597
 5721TIP3   OH217168   3.727   3.951   3.649
 5721TIP3    H117169   3.746   3.946   3.556
 5721TIP3    H217170   3.666   3.878   3.665
 5722TIP3   OH217171   3.009   1.399   3.938
 5722TIP3    H117172   2.987   1.490   3.918
 5722TIP3    H217173   2.924   1.357   3.955
 5723TIP3   OH217174   0.256   5.194   0.555
 5723TIP3    H117175   0.307   5.198   0.474
 5723TIP3    H217176   0.212   5.109   0.551
 5724TIP3   OH217177   1.289   3.700   4.565
 5724TIP3    H117178   1.264   3.783   4.606
 5724TIP3    H217179   1.276   3.715   4.472
 5725TIP3   OH217180   1.499   4.285   0.899
 5725TIP3    H117181   1.553   4.346   0.949
 5725TIP3    H217182   1.413   4.328   0.896
 5726TIP3   OH217183   6.049   4.811   0.620
 5726TIP3    H117184   5.976   4.831   0.561
 5726TIP3    H217185   6.072   4.895   0.659
 5727TIP3   OH217186   4.669   1.888   1.848
 5727TIP3    H117187   4.734   1.933   1.902
 5727TIP3    H217188   4.587   1.935   1.864
 5728TIP3   OH217189   3.943   0.105   4.005
 5728TIP3    H117190   3.867   0.153   3.972
 5728TIP3    H217191   3.908   0.047   4.073
 5729TIP3   OH217192   1.091   5.447   4.908
 5729TIP3    H117193   1.102   5.524   4.963
 5729TIP3    H217194   1.111   5.373   4.965
 5730TIP3   OH217195   2.373   4.378   3.524
 5730TIP3    H117196   2.427   4.334   3.590
 5730TIP3    H217197   2.289   4.334   3.528
 5731TIP3   OH217198   2.177   2.373   3.894
 5731TIP3    H117199   2.268   2.394   3.877
 5731TIP3    H217200   2.180   2.315   3.970
 5732TIP3   OH217201   5.598   3.113   1.021
 5732TIP3    H117202   5.690   3.123   0.995
 5732TIP3    H217203   5.591   3.159   1.105
 5733TIP3   OH217204   1.207   1.109   2.666
 5733TIP3    H117205   1.231   1.163   2.742
 5733TIP3    H217206   1.156   1.168   2.610
 5734TIP3   OH217207   1.044   2.919   4.544
 5734TIP3    H117208   0.954   2.900   4.519
 5734TIP3    H217209   1.054   3.013   4.531
 5735TIP3   OH217210   4.775   3.187   1.431
 5735TIP3    H117211   4.800   3.187   1.338
 5735TIP3    H217212   4.793   3.276   1.461
 5736TIP3   OH217213   1.521   0.193   1.301
 5736TIP3    H117214   1.520   0.276   1.349
 5736TIP3    H217215   1.498   0.217   1.211
 5737TIP3   OH217216   1.434   3.209   2.083
 5737TIP3    H117217   1.516   3.254   2.100
 5737TIP3    H217218   1.434   3.135   2.144
 5738TIP3   OH217219   5.048   4.931   2.693
 5738TIP3    H117220   5.104   4.987   2.746
 5738TIP3    H217221   5.100   4.853   2.676
 5739TIP3   OH217222   2.670   4.049   2.865
 5739TIP3    H117223   2.577   4.041   2.885
 5739TIP3    H217224   2.714   4.009   2.940
 5740TIP3   OH217225   6.075   2.794   1.380
 5740TIP3    H117226   6.040   2.829   1.298
 5740TIP3    H217227   6.170   2.808   1.373
 5741TIP3   OH217228   4.381   3.278   4.932
 5741TIP3    H117229   4.429   3.267   4.849
 5741TIP3    H217230   4.295   3.310   4.905
 5742TIP3   OH217231   4.924   1.082   3.206
 5742TIP3    H117232   4.991   1.113   3.267
 5742TIP3    H217233   4.875   1.016   3.255
 5743TIP3   OH217234   0.277   4.595   2.505
 5743TIP3    H117235   0.223   4.630   2.576
 5743TIP3    H217236   0.292   4.670   2.447
 5744TIP3   OH217237   1.424   4.890   3.504
 5744TIP3    H117238   1.366   4.963   3.526
 5744TIP3    H217239   1.481   4.882   3.581
 5745TIP3   OH217240   0.227   2.023   2.693
 5745TIP3    H117241   0.202   1.931   2.684
 5745TIP3    H217242   0.321   2.024   2.680
 5746TIP3   OH217243   4.405   4.861   3.590
 5746TIP3    H117244   4.316   4.897   3.595
 5746TIP3    H217245   4.391   4.768   3.574
 5747TIP3   OH217246   1.245   4.645   1.680
 5747TIP3    H117247   1.261   4.563   1.633
 5747TIP3    H217248   1.261   4.623   1.772
 5748TIP3   OH217249   1.818   3.041   1.967
 5748TIP3    H117250   1.824   3.131   1.937
 5748TIP3    H217251   1.890   2.996   1.922
 5749TIP3   OH217252   2.027   1.089   1.442
 5749TIP3    H117253   2.111   1.099   1.489
 5749TIP3    H217254   2.052   1.077   1.351
 5750TIP3   OH217255   2.467   5.666   3.339
 5750TIP3    H117256   2.402   5.610   3.295
 5750TIP3    H217257   2.535   5.605   3.368
 5751TIP3   OH217258   4.462   1.470   1.540
 5751TIP3    H117259   4.381   1.446   1.584
 5751TIP3    H217260   4.513   1.516   1.607
 5752TIP3   OH217261   1.996   1.528   4.709
 5752TIP3    H117262   1.914   1.494   4.745
 5752TIP3    H217263   2.037   1.453   4.667
 5753TIP3   OH217264   0.099   2.662   4.740
 5753TIP3    H117265   0.172   2.599   4.744
 5753TIP3    H217266   0.072   2.673   4.831
 5754TIP3   OH217267   1.663   5.336   0.593
 5754TIP3    H117268   1.627   5.406   0.539
 5754TIP3    H217269   1.756   5.336   0.573
 5755TIP3   OH217270   4.981   0.833   3.832
 5755TIP3    H117271   5.005   0.743   3.810
 5755TIP3    H217272   4.946   0.869   3.750
 5756TIP3   OH217273   4.038   1.627   1.189
 5756TIP3    H117274   3.985   1.628   1.110
 5756TIP3    H217275   3.999   1.694   1.245
 5757TIP3   OH217276   1.897   3.456   1.753
 5757TIP3    H117277   1.901   3.367   1.719
 5757TIP3    H217278   1.812   3.489   1.723
 5758TIP3   OH217279   1.174   0.404   0.216
 5758TIP3    H117280   1.103   0.362   0.167
 5758TIP3    H217281   1.175   0.359   0.301
 5759TIP3   OH217282   4.554   0.352   0.709
 5759TIP3    H117283   4.631   0.408   0.700
 5759TIP3    H217284   4.481   0.413   0.721
 5760TIP3   OH217285   5.487   4.811   4.203
 5760TIP3    H117286   5.571   4.846   4.174
 5760TIP3    H217287   5.494   4.717   4.188
 5761TIP3   OH217288   5.712   1.331   2.983
 5761TIP3    H117289   5.744   1.411   3.025
 5761TIP3    H217290   5.709   1.266   3.054
 5762TIP3   OH217291   2.486   2.524   0.446
 5762TIP3    H117292   2.505   2.563   0.360
 5762TIP3    H217293   2.528   2.438   0.442
 5763TIP3   OH217294   2.829   3.641   4.555
 5763TIP3    H117295   2.863   3.659   4.643
 5763TIP3    H217296   2.740   3.610   4.569
 5764TIP3   OH217297   4.722   4.188   2.113
 5764TIP3    H117298   4.634   4.150   2.108
 5764TIP3    H217299   4.746   4.205   2.022
 5765TIP3   OH217300   2.617   1.282   3.472
 5765TIP3    H117301   2.698   1.331   3.463
 5765TIP3    H217302   2.552   1.347   3.498
 5766TIP3   OH217303   5.982   4.551   3.212
 5766TIP3    H117304   5.907   4.492   3.220
 5766TIP3    H217305   6.046   4.517   3.275
 5767TIP3   OH217306   1.377   3.994   3.201
 5767TIP3    H117307   1.397   3.936   3.274
 5767TIP3    H217308   1.282   4.003   3.202
 5768TIP3   OH217309   1.463   1.161   3.391
 5768TIP3    H117310   1.368   1.157   3.387
 5768TIP3    H217311   1.490   1.174   3.300
 5769TIP3   OH217312   0.337   1.260   1.547
 5769TIP3    H117313   0.254   1.288   1.586
 5769TIP3    H217314   0.350   1.171   1.580
 5770TIP3   OH217315   3.432   3.078   1.611
 5770TIP3    H117316   3.508   3.027   1.582
 5770TIP3    H217317   3.368   3.012   1.637
 5771TIP3   OH217318   2.148   5.435   1.178
 5771TIP3    H117319   2.095   5.458   1.102
 5771TIP3    H217320   2.099   5.471   1.252
 5772TIP3   OH217321   5.484   3.755   3.458
 5772TIP3    H117322   5.453   3.827   3.514
 5772TIP3    H217323   5.506   3.685   3.520
 5773TIP3   OH217324   1.705   1.457   2.442
 5773TIP3    H117325   1.658   1.394   2.497
 5773TIP3    H217326   1.797   1.446   2.467
 5774TIP3   OH217327   6.048   5.523   3.508
 5774TIP3    H117328   6.053   5.521   3.603
 5774TIP3    H217329   6.139   5.531   3.479
 5775TIP3   OH217330   3.860   4.069   0.779
 5775TIP3    H117331   3.942   4.101   0.815
 5775TIP3    H217332   3.795   4.134   0.805
 5776TIP3   OH217333   6.238   5.693   4.714
 5776TIP3    H117334   6.278   5.778   4.697
 5776TIP3    H217335   6.181   5.677   4.639
 5777TIP3   OH217336   2.192   3.295   2.890
 5777TIP3    H117337   2.137   3.283   2.967
 5777TIP3    H217338   2.171   3.383   2.859
 5778TIP3   OH217339   5.031   3.809   2.058
 5778TIP3    H117340   5.116   3.788   2.099
 5778TIP3    H217341   4.997   3.881   2.111
 5779TIP3   OH217342   1.902   5.885   2.974
 5779TIP3    H117343   1.888   5.833   2.895
 5779TIP3    H217344   1.974   5.842   3.019
 5780TIP3   OH217345   0.011   5.705   4.259
 5780TIP3    H117346   0.063   5.626   4.269
 5780TIP3    H217347  -0.036   5.715   4.342
 5781TIP3   OH217348   0.679   0.165   2.605
 5781TIP3    H117349   0.721   0.162   2.690
 5781TIP3    H217350   0.611   0.098   2.609
 5782TIP3   OH217351   5.926   3.310   2.130
 5782TIP3    H117352   5.916   3.223   2.168
 5782TIP3    H217353   6.021   3.321   2.122
 5783TIP3   OH217354   3.063   0.385   1.006
 5783TIP3    H117355   3.082   0.476   0.980
 5783TIP3    H217356   2.979   0.390   1.051
 5784TIP3   OH217357   4.467   3.185   1.830
 5784TIP3    H117358   4.539   3.243   1.855
 5784TIP3    H217359   4.390   3.221   1.872
 5785TIP3   OH217360   0.615   0.815   0.467
 5785TIP3    H117361   0.652   0.876   0.531
 5785TIP3    H217362   0.636   0.855   0.382
 5786TIP3   OH217363   4.550   3.299   4.715
 5786TIP3    H117364   4.579   3.390   4.706
 5786TIP3    H217365   4.630   3.251   4.736
 5787TIP3   OH217366   1.550   2.684   0.808
 5787TIP3    H117367   1.604   2.619   0.762
 5787TIP3    H217368   1.528   2.642   0.891
 5788TIP3   OH217369   3.395   0.184   1.163
 5788TIP3    H117370   3.489   0.196   1.176
 5788TIP3    H217371   3.376   0.231   1.082
 5789TIP3   OH217372   0.457   4.435   3.579
 5789TIP3    H117373   0.413   4.364   3.533
 5789TIP3    H217374   0.389   4.502   3.590
 5790TIP3   OH217375   4.652   1.375   4.636
 5790TIP3    H117376   4.619   1.298   4.683
 5790TIP3    H217377   4.658   1.346   4.545
 5791TIP3   OH217378   0.280   4.541   3.833
 5791TIP3    H117379   0.219   4.608   3.802
 5791TIP3    H217380   0.224   4.472   3.868
 5792TIP3   OH217381   3.167   5.727   4.782
 5792TIP3    H117382   3.079   5.704   4.752
 5792TIP3    H217383   3.220   5.730   4.702
 5793TIP3   OH217384   0.708   0.555   0.724
 5793TIP3    H117385   0.690   0.484   0.785
 5793TIP3    H217386   0.664   0.528   0.643
 5794TIP3   OH217387   2.431   0.179   3.067
 5794TIP3    H117388   2.439   0.128   2.987
 5794TIP3    H217389   2.355   0.142   3.112
 5795TIP3   OH217390   3.429   5.275   0.170
 5795TIP3    H117391   3.418   5.208   0.103
 5795TIP3    H217392   3.461   5.351   0.122
 5796TIP3   OH217393   1.811   5.136   3.739
 5796TIP3    H117394   1.860   5.056   3.757
 5796TIP3    H217395   1.878   5.206   3.742
 5797TIP3   OH217396   2.539   4.036   1.906
 5797TIP3    H117397   2.485   3.963   1.938
 5797TIP3    H217398   2.556   4.014   1.814
 5798TIP3   OH217399   1.804   0.495   4.120
 5798TIP3    H117400   1.886   0.536   4.146
 5798TIP3    H217401   1.747   0.505   4.197
 5799TIP3   OH217402   0.895   4.115   0.224
 5799TIP3    H117403   0.927   4.161   0.301
 5799TIP3    H217404   0.800   4.119   0.231
 5800TIP3   OH217405   2.246   4.148   3.720
 5800TIP3    H117406   2.237   4.131   3.814
 5800TIP3    H217407   2.295   4.072   3.687
 5801TIP3   OH217408   5.655   4.924   2.955
 5801TIP3    H117409   5.669   4.837   2.992
 5801TIP3    H217410   5.579   4.913   2.898
 5802TIP3   OH217411   5.887   2.613   4.916
 5802TIP3    H117412   5.970   2.632   4.873
 5802TIP3    H217413   5.885   2.517   4.924
 5803TIP3   OH217414   5.355   5.756   0.908
 5803TIP3    H117415   5.397   5.676   0.877
 5803TIP3    H217416   5.278   5.766   0.852
 5804TIP3   OH217417   4.560   2.905   0.326
 5804TIP3    H117418   4.495   2.974   0.338
 5804TIP3    H217419   4.511   2.832   0.290
 5805TIP3   OH217420   6.135   0.081   1.301
 5805TIP3    H117421   6.192   0.022   1.351
 5805TIP3    H217422   6.061   0.027   1.273
 5806TIP3   OH217423   3.802   3.485   4.757
 5806TIP3    H117424   3.711   3.489   4.727
 5806TIP3    H217425   3.833   3.575   4.749
 5807TIP3   OH217426   4.941   3.935   1.613
 5807TIP3    H117427   4.997   3.902   1.683
 5807TIP3    H217428   4.962   4.028   1.607
 5808TIP3   OH217429   3.103   2.137   1.901
 5808TIP3    H117430   3.165   2.098   1.962
 5808TIP3    H217431   3.123   2.096   1.816
 5809TIP3   OH217432   5.760   2.936   2.084
 5809TIP3    H117433   5.722   3.002   2.142
 5809TIP3    H217434   5.845   2.916   2.122
 5810TIP3   OH217435   4.031   1.900   0.912
 5810TIP3    H117436   4.061   1.820   0.870
 5810TIP3    H217437   4.112   1.948   0.931
 5811TIP3   OH217438   0.241   4.764   2.257
 5811TIP3    H117439   0.287   4.708   2.195
 5811TIP3    H217440   0.307   4.827   2.286
 5812TIP3   OH217441   0.897   1.750   1.324
 5812TIP3    H117442   0.895   1.659   1.294
 5812TIP3    H217443   0.942   1.745   1.409
 5813TIP3   OH217444   3.489   3.258   1.251
 5813TIP3    H117445   3.447   3.340   1.226
 5813TIP3    H217446   3.493   3.261   1.346
 5814TIP3   OH217447   2.497   4.015   0.136
 5814TIP3    H117448   2.534   3.979   0.217
 5814TIP3    H217449   2.560   4.082   0.109
 5815TIP3   OH217450   4.632   1.789   2.853
 5815TIP3    H117451   4.577   1.866   2.868
 5815TIP3    H217452   4.709   1.804   2.908
 5816TIP3   OH217453   1.849   0.694   3.190
 5816TIP3    H117454   1.894   0.622   3.236
 5816TIP3    H217455   1.871   0.680   3.098
 5817TIP3   OH217456   4.703   5.594   1.319
 5817TIP3    H117457   4.639   5.561   1.256
 5817TIP3    H217458   4.695   5.535   1.394
 5818TIP3   OH217459   1.560   2.363   0.758
 5818TIP3    H117460   1.656   2.359   0.757
 5818TIP3    H217461   1.536   2.362   0.666
 5819TIP3   OH217462   4.721   1.874   0.633
 5819TIP3    H117463   4.798   1.858   0.578
 5819TIP3    H217464   4.755   1.920   0.710
 5820TIP3   OH217465   3.780   1.854   0.781
 5820TIP3    H117466   3.847   1.902   0.829
 5820TIP3    H217467   3.770   1.902   0.698
 5821TIP3   OH217468   0.426   3.167   0.966
 5821TIP3    H117469   0.350   3.154   0.910
 5821TIP3    H217470   0.415   3.254   1.004
 5822TIP3   OH217471   2.515   5.301   4.198
 5822TIP3    H117472   2.537   5.220   4.242
 5822TIP3    H217473   2.420   5.295   4.183
 5823TIP3   OH217474   6.314   0.303   3.591
 5823TIP3    H117475   6.401   0.276   3.561
 5823TIP3    H217476   6.328   0.330   3.682
 5824TIP3   OH217477   5.396   0.887   2.774
 5824TIP3    H117478   5.456   0.820   2.806
 5824TIP3    H217479   5.446   0.969   2.783
 5825TIP3   OH217480   1.138   2.880   1.577
 5825TIP3    H117481   1.048   2.854   1.595
 5825TIP3    H217482   1.192   2.814   1.620
 5826TIP3   OH217483   0.714   2.962   0.579
 5826TIP3    H117484   0.737   2.999   0.665
 5826TIP3    H217485   0.629   2.920   0.593
 5827TIP3   OH217486   6.111   1.499   3.272
 5827TIP3    H117487   6.118   1.589   3.304
 5827TIP3    H217488   6.161   1.499   3.190
 5828TIP3   OH217489   1.090   3.904   2.800
 5828TIP3    H117490   1.131   3.965   2.738
 5828TIP3    H217491   1.136   3.821   2.786
 5829TIP3   OH217492   5.979   5.934   0.150
 5829TIP3    H117493   5.911   5.892   0.203
 5829TIP3    H217494   6.030   5.861   0.114
 5830TIP3   OH217495   2.027   3.474   0.164
 5830TIP3    H117496   2.075   3.405   0.211
 5830TIP3    H217497   1.942   3.477   0.207
 5831TIP3   OH217498   5.586   2.679   3.404
 5831TIP3    H117499   5.636   2.678   3.323
 5831TIP3    H217500   5.638   2.733   3.464
 5832TIP3   OH217501   2.380   4.427   3.843
 5832TIP3    H117502   2.324   4.350   3.845
 5832TIP3    H217503   2.320   4.499   3.823
 5833TIP3   OH217504   0.435   2.201   3.993
 5833TIP3    H117505   0.387   2.121   3.972
 5833TIP3    H217506   0.421   2.214   4.086
 5834TIP3   OH217507   3.513   1.080   2.787
 5834TIP3    H117508   3.594   1.086   2.736
 5834TIP3    H217509   3.451   1.136   2.739
 5835TIP3   OH217510   5.456   3.667   2.950
 5835TIP3    H117511   5.502   3.594   2.910
 5835TIP3    H217512   5.442   3.639   3.041
 5836TIP3   OH217513   4.915   0.165   3.613
 5836TIP3    H117514   4.920   0.123   3.527
 5836TIP3    H217515   4.872   0.249   3.596
 5837TIP3   OH217516   1.376   2.467   1.520
 5837TIP3    H117517   1.429   2.390   1.500
 5837TIP3    H217518   1.326   2.442   1.597
 5838TIP3   OH217519   4.571   0.419   3.679
 5838TIP3    H117520   4.525   0.335   3.679
 5838TIP3    H217521   4.563   0.451   3.769
 5839TIP3   OH217522   3.145   5.220   3.745
 5839TIP3    H117523   3.152   5.125   3.733
 5839TIP3    H217524   3.184   5.236   3.831
 5840TIP3   OH217525   5.024   5.638   1.222
 5840TIP3    H117526   5.026   5.716   1.166
 5840TIP3    H217527   4.931   5.622   1.238
 5841TIP3   OH217528   1.602   0.844   3.581
 5841TIP3    H117529   1.696   0.862   3.586
 5841TIP3    H217530   1.574   0.883   3.498
 5842TIP3   OH217531   5.021   3.383   4.291
 5842TIP3    H117532   4.978   3.468   4.305
 5842TIP3    H217533   4.959   3.319   4.325
 5843TIP3   OH217534   2.662   2.916   3.428
 5843TIP3    H117535   2.718   2.940   3.501
 5843TIP3    H217536   2.606   2.847   3.462
 5844TIP3   OH217537   0.712   5.096   1.161
 5844TIP3    H117538   0.629   5.108   1.115
 5844TIP3    H217539   0.696   5.024   1.222
 5845TIP3   OH217540   2.466   2.770   1.878
 5845TIP3    H117541   2.547   2.796   1.834
 5845TIP3    H217542   2.479   2.797   1.969
 5846TIP3   OH217543   2.469   0.421   1.455
 5846TIP3    H117544   2.508   0.431   1.368
 5846TIP3    H217545   2.485   0.504   1.498
 5847TIP3   OH217546   4.029   4.839   1.846
 5847TIP3    H117547   4.043   4.886   1.928
 5847TIP3    H217548   3.951   4.879   1.808
 5848TIP3   OH217549   5.457   1.873   4.429
 5848TIP3    H117550   5.405   1.846   4.505
 5848TIP3    H217551   5.393   1.910   4.368
 5849TIP3   OH217552   3.854   5.029   1.793
 5849TIP3    H117553   3.798   5.068   1.726
 5849TIP3    H217554   3.934   5.083   1.792
 5850TIP3   OH217555   5.436   4.451   4.758
 5850TIP3    H117556   5.505   4.434   4.822
 5850TIP3    H217557   5.443   4.380   4.695
 5851TIP3   OH217558   0.838   2.394   0.010
 5851TIP3    H117559   0.750   2.383   0.046
 5851TIP3    H217560   0.842   2.486  -0.018
 5852TIP3   OH217561   4.598   2.212   2.749
 5852TIP3    H117562   4.565   2.198   2.661
 5852TIP3    H217563   4.615   2.124   2.783
 5853TIP3   OH217564   0.291   0.128   1.242
 5853TIP3    H117565   0.293   0.178   1.161
 5853TIP3    H217566   0.201   0.097   1.249
 5854TIP3   OH217567   2.553   5.170   5.135
 5854TIP3    H117568   2.564   5.129   5.049
 5854TIP3    H217569   2.631   5.146   5.184
 5855TIP3   OH217570   5.451   2.880   2.887
 5855TIP3    H117571   5.511   2.806   2.899
 5855TIP3    H217572   5.499   2.955   2.920
 5856TIP3   OH217573   6.207   4.150   4.033
 5856TIP3    H117574   6.155   4.127   4.110
 5856TIP3    H217575   6.281   4.200   4.067
 5857TIP3   OH217576   2.120   3.763   2.672
 5857TIP3    H117577   2.193   3.824   2.683
 5857TIP3    H217578   2.046   3.818   2.649
 5858TIP3   OH217579   2.599   1.098   3.789
 5858TIP3    H117580   2.553   1.048   3.855
 5858TIP3    H217581   2.653   1.034   3.743
 5859TIP3   OH217582   3.887   5.891   3.763
 5859TIP3    H117583   3.929   5.948   3.827
 5859TIP3    H217584   3.897   5.935   3.680
 5860TIP3   OH217585   5.703   4.558   1.492
 5860TIP3    H117586   5.690   4.473   1.535
 5860TIP3    H217587   5.618   4.602   1.500
 5861TIP3   OH217588   4.204   1.357   2.857
 5861TIP3    H117589   4.210   1.396   2.944
 5861TIP3    H217590   4.267   1.286   2.857
 5862TIP3   OH217591   4.751   3.133   4.815
 5862TIP3    H117592   4.754   3.161   4.907
 5862TIP3    H217593   4.747   3.038   4.819
 5863TIP3   OH217594   3.677   0.114   1.133
 5863TIP3    H117595   3.738   0.186   1.151
 5863TIP3    H217596   3.729   0.050   1.084
 5864TIP3   OH217597   3.840   3.025   3.850
 5864TIP3    H117598   3.885   2.953   3.895
 5864TIP3    H217599   3.752   3.025   3.887
 5865TIP3   OH217600   0.688   4.596   3.107
 5865TIP3    H117601   0.669   4.530   3.040
 5865TIP3    H217602   0.782   4.587   3.124
 5866TIP3   OH217603   1.107   2.729   4.048
 5866TIP3    H117604   1.130   2.636   4.042
 5866TIP3    H217605   1.146   2.768   3.970
 5867TIP3   OH217606   3.250   4.303   3.424
 5867TIP3    H117607   3.261   4.277   3.516
 5867TIP3    H217608   3.325   4.264   3.379
 5868TIP3   OH217609   3.298   1.018   4.191
 5868TIP3    H117610   3.351   1.036   4.268
 5868TIP3    H217611   3.245   0.941   4.216
 5869TIP3   OH217612   6.367   4.883   4.950
 5869TIP3    H117613   6.392   4.792   4.964
 5869TIP3    H217614   6.282   4.892   4.994
 5870TIP3   OH217615   0.153   2.652   0.219
 5870TIP3    H117616   0.211   2.675   0.292
 5870TIP3    H217617   0.067   2.681   0.247
 5871TIP3   OH217618   2.712   4.779   3.363
 5871TIP3    H117619   2.707   4.871   3.339
 5871TIP3    H217620   2.749   4.779   3.451
 5872TIP3   OH217621   6.137   0.010   0.429
 5872TIP3    H117622   6.139   0.044   0.339
 5872TIP3    H217623   6.163   0.085   0.483
 5873TIP3   OH217624   5.842   3.967   3.700
 5873TIP3    H117625   5.811   3.919   3.776
 5873TIP3    H217626   5.922   4.011   3.730
 5874TIP3   OH217627   4.224   3.121   0.871
 5874TIP3    H117628   4.212   3.120   0.966
 5874TIP3    H217629   4.257   3.033   0.850
 5875TIP3   OH217630   1.032   2.379   3.401
 5875TIP3    H117631   1.118   2.411   3.375
 5875TIP3    H217632   1.034   2.285   3.383
 5876TIP3   OH217633   3.354   2.448   2.464
 5876TIP3    H117634   3.431   2.502   2.443
 5876TIP3    H217635   3.281   2.496   2.427
 5877TIP3   OH217636   5.737   2.928   1.298
 5877TIP3    H117637   5.816   2.981   1.315
 5877TIP3    H217638   5.754   2.846   1.343
 5878TIP3   OH217639   1.033   0.463   3.808
 5878TIP3    H117640   1.094   0.489   3.739
 5878TIP3    H217641   0.993   0.382   3.776
 5879TIP3   OH217642   3.031   4.439   2.214
 5879TIP3    H117643   3.115   4.475   2.186
 5879TIP3    H217644   3.013   4.368   2.151
 5880TIP3   OH217645   5.114   0.935   1.370
 5880TIP3    H117646   5.154   0.852   1.342
 5880TIP3    H217647   5.090   0.920   1.461
 5881TIP3   OH217648   3.751   1.360   1.674
 5881TIP3    H117649   3.672   1.313   1.702
 5881TIP3    H217650   3.731   1.389   1.585
 5882TIP3   OH217651   3.446   1.507   2.003
 5882TIP3    H117652   3.403   1.592   1.998
 5882TIP3    H217653   3.480   1.491   1.915
 5883TIP3   OH217654   3.514   4.921   0.397
 5883TIP3    H117655   3.555   5.006   0.380
 5883TIP3    H217656   3.587   4.859   0.398
 5884TIP3   OH217657   3.714   3.242   2.060
 5884TIP3    H117658   3.640   3.186   2.036
 5884TIP3    H217659   3.762   3.255   1.978
 5885TIP3   OH217660   0.606   2.902   4.009
 5885TIP3    H117661   0.580   2.986   4.047
 5885TIP3    H217662   0.630   2.847   4.084
 5886TIP3   OH217663   5.506   0.909   1.604
 5886TIP3    H117664   5.535   0.985   1.655
 5886TIP3    H217665   5.414   0.898   1.627
 5887TIP3   OH217666   3.153   5.162   2.196
 5887TIP3    H117667   3.063   5.154   2.226
 5887TIP3    H217668   3.175   5.075   2.163
 5888TIP3   OH217669   0.238   1.472   1.412
 5888TIP3    H117670   0.213   1.460   1.320
 5888TIP3    H217671   0.294   1.397   1.432
 5889TIP3   OH217672   4.914   4.781   2.230
 5889TIP3    H117673   5.007   4.800   2.243
 5889TIP3    H217674   4.912   4.690   2.201
 5890TIP3   OH217675   3.862   4.416   4.426
 5890TIP3    H117676   3.828   4.504   4.409
 5890TIP3    H217677   3.798   4.358   4.385
 5891TIP3   OH217678   6.152   2.583   3.875
 5891TIP3    H117679   6.127   2.507   3.822
 5891TIP3    H217680   6.247   2.591   3.861
 5892TIP3   OH217681   2.091   4.663   2.761
 5892TIP3    H117682   2.071   4.743   2.713
 5892TIP3    H217683   2.033   4.597   2.723
 5893TIP3   OH217684   3.883   3.797   1.303
 5893TIP3    H117685   3.824   3.734   1.345
 5893TIP3    H217686   3.970   3.775   1.336
 5894TIP3   OH217687   1.395   0.601   2.891
 5894TIP3    H117688   1.484   0.630   2.913
 5894TIP3    H217689   1.407   0.532   2.826
 5895TIP3   OH217690   1.220   1.065   0.740
 5895TIP3    H117691   1.274   0.998   0.781
 5895TIP3    H217692   1.203   1.032   0.652
 5896TIP3   OH217693   1.263   1.124   1.771
 5896TIP3    H117694   1.190   1.063   1.780
 5896TIP3    H217695   1.321   1.102   1.844
 5897TIP3   OH217696   4.396   2.878   2.379
 5897TIP3    H117697   4.352   2.856   2.461
 5897TIP3    H217698   4.331   2.927   2.329
 5898TIP3   OH217699   2.258   2.658   0.664
 5898TIP3    H117700   2.328   2.698   0.715
 5898TIP3    H217701   2.262   2.565   0.687
 5899TIP3   OH217702   2.194   0.837   1.629
 5899TIP3    H117703   2.227   0.927   1.619
 5899TIP3    H217704   2.104   0.848   1.659
 5900TIP3   OH217705   2.245   4.091   0.135
 5900TIP3    H117706   2.264   4.182   0.115
 5900TIP3    H217707   2.328   4.045   0.121
 5901TIP3   OH217708   5.831   1.443   3.225
 5901TIP3    H117709   5.785   1.457   3.308
 5901TIP3    H217710   5.911   1.496   3.232
 5902TIP3   OH217711   2.951   1.327   1.925
 5902TIP3    H117712   2.975   1.315   2.017
 5902TIP3    H217713   2.887   1.398   1.927
 5903TIP3   OH217714   1.292   3.723   2.499
 5903TIP3    H117715   1.197   3.715   2.498
 5903TIP3    H217716   1.319   3.680   2.580
 5904TIP3   OH217717   2.672   1.435   0.378
 5904TIP3    H117718   2.765   1.413   0.384
 5904TIP3    H217719   2.670   1.530   0.370
 5905TIP3   OH217720   4.914   3.625   3.235
 5905TIP3    H117721   4.964   3.646   3.313
 5905TIP3    H217722   4.859   3.702   3.220
 5906TIP3   OH217723   4.709   2.530   3.443
 5906TIP3    H117724   4.748   2.614   3.417
 5906TIP3    H217725   4.777   2.466   3.426
 5907TIP3   OH217726   2.504   5.864   5.154
 5907TIP3    H117727   2.534   5.930   5.091
 5907TIP3    H217728   2.527   5.780   5.113
 5908TIP3   OH217729   6.200   0.142   4.673
 5908TIP3    H117730   6.169   0.162   4.584
 5908TIP3    H217731   6.288   0.106   4.660
 5909TIP3   OH217732   3.523   5.515   0.054
 5909TIP3    H117733   3.500   5.538  -0.036
 5909TIP3    H217734   3.598   5.570   0.074
 5910TIP3   OH217735   5.241   0.155   4.331
 5910TIP3    H117736   5.321   0.132   4.377
 5910TIP3    H217737   5.266   0.158   4.239
 5911TIP3   OH217738   4.699   2.243   4.522
 5911TIP3    H117739   4.749   2.191   4.459
 5911TIP3    H217740   4.752   2.243   4.602
 5912TIP3   OH217741   4.036   0.443   4.511
 5912TIP3    H117742   4.120   0.429   4.468
 5912TIP3    H217743   3.993   0.357   4.508
 5913TIP3   OH217744   5.606   3.353   3.971
 5913TIP3    H117745   5.600   3.360   3.876
 5913TIP3    H217746   5.645   3.267   3.986
 5914TIP3   OH217747   3.682   1.376   0.290
 5914TIP3    H117748   3.772   1.345   0.298
 5914TIP3    H217749   3.662   1.368   0.197
 5915TIP3   OH217750   3.724   4.525   2.746
 5915TIP3    H117751   3.731   4.429   2.741
 5915TIP3    H217752   3.672   4.549   2.670
 5916TIP3   OH217753   2.936   4.382   1.864
 5916TIP3    H117754   2.971   4.354   1.780
 5916TIP3    H217755   2.842   4.369   1.857
 5917TIP3   OH217756   0.637   0.524   2.772
 5917TIP3    H117757   0.640   0.601   2.715
 5917TIP3    H217758   0.559   0.476   2.745
 5918TIP3   OH217759   2.086   4.060   2.316
 5918TIP3    H117760   2.051   4.055   2.405
 5918TIP3    H217761   2.025   4.116   2.269
 5919TIP3   OH217762   3.709   3.239   3.739
 5919TIP3    H117763   3.743   3.151   3.758
 5919TIP3    H217764   3.669   3.231   3.653
 5920TIP3   OH217765  -0.019   2.392   0.885
 5920TIP3    H117766   0.020   2.353   0.806
 5920TIP3    H217767  -0.060   2.319   0.930
 5921TIP3   OH217768   0.832   4.890   3.280
 5921TIP3    H117769   0.874   4.955   3.223
 5921TIP3    H217770   0.886   4.889   3.359
 5922TIP3   OH217771   1.622   0.510   4.555
 5922TIP3    H117772   1.708   0.549   4.545
 5922TIP3    H217773   1.617   0.486   4.648
 5923TIP3   OH217774   3.670   0.727   3.118
 5923TIP3    H117775   3.664   0.727   3.023
 5923TIP3    H217776   3.650   0.818   3.143
 5924TIP3   OH217777   2.073   1.069   4.082
 5924TIP3    H117778   1.989   1.022   4.086
 5924TIP3    H217779   2.078   1.116   4.166
 5925TIP3   OH217780   1.714   0.553   1.018
 5925TIP3    H117781   1.753   0.511   1.095
 5925TIP3    H217782   1.625   0.575   1.045
 5926TIP3   OH217783   5.149   2.444   0.625
 5926TIP3    H117784   5.078   2.503   0.598
 5926TIP3    H217785   5.106   2.359   0.638
 5927TIP3   OH217786   2.884   5.312   2.399
 5927TIP3    H117787   2.867   5.222   2.371
 5927TIP3    H217788   2.801   5.342   2.437
 5928TIP3   OH217789   4.917   0.140   3.942
 5928TIP3    H117790   4.874   0.078   4.002
 5928TIP3    H217791   4.904   0.101   3.855
 5929TIP3   OH217792   1.722   1.830   3.869
 5929TIP3    H117793   1.640   1.779   3.874
 5929TIP3    H217794   1.696   1.912   3.827
 5930TIP3   OH217795   2.999   3.003   2.998
 5930TIP3    H117796   3.026   3.079   3.050
 5930TIP3    H217797   3.049   2.930   3.034
 5931TIP3   OH217798   5.267   1.590   1.035
 5931TIP3    H117799   5.265   1.663   1.097
 5931TIP3    H217800   5.257   1.631   0.950
 5932TIP3   OH217801   0.627   1.714   3.692
 5932TIP3    H117802   0.627   1.714   3.596
 5932TIP3    H217803   0.544   1.755   3.715
 5933TIP3   OH217804   3.301   0.872   4.960
 5933TIP3    H117805   3.316   0.960   4.925
 5933TIP3    H217806   3.341   0.814   4.895
 5934TIP3   OH217807   4.066   5.678   4.392
 5934TIP3    H117808   4.093   5.590   4.366
 5934TIP3    H217809   4.144   5.717   4.432
 5935TIP3   OH217810   2.562   2.725   0.633
 5935TIP3    H117811   2.517   2.793   0.583
 5935TIP3    H217812   2.541   2.643   0.589
 5936TIP3   OH217813   6.323   5.260   0.828
 5936TIP3    H117814   6.304   5.229   0.740
 5936TIP3    H217815   6.246   5.312   0.853
 5937TIP3   OH217816   3.336   5.349   4.956
 5937TIP3    H117817   3.299   5.410   4.892
 5937TIP3    H217818   3.267   5.337   5.021
 5938TIP3   OH217819   4.024   5.416   0.857
 5938TIP3    H117820   3.971   5.370   0.792
 5938TIP3    H217821   3.963   5.434   0.929
 5939TIP3   OH217822   6.251   5.827   0.550
 5939TIP3    H117823   6.341   5.802   0.531
 5939TIP3    H217824   6.250   5.923   0.542
 5940TIP3   OH217825   4.122   3.840   3.325
 5940TIP3    H117826   4.156   3.860   3.238
 5940TIP3    H217827   4.068   3.915   3.348
 5941TIP3   OH217828   3.796   0.476   4.245
 5941TIP3    H117829   3.889   0.473   4.220
 5941TIP3    H217830   3.749   0.470   4.162
 5942TIP3   OH217831   0.582   4.141   0.647
 5942TIP3    H117832   0.623   4.220   0.612
 5942TIP3    H217833   0.596   4.146   0.741
 5943TIP3   OH217834   0.527   1.334   2.647
 5943TIP3    H117835   0.606   1.367   2.691
 5943TIP3    H217836   0.558   1.303   2.562
 5944TIP3   OH217837   3.282   1.656   2.948
 5944TIP3    H117838   3.370   1.623   2.965
 5944TIP3    H217839   3.296   1.748   2.924
 5945TIP3   OH217840   3.118   1.460   2.794
 5945TIP3    H117841   3.034   1.496   2.766
 5945TIP3    H217842   3.161   1.532   2.840
 5946TIP3   OH217843   0.054   5.938   2.360
 5946TIP3    H117844   0.058   6.030   2.385
 5946TIP3    H217845  -0.035   5.926   2.326
 5947TIP3   OH217846   1.714   0.529   4.942
 5947TIP3    H117847   1.715   0.447   4.992
 5947TIP3    H217848   1.797   0.529   4.895
 5948TIP3   OH217849   0.451   5.350   0.717
 5948TIP3    H117850   0.377   5.306   0.674
 5948TIP3    H217851   0.409   5.413   0.777
 5949TIP3   OH217852   4.201   2.542   4.531
 5949TIP3    H117853   4.237   2.456   4.553
 5949TIP3    H217854   4.115   2.543   4.573
 5950TIP3   OH217855   4.512   4.464   3.505
 5950TIP3    H117856   4.580   4.514   3.461
 5950TIP3    H217857   4.434   4.520   3.501
 5951TIP3   OH217858   5.226   0.731   4.827
 5951TIP3    H117859   5.241   0.668   4.757
 5951TIP3    H217860   5.209   0.677   4.904
 5952TIP3   OH217861   0.795   2.466   4.193
 5952TIP3    H117862   0.774   2.533   4.128
 5952TIP3    H217863   0.763   2.503   4.276
 5953TIP3   OH217864   1.112   3.455   1.591
 5953TIP3    H117865   1.155   3.378   1.628
 5953TIP3    H217866   1.182   3.500   1.544
 5954TIP3   OH217867   5.880   2.834   0.764
 5954TIP3    H117868   5.944   2.796   0.824
 5954TIP3    H217869   5.905   2.799   0.678
 5955TIP3   OH217870   3.734   1.152   0.482
 5955TIP3    H117871   3.792   1.115   0.416
 5955TIP3    H217872   3.793   1.200   0.541
 5956TIP3   OH217873   1.918   0.867   0.763
 5956TIP3    H117874   1.929   0.787   0.710
 5956TIP3    H217875   1.833   0.856   0.804
 5957TIP3   OH217876   4.867   3.497   0.676
 5957TIP3    H117877   4.862   3.471   0.584
 5957TIP3    H217878   4.810   3.435   0.721
 5958TIP3   OH217879   5.596   0.739   2.928
 5958TIP3    H117880   5.626   0.815   2.978
 5958TIP3    H217881   5.669   0.677   2.934
 5959TIP3   OH217882   0.350   2.646   3.990
 5959TIP3    H117883   0.440   2.617   4.007
 5959TIP3    H217884   0.357   2.705   3.915
 5960TIP3   OH217885   1.097   5.456   0.366
 5960TIP3    H117886   1.114   5.366   0.340
 5960TIP3    H217887   1.181   5.488   0.398
 5961TIP3   OH217888   5.082   0.681   4.275
 5961TIP3    H117889   5.121   0.727   4.201
 5961TIP3    H217890   5.149   0.619   4.302
 5962TIP3   OH217891   2.760   0.195   3.348
 5962TIP3    H117892   2.781   0.102   3.356
 5962TIP3    H217893   2.681   0.206   3.400
 5963TIP3   OH217894   3.830   1.229   0.747
 5963TIP3    H117895   3.755   1.263   0.796
 5963TIP3    H217896   3.839   1.139   0.776
 5964TIP3   OH217897   6.028   0.736   3.647
 5964TIP3    H117898   6.052   0.825   3.624
 5964TIP3    H217899   6.112   0.693   3.666
 5965TIP3   OH217900   2.265   5.272   2.479
 5965TIP3    H117901   2.249   5.222   2.398
 5965TIP3    H217902   2.216   5.353   2.467
 5966TIP3   OH217903   3.023   1.118   4.786
 5966TIP3    H117904   3.079   1.137   4.711
 5966TIP3    H217905   2.988   1.031   4.769
 5967TIP3   OH217906   3.887   1.544   1.411
 5967TIP3    H117907   3.831   1.469   1.433
 5967TIP3    H217908   3.969   1.504   1.383
 5968TIP3   OH217909   0.250   5.501   0.218
 5968TIP3    H117910   0.344   5.496   0.201
 5968TIP3    H217911   0.218   5.568   0.158
 5969TIP3   OH217912   4.798   5.169   4.622
 5969TIP3    H117913   4.775   5.162   4.715
 5969TIP3    H217914   4.893   5.179   4.622
 5970TIP3   OH217915   5.316   5.550   4.083
 5970TIP3    H117916   5.241   5.606   4.104
 5970TIP3    H217917   5.278   5.463   4.068
 5971TIP3   OH217918   5.784   1.344   3.526
 5971TIP3    H117919   5.707   1.397   3.546
 5971TIP3    H217920   5.857   1.393   3.564
 5972TIP3   OH217921   0.047   4.967   2.321
 5972TIP3    H117922   0.080   5.048   2.282
 5972TIP3    H217923   0.090   4.897   2.272
 5973TIP3   OH217924   1.530   4.433   4.697
 5973TIP3    H117925   1.468   4.382   4.644
 5973TIP3    H217926   1.602   4.371   4.715
 5974TIP3   OH217927   1.044   2.578   0.488
 5974TIP3    H117928   1.025   2.502   0.543
 5974TIP3    H217929   1.095   2.542   0.415
 5975TIP3   OH217930   2.002   2.698   1.166
 5975TIP3    H117931   2.030   2.633   1.101
 5975TIP3    H217932   1.935   2.652   1.218
 5976TIP3   OH217933   3.211   5.218   1.547
 5976TIP3    H117934   3.252   5.259   1.623
 5976TIP3    H217935   3.208   5.125   1.569
 5977TIP3   OH217936   3.104   0.410   0.646
 5977TIP3    H117937   3.187   0.451   0.624
 5977TIP3    H217938   3.087   0.436   0.737
 5978TIP3   OH217939   2.790   2.869   3.211
 5978TIP3    H117940   2.821   2.781   3.235
 5978TIP3    H217941   2.733   2.895   3.283
 5979TIP3   OH217942   1.803   1.946   0.330
 5979TIP3    H117943   1.730   1.927   0.271
 5979TIP3    H217944   1.774   2.022   0.380
 5980TIP3   OH217945   5.212   0.343   3.637
 5980TIP3    H117946   5.173   0.305   3.558
 5980TIP3    H217947   5.146   0.404   3.670
 5981TIP3   OH217948   0.704   3.314   2.796
 5981TIP3    H117949   0.672   3.239   2.846
 5981TIP3    H217950   0.755   3.275   2.725
 5982TIP3   OH217951   1.578   4.154   0.651
 5982TIP3    H117952   1.542   4.065   0.642
 5982TIP3    H217953   1.521   4.196   0.716
 5983TIP3   OH217954   1.950   2.707   3.923
 5983TIP3    H117955   1.969   2.633   3.866
 5983TIP3    H217956   1.863   2.737   3.896
 5984TIP3   OH217957   2.758   5.895   1.525
 5984TIP3    H117958   2.790   5.972   1.571
 5984TIP3    H217959   2.722   5.839   1.594
 5985TIP3   OH217960   0.273   5.039   4.028
 5985TIP3    H117961   0.259   5.031   3.933
 5985TIP3    H217962   0.345   5.102   4.037
 5986TIP3   OH217963   1.875   1.957   5.122
 5986TIP3    H117964   1.883   2.043   5.079
 5986TIP3    H217965   1.796   1.965   5.176
 5987TIP3   OH217966   2.050   2.974   2.810
 5987TIP3    H117967   2.113   2.901   2.820
 5987TIP3    H217968   2.101   3.052   2.829
 5988TIP3   OH217969   5.808   4.053   2.093
 5988TIP3    H117970   5.763   4.038   2.176
 5988TIP3    H217971   5.851   4.137   2.104
 5989TIP3   OH217972   4.826   5.754   0.010
 5989TIP3    H117973   4.910   5.733   0.050
 5989TIP3    H217974   4.769   5.778   0.084
 5990TIP3   OH217975   2.582   5.849   1.134
 5990TIP3    H117976   2.517   5.876   1.068
 5990TIP3    H217977   2.634   5.783   1.089
 5991TIP3   OH217978   2.602   0.232   0.550
 5991TIP3    H117979   2.531   0.220   0.612
 5991TIP3    H217980   2.677   0.261   0.603
 5992TIP3   OH217981   1.678   2.722   1.708
 5992TIP3    H117982   1.606   2.706   1.647
 5992TIP3    H217983   1.647   2.687   1.791
 5993TIP3   OH217984   3.792   1.759   4.724
 5993TIP3    H117985   3.775   1.839   4.773
 5993TIP3    H217986   3.708   1.737   4.683
 5994TIP3   OH217987   0.339   1.319   3.561
 5994TIP3    H117988   0.274   1.339   3.628
 5994TIP3    H217989   0.423   1.339   3.603
 5995TIP3   OH217990   2.985   1.022   0.362
 5995TIP3    H117991   3.060   1.053   0.413
 5995TIP3    H217992   2.997   1.060   0.275
 5996TIP3   OH217993   1.673   4.297   1.558
 5996TIP3    H117994   1.663   4.221   1.501
 5996TIP3    H217995   1.748   4.276   1.613
 5997TIP3   OH217996   0.091   1.873   3.656
 5997TIP3    H117997   0.068   1.917   3.574
 5997TIP3    H217998   0.028   1.906   3.719
 5998TIP3   OH217999   1.645   3.883   1.176
 5998TIP3    H118000   1.630   3.939   1.100
 5998TIP3    H218001   1.706   3.817   1.146
 5999TIP3   OH218002   2.700   4.709   2.530
 5999TIP3    H118003   2.666   4.789   2.491
 5999TIP3    H218004   2.666   4.709   2.620
 6000TIP3   OH218005   1.351   0.771   2.650
 6000TIP3    H118006   1.377   0.691   2.696
 6000TIP3    H218007   1.420   0.786   2.586
 6001TIP3   OH218008   0.452   5.401   2.830
 6001TIP3    H118009   0.440   5.308   2.850
 6001TIP3    H218010   0.502   5.402   2.748
 6002TIP3   OH218011   3.272   1.986   3.380
 6002TIP3    H118012   3.274   2.008   3.473
 6002TIP3    H218013   3.305   2.064   3.336
 6003TIP3   OH218014   2.780   3.415   3.629
 6003TIP3    H118015   2.856   3.447   3.677
 6003TIP3    H218016   2.718   3.388   3.697
 6004TIP3   OH218017   2.306   2.594   1.752
 6004TIP3    H118018   2.376   2.659   1.747
 6004TIP3    H218019   2.244   2.631   1.815
 6005TIP3   OH218020   2.710   1.499   3.791
 6005TIP3    H118021   2.721   1.547   3.708
 6005TIP3    H218022   2.650   1.554   3.842
 6006TIP3   OH218023   1.853   0.295   1.456
 6006TIP3    H118024   1.767   0.260   1.482
 6006TIP3    H218025   1.905   0.218   1.436
 6007TIP3   OH218026   6.241   0.076   2.916
 6007TIP3    H118027   6.262   0.106   2.828
 6007TIP3    H218028   6.203   0.152   2.960
 6008TIP3   OH218029   2.890   2.711   3.494
 6008TIP3    H118030   2.979   2.728   3.463
 6008TIP3    H218031   2.845   2.672   3.420
 6009TIP3   OH218032   2.627   0.552   1.833
 6009TIP3    H118033   2.694   0.553   1.764
 6009TIP3    H218034   2.554   0.601   1.796
 6010TIP3   OH218035   0.345   1.659   1.578
 6010TIP3    H118036   0.316   1.587   1.522
 6010TIP3    H218037   0.381   1.617   1.655
 6011TIP3   OH218038   3.361   2.297   3.635
 6011TIP3    H118039   3.284   2.250   3.601
 6011TIP3    H218040   3.332   2.387   3.644
 6012TIP3   OH218041   0.503   0.872   1.310
 6012TIP3    H118042   0.556   0.937   1.356
 6012TIP3    H218043   0.552   0.853   1.230
 6013TIP3   OH218044   2.260   5.833   2.863
 6013TIP3    H118045   2.277   5.877   2.779
 6013TIP3    H218046   2.206   5.757   2.839
 6014TIP3   OH218047   3.673   3.924   0.560
 6014TIP3    H118048   3.741   3.867   0.525
 6014TIP3    H218049   3.696   3.936   0.652
 6015TIP3   OH218050   4.020   3.994   4.572
 6015TIP3    H118051   3.942   3.955   4.532
 6015TIP3    H218052   4.029   3.950   4.656
 6016TIP3   OH218053   0.196   3.602   3.792
 6016TIP3    H118054   0.273   3.546   3.781
 6016TIP3    H218055   0.139   3.579   3.719
 6017TIP3   OH218056   4.412   4.725   2.957
 6017TIP3    H118057   4.506   4.743   2.949
 6017TIP3    H218058   4.386   4.699   2.868
 6018TIP3   OH218059   0.155   5.699   3.138
 6018TIP3    H118060   0.180   5.791   3.136
 6018TIP3    H218061   0.234   5.653   3.165
 6019TIP3   OH218062   2.177   2.676   1.965
 6019TIP3    H118063   2.087   2.650   1.986
 6019TIP3    H218064   2.226   2.657   2.045
 6020TIP3   OH218065   5.409   5.767   1.399
 6020TIP3    H118066   5.367   5.766   1.312
 6020TIP3    H218067   5.464   5.845   1.397
 6021TIP3   OH218068   1.204   2.415   1.744
 6021TIP3    H118069   1.125   2.381   1.787
 6021TIP3    H218070   1.193   2.510   1.746
 6022TIP3   OH218071   6.038   5.333   4.441
 6022TIP3    H118072   6.132   5.324   4.428
 6022TIP3    H218073   6.000   5.329   4.353
 6023TIP3   OH218074   5.773   3.805   0.261
 6023TIP3    H118075   5.855   3.760   0.239
 6023TIP3    H218076   5.737   3.830   0.176
 6024TIP3   OH218077   0.823   0.305   0.222
 6024TIP3    H118078   0.764   0.374   0.193
 6024TIP3    H218079   0.837   0.250   0.144
 6025TIP3   OH218080   4.451   2.543   2.055
 6025TIP3    H118081   4.481   2.623   2.097
 6025TIP3    H218082   4.502   2.473   2.097
 6026TIP3   OH218083   4.550   4.561   3.856
 6026TIP3    H118084   4.635   4.518   3.848
 6026TIP3    H218085   4.487   4.495   3.828
 6027TIP3   OH218086   0.574   2.205   1.578
 6027TIP3    H118087   0.531   2.180   1.660
 6027TIP3    H218088   0.571   2.301   1.578
 6028TIP3   OH218089   2.619   1.789   4.927
 6028TIP3    H118090   2.598   1.758   5.015
 6028TIP3    H218091   2.607   1.884   4.931
 6029TIP3   OH218092   0.339   5.490   3.220
 6029TIP3    H118093   0.327   5.433   3.296
 6029TIP3    H218094   0.434   5.498   3.211
 6030TIP3   OH218095   2.638   5.550   4.258
 6030TIP3    H118096   2.577   5.487   4.219
 6030TIP3    H218097   2.593   5.634   4.254
 6031TIP3   OH218098   3.034   0.811   3.786
 6031TIP3    H118099   3.026   0.724   3.825
 6031TIP3    H218100   3.024   0.871   3.860
 6032TIP3   OH218101   5.092   0.780   5.172
 6032TIP3    H118102   5.110   0.687   5.180
 6032TIP3    H218103   5.045   0.803   5.253
 6033TIP3   OH218104   2.181   4.589   4.803
 6033TIP3    H118105   2.268   4.580   4.841
 6033TIP3    H218106   2.145   4.667   4.845
 6034TIP3   OH218107   0.067   0.284   4.085
 6034TIP3    H118108   0.138   0.281   4.149
 6034TIP3    H218109   0.034   0.194   4.081
 6035TIP3   OH218110   5.698   3.486   2.441
 6035TIP3    H118111   5.618   3.462   2.488
 6035TIP3    H218112   5.707   3.418   2.374
 6036TIP3   OH218113   3.838   1.178   3.827
 6036TIP3    H118114   3.784   1.107   3.863
 6036TIP3    H218115   3.797   1.200   3.744
 6037TIP3   OH218116   2.409   0.510   2.369
 6037TIP3    H118117   2.398   0.553   2.284
 6037TIP3    H218118   2.322   0.514   2.409
 6038TIP3   OH218119   3.847   1.929   2.757
 6038TIP3    H118120   3.784   1.859   2.735
 6038TIP3    H218121   3.929   1.883   2.773
 6039TIP3   OH218122   2.131   1.169   0.167
 6039TIP3    H118123   2.065   1.100   0.177
 6039TIP3    H218124   2.124   1.221   0.247
 6040TIP3   OH218125   4.583   3.401   0.286
 6040TIP3    H118126   4.559   3.382   0.196
 6040TIP3    H218127   4.501   3.399   0.334
 6041TIP3   OH218128   4.391   1.507   0.645
 6041TIP3    H118129   4.313   1.485   0.593
 6041TIP3    H218130   4.357   1.564   0.715
 6042TIP3   OH218131   2.483   4.619   3.464
 6042TIP3    H118132   2.569   4.604   3.502
 6042TIP3    H218133   2.435   4.537   3.479
 6043TIP3   OH218134   1.070   2.566   3.683
 6043TIP3    H118135   1.123   2.636   3.722
 6043TIP3    H218136   1.092   2.489   3.734
 6044TIP3   OH218137   6.073   3.688   3.657
 6044TIP3    H118138   6.134   3.753   3.623
 6044TIP3    H218139   6.067   3.707   3.750
 6045TIP3   OH218140   0.513   0.460   1.964
 6045TIP3    H118141   0.442   0.475   2.027
 6045TIP3    H218142   0.470   0.419   1.889
 6046TIP3   OH218143   4.123   4.583   1.900
 6046TIP3    H118144   4.064   4.652   1.869
 6046TIP3    H218145   4.208   4.604   1.860
 6047TIP3   OH218146   6.258   1.375   3.472
 6047TIP3    H118147   6.181   1.359   3.417
 6047TIP3    H218148   6.273   1.292   3.518
 6048TIP3   OH218149   1.351   4.219   4.212
 6048TIP3    H118150   1.402   4.190   4.136
 6048TIP3    H218151   1.363   4.314   4.213
 6049TIP3   OH218152   6.270   2.904   0.037
 6049TIP3    H118153   6.343   2.955   0.004
 6049TIP3    H218154   6.265   2.828  -0.021
 6050TIP3   OH218155   2.920   3.342   0.745
 6050TIP3    H118156   2.990   3.404   0.765
 6050TIP3    H218157   2.946   3.261   0.790
 6051TIP3   OH218158   3.945   5.788   4.763
 6051TIP3    H118159   4.041   5.792   4.761
 6051TIP3    H218160   3.918   5.824   4.679
 6052TIP3   OH218161   5.195   4.189   3.740
 6052TIP3    H118162   5.236   4.164   3.823
 6052TIP3    H218163   5.102   4.173   3.754
 6053TIP3   OH218164   5.959   1.309   1.163
 6053TIP3    H118165   5.948   1.339   1.073
 6053TIP3    H218166   5.900   1.234   1.171
 6054TIP3   OH218167   5.273   3.311   3.152
 6054TIP3    H118168   5.191   3.319   3.202
 6054TIP3    H218169   5.316   3.234   3.189
 6055TIP3   OH218170   5.077   1.351   2.273
 6055TIP3    H118171   5.001   1.303   2.240
 6055TIP3    H218172   5.119   1.290   2.334
 6056TIP3   OH218173   2.521   3.074   2.495
 6056TIP3    H118174   2.498   3.161   2.528
 6056TIP3    H218175   2.439   3.039   2.460
 6057TIP3   OH218176   3.910   0.123   5.172
 6057TIP3    H118177   4.003   0.113   5.189
 6057TIP3    H218178   3.881   0.037   5.143
 6058TIP3   OH218179   5.597   4.840   2.420
 6058TIP3    H118180   5.615   4.814   2.510
 6058TIP3    H218181   5.502   4.840   2.412
 6059TIP3   OH218182   4.300   4.414   0.580
 6059TIP3    H118183   4.371   4.476   0.566
 6059TIP3    H218184   4.343   4.331   0.603
 6060TIP3   OH218185   1.756   2.805   1.005
 6060TIP3    H118186   1.793   2.734   0.952
 6060TIP3    H218187   1.832   2.857   1.031
 6061TIP3   OH218188   4.893   5.743   3.770
 6061TIP3    H118189   4.878   5.668   3.713
 6061TIP3    H218190   4.888   5.708   3.859
 6062TIP3   OH218191   3.057   1.544   2.406
 6062TIP3    H118192   3.075   1.511   2.318
 6062TIP3    H218193   3.143   1.569   2.440
 6063TIP3   OH218194   4.267   3.326   2.991
 6063TIP3    H118195   4.224   3.393   2.938
 6063TIP3    H218196   4.196   3.268   3.018
 6064TIP3   OH218197   6.284   3.681   3.359
 6064TIP3    H118198   6.269   3.755   3.419
 6064TIP3    H218199   6.258   3.604   3.410
 6065TIP3   OH218200   5.295   4.861   2.473
 6065TIP3    H118201   5.283   4.782   2.526
 6065TIP3    H218202   5.232   4.923   2.507
 6066TIP3   OH218203   0.215   3.247   0.153
 6066TIP3    H118204   0.286   3.286   0.204
 6066TIP3    H218205   0.223   3.285   0.066
 6067TIP3   OH218206   0.260   1.971   3.256
 6067TIP3    H118207   0.310   1.970   3.174
 6067TIP3    H218208   0.283   1.889   3.299
 6068TIP3   OH218209   2.731   0.103   1.443
 6068TIP3    H118210   2.732   0.105   1.348
 6068TIP3    H218211   2.803   0.161   1.469
 6069TIP3   OH218212   4.508   1.105   4.648
 6069TIP3    H118213   4.471   1.021   4.622
 6069TIP3    H218214   4.483   1.116   4.739
 6070TIP3   OH218215   2.414   0.533   3.103
 6070TIP3    H118216   2.460   0.560   3.182
 6070TIP3    H218217   2.441   0.597   3.037
 6071TIP3   OH218218   4.998   1.943   2.478
 6071TIP3    H118219   4.972   1.973   2.391
 6071TIP3    H218220   4.994   2.021   2.533
 6072TIP3   OH218221   3.507   5.644   4.260
 6072TIP3    H118222   3.575   5.709   4.244
 6072TIP3    H218223   3.544   5.562   4.227
 6073TIP3   OH218224   5.526   5.542   3.906
 6073TIP3    H118225   5.475   5.537   3.826
 6073TIP3    H218226   5.478   5.490   3.970
 6074TIP3   OH218227   6.114   2.174   0.396
 6074TIP3    H118228   6.120   2.152   0.490
 6074TIP3    H218229   6.056   2.249   0.393
 6075TIP3   OH218230   3.911   1.519   0.532
 6075TIP3    H118231   3.895   1.599   0.483
 6075TIP3    H218232   4.003   1.499   0.517
 6076TIP3   OH218233   1.850   3.366   2.696
 6076TIP3    H118234   1.847   3.272   2.678
 6076TIP3    H218235   1.940   3.391   2.675
 6077TIP3   OH218236   3.535   5.773   2.924
 6077TIP3    H118237   3.519   5.759   3.017
 6077TIP3    H218238   3.627   5.796   2.918
 6078TIP3   OH218239   1.508   2.898   0.214
 6078TIP3    H118240   1.436   2.873   0.273
 6078TIP3    H218241   1.486   2.856   0.131
 6079TIP3   OH218242   4.904   5.941   4.655
 6079TIP3    H118243   4.910   5.924   4.561
 6079TIP3    H218244   4.970   6.008   4.672
 6080TIP3   OH218245   5.126   4.568   1.511
 6080TIP3    H118246   5.133   4.493   1.570
 6080TIP3    H218247   5.059   4.543   1.447
 6081TIP3   OH218248   4.688   4.225   4.965
 6081TIP3    H118249   4.617   4.273   5.008
 6081TIP3    H218250   4.745   4.294   4.931
 6082TIP3   OH218251   4.908   4.180   1.394
 6082TIP3    H118252   4.884   4.253   1.337
 6082TIP3    H218253   4.883   4.102   1.345
 6083TIP3   OH218254   5.807   3.823   1.793
 6083TIP3    H118255   5.802   3.790   1.883
 6083TIP3    H218256   5.787   3.747   1.738
 6084TIP3   OH218257   5.337   5.849   5.054
 6084TIP3    H118258   5.336   5.938   5.087
 6084TIP3    H218259   5.385   5.854   4.971
 6085TIP3   OH218260   0.403   4.178   1.627
 6085TIP3    H118261   0.477   4.237   1.642
 6085TIP3    H218262   0.383   4.142   1.713
 6086TIP3   OH218263   5.581   2.526   3.724
 6086TIP3    H118264   5.554   2.568   3.643
 6086TIP3    H218265   5.505   2.477   3.754
 6087TIP3   OH218266   3.777   1.128   1.291
 6087TIP3    H118267   3.805   1.218   1.272
 6087TIP3    H218268   3.696   1.139   1.340
 6088TIP3   OH218269   1.419   3.831   2.990
 6088TIP3    H118270   1.514   3.836   2.980
 6088TIP3    H218271   1.399   3.897   3.057
 6089TIP3   OH218272   2.848   5.934   2.309
 6089TIP3    H118273   2.879   5.923   2.219
 6089TIP3    H218274   2.788   6.009   2.305
 6090TIP3   OH218275   1.087   4.492   4.761
 6090TIP3    H118276   1.060   4.530   4.678
 6090TIP3    H218277   1.173   4.530   4.779
 6091TIP3   OH218278   0.061   1.045   4.693
 6091TIP3    H118279  -0.015   1.035   4.636
 6091TIP3    H218280   0.025   1.042   4.781
 6092TIP3   OH218281   5.592   0.955   2.092
 6092TIP3    H118282   5.578   0.863   2.115
 6092TIP3    H218283   5.508   0.997   2.112
 6093TIP3   OH218284   0.287   2.944   2.177
 6093TIP3    H118285   0.350   2.922   2.109
 6093TIP3    H218286   0.216   2.988   2.130
 6094TIP3   OH218287   3.108   2.208   4.234
 6094TIP3    H118288   3.136   2.155   4.159
 6094TIP3    H218289   3.165   2.179   4.306
 6095TIP3   OH218290   0.586   3.956   0.424
 6095TIP3    H118291   0.575   4.014   0.500
 6095TIP3    H218292   0.514   3.892   0.433
 6096TIP3   OH218293   0.573   4.816   3.278
 6096TIP3    H118294   0.662   4.845   3.261
 6096TIP3    H218295   0.560   4.740   3.221
 6097TIP3   OH218296   2.004   4.202   4.022
 6097TIP3    H118297   1.969   4.155   3.947
 6097TIP3    H218298   2.017   4.292   3.991
 6098TIP3   OH218299   5.420   2.358   2.831
 6098TIP3    H118300   5.372   2.383   2.752
 6098TIP3    H218301   5.352   2.348   2.898
 6099TIP3   OH218302   4.778   5.630   2.761
 6099TIP3    H118303   4.755   5.681   2.683
 6099TIP3    H218304   4.819   5.693   2.820
 6100TIP3   OH218305   2.984   3.504   3.781
 6100TIP3    H118306   3.026   3.590   3.790
 6100TIP3    H218307   3.043   3.444   3.826
 6101TIP3   OH218308   1.563   2.031   1.959
 6101TIP3    H118309   1.529   1.989   2.039
 6101TIP3    H218310   1.544   1.968   1.890
 6102TIP3   OH218311   4.519   5.179   2.144
 6102TIP3    H118312   4.483   5.093   2.168
 6102TIP3    H218313   4.506   5.233   2.222
 6103TIP3   OH218314   1.645   5.541   1.562
 6103TIP3    H118315   1.572   5.561   1.621
 6103TIP3    H218316   1.651   5.445   1.563
 6104TIP3   OH218317   1.671   3.435   2.144
 6104TIP3    H118318   1.642   3.348   2.171
 6104TIP3    H218319   1.663   3.488   2.224
 6105TIP3   OH218320   3.217   1.986   1.002
 6105TIP3    H118321   3.159   1.941   1.064
 6105TIP3    H218322   3.158   2.036   0.946
 6106TIP3   OH218323   1.242   1.245   1.268
 6106TIP3    H118324   1.251   1.216   1.358
 6106TIP3    H218325   1.275   1.171   1.215
 6107TIP3   OH218326   4.149   0.774   2.847
 6107TIP3    H118327   4.121   0.778   2.938
 6107TIP3    H218328   4.193   0.689   2.840
 6108TIP3   OH218329   4.968   0.136   3.010
 6108TIP3    H118330   5.003   0.051   3.039
 6108TIP3    H218331   5.044   0.182   2.974
 6109TIP3   OH218332   0.750   4.301   5.089
 6109TIP3    H118333   0.772   4.370   5.026
 6109TIP3    H218334   0.675   4.256   5.050
 6110TIP3   OH218335   5.572   1.380   4.512
 6110TIP3    H118336   5.666   1.369   4.499
 6110TIP3    H218337   5.538   1.291   4.514
 6111TIP3   OH218338   5.902   2.954   3.863
 6111TIP3    H118339   5.874   2.980   3.775
 6111TIP3    H218340   5.997   2.960   3.860
 6112TIP3   OH218341   5.859   3.325   4.708
 6112TIP3    H118342   5.808   3.406   4.708
 6112TIP3    H218343   5.798   3.259   4.675
 6113TIP3   OH218344   1.349   0.371   4.553
 6113TIP3    H118345   1.441   0.380   4.576
 6113TIP3    H218346   1.301   0.407   4.628
 6114TIP3   OH218347   1.250   3.560   4.253
 6114TIP3    H118348   1.303   3.553   4.174
 6114TIP3    H218349   1.218   3.650   4.253
 6115TIP3   OH218350   4.808   1.086   5.126
 6115TIP3    H118351   4.828   1.094   5.220
 6115TIP3    H218352   4.864   1.152   5.085
 6116TIP3   OH218353   3.618   2.503   1.018
 6116TIP3    H118354   3.688   2.464   1.070
 6116TIP3    H218355   3.660   2.572   0.968
 6117TIP3   OH218356   2.845   4.256   4.331
 6117TIP3    H118357   2.838   4.299   4.246
 6117TIP3    H218358   2.799   4.173   4.320
 6118TIP3   OH218359   3.393   2.258   3.913
 6118TIP3    H118360   3.416   2.263   3.820
 6118TIP3    H218361   3.317   2.316   3.923
 6119TIP3   OH218362   3.552   2.047   2.268
 6119TIP3    H118363   3.552   2.114   2.337
 6119TIP3    H218364   3.598   2.088   2.195
 6120TIP3   OH218365   5.848   3.570   2.701
 6120TIP3    H118366   5.898   3.490   2.714
 6120TIP3    H218367   5.775   3.544   2.644
 6121TIP3   OH218368   2.741   0.180   2.368
 6121TIP3    H118369   2.686   0.238   2.421
 6121TIP3    H218370   2.826   0.181   2.412
 6122TIP3   OH218371   3.049   2.784   2.075
 6122TIP3    H118372   3.136   2.745   2.068
 6122TIP3    H218373   3.064   2.873   2.108
 6123TIP3   OH218374   2.887   3.657   5.060
 6123TIP3    H118375   2.915   3.641   5.150
 6123TIP3    H218376   2.803   3.702   5.069
 6124TIP3   OH218377   3.068   3.970   1.858
 6124TIP3    H118378   3.036   3.882   1.874
 6124TIP3    H218379   3.030   4.023   1.928
 6125TIP3   OH218380   4.891   4.660   3.776
 6125TIP3    H118381   4.964   4.678   3.716
 6125TIP3    H218382   4.821   4.718   3.747
 6126TIP3   OH218383   2.689   0.547   0.328
 6126TIP3    H118384   2.697   0.455   0.302
 6126TIP3    H218385   2.766   0.563   0.382
 6127TIP3   OH218386   5.152   5.652   2.362
 6127TIP3    H118387   5.178   5.744   2.369
 6127TIP3    H218388   5.108   5.633   2.445
 6128TIP3   OH218389   4.541   3.888   2.160
 6128TIP3    H118390   4.622   3.843   2.134
 6128TIP3    H218391   4.496   3.826   2.217
 6129TIP3   OH218392   5.069   5.523   0.276
 6129TIP3    H118393   4.977   5.532   0.300
 6129TIP3    H218394   5.078   5.430   0.254
 6130TIP3   OH218395   2.404   4.337   0.286
 6130TIP3    H118396   2.460   4.280   0.339
 6130TIP3    H218397   2.329   4.355   0.343
 6131TIP3   OH218398   3.025   1.154   3.137
 6131TIP3    H118399   3.066   1.102   3.068
 6131TIP3    H218400   3.071   1.129   3.217
 6132TIP3   OH218401   3.899   1.493   1.879
 6132TIP3    H118402   3.912   1.429   1.949
 6132TIP3    H218403   3.884   1.440   1.801
 6133TIP3   OH218404   3.590   5.754   2.472
 6133TIP3    H118405   3.679   5.723   2.489
 6133TIP3    H218406   3.535   5.677   2.485
 6134TIP3   OH218407   3.885   3.287   3.946
 6134TIP3    H118408   3.821   3.303   3.877
 6134TIP3    H218409   3.916   3.198   3.930
 6135TIP3   OH218410   1.456   5.298   1.748
 6135TIP3    H118411   1.421   5.349   1.675
 6135TIP3    H218412   1.542   5.267   1.717
 6136TIP3   OH218413   0.018   0.058   2.226
 6136TIP3    H118414   0.065   0.123   2.175
 6136TIP3    H218415  -0.008  -0.009   2.162
 6137TIP3   OH218416   2.766   2.795   4.572
 6137TIP3    H118417   2.757   2.740   4.649
 6137TIP3    H218418   2.857   2.824   4.574
 6138TIP3   OH218419   6.014   0.572   2.559
 6138TIP3    H118420   5.962   0.585   2.480
 6138TIP3    H218421   6.100   0.543   2.526
 6139TIP3   OH218422   3.446   5.930   2.078
 6139TIP3    H118423   3.417   6.021   2.071
 6139TIP3    H218424   3.509   5.919   2.007
 6140TIP3   OH218425   3.243   5.583   3.990
 6140TIP3    H118426   3.169   5.555   3.935
 6140TIP3    H218427   3.284   5.654   3.940
 6141TIP3   OH218428   5.127   0.535   2.026
 6141TIP3    H118429   5.045   0.584   2.022
 6141TIP3    H218430   5.164   0.543   1.938
 6142TIP3   OH218431   4.434   1.318   1.894
 6142TIP3    H118432   4.491   1.372   1.839
 6142TIP3    H218433   4.481   1.310   1.977
 6143TIP3   OH218434   2.914   5.704   1.806
 6143TIP3    H118435   2.982   5.640   1.830
 6143TIP3    H218436   2.892   5.682   1.716
 6144TIP3   OH218437   3.390   4.032   0.886
 6144TIP3    H118438   3.345   4.116   0.879
 6144TIP3    H218439   3.446   4.042   0.963
 6145TIP3   OH218440   4.881   1.588   3.719
 6145TIP3    H118441   4.793   1.553   3.709
 6145TIP3    H218442   4.938   1.519   3.685
 6146TIP3   OH218443   3.136   4.815   2.259
 6146TIP3    H118444   3.046   4.804   2.228
 6146TIP3    H218445   3.131   4.798   2.353
 6147TIP3   OH218446   1.798   5.603   3.899
 6147TIP3    H118447   1.757   5.658   3.966
 6147TIP3    H218448   1.855   5.544   3.948
 6148TIP3   OH218449   5.784   1.445   0.272
 6148TIP3    H118450   5.736   1.371   0.235
 6148TIP3    H218451   5.721   1.517   0.272
 6149TIP3   OH218452   1.258   1.697   1.938
 6149TIP3    H118453   1.339   1.715   1.985
 6149TIP3    H218454   1.274   1.614   1.893
 6150TIP3   OH218455   5.977   2.284   3.334
 6150TIP3    H118456   5.983   2.270   3.429
 6150TIP3    H218457   5.916   2.357   3.325
 6151TIP3   OH218458   3.770   1.828   4.099
 6151TIP3    H118459   3.794   1.920   4.104
 6151TIP3    H218460   3.836   1.783   4.151
 6152TIP3   OH218461   3.095   3.483   5.170
 6152TIP3    H118462   3.054   3.481   5.084
 6152TIP3    H218463   3.141   3.399   5.177
 6153TIP3   OH218464   4.064   2.913   2.853
 6153TIP3    H118465   4.058   2.843   2.788
 6153TIP3    H218466   4.006   2.884   2.924
 6154TIP3   OH218467   4.879   0.118   1.705
 6154TIP3    H118468   4.966   0.096   1.740
 6154TIP3    H218469   4.833   0.155   1.780
 6155TIP3   OH218470   0.193   1.765   1.359
 6155TIP3    H118471   0.240   1.793   1.438
 6155TIP3    H218472   0.194   1.669   1.363
 6156TIP3   OH218473   2.475   5.236   4.516
 6156TIP3    H118474   2.397   5.272   4.558
 6156TIP3    H218475   2.531   5.312   4.501
 6157TIP3   OH218476   4.058   5.778   3.364
 6157TIP3    H118477   4.063   5.775   3.268
 6157TIP3    H218478   3.988   5.718   3.386
 6158TIP3   OH218479   2.969   4.403   3.460
 6158TIP3    H118480   2.936   4.430   3.375
 6158TIP3    H218481   3.064   4.416   3.455
 6159TIP3   OH218482   0.480   2.884   1.955
 6159TIP3    H118483   0.443   2.816   1.898
 6159TIP3    H218484   0.525   2.835   2.024
 6160TIP3   OH218485   0.872   3.936   4.430
 6160TIP3    H118486   0.874   3.866   4.365
 6160TIP3    H218487   0.784   3.930   4.469
 6161TIP3   OH218488   5.053   5.775   0.206
 6161TIP3    H118489   5.092   5.695   0.241
 6161TIP3    H218490   5.005   5.813   0.280
 6162TIP3   OH218491   1.425   3.284   4.188
 6162TIP3    H118492   1.374   3.304   4.266
 6162TIP3    H218493   1.499   3.232   4.220
 6163TIP3   OH218494   4.285   3.813   3.866
 6163TIP3    H118495   4.223   3.742   3.849
 6163TIP3    H218496   4.298   3.810   3.961
 6164TIP3   OH218497   2.490   3.320   3.649
 6164TIP3    H118498   2.508   3.326   3.743
 6164TIP3    H218499   2.494   3.410   3.618
 6165TIP3   OH218500   5.450   1.390   2.911
 6165TIP3    H118501   5.422   1.326   2.977
 6165TIP3    H218502   5.542   1.407   2.933
 6166TIP3   OH218503   5.944   0.064   1.622
 6166TIP3    H118504   5.997   0.141   1.603
 6166TIP3    H218505   5.853   0.096   1.619
 6167TIP3   OH218506   5.043   2.928   1.214
 6167TIP3    H118507   5.028   3.020   1.195
 6167TIP3    H218508   5.013   2.881   1.136
 6168TIP3   OH218509   2.936   0.419   5.011
 6168TIP3    H118510   2.960   0.421   5.103
 6168TIP3    H218511   2.845   0.388   5.010
 6169TIP3   OH218512   2.186   4.349   0.431
 6169TIP3    H118513   2.151   4.261   0.446
 6169TIP3    H218514   2.218   4.377   0.517
 6170TIP3   OH218515   3.875   5.720   4.185
 6170TIP3    H118516   3.926   5.699   4.264
 6170TIP3    H218517   3.887   5.644   4.128
 6171TIP3   OH218518   2.702   2.114   0.856
 6171TIP3    H118519   2.692   2.050   0.927
 6171TIP3    H218520   2.779   2.165   0.881
 6172TIP3   OH218521   1.124   2.017   3.051
 6172TIP3    H118522   1.032   1.990   3.054
 6172TIP3    H218523   1.172   1.938   3.029
 6173TIP3   OH218524   5.108   5.711   4.163
 6173TIP3    H118525   5.059   5.637   4.200
 6173TIP3    H218526   5.107   5.777   4.232
 6174TIP3   OH218527   2.804   3.487   2.060
 6174TIP3    H118528   2.714   3.457   2.061
 6174TIP3    H218529   2.807   3.556   2.127
 6175TIP3   OH218530   2.184   2.273  -0.015
 6175TIP3    H118531   2.119   2.223  -0.064
 6175TIP3    H218532   2.148   2.279   0.073
 6176TIP3   OH218533   2.174   4.223   2.840
 6176TIP3    H118534   2.187   4.152   2.777
 6176TIP3    H218535   2.207   4.301   2.796
 6177TIP3   OH218536   5.533   4.324   2.362
 6177TIP3    H118537   5.529   4.363   2.274
 6177TIP3    H218538   5.479   4.382   2.416
 6178TIP3   OH218539   1.762   2.588   3.032
 6178TIP3    H118540   1.842   2.537   3.044
 6178TIP3    H218541   1.747   2.587   2.938
 6179TIP3   OH218542   4.478   2.919   3.651
 6179TIP3    H118543   4.400   2.891   3.699
 6179TIP3    H218544   4.444   2.963   3.573
 6180TIP3   OH218545   4.868   1.431   4.879
 6180TIP3    H118546   4.785   1.398   4.912
 6180TIP3    H218547   4.930   1.360   4.896
 6181TIP3   OH218548   2.961   1.282   2.199
 6181TIP3    H118549   3.012   1.213   2.241
 6181TIP3    H218550   2.870   1.264   2.225
 6182TIP3   OH218551   2.407   3.584   2.828
 6182TIP3    H118552   2.403   3.657   2.890
 6182TIP3    H218553   2.317   3.573   2.797
 6183TIP3   OH218554   6.003   1.055   4.463
 6183TIP3    H118555   6.093   1.083   4.481
 6183TIP3    H218556   6.000   1.042   4.368
 6184TIP3   OH218557   1.039   0.892   2.174
 6184TIP3    H118558   0.998   0.881   2.260
 6184TIP3    H218559   1.010   0.978   2.144
 6185TIP3   OH218560   1.824   2.424   3.284
 6185TIP3    H118561   1.788   2.335   3.284
 6185TIP3    H218562   1.918   2.411   3.298
 6186TIP3   OH218563   0.867   5.201   0.909
 6186TIP3    H118564   0.834   5.148   0.981
 6186TIP3    H218565   0.827   5.163   0.830
 6187TIP3   OH218566   6.099   1.724   4.242
 6187TIP3    H118567   6.160   1.758   4.308
 6187TIP3    H218568   6.047   1.800   4.217
 6188TIP3   OH218569   4.815   5.018   0.430
 6188TIP3    H118570   4.814   5.108   0.462
 6188TIP3    H218571   4.896   4.981   0.466
 6189TIP3   OH218572   4.513   2.869   1.595
 6189TIP3    H118573   4.449   2.835   1.533
 6189TIP3    H218574   4.534   2.956   1.563
 6190TIP3   OH218575   3.139   4.511   1.447
 6190TIP3    H118576   3.131   4.488   1.355
 6190TIP3    H218577   3.108   4.601   1.453
 6191TIP3   OH218578   0.031   1.788   3.144
 6191TIP3    H118579  -0.023   1.708   3.141
 6191TIP3    H218580   0.090   1.779   3.069
 6192TIP3   OH218581   1.442   1.759   2.126
 6192TIP3    H118582   1.498   1.812   2.184
 6192TIP3    H218583   1.466   1.668   2.148
 6193TIP3   OH218584   0.479   5.766   2.959
 6193TIP3    H118585   0.543   5.748   2.890
 6193TIP3    H218586   0.402   5.714   2.935
 6194TIP3   OH218587   1.447   5.375   3.847
 6194TIP3    H118588   1.406   5.289   3.852
 6194TIP3    H218589   1.497   5.373   3.766
 6195TIP3   OH218590   2.410   3.570   3.872
 6195TIP3    H118591   2.360   3.557   3.952
 6195TIP3    H218592   2.493   3.608   3.901
 6196TIP3   OH218593   5.233   4.775   3.851
 6196TIP3    H118594   5.238   4.732   3.766
 6196TIP3    H218595   5.233   4.703   3.914
 6197TIP3   OH218596   2.715   5.395   1.527
 6197TIP3    H118597   2.790   5.454   1.532
 6197TIP3    H218598   2.650   5.443   1.475
 6198TIP3   OH218599   2.991   5.491   3.164
 6198TIP3    H118600   3.006   5.401   3.193
 6198TIP3    H218601   3.004   5.488   3.069
 6199TIP3   OH218602   2.854   1.878   3.309
 6199TIP3    H118603   2.914   1.844   3.243
 6199TIP3    H218604   2.904   1.879   3.390
 6200TIP3   OH218605   4.368   2.386   3.970
 6200TIP3    H118606   4.382   2.292   3.979
 6200TIP3    H218607   4.273   2.397   3.973
 6201TIP3   OH218608   0.281   0.702   1.890
 6201TIP3    H118609   0.277   0.755   1.970
 6201TIP3    H218610   0.290   0.612   1.921
 6202TIP3   OH218611   3.914   1.636   3.512
 6202TIP3    H118612   3.911   1.731   3.525
 6202TIP3    H218613   3.977   1.624   3.441
 6203TIP3   OH218614   3.161   2.774   0.490
 6203TIP3    H118615   3.245   2.750   0.531
 6203TIP3    H218616   3.168   2.739   0.401
 6204TIP3   OH218617   5.687   5.307   2.421
 6204TIP3    H118618   5.656   5.226   2.463
 6204TIP3    H218619   5.657   5.377   2.479
 6205TIP3   OH218620   5.399   4.289   1.560
 6205TIP3    H118621   5.343   4.211   1.560
 6205TIP3    H218622   5.351   4.353   1.611
 6206TIP3   OH218623   1.257   2.717   1.777
 6206TIP3    H118624   1.178   2.684   1.820
 6206TIP3    H218625   1.286   2.789   1.832
 6207TIP3   OH218626   0.270   1.412   0.624
 6207TIP3    H118627   0.189   1.366   0.599
 6207TIP3    H218628   0.320   1.347   0.673
 6208TIP3   OH218629   4.984   1.685   0.864
 6208TIP3    H118630   4.960   1.697   0.772
 6208TIP3    H218631   5.074   1.719   0.869
 6209TIP3   OH218632   4.710   3.056   3.039
 6209TIP3    H118633   4.756   2.972   3.046
 6209TIP3    H218634   4.682   3.075   3.129
 6210TIP3   OH218635   2.656   4.076   2.593
 6210TIP3    H118636   2.712   4.139   2.548
 6210TIP3    H218637   2.693   4.069   2.681
 6211TIP3   OH218638   5.049   0.876   0.972
 6211TIP3    H118639   5.121   0.926   1.011
 6211TIP3    H218640   5.074   0.785   0.982
 6212TIP3   OH218641   3.335   4.231   1.799
 6212TIP3    H118642   3.353   4.154   1.746
 6212TIP3    H218643   3.412   4.287   1.787
 6213TIP3   OH218644   5.691   1.518   4.839
 6213TIP3    H118645   5.647   1.504   4.922
 6213TIP3    H218646   5.628   1.565   4.786
 6214TIP3   OH218647   1.042   4.590   3.315
 6214TIP3    H118648   1.024   4.497   3.330
 6214TIP3    H218649   0.978   4.636   3.370
 6215TIP3   OH218650   4.670   1.477   3.452
 6215TIP3    H118651   4.702   1.539   3.386
 6215TIP3    H218652   4.748   1.433   3.484
 6216TIP3   OH218653   3.223   0.404   4.950
 6216TIP3    H118654   3.143   0.438   4.910
 6216TIP3    H218655   3.281   0.386   4.876
 6217TIP3   OH218656   3.129   1.091   2.284
 6217TIP3    H118657   3.162   1.065   2.197
 6217TIP3    H218658   3.208   1.113   2.333
 6218TIP3   OH218659   0.701   4.315   1.650
 6218TIP3    H118660   0.711   4.298   1.557
 6218TIP3    H218661   0.682   4.408   1.657
 6219TIP3   OH218662   5.157   0.029   0.744
 6219TIP3    H118663   5.121   0.083   0.815
 6219TIP3    H218664   5.091   0.034   0.674
 6220TIP3   OH218665   2.372   3.907   0.487
 6220TIP3    H118666   2.346   3.837   0.547
 6220TIP3    H218667   2.427   3.864   0.422
 6221TIP3   OH218668   4.567   0.456   4.242
 6221TIP3    H118669   4.654   0.476   4.277
 6221TIP3    H218670   4.576   0.461   4.147
 6222TIP3   OH218671   1.055   0.150   3.286
 6222TIP3    H118672   1.078   0.166   3.377
 6222TIP3    H218673   1.126   0.093   3.254
 6223TIP3   OH218674   1.385   5.910   3.388
 6223TIP3    H118675   1.443   5.835   3.403
 6223TIP3    H218676   1.443   5.979   3.356
 6224TIP3   OH218677   6.302   2.714   4.996
 6224TIP3    H118678   6.281   2.630   5.037
 6224TIP3    H218679   6.224   2.768   5.012
 6225TIP3   OH218680   1.835   3.052   3.327
 6225TIP3    H118681   1.845   3.057   3.422
 6225TIP3    H218682   1.867   2.964   3.304
 6226TIP3   OH218683   2.355   0.386   1.065
 6226TIP3    H118684   2.364   0.477   1.095
 6226TIP3    H218685   2.358   0.392   0.969
 6227TIP3   OH218686   4.660   2.901   4.473
 6227TIP3    H118687   4.609   2.846   4.413
 6227TIP3    H218688   4.594   2.949   4.524
 6228TIP3   OH218689   2.756   1.308   0.004
 6228TIP3    H118690   2.731   1.300  -0.088
 6228TIP3    H218691   2.673   1.313   0.051
 6229TIP3   OH218692   1.507   4.834   4.225
 6229TIP3    H118693   1.540   4.749   4.197
 6229TIP3    H218694   1.431   4.849   4.168
 6230TIP3   OH218695   3.495   4.657   1.124
 6230TIP3    H118696   3.467   4.728   1.182
 6230TIP3    H218697   3.439   4.666   1.047
 6231TIP3   OH218698   1.446   5.717   2.209
 6231TIP3    H118699   1.501   5.791   2.181
 6231TIP3    H218700   1.480   5.643   2.160
 6232TIP3   OH218701   1.026   0.866   3.802
 6232TIP3    H118702   1.013   0.793   3.741
 6232TIP3    H218703   0.961   0.852   3.871
 6233TIP3   OH218704   1.789   4.140   2.301
 6233TIP3    H118705   1.758   4.168   2.215
 6233TIP3    H218706   1.756   4.051   2.311
 6234TIP3   OH218707   3.388   5.243   1.762
 6234TIP3    H118708   3.355   5.163   1.802
 6234TIP3    H218709   3.356   5.313   1.819
 6235TIP3   OH218710   0.936   1.159   1.591
 6235TIP3    H118711   0.843   1.162   1.615
 6235TIP3    H218712   0.952   1.067   1.569
 6236TIP3   OH218713   3.078   0.173   0.462
 6236TIP3    H118714   3.107   0.093   0.505
 6236TIP3    H218715   3.065   0.235   0.534
 6237TIP3   OH218716   5.409   4.161   1.160
 6237TIP3    H118717   5.337   4.189   1.104
 6237TIP3    H218718   5.413   4.228   1.229
 6238TIP3   OH218719   6.288   0.851   2.390
 6238TIP3    H118720   6.223   0.919   2.369
 6238TIP3    H218721   6.281   0.839   2.484
 6239TIP3   OH218722   5.162   0.438   1.727
 6239TIP3    H118723   5.220   0.485   1.667
 6239TIP3    H218724   5.093   0.501   1.749
 6240TIP3   OH218725   1.676   3.193   4.320
 6240TIP3    H118726   1.704   3.107   4.289
 6240TIP3    H218727   1.641   3.177   4.408
 6241TIP3   OH218728   1.430   1.496   1.166
 6241TIP3    H118729   1.367   1.467   1.231
 6241TIP3    H218730   1.414   1.441   1.090
 6242TIP3   OH218731   3.006   1.757   4.543
 6242TIP3    H118732   2.932   1.703   4.516
 6242TIP3    H218733   2.970   1.816   4.609
 6243TIP3   OH218734   0.804   0.194   4.670
 6243TIP3    H118735   0.893   0.215   4.696
 6243TIP3    H218736   0.776   0.268   4.617
 6244TIP3   OH218737   5.343   2.544   3.364
 6244TIP3    H118738   5.416   2.602   3.388
 6244TIP3    H218739   5.265   2.594   3.387
 6245TIP3   OH218740   2.292   3.408   4.860
 6245TIP3    H118741   2.262   3.342   4.797
 6245TIP3    H218742   2.232   3.482   4.847
 6246TIP3   OH218743   1.697   0.600   0.458
 6246TIP3    H118744   1.726   0.553   0.380
 6246TIP3    H218745   1.778   0.618   0.507
 6247TIP3   OH218746   2.020   3.968   1.214
 6247TIP3    H118747   2.022   4.043   1.273
 6247TIP3    H218748   2.002   4.005   1.128
 6248TIP3   OH218749   2.699   0.139   2.875
 6248TIP3    H118750   2.745   0.072   2.925
 6248TIP3    H218751   2.693   0.213   2.935
 6249TIP3   OH218752   3.278   2.098   2.112
 6249TIP3    H118753   3.348   2.131   2.168
 6249TIP3    H218754   3.325   2.055   2.039
 6250TIP3   OH218755   4.087   1.572   3.778
 6250TIP3    H118756   4.051   1.560   3.690
 6250TIP3    H218757   4.162   1.630   3.766
 6251TIP3   OH218758   4.681   2.734   4.046
 6251TIP3    H118759   4.682   2.646   4.082
 6251TIP3    H218760   4.604   2.736   3.989
 6252TIP3   OH218761   5.640   2.123   4.080
 6252TIP3    H118762   5.662   2.030   4.083
 6252TIP3    H218763   5.594   2.139   4.162
 6253TIP3   OH218764   3.584   3.860   4.772
 6253TIP3    H118765   3.603   3.954   4.773
 6253TIP3    H218766   3.553   3.844   4.683
 6254TIP3   OH218767   6.043   1.898   4.519
 6254TIP3    H118768   6.025   1.937   4.433
 6254TIP3    H218769   6.132   1.863   4.511
 6255TIP3   OH218770   3.112   5.229   4.033
 6255TIP3    H118771   3.069   5.278   4.104
 6255TIP3    H218772   3.045   5.223   3.965
 6256TIP3   OH218773   4.600   4.343   0.176
 6256TIP3    H118774   4.509   4.366   0.159
 6256TIP3    H218775   4.634   4.315   0.091
 6257TIP3   OH218776   0.525   3.163   4.628
 6257TIP3    H118777   0.559   3.227   4.691
 6257TIP3    H218778   0.602   3.132   4.581
 6258TIP3   OH218779   1.039   1.871   2.207
 6258TIP3    H118780   0.988   1.901   2.282
 6258TIP3    H218781   0.977   1.822   2.154
 6259TIP3   OH218782   1.808   1.881   1.746
 6259TIP3    H118783   1.892   1.925   1.738
 6259TIP3    H218784   1.811   1.810   1.681
 6260TIP3   OH218785   2.750   1.220   4.922
 6260TIP3    H118786   2.821   1.164   4.956
 6260TIP3    H218787   2.795   1.296   4.886
 6261TIP3   OH218788   3.715   1.711   1.546
 6261TIP3    H118789   3.788   1.651   1.535
 6261TIP3    H218790   3.667   1.705   1.464
 6262TIP3   OH218791   2.029   5.108   1.101
 6262TIP3    H118792   1.973   5.157   1.162
 6262TIP3    H218793   1.994   5.019   1.102
 6263TIP3   OH218794   3.520   3.082   3.108
 6263TIP3    H118795   3.454   3.152   3.106
 6263TIP3    H218796   3.598   3.124   3.146
 6264TIP3   OH218797   0.556   4.534   1.257
 6264TIP3    H118798   0.632   4.478   1.273
 6264TIP3    H218799   0.491   4.504   1.320
 6265TIP3   OH218800   5.732   0.301   0.923
 6265TIP3    H118801   5.753   0.283   0.831
 6265TIP3    H218802   5.806   0.266   0.972
 6266TIP3   OH218803   0.504   5.537   0.128
 6266TIP3    H118804   0.588   5.519   0.086
 6266TIP3    H218805   0.526   5.557   0.219
 6267TIP3   OH218806   2.133   4.671   2.144
 6267TIP3    H118807   2.172   4.609   2.205
 6267TIP3    H218808   2.039   4.651   2.145
 6268TIP3   OH218809   3.861   4.439   2.279
 6268TIP3    H118810   3.838   4.532   2.287
 6268TIP3    H218811   3.909   4.433   2.197
 6269TIP3   OH218812   4.110   2.137   2.747
 6269TIP3    H118813   4.136   2.229   2.756
 6269TIP3    H218814   4.060   2.119   2.827
 6270TIP3   OH218815   2.754   4.652   4.727
 6270TIP3    H118816   2.826   4.589   4.727
 6270TIP3    H218817   2.771   4.707   4.650
 6271TIP3   OH218818   5.848   3.169   5.108
 6271TIP3    H118819   5.809   3.114   5.041
 6271TIP3    H218820   5.879   3.247   5.062
 6272TIP3   OH218821   3.325   3.046   3.767
 6272TIP3    H118822   3.349   3.117   3.826
 6272TIP3    H218823   3.335   3.083   3.679
 6273TIP3   OH218824   5.861   5.879   2.229
 6273TIP3    H118825   5.853   5.839   2.142
 6273TIP3    H218826   5.771   5.901   2.253
 6274TIP3   OH218827   4.748   3.742   1.422
 6274TIP3    H118828   4.758   3.814   1.359
 6274TIP3    H218829   4.804   3.767   1.495
 6275TIP3   OH218830   4.471   3.112   3.983
 6275TIP3    H118831   4.562   3.091   3.963
 6275TIP3    H218832   4.452   3.189   3.929
 6276TIP3   OH218833   5.798   2.625   2.207
 6276TIP3    H118834   5.723   2.566   2.208
 6276TIP3    H218835   5.872   2.570   2.236
 6277TIP3   OH218836   3.992   1.216   1.639
 6277TIP3    H118837   3.916   1.271   1.625
 6277TIP3    H218838   3.963   1.150   1.701
 6278TIP3   OH218839   1.976   5.407   2.567
 6278TIP3    H118840   1.996   5.315   2.584
 6278TIP3    H218841   1.893   5.423   2.612
 6279TIP3   OH218842   4.768   3.168   0.690
 6279TIP3    H118843   4.678   3.141   0.706
 6279TIP3    H218844   4.786   3.139   0.601
 6280TIP3   OH218845   3.746   4.687   4.381
 6280TIP3    H118846   3.832   4.716   4.410
 6280TIP3    H218847   3.693   4.767   4.376
 6281TIP3   OH218848   1.676   0.911   1.526
 6281TIP3    H118849   1.635   0.996   1.513
 6281TIP3    H218850   1.653   0.861   1.447
 6282TIP3   OH218851   3.182   2.730   0.192
 6282TIP3    H118852   3.277   2.738   0.179
 6282TIP3    H218853   3.150   2.690   0.111
 6283TIP3   OH218854   5.708   0.009   3.552
 6283TIP3    H118855   5.778   0.008   3.487
 6283TIP3    H218856   5.647  -0.058   3.522
 6284TIP3   OH218857   4.649   5.014   1.016
 6284TIP3    H118858   4.703   5.049   1.086
 6284TIP3    H218859   4.681   5.058   0.937
 6285TIP3   OH218860   1.637   0.229   1.697
 6285TIP3    H118861   1.568   0.184   1.745
 6285TIP3    H218862   1.708   0.165   1.691
 6286TIP3   OH218863   4.255   4.391   4.880
 6286TIP3    H118864   4.220   4.344   4.956
 6286TIP3    H218865   4.261   4.324   4.811
 6287TIP3   OH218866   0.790   2.728   1.357
 6287TIP3    H118867   0.882   2.722   1.331
 6287TIP3    H218868   0.793   2.746   1.451
 6288TIP3   OH218869   5.424   2.819   5.069
 6288TIP3    H118870   5.500   2.781   5.025
 6288TIP3    H218871   5.383   2.746   5.115
 6289TIP3   OH218872   0.300   2.690   1.877
 6289TIP3    H118873   0.250   2.623   1.831
 6289TIP3    H218874   0.246   2.768   1.873
 6290TIP3   OH218875   2.202   5.283   4.945
 6290TIP3    H118876   2.189   5.204   4.998
 6290TIP3    H218877   2.182   5.256   4.856
 6291TIP3   OH218878   4.097   5.053   2.030
 6291TIP3    H118879   4.125   5.129   2.082
 6291TIP3    H218880   4.125   5.073   1.941
 6292TIP3   OH218881   4.944   1.521   2.849
 6292TIP3    H118882   4.970   1.598   2.799
 6292TIP3    H218883   4.993   1.527   2.931
 6293TIP3   OH218884   4.924   1.838   3.555
 6293TIP3    H118885   4.839   1.838   3.512
 6293TIP3    H218886   4.916   1.770   3.623
 6294TIP3   OH218887   4.504   5.619   2.034
 6294TIP3    H118888   4.479   5.637   2.125
 6294TIP3    H218889   4.426   5.639   1.983
 6295TIP3   OH218890   2.288   1.726   4.938
 6295TIP3    H118891   2.343   1.650   4.958
 6295TIP3    H218892   2.199   1.692   4.937
 6296TIP3   OH218893   0.884   1.264   4.229
 6296TIP3    H118894   0.792   1.288   4.237
 6296TIP3    H218895   0.890   1.222   4.143
 6297TIP3   OH218896   1.970   4.574   0.672
 6297TIP3    H118897   1.923   4.500   0.634
 6297TIP3    H218898   1.930   4.651   0.633
 6298TIP3   OH218899   4.214   4.970   3.453
 6298TIP3    H118900   4.153   4.919   3.399
 6298TIP3    H218901   4.159   5.035   3.497
 6299TIP3   OH218902   3.816   2.075   2.978
 6299TIP3    H118903   3.835   2.022   2.901
 6299TIP3    H218904   3.899   2.118   2.999
 6300TIP3   OH218905   3.486   3.581   2.607
 6300TIP3    H118906   3.531   3.523   2.546
 6300TIP3    H218907   3.431   3.524   2.660
 6301TIP3   OH218908   5.503   0.889   3.818
 6301TIP3    H118909   5.429   0.945   3.795
 6301TIP3    H218910   5.494   0.813   3.762
 6302TIP3   OH218911   0.435   1.865   0.702
 6302TIP3    H118912   0.366   1.802   0.685
 6302TIP3    H218913   0.506   1.841   0.642
 6303TIP3   OH218914   0.407   5.077   4.887
 6303TIP3    H118915   0.355   5.000   4.862
 6303TIP3    H218916   0.485   5.071   4.831
 6304TIP3   OH218917   3.577   0.070   0.135
 6304TIP3    H118918   3.617   0.071   0.049
 6304TIP3    H218919   3.532   0.154   0.142
 6305TIP3   OH218920   0.983   5.881   3.869
 6305TIP3    H118921   0.938   5.850   3.790
 6305TIP3    H218922   0.931   5.846   3.941
 6306TIP3   OH218923   1.768   4.027   3.334
 6306TIP3    H118924   1.747   3.963   3.402
 6306TIP3    H218925   1.862   4.045   3.345
 6307TIP3   OH218926   5.929   1.329   0.055
 6307TIP3    H118927   5.948   1.366   0.142
 6307TIP3    H218928   5.923   1.235   0.071
 6308TIP3   OH218929   0.612   4.247   4.694
 6308TIP3    H118930   0.535   4.291   4.730
 6308TIP3    H218931   0.676   4.249   4.765
 6309TIP3   OH218932   0.561   0.070   3.909
 6309TIP3    H118933   0.465   0.071   3.909
 6309TIP3    H218934   0.585   0.114   3.828
 6310TIP3   OH218935   4.995   1.590   2.350
 6310TIP3    H118936   5.076   1.639   2.363
 6310TIP3    H218937   5.021   1.511   2.302
 6311TIP3   OH218938   2.255   5.927   0.974
 6311TIP3    H118939   2.308   5.993   0.930
 6311TIP3    H218940   2.165   5.959   0.965
 6312TIP3   OH218941   4.822   3.968   1.245
 6312TIP3    H118942   4.769   4.045   1.223
 6312TIP3    H218943   4.804   3.906   1.175
 6313TIP3   OH218944   4.757   1.191   1.185
 6313TIP3    H118945   4.716   1.269   1.148
 6313TIP3    H218946   4.796   1.146   1.110
 6314TIP3   OH218947   2.720   4.111   2.110
 6314TIP3    H118948   2.652   4.073   2.054
 6314TIP3    H218949   2.763   4.035   2.150
 6315TIP3   OH218950   1.820   5.995   1.865
 6315TIP3    H118951   1.825   5.906   1.901
 6315TIP3    H218952   1.899   6.004   1.812
 6316TIP3   OH218953   6.103   5.526   3.988
 6316TIP3    H118954   6.098   5.589   4.060
 6316TIP3    H218955   6.090   5.579   3.909
 6317TIP3   OH218956   1.570   5.308   3.608
 6317TIP3    H118957   1.658   5.275   3.624
 6317TIP3    H218958   1.580   5.369   3.534
 6318TIP3   OH218959   3.442   4.294   4.904
 6318TIP3    H118960   3.370   4.350   4.875
 6318TIP3    H218961   3.500   4.289   4.828
 6319TIP3   OH218962   3.319   4.876   5.131
 6319TIP3    H118963   3.353   4.933   5.062
 6319TIP3    H218964   3.227   4.900   5.138
 6320TIP3   OH218965   1.442   0.401   3.182
 6320TIP3    H118966   1.479   0.487   3.202
 6320TIP3    H218967   1.516   0.341   3.187
 6321TIP3   OH218968   0.055   3.806   1.886
 6321TIP3    H118969   0.102   3.734   1.843
 6321TIP3    H218970   0.101   3.885   1.857
 6322TIP3   OH218971   4.809   2.798   3.050
 6322TIP3    H118972   4.903   2.787   3.034
 6322TIP3    H218973   4.768   2.786   2.964
 6323TIP3   OH218974   5.723   4.118   1.127
 6323TIP3    H118975   5.655   4.055   1.151
 6323TIP3    H218976   5.685   4.204   1.149
 6324TIP3   OH218977   0.255   3.432   0.455
 6324TIP3    H118978   0.183   3.370   0.468
 6324TIP3    H218979   0.218   3.500   0.399
 6325TIP3   OH218980   2.805   1.688   2.274
 6325TIP3    H118981   2.745   1.613   2.270
 6325TIP3    H218982   2.887   1.651   2.306
 6326TIP3   OH218983   2.834   4.412   3.212
 6326TIP3    H118984   2.855   4.378   3.125
 6326TIP3    H218985   2.760   4.472   3.197
 6327TIP3   OH218986   4.844   4.304   1.858
 6327TIP3    H118987   4.888   4.286   1.774
 6327TIP3    H218988   4.906   4.359   1.906
 6328TIP3   OH218989   5.209   2.672   4.810
 6328TIP3    H118990   5.273   2.616   4.853
 6328TIP3    H218991   5.161   2.714   4.882
 6329TIP3   OH218992   4.085   5.272   1.438
 6329TIP3    H118993   4.022   5.250   1.370
 6329TIP3    H218994   4.078   5.367   1.448
 6330TIP3   OH218995   1.982   4.583   1.659
 6330TIP3    H118996   2.061   4.595   1.606
 6330TIP3    H218997   1.961   4.490   1.650
 6331TIP3   OH218998   4.077   1.998   3.249
 6331TIP3    H118999   3.990   1.962   3.237
 6331TIP3    H219000   4.124   1.931   3.300
 6332TIP3   OH219001   3.844   3.277   0.368
 6332TIP3    H119002   3.792   3.217   0.423
 6332TIP3    H219003   3.809   3.265   0.280
 6333TIP3   OH219004   0.877   2.377   1.728
 6333TIP3    H119005   0.894   2.286   1.753
 6333TIP3    H219006   0.818   2.410   1.796
 6334TIP3   OH219007   5.531   0.225   2.524
 6334TIP3    H119008   5.549   0.138   2.489
 6334TIP3    H219009   5.537   0.215   2.619
 6335TIP3   OH219010   4.565   1.259   2.851
 6335TIP3    H119011   4.592   1.223   2.766
 6335TIP3    H219012   4.571   1.353   2.840
 6336TIP3   OH219013   0.834   4.150   4.205
 6336TIP3    H119014   0.789   4.178   4.284
 6336TIP3    H219015   0.897   4.084   4.235
 6337TIP3   OH219016   1.939   4.262   1.671
 6337TIP3    H119017   1.970   4.249   1.761
 6337TIP3    H219018   1.976   4.189   1.622
 6338TIP3   OH219019   2.057   4.821   4.926
 6338TIP3    H119020   2.134   4.838   4.981
 6338TIP3    H219021   1.995   4.777   4.984
 6339TIP3   OH219022   4.427   5.567   3.084
 6339TIP3    H119023   4.347   5.529   3.048
 6339TIP3    H219024   4.422   5.660   3.062
 6340TIP3   OH219025   2.509   3.847   0.827
 6340TIP3    H119026   2.540   3.795   0.753
 6340TIP3    H219027   2.515   3.787   0.902
 6341TIP3   OH219028   5.945   2.194   2.967
 6341TIP3    H119029   5.917   2.277   3.006
 6341TIP3    H219030   6.016   2.217   2.907
 6342TIP3   OH219031   3.760   0.233   3.183
 6342TIP3    H119032   3.740   0.321   3.215
 6342TIP3    H219033   3.742   0.176   3.258
 6343TIP3   OH219034   2.832   0.153   4.728
 6343TIP3    H119035   2.836   0.078   4.786
 6343TIP3    H219036   2.921   0.190   4.730
 6344TIP3   OH219037   5.419   0.714   4.203
 6344TIP3    H119038   5.385   0.625   4.203
 6344TIP3    H219039   5.507   0.707   4.165
 6345TIP3   OH219040   3.789   4.992   4.487
 6345TIP3    H119041   3.706   4.978   4.441
 6345TIP3    H219042   3.766   4.994   4.579
 6346TIP3   OH219043   0.127   5.031   4.719
 6346TIP3    H119044   0.110   4.968   4.789
 6346TIP3    H219045   0.198   4.992   4.669
 6347TIP3   OH219046   3.101   5.813   0.474
 6347TIP3    H119047   3.194   5.797   0.455
 6347TIP3    H219048   3.076   5.882   0.412
 6348TIP3   OH219049   1.330   1.844   2.617
 6348TIP3    H119050   1.283   1.814   2.540
 6348TIP3    H219051   1.404   1.784   2.626
 6349TIP3   OH219052   4.991   1.640   4.383
 6349TIP3    H119053   4.919   1.693   4.350
 6349TIP3    H219054   4.952   1.587   4.452
 6350TIP3   OH219055   1.166   2.724   0.092
 6350TIP3    H119056   1.098   2.739   0.158
 6350TIP3    H219057   1.191   2.632   0.104
 6351TIP3   OH219058   0.571   0.867   2.770
 6351TIP3    H119059   0.571   0.835   2.679
 6351TIP3    H219060   0.488   0.913   2.779
 6352TIP3   OH219061   3.017   4.355   2.474
 6352TIP3    H119062   3.042   4.423   2.537
 6352TIP3    H219063   3.030   4.396   2.389
 6353TIP3   OH219064   3.031   5.677   4.287
 6353TIP3    H119065   2.975   5.705   4.214
 6353TIP3    H219066   3.114   5.653   4.246
 6354TIP3   OH219067   4.461   4.486   2.506
 6354TIP3    H119068   4.452   4.539   2.427
 6354TIP3    H219069   4.553   4.459   2.507
 6355TIP3   OH219070   4.107   4.105   3.546
 6355TIP3    H119071   4.039   4.121   3.480
 6355TIP3    H219072   4.059   4.084   3.626
 6356TIP3   OH219073   4.828   0.514   5.161
 6356TIP3    H119074   4.922   0.513   5.178
 6356TIP3    H219075   4.799   0.424   5.180
 6357TIP3   OH219076   5.621   1.659   0.818
 6357TIP3    H119077   5.665   1.646   0.735
 6357TIP3    H219078   5.541   1.706   0.796
 6358TIP3   OH219079   2.591   0.266   4.808
 6358TIP3    H119080   2.616   0.354   4.835
 6358TIP3    H219081   2.674   0.221   4.792
 6359TIP3   OH219082   0.359   4.985   4.564
 6359TIP3    H119083   0.435   5.011   4.616
 6359TIP3    H219084   0.394   4.971   4.476
 6360TIP3   OH219085   2.192   4.019   4.607
 6360TIP3    H119086   2.128   4.055   4.668
 6360TIP3    H219087   2.235   4.096   4.569
 6361TIP3   OH219088   1.763   0.860   4.605
 6361TIP3    H119089   1.795   0.939   4.561
 6361TIP3    H219090   1.674   0.883   4.633
 6362TIP3   OH219091   1.834   1.063   4.893
 6362TIP3    H119092   1.903   1.003   4.865
 6362TIP3    H219093   1.797   1.097   4.812
 6363TIP3   OH219094   0.642   4.950   3.550
 6363TIP3    H119095   0.707   4.902   3.602
 6363TIP3    H219096   0.638   4.902   3.468
 6364TIP3   OH219097   5.450   1.583   4.666
 6364TIP3    H119098   5.510   1.522   4.622
 6364TIP3    H219099   5.383   1.527   4.705
 6365TIP3   OH219100   2.624   1.750   0.301
 6365TIP3    H119101   2.708   1.788   0.273
 6365TIP3    H219102   2.562   1.780   0.235
 6366TIP3   OH219103   5.078   5.263   4.611
 6366TIP3    H119104   5.099   5.224   4.696
 6366TIP3    H219105   5.163   5.280   4.571
 6367TIP3   OH219106   0.651   5.453   2.373
 6367TIP3    H119107   0.570   5.476   2.417
 6367TIP3    H219108   0.624   5.415   2.290
 6368TIP3   OH219109   0.578   1.198   2.938
 6368TIP3    H119110   0.593   1.290   2.916
 6368TIP3    H219111   0.634   1.149   2.878
 6369TIP3   OH219112   4.548   0.957   1.135
 6369TIP3    H119113   4.619   0.963   1.198
 6369TIP3    H219114   4.591   0.937   1.051
 6370TIP3   OH219115   5.699   1.382   1.774
 6370TIP3    H119116   5.718   1.346   1.687
 6370TIP3    H219117   5.765   1.342   1.831
 6371TIP3   OH219118   5.373   3.304   0.127
 6371TIP3    H119119   5.434   3.230   0.125
 6371TIP3    H219120   5.413   3.367   0.187
 6372TIP3   OH219121   2.642   1.678   1.068
 6372TIP3    H119122   2.565   1.685   1.124
 6372TIP3    H219123   2.693   1.758   1.087
 6373TIP3   OH219124   1.814   4.103   0.385
 6373TIP3    H119125   1.810   4.051   0.465
 6373TIP3    H219126   1.889   4.068   0.337
 6374TIP3   OH219127   6.056   1.748   1.520
 6374TIP3    H119128   5.978   1.801   1.506
 6374TIP3    H219129   6.106   1.796   1.586
 6375TIP3   OH219130   3.913   4.380   3.353
 6375TIP3    H119131   4.007   4.372   3.369
 6375TIP3    H219132   3.906   4.389   3.258
 6376TIP3   OH219133   0.104   4.434   0.506
 6376TIP3    H119134   0.171   4.392   0.452
 6376TIP3    H219135   0.023   4.390   0.482
 6377TIP3   OH219136   2.539   4.833   1.718
 6377TIP3    H119137   2.572   4.882   1.793
 6377TIP3    H219138   2.606   4.844   1.650
 6378TIP3   OH219139   4.982   4.274   1.627
 6378TIP3    H119140   4.950   4.247   1.541
 6378TIP3    H219141   5.070   4.235   1.633
 6379TIP3   OH219142   1.166   5.163   0.334
 6379TIP3    H119143   1.194   5.172   0.425
 6379TIP3    H219144   1.199   5.077   0.307
 6380TIP3   OH219145   1.816   5.852   0.811
 6380TIP3    H119146   1.727   5.885   0.800
 6380TIP3    H219147   1.807   5.757   0.807
 6381TIP3   OH219148   1.431   5.864   1.900
 6381TIP3    H119149   1.345   5.875   1.940
 6381TIP3    H219150   1.455   5.773   1.919
 6382TIP3   OH219151   5.539   0.206   2.031
 6382TIP3    H119152   5.474   0.276   2.035
 6382TIP3    H219153   5.611   0.237   2.086
 6383TIP3   OH219154   0.650   1.494   4.559
 6383TIP3    H119155   0.658   1.399   4.571
 6383TIP3    H219156   0.739   1.523   4.537
 6384TIP3   OH219157   6.083   3.227   3.916
 6384TIP3    H119158   6.128   3.305   3.885
 6384TIP3    H219159   6.125   3.155   3.870
 6385TIP3   OH219160   5.960   0.652   1.427
 6385TIP3    H119161   5.900   0.648   1.353
 6385TIP3    H219162   5.978   0.745   1.439
 6386TIP3   OH219163   6.133   1.332   5.143
 6386TIP3    H119164   6.216   1.378   5.131
 6386TIP3    H219165   6.097   1.368   5.224
 6387TIP3   OH219166   4.970   5.514   4.582
 6387TIP3    H119167   5.053   5.545   4.618
 6387TIP3    H219168   4.983   5.420   4.571
 6388TIP3   OH219169   2.674   0.260   1.741
 6388TIP3    H119170   2.624   0.180   1.724
 6388TIP3    H219171   2.703   0.289   1.655
 6389TIP3   OH219172   3.901   1.765   0.350
 6389TIP3    H119173   3.935   1.772   0.261
 6389TIP3    H219174   3.976   1.781   0.407
 6390TIP3   OH219175   4.450   0.338   3.192
 6390TIP3    H119176   4.378   0.288   3.155
 6390TIP3    H219177   4.492   0.278   3.254
 6391TIP3   OH219178   0.347   0.768   1.547
 6391TIP3    H119179   0.388   0.816   1.475
 6391TIP3    H219180   0.384   0.680   1.541
 6392TIP3   OH219181   4.279   3.803   4.808
 6392TIP3    H119182   4.351   3.791   4.747
 6392TIP3    H219183   4.292   3.891   4.843
 6393TIP3   OH219184   5.582   3.608   3.652
 6393TIP3    H119185   5.566   3.515   3.638
 6393TIP3    H219186   5.677   3.617   3.647
 6394TIP3   OH219187   3.953   5.608   1.535
 6394TIP3    H119188   4.012   5.608   1.460
 6394TIP3    H219189   4.005   5.645   1.606
 6395TIP3   OH219190   1.393   3.372   1.596
 6395TIP3    H119191   1.386   3.282   1.564
 6395TIP3    H219192   1.384   3.364   1.691
 6396TIP3   OH219193   5.355   5.565   4.824
 6396TIP3    H119194   5.424   5.631   4.833
 6396TIP3    H219195   5.364   5.534   4.733
 6397TIP3   OH219196   3.328   2.301   1.200
 6397TIP3    H119197   3.258   2.352   1.159
 6397TIP3    H219198   3.288   2.217   1.220
 6398TIP3   OH219199   3.324   5.454   1.949
 6398TIP3    H119200   3.342   5.542   1.983
 6398TIP3    H219201   3.366   5.396   2.012
 6399TIP3   OH219202   3.547   4.382   2.965
 6399TIP3    H119203   3.522   4.470   2.991
 6399TIP3    H219204   3.532   4.380   2.870
 6400TIP3   OH219205   4.807   3.475   1.377
 6400TIP3    H119206   4.752   3.546   1.407
 6400TIP3    H219207   4.821   3.492   1.284
 6401TIP3   OH219208   4.781   1.817   4.311
 6401TIP3    H119209   4.740   1.877   4.249
 6401TIP3    H219210   4.777   1.863   4.395
 6402TIP3   OH219211   5.957   0.447   2.823
 6402TIP3    H119212   6.041   0.465   2.865
 6402TIP3    H219213   5.948   0.515   2.756
 6403TIP3   OH219214   3.919   2.546   1.438
 6403TIP3    H119215   3.961   2.470   1.477
 6403TIP3    H219216   3.988   2.590   1.388
 6404TIP3   OH219217   0.236   2.858   4.548
 6404TIP3    H119218   0.222   2.767   4.519
 6404TIP3    H219219   0.181   2.867   4.626
 6405TIP3   OH219220   5.500   0.133   1.739
 6405TIP3    H119221   5.535   0.087   1.816
 6405TIP3    H219222   5.528   0.080   1.665
 6406TIP3   OH219223   5.779   4.245   0.160
 6406TIP3    H119224   5.744   4.311   0.220
 6406TIP3    H219225   5.821   4.296   0.091
 6407TIP3   OH219226   1.037   4.565   1.236
 6407TIP3    H119227   0.977   4.607   1.297
 6407TIP3    H219228   1.008   4.593   1.150
 6408TIP3   OH219229   4.520   3.838   4.658
 6408TIP3    H119230   4.601   3.800   4.693
 6408TIP3    H219231   4.526   3.931   4.680
 6409TIP3   OH219232   0.064   2.073   1.812
 6409TIP3    H119233   0.027   2.148   1.857
 6409TIP3    H219234   0.141   2.106   1.767
 6410TIP3   OH219235   0.447   5.572   2.174
 6410TIP3    H119236   0.519   5.631   2.192
 6410TIP3    H219237   0.419   5.594   2.085
 6411TIP3   OH219238   1.870   2.604   0.857
 6411TIP3    H119239   1.876   2.535   0.922
 6411TIP3    H219240   1.864   2.559   0.773
 6412TIP3   OH219241   3.956   4.068   3.776
 6412TIP3    H119242   3.988   3.990   3.822
 6412TIP3    H219243   3.871   4.042   3.742
 6413TIP3   OH219244   5.072   4.928   4.031
 6413TIP3    H119245   5.125   4.976   4.094
 6413TIP3    H219246   5.135   4.874   3.983
 6414TIP3   OH219247   2.265   1.912   1.172
 6414TIP3    H119248   2.275   1.981   1.106
 6414TIP3    H219249   2.176   1.925   1.206
 6415TIP3   OH219250   6.353   4.628   3.630
 6415TIP3    H119251   6.275   4.634   3.575
 6415TIP3    H219252   6.321   4.645   3.719
 6416TIP3   OH219253   3.910   1.343   1.126
 6416TIP3    H119254   3.928   1.425   1.172
 6416TIP3    H219255   3.993   1.319   1.086
 6417TIP3   OH219256   3.755   3.196   2.349
 6417TIP3    H119257   3.763   3.286   2.317
 6417TIP3    H219258   3.661   3.178   2.348
 6418TIP3   OH219259   6.328   4.555   1.654
 6418TIP3    H119260   6.286   4.469   1.663
 6418TIP3    H219261   6.395   4.556   1.721
 6419TIP3   OH219262   5.905   3.804   2.066
 6419TIP3    H119263   5.892   3.898   2.080
 6419TIP3    H219264   5.992   3.798   2.026
 6420TIP3   OH219265   5.588   3.492   1.482
 6420TIP3    H119266   5.629   3.529   1.561
 6420TIP3    H219267   5.495   3.511   1.493
 6421TIP3   OH219268   1.259   4.926   4.105
 6421TIP3    H119269   1.265   4.855   4.040
 6421TIP3    H219270   1.237   5.004   4.054
 6422TIP3   OH219271   3.374   5.827   0.432
 6422TIP3    H119272   3.356   5.913   0.393
 6422TIP3    H219273   3.456   5.840   0.480
 6423TIP3   OH219274   1.286   2.480   3.356
 6423TIP3    H119275   1.294   2.575   3.350
 6423TIP3    H219276   1.360   2.446   3.306
 6424TIP3   OH219277   0.214   1.301   2.434
 6424TIP3    H119278   0.122   1.318   2.413
 6424TIP3    H219279   0.262   1.328   2.355
 6425TIP3   OH219280   1.546   0.211   2.449
 6425TIP3    H119281   1.579   0.212   2.359
 6425TIP3    H219282   1.625   0.215   2.503
 6426TIP3   OH219283   3.349   5.651   2.739
 6426TIP3    H119284   3.432   5.633   2.782
 6426TIP3    H219285   3.323   5.738   2.771
 6427TIP3   OH219286   3.384   0.382   4.710
 6427TIP3    H119287   3.468   0.339   4.721
 6427TIP3    H219288   3.405   0.475   4.701
 6428TIP3   OH219289   4.303   0.830   2.293
 6428TIP3    H119290   4.294   0.739   2.265
 6428TIP3    H219291   4.292   0.881   2.213
 6429TIP3   OH219292   0.273   3.997   0.037
 6429TIP3    H119293   0.276   4.091   0.054
 6429TIP3    H219294   0.351   3.979  -0.015
 6430TIP3   OH219295   0.382   1.380   4.785
 6430TIP3    H119296   0.390   1.304   4.727
 6430TIP3    H219297   0.304   1.361   4.838
 6431TIP3   OH219298   3.497   4.617  -0.021
 6431TIP3    H119299   3.528   4.566   0.054
 6431TIP3    H219300   3.572   4.619  -0.081
 6432TIP3   OH219301   1.905   2.428   2.427
 6432TIP3    H119302   1.961   2.479   2.486
 6432TIP3    H219303   1.961   2.357   2.397
 6433TIP3   OH219304   1.365   5.719   2.726
 6433TIP3    H119305   1.309   5.658   2.680
 6433TIP3    H219306   1.392   5.673   2.805
 6434TIP3   OH219307   1.184   4.767   1.417
 6434TIP3    H119308   1.233   4.744   1.496
 6434TIP3    H219309   1.189   4.689   1.362
 6435TIP3   OH219310   4.437   3.476   1.515
 6435TIP3    H119311   4.512   3.429   1.480
 6435TIP3    H219312   4.380   3.408   1.550
 6436TIP3   OH219313   6.019   1.444   1.704
 6436TIP3    H119314   6.020   1.386   1.627
 6436TIP3    H219315   5.957   1.513   1.681
 6437TIP3   OH219316   0.254   1.171   1.228
 6437TIP3    H119317   0.207   1.123   1.160
 6437TIP3    H219318   0.229   1.130   1.310
 6438TIP3   OH219319   2.796   5.970   0.584
 6438TIP3    H119320   2.780   5.896   0.526
 6438TIP3    H219321   2.718   5.975   0.640
 6439TIP3   OH219322   0.967   4.406   3.837
 6439TIP3    H119323   0.941   4.460   3.762
 6439TIP3    H219324   1.061   4.394   3.826
 6440TIP3   OH219325   4.524   1.000   2.403
 6440TIP3    H119326   4.441   0.956   2.418
 6440TIP3    H219327   4.531   1.064   2.474
 6441TIP3   OH219328   2.317   4.614   2.345
 6441TIP3    H119329   2.393   4.571   2.385
 6441TIP3    H219330   2.243   4.557   2.366
 6442TIP3   OH219331   0.328   3.620   2.362
 6442TIP3    H119332   0.294   3.539   2.401
 6442TIP3    H219333   0.265   3.641   2.294
 6443TIP3   OH219334   4.426   2.931   3.040
 6443TIP3    H119335   4.515   2.925   3.076
 6443TIP3    H219336   4.429   3.005   2.979
 6444TIP3   OH219337   1.357   2.470   2.083
 6444TIP3    H119338   1.290   2.507   2.140
 6444TIP3    H219339   1.315   2.393   2.044
 6445TIP3   OH219340   4.503   3.514   4.318
 6445TIP3    H119341   4.496   3.610   4.321
 6445TIP3    H219342   4.412   3.484   4.317
 6446TIP3   OH219343   2.979   4.961   1.206
 6446TIP3    H119344   2.917   4.957   1.279
 6446TIP3    H219345   3.029   5.042   1.221
 6447TIP3   OH219346   5.367   5.955   3.493
 6447TIP3    H119347   5.383   5.933   3.585
 6447TIP3    H219348   5.344   5.871   3.452
 6448TIP3   OH219349   4.172   3.618   0.344
 6448TIP3    H119350   4.118   3.573   0.278
 6448TIP3    H219351   4.150   3.574   0.426
 6449TIP3   OH219352   3.535   5.855   0.642
 6449TIP3    H119353   3.573   5.829   0.726
 6449TIP3    H219354   3.450   5.894   0.664
 6450TIP3   OH219355   3.531   0.360   0.214
 6450TIP3    H119356   3.486   0.388   0.134
 6450TIP3    H219357   3.463   0.363   0.281
 6451TIP3   OH219358   6.297   5.377   3.255
 6451TIP3    H119359   6.213   5.331   3.266
 6451TIP3    H219360   6.331   5.343   3.172
 6452TIP3   OH219361   5.465   2.309   1.522
 6452TIP3    H119362   5.418   2.372   1.467
 6452TIP3    H219363   5.554   2.309   1.487
 6453TIP3   OH219364   2.794   0.829   4.161
 6453TIP3    H119365   2.840   0.752   4.130
 6453TIP3    H219366   2.747   0.863   4.085
 6454TIP3   OH219367   0.963   4.276   2.480
 6454TIP3    H119368   0.971   4.345   2.415
 6454TIP3    H219369   0.881   4.296   2.527
 6455TIP3   OH219370   1.888   2.597   0.277
 6455TIP3    H119371   1.946   2.636   0.342
 6455TIP3    H219372   1.888   2.659   0.204
 6456TIP3   OH219373   6.183   4.971   2.904
 6456TIP3    H119374   6.207   4.917   2.979
 6456TIP3    H219375   6.261   4.971   2.849
 6457TIP3   OH219376   2.023   5.310   3.693
 6457TIP3    H119377   2.055   5.374   3.756
 6457TIP3    H219378   1.970   5.360   3.631
 6458TIP3   OH219379   4.522   5.535   4.432
 6458TIP3    H119380   4.549   5.443   4.428
 6458TIP3    H219381   4.604   5.583   4.444
 6459TIP3   OH219382   0.985   1.335   1.387
 6459TIP3    H119383   0.946   1.283   1.457
 6459TIP3    H219384   1.067   1.291   1.367
 6460TIP3   OH219385   5.100   1.246   0.160
 6460TIP3    H119386   5.066   1.300   0.089
 6460TIP3    H219387   5.032   1.249   0.227
 6461TIP3   OH219388   3.129   2.953   2.728
 6461TIP3    H119389   3.049   2.969   2.777
 6461TIP3    H219390   3.157   2.866   2.757
 6462TIP3   OH219391   0.858   0.017   2.980
 6462TIP3    H119392   0.881  -0.049   3.045
 6462TIP3    H219393   0.906  -0.008   2.901
 6463TIP3   OH219394   6.128   2.523   1.128
 6463TIP3    H119395   6.175   2.439   1.133
 6463TIP3    H219396   6.101   2.541   1.218
 6464TIP3   OH219397   1.904   2.743   4.192
 6464TIP3    H119398   1.959   2.696   4.255
 6464TIP3    H219399   1.952   2.737   4.110
 6465TIP3   OH219400   2.370   0.616   2.123
 6465TIP3    H119401   2.317   0.594   2.046
 6465TIP3    H219402   2.373   0.711   2.123
 6466TIP3   OH219403   4.019   0.533   4.769
 6466TIP3    H119404   4.031   0.500   4.680
 6466TIP3    H219405   3.931   0.505   4.793
 6467TIP3   OH219406   2.326   2.135   2.911
 6467TIP3    H119407   2.342   2.098   2.825
 6467TIP3    H219408   2.245   2.185   2.901
 6468TIP3   OH219409   1.310   2.025   4.556
 6468TIP3    H119410   1.224   2.054   4.527
 6468TIP3    H219411   1.294   1.982   4.641
 6469TIP3   OH219412   1.474   0.804   3.804
 6469TIP3    H119413   1.512   0.811   3.717
 6469TIP3    H219414   1.529   0.741   3.850
 6470TIP3   OH219415   0.422   3.017   1.236
 6470TIP3    H119416   0.436   2.956   1.164
 6470TIP3    H219417   0.367   3.086   1.199
 6471TIP3   OH219418   5.008   5.922   1.095
 6471TIP3    H119419   4.913   5.914   1.103
 6471TIP3    H219420   5.021   6.009   1.056
 6472TIP3   OH219421   0.309   4.349   0.777
 6472TIP3    H119422   0.333   4.358   0.685
 6472TIP3    H219423   0.214   4.345   0.777
 6473TIP3   OH219424   1.468   3.138   1.300
 6473TIP3    H119425   1.534   3.092   1.248
 6473TIP3    H219426   1.480   3.105   1.389
 6474TIP3   OH219427   4.210   0.952   2.061
 6474TIP3    H119428   4.198   1.046   2.077
 6474TIP3    H219429   4.121   0.916   2.060
 6475TIP3   OH219430   1.476   2.789   5.077
 6475TIP3    H119431   1.513   2.876   5.058
 6475TIP3    H219432   1.552   2.737   5.104
 6476TIP3   OH219433   2.047   1.542   4.972
 6476TIP3    H119434   2.023   1.452   4.991
 6476TIP3    H219435   2.042   1.550   4.877
 6477TIP3   OH219436   6.228   3.378   4.910
 6477TIP3    H119437   6.237   3.285   4.927
 6477TIP3    H219438   6.148   3.404   4.957
 6478TIP3   OH219439   0.547   2.983   3.636
 6478TIP3    H119440   0.611   3.053   3.620
 6478TIP3    H219441   0.526   2.949   3.549
 6479TIP3   OH219442   2.361   0.214   3.706
 6479TIP3    H119443   2.348   0.278   3.776
 6479TIP3    H219444   2.274   0.176   3.692
 6480TIP3   OH219445   0.989   1.104   4.025
 6480TIP3    H119446   0.953   1.017   4.011
 6480TIP3    H219447   1.027   1.129   3.941
 6481TIP3   OH219448   4.724   2.029   4.134
 6481TIP3    H119449   4.684   2.115   4.116
 6481TIP3    H219450   4.808   2.050   4.175
 6482TIP3   OH219451   5.271   4.571   1.088
 6482TIP3    H119452   5.323   4.597   1.012
 6482TIP3    H219453   5.328   4.589   1.163
 6483TIP3   OH219454   0.251   5.427   4.062
 6483TIP3    H119455   0.190   5.451   4.131
 6483TIP3    H219456   0.216   5.467   3.983
 6484TIP3   OH219457   5.861   0.265   2.515
 6484TIP3    H119458   5.801   0.190   2.513
 6484TIP3    H219459   5.804   0.340   2.534
 6485TIP3   OH219460   4.474   3.921   4.088
 6485TIP3    H119461   4.437   3.935   4.175
 6485TIP3    H219462   4.566   3.947   4.096
 6486TIP3   OH219463   3.797   3.134   0.607
 6486TIP3    H119464   3.810   3.213   0.660
 6486TIP3    H219465   3.859   3.070   0.643
 6487TIP3   OH219466   4.086   3.710   5.034
 6487TIP3    H119467   4.063   3.797   5.066
 6487TIP3    H219468   4.172   3.722   4.992
 6488TIP3   OH219469   4.560   1.639   2.023
 6488TIP3    H119470   4.516   1.724   2.023
 6488TIP3    H219471   4.628   1.647   2.090
 6489TIP3   OH219472   5.948   2.507   2.516
 6489TIP3    H119473   5.902   2.565   2.455
 6489TIP3    H219474   6.005   2.454   2.460
 6490TIP3   OH219475   3.869   2.882   3.027
 6490TIP3    H119476   3.847   2.907   3.117
 6490TIP3    H219477   3.909   2.795   3.036
 6491TIP3   OH219478   1.134   0.108   1.312
 6491TIP3    H119479   1.195   0.087   1.241
 6491TIP3    H219480   1.147   0.201   1.328
 6492TIP3   OH219481   4.755   4.413   3.752
 6492TIP3    H119482   4.763   4.390   3.660
 6492TIP3    H219483   4.777   4.507   3.755
 6493TIP3   OH219484   3.502   3.075   2.272
 6493TIP3    H119485   3.466   3.027   2.346
 6493TIP3    H219486   3.533   3.007   2.212
 6494TIP3   OH219487   1.866   4.589   2.943
 6494TIP3    H119488   1.884   4.673   2.985
 6494TIP3    H219489   1.898   4.599   2.854
 6495TIP3   OH219490   4.501   2.967   1.139
 6495TIP3    H119491   4.580   2.956   1.191
 6495TIP3    H219492   4.517   3.046   1.087
 6496TIP3   OH219493   5.277   1.581   3.016
 6496TIP3    H119494   5.349   1.522   2.993
 6496TIP3    H219495   5.258   1.629   2.935
 6497TIP3   OH219496   0.992   4.116   5.074
 6497TIP3    H119497   0.943   4.158   5.145
 6497TIP3    H219498   1.080   4.153   5.080
 6498TIP3   OH219499   2.149   4.093   0.450
 6498TIP3    H119500   2.229   4.044   0.473
 6498TIP3    H219501   2.118   4.051   0.370
 6499TIP3   OH219502   2.572   0.584   3.373
 6499TIP3    H119503   2.573   0.678   3.392
 6499TIP3    H219504   2.567   0.542   3.459
 6500TIP3   OH219505   2.368   2.920   2.184
 6500TIP3    H119506   2.331   2.960   2.105
 6500TIP3    H219507   2.450   2.881   2.153
 6501TIP3   OH219508   1.686   2.960   2.389
 6501TIP3    H119509   1.667   2.914   2.307
 6501TIP3    H219510   1.662   2.898   2.458
 6502TIP3   OH219511   4.766   3.088   0.420
 6502TIP3    H119512   4.686   3.063   0.374
 6502TIP3    H219513   4.808   3.153   0.364
 6503TIP3   OH219514   3.115   1.008   3.370
 6503TIP3    H119515   3.108   1.055   3.453
 6503TIP3    H219516   3.207   0.982   3.364
 6504TIP3   OH219517   3.134   5.269   0.223
 6504TIP3    H119518   3.205   5.264   0.287
 6504TIP3    H219519   3.175   5.241   0.141
 6505TIP3   OH219520   2.434   5.005   0.123
 6505TIP3    H119521   2.491   4.936   0.157
 6505TIP3    H219522   2.433   4.991   0.028
 6506TIP3   OH219523   5.400   2.336   3.812
 6506TIP3    H119524   5.344   2.315   3.737
 6506TIP3    H219525   5.466   2.267   3.812
 6507TIP3   OH219526   4.472   3.147   0.707
 6507TIP3    H119527   4.414   3.182   0.775
 6507TIP3    H219528   4.412   3.115   0.639
 6508TIP3   OH219529   3.380   0.859   2.896
 6508TIP3    H119530   3.456   0.913   2.873
 6508TIP3    H219531   3.348   0.828   2.811
 6509TIP3   OH219532   1.322   0.705   0.669
 6509TIP3    H119533   1.366   0.633   0.623
 6509TIP3    H219534   1.288   0.761   0.599
 6510TIP3   OH219535   3.720   0.616   1.458
 6510TIP3    H119536   3.683   0.612   1.546
 6510TIP3    H219537   3.793   0.677   1.465
 6511TIP3   OH219538   4.944   4.807   0.999
 6511TIP3    H119539   4.989   4.887   0.970
 6511TIP3    H219540   4.895   4.779   0.922
 6512TIP3   OH219541   2.985   2.054   3.830
 6512TIP3    H119542   2.941   2.137   3.848
 6512TIP3    H219543   2.966   2.036   3.738
 6513TIP3   OH219544   5.937   3.021   0.578
 6513TIP3    H119545   5.872   2.977   0.632
 6513TIP3    H219546   5.898   3.107   0.558
 6514TIP3   OH219547   4.881   5.203   3.462
 6514TIP3    H119548   4.834   5.258   3.399
 6514TIP3    H219549   4.820   5.192   3.534
 6515TIP3   OH219550   0.827   4.497   4.925
 6515TIP3    H119551   0.754   4.510   4.864
 6515TIP3    H219552   0.905   4.493   4.870
 6516TIP3   OH219553   3.924   4.004   0.308
 6516TIP3    H119554   3.867   3.932   0.336
 6516TIP3    H219555   3.967   4.033   0.389
 6517TIP3   OH219556   5.915   1.739   2.667
 6517TIP3    H119557   5.848   1.687   2.711
 6517TIP3    H219558   5.915   1.823   2.712
 6518TIP3   OH219559   3.862   0.088   0.193
 6518TIP3    H119560   3.796   0.078   0.124
 6518TIP3    H219561   3.942   0.114   0.146
 6519TIP3   OH219562   6.176   0.505   1.876
 6519TIP3    H119563   6.119   0.496   1.953
 6519TIP3    H219564   6.151   0.433   1.819
 6520TIP3   OH219565   2.421   4.918   3.252
 6520TIP3    H119566   2.417   5.007   3.287
 6520TIP3    H219567   2.496   4.919   3.192
 6521TIP3   OH219568   2.829   3.705   0.738
 6521TIP3    H119569   2.849   3.794   0.765
 6521TIP3    H219570   2.737   3.708   0.712
 6522TIP3   OH219571   3.896   2.320   2.106
 6522TIP3    H119572   3.821   2.369   2.139
 6522TIP3    H219573   3.858   2.249   2.054
 6523TIP3   OH219574   3.741   3.776   3.916
 6523TIP3    H119575   3.761   3.837   3.988
 6523TIP3    H219576   3.653   3.802   3.888
 6524TIP3   OH219577   1.608   0.865   1.218
 6524TIP3    H119578   1.686   0.812   1.237
 6524TIP3    H219579   1.555   0.810   1.161
 6525TIP3   OH219580   0.455   0.091   0.949
 6525TIP3    H119581   0.502   0.033   0.889
 6525TIP3    H219582   0.459   0.046   1.034
 6526TIP3   OH219583   1.191   3.088   4.189
 6526TIP3    H119584   1.125   3.033   4.229
 6526TIP3    H219585   1.274   3.044   4.208
 6527TIP3   OH219586   2.059   4.529   0.276
 6527TIP3    H119587   1.972   4.489   0.271
 6527TIP3    H219588   2.111   4.465   0.326
 6528TIP3   OH219589   4.516   1.595   0.070
 6528TIP3    H119590   4.508   1.683   0.034
 6528TIP3    H219591   4.453   1.592   0.142
 6529TIP3   OH219592   3.312   4.601   5.143
 6529TIP3    H119593   3.333   4.693   5.155
 6529TIP3    H219594   3.361   4.575   5.065
 6530TIP3   OH219595   5.620   2.287   0.740
 6530TIP3    H119596   5.670   2.206   0.748
 6530TIP3    H219597   5.680   2.348   0.698
 6531TIP3   OH219598   1.779   2.443   5.049
 6531TIP3    H119599   1.707   2.383   5.070
 6531TIP3    H219600   1.812   2.413   4.964
 6532TIP3   OH219601   0.792   5.255   4.916
 6532TIP3    H119602   0.794   5.163   4.942
 6532TIP3    H219603   0.880   5.273   4.883
 6533TIP3   OH219604   1.065   1.842   1.540
 6533TIP3    H119605   1.134   1.890   1.586
 6533TIP3    H219606   1.079   1.751   1.567
 6534TIP3   OH219607   1.109   1.242   1.025
 6534TIP3    H119608   1.151   1.244   1.111
 6534TIP3    H219609   1.107   1.333   0.997
 6535TIP3   OH219610   5.284   0.098   3.149
 6535TIP3    H119611   5.270   0.004   3.150
 6535TIP3    H219612   5.250   0.128   3.233
 6536TIP3   OH219613   4.046   5.577   4.004
 6536TIP3    H119614   4.042   5.549   3.912
 6536TIP3    H219615   4.072   5.499   4.052
 6537TIP3   OH219616   1.964   5.567   4.231
 6537TIP3    H119617   1.971   5.525   4.145
 6537TIP3    H219618   1.904   5.511   4.280
 6538TIP3   OH219619   2.105   2.308   1.557
 6538TIP3    H119620   2.117   2.214   1.548
 6538TIP3    H219621   2.013   2.322   1.535
 6539TIP3   OH219622   1.377   2.574   4.657
 6539TIP3    H119623   1.299   2.533   4.619
 6539TIP3    H219624   1.438   2.501   4.671
 6540TIP3   OH219625   1.285   3.752   5.018
 6540TIP3    H119626   1.345   3.826   5.024
 6540TIP3    H219627   1.342   3.675   5.010
 6541TIP3   OH219628   1.354   0.041   1.675
 6541TIP3    H119629   1.268   0.084   1.673
 6541TIP3    H219630   1.386   0.056   1.764
 6542TIP3   OH219631   1.862   3.837   3.894
 6542TIP3    H119632   1.831   3.780   3.965
 6542TIP3    H219633   1.954   3.853   3.914
 6543TIP3   OH219634   3.320   4.010   3.185
 6543TIP3    H119635   3.398   3.993   3.238
 6543TIP3    H219636   3.333   3.958   3.105
 6544TIP3   OH219637   0.512   2.123   0.997
 6544TIP3    H119638   0.563   2.177   0.936
 6544TIP3    H219639   0.489   2.183   1.067
 6545TIP3   OH219640   2.105   4.241   3.498
 6545TIP3    H119641   2.053   4.170   3.463
 6545TIP3    H219642   2.134   4.210   3.584
 6546TIP3   OH219643   1.104   1.905   1.208
 6546TIP3    H119644   1.064   1.992   1.214
 6546TIP3    H219645   1.035   1.845   1.237
 6547TIP3   OH219646   5.336   0.630   3.710
 6547TIP3    H119647   5.376   0.544   3.709
 6547TIP3    H219648   5.246   0.615   3.738
 6548TIP3   OH219649   0.950   1.547   0.560
 6548TIP3    H119650   0.928   1.531   0.652
 6548TIP3    H219651   1.027   1.493   0.544
 6549TIP3   OH219652   0.239   0.362   4.758
 6549TIP3    H119653   0.168   0.343   4.819
 6549TIP3    H219654   0.200   0.419   4.691
 6550TIP3   OH219655   2.119   4.098   1.563
 6550TIP3    H119656   2.190   4.093   1.499
 6550TIP3    H219657   2.163   4.110   1.647
 6551TIP3   OH219658   1.306   0.612   1.391
 6551TIP3    H119659   1.259   0.642   1.314
 6551TIP3    H219660   1.335   0.692   1.435
 6552TIP3   OH219661   0.116   5.467   2.526
 6552TIP3    H119662   0.159   5.550   2.506
 6552TIP3    H219663   0.125   5.415   2.446
 6553TIP3   OH219664   3.646   2.683   1.439
 6553TIP3    H119665   3.713   2.615   1.434
 6553TIP3    H219666   3.578   2.655   1.378
 6554TIP3   OH219667   3.155   1.990   4.037
 6554TIP3    H119668   3.095   1.952   4.101
 6554TIP3    H219669   3.099   2.010   3.962
 6555TIP3   OH219670   1.199   1.055   4.238
 6555TIP3    H119671   1.174   0.964   4.247
 6555TIP3    H219672   1.173   1.078   4.148
 6556TIP3   OH219673   1.843   1.627   4.396
 6556TIP3    H119674   1.757   1.614   4.356
 6556TIP3    H219675   1.877   1.707   4.356
 6557TIP3   OH219676   5.121   0.262   3.311
 6557TIP3    H119677   5.042   0.208   3.322
 6557TIP3    H219678   5.088   0.345   3.278
 6558TIP3   OH219679   1.072   4.363   4.103
 6558TIP3    H119680   1.047   4.377   4.012
 6558TIP3    H219681   1.029   4.281   4.127
 6559TIP3   OH219682   2.654   4.810   4.171
 6559TIP3    H119683   2.606   4.891   4.187
 6559TIP3    H219684   2.736   4.838   4.131
 6560TIP3   OH219685   1.331   2.480   2.963
 6560TIP3    H119686   1.332   2.486   2.868
 6560TIP3    H219687   1.363   2.564   2.994
 6561TIP3   OH219688   4.390   0.735   0.253
 6561TIP3    H119689   4.331   0.663   0.278
 6561TIP3    H219690   4.477   0.705   0.278
 6562TIP3   OH219691   5.538   4.595   1.752
 6562TIP3    H119692   5.597   4.525   1.780
 6562TIP3    H219693   5.506   4.634   1.833
 6563TIP3   OH219694   3.098   1.783   3.424
 6563TIP3    H119695   3.103   1.735   3.506
 6563TIP3    H219696   3.147   1.864   3.440
 6564TIP3   OH219697   0.282   4.512   3.152
 6564TIP3    H119698   0.365   4.495   3.196
 6564TIP3    H219699   0.237   4.427   3.151
 6565TIP3   OH219700   0.205   1.892   0.451
 6565TIP3    H119701   0.226   1.832   0.522
 6565TIP3    H219702   0.290   1.921   0.417
 6566TIP3   OH219703   5.051   1.491   0.408
 6566TIP3    H119704   5.121   1.519   0.350
 6566TIP3    H219705   5.091   1.422   0.462
 6567TIP3   OH219706   3.756   5.231   4.284
 6567TIP3    H119707   3.693   5.172   4.324
 6567TIP3    H219708   3.829   5.175   4.258
 6568TIP3   OH219709   1.099   4.077   4.222
 6568TIP3    H119710   1.068   4.075   4.132
 6568TIP3    H219711   1.182   4.125   4.218
 6569TIP3   OH219712   5.488   1.179   0.958
 6569TIP3    H119713   5.537   1.156   1.037
 6569TIP3    H219714   5.488   1.275   0.957
 6570TIP3   OH219715   5.471   2.833   1.261
 6570TIP3    H119716   5.555   2.875   1.279
 6570TIP3    H219717   5.407   2.886   1.308
 6571TIP3   OH219718   0.838   2.023   1.505
 6571TIP3    H119719   0.874   2.093   1.559
 6571TIP3    H219720   0.904   1.954   1.507
 6572TIP3   OH219721   4.260   2.255   1.603
 6572TIP3    H119722   4.348   2.273   1.570
 6572TIP3    H219723   4.273   2.219   1.690
 6573TIP3   OH219724   5.964   5.429   0.337
 6573TIP3    H119725   6.034   5.393   0.393
 6573TIP3    H219726   6.005   5.439   0.251
 6574TIP3   OH219727   2.436   3.359   2.609
 6574TIP3    H119728   2.499   3.392   2.544
 6574TIP3    H219729   2.351   3.389   2.578
 6575TIP3   OH219730   6.199   2.259   3.149
 6575TIP3    H119731   6.235   2.195   3.210
 6575TIP3    H219732   6.118   2.289   3.190
 6576TIP3   OH219733   2.085   2.051   2.686
 6576TIP3    H119734   1.999   2.013   2.705
 6576TIP3    H219735   2.146   1.999   2.738
 6577TIP3   OH219736   1.070   2.679   1.141
 6577TIP3    H119737   1.116   2.642   1.216
 6577TIP3    H219738   1.089   2.773   1.144
 6578TIP3   OH219739   0.727   1.472   1.724
 6578TIP3    H119740   0.708   1.411   1.795
 6578TIP3    H219741   0.663   1.451   1.656
 6579TIP3   OH219742   3.922   5.480   3.001
 6579TIP3    H119743   3.883   5.546   3.059
 6579TIP3    H219744   4.011   5.513   2.984
 6580TIP3   OH219745   2.982   3.975   4.218
 6580TIP3    H119746   2.902   3.993   4.168
 6580TIP3    H219747   2.958   3.993   4.309
 6581TIP3   OH219748  -0.003   6.000   3.696
 6581TIP3    H119749  -0.049   5.974   3.776
 6581TIP3    H219750   0.048   5.922   3.671
 6582TIP3   OH219751   5.305   5.539   3.717
 6582TIP3    H119752   5.249   5.613   3.742
 6582TIP3    H219753   5.248   5.482   3.665
 6583TIP3   OH219754   5.902   4.316   2.129
 6583TIP3    H119755   5.974   4.365   2.088
 6583TIP3    H219756   5.933   4.295   2.216
 6584TIP3   OH219757   2.812   2.555   0.801
 6584TIP3    H119758   2.729   2.582   0.840
 6584TIP3    H219759   2.865   2.635   0.800
 6585TIP3   OH219760   4.456   3.874  -0.011
 6585TIP3    H119761   4.544   3.895   0.020
 6585TIP3    H219762   4.411   3.840   0.066
 6586TIP3   OH219763   1.545   3.196   3.320
 6586TIP3    H119764   1.640   3.195   3.333
 6586TIP3    H219765   1.514   3.118   3.366
 6587TIP3   OH219766   5.866   1.231   0.713
 6587TIP3    H119767   5.948   1.187   0.735
 6587TIP3    H219768   5.826   1.251   0.797
 6588TIP3   OH219769   0.952   5.778   0.739
 6588TIP3    H119770   0.892   5.811   0.672
 6588TIP3    H219771   0.895   5.753   0.811
 6589TIP3   OH219772   4.703   4.392   2.572
 6589TIP3    H119773   4.771   4.420   2.511
 6589TIP3    H219774   4.746   4.326   2.627
 6590TIP3   OH219775   2.694   4.192   3.337
 6590TIP3    H119776   2.603   4.219   3.322
 6590TIP3    H219777   2.745   4.271   3.318
 6591TIP3   OH219778   2.193   1.318   0.393
 6591TIP3    H119779   2.235   1.339   0.477
 6591TIP3    H219780   2.253   1.352   0.327
 6592TIP3   OH219781   0.676   1.218   4.558
 6592TIP3    H119782   0.628   1.167   4.493
 6592TIP3    H219783   0.678   1.162   4.636
 6593TIP3   OH219784   4.790   1.841   4.742
 6593TIP3    H119785   4.759   1.913   4.796
 6593TIP3    H219786   4.713   1.785   4.730
 6594TIP3   OH219787   1.043   3.771   1.968
 6594TIP3    H119788   1.031   3.691   1.916
 6594TIP3    H219789   0.968   3.772   2.027
 6595TIP3   OH219790   4.773   4.883   4.845
 6595TIP3    H119791   4.813   4.869   4.931
 6595TIP3    H219792   4.717   4.806   4.833
 6596TIP3   OH219793   5.843   1.147   1.915
 6596TIP3    H119794   5.834   1.193   1.998
 6596TIP3    H219795   5.760   1.101   1.903
 6597TIP3   OH219796   6.058   1.252   4.788
 6597TIP3    H119797   6.081   1.165   4.818
 6597TIP3    H219798   5.995   1.284   4.852
 6598TIP3   OH219799   2.168   4.489   4.091
 6598TIP3    H119800   2.089   4.542   4.092
 6598TIP3    H219801   2.226   4.532   4.028
 6599TIP3   OH219802   1.418   4.492   3.300
 6599TIP3    H119803   1.386   4.408   3.267
 6599TIP3    H219804   1.509   4.496   3.268
 6600TIP3   OH219805   2.150   1.662   0.328
 6600TIP3    H119806   2.086   1.677   0.397
 6600TIP3    H219807   2.235   1.674   0.370
 6601TIP3   OH219808   1.262   4.073   0.378
 6601TIP3    H119809   1.257   4.116   0.463
 6601TIP3    H219810   1.355   4.051   0.367
 6602TIP3   OH219811   1.867   4.672   5.096
 6602TIP3    H119812   1.811   4.603   5.059
 6602TIP3    H219813   1.807   4.745   5.111
 6603TIP3   OH219814   1.752   0.245   1.052
 6603TIP3    H119815   1.686   0.178   1.037
 6603TIP3    H219816   1.710   0.307   1.112
 6604TIP3   OH219817   3.397   0.889   0.626
 6604TIP3    H119818   3.461   0.906   0.695
 6604TIP3    H219819   3.447   0.899   0.545
 6605TIP3   OH219820   4.272   3.776   2.031
 6605TIP3    H119821   4.298   3.725   2.108
 6605TIP3    H219822   4.236   3.857   2.067
 6606TIP3   OH219823   0.362   1.709   3.352
 6606TIP3    H119824   0.325   1.680   3.269
 6606TIP3    H219825   0.299   1.681   3.418
 6607TIP3   OH219826   2.984   3.044   4.943
 6607TIP3    H119827   2.896   3.008   4.953
 6607TIP3    H219828   3.040   2.984   4.993
 6608TIP3   OH219829   3.423   1.362   0.674
 6608TIP3    H119830   3.515   1.389   0.672
 6608TIP3    H219831   3.417   1.303   0.749
 6609TIP3   OH219832   4.829   2.156   1.188
 6609TIP3    H119833   4.819   2.100   1.266
 6609TIP3    H219834   4.909   2.124   1.146
 6610TIP3   OH219835   6.260   1.767   5.107
 6610TIP3    H119836   6.272   1.811   5.192
 6610TIP3    H219837   6.271   1.674   5.126
 6611TIP3   OH219838   4.063   4.811   3.788
 6611TIP3    H119839   4.108   4.733   3.754
 6611TIP3    H219840   4.111   4.833   3.868
 6612TIP3   OH219841   2.861   0.472   4.627
 6612TIP3    H119842   2.866   0.530   4.551
 6612TIP3    H219843   2.788   0.506   4.678
 6613TIP3   OH219844   2.579   1.659   2.566
 6613TIP3    H119845   2.609   1.717   2.637
 6613TIP3    H219846   2.503   1.613   2.603
 6614TIP3   OH219847   4.945   0.866   2.627
 6614TIP3    H119848   4.950   0.805   2.701
 6614TIP3    H219849   5.034   0.901   2.619
 6615TIP3   OH219850   1.232   3.831   4.319
 6615TIP3    H119851   1.242   3.893   4.248
 6615TIP3    H219852   1.221   3.885   4.397
 6616TIP3   OH219853   4.692   1.110   0.475
 6616TIP3    H119854   4.636   1.188   0.469
 6616TIP3    H219855   4.737   1.107   0.391
 6617TIP3   OH219856   1.734   0.061   4.147
 6617TIP3    H119857   1.764   0.086   4.235
 6617TIP3    H219858   1.762   0.133   4.091
 6618TIP3   OH219859   0.478   0.275   0.716
 6618TIP3    H119860   0.450   0.188   0.744
 6618TIP3    H219861   0.528   0.310   0.789
 6619TIP3   OH219862   2.188   3.277   1.004
 6619TIP3    H119863   2.194   3.373   1.002
 6619TIP3    H219864   2.095   3.259   0.995
 6620TIP3   OH219865   1.079   2.527   5.092
 6620TIP3    H119866   1.159   2.549   5.043
 6620TIP3    H219867   1.110   2.474   5.165
 6621TIP3   OH219868   4.290   1.827   4.826
 6621TIP3    H119869   4.238   1.784   4.894
 6621TIP3    H219870   4.252   1.796   4.743
 6622TIP3   OH219871   5.269   1.905   0.126
 6622TIP3    H119872   5.212   1.936   0.196
 6622TIP3    H219873   5.231   1.821   0.099
 6623TIP3   OH219874   4.096   2.116   3.932
 6623TIP3    H119875   4.189   2.097   3.916
 6623TIP3    H219876   4.088   2.121   4.027
 6624TIP3   OH219877   2.525   1.050   4.291
 6624TIP3    H119878   2.448   1.105   4.276
 6624TIP3    H219879   2.492   0.977   4.343
 6625TIP3   OH219880   4.363   5.858   2.462
 6625TIP3    H119881   4.372   5.923   2.392
 6625TIP3    H219882   4.350   5.776   2.416
 6626TIP3   OH219883   2.902   1.173   4.190
 6626TIP3    H119884   2.872   1.226   4.116
 6626TIP3    H219885   2.915   1.236   4.260
 6627TIP3   OH219886   1.531   3.708   0.873
 6627TIP3    H119887   1.605   3.691   0.931
 6627TIP3    H219888   1.525   3.629   0.818
 6628TIP3   OH219889   1.739   2.202   4.112
 6628TIP3    H119890   1.648   2.176   4.095
 6628TIP3    H219891   1.756   2.169   4.201
 6629TIP3   OH219892   2.274   2.988   1.057
 6629TIP3    H119893   2.273   2.947   1.143
 6629TIP3    H219894   2.259   3.081   1.075
 6630TIP3   OH219895   2.081   0.338   3.569
 6630TIP3    H119896   1.991   0.364   3.550
 6630TIP3    H219897   2.075   0.281   3.646
 6631TIP3   OH219898   0.942   1.653   1.963
 6631TIP3    H119899   1.036   1.641   1.954
 6631TIP3    H219900   0.906   1.564   1.967
 6632TIP3   OH219901   4.659   3.052   2.278
 6632TIP3    H119902   4.737   3.073   2.330
 6632TIP3    H219903   4.690   2.991   2.211
 6633TIP3   OH219904   5.070   3.619   0.802
 6633TIP3    H119905   4.993   3.567   0.780
 6633TIP3    H219906   5.134   3.556   0.834
 6634TIP3   OH219907   3.665   3.421   1.058
 6634TIP3    H119908   3.617   3.367   1.121
 6634TIP3    H219909   3.618   3.504   1.055
 6635TIP3   OH219910   0.648   2.214   4.274
 6635TIP3    H119911   0.717   2.250   4.218
 6635TIP3    H219912   0.573   2.272   4.260
 6636TIP3   OH219913   1.306   1.327   0.629
 6636TIP3    H119914   1.237   1.279   0.673
 6636TIP3    H219915   1.369   1.260   0.602
 6637TIP3   OH219916   1.219   2.484   4.075
 6637TIP3    H119917   1.177   2.424   4.138
 6637TIP3    H219918   1.210   2.439   3.991
 6638TIP3   OH219919   4.753   5.648   5.091
 6638TIP3    H119920   4.716   5.582   5.032
 6638TIP3    H219921   4.791   5.714   5.034
 6639TIP3   OH219922   4.522   4.141   3.606
 6639TIP3    H119923   4.500   4.216   3.660
 6639TIP3    H219924   4.453   4.137   3.539
 6640TIP3   OH219925   3.800   2.065   2.008
 6640TIP3    H119926   3.817   2.023   1.923
 6640TIP3    H219927   3.874   2.040   2.063
   6.35006   5.98690   5.18481   0.00000   0.00000  -2.11669   0.00000  -2.11669  -2.99345
