Title
19927
    1ASP      N    1   2.398   0.529   1.666  0.0911  0.0562  0.4846
    1ASP    HT1    2   2.448   0.483   1.745 -0.6417 -0.3163  0.7427
    1ASP    HT2    3   2.376   0.465   1.587 -0.8479  2.1086 -1.0204
    1ASP    HT3    4   2.299   0.550   1.693 -0.6436 -2.3368 -0.1102
    1ASP     CA    5   2.458   0.650   1.614  0.2403 -0.4659 -0.2251
    1ASP     HA    6   2.553   0.633   1.567  0.5288  2.2032 -0.7716
    1ASP     CB    7   2.379   0.713   1.502  0.1588  0.3799  0.6118
    1ASP    HB1    8   2.435   0.797   1.456 -0.1551 -0.2244 -0.9272
    1ASP    HB2    9   2.281   0.745   1.542  0.1757  0.8116  0.3136
    1ASP     CG   10   2.341   0.622   1.381 -1.0514  0.4933  0.2489
    1ASP    OD1   11   2.397   0.508   1.373 -0.2839  0.1323 -0.1534
    1ASP    OD2   12   2.256   0.666   1.301  0.1186  0.0775 -0.2668
    1ASP      C   13   2.471   0.752   1.735  0.0398 -0.3314 -0.0736
    1ASP      O   14   2.418   0.730   1.844  0.2696  0.1455 -0.8671
    2ALA      N   15   2.550   0.861   1.710 -0.2759 -0.0052  0.2455
    2ALA     HN   16   2.593   0.876   1.622  1.0610 -2.4321  0.3986
    2ALA     CA   17   2.575   0.970   1.800 -0.7820  0.9975 -0.2142
    2ALA     HA   18   2.642   0.932   1.876 -2.0179  0.4621  0.6334
    2ALA     CB   19   2.638   1.082   1.717 -0.1331 -0.1024  0.0609
    2ALA    HB1   20   2.565   1.125   1.644 -0.7824  0.0362  0.7728
    2ALA    HB2   21   2.730   1.048   1.665 -0.5233 -1.6928  0.3831
    2ALA    HB3   22   2.676   1.165   1.781 -0.3801  0.1165 -0.0708
    2ALA      C   23   2.452   1.017   1.880 -0.3529  0.2967  0.4627
    2ALA      O   24   2.342   1.022   1.820 -0.0460 -0.2485  0.5224
    3ASP      N   25   2.467   1.059   2.007  0.2773 -0.6298  0.3026
    3ASP     HN   26   2.555   1.051   2.052 -1.2476 -0.5601  3.6067
    3ASP     CA   27   2.362   1.131   2.072 -0.3939  0.8773  0.2078
    3ASP     HA   28   2.269   1.084   2.044  0.2517  0.4946 -1.4348
    3ASP     CB   29   2.395   1.124   2.218  0.0547  1.0222 -0.9034
    3ASP    HB1   30   2.342   1.190   2.289  0.3366 -0.5442  0.8601
    3ASP    HB2   31   2.504   1.138   2.236  0.2431 -2.0629  1.2130
    3ASP     CG   32   2.361   0.979   2.269 -0.0656 -0.1737 -0.0513
    3ASP    OD1   33   2.458   0.913   2.309  0.2646  0.2919  0.1838
    3ASP    OD2   34   2.249   0.934   2.268 -0.2302  0.6426  0.4019
    3ASP      C   35   2.366   1.276   2.015  0.8813 -0.5028 -0.3348
    3ASP      O   36   2.446   1.365   2.047  0.1659 -0.3777  0.6006
    4GLY      N   37   2.261   1.308   1.932 -0.1106 -0.5630 -0.8724
    4GLY     HN   38   2.185   1.245   1.917  0.3681 -1.9232  1.8061
    4GLY     CA   39   2.234   1.446   1.881  0.7768 -0.0115 -0.0365
    4GLY    HA1   40   2.146   1.439   1.820 -0.1376 -0.4880  1.2858
    4GLY    HA2   41   2.318   1.486   1.825 -1.0369  2.1023 -1.4088
    4GLY      C   42   2.177   1.555   1.985 -0.4601 -0.3941  0.2872
    4GLY      O   43   2.174   1.534   2.107  0.3536  0.0468 -0.2446
    5PRO      N   44   2.151   1.675   1.937 -0.2534 -0.1938 -0.3038
    5PRO     CD   45   2.172   1.708   1.793  0.1298 -0.2378 -0.5129
    5PRO    HD1   46   2.096   1.663   1.725 -0.4545  2.0818 -1.5044
    5PRO    HD2   47   2.268   1.677   1.747  0.8672 -0.2476  0.9964
    5PRO     CA   48   2.077   1.786   2.004 -0.8608 -0.3822 -0.6092
    5PRO     HA   49   2.142   1.830   2.078  1.5738  0.0300 -2.8594
    5PRO     CB   50   2.043   1.883   1.890  0.8448  0.6989  0.3212
    5PRO    HB1   51   2.045   1.988   1.927  1.6135  1.6976 -2.3043
    5PRO    HB2   52   1.945   1.851   1.848  0.7636  0.3489  0.7826
    5PRO     CG   53   2.155   1.863   1.797 -0.1819 -0.2468  0.1097
    5PRO    HG1   54   2.157   1.887   1.689  0.4092  0.3511  0.2438
    5PRO    HG2   55   2.249   1.900   1.844 -1.1844  0.5362  1.5959
    5PRO      C   56   1.959   1.743   2.086 -0.0010 -0.7242  0.7199
    5PRO      O   57   1.874   1.666   2.037  0.0433  0.1232  0.0282
    6GLY      N   58   1.953   1.789   2.217 -0.4399 -0.1076  0.1175
    6GLY     HN   59   2.026   1.854   2.232  0.3985 -0.3739 -2.3510
    6GLY     CA   60   1.824   1.765   2.293 -0.0063  0.0262  0.1217
    6GLY    HA1   61   1.853   1.813   2.386  0.9143  0.8100 -0.5466
    6GLY    HA2   62   1.795   1.662   2.302  0.5432  0.0285  2.5907
    6GLY      C   63   1.699   1.846   2.248  1.0763  0.5370  0.2705
    6GLY      O   64   1.670   1.886   2.130 -0.0733 -0.4021 -0.1503
    7ASP      N   65   1.601   1.863   2.346 -0.1493 -0.6497  0.1485
    7ASP     HN   66   1.621   1.809   2.428  2.6513 -0.8722 -0.5733
    7ASP     CA   67   1.486   1.955   2.341  0.3608 -0.0662  0.4035
    7ASP     HA   68   1.472   1.981   2.237  1.4494  1.7459  0.6631
    7ASP     CB   69   1.355   1.877   2.388 -0.2507 -0.8847 -0.0320
    7ASP    HB1   70   1.277   1.952   2.367  1.2337  0.4814 -0.9125
    7ASP    HB2   71   1.348   1.859   2.497 -2.6050  2.0517  0.4204
    7ASP     CG   72   1.323   1.754   2.309  0.4681  0.1315 -0.3513
    7ASP    OD1   73   1.330   1.770   2.189  0.3893 -0.8702  0.0173
    7ASP    OD2   74   1.267   1.654   2.365  0.1994 -0.7801  0.4063
    7ASP      C   75   1.525   2.077   2.424  0.1354 -0.2434  0.3786
    7ASP      O   76   1.622   2.080   2.498 -0.5373  0.4539 -0.0383
    8PRO      N   77   1.457   2.184   2.418 -0.0175  0.3934 -0.0624
    8PRO     CD   78   1.373   2.208   2.304  0.3255 -0.0730 -0.1906
    8PRO    HD1   79   1.273   2.163   2.316 -0.8849  3.0115  3.1588
    8PRO    HD2   80   1.417   2.181   2.206  0.0529 -4.4857  0.7035
    8PRO     CA   81   1.446   2.288   2.516  0.0575 -0.3527  0.7042
    8PRO     HA   82   1.538   2.344   2.518 -0.3473  0.2871  1.8776
    8PRO     CB   83   1.324   2.376   2.470  0.2153 -0.2273  0.5280
    8PRO    HB1   84   1.350   2.482   2.493  1.2369 -0.1262 -0.9249
    8PRO    HB2   85   1.228   2.331   2.501 -2.1253  2.2845 -2.3623
    8PRO     CG   86   1.336   2.362   2.317  0.5788 -0.2418  0.3813
    8PRO    HG1   87   1.239   2.388   2.270  0.6012 -2.4953 -1.0653
    8PRO    HG2   88   1.414   2.434   2.285  1.5103 -0.5002  1.9477
    8PRO      C   89   1.433   2.245   2.664  0.2915  0.5718 -0.1296
    8PRO      O   90   1.345   2.167   2.697 -0.3840  0.8609 -0.2528
    9ASP      N   91   1.515   2.305   2.754  0.1115  0.2472  0.0101
    9ASP     HN   92   1.587   2.368   2.723  0.0658  0.5753  0.5581
    9ASP     CA   93   1.523   2.269   2.896  0.8513  0.9065 -0.4599
    9ASP     HA   94   1.550   2.166   2.913 -2.6605 -0.2123 -0.8633
    9ASP     CB   95   1.625   2.356   2.973  0.3173 -0.4614  0.4152
    9ASP    HB1   96   1.610   2.361   3.083 -1.1357 -2.4252  0.3599
    9ASP    HB2   97   1.613   2.457   2.927  0.9513 -0.7370 -0.3888
    9ASP     CG   98   1.769   2.307   2.946 -0.1016 -1.0862 -0.0162
    9ASP    OD1   99   1.867   2.377   2.978 -0.0378 -0.1974 -0.1018
    9ASP    OD2  100   1.787   2.195   2.896  0.1221  0.2399 -0.6851
    9ASP      C  101   1.398   2.282   2.969 -0.2658  0.5504 -0.6347
    9ASP      O  102   1.356   2.190   3.040  0.2418 -0.2709  0.3143
   10ALA      N  103   1.319   2.396   2.957  0.1176 -0.1724 -0.5699
   10ALA     HN  104   1.361   2.465   2.899  1.0901  1.3593  1.8076
   10ALA     CA  105   1.201   2.441   3.022 -0.0778 -0.3929  1.0127
   10ALA     HA  106   1.231   2.449   3.126  2.3508  0.2183  0.3331
   10ALA     CB  107   1.158   2.583   2.971  0.4890 -0.2632  0.3872
   10ALA    HB1  108   1.109   2.588   2.871  0.0351 -0.2420  0.6089
   10ALA    HB2  109   1.246   2.651   2.969 -0.0652  0.5925  2.6593
   10ALA    HB3  110   1.089   2.630   3.043  1.6524  1.3017  0.5285
   10ALA      C  111   1.085   2.349   3.017  0.2913  0.8716 -0.0615
   10ALA      O  112   1.060   2.286   2.917  0.6057 -0.2184  0.0047
   11GLY      N  113   1.010   2.338   3.128  0.5540 -0.5251 -0.1204
   11GLY     HN  114   1.038   2.380   3.214  1.2469 -0.6705 -0.2713
   11GLY     CA  115   0.881   2.265   3.129  0.0214  0.6124  0.3874
   11GLY    HA1  116   0.920   2.165   3.130 -0.8553  0.2675  1.6097
   11GLY    HA2  117   0.821   2.295   3.044 -0.8969  1.8043  1.4219
   11GLY      C  118   0.802   2.294   3.253 -0.0616 -0.3375 -0.0531
   11GLY    OT1  119   0.767   2.199   3.323  0.2792  0.2067 -0.8395
   11GLY    OT2  120   0.764   2.411   3.274  0.0722 -0.6048  0.1232
   12SOD    SOD  121   1.856   1.548   4.857 -0.0400 -0.4437 -0.7949
   13SOD    SOD  122   1.172   1.412   2.899  0.2044  0.4461  0.7805
   14SOD    SOD  123   2.030   0.443   4.235 -0.1949 -0.4407  0.0203
   15SOD    SOD  124   3.986   5.415   3.975  0.4685 -0.5239 -0.0958
   16SOD    SOD  125   2.441   2.458   3.236 -0.7149  0.1904 -0.8257
   17SOD    SOD  126   1.363   1.579   1.792 -0.1188  0.0090 -0.3638
   18SOD    SOD  127   0.495   2.139   2.969 -0.1619 -0.0642 -0.1394
   19SOD    SOD  128   0.456   5.139   0.440  0.1839 -0.1420 -0.0417
   20SOD    SOD  129   4.088   1.045   1.821 -0.0969  0.4049  0.1096
   21SOD    SOD  130   5.785   4.111   2.914  0.0875  0.0424  0.3626
   22SOD    SOD  131   5.135   4.134   0.141  0.3428 -0.5251  0.3880
   23SOD    SOD  132   0.852   1.247   2.183  0.2951  0.1701  0.5850
   24SOD    SOD  133   2.418   2.123   0.630 -0.4194 -0.1492  0.1693
   25SOD    SOD  134   2.911   5.778   2.562 -0.0845  0.9395  0.1520
   26SOD    SOD  135   4.628   5.844   0.495  0.2092 -0.1525  0.4700
   27SOD    SOD  136   5.079   5.125   2.512  0.2685 -0.9552 -0.6455
   28SOD    SOD  137   5.147   5.890   2.629  0.5048 -0.3913  0.3526
   29SOD    SOD  138   3.555   0.755   0.521 -0.4364  0.4690 -0.0448
   30SOD    SOD  139   4.874   4.399   5.132  0.0076  0.2422 -0.2275
   31SOD    SOD  140   2.348   4.809   1.110 -0.3543  0.0902 -0.0574
   32SOD    SOD  141   3.815   1.306   4.381 -0.2184 -0.2417  0.0070
   33SOD    SOD  142   5.204   1.146   5.046 -0.1044 -0.1252 -0.3568
   34CLA    CLA  143   6.102   2.440   3.016 -0.1265  0.2606 -0.3402
   35CLA    CLA  144   3.441   5.402   5.107  0.3510 -0.0770  0.1041
   36CLA    CLA  145   1.048   2.445   4.990 -0.0132 -0.1177  0.1745
   37CLA    CLA  146   5.823   0.297   3.934  0.1803  0.2876  0.2492
   38CLA    CLA  147   1.587   0.524   2.731 -0.1208  0.0878  0.0012
   39CLA    CLA  148   4.371   2.146   1.118 -0.1337  0.2788  0.2515
   40CLA    CLA  149   6.285   4.136   0.370  0.0926  0.5030  0.0581
   41CLA    CLA  150   5.796   4.351   4.530 -0.4169  0.2512 -0.3436
   42CLA    CLA  151   1.439   5.925   0.827 -0.0588  0.4819  0.1585
   43CLA    CLA  152   0.133   0.250   3.006  0.3408 -0.3169 -0.3232
   44CLA    CLA  153   3.271   3.765   4.314  0.1049  0.0694 -0.1422
   45CLA    CLA  154   5.040   4.328   0.294  0.0917  0.2793  0.2087
   46CLA    CLA  155   3.794   3.345   2.489 -0.0044 -0.1092  0.6781
   47CLA    CLA  156   5.553   5.665   2.044 -0.0088  0.1563 -0.3231
   48CLA    CLA  157   5.275   3.711   0.234  0.4074  0.3681  0.1145
   49CLA    CLA  158   3.781   5.031   1.519  0.2792  0.1550  0.0958
   50CLA    CLA  159   3.449   4.178   0.398 -0.0350  0.1840 -0.4234
   51CLA    CLA  160   2.274   1.791   1.393  0.1096  0.0804 -0.2652
   52TIP3   OH2  161   3.693   2.712   4.268 -0.2439  0.3857  0.6486
   52TIP3    H1  162   3.750   2.760   4.209  0.1952 -0.9383 -0.0364
   52TIP3    H2  163   3.652   2.645   4.213 -0.5936 -0.2299  1.6349
   53TIP3   OH2  164   1.791   1.570   4.158 -0.2063 -0.3048  0.2481
   53TIP3    H1  165   1.872   1.621   4.155 -1.2767  1.4824  0.2511
   53TIP3    H2  166   1.809   1.493   4.104  2.1478 -1.0147  1.8904
   54TIP3   OH2  167   4.456   5.185   3.090 -0.6510  0.4551  0.0576
   54TIP3    H1  168   4.427   5.276   3.097  0.1975  0.6212  1.9229
   54TIP3    H2  169   4.375   5.134   3.096 -1.3063  1.0510 -2.3981
   55TIP3   OH2  170   5.448   5.670   2.459  0.2430 -0.2056  0.4915
   55TIP3    H1  171   5.515   5.738   2.462  0.5899 -0.5121 -0.2596
   55TIP3    H2  172   5.493   5.592   2.428 -0.4390 -0.4342  0.0506
   56TIP3   OH2  173   0.738   3.951   2.218  0.3260 -0.0807  0.3387
   56TIP3    H1  174   0.779   4.035   2.235  0.0579 -0.1534  1.3751
   56TIP3    H2  175   0.790   3.913   2.146  0.6078  0.8378  0.0456
   57TIP3   OH2  176   3.848   0.394   4.083  0.5787 -0.3734  0.0714
   57TIP3    H1  177   3.866   0.300   4.079  1.3584 -0.1896 -2.0586
   57TIP3    H2  178   3.885   0.422   4.167  1.0934 -1.8093  0.3546
   58TIP3   OH2  179   1.059   5.691   0.779 -0.4814  0.0370  0.2285
   58TIP3    H1  180   1.064   5.746   0.701  0.5413 -0.0900  0.1834
   58TIP3    H2  181   1.068   5.602   0.746 -0.0783 -0.0200  0.4870
   59TIP3   OH2  182   4.921   2.172   1.300 -1.3415  0.1178 -0.4064
   59TIP3    H1  183   4.829   2.151   1.283 -2.1307  2.7098  0.1481
   59TIP3    H2  184   4.960   2.184   1.213 -1.0361 -2.5185 -0.7117
   60TIP3   OH2  185   4.370   4.908   1.380  0.0627 -0.4817 -0.2472
   60TIP3    H1  186   4.298   4.847   1.367  0.5367 -1.0179 -0.3851
   60TIP3    H2  187   4.336   4.973   1.442 -0.5515 -0.7006 -0.3535
   61TIP3   OH2  188   3.001   1.207   2.010 -0.1201  0.0245  0.1483
   61TIP3    H1  189   3.089   1.202   1.974 -1.1191 -1.4935 -2.3443
   61TIP3    H2  190   3.009   1.174   2.099  1.9171  0.6585  0.2475
   62TIP3   OH2  191   1.253   2.854   4.330 -0.5985 -0.2110  0.0773
   62TIP3    H1  192   1.333   2.804   4.320 -0.8332 -1.4493  3.1043
   62TIP3    H2  193   1.190   2.792   4.368 -2.8504  0.8597 -1.6554
   63TIP3   OH2  194   1.730   4.033   2.752 -0.0955 -0.5829  0.4903
   63TIP3    H1  195   1.794   4.099   2.778  1.8144 -1.2210 -2.1089
   63TIP3    H2  196   1.744   3.960   2.812  0.6902 -0.1988  0.7780
   64TIP3   OH2  197   4.990   2.006   1.824 -0.6494  0.5457  0.0715
   64TIP3    H1  198   4.913   2.016   1.881 -0.6823 -1.6081  0.5015
   64TIP3    H2  199   5.055   2.064   1.863 -1.4049  0.8572  0.9241
   65TIP3   OH2  200   5.635   1.634   1.229 -0.2468  0.0886  0.5886
   65TIP3    H1  201   5.573   1.698   1.264 -0.9223  0.2050 -0.7491
   65TIP3    H2  202   5.673   1.593   1.306 -1.0202  0.9406  1.4563
   66TIP3   OH2  203   1.624   0.649   3.004  0.2813 -0.0358 -0.2417
   66TIP3    H1  204   1.627   0.587   2.932  1.0967  0.5265 -0.7132
   66TIP3    H2  205   1.641   0.734   2.964 -2.5275  0.7933  0.1217
   67TIP3   OH2  206   5.761   0.572   3.759  0.1658  0.3599  0.1477
   67TIP3    H1  207   5.770   0.504   3.826  0.2876  0.5405  0.3156
   67TIP3    H2  208   5.768   0.525   3.676  0.0746  0.1435  0.2618
   68TIP3   OH2  209   1.437   1.820   3.334  0.1736  0.1554  0.1273
   68TIP3    H1  210   1.413   1.727   3.325  0.5704  0.1790 -1.4693
   68TIP3    H2  211   1.523   1.818   3.376  1.5449 -0.4067 -2.4825
   69TIP3   OH2  212   5.068   1.716   2.997 -0.1967 -0.5098 -0.0127
   69TIP3    H1  213   5.155   1.755   2.989  0.8916 -2.3132  2.0555
   69TIP3    H2  214   5.029   1.727   2.910  2.3408 -0.2233 -1.1990
   70TIP3   OH2  215   2.070   4.809   2.989  0.0016 -0.4922  0.1716
   70TIP3    H1  216   2.076   4.824   2.895 -1.3099 -2.3933 -0.2877
   70TIP3    H2  217   2.003   4.871   3.019 -2.2892 -2.3271 -0.8856
   71TIP3   OH2  218   5.293   1.945   1.131  0.2238 -0.3853 -0.3200
   71TIP3    H1  219   5.373   1.975   1.087  0.5813  1.0060  1.1662
   71TIP3    H2  220   5.275   2.012   1.197 -2.0566 -0.8003 -0.4399
   72TIP3   OH2  221   1.146   4.876   4.984  0.5670 -0.3631 -0.0765
   72TIP3    H1  222   1.091   4.799   4.974  1.4222 -0.7325 -2.6698
   72TIP3    H2  223   1.104   4.943   4.931 -0.7502  1.4121  2.9662
   73TIP3   OH2  224   3.951   4.952   1.294 -0.0055  0.5892  0.5970
   73TIP3    H1  225   3.992   5.037   1.308  0.9645 -0.1478  2.6803
   73TIP3    H2  226   3.877   4.951   1.355 -0.3176  0.1211  0.2183
   74TIP3   OH2  227   5.667   1.377   3.969 -0.3881 -0.4830  0.3873
   74TIP3    H1  228   5.648   1.412   4.056  1.6367  1.9536 -0.0406
   74TIP3    H2  229   5.734   1.311   3.984 -1.8519 -1.9182  0.8721
   75TIP3   OH2  230   3.933   2.589   3.866 -0.3563 -0.0080  0.1358
   75TIP3    H1  231   3.870   2.529   3.826  0.1275 -0.5201  0.1344
   75TIP3    H2  232   3.972   2.540   3.938 -0.8758  0.7509  0.9551
   76TIP3   OH2  233   2.481   1.997   1.303 -0.0336  0.0496  0.3131
   76TIP3    H1  234   2.425   1.935   1.350  0.6504 -0.6442  0.2409
   76TIP3    H2  235   2.428   2.076   1.294 -0.7914 -0.4022  0.7326
   77TIP3   OH2  236   1.176   3.497   4.455 -0.1572 -0.6799 -0.1961
   77TIP3    H1  237   1.164   3.406   4.427 -1.4054 -0.3735 -0.7242
   77TIP3    H2  238   1.088   3.535   4.454  0.2229  0.3055  0.8572
   78TIP3   OH2  239   4.730   0.438   0.220  0.0084  0.4761  0.4249
   78TIP3    H1  240   4.825   0.424   0.229 -0.3734 -4.5969 -0.3510
   78TIP3    H2  241   4.721   0.495   0.144  2.5294 -0.8177 -0.9904
   79TIP3   OH2  242   2.489   2.750   4.920 -0.7180  0.5666 -1.0178
   79TIP3    H1  243   2.447   2.825   4.961  0.1318  0.6653 -0.2820
   79TIP3    H2  244   2.442   2.674   4.954  0.2300  0.6232  0.5031
   80TIP3   OH2  245   1.610   4.588   3.274  0.4618  0.2778 -1.2562
   80TIP3    H1  246   1.701   4.614   3.261  1.2792 -1.4306  0.5710
   80TIP3    H2  247   1.562   4.670   3.280  2.1261  1.2451 -0.6569
   81TIP3   OH2  248   0.776   5.560   4.861  0.1723  0.4351  0.3103
   81TIP3    H1  249   0.735   5.480   4.826 -0.7330  1.6938 -1.6960
   81TIP3    H2  250   0.765   5.554   4.956 -3.7059  0.1363 -0.0231
   82TIP3   OH2  251   5.535   2.400   0.108  0.0602 -0.2999 -0.0563
   82TIP3    H1  252   5.564   2.366   0.024 -2.1408 -1.2338 -0.5030
   82TIP3    H2  253   5.542   2.495   0.100 -1.4084 -0.2965 -1.8410
   83TIP3   OH2  254   1.125   2.993   1.153  0.5465 -0.5713  0.4868
   83TIP3    H1  255   1.193   3.043   1.199  0.8805  0.0299 -0.6179
   83TIP3    H2  256   1.047   3.004   1.206  0.6064  1.1571  0.2740
   84TIP3   OH2  257   5.037   3.380   2.226  0.2785 -0.3200  0.7417
   84TIP3    H1  258   5.104   3.316   2.250 -0.5781 -1.4371  0.2186
   84TIP3    H2  259   5.023   3.367   2.133 -0.6757 -0.1050  0.8422
   85TIP3   OH2  260   5.327   2.146   4.955 -0.2462 -0.4098 -0.6112
   85TIP3    H1  261   5.279   2.169   4.876  0.3416 -2.3879 -1.5811
   85TIP3    H2  262   5.388   2.077   4.929  0.3883 -0.7164  1.4325
   86TIP3   OH2  263   0.835   0.314   0.243  1.1139 -0.5036  0.2433
   86TIP3    H1  264   0.901   0.289   0.308 -0.0555  0.0112  1.6811
   86TIP3    H2  265   0.778   0.375   0.290  0.6011  0.3832 -1.4769
   87TIP3   OH2  266   4.970   5.531   1.541  0.3192 -0.5025 -0.0462
   87TIP3    H1  267   5.053   5.575   1.559  0.7883 -1.0409 -0.8400
   87TIP3    H2  268   4.944   5.564   1.455 -0.4381 -0.1398  0.3028
   88TIP3   OH2  269   4.784   1.653   3.360  0.0383 -0.2801 -0.2012
   88TIP3    H1  270   4.825   1.730   3.399  0.3592 -0.7502  0.4138
   88TIP3    H2  271   4.730   1.617   3.431  1.2592 -1.6041  0.0841
   89TIP3   OH2  272   1.831   5.587   4.084 -0.3886  0.4402 -0.4075
   89TIP3    H1  273   1.868   5.586   3.995 -2.1640  1.6006 -1.2146
   89TIP3    H2  274   1.753   5.532   4.079 -0.1220 -0.0681  0.6490
   90TIP3   OH2  275   0.387   0.486   1.065 -0.5368 -1.0464  0.5582
   90TIP3    H1  276   0.353   0.397   1.077  1.0144 -1.9547 -1.1863
   90TIP3    H2  277   0.449   0.497   1.136 -1.2661 -1.0568  1.2098
   91TIP3   OH2  278   1.534   1.576   1.405  0.3617 -0.6458  0.1118
   91TIP3    H1  279   1.535   1.496   1.353  0.0474  0.8358 -2.3717
   91TIP3    H2  280   1.622   1.584   1.440  0.0678 -2.6418  1.4437
   92TIP3   OH2  281   1.080   5.198   0.944  0.0599  0.8537  0.2014
   92TIP3    H1  282   1.077   5.139   1.020  2.5370 -1.3396 -1.2663
   92TIP3    H2  283   1.085   5.139   0.868 -1.7229  2.9774 -1.6896
   93TIP3   OH2  284   5.852   4.571   4.949  0.0209  0.2296  0.2324
   93TIP3    H1  285   5.930   4.590   4.897  0.5734 -1.3831  0.4040
   93TIP3    H2  286   5.882   4.571   5.040  0.4961 -2.8317  0.2005
   94TIP3   OH2  287   1.311   0.128   0.631  0.2715 -0.5451  0.0414
   94TIP3    H1  288   1.336   0.216   0.601 -1.9004  0.8482  1.9064
   94TIP3    H2  289   1.338   0.127   0.723 -1.0574 -1.2011  0.4541
   95TIP3   OH2  290   5.382   4.572   1.969  0.2798  0.9613 -0.1361
   95TIP3    H1  291   5.337   4.488   1.979 -0.5684  1.2152 -1.5307
   95TIP3    H2  292   5.343   4.628   2.036  1.9578 -0.1326  1.8812
   96TIP3   OH2  293   1.434   3.559   0.261 -0.2294  0.2591 -0.0843
   96TIP3    H1  294   1.470   3.618   0.195  2.2340 -0.4417  0.5400
   96TIP3    H2  295   1.361   3.515   0.217  0.1241  1.1989 -1.6759
   97TIP3   OH2  296   2.867   0.154   4.168  0.2277 -0.2141 -0.1501
   97TIP3    H1  297   2.773   0.167   4.155  0.1908 -0.3669 -0.0388
   97TIP3    H2  298   2.885   0.070   4.127  0.4841  0.2242 -0.9576
   98TIP3   OH2  299   3.312   2.644   1.339 -0.0549  0.0427 -0.6801
   98TIP3    H1  300   3.354   2.574   1.388 -1.5935 -0.2562  0.2637
   98TIP3    H2  301   3.332   2.625   1.247  1.1259 -0.5497 -0.3157
   99TIP3   OH2  302   4.551   4.057   3.447 -0.2660  0.6125 -0.1038
   99TIP3    H1  303   4.623   4.030   3.504  0.0565  0.6393 -0.4896
   99TIP3    H2  304   4.548   3.989   3.379  0.7779  1.7140 -1.2865
  100TIP3   OH2  305   6.205   2.746   0.329  0.8644 -0.1261 -0.6691
  100TIP3    H1  306   6.165   2.659   0.327  1.1047 -0.2960  0.7004
  100TIP3    H2  307   6.145   2.802   0.280 -0.7244 -0.5247  0.7266
  101TIP3   OH2  308   1.132   2.728   3.810 -0.3423 -0.4451  0.6264
  101TIP3    H1  309   1.174   2.642   3.807 -0.7543 -0.6054 -1.1337
  101TIP3    H2  310   1.040   2.708   3.828 -0.4273 -0.3634  0.2753
  102TIP3   OH2  311   3.270   4.786   4.006 -0.9529  0.0180  0.2323
  102TIP3    H1  312   3.198   4.727   3.983 -0.7542  0.0434 -0.4663
  102TIP3    H2  313   3.275   4.781   4.102 -0.9843 -1.0607  0.1910
  103TIP3   OH2  314   1.793   4.455   4.872 -0.6518  0.3069  0.4202
  103TIP3    H1  315   1.787   4.548   4.892  0.8323  0.5494 -0.1335
  103TIP3    H2  316   1.707   4.420   4.894 -1.6068  2.0061 -0.4257
  104TIP3   OH2  317   5.818   1.537   0.623  0.3004 -0.6194  0.4385
  104TIP3    H1  318   5.836   1.540   0.530  0.7652  0.9981  0.5404
  104TIP3    H2  319   5.839   1.448   0.650  1.3751 -0.7528 -0.7689
  105TIP3   OH2  320   2.801   1.107   1.390  0.2701  0.1986 -0.6729
  105TIP3    H1  321   2.862   1.038   1.416  1.3318  0.8551 -1.3167
  105TIP3    H2  322   2.720   1.060   1.370  1.2493 -1.0311 -2.0824
  106TIP3   OH2  323   0.095   0.044   4.321 -0.3378 -0.1664 -0.7270
  106TIP3    H1  324   0.114   0.138   4.326 -0.8214 -0.1313  2.4937
  106TIP3    H2  325   0.007   0.039   4.285 -0.5842  0.6624 -0.2631
  107TIP3   OH2  326   0.819   5.151   3.305  0.8949 -0.1015 -0.1947
  107TIP3    H1  327   0.842   5.232   3.260 -0.9800  0.2976 -0.4984
  107TIP3    H2  328   0.733   5.168   3.343  0.8797 -1.6421  0.5223
  108TIP3   OH2  329   4.393   1.620   4.045 -0.5295  0.5937 -0.4960
  108TIP3    H1  330   4.414   1.541   4.096 -1.6770 -0.0222 -0.9365
  108TIP3    H2  331   4.474   1.671   4.046  0.5572 -1.0226 -0.9716
  109TIP3   OH2  332   4.615   0.067   0.633 -0.2341 -0.2649  0.6809
  109TIP3    H1  333   4.700   0.063   0.678  0.3801 -0.4748 -0.4491
  109TIP3    H2  334   4.613  -0.011   0.579 -1.1608 -0.2568  0.6847
  110TIP3   OH2  335   4.780   4.674   1.273  0.6386 -0.1677  0.6448
  110TIP3    H1  336   4.839   4.695   1.345 -1.8145  0.3364  2.6268
  110TIP3    H2  337   4.746   4.759   1.244  0.2219 -0.5122  0.0975
  111TIP3   OH2  338   0.628   0.792   3.944 -0.0989  0.4723  0.0816
  111TIP3    H1  339   0.694   0.784   3.876 -1.2095  0.6966 -1.0609
  111TIP3    H2  340   0.678   0.804   4.025  1.3261 -2.0716 -0.2991
  112TIP3   OH2  341   3.227   4.131   2.035 -0.1390 -0.0977 -0.5439
  112TIP3    H1  342   3.321   4.127   2.020 -0.2670 -2.5267 -1.0751
  112TIP3    H2  343   3.197   4.040   2.030 -2.3120  0.4350  1.0131
  113TIP3   OH2  344   4.255   2.982   3.747  0.3928  0.3981 -0.3678
  113TIP3    H1  345   4.227   2.898   3.712 -0.0362  0.5111 -0.2916
  113TIP3    H2  346   4.263   3.039   3.670 -0.3412  0.5846 -0.3133
  114TIP3   OH2  347   3.330   2.901   1.166 -0.2538 -0.2481 -0.0653
  114TIP3    H1  348   3.344   2.936   1.079  2.4880 -0.5941  0.1491
  114TIP3    H2  349   3.255   2.949   1.200 -0.1024  1.3525 -1.8497
  115TIP3   OH2  350   3.527   5.912   4.430  0.5170 -0.4222  0.3356
  115TIP3    H1  351   3.557   6.003   4.433  0.0095 -0.2686  1.8875
  115TIP3    H2  352   3.523   5.885   4.522 -0.0069 -1.7989 -0.0621
  116TIP3   OH2  353   1.469   1.702   4.887  0.3908 -0.2550  0.0705
  116TIP3    H1  354   1.560   1.707   4.857 -0.2052 -0.1146 -1.8041
  116TIP3    H2  355   1.476   1.668   4.976  2.2585 -0.6833 -0.1916
  117TIP3   OH2  356   1.044   4.496   1.876  0.3047  0.2577  0.0407
  117TIP3    H1  357   1.088   4.523   1.795 -0.2379  0.0033 -0.3435
  117TIP3    H2  358   0.954   4.477   1.849  0.2547 -0.3413  0.6100
  118TIP3   OH2  359   1.773   4.391   3.372  0.3442  0.0168  0.3286
  118TIP3    H1  360   1.684   4.418   3.393  0.5064  1.6230 -0.8620
  118TIP3    H2  361   1.766   4.299   3.346 -0.9832  0.1675  0.1086
  119TIP3   OH2  362   3.397   0.210   2.651 -0.3556 -0.3230  0.0113
  119TIP3    H1  363   3.468   0.269   2.626  0.2936 -0.7674  0.7362
  119TIP3    H2  364   3.344   0.201   2.572 -0.3269  1.0209 -0.1833
  120TIP3   OH2  365   0.406   3.299   3.191  0.3808  0.2657  0.0988
  120TIP3    H1  366   0.452   3.284   3.274 -0.4111  0.4475  0.5802
  120TIP3    H2  367   0.377   3.212   3.165 -1.7028  0.4923  1.4149
  121TIP3   OH2  368   6.076   1.527   3.184  0.4479  0.6028  0.4415
  121TIP3    H1  369   6.046   1.616   3.202  2.2602  1.4625 -0.5376
  121TIP3    H2  370   6.073   1.483   3.270  2.1945  2.4736  1.5514
  122TIP3   OH2  371   2.580   4.809   3.944  0.1071 -0.4892 -0.0358
  122TIP3    H1  372   2.492   4.825   3.910  0.2542 -2.4887 -1.5520
  122TIP3    H2  373   2.626   4.765   3.872  2.2915  0.3024  0.8002
  123TIP3   OH2  374   2.496   0.654   0.068  0.1122 -0.7459 -0.1430
  123TIP3    H1  375   2.571   0.637   0.124  0.3486 -0.3989 -0.3524
  123TIP3    H2  376   2.450   0.726   0.111  1.3264  0.8229 -1.3573
  124TIP3   OH2  377   3.324   3.204   4.198  0.1086 -0.1478  0.2643
  124TIP3    H1  378   3.369   3.120   4.192  0.1219 -0.1952  0.9475
  124TIP3    H2  379   3.385   3.266   4.157 -0.9792 -0.8319 -2.5928
  125TIP3   OH2  380   1.397   1.094   2.793  0.4963 -0.4173  0.1817
  125TIP3    H1  381   1.453   1.033   2.746 -0.5066 -0.2143 -1.3663
  125TIP3    H2  382   1.331   1.120   2.728 -0.1476  0.9303  1.3300
  126TIP3   OH2  383   3.144   4.712   2.487  0.2775 -0.6962 -0.1045
  126TIP3    H1  384   3.127   4.705   2.393  0.1209 -1.3126 -0.0318
  126TIP3    H2  385   3.089   4.644   2.527  0.4877 -0.5651  0.4188
  127TIP3   OH2  386   5.976   3.647   2.181 -0.0916 -0.2670  0.0532
  127TIP3    H1  387   6.025   3.619   2.104  0.3640 -0.6214  0.4638
  127TIP3    H2  388   6.014   3.731   2.205 -1.1191  0.5002 -0.8784
  128TIP3   OH2  389   1.146   1.362   4.962  0.7183 -0.4030 -0.6244
  128TIP3    H1  390   1.070   1.346   5.017  0.0220  2.7536 -0.5041
  128TIP3    H2  391   1.128   1.313   4.882  0.5647 -2.9925  0.8754
  129TIP3   OH2  392   0.791   1.678   3.491  0.7774 -0.1207 -0.1329
  129TIP3    H1  393   0.872   1.664   3.539  0.4245 -1.1143  0.1866
  129TIP3    H2  394   0.807   1.759   3.442  1.2181  0.8173  1.4713
  130TIP3   OH2  395   1.634   0.098   2.178 -0.4652  0.0912  0.3126
  130TIP3    H1  396   1.571   0.121   2.247  0.3208  1.8775  0.5067
  130TIP3    H2  397   1.655   0.182   2.136  1.0163 -0.6002 -0.4082
  131TIP3   OH2  398   6.268   1.818   1.567 -0.0400  0.1030  0.3904
  131TIP3    H1  399   6.339   1.765   1.531  0.6128  1.6596 -0.7074
  131TIP3    H2  400   6.188   1.778   1.532  0.3581 -0.8257  0.5148
  132TIP3   OH2  401   0.695   5.152   2.299  0.1247  0.4325 -0.0397
  132TIP3    H1  402   0.724   5.085   2.361  0.6801 -0.2946 -1.0494
  132TIP3    H2  403   0.773   5.172   2.247 -1.0078 -1.3328 -2.6113
  133TIP3   OH2  404   5.778   3.072   4.098  0.5527 -0.5795 -0.5072
  133TIP3    H1  405   5.806   3.163   4.104  2.5585 -1.2425  2.0533
  133TIP3    H2  406   5.700   3.066   4.153  0.1551 -0.3527 -1.0361
  134TIP3   OH2  407   4.325   3.575   2.874 -0.1835 -0.7726  0.0591
  134TIP3    H1  408   4.402   3.537   2.832 -0.5373 -0.2564 -1.0841
  134TIP3    H2  409   4.295   3.507   2.935  0.8580 -1.1797  0.1448
  135TIP3   OH2  410   1.496   5.375   1.418  0.1246  0.2473  0.2813
  135TIP3    H1  411   1.582   5.365   1.458  0.1536  0.0233  0.1674
  135TIP3    H2  412   1.502   5.457   1.369  0.1972  0.3505  0.4644
  136TIP3   OH2  413   1.782   2.055   1.779 -0.2832 -0.1064 -0.8987
  136TIP3    H1  414   1.767   1.967   1.744  0.0656  0.0426 -1.4441
  136TIP3    H2  415   1.752   2.050   1.869  0.3359 -0.9757 -0.7233
  137TIP3   OH2  416   0.587   1.426   2.511 -0.0504  0.4482 -0.8890
  137TIP3    H1  417   0.497   1.432   2.542  0.5726  0.5906  1.0040
  137TIP3    H2  418   0.587   1.472   2.427 -1.6669  0.7182 -0.7628
  138TIP3   OH2  419   4.729   0.670   4.392 -0.0775 -0.0656  0.6571
  138TIP3    H1  420   4.713   0.595   4.450  0.0880 -0.0993  0.6605
  138TIP3    H2  421   4.817   0.700   4.416  0.0487 -0.1648  0.3304
  139TIP3   OH2  422   5.268   1.169   0.862  0.2944  0.2793  0.3373
  139TIP3    H1  423   5.271   1.157   0.957 -1.4485  0.4593  0.4473
  139TIP3    H2  424   5.203   1.107   0.831  0.5611  0.4871 -0.7067
  140TIP3   OH2  425   1.197   0.615   1.529 -0.5147 -0.3009  0.5608
  140TIP3    H1  426   1.187   0.524   1.504  1.4853 -0.2014 -0.8540
  140TIP3    H2  427   1.126   0.661   1.483  0.5623 -0.7221 -1.6945
  141TIP3   OH2  428   2.922   2.036   0.793  0.1965  0.4696 -0.3739
  141TIP3    H1  429   2.871   2.022   0.874  0.4926  1.2069 -0.0578
  141TIP3    H2  430   2.857   2.029   0.723  0.2220 -2.1350 -0.2623
  142TIP3   OH2  431   2.351   3.396   4.011  0.3745  0.2013 -0.6821
  142TIP3    H1  432   2.414   3.447   4.062 -0.6345  1.3531 -0.5423
  142TIP3    H2  433   2.266   3.432   4.036 -0.5101 -2.3434  0.3176
  143TIP3   OH2  434   1.857   1.229   4.170 -0.4664  0.2832 -0.2088
  143TIP3    H1  435   1.833   1.285   4.096 -0.6774  0.3009 -0.1282
  143TIP3    H2  436   1.893   1.289   4.235  0.3579  0.1841 -0.5607
  144TIP3   OH2  437   4.078   5.571   1.651 -0.3561 -0.0922  0.9033
  144TIP3    H1  438   4.032   5.649   1.681  0.5723  0.6365  0.4483
  144TIP3    H2  439   4.151   5.603   1.599  1.1274 -1.2045  2.2025
  145TIP3   OH2  440   4.420   3.966   2.484  0.0901 -0.9460  0.7053
  145TIP3    H1  441   4.426   3.871   2.490  0.6476 -0.9254  0.5901
  145TIP3    H2  442   4.331   3.987   2.513 -0.6397 -1.6298 -0.9316
  146TIP3   OH2  443   0.267   4.153   4.791  0.5485 -0.0494 -0.4366
  146TIP3    H1  444   0.274   4.176   4.884  1.2277 -1.0983 -0.2030
  146TIP3    H2  445   0.302   4.228   4.744 -0.6939  0.8958  0.0999
  147TIP3   OH2  446   1.760   5.181   0.962  0.2363 -0.4125  0.6371
  147TIP3    H1  447   1.730   5.185   0.871  2.9294  1.7697 -0.2997
  147TIP3    H2  448   1.837   5.125   0.960  0.6463  0.1003  1.4575
  148TIP3   OH2  449   1.220   5.711   3.561 -0.2886 -0.7602 -0.6895
  148TIP3    H1  450   1.256   5.736   3.476  0.8516  0.2971  0.0703
  148TIP3    H2  451   1.148   5.652   3.540 -0.6178  0.1904 -2.4161
  149TIP3   OH2  452   1.530   5.621   1.990  0.3004 -0.2451 -0.0203
  149TIP3    H1  453   1.480   5.693   1.951 -1.0907 -1.4748 -0.6113
  149TIP3    H2  454   1.553   5.653   2.077  1.8712  1.8505 -1.1247
  150TIP3   OH2  455   3.850   4.172   1.245 -0.3348 -0.1843 -1.1881
  150TIP3    H1  456   3.823   4.188   1.155 -0.7724  1.6863 -0.7564
  150TIP3    H2  457   3.936   4.214   1.253 -0.5690  0.2039 -0.5844
  151TIP3   OH2  458   0.269   2.423   3.313 -0.7951 -0.4855  0.2091
  151TIP3    H1  459   0.358   2.452   3.333 -0.6673 -0.8371  0.1685
  151TIP3    H2  460   0.276   2.386   3.224 -0.6503 -1.8531  0.7600
  152TIP3   OH2  461   5.330   4.315   0.810 -0.2052  0.1383  0.1499
  152TIP3    H1  462   5.389   4.376   0.768  1.3692  0.6872  2.8968
  152TIP3    H2  463   5.357   4.229   0.778  1.6438  0.4431  0.7618
  153TIP3   OH2  464   3.582   4.635   0.311 -0.1114 -0.4205 -0.4105
  153TIP3    H1  465   3.522   4.640   0.386  0.5621  2.7278  0.0704
  153TIP3    H2  466   3.548   4.699   0.249 -0.0187 -2.1988 -2.4040
  154TIP3   OH2  467   0.454   2.836   2.357  0.2846  0.1407  0.0779
  154TIP3    H1  468   0.484   2.905   2.298 -0.6886  0.9364  0.4819
  154TIP3    H2  469   0.374   2.802   2.315  0.1374  0.0306  0.4397
  155TIP3   OH2  470   3.344   3.500   2.455 -0.0359 -0.3386 -0.3149
  155TIP3    H1  471   3.361   3.420   2.505  2.5965  0.6490  0.5427
  155TIP3    H2  472   3.271   3.542   2.502 -0.2152 -1.3214  0.3253
  156TIP3   OH2  473   0.961   5.148   4.309  0.5909  0.1072  0.5494
  156TIP3    H1  474   0.948   5.239   4.284  0.9077  0.7982  2.6878
  156TIP3    H2  475   1.006   5.152   4.393 -0.7102 -2.0029  1.4472
  157TIP3   OH2  476   0.062   3.669   0.980  0.3629  0.0584  0.6435
  157TIP3    H1  477  -0.001   3.603   1.007  0.8360 -0.9188 -0.5243
  157TIP3    H2  478   0.046   3.680   0.886 -0.5282  2.5440  1.0184
  158TIP3   OH2  479   6.015   2.292   4.787 -0.1470 -0.7060  0.0836
  158TIP3    H1  480   5.970   2.210   4.805 -0.7016 -0.3310  0.4407
  158TIP3    H2  481   5.947   2.359   4.797  0.4980 -0.1268  0.6499
  159TIP3   OH2  482   3.992   5.892   4.722 -0.2202  0.3742 -0.0082
  159TIP3    H1  483   4.000   5.931   4.809 -1.7702  0.6160  0.0400
  159TIP3    H2  484   4.033   5.806   4.730  0.3406  0.7014  0.7375
  160TIP3   OH2  485   2.567   1.431   4.147 -0.1283 -0.5189 -0.2661
  160TIP3    H1  486   2.643   1.476   4.184  1.0981 -1.4325 -1.5875
  160TIP3    H2  487   2.536   1.490   4.078  0.1207 -0.6828 -0.5205
  161TIP3   OH2  488   1.096   4.714   2.059  0.5374 -0.0841 -0.3490
  161TIP3    H1  489   1.052   4.646   2.007 -0.3098  1.7190 -2.1314
  161TIP3    H2  490   1.037   4.731   2.132  0.5151 -0.8712 -0.1710
  162TIP3   OH2  491   3.990   1.185   3.524 -0.0946 -0.1457 -0.5048
  162TIP3    H1  492   3.895   1.189   3.523 -0.1350 -0.0084  1.4979
  162TIP3    H2  493   4.016   1.215   3.437 -1.9004 -1.9468 -1.7590
  163TIP3   OH2  494   2.881   3.499   5.116  0.2372 -0.3399  0.2389
  163TIP3    H1  495   2.926   3.534   5.039  0.1437 -0.4079  0.1542
  163TIP3    H2  496   2.813   3.563   5.135 -0.4579 -0.8748 -0.4004
  164TIP3   OH2  497   3.147   5.346   1.474  0.0564  0.2637  0.4981
  164TIP3    H1  498   3.195   5.402   1.414  1.7755 -0.7177  0.9007
  164TIP3    H2  499   3.108   5.407   1.537  1.5249  1.0543  0.6847
  165TIP3   OH2  500   3.679   1.826   4.693  0.4513 -0.1987  0.1834
  165TIP3    H1  501   3.697   1.910   4.734 -0.0078  0.4043 -0.8033
  165TIP3    H2  502   3.594   1.839   4.649  0.8989 -0.8111 -0.8990
  166TIP3   OH2  503   5.943   2.932   2.332  0.3839  0.3570  0.4601
  166TIP3    H1  504   5.917   2.872   2.402  0.0559 -2.0209 -1.5644
  166TIP3    H2  505   5.867   2.988   2.320  0.0442  0.0981  1.2898
  167TIP3   OH2  506   4.519   4.882   4.316  0.4511 -0.0792 -0.0621
  167TIP3    H1  507   4.563   4.900   4.399 -1.3562  0.1185  0.8803
  167TIP3    H2  508   4.533   4.789   4.301  1.3136  0.0078  0.1119
  168TIP3   OH2  509   5.268   3.441  -0.002  0.5227  0.0799  0.0469
  168TIP3    H1  510   5.175   3.436  -0.027  1.2552 -0.1515 -3.0225
  168TIP3    H2  511   5.274   3.522   0.049 -1.3222  0.2143  0.1489
  169TIP3   OH2  512   3.691   2.029   0.115  0.1016 -0.1080 -0.2135
  169TIP3    H1  513   3.602   2.064   0.120  0.5882  1.0978  0.4230
  169TIP3    H2  514   3.708   1.990   0.200  0.1444 -0.4246 -0.3659
  170TIP3   OH2  515   0.669   2.691   0.395  0.3561  0.0021 -0.0988
  170TIP3    H1  516   0.725   2.733   0.461 -0.3986  0.6494  0.1355
  170TIP3    H2  517   0.637   2.763   0.341 -0.1374 -0.3839 -0.3252
  171TIP3   OH2  518   1.746   0.967   1.062 -0.1759 -0.3338  0.0039
  171TIP3    H1  519   1.705   0.931   0.983  0.2562 -0.5886 -0.1122
  171TIP3    H2  520   1.682   0.954   1.131  0.7200 -3.2598  0.4207
  172TIP3   OH2  521   4.174   4.650   2.219 -0.2260  0.2079  0.5414
  172TIP3    H1  522   4.242   4.666   2.284  0.8335  2.4083 -0.9916
  172TIP3    H2  523   4.219   4.652   2.135 -2.0430  0.8589 -0.4852
  173TIP3   OH2  524   5.469   3.264   2.841  0.2113 -0.1859 -0.2671
  173TIP3    H1  525   5.564   3.281   2.844  0.2199  0.1993 -1.7325
  173TIP3    H2  526   5.462   3.175   2.807  0.0385 -0.0604 -0.5562
  174TIP3   OH2  527   4.289   2.268   2.005 -0.1294 -0.1229 -0.0489
  174TIP3    H1  528   4.205   2.314   1.996  0.1169  0.8245  1.9360
  174TIP3    H2  529   4.282   2.222   2.089  1.2076 -0.2878 -0.0042
  175TIP3   OH2  530   0.394   3.793   0.966 -0.4873  0.1082 -0.1965
  175TIP3    H1  531   0.401   3.885   0.993 -0.0517  0.3557 -1.1253
  175TIP3    H2  532   0.310   3.787   0.920 -0.1928  0.2108 -0.7558
  176TIP3   OH2  533   0.186   3.947   3.859  0.1056  0.3687 -0.0000
  176TIP3    H1  534   0.226   3.992   3.784  0.1741 -0.0199 -0.2022
  176TIP3    H2  535   0.188   4.011   3.930 -1.2536  1.2580 -0.7069
  177TIP3   OH2  536   2.606   4.954   4.427  0.2191 -0.6338 -0.5690
  177TIP3    H1  537   2.614   4.987   4.338 -1.6283 -0.1738 -0.6008
  177TIP3    H2  538   2.531   4.895   4.424 -1.4367  1.2322  1.1408
  178TIP3   OH2  539   4.807   0.026   4.422  0.0379 -0.0169  0.2180
  178TIP3    H1  540   4.791   0.074   4.341 -0.9819  0.8949  0.9223
  178TIP3    H2  541   4.893   0.056   4.451 -0.3123  0.9260  0.3171
  179TIP3   OH2  542   1.671   1.204   1.611 -0.8310  0.1363  0.0085
  179TIP3    H1  543   1.683   1.192   1.517 -0.7732 -2.2102  0.2460
  179TIP3    H2  544   1.681   1.298   1.625 -1.8753  0.7108 -2.4579
  180TIP3   OH2  545   4.596   4.618   2.759  0.1010 -0.5207  0.1131
  180TIP3    H1  546   4.512   4.645   2.796  0.9368  0.5631  1.3224
  180TIP3    H2  547   4.582   4.528   2.729 -0.9445 -1.0659  2.1116
  181TIP3   OH2  548   2.532   4.523   1.980  0.3000  0.9215  0.2521
  181TIP3    H1  549   2.565   4.527   1.890 -0.3734  0.4017 -0.0254
  181TIP3    H2  550   2.438   4.534   1.972 -0.3079 -2.7601  0.4781
  182TIP3   OH2  551   5.040   1.686   1.973 -0.3639 -0.2124 -0.1088
  182TIP3    H1  552   5.114   1.658   2.027  0.1997  0.4771 -0.5211
  182TIP3    H2  553   5.065   1.772   1.940 -0.3586 -0.9395 -2.1081
  183TIP3   OH2  554   5.094   1.606   0.568  0.1510  0.3522 -0.4973
  183TIP3    H1  555   5.090   1.514   0.591  0.0334  0.2146 -1.0623
  183TIP3    H2  556   5.187   1.624   0.554  0.0508  0.0102 -1.6285
  184TIP3   OH2  557   4.980   1.456   5.177 -0.5192 -0.1708  0.0201
  184TIP3    H1  558   5.052   1.431   5.119 -1.1738  0.0859 -0.9264
  184TIP3    H2  559   4.967   1.549   5.160 -1.2444 -0.2742 -0.0146
  185TIP3   OH2  560   5.690   0.216   2.720 -0.1582 -0.1678  0.0243
  185TIP3    H1  561   5.672   0.284   2.655 -0.4846  0.4598  0.7680
  185TIP3    H2  562   5.740   0.150   2.671 -0.2649  0.3626 -0.8273
  186TIP3   OH2  563   5.368   1.163   4.847  0.1636  0.1730 -0.4231
  186TIP3    H1  564   5.402   1.115   4.772 -0.7721 -1.6606  0.2745
  186TIP3    H2  565   5.446   1.196   4.892  0.7584  0.6560 -1.7580
  187TIP3   OH2  566   6.031   4.210   0.090  0.0412  0.2142 -0.1322
  187TIP3    H1  567   6.035   4.141   0.024 -0.8718 -0.7446  0.7832
  187TIP3    H2  568   6.123   4.233   0.106  0.2691  0.6792 -1.9192
  188TIP3   OH2  569   4.147   0.568   1.883 -0.4518  0.7551 -0.2256
  188TIP3    H1  570   4.237   0.598   1.885 -0.4463  0.6861  0.7275
  188TIP3    H2  571   4.099   0.639   1.840  0.3883 -0.1990 -2.9486
  189TIP3   OH2  572   5.539   2.021   1.015 -0.0212 -0.0282 -0.1719
  189TIP3    H1  573   5.538   2.111   1.047 -1.6933 -0.4330  1.0984
  189TIP3    H2  574   5.626   1.989   1.035  0.1697  0.9058  0.5677
  190TIP3   OH2  575   3.371   3.490   4.076 -0.1331 -0.3500 -0.4340
  190TIP3    H1  576   3.467   3.492   4.073 -0.0496 -1.2594  0.7314
  190TIP3    H2  577   3.348   3.557   4.140 -0.1928 -0.8831  0.1181
  191TIP3   OH2  578   3.088   2.757   3.246 -0.1141  0.2456  0.0455
  191TIP3    H1  579   3.165   2.753   3.304 -0.6296  0.1366  0.7405
  191TIP3    H2  580   3.052   2.844   3.262 -0.5604  0.0205  0.2953
  192TIP3   OH2  581   1.410   1.322   4.947 -0.3002  0.3959  0.1391
  192TIP3    H1  582   1.318   1.343   4.964 -0.9528 -2.3004  0.4424
  192TIP3    H2  583   1.438   1.272   5.024  1.3741  0.9721 -0.0549
  193TIP3   OH2  584   1.573   5.327   2.332 -0.2949  0.0520  0.2830
  193TIP3    H1  585   1.489   5.293   2.365 -1.8535  1.8300 -1.5912
  193TIP3    H2  586   1.549   5.405   2.282  2.5841  0.9748  0.1745
  194TIP3   OH2  587   0.942   0.576   2.059 -0.3760  0.1869  0.3821
  194TIP3    H1  588   1.007   0.641   2.032 -0.0823 -0.7618 -1.3367
  194TIP3    H2  589   0.940   0.513   1.987 -0.8883 -1.5375  1.8278
  195TIP3   OH2  590   0.040   3.801   3.022 -0.0147  0.1251 -0.0536
  195TIP3    H1  591   0.058   3.864   3.091  1.4060  1.1656 -1.3016
  195TIP3    H2  592  -0.049   3.820   2.994 -0.6612 -0.3998  1.5195
  196TIP3   OH2  593   4.863   0.349   4.235 -0.3153 -0.5059  0.2947
  196TIP3    H1  594   4.840   0.442   4.227  0.3084 -0.2367  1.3754
  196TIP3    H2  595   4.904   0.342   4.321 -0.7019 -1.8647  0.3949
  197TIP3   OH2  596   4.318   1.315   3.528 -0.5512  0.4531  0.6705
  197TIP3    H1  597   4.347   1.357   3.447 -0.4714  0.8588  0.9064
  197TIP3    H2  598   4.392   1.327   3.588 -0.5899  0.1092  0.7878
  198TIP3   OH2  599   3.147   5.732   4.340  0.3297  0.2009  0.5639
  198TIP3    H1  600   3.160   5.823   4.367  0.5771 -0.2821  2.1558
  198TIP3    H2  601   3.122   5.738   4.248  0.2793  1.8808  0.6551
  199TIP3   OH2  602   3.497   0.353   2.457  0.0627  0.5505  0.5868
  199TIP3    H1  603   3.574   0.312   2.418  0.5208  0.7189  1.2887
  199TIP3    H2  604   3.529   0.438   2.487  0.0772 -0.0831  2.4974
  200TIP3   OH2  605   3.240   4.527   1.164  0.0251  0.4484  0.0231
  200TIP3    H1  606   3.246   4.439   1.128  0.2641  0.7606 -0.7217
  200TIP3    H2  607   3.148   4.536   1.191 -0.1068  0.1297 -0.3157
  201TIP3   OH2  608   6.352   2.052   5.122 -0.6272  0.1764 -0.2212
  201TIP3    H1  609   6.341   2.028   5.214 -0.5527  2.7898  0.5543
  201TIP3    H2  610   6.280   2.113   5.105  1.1748  2.2307 -0.9030
  202TIP3   OH2  611   5.540   0.917   0.505  0.2626  0.4557  0.2423
  202TIP3    H1  612   5.580   0.836   0.474 -0.0814  0.9755 -1.6897
  202TIP3    H2  613   5.556   0.980   0.435 -0.7031  1.6842  1.0762
  203TIP3   OH2  614   0.192   0.968   1.905  0.5405 -0.2397 -0.1200
  203TIP3    H1  615   0.146   0.918   1.837  0.8965 -1.1598  0.3012
  203TIP3    H2  616   0.168   0.925   1.987  1.4992 -0.2313  0.1806
  204TIP3   OH2  617   1.678   0.757   5.084 -0.3964  0.7267  0.4993
  204TIP3    H1  618   1.587   0.738   5.061  0.2071 -1.4075 -0.3906
  204TIP3    H2  619   1.681   0.749   5.179 -1.2231  1.2542  0.5770
  205TIP3   OH2  620   2.108   0.769   2.117 -0.0823  0.1763 -0.4996
  205TIP3    H1  621   2.018   0.789   2.143 -0.2556  0.2459 -1.1332
  205TIP3    H2  622   2.162   0.826   2.172 -0.5170  1.5808 -1.4548
  206TIP3   OH2  623   4.314   5.324   4.251  0.0331  0.0878 -0.4145
  206TIP3    H1  624   4.298   5.293   4.340 -2.4728 -0.1355 -0.8709
  206TIP3    H2  625   4.294   5.249   4.196  1.8398  0.1406 -1.1979
  207TIP3   OH2  626   5.117   3.711   1.475  0.6807 -0.0101  0.2672
  207TIP3    H1  627   5.053   3.747   1.537 -0.1928 -0.1621 -0.5287
  207TIP3    H2  628   5.146   3.629   1.516  2.4538  1.3294  1.9456
  208TIP3   OH2  629   3.135   1.152   3.763 -0.0480  0.1816  0.3750
  208TIP3    H1  630   3.080   1.120   3.834 -1.0972  0.6723 -0.1833
  208TIP3    H2  631   3.194   1.214   3.804 -0.8538  0.6959  0.7866
  209TIP3   OH2  632   2.437   4.769   2.389  0.2661 -0.3859  0.4324
  209TIP3    H1  633   2.432   4.673   2.396  0.6467 -0.3996  0.5803
  209TIP3    H2  634   2.487   4.784   2.309  1.9902 -0.3585  1.4615
  210TIP3   OH2  635   4.738   2.030   3.364 -0.3789 -0.4122  0.0988
  210TIP3    H1  636   4.663   1.978   3.333 -0.4652 -0.2062 -0.0422
  210TIP3    H2  637   4.710   2.121   3.351  0.6073 -0.3124 -1.7234
  211TIP3   OH2  638   4.391   1.047   1.429  0.0735  0.2982 -0.2520
  211TIP3    H1  639   4.479   1.023   1.398  0.5080  0.5171  0.7483
  211TIP3    H2  640   4.398   1.141   1.449  0.2064 -0.0781  1.6625
  212TIP3   OH2  641   5.562   0.729   3.880 -0.2696 -0.3883  0.4098
  212TIP3    H1  642   5.648   0.689   3.866 -0.0705 -0.9089  2.6493
  212TIP3    H2  643   5.501   0.655   3.876 -0.5863 -0.0732 -0.8175
  213TIP3   OH2  644   3.493   2.541   2.368  0.1869 -0.1530  0.2771
  213TIP3    H1  645   3.485   2.612   2.304 -1.2483 -0.8740 -0.3854
  213TIP3    H2  646   3.438   2.570   2.442  0.8990  0.1364  0.7102
  214TIP3   OH2  647   2.434   3.257   1.025  0.4288  0.2006  0.1662
  214TIP3    H1  648   2.490   3.189   0.987  0.2331  0.6973 -1.0479
  214TIP3    H2  649   2.377   3.210   1.086  1.3292 -0.4898  0.5050
  215TIP3   OH2  650   5.033   1.095   3.757  0.4033 -0.2962  0.3626
  215TIP3    H1  651   4.969   1.081   3.687 -0.5393 -2.1422  1.5168
  215TIP3    H2  652   4.995   1.163   3.812 -0.9511 -1.7986  1.3770
  216TIP3   OH2  653   0.885   0.669   3.231 -0.3090 -0.1026  0.6371
  216TIP3    H1  654   0.970   0.663   3.188 -0.3909  0.3610  0.4018
  216TIP3    H2  655   0.902   0.719   3.312 -0.5759  1.1448 -0.0462
  217TIP3   OH2  656   2.111   4.378   2.184 -0.3044  0.1339 -0.3844
  217TIP3    H1  657   2.019   4.349   2.184 -0.4459  0.4822 -2.1585
  217TIP3    H2  658   2.108   4.468   2.218 -0.6225  0.1583 -0.4744
  218TIP3   OH2  659   1.801   3.601   1.791  0.5214  0.5134 -0.0734
  218TIP3    H1  660   1.773   3.676   1.740 -1.1289  0.2845  0.4529
  218TIP3    H2  661   1.894   3.617   1.808  0.7083  1.3915 -1.7124
  219TIP3   OH2  662   3.006   5.732   3.002 -0.5602 -0.1785 -0.1147
  219TIP3    H1  663   2.969   5.767   3.084  0.0239  0.7154 -0.2227
  219TIP3    H2  664   3.036   5.644   3.025  1.4364  0.7714  1.1979
  220TIP3   OH2  665   0.492   4.023   3.159  0.2647  0.2991  0.1138
  220TIP3    H1  666   0.447   3.999   3.078  1.3419  2.4427 -1.1968
  220TIP3    H2  667   0.422   4.058   3.215 -0.4444 -0.9439  0.0510
  221TIP3   OH2  668   0.670   2.574   0.788 -0.0153 -0.2958  0.4168
  221TIP3    H1  669   0.593   2.537   0.745  0.1934 -0.0113 -0.2168
  221TIP3    H2  670   0.677   2.525   0.870 -0.0830 -1.2546 -0.1304
  222TIP3   OH2  671   4.318   4.867   3.672 -0.1645  0.4985  0.1237
  222TIP3    H1  672   4.412   4.853   3.668 -0.2970 -0.6946  0.7494
  222TIP3    H2  673   4.304   4.949   3.624  1.1046  0.3298 -0.5872
  223TIP3   OH2  674   3.018   3.065   2.507  0.4399  0.0673  0.5696
  223TIP3    H1  675   3.010   2.977   2.470  0.0440  0.8179 -1.2271
  223TIP3    H2  676   3.039   3.050   2.599  1.4872 -1.8931  0.0705
  224TIP3   OH2  677   2.624   5.419   3.873 -0.5373 -0.2919 -0.0850
  224TIP3    H1  678   2.568   5.478   3.924  0.4500  1.6212 -1.0954
  224TIP3    H2  679   2.564   5.369   3.818 -1.4671 -0.9970  1.5137
  225TIP3   OH2  680   4.688   4.394   4.496  0.3054 -0.3509  1.0646
  225TIP3    H1  681   4.782   4.383   4.511  0.3144 -1.1009  0.4783
  225TIP3    H2  682   4.647   4.354   4.573  0.4446 -0.8410  0.8851
  226TIP3   OH2  683   5.748   5.215   3.159 -0.2615  0.7712 -0.2607
  226TIP3    H1  684   5.717   5.302   3.184 -1.7353  0.7729 -1.8625
  226TIP3    H2  685   5.698   5.193   3.080 -0.0182 -1.5933  0.1536
  227TIP3   OH2  686   6.228   4.657   0.721 -0.0273 -0.0267  0.1164
  227TIP3    H1  687   6.149   4.682   0.770  0.2526 -1.7800  1.5797
  227TIP3    H2  688   6.257   4.576   0.763  0.6664 -1.2477 -2.5357
  228TIP3   OH2  689   0.247   1.427   1.102 -0.1870  0.1864  0.1199
  228TIP3    H1  690   0.214   1.510   1.136 -1.5170 -0.3304  0.1425
  228TIP3    H2  691   0.184   1.402   1.034 -0.4679 -1.3427  0.8904
  229TIP3   OH2  692   2.400   2.848   0.314 -0.0230  0.3508 -0.0740
  229TIP3    H1  693   2.440   2.766   0.342  0.5992 -0.2296 -2.4451
  229TIP3    H2  694   2.471   2.897   0.272 -0.7665  1.3734 -0.1863
  230TIP3   OH2  695   0.643   0.085   3.607  0.0406  0.6581  0.3960
  230TIP3    H1  696   0.626   0.053   3.695  1.4357 -1.9175 -0.1562
  230TIP3    H2  697   0.557   0.097   3.568 -0.6127 -1.8020  0.9467
  231TIP3   OH2  698   3.491   5.008   3.990 -0.2517  0.6957  0.0019
  231TIP3    H1  699   3.488   4.913   3.981 -0.6233  0.7453 -0.4886
  231TIP3    H2  700   3.578   5.032   3.959  0.3902  0.3951  1.5158
  232TIP3   OH2  701   0.909   1.066   3.293  0.3709  0.1723 -0.4849
  232TIP3    H1  702   0.893   1.080   3.387  0.3293 -1.3784 -0.2320
  232TIP3    H2  703   0.991   1.017   3.291  2.0312  2.7827 -1.4526
  233TIP3   OH2  704   1.060   3.298   2.061  0.1937 -0.0044 -0.3489
  233TIP3    H1  705   1.061   3.247   1.981 -1.6280  0.2078 -0.5621
  233TIP3    H2  706   0.967   3.307   2.083  0.6467 -1.2843  2.5939
  234TIP3   OH2  707   2.286   1.129   3.495  0.2610  0.4359 -0.1822
  234TIP3    H1  708   2.230   1.206   3.494 -0.1363  0.1600  0.3794
  234TIP3    H2  709   2.345   1.141   3.421 -1.6245 -0.0702 -1.8449
  235TIP3   OH2  710   1.419   5.555   2.226  0.6849 -0.2137  0.1005
  235TIP3    H1  711   1.412   5.576   2.133  0.5007 -0.5823  0.0278
  235TIP3    H2  712   1.331   5.527   2.251  0.6138  0.3428  0.5049
  236TIP3   OH2  713   0.652   0.111   0.166  0.2533 -0.7349 -0.5490
  236TIP3    H1  714   0.717   0.043   0.144  1.4459  0.8443 -2.2317
  236TIP3    H2  715   0.705   0.190   0.181 -1.0196 -0.3375  2.3512
  237TIP3   OH2  716   0.004   4.654   2.955  0.5364  0.2924 -0.2836
  237TIP3    H1  717   0.004   4.746   2.979  1.7851  0.3633 -0.5322
  237TIP3    H2  718   0.039   4.609   3.031 -0.8868 -0.1000  0.1808
  238TIP3   OH2  719   1.019   3.840   4.386  0.1524  0.4067 -0.3210
  238TIP3    H1  720   0.973   3.919   4.415 -2.2750 -1.2596  0.6434
  238TIP3    H2  721   1.060   3.806   4.465  0.0586 -0.0077 -0.4503
  239TIP3   OH2  722   2.940   0.878   2.233 -0.0432  0.0451  0.4823
  239TIP3    H1  723   3.004   0.852   2.166 -0.0903  2.2303 -0.5161
  239TIP3    H2  724   2.983   0.950   2.279 -1.6782  1.4775 -0.1174
  240TIP3   OH2  725   6.291   0.309   0.183 -0.0178  0.0253 -0.4104
  240TIP3    H1  726   6.199   0.285   0.175 -0.1158  0.0461  0.5508
  240TIP3    H2  727   6.323   0.310   0.093 -0.6883 -1.0328 -0.6845
  241TIP3   OH2  728   1.628   4.334   1.216 -0.3137  0.5574 -0.6798
  241TIP3    H1  729   1.710   4.292   1.244  0.0321  0.3274 -1.9717
  241TIP3    H2  730   1.573   4.333   1.294 -0.1270 -1.8429 -0.4858
  242TIP3   OH2  731   5.967   0.756   0.883  0.5555  0.8917  0.6984
  242TIP3    H1  732   5.896   0.717   0.933  2.5855 -0.3347  2.7953
  242TIP3    H2  733   6.040   0.761   0.944  2.0507  2.9416 -1.1011
  243TIP3   OH2  734   1.656   5.649   4.901  0.1700  0.6655  0.3340
  243TIP3    H1  735   1.599   5.723   4.883  0.0979  0.6300  0.4166
  243TIP3    H2  736   1.597   5.578   4.925  0.2840  0.8778  1.3031
  244TIP3   OH2  737   4.272   1.077   4.092 -0.3026 -0.0061 -0.5233
  244TIP3    H1  738   4.252   1.094   4.184  0.7939  2.2952 -0.6290
  244TIP3    H2  739   4.212   1.008   4.066 -0.9771 -0.3564  1.7846
  245TIP3   OH2  740   1.706   4.977   4.192 -0.1405  0.5531  0.2437
  245TIP3    H1  741   1.747   4.912   4.136 -2.2444  0.5032 -1.3695
  245TIP3    H2  742   1.735   5.061   4.157 -1.3776  0.5193 -0.9488
  246TIP3   OH2  743   1.439   4.269   4.271 -1.1660  0.3313 -0.6725
  246TIP3    H1  744   1.383   4.243   4.197 -0.3369  1.1698 -1.6174
  246TIP3    H2  745   1.391   4.341   4.312 -2.3738 -1.1259  0.5811
  247TIP3   OH2  746   4.014   5.126   1.705 -0.0348 -0.0201 -0.1962
  247TIP3    H1  747   4.004   5.212   1.662  1.1217 -0.2649 -0.9914
  247TIP3    H2  748   3.943   5.073   1.669 -0.8251  0.6121  0.3790
  248TIP3   OH2  749   2.742   3.763   4.133 -0.2296 -0.4311  0.0873
  248TIP3    H1  750   2.702   3.840   4.173  0.5797  0.7894 -1.3436
  248TIP3    H2  751   2.824   3.751   4.181  1.0961  1.4696 -1.5381
  249TIP3   OH2  752   3.599   1.819   4.997 -0.0159  0.3967 -0.0228
  249TIP3    H1  753   3.622   1.804   4.906  1.4112 -1.1043  0.5182
  249TIP3    H2  754   3.504   1.820   4.998 -0.0785 -0.7664 -1.3795
  250TIP3   OH2  755   0.157   5.402   2.945  0.3891  0.3652  0.3347
  250TIP3    H1  756   0.152   5.490   2.909 -1.8401 -0.2343 -0.9943
  250TIP3    H2  757   0.096   5.402   3.018  1.5318  0.3047  1.3301
  251TIP3   OH2  758   3.235   5.706   3.206  0.0258  0.3013 -0.0455
  251TIP3    H1  759   3.167   5.773   3.205  0.5116  0.8147 -1.2001
  251TIP3    H2  760   3.204   5.639   3.145 -0.0732 -0.1257  0.4682
  252TIP3   OH2  761   1.057   5.199   0.615  0.1356 -0.1823 -0.3084
  252TIP3    H1  762   0.964   5.215   0.599  0.4117  0.0316 -1.8657
  252TIP3    H2  763   1.102   5.259   0.556  1.2725 -0.3903  0.3172
  253TIP3   OH2  764   4.917   5.639   2.535  0.3348  0.2353  0.2536
  253TIP3    H1  765   4.871   5.561   2.504  0.6533  0.2215 -0.1916
  253TIP3    H2  766   5.009   5.612   2.539  0.2763  0.1411  1.5120
  254TIP3   OH2  767   0.157   3.595   4.455 -0.3958  0.0031 -0.0288
  254TIP3    H1  768   0.093   3.586   4.526  1.2786  0.6196  1.6400
  254TIP3    H2  769   0.173   3.505   4.425 -0.4644 -0.3704  1.0153
  255TIP3   OH2  770   2.704   5.431   3.092  0.0049  0.4732 -0.0209
  255TIP3    H1  771   2.766   5.443   3.164 -0.6350  0.4907  0.5387
  255TIP3    H2  772   2.748   5.372   3.031  1.6521  2.5178 -0.9343
  256TIP3   OH2  773   1.487   2.338   1.949  0.0948  0.0462 -0.3742
  256TIP3    H1  774   1.529   2.259   1.980 -0.1264  0.9613  2.5507
  256TIP3    H2  775   1.556   2.387   1.904  0.7512 -0.8763 -0.3815
  257TIP3   OH2  776   3.681   4.201   3.035 -1.4520  0.1290 -0.3267
  257TIP3    H1  777   3.766   4.168   3.064 -1.0330  1.2206 -0.2351
  257TIP3    H2  778   3.622   4.184   3.108 -1.2471 -0.3773 -0.2755
  258TIP3   OH2  779   1.497   4.041   1.317  0.1134 -0.1532  0.2378
  258TIP3    H1  780   1.485   4.083   1.232  0.7143  2.3084  1.3060
  258TIP3    H2  781   1.578   3.991   1.308 -1.1100 -2.0493 -1.3442
  259TIP3   OH2  782   5.145   3.016   2.820 -0.4434  0.2464 -0.2883
  259TIP3    H1  783   5.111   3.032   2.732 -0.8621 -2.5700 -0.7410
  259TIP3    H2  784   5.235   2.984   2.805 -1.6248 -3.6546 -0.1438
  260TIP3   OH2  785   0.145   1.706   4.412  0.6746  0.0239 -0.0169
  260TIP3    H1  786   0.111   1.789   4.379 -0.4593 -0.9292 -1.3327
  260TIP3    H2  787   0.222   1.689   4.358  0.0483 -0.4864 -0.7728
  261TIP3   OH2  788   3.456   5.278   2.552  0.2148 -0.8925 -0.1022
  261TIP3    H1  789   3.539   5.267   2.507  1.2551  0.4890  1.3587
  261TIP3    H2  790   3.423   5.189   2.565  1.6975 -1.4962 -0.2969
  262TIP3   OH2  791   0.336   5.549   4.201  0.3890 -0.7880 -0.0247
  262TIP3    H1  792   0.320   5.523   4.111  0.4657  0.0364 -0.2833
  262TIP3    H2  793   0.249   5.569   4.236  0.3701 -1.0084  0.0578
  263TIP3   OH2  794   0.935   3.369   3.964 -0.0688  0.7898  0.6665
  263TIP3    H1  795   0.944   3.461   3.939  3.4565  0.4052 -0.0235
  263TIP3    H2  796   1.021   3.346   3.999 -0.3148 -2.6282 -0.6537
  264TIP3   OH2  797   1.064   5.388   2.682  0.0032 -0.1293  0.3861
  264TIP3    H1  798   1.074   5.482   2.700  0.6724  0.1259 -1.1428
  264TIP3    H2  799   1.142   5.365   2.631 -0.7218 -1.2434 -0.2691
  265TIP3   OH2  800   1.768   0.745   3.912 -0.6581 -0.0216 -0.6200
  265TIP3    H1  801   1.673   0.751   3.926 -0.6023  0.3826 -0.4044
  265TIP3    H2  802   1.798   0.836   3.909 -0.5407 -0.0930 -2.6374
  266TIP3   OH2  803   1.611   2.690   1.043  0.0745 -0.1192  0.2061
  266TIP3    H1  804   1.554   2.615   1.029  0.3113 -0.3088  0.2566
  266TIP3    H2  805   1.687   2.673   0.989  0.4363 -0.2484  0.7491
  267TIP3   OH2  806   4.901   5.019   2.645 -0.3877  0.3171  0.3747
  267TIP3    H1  807   4.817   5.049   2.678 -0.3913 -0.3271  0.9654
  267TIP3    H2  808   4.892   4.924   2.639  1.1722 -0.1107  3.0810
  268TIP3   OH2  809   0.047   1.687   0.184 -0.4319 -0.9234  0.6005
  268TIP3    H1  810   0.032   1.779   0.207 -1.4254 -1.4685  2.3232
  268TIP3    H2  811   0.140   1.674   0.199 -0.2640 -0.1815  0.2593
  269TIP3   OH2  812   0.201   2.023   2.106 -0.2167  0.4285 -0.1466
  269TIP3    H1  813   0.147   2.037   2.184 -0.3417  2.7072 -0.5805
  269TIP3    H2  814   0.162   1.946   2.064 -1.8583  0.7961  0.6259
  270TIP3   OH2  815   3.980   3.452   3.427 -0.2819 -0.4297  0.1804
  270TIP3    H1  816   4.023   3.530   3.462 -1.8353  0.0371  1.1022
  270TIP3    H2  817   3.908   3.485   3.374  1.3526 -1.1521 -2.7303
  271TIP3   OH2  818   0.249   0.266   1.167  0.6040 -0.3274 -0.0121
  271TIP3    H1  819   0.160   0.301   1.168  0.8812  0.4101 -0.1892
  271TIP3    H2  820   0.267   0.244   1.258  0.3642 -0.1420  0.0817
  272TIP3   OH2  821   0.323   2.879   4.885 -0.0242 -0.1815 -0.5581
  272TIP3    H1  822   0.327   2.822   4.809  1.2288 -1.6404  0.5528
  272TIP3    H2  823   0.377   2.955   4.861  2.2593 -1.6423 -0.3773
  273TIP3   OH2  824   5.998   5.327   3.909  0.1649  0.0423  0.8869
  273TIP3    H1  825   6.016   5.237   3.885 -2.1790 -0.5790  1.1933
  273TIP3    H2  826   6.052   5.343   3.986  0.4185 -1.1885  0.9837
  274TIP3   OH2  827   4.970   1.545   4.188 -0.0652 -0.4072  0.2824
  274TIP3    H1  828   5.064   1.530   4.187 -0.0176 -0.1082  0.3471
  274TIP3    H2  829   4.952   1.583   4.274 -0.1018  0.4594 -0.0981
  275TIP3   OH2  830   3.045   4.381   0.415 -0.2767  0.3218 -0.3466
  275TIP3    H1  831   3.073   4.446   0.350 -1.5795 -0.2140 -1.5002
  275TIP3    H2  832   3.022   4.433   0.492  1.0522  0.9945 -0.3636
  276TIP3   OH2  833   4.610   0.567   4.790 -0.1937  0.2563  0.3296
  276TIP3    H1  834   4.700   0.533   4.785 -0.3832 -0.1952 -0.1457
  276TIP3    H2  835   4.579   0.563   4.699 -1.0633 -0.6050  0.6529
  277TIP3   OH2  836   4.861   1.463   2.142  0.2325  0.3533  0.4342
  277TIP3    H1  837   4.939   1.415   2.116  0.9574  2.2274 -1.0807
  277TIP3    H2  838   4.893   1.532   2.200 -0.7872 -0.9127  2.6120
  278TIP3   OH2  839   4.398   3.675   3.323 -0.3158 -0.4745  0.2403
  278TIP3    H1  840   4.329   3.679   3.256  1.2231  0.8444 -1.3352
  278TIP3    H2  841   4.472   3.634   3.278  0.4175 -0.5186  1.4581
  279TIP3   OH2  842   2.680   2.628   1.902  0.1566  0.0491 -0.3826
  279TIP3    H1  843   2.705   2.696   1.964  1.0585 -1.7442  1.3418
  279TIP3    H2  844   2.586   2.615   1.917  0.0992  0.5146 -0.3184
  280TIP3   OH2  845   1.871   4.392   3.792  0.2662 -0.2458  1.0877
  280TIP3    H1  846   1.874   4.316   3.734  0.9569 -0.0278  0.8358
  280TIP3    H2  847   1.800   4.446   3.757  3.0355  1.7690 -1.9348
  281TIP3   OH2  848   1.576   3.521   0.620  0.0316  0.0018  0.0894
  281TIP3    H1  849   1.659   3.536   0.665 -0.2920  0.3573  0.5682
  281TIP3    H2  850   1.602   3.489   0.533  0.6883  0.9709 -0.0895
  282TIP3   OH2  851   0.097   5.899   2.483 -0.1568 -0.0750 -0.1634
  282TIP3    H1  852   0.122   5.807   2.470 -1.2337 -0.1356 -2.0725
  282TIP3    H2  853   0.143   5.946   2.414 -0.1113  0.7512  0.4193
  283TIP3   OH2  854   5.740   0.367   4.887 -0.1732 -0.4068  0.1282
  283TIP3    H1  855   5.698   0.282   4.876 -1.0153  0.1508 -1.2789
  283TIP3    H2  856   5.832   0.351   4.867 -0.0568 -1.2317  1.2074
  284TIP3   OH2  857   3.175   5.233   5.116 -0.0765 -0.4634  0.3306
  284TIP3    H1  858   3.265   5.259   5.135 -0.8726  2.3363  0.7295
  284TIP3    H2  859   3.166   5.248   5.022  0.0771 -1.4588  0.1545
  285TIP3   OH2  860   5.489   1.806   4.529  0.4574  0.0241  0.0155
  285TIP3    H1  861   5.441   1.724   4.516  0.7587  0.0822 -1.6632
  285TIP3    H2  862   5.557   1.805   4.462  0.1484  1.8924 -0.3730
  286TIP3   OH2  863   5.356   3.425   0.305  0.5852 -0.1534 -0.0443
  286TIP3    H1  864   5.315   3.413   0.391  1.4535 -1.0862  0.2500
  286TIP3    H2  865   5.328   3.513   0.278  1.9645  1.0356  2.1045
  287TIP3   OH2  866   0.584   1.651   3.693 -0.0458  0.1348 -0.0131
  287TIP3    H1  867   0.560   1.742   3.708  2.3668  0.7217  0.6761
  287TIP3    H2  868   0.645   1.653   3.619  1.5996 -0.6043  1.2433
  288TIP3   OH2  869   0.256   0.324   3.950  0.0693 -0.4597  0.4525
  288TIP3    H1  870   0.170   0.327   3.908  0.0343 -0.9475  0.4852
  288TIP3    H2  871   0.261   0.236   3.988  0.1125 -0.0284  1.4548
  289TIP3   OH2  872   2.855   1.361   4.402  0.0295  0.0425  0.3159
  289TIP3    H1  873   2.772   1.404   4.424  0.4404  0.3786  1.2682
  289TIP3    H2  874   2.884   1.321   4.484  0.8447 -0.0147  0.0087
  290TIP3   OH2  875   2.104   1.396   2.861  0.2792 -0.2185 -0.1941
  290TIP3    H1  876   2.130   1.317   2.814  1.6534  1.0400 -1.6929
  290TIP3    H2  877   2.147   1.389   2.946  2.5297  0.0329 -1.2426
  291TIP3   OH2  878   5.312   3.213   1.878  0.1783  0.0932  0.2122
  291TIP3    H1  879   5.300   3.119   1.863 -0.0363  0.1729 -0.1096
  291TIP3    H2  880   5.232   3.241   1.922  0.6486 -0.0654  1.2126
  292TIP3   OH2  881   2.557   0.310   0.630  0.3373 -0.0023  0.5880
  292TIP3    H1  882   2.498   0.235   0.630 -0.2403  0.4446  0.7705
  292TIP3    H2  883   2.524   0.366   0.700 -0.1137  1.1119 -0.4821
  293TIP3   OH2  884   5.483   0.764   3.040 -0.4833 -0.8208  0.6257
  293TIP3    H1  885   5.476   0.702   3.113 -1.0230 -0.7178  0.6651
  293TIP3    H2  886   5.555   0.730   2.987  1.2590  0.1641  2.2251
  294TIP3   OH2  887   4.390   1.733   4.823  0.4926  0.2844 -0.3171
  294TIP3    H1  888   4.385   1.675   4.899  1.4773 -1.0349 -1.2187
  294TIP3    H2  889   4.306   1.720   4.778  0.0856  0.7389  0.3024
  295TIP3   OH2  890   4.101   2.964   1.967  0.0291 -0.5041 -0.6646
  295TIP3    H1  891   4.192   2.995   1.968  0.6834 -2.2603  0.7636
  295TIP3    H2  892   4.091   2.923   1.881  0.0690  1.0330 -1.4281
  296TIP3   OH2  893   0.097   0.975   4.986  0.4682  0.3692  0.4255
  296TIP3    H1  894   0.185   0.992   4.954  0.8204 -0.8578  0.6754
  296TIP3    H2  895   0.068   0.898   4.936 -0.4607  0.7583  0.3487
  297TIP3   OH2  896   4.379   4.524   2.041  0.1452  0.3421 -0.0448
  297TIP3    H1  897   4.395   4.600   1.985 -0.7176  0.6441  0.1036
  297TIP3    H2  898   4.447   4.529   2.109  0.9208  0.2207 -0.7959
  298TIP3   OH2  899   3.125   3.535   1.351  0.3591  0.1792 -0.2392
  298TIP3    H1  900   3.214   3.570   1.343  1.0189 -1.1518  0.7916
  298TIP3    H2  901   3.138   3.444   1.378 -1.3249 -0.1702 -0.5250
  299TIP3   OH2  902   6.247   1.786   4.110 -0.0236  0.1216 -0.0965
  299TIP3    H1  903   6.225   1.867   4.156 -1.0565 -1.0508  1.6000
  299TIP3    H2  904   6.174   1.771   4.050  0.2459  0.5188 -0.5271
  300TIP3   OH2  905   0.623   3.213   0.930 -0.6922  0.3624 -0.0971
  300TIP3    H1  906   0.555   3.148   0.951  0.7517 -0.9568  0.7066
  300TIP3    H2  907   0.609   3.233   0.838 -1.7601 -0.3983 -0.1189
  301TIP3   OH2  908   5.245   1.737   3.440  0.2973 -0.3336 -0.4214
  301TIP3    H1  909   5.232   1.676   3.513  2.4810  1.9191  2.0856
  301TIP3    H2  910   5.337   1.726   3.415 -0.1208 -0.2541 -2.1167
  302TIP3   OH2  911   3.327   4.055   2.337  0.2574  0.1916  0.6337
  302TIP3    H1  912   3.237   4.025   2.353 -0.1237  0.7832 -0.2927
  302TIP3    H2  913   3.339   4.127   2.399 -0.5385  1.2378 -0.3727
  303TIP3   OH2  914   0.788   0.520   2.315 -0.2116 -0.7917 -0.1949
  303TIP3    H1  915   0.857   0.513   2.249 -0.2814  1.3074 -0.5474
  303TIP3    H2  916   0.738   0.597   2.290 -2.4883 -2.0272  0.2774
  304TIP3   OH2  917   0.552   2.532   3.357 -0.0672  0.0909 -0.1832
  304TIP3    H1  918   0.631   2.489   3.322  0.2504 -0.4360  1.1056
  304TIP3    H2  919   0.576   2.624   3.364  0.3963 -0.0475  0.0824
  305TIP3   OH2  920   1.329   1.435   2.222  0.0871 -0.5064  0.1261
  305TIP3    H1  921   1.305   1.507   2.281 -0.4044  0.4160 -1.1496
  305TIP3    H2  922   1.328   1.474   2.135  0.7605 -1.8439 -0.5119
  306TIP3   OH2  923   0.813   2.191   0.656 -0.1925  0.4064  0.6708
  306TIP3    H1  924   0.817   2.208   0.750  0.9194 -0.0351  0.7207
  306TIP3    H2  925   0.883   2.245   0.619  1.6485 -1.9402  0.5298
  307TIP3   OH2  926   0.392   0.060   2.524  0.8230  0.4711 -0.3006
  307TIP3    H1  927   0.338   0.070   2.603  1.2626  0.5610 -0.0102
  307TIP3    H2  928   0.335   0.089   2.453  0.0218 -0.7039 -0.1546
  308TIP3   OH2  929   1.494   4.712   1.488 -0.1095 -0.4088  0.1582
  308TIP3    H1  930   1.453   4.724   1.574  0.0613  1.0926  0.0556
  308TIP3    H2  931   1.441   4.765   1.429  1.4820  0.9721 -0.1104
  309TIP3   OH2  932   5.551   2.152   1.987  0.5110 -0.1817 -0.0287
  309TIP3    H1  933   5.546   2.124   1.896  0.0681  0.8540 -0.3341
  309TIP3    H2  934   5.581   2.243   1.983  1.0666 -0.3144  0.8914
  310TIP3   OH2  935   2.499   3.765   2.054 -0.0438 -0.2178 -0.0602
  310TIP3    H1  936   2.494   3.860   2.045 -1.3589 -0.1153  1.3181
  310TIP3    H2  937   2.471   3.748   2.144 -1.5360 -2.0199 -0.7992
  311TIP3   OH2  938   4.563   2.482   3.038  0.3740 -0.0081 -0.0545
  311TIP3    H1  939   4.505   2.537   2.985  1.0458 -0.1628 -0.9656
  311TIP3    H2  940   4.640   2.537   3.053  0.6915 -0.3937 -0.2591
  312TIP3   OH2  941   0.023   3.611   2.657  0.3461  0.1428  0.2821
  312TIP3    H1  942   0.078   3.545   2.701  0.6785  0.8104  0.8844
  312TIP3    H2  943   0.070   3.693   2.670  0.2770  0.4169 -1.0441
  313TIP3   OH2  944   4.210   3.336   4.691 -0.3833 -0.0990 -0.5282
  313TIP3    H1  945   4.128   3.358   4.646 -0.4377 -0.4877 -0.6198
  313TIP3    H2  946   4.244   3.420   4.721 -0.1282  0.2280 -1.6759
  314TIP3   OH2  947   3.669   3.075   1.424 -0.5560 -0.2191 -0.3231
  314TIP3    H1  948   3.591   3.033   1.460 -1.3982  0.7767 -0.9116
  314TIP3    H2  949   3.725   3.003   1.396  0.3108 -1.0859  3.1842
  315TIP3   OH2  950   5.358   4.236   5.056  0.2038  0.4294 -0.8615
  315TIP3    H1  951   5.451   4.255   5.053  1.0058 -3.0130 -1.8722
  315TIP3    H2  952   5.345   4.168   4.989 -2.9776  0.5507 -0.5285
  316TIP3   OH2  953   4.703   5.471   0.796 -0.4849  0.7652  0.4565
  316TIP3    H1  954   4.741   5.443   0.712  0.7262  1.8759  0.6065
  316TIP3    H2  955   4.609   5.481   0.778 -0.5730 -0.9310 -0.2306
  317TIP3   OH2  956   2.571   3.909   3.543  0.2060 -0.2692 -0.3308
  317TIP3    H1  957   2.484   3.880   3.572  0.5042 -1.2229 -0.3359
  317TIP3    H2  958   2.567   4.004   3.547 -0.9267 -0.2848 -0.5792
  318TIP3   OH2  959   3.458   5.533   4.270 -0.4207 -0.3061  0.1411
  318TIP3    H1  960   3.408   5.457   4.301 -0.0297 -0.7046 -0.1833
  318TIP3    H2  961   3.530   5.542   4.332  1.1399 -1.9297 -1.3196
  319TIP3   OH2  962   6.116   3.745   2.581  0.9136 -0.7212 -0.1301
  319TIP3    H1  963   6.141   3.784   2.497 -0.0525 -0.8029 -0.4663
  319TIP3    H2  964   6.196   3.702   2.612  1.6503  0.4476 -0.3544
  320TIP3   OH2  965   1.077   4.103   0.806 -0.3026  1.1401 -0.5552
  320TIP3    H1  966   1.119   4.025   0.771 -1.0375  1.1073 -1.4029
  320TIP3    H2  967   1.110   4.110   0.896  1.8589  1.4135 -1.3400
  321TIP3   OH2  968   4.298   0.275   2.813  0.8087 -0.4388 -0.2821
  321TIP3    H1  969   4.342   0.199   2.852 -0.1201 -0.3360  1.0255
  321TIP3    H2  970   4.223   0.291   2.870 -0.9346 -0.5866 -2.4016
  322TIP3   OH2  971   5.153   5.726   1.130  0.2656 -0.1425  1.1116
  322TIP3    H1  972   5.199   5.704   1.049 -0.5640 -0.5213  0.7229
  322TIP3    H2  973   5.111   5.810   1.112  2.2188  1.1155  2.0838
  323TIP3   OH2  974   1.100   5.130   3.361 -0.5224 -0.3667 -0.1147
  323TIP3    H1  975   1.113   5.089   3.446 -0.8735 -0.6012 -0.1728
  323TIP3    H2  976   1.005   5.135   3.350 -0.4849  0.2769 -0.1996
  324TIP3   OH2  977   0.028   2.547   3.955  0.2365 -0.4188 -0.9277
  324TIP3    H1  978  -0.011   2.593   3.881 -2.7442  0.6020  1.0988
  324TIP3    H2  979   0.024   2.454   3.932 -1.6311 -0.1894 -1.6350
  325TIP3   OH2  980   1.842   2.456   2.507  0.3116 -0.4853 -0.6281
  325TIP3    H1  981   1.895   2.477   2.431  1.1726  1.4532  0.4407
  325TIP3    H2  982   1.859   2.363   2.522  1.2342 -0.5645 -1.9521
  326TIP3   OH2  983   5.444   1.841   2.390 -0.0874  0.3275 -0.4518
  326TIP3    H1  984   5.402   1.759   2.416 -0.4410  0.4648 -0.5853
  326TIP3    H2  985   5.509   1.857   2.458  0.3077 -0.3094 -0.6775
  327TIP3   OH2  986   0.307   3.760   4.222 -0.0553  0.0327  0.1270
  327TIP3    H1  987   0.265   3.696   4.278 -2.0214  0.9305 -0.2408
  327TIP3    H2  988   0.249   3.837   4.225  1.3613  1.1962 -0.7310
  328TIP3   OH2  989   0.777   1.137   1.597 -0.3787 -0.3706 -0.3495
  328TIP3    H1  990   0.760   1.214   1.651 -1.1102 -0.7042 -0.0889
  328TIP3    H2  991   0.707   1.138   1.531 -0.9794 -1.3386  0.2523
  329TIP3   OH2  992   6.223   5.099   1.493 -0.0789  0.0001 -0.5087
  329TIP3    H1  993   6.140   5.055   1.474 -0.0919  0.1088 -0.7015
  329TIP3    H2  994   6.289   5.050   1.444 -0.1066  0.2526 -0.8040
  330TIP3   OH2  995   5.602   3.383   1.290 -0.0606 -0.0298  0.2020
  330TIP3    H1  996   5.628   3.442   1.361  0.9513 -0.3103  0.0841
  330TIP3    H2  997   5.546   3.437   1.234  0.3229  0.6348  0.4425
  331TIP3   OH2  998   4.182   2.800   2.877 -0.0610 -0.4247 -0.3189
  331TIP3    H1  999   4.251   2.864   2.891 -1.7338  1.7145 -1.2377
  331TIP3    H2 1000   4.201   2.762   2.791 -0.2602  0.5480 -0.8136
  332TIP3   OH2 1001   4.978   5.801   4.822  0.0383 -0.1814  0.3001
  332TIP3    H1 1002   4.941   5.759   4.899 -0.0075 -1.7064 -0.5150
  332TIP3    H2 1003   4.928   5.765   4.749  1.5593 -0.4896 -0.6356
  333TIP3   OH2 1004   1.568   5.797   2.970 -0.0721  0.1437 -0.5308
  333TIP3    H1 1005   1.523   5.714   2.979  0.1981  0.0923  0.4916
  333TIP3    H2 1006   1.513   5.860   3.017  0.4253  0.2671 -0.1092
  334TIP3   OH2 1007   3.019   5.925   4.689 -0.2282  0.3696 -0.4991
  334TIP3    H1 1008   2.949   5.860   4.688  0.1074 -0.0729  1.4840
  334TIP3    H2 1009   3.099   5.874   4.699  0.0934  1.0452  0.4383
  335TIP3   OH2 1010   0.793   0.889   2.015 -0.9135 -0.1577 -0.3337
  335TIP3    H1 1011   0.717   0.937   1.981 -0.4263  0.8629  0.0074
  335TIP3    H2 1012   0.840   0.861   1.937 -0.9126  0.3911 -0.5334
  336TIP3   OH2 1013   3.757   3.294   4.715 -0.6283  0.2998  0.3487
  336TIP3    H1 1014   3.702   3.299   4.637 -0.5509 -0.9233  0.1995
  336TIP3    H2 1015   3.754   3.202   4.741  1.8637  0.0343 -0.0567
  337TIP3   OH2 1016   0.436   5.468   4.501  0.1983  0.3669 -0.1514
  337TIP3    H1 1017   0.346   5.439   4.491  0.2913 -0.0877  0.2497
  337TIP3    H2 1018   0.487   5.387   4.500  0.4119  0.4378  1.5273
  338TIP3   OH2 1019   3.106   1.508   3.882  0.1250  0.6995  0.3095
  338TIP3    H1 1020   3.094   1.603   3.872  0.1315  0.7148  0.4371
  338TIP3    H2 1021   3.018   1.472   3.873  0.0539  0.7625  0.7168
  339TIP3   OH2 1022   4.324   5.453   1.818  0.8997 -0.4609 -0.6151
  339TIP3    H1 1023   4.272   5.375   1.797 -0.1675  0.2402 -0.6666
  339TIP3    H2 1024   4.259   5.522   1.830  1.8429  0.4678 -0.7378
  340TIP3   OH2 1025   4.202   3.908   3.484  0.0576  0.1290 -0.7782
  340TIP3    H1 1026   4.217   3.918   3.578 -1.0675 -0.3617 -0.5320
  340TIP3    H2 1027   4.243   3.985   3.445  2.2192 -0.5970 -0.0918
  341TIP3   OH2 1028   3.442   3.375   3.104  0.1614 -0.1039 -0.0896
  341TIP3    H1 1029   3.438   3.311   3.175 -0.5411 -0.2383 -0.2409
  341TIP3    H2 1030   3.480   3.327   3.031 -0.3363 -0.3498 -0.1939
  342TIP3   OH2 1031   6.223   5.340   2.432  0.2284 -0.4991  0.4789
  342TIP3    H1 1032   6.291   5.334   2.365 -0.5035 -1.3243 -0.2051
  342TIP3    H2 1033   6.271   5.359   2.512  1.2519 -0.8518 -0.0289
  343TIP3   OH2 1034   2.776   4.855   4.629  0.3941 -0.4003 -0.3223
  343TIP3    H1 1035   2.751   4.875   4.539  0.1210  0.8694  0.0166
  343TIP3    H2 1036   2.700   4.881   4.681 -0.7998 -4.1272  0.0569
  344TIP3   OH2 1037   4.376   3.540   0.285  0.4485  0.4245  0.1964
  344TIP3    H1 1038   4.318   3.590   0.227 -0.3306  0.5053  1.0176
  344TIP3    H2 1039   4.388   3.456   0.241  1.6552  1.2472 -1.1351
  345TIP3   OH2 1040   5.385   1.240   2.883  0.2395  0.8338 -0.1873
  345TIP3    H1 1041   5.415   1.149   2.876  2.4433  1.5189 -0.3773
  345TIP3    H2 1042   5.433   1.275   2.958 -1.9292  1.3956  1.0160
  346TIP3   OH2 1043   5.470   2.706   3.998  0.1954  0.2305 -0.5147
  346TIP3    H1 1044   5.451   2.628   3.946  0.5669 -0.0071 -0.2934
  346TIP3    H2 1045   5.555   2.689   4.037  0.0953  0.5741 -0.1396
  347TIP3   OH2 1046   1.825   2.405   3.243  0.3952  0.0562 -0.2412
  347TIP3    H1 1047   1.822   2.311   3.260  0.9732  0.4389  2.4794
  347TIP3    H2 1048   1.833   2.412   3.148  2.0407 -2.6774 -0.4203
  348TIP3   OH2 1049   4.496   3.890   1.894  0.3061 -0.6868 -0.5047
  348TIP3    H1 1050   4.403   3.914   1.903  0.4998 -0.2885  0.4624
  348TIP3    H2 1051   4.512   3.827   1.964  0.1628 -2.6761 -2.1688
  349TIP3   OH2 1052   4.008   0.353   0.652  0.6780 -0.0703 -0.3910
  349TIP3    H1 1053   3.963   0.388   0.729  0.3504 -1.3527  0.0199
  349TIP3    H2 1054   3.957   0.277   0.627  1.2104 -0.0951 -1.4379
  350TIP3   OH2 1055   4.360   5.452   3.129  0.0623  0.0082  0.0482
  350TIP3    H1 1056   4.303   5.498   3.068 -1.0801  0.6569  1.5166
  350TIP3    H2 1057   4.363   5.508   3.207 -1.2496 -2.2088  1.8479
  351TIP3   OH2 1058   3.491   0.945   0.062  0.1327 -0.4704  0.2330
  351TIP3    H1 1059   3.527   0.869   0.015  1.2072 -0.1655  0.5200
  351TIP3    H2 1060   3.563   1.008   0.062  0.0466 -0.3312  2.0007
  352TIP3   OH2 1061   3.866   4.816   0.064  0.5398  0.2634 -0.0709
  352TIP3    H1 1062   3.857   4.724   0.038  0.4978  0.1449  0.3507
  352TIP3    H2 1063   3.825   4.865  -0.007  1.6600  0.0234 -0.9056
  353TIP3   OH2 1064   4.182   4.170   3.425  0.1983 -0.5409 -0.2772
  353TIP3    H1 1065   4.113   4.231   3.399  0.1133 -0.5041  0.0323
  353TIP3    H2 1066   4.261   4.206   3.386 -0.0512 -0.9206 -1.1649
  354TIP3   OH2 1067   4.907   1.389   1.479  0.3423  0.3106 -0.1346
  354TIP3    H1 1068   4.847   1.427   1.544 -0.8601 -2.2401  0.3842
  354TIP3    H2 1069   4.880   1.428   1.396 -1.8872 -0.4843  0.1379
  355TIP3   OH2 1070   5.610   5.898   1.313  0.8806  0.4500 -0.3691
  355TIP3    H1 1071   5.556   5.971   1.282  1.9657  0.7177 -1.7698
  355TIP3    H2 1072   5.667   5.938   1.380  0.8228  0.6731 -0.4497
  356TIP3   OH2 1073   6.130   4.670   4.991  0.0577 -0.0679  0.6131
  356TIP3    H1 1074   6.207   4.722   4.967 -0.4154  0.9424  1.2096
  356TIP3    H2 1075   6.084   4.723   5.057 -1.1538 -0.6402  0.2685
  357TIP3   OH2 1076   1.962   2.555   2.279  0.1618 -0.1337 -0.1425
  357TIP3    H1 1077   2.035   2.555   2.217  0.4625 -0.6113  0.2060
  357TIP3    H2 1078   1.886   2.530   2.226  0.1857  0.6858 -0.5728
  358TIP3   OH2 1079   2.507   0.373   4.349  0.2991 -0.1137 -0.6878
  358TIP3    H1 1080   2.601   0.380   4.361  0.0263  2.3808  0.6317
  358TIP3    H2 1081   2.491   0.409   4.261  0.6599 -2.1290 -1.6442
  359TIP3   OH2 1082   5.101   4.784   1.931 -0.2655 -0.1141 -0.0486
  359TIP3    H1 1083   5.097   4.872   1.968  0.3735 -0.8324  1.8654
  359TIP3    H2 1084   5.177   4.786   1.873 -0.9924  0.9132 -0.9965
  360TIP3   OH2 1085   0.581   2.780   4.215  0.3483  0.3338  0.2983
  360TIP3    H1 1086   0.559   2.849   4.152  0.1123  0.3992  0.4508
  360TIP3    H2 1087   0.534   2.804   4.295  0.8598  0.3890  0.5820
  361TIP3   OH2 1088   0.699   4.692   0.169 -0.0337 -0.1360  0.2452
  361TIP3    H1 1089   0.794   4.700   0.170 -0.1589  1.6722  1.2906
  361TIP3    H2 1090   0.676   4.685   0.076  1.1708 -2.0917  0.0292
  362TIP3   OH2 1091   4.382   2.343   3.668 -0.2837 -0.6332 -0.5410
  362TIP3    H1 1092   4.376   2.251   3.641 -0.7292 -0.3836 -1.3322
  362TIP3    H2 1093   4.305   2.384   3.630  0.4259  0.2791 -1.0506
  363TIP3   OH2 1094   2.000   0.901   2.386  0.5109  0.0657 -0.3144
  363TIP3    H1 1095   2.087   0.933   2.409  0.5625  0.0911 -0.5488
  363TIP3    H2 1096   1.995   0.814   2.426  1.0422 -0.3796 -1.2031
  364TIP3   OH2 1097   3.497   2.379   3.059  0.6465  0.1083  0.6348
  364TIP3    H1 1098   3.561   2.429   3.008 -0.8323  1.9180  0.4411
  364TIP3    H2 1099   3.536   2.371   3.146  1.3633  0.7143  0.3806
  365TIP3   OH2 1100   4.835   2.963   2.959  0.1697  0.0005 -0.2388
  365TIP3    H1 1101   4.827   3.052   2.925 -1.9546  0.2059  0.6248
  365TIP3    H2 1102   4.865   2.974   3.049 -1.3997 -0.0294  0.3136
  366TIP3   OH2 1103   3.622   2.316   1.167  0.5849 -0.1681  0.0899
  366TIP3    H1 1104   3.641   2.276   1.082 -0.9901 -1.4834  0.3193
  366TIP3    H2 1105   3.668   2.400   1.164  2.1032 -0.9958 -1.3083
  367TIP3   OH2 1106   3.765   3.462   3.094  0.4981 -0.0051  0.4908
  367TIP3    H1 1107   3.778   3.393   3.159  0.8039  0.5190  1.0060
  367TIP3    H2 1108   3.672   3.484   3.100  0.6106  0.3325  1.0606
  368TIP3   OH2 1109   3.099   3.679   0.070  0.1563  0.1376  0.8829
  368TIP3    H1 1110   3.071   3.724   0.150 -1.2440 -0.7154  0.9091
  368TIP3    H2 1111   3.034   3.703   0.004 -0.7395 -1.8846  0.9395
  369TIP3   OH2 1112   3.810   2.057   5.135  0.3588 -0.1079  0.5150
  369TIP3    H1 1113   3.746   1.993   5.167 -2.0054  0.0312 -3.2635
  369TIP3    H2 1114   3.862   2.009   5.071  0.9165  0.9098  0.1892
  370TIP3   OH2 1115   2.444   0.673   3.640 -0.3186  0.3105  0.3404
  370TIP3    H1 1116   2.477   0.753   3.681  1.5469  0.0593 -0.5537
  370TIP3    H2 1117   2.523   0.623   3.619 -1.4079 -1.4284  0.1842
  371TIP3   OH2 1118   2.183   0.948   3.807  0.2037  0.1812  0.5969
  371TIP3    H1 1119   2.214   1.010   3.741 -1.8514 -0.7397 -1.3465
  371TIP3    H2 1120   2.124   0.999   3.863 -2.9739 -0.2139 -2.1030
  372TIP3   OH2 1121   1.202   5.826   1.051 -0.6740  0.2103  0.0825
  372TIP3    H1 1122   1.205   5.730   1.059  1.4526  0.1397 -0.8077
  372TIP3    H2 1123   1.286   5.849   1.011 -1.4227  2.4048 -0.3609
  373TIP3   OH2 1124   4.324   0.185   1.928  0.8852 -0.2231 -0.0327
  373TIP3    H1 1125   4.272   0.130   1.869  0.2425 -1.1459  1.3467
  373TIP3    H2 1126   4.407   0.198   1.881  0.9098 -2.0492 -0.5894
  374TIP3   OH2 1127   4.817   0.921   1.007 -0.5381 -0.1477  0.0561
  374TIP3    H1 1128   4.743   0.931   0.948  0.0186 -0.3964 -0.7086
  374TIP3    H2 1129   4.808   0.993   1.070 -1.7484 -0.5336  0.3423
  375TIP3   OH2 1130   2.324   4.953   1.786  0.0791  0.2713  0.0899
  375TIP3    H1 1131   2.419   4.958   1.794  0.0576  0.6360  0.1201
  375TIP3    H2 1132   2.297   5.040   1.757 -0.1076 -0.2210 -1.3013
  376TIP3   OH2 1133   0.100   0.484   3.678  0.1637  0.2105 -0.2587
  376TIP3    H1 1134   0.067   0.472   3.589  0.4835 -1.0664 -0.2325
  376TIP3    H2 1135   0.021   0.490   3.732 -0.0578  2.3382 -0.7415
  377TIP3   OH2 1136   0.543   5.157   2.659 -0.0303 -0.1843 -0.2469
  377TIP3    H1 1137   0.604   5.093   2.623  0.4372 -0.4069  0.8829
  377TIP3    H2 1138   0.597   5.232   2.682 -0.4473  0.2869 -0.7857
  378TIP3   OH2 1139   1.355   5.941   3.000  0.1231 -0.4057 -0.3505
  378TIP3    H1 1140   1.289   5.968   2.935 -0.0264 -0.2945 -0.1517
  378TIP3    H2 1141   1.305   5.892   3.065  0.3366 -0.8692 -0.5277
  379TIP3   OH2 1142   6.129   2.991   3.974 -0.1837 -0.3570  0.1115
  379TIP3    H1 1143   6.124   2.895   3.977 -1.0773 -0.2915  1.7662
  379TIP3    H2 1144   6.051   3.018   3.927 -0.0856 -0.4221 -0.0914
  380TIP3   OH2 1145   1.150   4.214   4.279  0.0392  0.5722  0.0206
  380TIP3    H1 1146   1.158   4.130   4.234 -2.0115  0.8182 -0.9590
  380TIP3    H2 1147   1.197   4.203   4.361 -0.1907 -1.5478 -0.0825
  381TIP3   OH2 1148   5.246   1.987   1.945 -0.5218 -0.1587 -0.1066
  381TIP3    H1 1149   5.205   1.935   1.875  0.0872 -2.4451  1.1501
  381TIP3    H2 1150   5.327   1.940   1.966 -0.2895  0.9163  1.5978
  382TIP3   OH2 1151   2.135   2.682   4.490 -0.0414 -0.5323  0.5565
  382TIP3    H1 1152   2.214   2.635   4.518  1.2728  0.8089 -0.7338
  382TIP3    H2 1153   2.154   2.773   4.510 -1.6484 -0.2624  0.9882
  383TIP3   OH2 1154   1.515   0.527   5.144 -0.5277  0.0607 -0.4861
  383TIP3    H1 1155   1.462   0.450   5.125 -1.1967  0.3935 -0.0176
  383TIP3    H2 1156   1.476   0.563   5.224  0.8162 -0.0599  0.2453
  384TIP3   OH2 1157   4.005   4.614   1.017  0.1779  0.0230  0.1162
  384TIP3    H1 1158   4.094   4.581   1.029  0.2057 -0.7290 -1.7523
  384TIP3    H2 1159   3.950   4.536   1.019 -0.0921  0.1335 -1.5054
  385TIP3   OH2 1160   4.792   3.799   4.547  0.3530 -0.6524 -0.2051
  385TIP3    H1 1161   4.883   3.794   4.518  0.2070  0.4043 -0.9207
  385TIP3    H2 1162   4.765   3.888   4.525  0.4005  0.5400  3.8633
  386TIP3   OH2 1163   3.801   1.420   0.744  0.1792 -0.2386  0.7092
  386TIP3    H1 1164   3.744   1.477   0.796 -1.0390 -0.8472  0.0784
  386TIP3    H2 1165   3.862   1.382   0.808  0.4122  1.0383  1.2714
  387TIP3   OH2 1166   3.076   5.481   3.046 -0.2829 -0.5107  0.3929
  387TIP3    H1 1167   3.134   5.408   3.067 -0.2179 -0.2101  1.2726
  387TIP3    H2 1168   3.033   5.454   2.964  0.5121 -1.0696  0.1472
  388TIP3   OH2 1169   3.433   5.543   0.803 -0.2510  0.2141 -0.1026
  388TIP3    H1 1170   3.495   5.608   0.836 -1.8448  1.8838 -0.3029
  388TIP3    H2 1171   3.393   5.583   0.727 -0.7522 -1.3216 -0.6915
  389TIP3   OH2 1172   2.118   5.980   1.721 -0.3190  0.3709  0.2472
  389TIP3    H1 1173   2.199   5.928   1.711  0.0853  0.9775  0.3323
  389TIP3    H2 1174   2.053   5.916   1.752 -0.3880 -0.5485 -1.6495
  390TIP3   OH2 1175   2.849   4.527   1.186  0.1818  0.3777 -0.5473
  390TIP3    H1 1176   2.900   4.508   1.107  1.6156 -0.6568  0.5859
  390TIP3    H2 1177   2.846   4.444   1.233 -0.3484  1.0692  0.6751
  391TIP3   OH2 1178   2.609   5.648   1.866  0.1671  0.1114  0.8383
  391TIP3    H1 1179   2.705   5.642   1.872  0.2732  0.4412 -0.2370
  391TIP3    H2 1180   2.583   5.694   1.945  1.0775  1.4908  0.3919
  392TIP3   OH2 1181   0.611   2.604   2.420 -0.0217 -0.5808  0.2931
  392TIP3    H1 1182   0.682   2.635   2.363 -0.3945 -0.2730 -0.0048
  392TIP3    H2 1183   0.558   2.682   2.436 -0.7245 -0.9694 -0.1121
  393TIP3   OH2 1184   4.102   1.027   3.055  0.2610  0.3575 -0.4058
  393TIP3    H1 1185   4.177   1.086   3.065  0.0027  0.5007  0.8633
  393TIP3    H2 1186   4.136   0.954   3.004  1.0957  0.7185 -0.3911
  394TIP3   OH2 1187   4.989   2.647   4.857  0.1752  0.3275  0.2002
  394TIP3    H1 1188   4.975   2.683   4.769  0.6182 -1.4831 -0.6762
  394TIP3    H2 1189   5.074   2.683   4.884  0.2913  0.4928 -0.3544
  395TIP3   OH2 1190   2.093   5.856   1.332 -1.1819 -0.1024  0.1223
  395TIP3    H1 1191   2.175   5.818   1.303  0.0515  1.6366  1.1333
  395TIP3    H2 1192   2.069   5.807   1.410  0.2332  0.9045  1.2423
  396TIP3   OH2 1193   2.118   3.874   4.834  0.9297 -0.6374 -0.5849
  396TIP3    H1 1194   2.112   3.782   4.808  2.1845 -1.2104  1.0012
  396TIP3    H2 1195   2.150   3.872   4.924 -2.0164  1.2679  0.6794
  397TIP3   OH2 1196   0.122   4.099   1.205 -0.1890 -0.3655 -0.5291
  397TIP3    H1 1197   0.117   4.018   1.154  1.2902 -0.1115 -1.1330
  397TIP3    H2 1198   0.210   4.099   1.242 -0.6066  0.3612  0.5184
  398TIP3   OH2 1199   3.511   3.148   3.711 -0.5284  0.0355 -0.1622
  398TIP3    H1 1200   3.581   3.142   3.776 -0.5852 -0.2048 -0.1208
  398TIP3    H2 1201   3.450   3.212   3.747 -0.5724 -0.1146  0.0374
  399TIP3   OH2 1202   4.193   2.300   3.150 -0.0558  0.1141 -0.0733
  399TIP3    H1 1203   4.286   2.302   3.176 -0.1381  0.7066  0.1902
  399TIP3    H2 1204   4.181   2.213   3.112  0.7819  0.2831 -0.7619
  400TIP3   OH2 1205   1.752   5.771   1.394 -0.3764 -0.1544 -0.1343
  400TIP3    H1 1206   1.722   5.708   1.460 -0.0841 -0.0240  0.1251
  400TIP3    H2 1207   1.836   5.736   1.364 -0.2542  0.0673 -0.0503
  401TIP3   OH2 1208   5.547   2.900   0.024  0.1939  0.7525 -0.0374
  401TIP3    H1 1209   5.460   2.884   0.060  1.4166 -1.3087  2.3564
  401TIP3    H2 1210   5.583   2.969   0.080 -0.0319  2.0016 -1.3734
  402TIP3   OH2 1211   2.388   2.134   2.249  0.9267 -0.1691  0.0163
  402TIP3    H1 1212   2.413   2.141   2.341  0.5699 -0.5869  0.1501
  402TIP3    H2 1213   2.453   2.077   2.210  1.5011  0.5918 -0.1608
  403TIP3   OH2 1214   1.500   1.252   0.789 -0.1378  0.2168  0.4938
  403TIP3    H1 1215   1.454   1.189   0.733  1.2641 -2.3599  2.0504
  403TIP3    H2 1216   1.526   1.322   0.729 -1.6749 -0.6868 -1.3602
  404TIP3   OH2 1217   3.713   4.473   0.677 -0.4951 -0.4170 -0.0199
  404TIP3    H1 1218   3.717   4.553   0.730 -2.3659 -0.3978  0.1475
  404TIP3    H2 1219   3.625   4.438   0.692  0.5155 -2.9679  0.5333
  405TIP3   OH2 1220   0.704   0.825   2.642  0.2351  0.3507  0.1218
  405TIP3    H1 1221   0.762   0.875   2.585 -0.1523  1.4096  0.6327
  405TIP3    H2 1222   0.754   0.746   2.664 -0.4735 -1.2885 -3.5111
  406TIP3   OH2 1223   1.404   5.589   2.977  0.3822 -0.0983  0.2462
  406TIP3    H1 1224   1.352   5.583   3.057 -2.0144 -0.5951 -1.2525
  406TIP3    H2 1225   1.464   5.514   2.982  0.5314  0.0898  1.7147
  407TIP3   OH2 1226   0.820   5.182   0.480 -0.1626  0.1706 -0.1438
  407TIP3    H1 1227   0.846   5.159   0.391 -0.9387  1.8491 -0.8550
  407TIP3    H2 1228   0.758   5.113   0.506  1.0185 -1.0220 -0.3869
  408TIP3   OH2 1229   0.098   4.176   1.899 -0.4571 -0.2302  0.6437
  408TIP3    H1 1230   0.097   4.090   1.942 -2.7672 -0.0244  1.1454
  408TIP3    H2 1231   0.098   4.156   1.806  2.7409 -0.6854  0.6211
  409TIP3   OH2 1232   3.168   1.386   4.699 -0.4098  0.3011  0.0042
  409TIP3    H1 1233   3.225   1.319   4.736 -2.6694 -1.3054  0.8248
  409TIP3    H2 1234   3.212   1.468   4.717  3.7069 -0.8736 -3.1788
  410TIP3   OH2 1235   0.549   1.138   1.396 -0.1113  0.1855 -0.3548
  410TIP3    H1 1236   0.475   1.078   1.408 -1.4558  1.8724  0.2707
  410TIP3    H2 1237   0.519   1.200   1.330  0.0921  1.7951  0.9795
  411TIP3   OH2 1238   5.660   3.162   3.678 -0.5802 -0.2039 -0.1275
  411TIP3    H1 1239   5.749   3.156   3.644 -0.7047 -2.0013 -0.2774
  411TIP3    H2 1240   5.642   3.255   3.685  1.2712  0.1929 -0.1981
  412TIP3   OH2 1241   3.045   5.394   4.198 -0.2125  0.5451 -0.7991
  412TIP3    H1 1242   2.997   5.451   4.258  0.4717 -0.4512  0.7489
  412TIP3    H2 1243   2.977   5.354   4.143 -1.2979 -1.1423  1.5978
  413TIP3   OH2 1244   2.142   2.975   0.625 -0.2021  0.8539  0.0688
  413TIP3    H1 1245   2.208   3.032   0.585  0.6815  0.6736  1.2058
  413TIP3    H2 1246   2.153   2.989   0.719 -0.7894 -0.2944  0.3264
  414TIP3   OH2 1247   0.255   5.397   0.038 -0.3683 -0.2865  0.4482
  414TIP3    H1 1248   0.273   5.485   0.071 -1.0984 -0.1392  0.4742
  414TIP3    H2 1249   0.247   5.407  -0.056  0.5959 -0.5145  0.3333
  415TIP3   OH2 1250   1.250   4.090   4.984 -0.0667  0.0791  0.1478
  415TIP3    H1 1251   1.345   4.094   4.990 -0.1669  1.2277  1.4175
  415TIP3    H2 1252   1.226   4.012   5.033  0.2229 -0.3127 -0.3286
  416TIP3   OH2 1253   3.199   1.016   0.399 -0.4553  0.0508 -0.0097
  416TIP3    H1 1254   3.260   1.018   0.325  1.1813 -1.9054  1.1709
  416TIP3    H2 1255   3.240   1.074   0.465  0.9725 -2.2899  1.2951
  417TIP3   OH2 1256   2.936   3.811   1.853  0.8878 -0.4644  0.0468
  417TIP3    H1 1257   2.894   3.889   1.817  0.1623  0.3105  2.4064
  417TIP3    H2 1258   2.884   3.738   1.818  0.4482  0.2136 -0.7494
  418TIP3   OH2 1259  -0.007   2.763   4.114 -0.1241 -0.3606 -0.8158
  418TIP3    H1 1260   0.008   2.686   4.060  0.9780  0.3385 -1.5437
  418TIP3    H2 1261   0.039   2.745   4.196  0.8939 -0.1268 -1.3214
  419TIP3   OH2 1262   1.076   4.820   0.105 -0.5878 -0.3082  0.2118
  419TIP3    H1 1263   1.121   4.736   0.117  1.0945  0.1543 -2.1829
  419TIP3    H2 1264   1.093   4.868   0.186  2.6575 -0.4788 -0.2326
  420TIP3   OH2 1265   1.939   1.241   2.538 -0.2108 -0.3484 -0.5063
  420TIP3    H1 1266   1.939   1.336   2.529  0.8147 -0.3260 -0.3863
  420TIP3    H2 1267   1.863   1.222   2.594 -2.9121  0.0263 -3.6809
  421TIP3   OH2 1268   3.295   0.384   0.187 -0.1802  0.4377  0.1309
  421TIP3    H1 1269   3.263   0.474   0.187 -2.9413 -0.4343 -0.4465
  421TIP3    H2 1270   3.344   0.375   0.268 -0.6189  2.2133  0.6283
  422TIP3   OH2 1271   6.066   0.822   3.572 -0.4687 -0.3882 -0.3721
  422TIP3    H1 1272   6.120   0.884   3.522 -1.0693  1.4446  1.1231
  422TIP3    H2 1273   6.103   0.736   3.551  0.9667  0.5272 -1.8713
  423TIP3   OH2 1274   2.449   3.753   0.371  0.1846  0.1276 -0.4366
  423TIP3    H1 1275   2.393   3.754   0.449 -0.4139  1.8494 -0.8435
  423TIP3    H2 1276   2.444   3.842   0.337  2.0140 -0.0734 -1.3467
  424TIP3   OH2 1277   0.860   5.565   0.906 -0.0257 -0.0093 -0.1369
  424TIP3    H1 1278   0.929   5.627   0.883 -1.1490  0.7973 -1.5225
  424TIP3    H2 1279   0.805   5.612   0.967 -0.7073  0.2721 -0.9504
  425TIP3   OH2 1280   1.092   2.186   4.214 -0.8295 -0.1746 -0.5464
  425TIP3    H1 1281   1.027   2.235   4.164 -1.2108 -0.1214 -0.0119
  425TIP3    H2 1282   1.041   2.125   4.267 -0.3548 -1.1844 -1.2287
  426TIP3   OH2 1283   5.132   5.269   3.007 -0.1759  0.1853 -0.8313
  426TIP3    H1 1284   5.102   5.210   3.076  0.2285 -0.7297 -1.4150
  426TIP3    H2 1285   5.052   5.301   2.966 -0.4388  1.2751  0.4779
  427TIP3   OH2 1286   5.545   1.682   4.788  0.2574  0.2107 -0.0924
  427TIP3    H1 1287   5.546   1.698   4.694 -0.7018 -1.4056 -0.4231
  427TIP3    H2 1288   5.628   1.717   4.820  0.5960  0.7847 -1.5249
  428TIP3   OH2 1289   0.905   1.525   0.046  0.1685 -0.0694  0.3245
  428TIP3    H1 1290   0.868   1.565  -0.032 -1.4597 -1.8108  0.1410
  428TIP3    H2 1291   0.986   1.484   0.016 -0.2480 -0.3921 -0.3731
  429TIP3   OH2 1292   2.734   2.168   2.910 -0.0912  0.1107  0.6775
  429TIP3    H1 1293   2.649   2.126   2.897 -1.4955  2.9059 -0.0974
  429TIP3    H2 1294   2.723   2.221   2.989 -0.1159  2.6027 -0.8680
  430TIP3   OH2 1295   5.821   3.754   1.577  0.0871 -0.8229 -0.1598
  430TIP3    H1 1296   5.881   3.707   1.634  1.9473 -0.8375 -2.0406
  430TIP3    H2 1297   5.790   3.828   1.631  1.1844 -1.2468  1.0920
  431TIP3   OH2 1298   5.083   5.100   4.216 -0.1939 -0.3507  0.3819
  431TIP3    H1 1299   5.011   5.039   4.202 -0.1407 -0.1161 -1.0410
  431TIP3    H2 1300   5.158   5.045   4.240 -0.0370 -0.9016 -1.3112
  432TIP3   OH2 1301   3.762   2.544   4.909 -0.1970  0.1404 -0.1695
  432TIP3    H1 1302   3.699   2.472   4.901 -0.4602  0.4253 -0.6889
  432TIP3    H2 1303   3.806   2.528   4.993 -1.4322  0.3169  0.5360
  433TIP3   OH2 1304   1.725   5.931   0.677 -0.4569  0.0473 -0.6253
  433TIP3    H1 1305   1.656   5.934   0.743 -0.3766  0.0891 -0.5446
  433TIP3    H2 1306   1.713   6.011   0.626 -0.6142 -0.0585 -0.7578
  434TIP3   OH2 1307   2.846   2.328   1.444  0.9136 -0.2114  0.6557
  434TIP3    H1 1308   2.874   2.305   1.355 -1.1541 -1.0762  0.1792
  434TIP3    H2 1309   2.799   2.252   1.475 -2.2741  1.6303  0.7435
  435TIP3   OH2 1310   0.683   2.228   4.297 -0.3931  0.0176 -0.1448
  435TIP3    H1 1311   0.620   2.252   4.229  1.2156 -0.2211 -1.7853
  435TIP3    H2 1312   0.752   2.182   4.251 -0.6463 -2.9285  2.1071
  436TIP3   OH2 1313   1.768   2.240   0.423  0.0082  0.4870  0.0825
  436TIP3    H1 1314   1.699   2.306   0.413  0.9878  1.3410 -1.4886
  436TIP3    H2 1315   1.754   2.204   0.511 -1.3863  1.8282  0.4598
  437TIP3   OH2 1316   1.816   3.241   1.242 -0.4344 -0.0056  0.0030
  437TIP3    H1 1317   1.740   3.206   1.288 -0.1839  0.9999  1.2294
  437TIP3    H2 1318   1.833   3.178   1.172 -1.2685 -1.2022  0.8466
  438TIP3   OH2 1319   3.959   2.440   1.267 -0.1874 -0.0268 -0.1669
  438TIP3    H1 1320   3.868   2.466   1.255  0.2761  1.0912 -1.6262
  438TIP3    H2 1321   3.955   2.365   1.327 -2.0372  0.0664 -0.1081
  439TIP3   OH2 1322   1.473   4.147   1.074  0.1641 -0.0352 -0.3937
  439TIP3    H1 1323   1.522   4.129   0.993  0.4851 -1.2696  0.0412
  439TIP3    H2 1324   1.514   4.225   1.110  1.2310 -0.5113 -0.5174
  440TIP3   OH2 1325   3.896   3.315   0.749  0.3453 -0.2437  0.2773
  440TIP3    H1 1326   3.985   3.283   0.731  0.0771 -0.8077 -0.0623
  440TIP3    H2 1327   3.905   3.364   0.831  1.2455  0.9039 -0.4701
  441TIP3   OH2 1328   3.792   4.768   1.689 -0.3307 -0.0620  0.6109
  441TIP3    H1 1329   3.797   4.849   1.638 -0.9937 -0.0323  0.5847
  441TIP3    H2 1330   3.799   4.796   1.780  1.0983 -0.1356  0.5534
  442TIP3   OH2 1331   0.836   1.101   0.249 -0.5942  0.8449 -0.5900
  442TIP3    H1 1332   0.826   1.011   0.220 -2.6627 -0.0607  2.4827
  442TIP3    H2 1333   0.906   1.098   0.314 -2.8833  0.6289  2.0431
  443TIP3   OH2 1334   0.147   3.400   1.539 -0.1100 -0.7148 -0.0130
  443TIP3    H1 1335   0.186   3.402   1.452 -0.0979  1.4654 -0.0175
  443TIP3    H2 1336   0.171   3.484   1.578  2.1881 -2.6332  3.1773
  444TIP3   OH2 1337   0.015   1.582   1.138  0.4594  0.3609  0.0622
  444TIP3    H1 1338   0.075   1.645   1.096  0.1763  0.0752 -0.7759
  444TIP3    H2 1339  -0.071   1.604   1.103  0.3511 -0.4643 -0.1922
  445TIP3   OH2 1340   4.094   3.751   4.480 -0.5730 -0.5304 -0.1005
  445TIP3    H1 1341   4.059   3.709   4.402  0.1180 -2.0617  0.3779
  445TIP3    H2 1342   4.187   3.763   4.462 -0.3531 -1.1487  0.5808
  446TIP3   OH2 1343   0.537   2.258   1.123 -0.0142  0.2013 -0.0044
  446TIP3    H1 1344   0.470   2.242   1.056  0.7644 -1.1287 -0.5192
  446TIP3    H2 1345   0.609   2.301   1.075  0.4909 -0.6366 -0.0323
  447TIP3   OH2 1346   5.274   2.236   2.118 -0.0735 -0.0972 -0.5895
  447TIP3    H1 1347   5.256   2.208   2.029 -0.4366  0.1827 -0.6084
  447TIP3    H2 1348   5.362   2.276   2.114  1.4428 -3.1089 -0.1312
  448TIP3   OH2 1349   4.872   2.132   0.787 -0.3826  0.3541  0.1706
  448TIP3    H1 1350   4.947   2.139   0.845  0.0996 -1.6293 -0.1399
  448TIP3    H2 1351   4.796   2.142   0.844  0.0545  2.5508  0.4627
  449TIP3   OH2 1352   0.608   4.258   1.154  0.0495  0.0657  0.1480
  449TIP3    H1 1353   0.567   4.172   1.159 -0.9639  0.5056 -0.2502
  449TIP3    H2 1354   0.653   4.268   1.237  1.2238 -1.3532 -0.2846
  450TIP3   OH2 1355   0.228   4.633   0.622  0.3052 -0.3028  0.6676
  450TIP3    H1 1356   0.205   4.588   0.703  1.4038 -2.3570 -0.0878
  450TIP3    H2 1357   0.318   4.606   0.604 -0.3317 -1.0153 -1.9033
  451TIP3   OH2 1358   0.763   4.689   1.580 -0.0019  0.0374 -0.1518
  451TIP3    H1 1359   0.853   4.658   1.595  0.0901 -0.1057 -0.9613
  451TIP3    H2 1360   0.767   4.735   1.496 -0.5525  0.5933  0.1175
  452TIP3   OH2 1361   3.575   3.231   4.094 -0.0225  0.3207  0.1292
  452TIP3    H1 1362   3.629   3.265   4.022 -0.4863  0.8757  0.0375
  452TIP3    H2 1363   3.629   3.163   4.134  1.3720  1.8757  0.9859
  453TIP3   OH2 1364   3.557   4.710   2.046  0.0487  0.2783 -0.0228
  453TIP3    H1 1365   3.610   4.768   2.100  0.4549  0.8701 -1.0508
  453TIP3    H2 1366   3.618   4.643   2.015 -0.6515 -1.5410  2.2205
  454TIP3   OH2 1367   2.962   3.363   2.581 -0.0078 -0.1170 -0.2590
  454TIP3    H1 1368   3.045   3.404   2.557 -0.0182  0.1038  0.0769
  454TIP3    H2 1369   2.974   3.270   2.560  0.3443 -0.0967 -0.1519
  455TIP3   OH2 1370   5.383   5.726   0.277 -0.1127 -0.2358 -0.2415
  455TIP3    H1 1371   5.338   5.703   0.196  1.1327  0.2049 -1.0757
  455TIP3    H2 1372   5.467   5.761   0.249  0.1608  0.3390  1.2300
  456TIP3   OH2 1373   6.110   0.017   4.995  0.4529  0.5853  0.4728
  456TIP3    H1 1374   6.079   0.101   4.962 -0.2198  0.3514  0.4981
  456TIP3    H2 1375   6.180   0.040   5.056 -0.8369  1.2449  1.7687
  457TIP3   OH2 1376   0.759   2.592   4.126  0.2456 -0.3329  0.2633
  457TIP3    H1 1377   0.789   2.630   4.043 -2.1708  0.6362 -0.2707
  457TIP3    H2 1378   0.690   2.652   4.155 -1.1200 -2.3485  1.3660
  458TIP3   OH2 1379   5.577   2.267   4.973  0.4226  0.1860 -0.0475
  458TIP3    H1 1380   5.619   2.213   4.907 -0.2918 -0.3411 -0.0853
  458TIP3    H2 1381   5.484   2.243   4.968 -0.0101  1.7417 -0.3983
  459TIP3   OH2 1382   5.294   0.306   1.590 -0.4443  0.1762  0.5162
  459TIP3    H1 1383   5.238   0.313   1.513 -0.4285  0.7306  0.5521
  459TIP3    H2 1384   5.336   0.220   1.581 -0.8566  0.0027  0.1938
  460TIP3   OH2 1385   5.668   0.844   2.185  0.0778  0.0264  0.2683
  460TIP3    H1 1386   5.654   0.926   2.233 -1.1245  0.2075 -0.3616
  460TIP3    H2 1387   5.740   0.864   2.126 -1.7569  1.4751 -1.6344
  461TIP3   OH2 1388   4.630   1.398   4.474 -0.5059 -0.5061  0.6827
  461TIP3    H1 1389   4.590   1.334   4.416 -1.3606  0.3680  0.2895
  461TIP3    H2 1390   4.659   1.346   4.550 -0.5510 -1.4515  0.0716
  462TIP3   OH2 1391   5.606   2.679   4.281  0.6822  0.3467 -0.0881
  462TIP3    H1 1392   5.681   2.619   4.286  1.7007  1.4846 -1.1474
  462TIP3    H2 1393   5.532   2.622   4.261  1.1662 -0.8524  1.2534
  463TIP3   OH2 1394   2.874   1.208   4.642  0.1895 -0.3736  0.0666
  463TIP3    H1 1395   2.942   1.210   4.709  1.4405  0.4870 -1.1521
  463TIP3    H2 1396   2.793   1.231   4.688  0.8813 -0.5023  1.3862
  464TIP3   OH2 1397   4.801   5.320   3.893 -0.3360  0.0252 -0.0997
  464TIP3    H1 1398   4.709   5.310   3.918 -1.0922 -1.5445 -3.0490
  464TIP3    H2 1399   4.850   5.284   3.967 -2.1396 -0.3089  1.0002
  465TIP3   OH2 1400   0.473   2.549   1.120  0.4258  0.1906 -0.1052
  465TIP3    H1 1401   0.417   2.485   1.164 -0.1703 -0.0961 -1.2414
  465TIP3    H2 1402   0.444   2.633   1.154 -0.2120 -0.0020 -0.1589
  466TIP3   OH2 1403   2.093   4.080   3.239 -0.5790  0.1556 -0.2856
  466TIP3    H1 1404   2.053   4.101   3.155  0.6394 -0.6812 -1.1288
  466TIP3    H2 1405   2.102   3.984   3.238 -1.8044 -0.0154  1.4146
  467TIP3   OH2 1406   5.430   2.444   1.161  0.1159 -0.6571  0.0172
  467TIP3    H1 1407   5.502   2.462   1.100  1.3313 -0.9751  1.3240
  467TIP3    H2 1408   5.419   2.526   1.209 -0.8380 -0.4093 -0.6063
  468TIP3   OH2 1409   2.420   2.665   4.645  0.9031  0.4036 -0.2268
  468TIP3    H1 1410   2.468   2.736   4.602  1.6039  0.8750  1.2692
  468TIP3    H2 1411   2.434   2.679   4.738 -0.3273 -0.7579  0.1741
  469TIP3   OH2 1412   6.071   0.280   2.587 -0.0788  0.2737 -0.1213
  469TIP3    H1 1413   6.101   0.340   2.655 -0.2370 -1.1055  1.2412
  469TIP3    H2 1414   5.985   0.313   2.562  0.8532  1.9995 -1.2117
  470TIP3   OH2 1415   5.489   2.529   0.701  0.3669  0.2258 -0.1513
  470TIP3    H1 1416   5.506   2.457   0.641 -0.4011 -0.5889  0.5707
  470TIP3    H2 1417   5.395   2.524   0.718  0.3529  1.2170  0.1501
  471TIP3   OH2 1418   5.635   3.921   2.951  0.0398 -0.1501  0.2954
  471TIP3    H1 1419   5.564   3.927   2.886  0.3291  2.3322  0.0958
  471TIP3    H2 1420   5.692   3.852   2.918  0.0982  0.9327 -2.0844
  472TIP3   OH2 1421   4.717   5.818   1.802  0.0994 -0.4482 -0.1601
  472TIP3    H1 1422   4.730   5.820   1.897  1.2375  1.1109 -0.3118
  472TIP3    H2 1423   4.651   5.886   1.786  1.6131  0.9586 -0.6721
  473TIP3   OH2 1424   5.772   5.398   4.155  0.1534  0.1012  0.1613
  473TIP3    H1 1425   5.821   5.416   4.075 -2.1680 -0.7754 -1.5862
  473TIP3    H2 1426   5.785   5.476   4.209 -0.9964  2.3941 -2.5993
  474TIP3   OH2 1427   1.227   1.203   0.226  0.3264 -0.2766  0.2341
  474TIP3    H1 1428   1.183   1.181   0.308  2.4816 -1.4086  1.1707
  474TIP3    H2 1429   1.166   1.174   0.158 -1.6531  0.9806  1.3677
  475TIP3   OH2 1430   1.706   2.083   4.854  0.2050 -0.0862 -0.0059
  475TIP3    H1 1431   1.684   2.055   4.765  2.8418 -2.0061 -0.1807
  475TIP3    H2 1432   1.722   2.177   4.846  1.7465 -0.4249 -1.9512
  476TIP3   OH2 1433   0.943   0.441   3.940 -0.2562  0.8997 -0.2484
  476TIP3    H1 1434   0.970   0.400   4.022 -0.5212  1.3917  0.0938
  476TIP3    H2 1435   0.892   0.374   3.895  1.3751  0.0106 -0.8323
  477TIP3   OH2 1436   0.458   0.100   0.342 -0.2116  0.5554  0.0752
  477TIP3    H1 1437   0.391   0.164   0.321 -0.2256  0.1454 -1.2051
  477TIP3    H2 1438   0.517   0.101   0.267  1.6578  1.4289  1.4728
  478TIP3   OH2 1439   1.486   5.803   4.112 -0.4160 -0.0668  0.5279
  478TIP3    H1 1440   1.564   5.856   4.097 -0.1239 -0.6093  0.0987
  478TIP3    H2 1441   1.500   5.723   4.061 -1.1886 -0.2340  0.5555
  479TIP3   OH2 1442   1.642   3.405   4.382  0.2095 -0.3520 -0.8909
  479TIP3    H1 1443   1.683   3.325   4.414  1.1863  0.7609  0.7699
  479TIP3    H2 1444   1.694   3.475   4.420 -2.2062  1.1193 -0.0956
  480TIP3   OH2 1445   1.788   3.846   2.295 -0.0403  0.1937 -0.0724
  480TIP3    H1 1446   1.835   3.883   2.370 -1.2558  1.0158  0.3108
  480TIP3    H2 1447   1.751   3.764   2.329  1.4538 -0.6985 -0.5093
  481TIP3   OH2 1448   3.090   4.314   1.329  0.5702 -0.5226  0.7338
  481TIP3    H1 1449   3.067   4.272   1.246 -1.0802  1.4080  0.1219
  481TIP3    H2 1450   3.079   4.246   1.395 -3.6731 -0.8183  0.0212
  482TIP3   OH2 1451   2.649   5.256   1.994  0.0342  0.0257 -0.3988
  482TIP3    H1 1452   2.724   5.201   1.976 -1.4892 -2.2919 -0.0752
  482TIP3    H2 1453   2.597   5.254   1.914 -1.4619 -1.4894  0.5362
  483TIP3   OH2 1454   5.367   1.015   2.629 -0.1044  0.4854  0.1900
  483TIP3    H1 1455   5.382   1.101   2.589  1.2974  0.6232  0.9762
  483TIP3    H2 1456   5.445   0.998   2.681 -0.6826 -0.9501  0.6409
  484TIP3   OH2 1457   1.688   5.626   1.616 -0.1924 -0.1977 -0.6076
  484TIP3    H1 1458   1.634   5.552   1.645  1.8654 -1.1677  1.0258
  484TIP3    H2 1459   1.763   5.625   1.675  0.4414  2.5773 -1.2363
  485TIP3   OH2 1460   1.805   0.364   0.859  0.1938 -0.4143 -0.1358
  485TIP3    H1 1461   1.790   0.293   0.922 -0.9971  0.6259  0.7958
  485TIP3    H2 1462   1.825   0.319   0.777 -3.1560 -1.9691 -0.2651
  486TIP3   OH2 1463   0.693   1.710   1.771  0.0937 -0.3417  0.2338
  486TIP3    H1 1464   0.620   1.765   1.744  0.0872 -1.2356 -1.7173
  486TIP3    H2 1465   0.768   1.743   1.721  0.3963 -1.2198  0.0931
  487TIP3   OH2 1466   5.115   4.357   2.510 -0.6230 -0.5482 -0.1824
  487TIP3    H1 1467   5.077   4.381   2.425 -0.1622  0.3227 -0.1507
  487TIP3    H2 1468   5.057   4.398   2.574 -0.7657 -0.9053 -0.0820
  488TIP3   OH2 1469   1.505   2.050   1.639  0.6892 -0.1888  0.1969
  488TIP3    H1 1470   1.565   2.125   1.638  1.1996 -0.5939 -1.1349
  488TIP3    H2 1471   1.512   2.013   1.551  1.0866 -2.3278  1.0832
  489TIP3   OH2 1472   0.258   2.912   3.754  0.2289  0.1952 -0.1115
  489TIP3    H1 1473   0.198   2.917   3.829  0.9935  0.9183  0.4680
  489TIP3    H2 1474   0.287   3.002   3.741  1.9767 -0.2789  0.2751
  490TIP3   OH2 1475   5.553   3.560   0.753  0.0158  0.1769 -0.3665
  490TIP3    H1 1476   5.569   3.611   0.833 -0.8266 -0.7698  0.4377
  490TIP3    H2 1477   5.458   3.562   0.742  0.1829  1.1294 -1.9423
  491TIP3   OH2 1478   3.715   1.674   3.576 -0.8859 -0.2815  0.0771
  491TIP3    H1 1479   3.631   1.648   3.540  0.0222 -2.4803 -0.6002
  491TIP3    H2 1480   3.742   1.749   3.523 -2.9787  1.3750  1.2116
  492TIP3   OH2 1481   5.996   2.752   2.764  0.1734  0.0938 -0.2684
  492TIP3    H1 1482   6.037   2.753   2.851 -0.5493  0.6754  0.0681
  492TIP3    H2 1483   6.023   2.668   2.727 -2.2597 -1.7901  1.8503
  493TIP3   OH2 1484   4.424   3.523   4.269 -0.1852 -0.1873 -0.2633
  493TIP3    H1 1485   4.379   3.602   4.241 -1.5108 -0.6043  0.5754
  493TIP3    H2 1486   4.506   3.554   4.309  0.0685  0.6203 -1.3759
  494TIP3   OH2 1487   5.017   3.204   4.591  0.1013  0.3208  0.1087
  494TIP3    H1 1488   5.066   3.279   4.624  0.1303  0.2521  0.2194
  494TIP3    H2 1489   4.928   3.215   4.625 -0.3974  1.3130 -1.3920
  495TIP3   OH2 1490   3.043   1.798   5.060 -0.7437  0.0240 -0.2895
  495TIP3    H1 1491   3.036   1.819   5.153  2.8311  0.1393  0.0715
  495TIP3    H2 1492   3.023   1.704   5.055  0.2821 -0.2811  0.8456
  496TIP3   OH2 1493   1.974   0.672   2.531 -0.4248 -0.4223 -0.7142
  496TIP3    H1 1494   1.985   0.715   2.616 -0.4110  0.1419 -0.9972
  496TIP3    H2 1495   2.045   0.608   2.528 -0.5893 -0.6396 -0.1850
  497TIP3   OH2 1496   2.829   1.087   3.470  0.6180 -0.1562 -0.1538
  497TIP3    H1 1497   2.803   1.065   3.559  2.7597  1.5489  1.0136
  497TIP3    H2 1498   2.770   1.157   3.443 -0.0611 -0.7061 -0.1149
  498TIP3   OH2 1499   4.069   4.396   2.202  0.7060  0.5771  0.3728
  498TIP3    H1 1500   4.080   4.348   2.284 -0.6740  1.9486  1.4115
  498TIP3    H2 1501   4.130   4.469   2.208  0.4823  0.7759  0.2438
  499TIP3   OH2 1502   4.090   0.097   3.197 -0.0740  0.0549 -1.0206
  499TIP3    H1 1503   4.023   0.041   3.158 -0.4087  0.0806 -0.4871
  499TIP3    H2 1504   4.042   0.174   3.227  0.2053  0.0968 -0.6797
  500TIP3   OH2 1505   2.416   4.303   4.143  0.0560  0.1306  0.3737
  500TIP3    H1 1506   2.502   4.315   4.102  0.8255 -0.2208  1.8178
  500TIP3    H2 1507   2.379   4.226   4.099  1.0636 -0.5199  0.6216
  501TIP3   OH2 1508   5.087   2.107   0.991  0.2102  0.6775  0.7134
  501TIP3    H1 1509   5.135   2.184   0.961 -2.5171  2.9290  1.6738
  501TIP3    H2 1510   5.122   2.089   1.078 -1.0532  2.7565  1.7192
  502TIP3   OH2 1511   1.453   0.737   0.526  0.3536  0.5421 -0.1205
  502TIP3    H1 1512   1.526   0.750   0.587  0.2941  0.4509 -0.0304
  502TIP3    H2 1513   1.493   0.693   0.450  0.8618  2.5227 -1.0623
  503TIP3   OH2 1514   1.858   0.448   4.632  0.8833  0.0215  0.0511
  503TIP3    H1 1515   1.902   0.431   4.715  2.5138  0.2851 -0.7105
  503TIP3    H2 1516   1.816   0.533   4.644  2.6010  0.9059  0.0677
  504TIP3   OH2 1517   1.940   1.949   4.592 -0.0021  0.4576 -0.6033
  504TIP3    H1 1518   1.991   1.952   4.673 -0.7845  5.5645  0.0381
  504TIP3    H2 1519   1.989   2.002   4.530 -2.6116  2.4083 -1.1551
  505TIP3   OH2 1520   3.586   5.326   1.827 -0.0350 -0.0811 -0.0126
  505TIP3    H1 1521   3.627   5.240   1.839  0.0874 -0.0620 -0.2702
  505TIP3    H2 1522   3.560   5.327   1.735  0.6561  0.4496 -0.2133
  506TIP3   OH2 1523   6.173   1.158   4.154 -0.4095  0.3091 -0.3037
  506TIP3    H1 1524   6.210   1.170   4.242 -2.7596  0.2979  0.7752
  506TIP3    H2 1525   6.198   1.069   4.129  0.4007  0.3604  0.2848
  507TIP3   OH2 1526   4.564   4.266   4.700  0.0910 -0.2071 -0.0298
  507TIP3    H1 1527   4.575   4.189   4.756  1.2775  0.7133  1.0702
  507TIP3    H2 1528   4.492   4.315   4.741 -0.3482 -0.4925 -0.4555
  508TIP3   OH2 1529   1.892   3.467   2.085 -0.1538 -0.1131 -0.2616
  508TIP3    H1 1530   1.934   3.384   2.109 -1.5446 -0.3817  1.4465
  508TIP3    H2 1531   1.800   3.445   2.074 -1.0265  1.5411  2.6469
  509TIP3   OH2 1532   4.198   2.767   4.857  0.8314  0.3322  0.3776
  509TIP3    H1 1533   4.112   2.729   4.838  2.0678 -3.1839  1.2250
  509TIP3    H2 1534   4.225   2.808   4.774 -0.3940 -1.1500 -0.8143
  510TIP3   OH2 1535   5.262   4.300   0.044  0.1609 -0.1385 -0.0674
  510TIP3    H1 1536   5.276   4.393   0.058 -0.0584 -0.2348  0.8425
  510TIP3    H2 1537   5.343   4.259   0.076  0.6982 -0.2004 -1.4387
  511TIP3   OH2 1538   4.468   2.275   3.179 -0.3547 -0.3901 -0.2405
  511TIP3    H1 1539   4.549   2.262   3.229  0.0880  1.5208 -0.3923
  511TIP3    H2 1540   4.492   2.337   3.111 -1.8595 -0.0951 -0.5338
  512TIP3   OH2 1541   3.230   1.860   2.273  0.0968  0.5045  0.1857
  512TIP3    H1 1542   3.144   1.855   2.231  0.1722  0.6628  0.0132
  512TIP3    H2 1543   3.287   1.805   2.218 -0.3799 -1.4270  1.5154
  513TIP3   OH2 1544   6.277   5.491   3.813  0.1953 -0.7079  0.2476
  513TIP3    H1 1545   6.337   5.422   3.785 -1.3458 -1.8268 -0.4665
  513TIP3    H2 1546   6.250   5.466   3.901 -3.0664 -3.1257 -1.2231
  514TIP3   OH2 1547   0.890   2.668   1.118  0.0354  0.0006 -0.1634
  514TIP3    H1 1548   0.891   2.750   1.069 -0.6596  0.6599  0.8647
  514TIP3    H2 1549   0.977   2.631   1.105  0.2352  0.7166 -0.9584
  515TIP3   OH2 1550   0.701   5.923   3.502 -0.0502 -0.1043  0.2708
  515TIP3    H1 1551   0.624   5.869   3.488 -0.7476  0.7347  0.8091
  515TIP3    H2 1552   0.673   6.012   3.480  1.4746 -0.1055 -2.0574
  516TIP3   OH2 1553   2.969   2.216   1.232  0.5727  0.4029  0.3902
  516TIP3    H1 1554   2.972   2.243   1.139  0.7586 -0.6260  0.0923
  516TIP3    H2 1555   3.060   2.225   1.262  0.7163 -0.2917  0.1718
  517TIP3   OH2 1556   0.386   2.360   3.685  0.1327  0.9681  0.2625
  517TIP3    H1 1557   0.443   2.412   3.629 -1.8116  1.3191 -1.5120
  517TIP3    H2 1558   0.419   2.271   3.678  1.4356  1.3912  0.6296
  518TIP3   OH2 1559   2.904   1.891   1.911 -0.4030  0.1312 -0.3653
  518TIP3    H1 1560   2.963   1.816   1.896  0.3193  0.7347 -0.6374
  518TIP3    H2 1561   2.817   1.853   1.912 -0.0595 -0.6968 -0.6816
  519TIP3   OH2 1562   2.420   3.980   0.231 -0.4187  0.4189 -0.2920
  519TIP3    H1 1563   2.488   4.026   0.280 -1.8644  1.8802  0.4121
  519TIP3    H2 1564   2.445   3.992   0.139  1.6134 -1.2662 -0.0624
  520TIP3   OH2 1565   0.157   2.147   4.910 -0.0246 -0.0324 -0.4103
  520TIP3    H1 1566   0.238   2.163   4.958  0.4034 -0.5037 -0.9735
  520TIP3    H2 1567   0.097   2.112   4.976  1.1961 -2.6836 -0.5732
  521TIP3   OH2 1568   1.185   2.641   0.350  0.0471  0.3402 -0.4717
  521TIP3    H1 1569   1.183   2.719   0.407 -2.3597 -1.2357  1.8603
  521TIP3    H2 1570   1.269   2.600   0.370  0.5729  1.4006 -0.4008
  522TIP3   OH2 1571   1.569   2.744   0.724 -0.6973 -0.1706  0.1313
  522TIP3    H1 1572   1.495   2.793   0.759 -2.4973 -1.5474 -1.4925
  522TIP3    H2 1573   1.631   2.737   0.797 -1.6706  1.9187  1.2314
  523TIP3   OH2 1574   0.073   1.629   1.815 -0.0891  0.0222  0.5275
  523TIP3    H1 1575   0.075   1.603   1.907  0.0133  1.6725  1.0410
  523TIP3    H2 1576   0.109   1.555   1.768  0.8047 -0.4821  1.9322
  524TIP3   OH2 1577   1.215   2.288   1.253 -0.6398 -0.0585 -0.5428
  524TIP3    H1 1578   1.154   2.240   1.197 -2.1029 -1.8147  2.3229
  524TIP3    H2 1579   1.263   2.220   1.301  0.3550  1.3427  0.5466
  525TIP3   OH2 1580   4.342   2.727   2.625 -0.4718  0.1011 -0.1878
  525TIP3    H1 1581   4.314   2.803   2.575 -0.2346 -0.6883 -1.5799
  525TIP3    H2 1582   4.310   2.652   2.574 -0.4630 -0.7326  0.9997
  526TIP3   OH2 1583   3.318   3.461   3.529  0.3527 -0.4773  0.3294
  526TIP3    H1 1584   3.330   3.539   3.476 -0.0203 -0.7707 -0.1884
  526TIP3    H2 1585   3.229   3.467   3.562 -0.0521 -1.2054 -0.5821
  527TIP3   OH2 1586   0.104   5.658   2.970 -0.1589  0.0934  0.4157
  527TIP3    H1 1587   0.185   5.681   2.926 -0.2756 -0.5677 -0.1522
  527TIP3    H2 1588   0.115   5.690   3.059  1.6104 -1.9220  0.9829
  528TIP3   OH2 1589   0.911   3.665   4.220  1.2771  0.7242  0.5867
  528TIP3    H1 1590   0.973   3.725   4.261  1.2409  0.5110  0.9563
  528TIP3    H2 1591   0.909   3.590   4.278  0.9573  0.5690  0.3753
  529TIP3   OH2 1592   4.279   1.674   1.605  0.8645 -0.4311  0.3201
  529TIP3    H1 1593   4.343   1.695   1.673  1.9985 -2.5180 -0.0414
  529TIP3    H2 1594   4.321   1.699   1.523  0.4967 -0.1934  0.2004
  530TIP3   OH2 1595   2.828   3.786   3.176 -0.5169 -0.5275 -0.2515
  530TIP3    H1 1596   2.832   3.814   3.084  1.0775 -0.7856 -0.2813
  530TIP3    H2 1597   2.869   3.700   3.176  2.4142  0.7411  1.1397
  531TIP3   OH2 1598   4.480   4.446   4.185  0.1889 -0.2954 -0.2639
  531TIP3    H1 1599   4.569   4.411   4.186  0.9460  1.4372  1.4963
  531TIP3    H2 1600   4.489   4.532   4.143 -0.5045  0.1346  0.4276
  532TIP3   OH2 1601   5.175   1.835   2.629  0.3373 -0.0298  0.5454
  532TIP3    H1 1602   5.237   1.772   2.593  1.4569  0.5733  1.3576
  532TIP3    H2 1603   5.157   1.895   2.556 -2.7752 -2.6436 -1.0888
  533TIP3   OH2 1604   0.407   2.436   0.724  0.4438 -0.3256 -0.4534
  533TIP3    H1 1605   0.403   2.344   0.751 -1.3620 -0.2719 -0.4277
  533TIP3    H2 1606   0.424   2.432   0.630 -0.4084 -0.7250 -0.5999
  534TIP3   OH2 1607   1.648   1.458   4.863  0.1018  0.0929 -0.5120
  534TIP3    H1 1608   1.663   1.373   4.821 -1.5516  0.1287 -1.2421
  534TIP3    H2 1609   1.583   1.440   4.930  0.0968  0.7056 -0.3502
  535TIP3   OH2 1610   0.983   4.171   3.869  0.1455 -0.1025  0.3766
  535TIP3    H1 1611   0.964   4.081   3.894 -1.7835  0.0433 -0.3971
  535TIP3    H2 1612   0.997   4.168   3.775 -2.4503  0.6719 -0.1335
  536TIP3   OH2 1613   2.280   2.602   3.909 -0.1184 -0.0089  0.7008
  536TIP3    H1 1614   2.326   2.679   3.874 -0.7800  0.0743 -0.0260
  536TIP3    H2 1615   2.262   2.625   4.000 -3.1395  2.1671 -0.2499
  537TIP3   OH2 1616   2.021   0.331   5.132 -0.7732 -0.2297  0.2765
  537TIP3    H1 1617   2.023   0.377   5.048  1.5882  0.7934  0.8012
  537TIP3    H2 1618   1.937   0.354   5.171 -0.5382  1.9620 -0.4051
  538TIP3   OH2 1619   3.307   1.518   3.151 -0.4203  0.3529  0.1028
  538TIP3    H1 1620   3.223   1.505   3.195  0.1949 -0.8323  0.9718
  538TIP3    H2 1621   3.357   1.438   3.169  1.5211  1.6793  1.0000
  539TIP3   OH2 1622   3.376   4.494   0.471  0.1411 -0.0913  0.0878
  539TIP3    H1 1623   3.404   4.402   0.480 -0.7595 -0.3572  0.2632
  539TIP3    H2 1624   3.371   4.527   0.561  0.9603  0.2942  0.0011
  540TIP3   OH2 1625   2.687   0.626   3.930 -0.1465  0.8027 -0.5244
  540TIP3    H1 1626   2.746   0.552   3.943 -1.0005  0.2712  0.5355
  540TIP3    H2 1627   2.659   0.619   3.839 -0.0139 -0.0383 -0.5097
  541TIP3   OH2 1628   3.597   1.122   1.103 -0.1454  0.6697 -0.0018
  541TIP3    H1 1629   3.608   1.039   1.056 -0.0198 -0.5689  2.1305
  541TIP3    H2 1630   3.503   1.140   1.099 -0.1501  0.5302 -0.6096
  542TIP3   OH2 1631   3.428   5.988   4.166 -0.4072 -0.7309 -0.4703
  542TIP3    H1 1632   3.431   5.946   4.252  0.9067 -0.0131 -0.1418
  542TIP3    H2 1633   3.508   5.958   4.123  0.4719  1.2416 -0.2977
  543TIP3   OH2 1634   3.393   1.504   1.619 -0.1646 -0.5223  0.6772
  543TIP3    H1 1635   3.485   1.520   1.640 -0.7173  0.9033  2.2058
  543TIP3    H2 1636   3.354   1.591   1.613 -1.4301 -1.1047  0.0363
  544TIP3   OH2 1637   5.780   0.896   3.079 -0.3375 -0.1701  0.0027
  544TIP3    H1 1638   5.744   0.838   3.012 -0.4722 -0.8124  0.6261
  544TIP3    H2 1639   5.716   0.966   3.087  1.0995  1.6448 -2.7461
  545TIP3   OH2 1640   2.323   0.374   3.882 -0.2229 -0.3728  0.1187
  545TIP3    H1 1641   2.281   0.416   3.807 -0.0266 -0.1094  0.1574
  545TIP3    H2 1642   2.250   0.344   3.936 -0.3885 -1.6100 -0.7461
  546TIP3   OH2 1643   1.991   4.539   3.514 -0.1283  0.6849 -0.0142
  546TIP3    H1 1644   2.042   4.468   3.553 -1.6799  1.0786  3.0253
  546TIP3    H2 1645   1.917   4.494   3.473 -0.6842  0.4336  1.2080
  547TIP3   OH2 1646   5.081   2.550   0.530  0.7034  0.2345 -0.6219
  547TIP3    H1 1647   5.050   2.505   0.452  0.6920  1.3758 -1.2884
  547TIP3    H2 1648   5.144   2.489   0.569 -0.7839 -1.2035 -0.3906
  548TIP3   OH2 1649   4.189   4.983   4.661  0.2079 -0.1865 -1.1740
  548TIP3    H1 1650   4.235   5.053   4.708 -0.5341  0.4448 -1.3812
  548TIP3    H2 1651   4.190   4.909   4.722  1.6858 -0.2660 -1.2590
  549TIP3   OH2 1652   3.110   1.395   0.767 -0.0175  0.1306  0.4245
  549TIP3    H1 1653   3.031   1.407   0.820 -0.5435  1.5664 -0.6170
  549TIP3    H2 1654   3.172   1.459   0.801  0.5386 -0.6327  0.8912
  550TIP3   OH2 1655   4.322   3.210   1.381 -0.4277  0.2644 -0.1073
  550TIP3    H1 1656   4.287   3.202   1.470  1.8392  2.6126  1.1235
  550TIP3    H2 1657   4.285   3.292   1.348 -0.5995 -0.1748 -1.0406
  551TIP3   OH2 1658   0.601   5.025   0.584  0.0871 -0.4865  0.2606
  551TIP3    H1 1659   0.630   5.053   0.671 -2.0971  1.8727  0.3428
  551TIP3    H2 1660   0.572   4.935   0.597 -2.0971  0.4207  2.5720
  552TIP3   OH2 1661   3.402   4.943   1.526 -0.7167  0.0848 -0.2906
  552TIP3    H1 1662   3.386   4.907   1.613 -0.2936 -0.9434 -0.6223
  552TIP3    H2 1663   3.359   4.882   1.466 -3.5906  2.3271 -0.7235
  553TIP3   OH2 1664   1.521   1.561   5.105 -0.2080 -0.1222 -0.6085
  553TIP3    H1 1665   1.600   1.562   5.160  0.5002  0.9738 -1.6146
  553TIP3    H2 1666   1.452   1.530   5.164  0.9004 -0.8525  0.3709
  554TIP3   OH2 1667   0.124   0.347   4.729 -0.6153 -0.3105 -0.0038
  554TIP3    H1 1668   0.063   0.274   4.713 -0.0121 -0.4681 -1.8130
  554TIP3    H2 1669   0.150   0.376   4.641  1.7833 -0.1345  0.6997
  555TIP3   OH2 1670   3.186   4.982   2.034  0.1787 -0.2684 -0.2029
  555TIP3    H1 1671   3.154   4.999   1.945 -0.4407  0.6120  0.1763
  555TIP3    H2 1672   3.265   4.929   2.021  0.2524  0.0765 -1.2885
  556TIP3   OH2 1673   5.064   3.802   3.656  0.0876 -0.2540 -0.0136
  556TIP3    H1 1674   5.045   3.808   3.562 -1.9744  0.3623  0.3953
  556TIP3    H2 1675   5.033   3.715   3.681  2.6801 -1.3544 -0.2506
  557TIP3   OH2 1676   1.460   0.509   1.578  0.5600  0.3604 -0.8971
  557TIP3    H1 1677   1.442   0.496   1.671 -0.2821 -0.5984 -1.1910
  557TIP3    H2 1678   1.396   0.575   1.550  1.1429  1.0313 -0.7046
  558TIP3   OH2 1679   2.492   2.399   2.674  0.1890  0.0671 -0.0800
  558TIP3    H1 1680   2.475   2.455   2.750  0.2544  0.6248 -0.4690
  558TIP3    H2 1681   2.580   2.422   2.646 -0.2731  0.7282 -1.0400
  559TIP3   OH2 1682   4.586   2.880   4.577 -0.5522 -0.2366  0.0248
  559TIP3    H1 1683   4.540   2.804   4.541 -0.1394 -0.3645 -0.2341
  559TIP3    H2 1684   4.516   2.942   4.598 -0.7774  0.3859 -2.2226
  560TIP3   OH2 1685   0.380   5.644   0.394  0.0827 -0.3472 -0.0611
  560TIP3    H1 1686   0.430   5.704   0.450  2.2446 -2.6608  0.6766
  560TIP3    H2 1687   0.296   5.634   0.438 -0.0281  1.4613  0.2112
  561TIP3   OH2 1688   2.532   3.779   0.727  0.0666 -0.0897 -0.1455
  561TIP3    H1 1689   2.563   3.764   0.817 -1.6742  0.5980  0.6141
  561TIP3    H2 1690   2.606   3.820   0.683  1.4417 -1.6974  0.5514
  562TIP3   OH2 1691   2.303   5.241   1.881 -0.6608 -0.7757 -0.0362
  562TIP3    H1 1692   2.359   5.306   1.839 -1.6076 -0.9187 -1.5873
  562TIP3    H2 1693   2.321   5.250   1.975  0.7597  0.2629 -0.3910
  563TIP3   OH2 1694   2.003   3.220   2.102  0.2381 -0.2793 -0.5166
  563TIP3    H1 1695   1.935   3.171   2.148  0.9194  0.0220  0.8669
  563TIP3    H2 1696   2.072   3.156   2.086  0.7753  0.0032  0.5520
  564TIP3   OH2 1697   1.563   2.335   1.365 -0.0498  0.1008  0.1293
  564TIP3    H1 1698   1.564   2.302   1.275 -0.9673 -0.6218  0.3651
  564TIP3    H2 1699   1.470   2.336   1.388  0.1454  0.7408  0.9082
  565TIP3   OH2 1700   2.903   5.234   1.262 -0.3707 -0.0995  0.3047
  565TIP3    H1 1701   2.852   5.158   1.234  0.4614 -0.2084 -0.9802
  565TIP3    H2 1702   2.977   5.198   1.309  1.0751 -0.2735 -1.9420
  566TIP3   OH2 1703   3.912   1.286   0.319  0.0295  0.3446 -0.4528
  566TIP3    H1 1704   3.885   1.377   0.318  0.7679  0.5734 -1.5293
  566TIP3    H2 1705   4.004   1.288   0.291  0.1532 -0.6926 -0.1635
  567TIP3   OH2 1706   5.233   4.916   4.321  0.1182 -0.3839  0.0339
  567TIP3    H1 1707   5.208   4.885   4.408  1.6924 -0.8985  0.3282
  567TIP3    H2 1708   5.246   4.837   4.269 -0.8619 -0.0816 -0.7263
  568TIP3   OH2 1709   3.240   2.564   0.704 -0.3974 -0.1163 -0.1382
  568TIP3    H1 1710   3.295   2.539   0.631 -1.8007 -0.9449 -0.9630
  568TIP3    H2 1711   3.297   2.557   0.781  1.0554  0.6390 -1.1010
  569TIP3   OH2 1712   6.274   1.658   5.029 -0.3338  0.7676  0.7375
  569TIP3    H1 1713   6.228   1.579   5.058  0.1737  1.0890  2.6071
  569TIP3    H2 1714   6.205   1.719   5.006 -0.7372 -0.0701 -0.3321
  570TIP3   OH2 1715   3.869   2.065   3.154 -0.1071 -0.2589  0.4027
  570TIP3    H1 1716   3.891   2.081   3.062 -2.6329 -0.4813 -0.3152
  570TIP3    H2 1717   3.845   1.972   3.157  0.0174 -0.2747  1.3138
  571TIP3   OH2 1718   6.168   1.254   3.065 -0.1394  0.1470  0.1274
  571TIP3    H1 1719   6.145   1.199   3.140 -1.2888  1.6302  0.9124
  571TIP3    H2 1720   6.145   1.343   3.092  3.0163  1.2827 -0.5308
  572TIP3   OH2 1721   0.309   5.596   3.167 -0.3263  0.0939  0.0775
  572TIP3    H1 1722   0.353   5.513   3.146 -2.0027 -0.4138 -1.6389
  572TIP3    H2 1723   0.299   5.593   3.262 -0.2671 -1.6618  0.0720
  573TIP3   OH2 1724   6.161   2.325   1.132 -0.0778 -0.0633 -0.6946
  573TIP3    H1 1725   6.160   2.318   1.036  1.0489  1.0191 -0.8031
  573TIP3    H2 1726   6.202   2.409   1.149 -0.7755  0.0046  0.7476
  574TIP3   OH2 1727   3.103   4.781   3.654  0.4734  0.1162 -0.5591
  574TIP3    H1 1728   3.065   4.776   3.566  1.0933  0.0483 -0.8227
  574TIP3    H2 1729   3.152   4.863   3.655  2.2789 -0.9156 -1.0135
  575TIP3   OH2 1730   6.215   5.764   3.392  0.3696 -0.5882 -0.1169
  575TIP3    H1 1731   6.191   5.701   3.460  2.9721 -1.3877  0.1749
  575TIP3    H2 1732   6.233   5.710   3.315  0.3966  0.0208 -0.5403
  576TIP3   OH2 1733   1.235   4.342   2.360  0.1090  0.6145  0.2076
  576TIP3    H1 1734   1.215   4.357   2.268 -0.6348  0.8995  0.4107
  576TIP3    H2 1735   1.243   4.247   2.368 -0.3143  0.5533 -0.0590
  577TIP3   OH2 1736   4.645   3.060   4.186 -0.4025  0.1146  0.2760
  577TIP3    H1 1737   4.601   3.144   4.205 -0.0210  0.8226 -1.7085
  577TIP3    H2 1738   4.606   3.032   4.103  2.1011  0.2282 -1.0067
  578TIP3   OH2 1739   5.975   4.848   4.657 -0.4115 -0.2125 -0.4329
  578TIP3    H1 1740   5.966   4.754   4.639  0.4485 -0.3165 -0.3611
  578TIP3    H2 1741   6.054   4.874   4.610  1.0075 -0.1455  1.8364
  579TIP3   OH2 1742   2.148   2.011   2.244  0.1775  0.2160 -0.6229
  579TIP3    H1 1743   2.223   2.069   2.252  1.0170 -0.8215 -0.7050
  579TIP3    H2 1744   2.102   2.020   2.328  0.6041  0.5837 -0.4257
  580TIP3   OH2 1745   1.141   2.670   2.581 -0.0020 -0.2336  0.3120
  580TIP3    H1 1746   1.152   2.695   2.489  1.1133 -1.5377  0.0522
  580TIP3    H2 1747   1.083   2.594   2.578 -0.1671 -0.1273  0.7255
  581TIP3   OH2 1748   4.950   2.152   3.470  0.6860 -0.6078  0.2982
  581TIP3    H1 1749   4.869   2.102   3.457  0.0909  0.4078 -0.0369
  581TIP3    H2 1750   4.921   2.236   3.505  1.8562 -1.3691  3.3898
  582TIP3   OH2 1751   0.755   5.344   0.685 -0.1144 -0.1207  0.5209
  582TIP3    H1 1752   0.783   5.282   0.617  1.8098  1.0443  0.1590
  582TIP3    H2 1753   0.760   5.293   0.766  0.8023 -0.6432  0.1617
  583TIP3   OH2 1754   5.322   2.079   0.352 -0.4019 -1.1175  0.2944
  583TIP3    H1 1755   5.231   2.051   0.357 -0.5254 -1.9206 -3.3313
  583TIP3    H2 1756   5.319   2.163   0.305  0.7414 -1.3771 -0.2885
  584TIP3   OH2 1757   2.433   3.646   2.306 -0.4946  0.0386  0.2120
  584TIP3    H1 1758   2.497   3.578   2.327 -1.1058 -0.4413  0.6013
  584TIP3    H2 1759   2.360   3.629   2.367 -1.3816 -0.0090 -0.8293
  585TIP3   OH2 1760   5.471   0.660   2.194  0.5244  0.0153  0.2443
  585TIP3    H1 1761   5.530   0.736   2.194 -1.7757  1.9572 -0.7975
  585TIP3    H2 1762   5.462   0.637   2.102 -1.2049  0.5690  0.2323
  586TIP3   OH2 1763   4.127   1.486   2.107  0.2675  0.3249 -0.2967
  586TIP3    H1 1764   4.109   1.437   2.187  1.2818 -0.9891 -0.8343
  586TIP3    H2 1765   4.092   1.574   2.124  2.0953  0.6515  2.2902
  587TIP3   OH2 1766   3.809   1.131   0.546  0.6123  0.1312 -0.1391
  587TIP3    H1 1767   3.824   1.187   0.470  0.4542  1.1092  0.5307
  587TIP3    H2 1768   3.752   1.183   0.603  0.0508 -0.9118  0.2836
  588TIP3   OH2 1769   1.163   4.694   1.012 -0.4746  0.0107 -0.6906
  588TIP3    H1 1770   1.240   4.736   0.973  0.1286 -0.3160  0.1234
  588TIP3    H2 1771   1.089   4.732   0.965  0.1088  1.2827 -0.6114
  589TIP3   OH2 1772   5.829   2.482   3.202 -0.2170  0.0104 -0.1532
  589TIP3    H1 1773   5.906   2.478   3.145 -0.9568 -0.7814 -1.1138
  589TIP3    H2 1774   5.782   2.560   3.173  0.5134  0.8686  0.8608
  590TIP3   OH2 1775   6.296   0.828   0.996  0.0684  0.5379 -0.2029
  590TIP3    H1 1776   6.217   0.866   1.033 -0.3816 -0.8724  0.3482
  590TIP3    H2 1777   6.366   0.856   1.056 -0.0637  1.3391 -0.3993
  591TIP3   OH2 1778   0.316   3.003   4.598 -0.0340  0.4466 -0.6483
  591TIP3    H1 1779   0.269   2.922   4.617  0.7780 -0.0784 -0.8047
  591TIP3    H2 1780   0.402   2.991   4.640  1.1245  0.0413 -2.9657
  592TIP3   OH2 1781   3.985   4.788   4.403 -0.1902  0.0275 -0.1278
  592TIP3    H1 1782   4.022   4.700   4.397  0.5339  0.2572  0.7576
  592TIP3    H2 1783   4.061   4.847   4.400 -0.4860  0.5210  1.3588
  593TIP3   OH2 1784   0.343   1.506   2.580  0.0863  0.7550  0.0466
  593TIP3    H1 1785   0.270   1.480   2.523 -0.4610  1.2101  0.5243
  593TIP3    H2 1786   0.301   1.540   2.659  0.8384 -0.1128  0.8514
  594TIP3   OH2 1787   1.626   5.382   4.171  0.0375  0.4808  0.2346
  594TIP3    H1 1788   1.546   5.419   4.135 -0.0327  0.5990  0.5070
  594TIP3    H2 1789   1.624   5.406   4.264 -0.1613 -0.4630  0.4901
  595TIP3   OH2 1790   5.591   3.724   3.864  0.5952  0.1417 -0.1638
  595TIP3    H1 1791   5.544   3.768   3.794  0.1771 -1.2203 -0.7643
  595TIP3    H2 1792   5.674   3.772   3.872 -0.0680  1.3595 -0.4093
  596TIP3   OH2 1793   4.881   5.105   0.426  0.1798  0.0378  0.1718
  596TIP3    H1 1794   4.835   5.027   0.457 -0.4465 -0.2903 -1.5298
  596TIP3    H2 1795   4.812   5.171   0.415 -0.1202 -0.6573 -3.0436
  597TIP3   OH2 1796   1.688   1.403   2.238 -0.1591  0.0483  0.0259
  597TIP3    H1 1797   1.761   1.389   2.298 -0.3776 -0.0082  0.2815
  597TIP3    H2 1798   1.628   1.459   2.287 -0.3856 -0.0834 -0.1031
  598TIP3   OH2 1799   1.006   5.838   5.112  0.5176 -0.4900  1.1431
  598TIP3    H1 1800   1.049   5.893   5.178 -0.0358 -0.9438  1.9071
  598TIP3    H2 1801   0.934   5.893   5.079  1.2013 -0.0139  0.4176
  599TIP3   OH2 1802   0.415   5.914   4.290 -0.2754 -0.1613 -0.4482
  599TIP3    H1 1803   0.505   5.886   4.273  0.3893  2.1021 -1.0050
  599TIP3    H2 1804   0.365   5.832   4.291  2.0677 -1.7698  2.1565
  600TIP3   OH2 1805   1.949   1.095   1.415 -0.1050 -0.3320 -0.1049
  600TIP3    H1 1806   1.882   1.118   1.351  1.6990  0.3027 -1.8578
  600TIP3    H2 1807   1.953   0.999   1.412 -0.0399 -0.3055 -0.9346
  601TIP3   OH2 1808   1.881   5.165   4.402  0.1866  0.0696 -0.0744
  601TIP3    H1 1809   1.911   5.137   4.488  1.7425  2.2070  0.1556
  601TIP3    H2 1810   1.927   5.108   4.341  1.5222  0.5497  0.4423
  602TIP3   OH2 1811   3.737   3.765   0.976  0.1260  0.6613 -0.6441
  602TIP3    H1 1812   3.699   3.747   0.890 -0.8480  0.7419 -0.2451
  602TIP3    H2 1813   3.673   3.821   1.020  0.6641  0.7241  0.0937
  603TIP3   OH2 1814   4.615   4.201   3.145  0.4563 -0.1659 -0.2050
  603TIP3    H1 1815   4.535   4.239   3.182  0.8027  2.6403 -2.0628
  603TIP3    H2 1816   4.589   4.169   3.059  1.2681  0.7707 -0.8248
  604TIP3   OH2 1817   2.378   1.620   4.318 -0.3234 -0.5370  0.3155
  604TIP3    H1 1818   2.317   1.599   4.388  0.2150  1.8568  1.6329
  604TIP3    H2 1819   2.456   1.569   4.337 -1.8022 -3.7215 -1.4489
  605TIP3   OH2 1820   3.095   0.545   0.466 -0.0237  0.3076  0.4592
  605TIP3    H1 1821   3.157   0.512   0.531 -1.2793  0.7016  1.8943
  605TIP3    H2 1822   3.079   0.470   0.408 -0.0230 -0.5037  1.4852
  606TIP3   OH2 1823   6.163   2.746   2.986 -0.1662  0.0730  0.2037
  606TIP3    H1 1824   6.143   2.653   2.996  0.0266  0.0180  0.0865
  606TIP3    H2 1825   6.128   2.787   3.065 -0.9714  0.0188 -0.1160
  607TIP3   OH2 1826   3.177   5.127   4.214  0.6003  0.6821  0.5266
  607TIP3    H1 1827   3.241   5.159   4.150 -1.4582  0.4140 -1.8656
  607TIP3    H2 1828   3.132   5.206   4.245 -1.2570  0.6235 -1.7350
  608TIP3   OH2 1829   5.107   0.325   3.732  0.1671 -0.2827 -0.0401
  608TIP3    H1 1830   5.067   0.256   3.678 -1.9597 -0.3047  1.4277
  608TIP3    H2 1831   5.113   0.287   3.819  4.1734 -0.4888 -0.2230
  609TIP3   OH2 1832   0.512   2.769   4.598  0.2237  0.0933 -0.2033
  609TIP3    H1 1833   0.443   2.714   4.561  1.0983 -1.4416  0.3484
  609TIP3    H2 1834   0.539   2.826   4.526  0.1115 -1.0473 -1.1679
  610TIP3   OH2 1835   5.492   4.431   2.919  0.0564 -0.2267 -0.0178
  610TIP3    H1 1836   5.417   4.417   2.977 -0.7057 -1.7740 -1.2711
  610TIP3    H2 1837   5.465   4.503   2.862 -0.8304 -1.2433 -0.9338
  611TIP3   OH2 1838   4.064   4.643   0.184 -0.5122 -0.2525 -0.7776
  611TIP3    H1 1839   4.002   4.713   0.206  0.1325 -0.2101  1.0610
  611TIP3    H2 1840   4.049   4.576   0.251  0.8416 -0.6046 -0.8004
  612TIP3   OH2 1841   0.215   2.721   2.248 -0.1533 -0.0291  0.2206
  612TIP3    H1 1842   0.170   2.707   2.164 -1.1111 -1.0188  0.8839
  612TIP3    H2 1843   0.210   2.637   2.293  0.1180  0.5613  1.3974
  613TIP3   OH2 1844   5.969   0.532   2.966 -0.2816  0.3073  0.1451
  613TIP3    H1 1845   6.036   0.542   2.899  1.1757 -2.6556  0.9701
  613TIP3    H2 1846   5.935   0.620   2.980  0.8236  1.3335 -2.9391
  614TIP3   OH2 1847   5.467   1.460   3.792  0.2564 -0.0194 -0.1515
  614TIP3    H1 1848   5.544   1.443   3.846  0.2627 -0.0517 -0.1702
  614TIP3    H2 1849   5.493   1.433   3.704  0.0104 -0.6647 -0.0383
  615TIP3   OH2 1850   3.925   0.318   3.287 -0.0485  0.4850 -0.2595
  615TIP3    H1 1851   3.880   0.258   3.227  0.3016  1.9001 -2.0114
  615TIP3    H2 1852   3.860   0.337   3.355  0.3014 -2.9876  1.2679
  616TIP3   OH2 1853   1.878   5.174   1.559  0.4605 -0.2010 -0.0999
  616TIP3    H1 1854   1.908   5.084   1.548 -1.2957 -0.9220  0.7779
  616TIP3    H2 1855   1.950   5.217   1.606  0.5520 -1.6273  1.1453
  617TIP3   OH2 1856   2.630   3.525   0.548  0.4123  0.1712 -0.6352
  617TIP3    H1 1857   2.626   3.456   0.615  0.9494  0.7453  0.0082
  617TIP3    H2 1858   2.558   3.585   0.572  1.9318  1.5344  0.7773
  618TIP3   OH2 1859   1.458   0.070   4.145  0.2122  0.0041 -0.5348
  618TIP3    H1 1860   1.465  -0.025   4.140 -0.0027 -0.1922  1.7122
  618TIP3    H2 1861   1.547   0.100   4.161 -0.1109 -0.2354  2.4362
  619TIP3   OH2 1862   1.367   0.680   3.587 -0.3938 -0.1531  0.0105
  619TIP3    H1 1863   1.454   0.720   3.574  0.9673 -1.7469  3.1964
  619TIP3    H2 1864   1.310   0.754   3.609  0.7098  0.6901  0.1433
  620TIP3   OH2 1865   4.799   0.608   3.272 -0.7965  0.5347 -0.3726
  620TIP3    H1 1866   4.795   0.697   3.308 -0.2329  0.6234 -0.5145
  620TIP3    H2 1867   4.741   0.611   3.196 -1.4388  0.5411  0.0993
  621TIP3   OH2 1868   1.969   0.589   4.400  0.6336  0.6735 -0.2019
  621TIP3    H1 1869   2.017   0.670   4.416  2.2876 -0.4715  1.0090
  621TIP3    H2 1870   1.964   0.548   4.486 -0.3145 -0.4427 -0.7678
  622TIP3   OH2 1871   0.888   5.833   0.463 -0.1593  0.4833 -0.2372
  622TIP3    H1 1872   0.840   5.753   0.486  0.0764  0.6414  0.8780
  622TIP3    H2 1873   0.839   5.870   0.390 -2.0651  0.8911  1.1509
  623TIP3   OH2 1874   3.837   0.386   0.863  0.3664  0.3226  0.0334
  623TIP3    H1 1875   3.821   0.456   0.927 -1.4237 -1.9350  2.2422
  623TIP3    H2 1876   3.848   0.307   0.915  3.3087 -1.0297 -2.3125
  624TIP3   OH2 1877   2.741   5.911   0.253  0.3875  0.0485 -0.1260
  624TIP3    H1 1878   2.812   5.884   0.194  1.7466  1.0587  0.9590
  624TIP3    H2 1879   2.698   5.829   0.277  0.5075 -0.4804 -1.6515
  625TIP3   OH2 1880   4.987   5.558   0.930 -0.3890 -0.0571  0.0262
  625TIP3    H1 1881   5.020   5.625   0.870  0.6174  1.1953  1.8784
  625TIP3    H2 1882   4.907   5.595   0.967  0.4733  0.4444  1.4851
  626TIP3   OH2 1883   2.513   0.409   1.926 -0.1411  0.1172  0.1490
  626TIP3    H1 1884   2.585   0.472   1.937 -1.4286  1.7482 -0.3631
  626TIP3    H2 1885   2.490   0.385   2.016  0.0058  0.8249  0.3890
  627TIP3   OH2 1886   0.056   3.225   2.985 -1.3779 -0.6017  0.3746
  627TIP3    H1 1887   0.040   3.261   3.072 -5.1499  1.4919 -0.9783
  627TIP3    H2 1888  -0.018   3.167   2.969 -0.4055 -1.4702 -1.2269
  628TIP3   OH2 1889   3.963   0.547   2.602 -0.3015 -0.3607  0.1392
  628TIP3    H1 1890   3.985   0.633   2.567  1.4496 -0.9156 -0.2773
  628TIP3    H2 1891   3.868   0.543   2.600 -0.3740  0.3514 -2.8639
  629TIP3   OH2 1892   1.388   2.601   0.568  0.0145 -0.4763  0.3787
  629TIP3    H1 1893   1.432   2.633   0.646 -0.7058 -0.8174  0.9353
  629TIP3    H2 1894   1.428   2.650   0.496  0.1239  0.4209  1.0337
  630TIP3   OH2 1895   3.442   1.905   4.580  0.3845  0.0493  0.2778
  630TIP3    H1 1896   3.434   1.957   4.660  0.7504  1.2445 -0.4405
  630TIP3    H2 1897   3.367   1.932   4.526 -0.6711 -1.7621  0.7357
  631TIP3   OH2 1898   1.339   2.692   1.813  0.2138 -0.6125 -0.3355
  631TIP3    H1 1899   1.423   2.736   1.800 -0.0588 -0.0948 -0.3859
  631TIP3    H2 1900   1.325   2.642   1.733  0.9086 -1.4451  0.0517
  632TIP3   OH2 1901   5.739   0.912   4.882  0.3063  0.1509  0.4189
  632TIP3    H1 1902   5.791   0.928   4.803  1.1778 -1.0779  0.7258
  632TIP3    H2 1903   5.729   0.999   4.921 -0.3972  0.8311 -1.1714
  633TIP3   OH2 1904   5.305   3.417   3.764 -0.0331 -0.0991  0.0644
  633TIP3    H1 1905   5.380   3.371   3.801  0.2290 -1.1230 -1.6478
  633TIP3    H2 1906   5.339   3.504   3.742  0.5992 -0.4539 -0.4113
  634TIP3   OH2 1907   0.730   4.631   1.985  0.1168 -0.1608 -0.7192
  634TIP3    H1 1908   0.797   4.612   2.051 -0.6925 -0.3831  0.0744
  634TIP3    H2 1909   0.778   4.644   1.904  1.0633 -1.1673 -0.3494
  635TIP3   OH2 1910   0.232   0.979   3.667  0.0667 -0.0631  0.0397
  635TIP3    H1 1911   0.233   0.986   3.572  0.2205 -1.4407 -0.0746
  635TIP3    H2 1912   0.205   0.889   3.685  0.0053  0.1825  1.3011
  636TIP3   OH2 1913   5.233   1.982   3.655  0.2665  0.4039  0.0856
  636TIP3    H1 1914   5.138   1.981   3.647  0.2165  1.4950  0.3381
  636TIP3    H2 1915   5.257   1.891   3.672 -0.6891  0.0516 -0.3962
  637TIP3   OH2 1916   0.017   0.394   2.764  0.3557 -0.0273  0.1291
  637TIP3    H1 1917   0.050   0.357   2.846  0.6148  0.0940  0.0781
  637TIP3    H2 1918   0.010   0.318   2.705 -1.0051 -0.3361  0.6329
  638TIP3   OH2 1919   0.668   3.984   4.024 -0.2289 -0.0204 -0.0084
  638TIP3    H1 1920   0.627   3.906   3.987  0.2371 -0.0695 -0.4235
  638TIP3    H2 1921   0.627   3.993   4.110 -1.6215  0.3470 -0.6830
  639TIP3   OH2 1922   4.901   3.743   0.408 -0.1127 -0.7236  0.0864
  639TIP3    H1 1923   4.922   3.658   0.371  1.6103 -1.0637  1.6986
  639TIP3    H2 1924   4.855   3.723   0.490 -1.9416 -0.0263 -0.7164
  640TIP3   OH2 1925   1.846   4.177   1.266 -0.0790  0.5038 -0.0394
  640TIP3    H1 1926   1.880   4.194   1.178  0.1622 -0.0235 -0.0521
  640TIP3    H2 1927   1.836   4.081   1.269  1.5309  0.3465  1.0960
  641TIP3   OH2 1928   6.082   4.687   2.766  0.1638 -0.2529  0.0156
  641TIP3    H1 1929   6.154   4.663   2.824 -0.3474 -0.0587  0.7464
  641TIP3    H2 1930   6.095   4.780   2.748 -0.4447  0.0317  0.9594
  642TIP3   OH2 1931   4.589   2.861   2.356 -0.4230 -0.0142  0.1105
  642TIP3    H1 1932   4.498   2.834   2.368 -0.4701 -0.0601 -0.3250
  642TIP3    H2 1933   4.639   2.781   2.371 -0.4824 -0.0806 -0.0439
  643TIP3   OH2 1934   4.754   3.359   4.389  0.3926  0.2893 -0.2009
  643TIP3    H1 1935   4.754   3.350   4.485 -1.2312 -0.9550 -0.2660
  643TIP3    H2 1936   4.710   3.279   4.358  0.4880  0.8829 -1.9685
  644TIP3   OH2 1937   4.428   1.369   4.126 -0.3376 -0.1692 -0.0810
  644TIP3    H1 1938   4.376   1.334   4.054  0.4046 -1.0491 -0.2128
  644TIP3    H2 1939   4.483   1.296   4.154  1.6940  0.9927 -0.7443
  645TIP3   OH2 1940   1.122   2.884   2.757 -0.1303  0.7890  0.2583
  645TIP3    H1 1941   1.120   2.795   2.720 -0.8320  1.3689 -1.1679
  645TIP3    H2 1942   1.156   2.939   2.686 -0.9008  1.8542  0.6942
  646TIP3   OH2 1943   1.338   1.740   1.251  0.0251 -0.0772  0.1066
  646TIP3    H1 1944   1.381   1.676   1.308  0.5800  0.0072 -0.2185
  646TIP3    H2 1945   1.247   1.712   1.248  0.5605 -1.8159 -1.3280
  647TIP3   OH2 1946   0.829   1.520   2.576  0.2964  0.2355  0.3394
  647TIP3    H1 1947   0.742   1.487   2.554  0.7258 -1.1436  0.6001
  647TIP3    H2 1948   0.856   1.468   2.652  0.8702  1.4715  1.0245
  648TIP3   OH2 1949   4.642   2.124   1.262 -0.0564  0.0017  0.5949
  648TIP3    H1 1950   4.561   2.142   1.213 -0.2901  0.5153  1.1520
  648TIP3    H2 1951   4.612   2.086   1.344  0.3632 -1.3535  0.1429
  649TIP3   OH2 1952   5.987   1.528   1.669  0.1166 -0.2013 -0.4211
  649TIP3    H1 1953   5.964   1.596   1.733 -1.7627  0.0670 -1.2988
  649TIP3    H2 1954   6.007   1.451   1.722 -1.1455  0.0784  0.5166
  650TIP3   OH2 1955   0.292   2.430   1.934 -0.2463 -0.3056  0.5438
  650TIP3    H1 1956   0.382   2.430   1.967 -0.8281  0.0601  2.2521
  650TIP3    H2 1957   0.301   2.425   1.839  1.5469 -1.1307  0.7222
  651TIP3   OH2 1958   4.400   3.462   4.982 -0.1670 -0.6934  0.1460
  651TIP3    H1 1959   4.458   3.386   4.981  0.1875 -0.4229 -0.4110
  651TIP3    H2 1960   4.349   3.452   5.062  1.5816 -0.2369  1.3670
  652TIP3   OH2 1961   2.468   5.018   0.689  0.3684  0.7359 -0.3892
  652TIP3    H1 1962   2.398   5.080   0.710  1.4443  2.0383 -0.5205
  652TIP3    H2 1963   2.528   5.067   0.633  1.1059 -0.5248 -0.7517
  653TIP3   OH2 1964   6.056   0.283   3.101  0.2242 -0.3513 -0.3964
  653TIP3    H1 1965   5.977   0.334   3.081  0.1758 -0.2348  0.0730
  653TIP3    H2 1966   6.114   0.346   3.144  1.0947 -0.0994 -1.8887
  654TIP3   OH2 1967   6.060   1.966   1.314 -0.0555 -0.3962  0.4024
  654TIP3    H1 1968   6.112   1.927   1.385 -1.4970 -0.1766  1.6438
  654TIP3    H2 1969   5.990   1.903   1.299 -0.2860 -0.0027 -0.1988
  655TIP3   OH2 1970   1.799   5.851   2.800 -0.1048  0.4039 -0.2639
  655TIP3    H1 1971   1.704   5.847   2.802 -0.0590 -1.0529 -0.0359
  655TIP3    H2 1972   1.824   5.865   2.892 -0.1358  3.0693 -0.5970
  656TIP3   OH2 1973   2.680   3.536   3.043  0.2356 -0.0207  0.0963
  656TIP3    H1 1974   2.747   3.534   3.111  0.8617 -0.8283 -0.5209
  656TIP3    H2 1975   2.720   3.491   2.969 -1.4323 -1.7026  0.1433
  657TIP3   OH2 1976   0.159   5.334   1.517  0.7578 -0.2817  0.4124
  657TIP3    H1 1977   0.175   5.244   1.487  0.1283 -0.8972  1.8401
  657TIP3    H2 1978   0.077   5.359   1.475  0.6146 -0.6110  0.4893
  658TIP3   OH2 1979   5.867   4.931   2.904 -0.3546  0.2887  0.7301
  658TIP3    H1 1980   5.792   4.970   2.860 -1.5921 -0.9558  1.6532
  658TIP3    H2 1981   5.909   4.877   2.837  0.0716  1.4224  0.0584
  659TIP3   OH2 1982   2.439   3.491   3.422 -0.3523 -0.2482  0.0572
  659TIP3    H1 1983   2.439   3.455   3.333 -1.3467  0.7287 -0.3582
  659TIP3    H2 1984   2.506   3.559   3.421  1.4380 -1.9179  0.8073
  660TIP3   OH2 1985   2.849   5.966   0.987 -0.4327 -0.1200 -0.1051
  660TIP3    H1 1986   2.944   5.966   0.972 -0.5020  0.0279 -0.5843
  660TIP3    H2 1987   2.834   5.896   1.050  0.0905  0.3811  0.5917
  661TIP3   OH2 1988   3.899   2.903   4.650 -0.6052  0.0170 -0.2018
  661TIP3    H1 1989   3.953   2.824   4.650  0.6839  0.8664  0.1947
  661TIP3    H2 1990   3.818   2.877   4.606 -0.3852 -1.6345  0.3077
  662TIP3   OH2 1991   3.849   0.172   3.536 -0.2124  0.2742  0.4246
  662TIP3    H1 1992   3.754   0.175   3.525 -0.0823  1.6673 -0.5627
  662TIP3    H2 1993   3.876   0.095   3.486 -0.3505  2.8295 -4.1358
  663TIP3   OH2 1994   5.121   0.298   5.002 -0.1540 -0.1270 -0.2270
  663TIP3    H1 1995   5.120   0.207   5.030  0.6269 -0.0020  0.2233
  663TIP3    H2 1996   5.077   0.297   4.918 -1.0852 -0.7601  0.2486
  664TIP3   OH2 1997   4.732   5.316   0.329  0.3665 -0.0510  0.1775
  664TIP3    H1 1998   4.692   5.250   0.273  0.1144  0.5593 -0.3798
  664TIP3    H2 1999   4.728   5.396   0.277  0.9885  0.3262  0.7004
  665TIP3   OH2 2000   3.338   5.181   3.821  0.2400 -0.2467 -0.1350
  665TIP3    H1 2001   3.246   5.156   3.821 -0.1892  1.2060 -1.2729
  665TIP3    H2 2002   3.382   5.111   3.870 -1.8342  0.4747  3.0557
  666TIP3   OH2 2003   4.954   3.280   1.306 -0.3845  0.0663 -0.0319
  666TIP3    H1 2004   4.883   3.339   1.333  0.4234  0.8308  0.4615
  666TIP3    H2 2005   5.033   3.320   1.342  0.4607 -0.1070 -1.6168
  667TIP3   OH2 2006   2.721   0.078   4.759  0.0677  0.0168  0.2128
  667TIP3    H1 2007   2.706   0.008   4.823 -0.5389  0.8058  0.9474
  667TIP3    H2 2008   2.688   0.042   4.676  0.1220 -0.7121  0.4992
  668TIP3   OH2 2009   4.874   5.530   3.676  0.3921 -0.0752  0.2568
  668TIP3    H1 2010   4.861   5.490   3.762  0.3620 -0.3012  0.1463
  668TIP3    H2 2011   4.955   5.581   3.686  0.5381 -0.3210  0.3401
  669TIP3   OH2 2012   0.820   3.742   0.642 -0.2752  0.1557 -0.4534
  669TIP3    H1 2013   0.896   3.731   0.699 -1.6959 -1.7913  1.2335
  669TIP3    H2 2014   0.797   3.834   0.650  0.0218  0.1017  1.5738
  670TIP3   OH2 2015   3.485   3.939   3.466 -0.5211 -0.3123 -0.2104
  670TIP3    H1 2016   3.453   3.860   3.423 -2.3387 -0.3646  1.1060
  670TIP3    H2 2017   3.407   3.976   3.508  0.1894  2.4034 -1.0860
  671TIP3   OH2 2018   6.126   4.969   2.728 -0.1047 -0.3421 -0.1374
  671TIP3    H1 2019   6.047   4.954   2.676 -0.3015 -0.6141  0.2401
  671TIP3    H2 2020   6.132   5.065   2.735  0.9886 -0.1931 -2.2857
  672TIP3   OH2 2021   3.778   3.486   3.795  0.4009 -0.2195  0.4358
  672TIP3    H1 2022   3.798   3.574   3.761  2.2137 -1.1676 -1.1546
  672TIP3    H2 2023   3.855   3.462   3.846 -0.6426 -0.4156  1.9877
  673TIP3   OH2 2024   1.998   0.636   4.824 -0.4595 -0.0743 -0.2780
  673TIP3    H1 2025   1.986   0.702   4.755  0.8214  0.5811  0.0771
  673TIP3    H2 2026   1.990   0.685   4.906 -1.5570 -0.7708  0.0506
  674TIP3   OH2 2027   3.982   3.931   3.338 -0.2166  0.2161 -0.1208
  674TIP3    H1 2028   4.054   3.925   3.400  0.5594  0.0490 -1.0193
  674TIP3    H2 2029   3.910   3.884   3.380 -0.3887  1.9202  1.5737
  675TIP3   OH2 2030   1.236   1.087   2.302  0.2286  0.9005 -0.0567
  675TIP3    H1 2031   1.301   1.123   2.242 -0.1411  0.2087 -0.8857
  675TIP3    H2 2032   1.156   1.081   2.250  0.0053 -0.0924  0.3753
  676TIP3   OH2 2033   5.514   3.362   3.961  0.2769 -0.2502  0.2474
  676TIP3    H1 2034   5.595   3.399   3.925 -1.1010  0.9252 -1.8229
  676TIP3    H2 2035   5.529   3.361   4.056  1.6499  2.6516  0.1771
  677TIP3   OH2 2036   4.552   1.200   4.679 -0.3271  0.0228 -0.2145
  677TIP3    H1 2037   4.536   1.174   4.769  0.2104  1.1285  0.2101
  677TIP3    H2 2038   4.571   1.117   4.633 -0.5623 -0.5350  0.6765
  678TIP3   OH2 2039   3.311   5.561   1.725 -0.0650 -0.5963  0.1134
  678TIP3    H1 2040   3.381   5.533   1.667  0.7968 -1.6396  1.6075
  678TIP3    H2 2041   3.240   5.499   1.709 -0.4276  0.0528 -0.9059
  679TIP3   OH2 2042   5.547   3.975   4.296  0.2431  0.3405  0.8404
  679TIP3    H1 2043   5.592   3.893   4.316 -0.1237  0.1713  0.9975
  679TIP3    H2 2044   5.552   4.026   4.376  0.0936  0.2875  0.8857
  680TIP3   OH2 2045   0.210   4.289   4.510  0.7038 -0.8132 -0.1035
  680TIP3    H1 2046   0.121   4.279   4.543  0.4241 -0.1168 -0.6239
  680TIP3    H2 2047   0.249   4.202   4.518  1.2642 -0.3958  3.7216
  681TIP3   OH2 2048   4.906   3.265   2.827  0.3728  0.6740  0.5233
  681TIP3    H1 2049   4.984   3.224   2.865  0.5773 -0.3188 -0.8787
  681TIP3    H2 2050   4.939   3.313   2.751 -0.4645 -0.5967 -0.7042
  682TIP3   OH2 2051   1.841   4.304   1.533  0.0157  0.1058 -0.1029
  682TIP3    H1 2052   1.835   4.263   1.447 -2.5671  1.1625 -0.5305
  682TIP3    H2 2053   1.822   4.397   1.517 -1.2447  0.2072  1.6435
  683TIP3   OH2 2054   1.654   4.730   1.198  0.1634  0.4283 -1.1670
  683TIP3    H1 2055   1.711   4.663   1.159 -2.2145 -0.1002 -4.1076
  683TIP3    H2 2056   1.651   4.800   1.134  0.7706  2.4217  0.8519
  684TIP3   OH2 2057   5.201   1.119   1.146 -0.1920  0.4123  0.7433
  684TIP3    H1 2058   5.204   1.087   1.236  0.2799  1.2093  1.0223
  684TIP3    H2 2059   5.108   1.124   1.126 -0.2878 -0.3645  0.9655
  685TIP3   OH2 2060   5.065   4.089   4.678  0.1484 -0.4046 -0.2740
  685TIP3    H1 2061   5.090   4.137   4.757 -0.0219  0.2248 -0.5961
  685TIP3    H2 2062   5.020   4.011   4.711 -0.7100  0.2866  0.2522
  686TIP3   OH2 2063   3.395   1.488   2.565  0.3513  0.6818  0.5692
  686TIP3    H1 2064   3.334   1.424   2.529  1.9039 -0.5552 -0.0041
  686TIP3    H2 2065   3.379   1.488   2.659 -2.6645  2.7747  0.1941
  687TIP3   OH2 2066   1.843   5.432   3.344  0.2420 -0.1744  0.0939
  687TIP3    H1 2067   1.915   5.370   3.354 -0.8988 -1.3551  1.4637
  687TIP3    H2 2068   1.814   5.449   3.433 -1.6481 -0.3289 -0.4471
  688TIP3   OH2 2069   4.583   2.928   0.652  0.0114 -0.1067  0.6109
  688TIP3    H1 2070   4.510   2.871   0.629  0.6664 -1.0457  0.8111
  688TIP3    H2 2071   4.615   2.893   0.736 -0.0052  0.9743  1.0840
  689TIP3   OH2 2072   2.650   2.135   0.512  0.1268 -0.8019 -0.4912
  689TIP3    H1 2073   2.642   2.072   0.441  1.5283 -0.4360 -1.0089
  689TIP3    H2 2074   2.740   2.169   0.505  0.1710 -0.4400  1.1876
  690TIP3   OH2 2075   4.021   2.644   1.954 -0.4308  0.1187  0.0779
  690TIP3    H1 2076   3.949   2.703   1.931 -0.2749 -0.3153 -1.6977
  690TIP3    H2 2077   4.050   2.608   1.870  2.7097  1.2339  0.5586
  691TIP3   OH2 2078   5.843   0.267   0.431  0.3740 -0.0113  0.1125
  691TIP3    H1 2079   5.770   0.291   0.373  0.8715  0.6497 -0.2656
  691TIP3    H2 2080   5.893   0.202   0.382 -0.3753 -1.0538  0.6922
  692TIP3   OH2 2081   5.622   2.851   3.792  0.5881  0.7886  0.0338
  692TIP3    H1 2082   5.568   2.928   3.808  0.5809  0.8010 -0.0473
  692TIP3    H2 2083   5.573   2.779   3.832  0.0158  0.6417 -0.8963
  693TIP3   OH2 2084   3.380   4.662   3.577  0.1217 -0.3041 -0.5067
  693TIP3    H1 2085   3.405   4.689   3.665  0.0831 -0.8253 -0.3300
  693TIP3    H2 2086   3.284   4.666   3.577  0.0742 -1.1106 -0.2457
  694TIP3   OH2 2087   1.296   4.944   2.485  0.3642 -0.3401  0.0796
  694TIP3    H1 2088   1.285   4.883   2.412  0.3119 -0.1606 -0.0616
  694TIP3    H2 2089   1.352   4.897   2.546  1.1381 -0.1522 -0.4715
  695TIP3   OH2 2090   3.159   5.573   2.285  0.2274  0.0019 -0.4241
  695TIP3    H1 2091   3.069   5.540   2.289  0.4668 -0.6902 -0.5899
  695TIP3    H2 2092   3.177   5.581   2.192  0.0545  0.9641 -0.3858
  696TIP3   OH2 2093   4.215   2.116   3.804 -0.2490  0.1712 -0.0439
  696TIP3    H1 2094   4.240   2.171   3.878 -0.9725  1.7743 -0.9550
  696TIP3    H2 2095   4.297   2.073   3.777  0.4437  1.2227  0.3322
  697TIP3   OH2 2096   2.860   3.633   0.482  0.2803 -0.5504  0.2390
  697TIP3    H1 2097   2.920   3.558   0.485  1.7180  0.5857  0.7964
  697TIP3    H2 2098   2.774   3.594   0.498  1.0004 -2.0646  0.7010
  698TIP3   OH2 2099   5.631   2.281   4.180  0.4460  0.5996  0.0986
  698TIP3    H1 2100   5.709   2.298   4.127  0.5007 -0.1082 -0.0565
  698TIP3    H2 2101   5.601   2.368   4.208 -0.4737  1.1289 -2.3462
  699TIP3   OH2 2102   5.972   3.625   4.206  0.3160 -0.5346 -0.2364
  699TIP3    H1 2103   6.029   3.555   4.239  0.5833 -0.8339 -1.2922
  699TIP3    H2 2104   6.021   3.662   4.133 -0.2379  0.1570 -0.2640
  700TIP3   OH2 2105   4.201   2.064   2.817  0.0136  0.4074 -0.5162
  700TIP3    H1 2106   4.154   2.145   2.799 -0.2707  0.3070 -0.2473
  700TIP3    H2 2107   4.137   1.995   2.799  0.8151  0.1440 -2.5535
  701TIP3   OH2 2108   1.674   5.175   5.111  0.3451  0.0119  0.3981
  701TIP3    H1 2109   1.589   5.218   5.112  1.0380  1.4991 -1.0027
  701TIP3    H2 2110   1.673   5.119   5.189 -2.1346 -0.5080  0.0842
  702TIP3   OH2 2111   3.631   1.100   2.747 -0.2005 -0.1005 -0.0965
  702TIP3    H1 2112   3.630   1.182   2.697  0.3963 -0.0432 -0.0239
  702TIP3    H2 2113   3.549   1.100   2.795 -0.6566 -0.0191 -0.8629
  703TIP3   OH2 2114   3.270   1.770   1.581 -0.1277 -0.1726 -0.3447
  703TIP3    H1 2115   3.189   1.821   1.585 -1.3542 -2.0985  1.3162
  703TIP3    H2 2116   3.298   1.776   1.489 -1.3457  1.7027 -0.6349
  704TIP3   OH2 2117   0.643   2.880   0.782 -0.1621 -0.7985 -0.9705
  704TIP3    H1 2118   0.734   2.858   0.758  0.0184 -2.1964  0.7982
  704TIP3    H2 2119   0.600   2.795   0.789 -0.5131 -0.4499  2.2217
  705TIP3   OH2 2120   1.479   3.146   0.793 -0.5996 -0.1647 -0.1196
  705TIP3    H1 2121   1.519   3.161   0.708 -1.7092 -0.3475 -0.6942
  705TIP3    H2 2122   1.431   3.064   0.783  0.1696 -0.7950  1.0323
  706TIP3   OH2 2123   2.993   4.589   4.206 -0.2960 -0.1102  0.3895
  706TIP3    H1 2124   3.077   4.632   4.219 -0.1809 -0.2824  0.2342
  706TIP3    H2 2125   2.998   4.553   4.117 -0.4927 -0.2112  0.4176
  707TIP3   OH2 2126   0.667   4.837   2.896 -0.4593  0.2222 -0.6218
  707TIP3    H1 2127   0.731   4.768   2.912 -1.2872 -0.5960 -0.7131
  707TIP3    H2 2128   0.710   4.917   2.924 -0.1783 -0.5660  1.3736
  708TIP3   OH2 2129   0.575   0.053   1.266 -0.2567 -0.1641 -0.3617
  708TIP3    H1 2130   0.555  -0.036   1.294 -1.2893  0.0668 -0.3370
  708TIP3    H2 2131   0.595   0.100   1.348 -2.7515  0.3771  0.0201
  709TIP3   OH2 2132   5.326   4.843   1.703  0.8233 -0.0811 -0.6437
  709TIP3    H1 2133   5.322   4.938   1.689 -0.3170 -0.2350 -1.4470
  709TIP3    H2 2134   5.314   4.805   1.616  0.3031 -0.9743 -0.1957
  710TIP3   OH2 2135   2.138   0.150   1.876  0.9696  0.0609 -0.2604
  710TIP3    H1 2136   2.148   0.241   1.901 -0.4215  0.0620  0.3532
  710TIP3    H2 2137   2.046   0.130   1.892  1.5616 -1.9005  1.2047
  711TIP3   OH2 2138   1.346   0.907   3.002 -0.0351 -0.2444 -0.2098
  711TIP3    H1 2139   1.326   0.829   2.951  1.6155 -0.1449 -1.0481
  711TIP3    H2 2140   1.343   0.979   2.939  2.6928 -0.2023 -0.4116
  712TIP3   OH2 2141   5.821   2.569   1.656 -0.2905  0.3029  0.2023
  712TIP3    H1 2142   5.904   2.527   1.634 -0.7254 -1.1139  1.1357
  712TIP3    H2 2143   5.803   2.626   1.581  0.4319 -1.0208 -1.0380
  713TIP3   OH2 2144   2.880   5.642   0.380 -0.0462 -0.3182 -0.0597
  713TIP3    H1 2145   2.893   5.721   0.326 -0.8962 -1.2366 -1.6826
  713TIP3    H2 2146   2.785   5.632   0.384  0.0555 -1.8158 -0.7672
  714TIP3   OH2 2147   1.308   2.225   4.427  0.2653  0.2551 -0.1232
  714TIP3    H1 2148   1.219   2.200   4.401  0.7314 -0.9537 -0.6641
  714TIP3    H2 2149   1.319   2.313   4.393 -0.6590  0.3437 -0.2196
  715TIP3   OH2 2150   5.322   3.735   1.835 -0.0809 -0.0666  0.2674
  715TIP3    H1 2151   5.319   3.647   1.797 -0.3077  0.0195  0.0866
  715TIP3    H2 2152   5.386   3.728   1.906  0.3618 -0.2217 -0.1428
  716TIP3   OH2 2153   3.485   5.406   0.209  0.1570 -0.7994  0.1433
  716TIP3    H1 2154   3.540   5.332   0.233  0.5814 -0.1725  1.1393
  716TIP3    H2 2155   3.448   5.382   0.124  1.2763 -1.6042 -0.1292
  717TIP3   OH2 2156   5.319   2.455   2.967 -0.4022 -0.0476  0.5217
  717TIP3    H1 2157   5.413   2.448   2.981 -0.5353 -1.9903  0.6826
  717TIP3    H2 2158   5.311   2.502   2.884  0.6555  0.7795  0.8518
  718TIP3   OH2 2159   3.933   3.773   5.011 -0.0719  0.2373 -0.4658
  718TIP3    H1 2160   3.879   3.699   5.039  0.1025 -0.4649 -1.9438
  718TIP3    H2 2161   4.020   3.753   5.045 -0.5129  1.0083  1.2695
  719TIP3   OH2 2162   0.364   4.971   1.211 -0.0978  0.4543  0.5080
  719TIP3    H1 2163   0.450   4.935   1.232 -0.3456 -0.4250  0.0691
  719TIP3    H2 2164   0.383   5.043   1.150  0.3200  0.2526  0.3977
  720TIP3   OH2 2165   4.850   1.289   4.198 -0.1012 -0.5523 -0.1094
  720TIP3    H1 2166   4.784   1.291   4.267 -0.9329 -0.4360 -0.8912
  720TIP3    H2 2167   4.897   1.372   4.208  0.3474 -0.9089  0.8398
  721TIP3   OH2 2168   2.956   2.767   0.093  0.0262 -0.0160  0.8232
  721TIP3    H1 2169   3.031   2.764   0.034 -0.1642 -1.7425  0.6369
  721TIP3    H2 2170   2.893   2.824   0.049  1.5391  2.2474  1.4148
  722TIP3   OH2 2171   2.683   5.047   1.166  0.3974  0.2465 -0.1983
  722TIP3    H1 2172   2.625   4.984   1.123  0.3676  0.6236 -0.7064
  722TIP3    H2 2173   2.770   5.009   1.156  0.3127 -0.0084  0.0173
  723TIP3   OH2 2174   4.986   3.708   0.763  0.0012  0.2666  0.0206
  723TIP3    H1 2175   4.923   3.639   0.743 -0.0668  0.2505  0.2798
  723TIP3    H2 2176   4.932   3.779   0.799  0.2380 -0.1423  1.2208
  724TIP3   OH2 2177   0.420   0.177   3.452  0.4386  0.2118 -0.1833
  724TIP3    H1 2178   0.411   0.249   3.390  0.4024 -0.6681 -1.2343
  724TIP3    H2 2179   0.359   0.198   3.523 -0.3904  0.6769 -1.0120
  725TIP3   OH2 2180   4.655   3.299   2.024 -0.2361 -0.2492  0.9490
  725TIP3    H1 2181   4.594   3.282   2.096 -1.2203 -1.9945 -0.2193
  725TIP3    H2 2182   4.600   3.298   1.946  1.0277  0.1164  0.0286
  726TIP3   OH2 2183   1.728   0.402   1.595 -0.0129  0.0901 -0.4805
  726TIP3    H1 2184   1.650   0.448   1.566  0.0234  0.9895  0.7802
  726TIP3    H2 2185   1.796   0.469   1.599  0.3230 -0.2820  0.3171
  727TIP3   OH2 2186   2.466   4.850   3.463 -0.1784  0.0724  0.0868
  727TIP3    H1 2187   2.379   4.812   3.451 -1.0475  1.7496  0.6673
  727TIP3    H2 2188   2.449   4.936   3.503  1.5544  1.5337 -2.0451
  728TIP3   OH2 2189   2.225   3.125   1.478 -0.2277  0.0028  0.0064
  728TIP3    H1 2190   2.155   3.186   1.503 -1.9763 -1.5260 -0.8705
  728TIP3    H2 2191   2.302   3.155   1.527 -1.1596  2.4855  0.1004
  729TIP3   OH2 2192   4.228   4.927   0.300 -0.0963  0.1269 -0.0226
  729TIP3    H1 2193   4.261   4.854   0.352  0.0070  0.6844  0.7140
  729TIP3    H2 2194   4.146   4.952   0.342 -0.2956  0.2246 -0.4644
  730TIP3   OH2 2195   4.109   2.747   3.690  0.4683 -0.2578 -0.5165
  730TIP3    H1 2196   4.070   2.759   3.603 -0.8032  0.0967  0.0733
  730TIP3    H2 2197   4.049   2.687   3.735  0.2263  0.7994  0.6290
  731TIP3   OH2 2198   1.528   4.570   4.123 -0.4957  0.1460 -0.1856
  731TIP3    H1 2199   1.607   4.520   4.103 -0.9567 -0.7805  0.2692
  731TIP3    H2 2200   1.547   4.612   4.207  0.4867  2.0443 -1.2741
  732TIP3   OH2 2201   5.568   3.440   1.663 -0.2250 -0.0595  0.1847
  732TIP3    H1 2202   5.543   3.356   1.623 -0.5709 -0.6646  1.6070
  732TIP3    H2 2203   5.591   3.496   1.589 -0.6808 -1.1841 -0.8403
  733TIP3   OH2 2204   5.090   3.301   0.243 -0.0801 -0.3355  0.3097
  733TIP3    H1 2205   5.040   3.383   0.251 -0.1550 -0.1064 -1.9295
  733TIP3    H2 2206   5.181   3.329   0.235 -0.0348 -0.5190  0.1946
  734TIP3   OH2 2207   0.094   5.664   1.617 -0.4305  0.1027  0.3092
  734TIP3    H1 2208   0.013   5.638   1.574 -0.5627  2.0949 -0.7816
  734TIP3    H2 2209   0.076   5.752   1.651  1.5491  1.0785 -0.9573
  735TIP3   OH2 2210   4.792   2.634   4.286  0.3989 -0.2199  0.4428
  735TIP3    H1 2211   4.791   2.725   4.317 -0.6591  0.2129 -0.7488
  735TIP3    H2 2212   4.857   2.590   4.340  1.6235  1.4759  0.4089
  736TIP3   OH2 2213   3.295   0.263   4.424 -0.0291 -0.6408  0.0908
  736TIP3    H1 2214   3.238   0.248   4.500 -0.6555 -1.9935 -0.6150
  736TIP3    H2 2215   3.234   0.281   4.353  0.5797  1.3166  0.0242
  737TIP3   OH2 2216   3.275   4.710   0.953 -0.0145 -0.2063  0.1780
  737TIP3    H1 2217   3.233   4.701   1.039 -0.4329  3.0107  0.4173
  737TIP3    H2 2218   3.368   4.711   0.972 -0.1132  0.8130  0.6817
  738TIP3   OH2 2219   4.813   0.550   4.056 -0.5058 -0.4324 -0.0978
  738TIP3    H1 2220   4.890   0.500   4.028  0.9139  1.0000  1.0868
  738TIP3    H2 2221   4.849   0.627   4.100 -2.6320  0.2129  0.6168
  739TIP3   OH2 2222   5.479   1.702   0.042 -0.1967 -0.0719  0.1273
  739TIP3    H1 2223   5.401   1.758   0.041 -0.2598 -0.1454 -1.2902
  739TIP3    H2 2224   5.493   1.679  -0.050 -0.0021 -2.1311  0.6075
  740TIP3   OH2 2225   0.722   4.503   3.929 -0.0622  0.0605  0.1213
  740TIP3    H1 2226   0.728   4.412   3.901 -1.4780  0.5892 -2.1213
  740TIP3    H2 2227   0.708   4.498   4.024  0.6878 -1.9922  0.1682
  741TIP3   OH2 2228   4.939   2.482   1.334  0.1843  0.4023  0.3760
  741TIP3    H1 2229   4.856   2.527   1.346  0.4250  0.7422  0.7948
  741TIP3    H2 2230   4.949   2.427   1.412 -1.0970 -2.0256 -1.0391
  742TIP3   OH2 2231   6.315   2.184   3.720  0.2606 -0.2398  0.2457
  742TIP3    H1 2232   6.314   2.279   3.724  1.3560 -0.1875 -0.2497
  742TIP3    H2 2233   6.335   2.164   3.629  0.0182 -0.9503  0.3390
  743TIP3   OH2 2234   0.475   5.085   1.800  0.0269  0.1058 -0.4380
  743TIP3    H1 2235   0.474   5.084   1.704  2.0696  0.9855 -0.5250
  743TIP3    H2 2236   0.427   5.164   1.824  1.1080  0.9085 -0.8381
  744TIP3   OH2 2237   1.037   1.092   4.997 -0.6051  0.2108 -0.5617
  744TIP3    H1 2238   1.124   1.068   5.031 -0.0941  1.3584 -1.0155
  744TIP3    H2 2239   0.978   1.078   5.072  0.1297  0.4185  0.0675
  745TIP3   OH2 2240   2.996   2.371   4.095  0.4261  0.4266 -0.0036
  745TIP3    H1 2241   3.049   2.445   4.122  1.1390  0.1128 -0.5210
  745TIP3    H2 2242   2.917   2.410   4.057 -0.0198  0.8849  1.3463
  746TIP3   OH2 2243   0.811   5.111   2.635 -0.4821 -0.4219  0.1471
  746TIP3    H1 2244   0.837   5.184   2.690 -0.2439 -1.3626  1.3384
  746TIP3    H2 2245   0.849   5.034   2.678  0.9133 -1.0788 -2.1198
  747TIP3   OH2 2246   1.740   1.739   2.629  0.2201  0.1528 -0.5938
  747TIP3    H1 2247   1.671   1.713   2.689 -0.2422  0.7127 -0.8820
  747TIP3    H2 2248   1.745   1.834   2.636  0.4288  0.1911 -1.1466
  748TIP3   OH2 2249   5.501   3.284   4.554  0.1528  0.2655 -0.4037
  748TIP3    H1 2250   5.444   3.341   4.502 -0.9552  0.2052  0.6961
  748TIP3    H2 2251   5.553   3.345   4.607 -2.3386  0.3615  2.1605
  749TIP3   OH2 2252   6.153   3.611   3.890  0.5308  0.2799  0.4764
  749TIP3    H1 2253   6.141   3.517   3.903 -0.2866  0.2178 -0.6808
  749TIP3    H2 2254   6.248   3.623   3.897  0.8346 -0.9119 -1.1159
  750TIP3   OH2 2255   3.777   3.141   2.986 -0.2064  0.7924 -0.1924
  750TIP3    H1 2256   3.818   3.131   3.072 -2.6484 -1.0817  0.8536
  750TIP3    H2 2257   3.840   3.101   2.925  0.3048 -0.4933  1.1241
  751TIP3   OH2 2258   4.277   0.680   2.494 -0.1340 -0.5509  0.4458
  751TIP3    H1 2259   4.256   0.745   2.561  0.1700 -0.8142  0.8004
  751TIP3    H2 2260   4.319   0.730   2.424 -0.4963 -0.2682  0.4276
  752TIP3   OH2 2261   1.569   3.710   1.207  1.0349 -0.0939  0.6504
  752TIP3    H1 2262   1.478   3.678   1.204  1.2331 -0.6232 -0.9754
  752TIP3    H2 2263   1.622   3.631   1.205  1.5624  0.1851  2.4342
  753TIP3   OH2 2264   5.697   1.410   2.095 -0.5687 -0.0793 -0.1195
  753TIP3    H1 2265   5.752   1.419   2.173 -0.6954 -1.5161  0.1566
  753TIP3    H2 2266   5.668   1.499   2.076  0.2484  0.4275  0.8977
  754TIP3   OH2 2267   5.670   4.566   1.951 -0.0969 -0.3114 -0.1622
  754TIP3    H1 2268   5.577   4.557   1.974 -0.1999  0.6848 -0.1269
  754TIP3    H2 2269   5.715   4.503   2.007 -0.5624  0.5694  1.2659
  755TIP3   OH2 2270   5.868   0.405   4.629  0.4127 -0.1006  0.0164
  755TIP3    H1 2271   5.806   0.478   4.620  1.4413  0.9192  0.9320
  755TIP3    H2 2272   5.954   0.447   4.632  0.9680 -1.2727  1.5422
  756TIP3   OH2 2273   4.065   0.837   4.881 -0.1046  0.1344 -0.0271
  756TIP3    H1 2274   4.109   0.770   4.935 -3.6119 -1.5028  1.0791
  756TIP3    H2 2275   4.000   0.788   4.830 -1.3541  2.4694 -0.8098
  757TIP3   OH2 2276   3.001   3.369   4.511  0.3613 -0.4697  0.0851
  757TIP3    H1 2277   2.977   3.277   4.497 -1.4666 -0.0477  0.2597
  757TIP3    H2 2278   3.087   3.377   4.470  0.7745 -2.3682  0.4731
  758TIP3   OH2 2279   3.094   2.517   4.569  0.7161  0.0399 -0.2743
  758TIP3    H1 2280   3.019   2.528   4.627  0.4015  0.1185 -0.6855
  758TIP3    H2 2281   3.101   2.601   4.523  3.2292  1.3783  2.2254
  759TIP3   OH2 2282   2.997   1.742   3.831 -0.6462  0.2052  0.0172
  759TIP3    H1 2283   3.049   1.820   3.810  0.5982 -1.0405 -1.8674
  759TIP3    H2 2284   2.958   1.717   3.747  0.4651 -2.2038  0.1616
  760TIP3   OH2 2285   0.223   4.089   0.606 -0.1188  0.5534  0.1525
  760TIP3    H1 2286   0.209   4.167   0.660 -2.2543  1.3490 -1.4066
  760TIP3    H2 2287   0.144   4.036   0.619 -0.3134  0.3727 -1.5090
  761TIP3   OH2 2288   5.365   0.141   0.467  0.1380  0.7667 -0.5064
  761TIP3    H1 2289   5.330   0.229   0.483 -0.0175  0.8730 -1.3795
  761TIP3    H2 2290   5.338   0.120   0.378  0.2065 -0.1602 -0.3192
  762TIP3   OH2 2291   2.069   4.762   5.100 -0.5335 -0.4232  0.0012
  762TIP3    H1 2292   1.989   4.804   5.132  0.7621  1.1570  1.3155
  762TIP3    H2 2293   2.094   4.702   5.170  1.4380  1.8754  1.4082
  763TIP3   OH2 2294   2.550   5.392   0.740  0.0665 -0.0892 -0.2853
  763TIP3    H1 2295   2.591   5.347   0.667  2.3381  1.4134 -0.0454
  763TIP3    H2 2296   2.584   5.348   0.818 -1.4045 -0.9063 -0.0539
  764TIP3   OH2 2297   5.243   2.411   4.392 -0.1341  0.1335  0.2541
  764TIP3    H1 2298   5.206   2.498   4.408  2.2422  1.4972 -1.0992
  764TIP3    H2 2299   5.171   2.362   4.351 -1.9435  0.9348  2.2383
  765TIP3   OH2 2300   3.070   2.099   2.607 -0.3464 -0.4491  0.9399
  765TIP3    H1 2301   3.097   2.017   2.648 -1.3017 -0.3838  1.7173
  765TIP3    H2 2302   3.076   2.164   2.677  0.1025  0.0964  0.4066
  766TIP3   OH2 2303   3.355   3.665   5.094  0.3102 -0.4285  0.2918
  766TIP3    H1 2304   3.404   3.680   5.013 -0.2443  0.7073  0.1410
  766TIP3    H2 2305   3.287   3.733   5.093  0.9594  0.2972  2.2516
  767TIP3   OH2 2306   5.009   0.671   4.667  0.3190 -0.2755  0.3186
  767TIP3    H1 2307   4.972   0.721   4.595 -1.3737 -1.5848  0.2076
  767TIP3    H2 2308   4.949   0.685   4.740  0.5844 -1.0005  0.6912
  768TIP3   OH2 2309   2.855   1.155   2.508 -0.3715 -0.2388  0.1908
  768TIP3    H1 2310   2.913   1.105   2.566  1.7163  0.5388 -1.1330
  768TIP3    H2 2311   2.866   1.246   2.535  0.8451  0.1716 -1.4997
  769TIP3   OH2 2312   4.286   3.057   3.129  0.4893  0.7503  0.0872
  769TIP3    H1 2313   4.320   3.028   3.045  0.2371 -0.6528  0.4423
  769TIP3    H2 2314   4.281   2.977   3.182 -0.5014  1.4053  1.0291
  770TIP3   OH2 2315   5.592   3.664   2.622  0.2206  0.0849 -0.4418
  770TIP3    H1 2316   5.553   3.736   2.574  0.7615  0.8118  0.1743
  770TIP3    H2 2317   5.685   3.668   2.600  0.1270 -0.9820 -1.0888
  771TIP3   OH2 2318   0.001   2.412   4.741 -0.0429  0.4575 -0.2435
  771TIP3    H1 2319   0.062   2.352   4.784 -2.2544 -0.5547  1.7132
  771TIP3    H2 2320  -0.053   2.446   4.812 -2.9375 -0.1227 -2.0159
  772TIP3   OH2 2321   0.341   4.622   1.891  0.7444  0.5631  0.3332
  772TIP3    H1 2322   0.404   4.678   1.846 -0.6530  0.9520 -1.2245
  772TIP3    H2 2323   0.370   4.622   1.982  3.3661  0.1655 -0.4252
  773TIP3   OH2 2324   4.637   0.240   1.488 -0.2131 -0.3773  0.4923
  773TIP3    H1 2325   4.594   0.255   1.404  0.0993 -3.1013 -0.2523
  773TIP3    H2 2326   4.671   0.151   1.482  3.3362  0.7151  2.0301
  774TIP3   OH2 2327   2.272   3.084   2.041  0.0814 -0.2895  0.1510
  774TIP3    H1 2328   2.318   3.160   2.076 -1.7402  0.5896  0.7697
  774TIP3    H2 2329   2.322   3.059   1.963  0.3669  1.9553 -0.4546
  775TIP3   OH2 2330   0.538   3.663   0.660  0.1394  0.1211  0.1372
  775TIP3    H1 2331   0.517   3.720   0.734  0.2196 -0.4631  0.6179
  775TIP3    H2 2332   0.634   3.657   0.661  0.2384  1.1365 -0.8065
  776TIP3   OH2 2333   2.399   0.400   2.170  0.4537 -0.2951  0.5425
  776TIP3    H1 2334   2.395   0.495   2.181  0.1545 -0.1850 -0.3891
  776TIP3    H2 2335   2.308   0.374   2.156  0.6614 -0.5349 -0.4966
  777TIP3   OH2 2336   2.087   2.887   1.899  0.1717 -0.0810 -0.0497
  777TIP3    H1 2337   2.154   2.819   1.904  1.1098  0.7635 -0.6672
  777TIP3    H2 2338   2.132   2.967   1.926 -1.3437  0.0709  2.3096
  778TIP3   OH2 2339   5.648   3.966   0.200 -0.2636  0.2760 -0.0111
  778TIP3    H1 2340   5.670   3.874   0.184  1.1316  0.2383  1.7421
  778TIP3    H2 2341   5.614   3.967   0.289  2.7976  1.7878  1.3189
  779TIP3   OH2 2342   2.678   1.290   2.360  0.2282  0.2492  0.3196
  779TIP3    H1 2343   2.731   1.234   2.417 -0.0287 -1.7788 -1.3247
  779TIP3    H2 2344   2.722   1.288   2.276 -2.1172 -1.1131 -0.9855
  780TIP3   OH2 2345   0.522   5.907   1.314 -0.0973 -0.2578 -0.0616
  780TIP3    H1 2346   0.453   5.851   1.348 -0.1229 -0.8264 -1.0161
  780TIP3    H2 2347   0.549   5.865   1.232  1.1270  0.1435  0.1108
  781TIP3   OH2 2348   2.669   5.284   0.981 -0.0865  0.2398 -0.7474
  781TIP3    H1 2349   2.671   5.204   1.034  2.5573  0.3933 -0.4352
  781TIP3    H2 2350   2.698   5.352   1.041  0.7737  0.8305 -1.7955
  782TIP3   OH2 2351   6.190   4.071   3.523 -0.3598 -0.0481  0.0798
  782TIP3    H1 2352   6.133   4.114   3.586  0.2070  0.2587  0.3894
  782TIP3    H2 2353   6.230   3.999   3.572 -0.2876 -0.1062 -0.0624
  783TIP3   OH2 2354   3.790   0.667   1.824 -0.1125  0.2660 -0.0295
  783TIP3    H1 2355   3.827   0.585   1.792  0.4516 -0.2321  1.7541
  783TIP3    H2 2356   3.756   0.646   1.911 -0.6022  1.7721  0.1846
  784TIP3   OH2 2357   2.437   1.286   1.152 -0.4032  0.6674  0.2660
  784TIP3    H1 2358   2.455   1.380   1.151  0.1546  0.5639  0.2306
  784TIP3    H2 2359   2.433   1.263   1.245 -0.6613  0.7484  0.2751
  785TIP3   OH2 2360   5.138   0.228   1.392  0.3802  0.6165 -0.2239
  785TIP3    H1 2361   5.077   0.301   1.383 -0.5233 -0.0186  0.5353
  785TIP3    H2 2362   5.084   0.154   1.421  1.2848 -0.3294 -0.8418
  786TIP3   OH2 2363   0.916   5.769   4.352 -0.0094  0.2327  0.5532
  786TIP3    H1 2364   0.845   5.781   4.288  1.1865  0.7257 -0.7222
  786TIP3    H2 2365   0.936   5.857   4.384 -0.2907  0.0390  1.2851
  787TIP3   OH2 2366   3.536   1.976   3.824 -0.4968  0.6718 -0.1367
  787TIP3    H1 2367   3.575   1.890   3.807  1.5591  1.4656  0.2492
  787TIP3    H2 2368   3.453   1.957   3.868 -0.4865 -1.1058 -0.8016
  788TIP3   OH2 2369   3.298   5.417   3.315 -0.4877  0.1486  0.4433
  788TIP3    H1 2370   3.204   5.428   3.331 -0.7257  0.9712 -1.2582
  788TIP3    H2 2371   3.323   5.495   3.266  0.7279 -0.8091 -0.5255
  789TIP3   OH2 2372   3.941   2.700   0.502 -0.0283  0.7305  0.0702
  789TIP3    H1 2373   3.864   2.697   0.444  1.3424  0.3722 -1.8371
  789TIP3    H2 2374   3.963   2.792   0.507 -0.1810  0.7679  0.0777
  790TIP3   OH2 2375   4.892   0.415   2.014 -0.4874  0.1591 -0.3170
  790TIP3    H1 2376   4.858   0.326   2.007 -0.7125  0.3043 -1.1174
  790TIP3    H2 2377   4.828   0.470   1.969  0.5201  0.5060 -1.4003
  791TIP3   OH2 2378   2.755   2.026   4.965  0.1352  0.3552 -0.1353
  791TIP3    H1 2379   2.735   2.050   5.055  0.8962  2.9140 -0.5627
  791TIP3    H2 2380   2.812   1.950   4.972 -0.1963  0.2314  1.5118
  792TIP3   OH2 2381   4.160   0.532   0.483 -0.0121  0.4686  0.0142
  792TIP3    H1 2382   4.201   0.474   0.419  0.4383  1.5402 -0.7014
  792TIP3    H2 2383   4.120   0.473   0.547  2.9215 -0.6647  0.9837
  793TIP3   OH2 2384   1.888   3.340   2.380 -0.6645  0.3404 -0.1302
  793TIP3    H1 2385   1.870   3.427   2.344 -0.5830  0.2911 -0.2888
  793TIP3    H2 2386   1.977   3.320   2.350 -1.1351 -0.3175 -1.1143
  794TIP3   OH2 2387   5.956   2.247   0.680  0.7324 -0.0198 -0.2503
  794TIP3    H1 2388   5.988   2.173   0.732 -0.6420 -0.0825  0.5237
  794TIP3    H2 2389   5.882   2.212   0.630  0.1348  0.7952  0.0368
  795TIP3   OH2 2390   5.676   1.113   1.503  0.0284  0.0955  0.4633
  795TIP3    H1 2391   5.587   1.147   1.489  0.5330  1.2684 -0.1032
  795TIP3    H2 2392   5.684   1.041   1.440 -0.3296  0.3622  0.1056
  796TIP3   OH2 2393   1.301   1.856   4.754 -0.2438 -0.0275  0.0151
  796TIP3    H1 2394   1.377   1.808   4.787  0.2658  0.6244 -0.1939
  796TIP3    H2 2395   1.249   1.790   4.708 -0.1401 -0.6140  0.7111
  797TIP3   OH2 2396   3.746   5.740   2.397  0.3166  0.0463 -0.1118
  797TIP3    H1 2397   3.728   5.677   2.467  2.0115 -0.2182  0.1292
  797TIP3    H2 2398   3.702   5.820   2.425 -1.3296 -0.8222 -0.1048
  798TIP3   OH2 2399   5.898   4.319   5.133 -0.2877  0.0669 -0.6736
  798TIP3    H1 2400   5.899   4.404   5.178  1.0883 -0.3164  0.0648
  798TIP3    H2 2401   5.976   4.321   5.077 -0.1517 -0.7787 -0.5151
  799TIP3   OH2 2402   6.006   0.737   4.759  0.7359 -0.0196 -0.0378
  799TIP3    H1 2403   5.986   0.828   4.736 -3.6410 -0.9485 -0.7423
  799TIP3    H2 2404   5.979   0.687   4.682  1.9912 -2.0669  0.7862
  800TIP3   OH2 2405   5.814   1.773   3.036  0.5390 -0.0521  0.0402
  800TIP3    H1 2406   5.782   1.846   2.983  0.9389  0.6143  0.7001
  800TIP3    H2 2407   5.751   1.766   3.108  0.4238 -0.4531 -0.0980
  801TIP3   OH2 2408   4.793   2.341   1.884 -0.0533  0.3928  0.1644
  801TIP3    H1 2409   4.738   2.273   1.922  1.1062 -0.8931 -0.3790
  801TIP3    H2 2410   4.745   2.422   1.899 -1.1392 -0.4523  1.4689
  802TIP3   OH2 2411   4.049   5.831   2.910  0.1131  0.0674 -0.4404
  802TIP3    H1 2412   4.027   5.924   2.908  0.1822  0.1079 -2.5905
  802TIP3    H2 2413   4.064   5.809   2.818  3.3121 -1.3305  0.2958
  803TIP3   OH2 2414   2.392   0.397   0.081 -0.2843  0.0010  0.4311
  803TIP3    H1 2415   2.476   0.355   0.100 -0.7303 -1.3333 -0.3808
  803TIP3    H2 2416   2.415   0.484   0.048  0.8075 -0.5023 -0.2017
  804TIP3   OH2 2417   1.847   4.737   2.086  0.4654  0.2310 -0.6263
  804TIP3    H1 2418   1.935   4.773   2.077 -0.1735  2.9561  2.1572
  804TIP3    H2 2419   1.855   4.673   2.157  0.5729 -1.2354 -1.9224
  805TIP3   OH2 2420   0.084   2.950   3.974  0.4493  0.4819 -0.0154
  805TIP3    H1 2421   0.057   2.900   4.051  0.7317  1.5849  0.8262
  805TIP3    H2 2422   0.004   2.963   3.924  0.3639 -0.7564 -0.2344
  806TIP3   OH2 2423   5.714   0.293   3.635 -0.2176  0.0080 -0.1310
  806TIP3    H1 2424   5.729   0.292   3.729 -1.4870  1.0779  0.1166
  806TIP3    H2 2425   5.625   0.261   3.624  0.2320 -1.0015 -1.0658
  807TIP3   OH2 2426   6.150   1.748   1.915 -0.1151  0.0290 -0.6057
  807TIP3    H1 2427   6.212   1.727   1.845  1.2600 -0.9210  0.8427
  807TIP3    H2 2428   6.147   1.844   1.916  0.6595  0.0757 -1.2674
  808TIP3   OH2 2429   1.629   1.315   1.016  0.0774  0.3246 -0.1806
  808TIP3    H1 2430   1.583   1.284   0.938  0.8060  1.2940 -1.0422
  808TIP3    H2 2431   1.632   1.410   1.005 -1.3391  0.6608  1.9382
  809TIP3   OH2 2432   3.128   2.953   4.736 -0.3039  0.6011 -0.1649
  809TIP3    H1 2433   3.048   2.915   4.699  0.0946 -1.5924  1.0201
  809TIP3    H2 2434   3.109   2.962   4.829  0.5205  0.9013 -0.0174
  810TIP3   OH2 2435   5.006   3.426   1.045 -0.0460 -0.3826  0.0567
  810TIP3    H1 2436   5.008   3.335   1.075  1.7499 -0.2098  0.6023
  810TIP3    H2 2437   5.019   3.420   0.950 -0.2211 -0.7089  0.0517
  811TIP3   OH2 2438   1.614   2.641   2.056 -0.1475  0.0739  0.2282
  811TIP3    H1 2439   1.592   2.666   1.966  1.3283  0.5086 -0.0435
  811TIP3    H2 2440   1.669   2.563   2.046 -0.7550 -0.4347  0.8130
  812TIP3   OH2 2441   5.315   4.924   5.076 -0.0941 -0.4492  0.1369
  812TIP3    H1 2442   5.271   5.003   5.046  0.5265  0.1520  0.7564
  812TIP3    H2 2443   5.392   4.917   5.020 -1.0600 -1.6358 -1.1110
  813TIP3   OH2 2444   1.105   4.750   1.314  0.2960 -0.0269 -0.3914
  813TIP3    H1 2445   1.191   4.780   1.342 -0.4523  0.6675  1.3130
  813TIP3    H2 2446   1.112   4.740   1.219  1.9412  1.0257 -0.4123
  814TIP3   OH2 2447   0.768   4.776   3.899  0.0974  0.1146  0.4178
  814TIP3    H1 2448   0.858   4.780   3.867 -0.0983 -1.0090 -0.3418
  814TIP3    H2 2449   0.751   4.682   3.909 -0.3169  0.3776  2.5456
  815TIP3   OH2 2450   0.250   1.327   3.752 -0.4984  0.2021  0.0294
  815TIP3    H1 2451   0.303   1.351   3.828 -0.4154 -1.1915  0.4468
  815TIP3    H2 2452   0.160   1.336   3.782 -0.4659 -0.4782  0.3523
  816TIP3   OH2 2453   0.927   5.727   2.134 -0.3219  0.2981  0.2655
  816TIP3    H1 2454   0.844   5.715   2.180 -0.0251 -0.9127  0.5199
  816TIP3    H2 2455   0.973   5.644   2.146  1.0610  1.0551  0.3996
  817TIP3   OH2 2456   2.774   1.753   2.955  0.2348 -0.2418  0.3009
  817TIP3    H1 2457   2.869   1.750   2.965  0.7147 -2.4040 -3.1996
  817TIP3    H2 2458   2.745   1.664   2.975 -0.9089  0.0994  0.2280
  818TIP3   OH2 2459   2.664   2.152   0.093  0.5265  0.0462 -0.0935
  818TIP3    H1 2460   2.756   2.174   0.107  0.7587 -0.6404 -0.5049
  818TIP3    H2 2461   2.634   2.217   0.028  0.7458  0.2054 -0.0378
  819TIP3   OH2 2462   1.112   1.565   1.245 -0.7535 -0.2211 -0.2576
  819TIP3    H1 2463   1.126   1.471   1.255 -2.6296 -0.3458  1.8898
  819TIP3    H2 2464   1.072   1.574   1.158 -0.6700 -1.3950 -0.4389
  820TIP3   OH2 2465   1.596   3.122   1.367  0.6310 -0.5763 -0.3461
  820TIP3    H1 2466   1.559   3.045   1.322  0.7480 -0.8649  0.0425
  820TIP3    H2 2467   1.616   3.090   1.455 -0.5215  0.2370  0.2305
  821TIP3   OH2 2468   5.751   3.471   5.115  0.0531 -0.2567 -0.1477
  821TIP3    H1 2469   5.683   3.404   5.111  1.4885 -1.8086  0.4458
  821TIP3    H2 2470   5.800   3.452   5.195  0.9829  1.0385 -0.3688
  822TIP3   OH2 2471   2.659   4.525   5.064  0.4318 -0.4927 -0.6135
  822TIP3    H1 2472   2.704   4.523   5.148 -1.2530 -1.0680  0.3181
  822TIP3    H2 2473   2.631   4.616   5.054  2.2578  0.0164 -1.4980
  823TIP3   OH2 2474   2.998   0.774   1.972 -0.6323  0.1280  0.1867
  823TIP3    H1 2475   2.993   0.786   1.877 -0.2129 -0.7353  0.0444
  823TIP3    H2 2476   2.907   0.761   1.999 -0.8258  1.0676  0.0067
  824TIP3   OH2 2477   0.597   1.899   2.315 -0.1257 -0.0866 -0.0068
  824TIP3    H1 2478   0.607   1.846   2.235 -0.4891 -0.2064  0.0244
  824TIP3    H2 2479   0.542   1.845   2.372 -2.4395  1.2417 -0.8385
  825TIP3   OH2 2480   1.460   5.210   2.746 -0.0733 -0.3576 -0.3447
  825TIP3    H1 2481   1.514   5.165   2.812 -0.4566 -0.7916 -0.3237
  825TIP3    H2 2482   1.376   5.165   2.749 -0.5161  0.4522 -0.2251
  826TIP3   OH2 2483   6.186   2.277   5.011 -0.3460 -0.4027 -0.0981
  826TIP3    H1 2484   6.193   2.370   5.031  0.0380 -0.5948  0.7114
  826TIP3    H2 2485   6.136   2.273   4.930 -2.9967  0.4029  1.3695
  827TIP3   OH2 2486   0.798   5.061   3.959 -0.1987 -0.2301 -0.6827
  827TIP3    H1 2487   0.708   5.053   3.990 -0.0622 -1.3160 -0.5412
  827TIP3    H2 2488   0.848   5.002   4.015  0.6440  0.4860 -0.6451
  828TIP3   OH2 2489   2.025   0.877   4.256 -0.3169 -0.3918  0.1547
  828TIP3    H1 2490   2.059   0.967   4.253  0.1816 -0.4936  1.8015
  828TIP3    H2 2491   1.930   0.887   4.252 -0.2327  0.1092 -1.0492
  829TIP3   OH2 2492   4.518   0.479   2.132 -0.3091  0.1975 -0.4717
  829TIP3    H1 2493   4.568   0.455   2.055  1.0785  0.8391  0.1919
  829TIP3    H2 2494   4.498   0.572   2.120 -0.3019  0.2393 -0.1843
  830TIP3   OH2 2495   0.108   2.858   3.136  0.3353 -0.2812  0.5106
  830TIP3    H1 2496   0.129   2.788   3.198  0.1904 -0.4362  0.3851
  830TIP3    H2 2497   0.074   2.813   3.059  0.6432 -0.0953  0.2617
  831TIP3   OH2 2498   5.768   0.917   0.194  0.1666  0.2622  0.3877
  831TIP3    H1 2499   5.824   0.898   0.270 -2.8271 -1.6139  2.3590
  831TIP3    H2 2500   5.696   0.968   0.229 -2.5478 -2.6076 -0.4856
  832TIP3   OH2 2501   0.452   5.218   0.843 -1.2257 -0.1160  0.2377
  832TIP3    H1 2502   0.475   5.255   0.929  0.0315  2.4704 -1.1143
  832TIP3    H2 2503   0.527   5.164   0.820 -0.7602  0.6023  0.0314
  833TIP3   OH2 2504   2.573   2.177   4.017 -0.0195 -0.6255 -0.1588
  833TIP3    H1 2505   2.546   2.086   4.024 -1.2891 -0.7629 -4.2406
  833TIP3    H2 2506   2.491   2.226   4.020  0.4574  0.1921 -0.2350
  834TIP3   OH2 2507   4.763   2.891   4.351 -0.1339 -0.7375 -0.1415
  834TIP3    H1 2508   4.726   2.945   4.281  2.3084  2.9312  1.0927
  834TIP3    H2 2509   4.709   2.910   4.427  0.9882  0.4117  0.4006
  835TIP3   OH2 2510   4.939   2.466   0.802 -0.5310  0.0251  0.0127
  835TIP3    H1 2511   4.873   2.423   0.856 -0.9846  0.2357 -0.3762
  835TIP3    H2 2512   4.893   2.494   0.723 -0.0734  0.5506 -0.0793
  836TIP3   OH2 2513   3.728   3.183   1.724  0.0474 -0.3431  0.5659
  836TIP3    H1 2514   3.742   3.089   1.715  0.8061 -0.3372  1.5183
  836TIP3    H2 2515   3.633   3.194   1.719  0.0208 -0.9573 -1.1793
  837TIP3   OH2 2516   1.924   4.374   0.266  0.1897 -0.2376  0.0064
  837TIP3    H1 2517   1.872   4.454   0.269 -1.5387 -1.3361  0.1850
  837TIP3    H2 2518   1.861   4.304   0.251  1.8501 -1.3860 -2.4751
  838TIP3   OH2 2519   5.918   5.779   1.041  0.0881  0.0103 -0.3178
  838TIP3    H1 2520   5.865   5.764   1.119  0.9360  0.2214  0.3126
  838TIP3    H2 2521   5.854   5.801   0.972 -0.7722 -1.4355 -0.0256
  839TIP3   OH2 2522   0.379   5.662   4.890  0.4071  0.0168  0.5272
  839TIP3    H1 2523   0.376   5.567   4.902 -4.1357 -0.1716 -0.6284
  839TIP3    H2 2524   0.424   5.674   4.806 -0.1059 -1.2003  0.0562
  840TIP3   OH2 2525   5.201   0.785   3.469 -0.4398  0.2402  0.2176
  840TIP3    H1 2526   5.181   0.691   3.475  2.0512 -0.2991  1.5430
  840TIP3    H2 2527   5.178   0.819   3.556 -1.3920  0.8884 -0.2793
  841TIP3   OH2 2528   2.773   4.430   4.830 -0.1446  0.1748  0.2743
  841TIP3    H1 2529   2.797   4.476   4.749  1.0877 -0.2595  0.3865
  841TIP3    H2 2530   2.803   4.487   4.900  0.7671 -0.4710  0.4148
  842TIP3   OH2 2531   3.271   1.313   1.835 -0.5053 -0.0378  0.4559
  842TIP3    H1 2532   3.301   1.234   1.788 -0.8561 -0.6212  1.1949
  842TIP3    H2 2533   3.299   1.385   1.779  0.5310 -0.6464  0.1472
  843TIP3   OH2 2534   1.471   2.170   1.152 -0.8552  0.2917  0.2451
  843TIP3    H1 2535   1.407   2.105   1.181  0.0811 -0.0028  1.7325
  843TIP3    H2 2536   1.434   2.206   1.071 -1.3180 -2.2420 -0.7721
  844TIP3   OH2 2537   2.291   1.829   3.927 -0.3040 -0.1802 -0.4657
  844TIP3    H1 2538   2.240   1.887   3.984  0.3842  0.1280 -0.1415
  844TIP3    H2 2539   2.281   1.866   3.840  0.8750  1.0133 -0.1335
  845TIP3   OH2 2540   5.958   3.795   3.345 -0.0283 -0.7414 -0.0077
  845TIP3    H1 2541   5.930   3.812   3.255  0.5334 -1.5010 -0.3449
  845TIP3    H2 2542   5.926   3.708   3.364  2.0156 -1.6608 -0.4240
  846TIP3   OH2 2543   0.925   1.295   2.400 -0.0020 -0.6352 -0.4452
  846TIP3    H1 2544   0.870   1.370   2.421 -3.8288 -3.1775 -0.3599
  846TIP3    H2 2545   1.001   1.303   2.459 -1.0994  2.1804  0.7571
  847TIP3   OH2 2546   3.938   4.652   2.789  0.1089 -0.4922 -0.0658
  847TIP3    H1 2547   3.926   4.732   2.841  0.6309 -0.4666  0.0210
  847TIP3    H2 2548   3.894   4.670   2.706  0.9736  0.2286 -0.3861
  848TIP3   OH2 2549   2.268   3.168   1.212  0.5703 -0.3081 -0.0235
  848TIP3    H1 2550   2.263   3.130   1.300 -0.2307  1.4976  0.7707
  848TIP3    H2 2551   2.191   3.225   1.207  0.8624 -0.0190 -1.7404
  849TIP3   OH2 2552   2.487   4.727   0.051  0.3168  0.5805 -0.1295
  849TIP3    H1 2553   2.391   4.732   0.051  0.3768  2.1643  0.1465
  849TIP3    H2 2554   2.509   4.704   0.142  0.2339  1.4565  0.1195
  850TIP3   OH2 2555   2.040   2.317   4.059 -0.2458  0.2496  0.3103
  850TIP3    H1 2556   2.114   2.269   4.023 -0.9296  0.6277 -1.6803
  850TIP3    H2 2557   2.041   2.295   4.153  0.4476 -2.2970 -0.2195
  851TIP3   OH2 2558   5.449   4.832   4.844 -0.4079 -0.3778 -0.1684
  851TIP3    H1 2559   5.442   4.746   4.802 -0.1372 -1.7990  2.4673
  851TIP3    H2 2560   5.534   4.866   4.816 -1.4331  0.1440 -3.0118
  852TIP3   OH2 2561   1.209   1.087   3.160  0.2625  0.6010  0.2505
  852TIP3    H1 2562   1.205   1.056   3.250  0.8770  1.7829  0.7064
  852TIP3    H2 2563   1.266   1.024   3.115  2.1842  1.4660  1.3605
  853TIP3   OH2 2564   0.741   2.321   1.363 -0.1162  0.2977 -0.7322
  853TIP3    H1 2565   0.824   2.365   1.345 -0.2927  0.5935 -0.8331
  853TIP3    H2 2566   0.764   2.248   1.421  0.1447  0.6839 -0.3432
  854TIP3   OH2 2567   1.968   5.638   2.720  0.2935 -0.0072 -0.1293
  854TIP3    H1 2568   1.933   5.566   2.773  0.5520  0.8066  1.2228
  854TIP3    H2 2569   1.903   5.708   2.730  1.0352  0.6420  0.3180
  855TIP3   OH2 2570   3.949   4.211   3.883 -0.3370 -0.4873 -0.7362
  855TIP3    H1 2571   4.009   4.178   3.816  0.4073  0.5432 -0.6045
  855TIP3    H2 2572   3.992   4.290   3.916 -0.5539 -1.0826  1.1175
  856TIP3   OH2 2573   2.439   4.595   2.732 -0.0913 -0.1862  0.0035
  856TIP3    H1 2574   2.481   4.550   2.805  0.6321  0.1620 -0.1928
  856TIP3    H2 2575   2.357   4.547   2.718  0.0814 -0.6644  0.6040
  857TIP3   OH2 2576   1.124   0.794   4.769  0.7110  0.3336  0.0303
  857TIP3    H1 2577   1.105   0.802   4.863  1.2869 -0.7233  0.2499
  857TIP3    H2 2578   1.046   0.751   4.733  0.3549  1.0215 -0.0432
  858TIP3   OH2 2579   2.952   1.324   3.101  0.7650 -0.2282  0.1031
  858TIP3    H1 2580   2.954   1.391   3.170  0.7997 -0.6537  0.5193
  858TIP3    H2 2581   2.974   1.242   3.146 -2.1408 -1.0621  0.1826
  859TIP3   OH2 2582   4.489   0.159   1.070 -0.0309  0.0568 -0.2626
  859TIP3    H1 2583   4.472   0.079   1.021 -2.1374  0.4269 -0.2449
  859TIP3    H2 2584   4.454   0.142   1.157 -0.1279  0.8437 -0.1357
  860TIP3   OH2 2585   5.733   5.335   0.379  0.0674 -0.0289  0.0865
  860TIP3    H1 2586   5.660   5.340   0.441  0.1080  2.0024  0.0394
  860TIP3    H2 2587   5.750   5.241   0.370 -0.3337 -0.4350  2.6619
  861TIP3   OH2 2588   0.857   0.852   4.487  0.0801  0.8504 -0.7420
  861TIP3    H1 2589   0.860   0.817   4.576 -0.9266  1.7792 -0.3258
  861TIP3    H2 2590   0.766   0.839   4.459  0.3574  0.6777 -1.5913
  862TIP3   OH2 2591   1.605   4.410   3.071 -0.4109  0.0012  0.0464
  862TIP3    H1 2592   1.606   4.459   3.153  0.1659  0.1120 -0.0232
  862TIP3    H2 2593   1.544   4.337   3.087 -0.1794 -0.0707  0.6241
  863TIP3   OH2 2594   5.228   2.827   4.977  1.0314  0.2243  0.4623
  863TIP3    H1 2595   5.283   2.754   5.006  0.4366 -0.5413 -0.3191
  863TIP3    H2 2596   5.288   2.882   4.926  0.7082 -1.5865 -2.0265
  864TIP3   OH2 2597   3.592   2.497   4.079 -0.1103  0.0062  0.2954
  864TIP3    H1 2598   3.558   2.531   3.996  0.8360 -0.8660 -0.4847
  864TIP3    H2 2599   3.539   2.420   4.097  0.4943 -0.5366 -0.1830
  865TIP3   OH2 2600   2.983   1.079   3.234  0.2745  0.3173 -0.3292
  865TIP3    H1 2601   2.929   1.069   3.313 -0.1408 -0.8345 -0.7317
  865TIP3    H2 2602   2.971   0.997   3.187  1.0093  0.7474 -1.2963
  866TIP3   OH2 2603   4.819   1.784   3.088 -0.2148 -0.1486 -0.5535
  866TIP3    H1 2604   4.830   1.807   3.180 -0.7464  1.1449 -0.7932
  866TIP3    H2 2605   4.895   1.729   3.068 -0.9488 -1.8991  1.0840
  867TIP3   OH2 2606   2.808   3.644   0.766  0.1066 -0.1269 -0.0529
  867TIP3    H1 2607   2.814   3.630   0.672 -0.6384  2.0071 -0.4848
  867TIP3    H2 2608   2.747   3.577   0.797 -0.4131 -0.2265 -1.2546
  868TIP3   OH2 2609   0.468   1.447   1.972 -0.0455  0.4537 -0.1025
  868TIP3    H1 2610   0.533   1.416   1.909  0.3856 -2.5641  1.6088
  868TIP3    H2 2611   0.385   1.408   1.942  0.1992 -1.1817  1.1655
  869TIP3   OH2 2612   1.251   0.653   2.925 -0.1184  0.4544  0.0742
  869TIP3    H1 2613   1.313   0.595   2.968 -1.7458 -0.5384  1.1839
  869TIP3    H2 2614   1.233   0.611   2.841  1.2231  1.1409 -0.5956
  870TIP3   OH2 2615   6.281   3.238   1.164 -0.2616  0.1386  0.2840
  870TIP3    H1 2616   6.268   3.258   1.072  2.4781  1.7258  0.1636
  870TIP3    H2 2617   6.257   3.318   1.211  2.2130  0.7893  0.5527
  871TIP3   OH2 2618   2.639   2.946   0.177  0.6064 -0.3475 -0.2409
  871TIP3    H1 2619   2.672   2.935   0.088 -1.0315 -1.5698 -0.7456
  871TIP3    H2 2620   2.653   2.861   0.218  2.3248  0.5040  1.0741
  872TIP3   OH2 2621   6.175   5.578   3.017  0.0260 -0.0281 -0.5486
  872TIP3    H1 2622   6.179   5.503   3.077  0.5744 -1.0763 -1.8249
  872TIP3    H2 2623   6.265   5.607   3.009 -0.1755  0.7173 -0.1340
  873TIP3   OH2 2624   4.286   4.048   2.860  0.1587 -0.2635  0.0180
  873TIP3    H1 2625   4.192   4.067   2.870  0.1742 -0.6008  1.0085
  873TIP3    H2 2626   4.289   3.962   2.819  0.0871  1.6626 -4.5210
  874TIP3   OH2 2627   1.958   2.640   2.992  0.0164  0.2496  0.1453
  874TIP3    H1 2628   1.934   2.655   2.900 -0.3434  0.1063  0.2135
  874TIP3    H2 2629   1.927   2.551   3.010 -1.4575  0.8772  0.8941
  875TIP3   OH2 2630   1.590   5.247   1.781  0.1261  0.1184  0.2510
  875TIP3    H1 2631   1.576   5.341   1.779 -1.5858 -0.0523  1.5159
  875TIP3    H2 2632   1.522   5.214   1.840  2.6365 -1.5717  2.4235
  876TIP3   OH2 2633   4.548   4.363   0.978 -0.0082  0.0277  0.6033
  876TIP3    H1 2634   4.546   4.447   0.932 -2.6965 -0.3855 -0.2106
  876TIP3    H2 2635   4.613   4.374   1.047  1.9785  1.6867 -1.4083
  877TIP3   OH2 2636   4.759   4.725   4.634  0.3450 -0.0935 -0.0916
  877TIP3    H1 2637   4.843   4.740   4.589  0.0054  0.8814 -0.4364
  877TIP3    H2 2638   4.723   4.813   4.645  0.4249 -0.3054  2.1600
  878TIP3   OH2 2639   3.487   3.642   0.176 -0.3436  0.1078  0.1901
  878TIP3    H1 2640   3.534   3.641   0.260  0.4016  1.1594 -0.1918
  878TIP3    H2 2641   3.402   3.603   0.196  0.6895 -1.9209  0.8935
  879TIP3   OH2 2642   1.146   2.068   3.168  0.0511  0.5980  0.2289
  879TIP3    H1 2643   1.226   2.101   3.126 -0.9076  0.9326 -1.3971
  879TIP3    H2 2644   1.121   2.137   3.229  1.9423 -0.2624  2.0897
  880TIP3   OH2 2645   2.822   1.474   0.202 -0.0733  0.8957 -0.0751
  880TIP3    H1 2646   2.913   1.478   0.228  0.1881 -0.3734 -0.7041
  880TIP3    H2 2647   2.803   1.381   0.191 -2.1490  0.9247  2.3710
  881TIP3   OH2 2648   1.823   4.587   2.378  0.8540  0.1736 -0.0469
  881TIP3    H1 2649   1.772   4.570   2.457  0.6472  0.3494 -0.1423
  881TIP3    H2 2650   1.897   4.639   2.409 -0.0006  1.5182 -0.1889
  882TIP3   OH2 2651   4.268   1.847   2.564 -1.1186  0.3321 -0.1402
  882TIP3    H1 2652   4.259   1.833   2.658 -0.2379  0.0539 -0.0885
  882TIP3    H2 2653   4.354   1.889   2.554 -1.2030  0.3555 -0.8171
  883TIP3   OH2 2654   5.902   4.865   2.569  0.0705  0.4168  0.2077
  883TIP3    H1 2655   5.858   4.782   2.549 -0.4026  0.8915 -0.7381
  883TIP3    H2 2656   5.886   4.921   2.493  1.7631  0.8389  0.1159
  884TIP3   OH2 2657   1.603   4.607   5.154 -0.4050  0.2991  0.0628
  884TIP3    H1 2658   1.563   4.589   5.069 -1.8638 -1.4940  1.0359
  884TIP3    H2 2659   1.529   4.612   5.215  0.4839  3.0353  1.0480
  885TIP3   OH2 2660   0.924   1.214   0.931  0.0082 -0.3988  0.0820
  885TIP3    H1 2661   0.861   1.178   0.994 -0.0274 -0.4455  0.0190
  885TIP3    H2 2662   1.007   1.170   0.953 -0.2705 -1.3688 -0.7207
  886TIP3   OH2 2663   1.657   3.003   4.825 -0.0611  0.1651 -0.2375
  886TIP3    H1 2664   1.690   2.956   4.748 -0.8396  0.1107 -0.5431
  886TIP3    H2 2665   1.585   2.948   4.857 -0.3820  0.6833 -0.0581
  887TIP3   OH2 2666   5.194   1.376   5.023  0.0328  0.2121 -0.1928
  887TIP3    H1 2667   5.277   1.411   5.056  1.1988 -2.1493 -0.3804
  887TIP3    H2 2668   5.175   1.427   4.944  2.4085 -0.4567 -1.2845
  888TIP3   OH2 2669   3.669   1.628   0.612  0.2160  0.1010 -0.4236
  888TIP3    H1 2670   3.684   1.533   0.617 -0.8816 -0.2294 -2.3104
  888TIP3    H2 2671   3.737   1.666   0.666  1.1307 -1.7449 -0.1987
  889TIP3   OH2 2672   5.056  -0.013   0.571  0.4240 -0.0450 -0.2344
  889TIP3    H1 2673   4.982   0.014   0.625  1.2309 -1.2364  1.5547
  889TIP3    H2 2674   5.123   0.053   0.586  0.6045 -0.3085  0.1214
  890TIP3   OH2 2675   2.979   4.797   1.595  0.4945 -0.2447  0.0301
  890TIP3    H1 2676   2.997   4.733   1.527 -1.5586 -2.2272  1.1906
  890TIP3    H2 2677   2.905   4.849   1.562  1.1059  0.4623 -0.2464
  891TIP3   OH2 2678   2.712   2.199   3.188  0.5636  0.3101 -0.0571
  891TIP3    H1 2679   2.732   2.122   3.241  2.5125  0.7651 -0.0337
  891TIP3    H2 2680   2.617   2.205   3.189  0.3072 -2.5009 -0.6770
  892TIP3   OH2 2681   5.513   3.323   5.092 -0.1803 -0.1605 -0.0521
  892TIP3    H1 2682   5.468   3.245   5.060 -1.3573  0.8113 -0.8684
  892TIP3    H2 2683   5.490   3.328   5.185 -0.3570 -0.6094 -0.0688
  893TIP3   OH2 2684   2.712   3.961   5.151 -0.0720  0.5485  0.0445
  893TIP3    H1 2685   2.801   3.928   5.144 -0.2461  0.1961 -0.5716
  893TIP3    H2 2686   2.721   4.056   5.143  0.1261  0.4256 -1.4846
  894TIP3   OH2 2687   4.100   2.417   4.993  0.1382  0.5431 -0.1456
  894TIP3    H1 2688   4.152   2.384   4.920  0.2418  0.4903 -0.0473
  894TIP3    H2 2689   4.042   2.344   5.016 -1.8077  1.4058 -1.9255
  895TIP3   OH2 2690   3.977   2.287   1.578 -0.7602  0.4152 -0.4058
  895TIP3    H1 2691   3.885   2.275   1.555 -0.3190  0.2225 -2.2405
  895TIP3    H2 2692   3.993   2.380   1.564 -0.2350  0.1152 -1.9946
  896TIP3   OH2 2693   1.766   2.723   3.423  0.2030  0.3217  0.1592
  896TIP3    H1 2694   1.751   2.751   3.333 -0.4001  2.5969  0.9207
  896TIP3    H2 2695   1.858   2.745   3.440  0.0293  0.8296  0.4283
  897TIP3   OH2 2696   0.437   5.447   1.871 -0.1062  0.2598 -0.4276
  897TIP3    H1 2697   0.365   5.477   1.815  0.0642  0.8314 -0.3517
  897TIP3    H2 2698   0.397   5.382   1.929 -0.5212  0.4311 -0.5149
  898TIP3   OH2 2699   2.600   4.359   1.044 -0.3908 -0.3831  0.2031
  898TIP3    H1 2700   2.543   4.327   1.113 -2.9024  2.6580 -0.2193
  898TIP3    H2 2701   2.662   4.417   1.090 -0.9970  0.3326  0.1424
  899TIP3   OH2 2702   5.613   0.702   1.733 -0.5918 -0.3573 -0.3842
  899TIP3    H1 2703   5.685   0.680   1.674 -0.5434  0.6335 -0.7090
  899TIP3    H2 2704   5.538   0.656   1.698 -0.2151 -1.0495 -0.2952
  900TIP3   OH2 2705   3.167   2.123   2.345  0.1541  0.6623 -0.2430
  900TIP3    H1 2706   3.228   2.051   2.326 -1.1468 -0.4642 -0.2975
  900TIP3    H2 2707   3.141   2.109   2.436 -0.4670  0.7743 -0.3972
  901TIP3   OH2 2708   5.584   1.006   2.769 -0.5975  0.1235  0.2687
  901TIP3    H1 2709   5.620   0.918   2.756 -1.9928 -0.2509 -1.3800
  901TIP3    H2 2710   5.661   1.062   2.780  0.3584 -1.0842  0.0102
  902TIP3   OH2 2711   3.696   5.789   4.839 -0.1662  0.5068 -0.0299
  902TIP3    H1 2712   3.617   5.804   4.788 -0.1098  1.1636  0.0767
  902TIP3    H2 2713   3.765   5.834   4.789 -0.2115  1.6923  0.9352
  903TIP3   OH2 2714   6.123   4.389   5.024 -1.2253  0.0600 -0.4937
  903TIP3    H1 2715   6.204   4.374   4.974  1.1724  2.4096  2.2777
  903TIP3    H2 2716   6.113   4.484   5.024 -1.5993  0.1179  2.5840
  904TIP3   OH2 2717   5.846   1.286   0.696 -0.5494  0.5101 -0.0626
  904TIP3    H1 2718   5.896   1.219   0.650 -0.2343  0.6244  0.1077
  904TIP3    H2 2719   5.766   1.241   0.724 -1.2228  0.6935 -1.5718
  905TIP3   OH2 2720   3.477   5.352   2.913  0.1345 -0.3221  0.2033
  905TIP3    H1 2721   3.544   5.420   2.916  1.1912 -1.3290  0.2128
  905TIP3    H2 2722   3.407   5.389   2.859  0.1151  1.2431  1.2496
  906TIP3   OH2 2723   0.340   1.314   1.348  0.7143 -0.5685 -0.0891
  906TIP3    H1 2724   0.306   1.342   1.263  0.1643  1.0275  0.6057
  906TIP3    H2 2725   0.267   1.270   1.391  0.2739  0.6069  0.4064
  907TIP3   OH2 2726   3.503   3.781   3.766  0.3909 -0.5407  0.1204
  907TIP3    H1 2727   3.462   3.823   3.841 -1.4244  0.1664 -1.1925
  907TIP3    H2 2728   3.435   3.725   3.730  0.2248  1.1971 -2.5492
  908TIP3   OH2 2729   4.503   2.624   0.353 -0.6040  0.2152  0.2031
  908TIP3    H1 2730   4.474   2.677   0.278  0.0571  0.5087  0.1465
  908TIP3    H2 2731   4.560   2.558   0.315 -0.6696  0.0492  0.3914
  909TIP3   OH2 2732   5.229   0.258   4.174 -0.0085  0.3148 -0.0242
  909TIP3    H1 2733   5.323   0.272   4.160  0.4085 -1.4206  0.6570
  909TIP3    H2 2734   5.188   0.340   4.148  1.6300  0.8641 -1.0452
  910TIP3   OH2 2735   4.572   2.516   4.144  0.2844  0.2701  0.4474
  910TIP3    H1 2736   4.518   2.563   4.207  0.1322  0.3800  0.2356
  910TIP3    H2 2737   4.659   2.555   4.153  0.3357  0.0812  0.8021
  911TIP3   OH2 2738   6.074   2.292   3.312  0.4929  0.5242  0.1184
  911TIP3    H1 2739   6.054   2.334   3.229  1.4314  1.5127  0.3558
  911TIP3    H2 2740   6.169   2.303   3.322  0.1720  2.0838  2.1342
  912TIP3   OH2 2741   4.239   4.921   4.389  0.4465 -0.2791 -0.6069
  912TIP3    H1 2742   4.235   4.926   4.485  1.2432 -2.0682 -0.4327
  912TIP3    H2 2743   4.331   4.908   4.369  0.2141 -0.5368 -1.5805
  913TIP3   OH2 2744   1.477   4.011   2.610 -0.4835  0.0528  0.2673
  913TIP3    H1 2745   1.445   4.009   2.700 -0.9203 -2.2501  0.1171
  913TIP3    H2 2746   1.558   4.061   2.615  0.5725 -1.6772  2.3806
  914TIP3   OH2 2747   1.782   0.051   0.495 -0.3326  0.6683  0.9182
  914TIP3    H1 2748   1.698   0.066   0.450  0.4660  2.3685 -0.1508
  914TIP3    H2 2749   1.840   0.017   0.426  1.0516  3.7699  0.3713
  915TIP3   OH2 2750   6.268   4.765   0.061  0.2505 -0.8065  0.1747
  915TIP3    H1 2751   6.255   4.700  -0.008 -0.3890  0.1107 -0.5890
  915TIP3    H2 2752   6.190   4.759   0.115 -0.4161  0.1920 -0.6418
  916TIP3   OH2 2753   3.225   2.225   3.996 -0.8738  0.0800 -0.4962
  916TIP3    H1 2754   3.134   2.247   3.977 -0.8545  0.2089 -0.4393
  916TIP3    H2 2755   3.245   2.271   4.078 -0.0648  1.9413 -1.6592
  917TIP3   OH2 2756   4.542   2.941   1.801  0.1705  0.0032  0.0148
  917TIP3    H1 2757   4.585   2.951   1.716  1.8011 -1.9296  0.5345
  917TIP3    H2 2758   4.457   2.900   1.781  1.1477 -1.8179 -0.6379
  918TIP3   OH2 2759   5.284   5.724   2.227 -0.0445 -0.1000 -0.0509
  918TIP3    H1 2760   5.310   5.678   2.307  2.0118  1.5085  0.2673
  918TIP3    H2 2761   5.357   5.711   2.167 -0.3155  1.0575 -0.6523
  919TIP3   OH2 2762   5.724   5.716   2.802 -0.6856 -0.4207  0.2525
  919TIP3    H1 2763   5.652   5.653   2.808 -0.9108 -0.1644  0.2369
  919TIP3    H2 2764   5.780   5.681   2.732 -1.3971 -0.0172 -0.5412
  920TIP3   OH2 2765   2.238   2.435   3.136 -0.1885  0.2484  0.6535
  920TIP3    H1 2766   2.196   2.356   3.102 -1.2888  1.6696 -1.5545
  920TIP3    H2 2767   2.165   2.489   3.167  0.2100  1.5920 -0.6320
  921TIP3   OH2 2768   3.201   3.282   1.407 -0.3700 -0.4714 -0.0736
  921TIP3    H1 2769   3.213   3.273   1.502 -0.2424 -1.5335 -0.1861
  921TIP3    H2 2770   3.290   3.277   1.371 -0.3823  0.2886 -0.2315
  922TIP3   OH2 2771   6.326   2.134   1.180 -0.3289 -0.1991  0.2827
  922TIP3    H1 2772   6.263   2.204   1.165 -0.9641 -0.9269 -0.5964
  922TIP3    H2 2773   6.380   2.164   1.253 -2.5872 -0.1635  2.0131
  923TIP3   OH2 2774   4.889   5.497   1.842  0.1750  0.1448  0.1602
  923TIP3    H1 2775   4.797   5.518   1.826  0.5918  0.6526 -1.9134
  923TIP3    H2 2776   4.934   5.526   1.762  2.0464 -0.6663  0.8695
  924TIP3   OH2 2777   5.202   1.185   4.598 -0.2863  0.4465 -0.0840
  924TIP3    H1 2778   5.279   1.194   4.542  0.2294  0.0317  0.5438
  924TIP3    H2 2779   5.237   1.189   4.688 -0.7588 -1.3787  0.2332
  925TIP3   OH2 2780   2.661   5.218   0.577 -0.1111 -0.6383 -0.7783
  925TIP3    H1 2781   2.725   5.178   0.636  1.3302 -1.7103 -2.9060
  925TIP3    H2 2782   2.684   5.184   0.490 -3.1417 -0.4685 -1.7795
  926TIP3   OH2 2783   5.818   4.029   2.542  0.7338  0.1369 -0.1256
  926TIP3    H1 2784   5.908   4.064   2.538  0.8517  0.2401  2.3078
  926TIP3    H2 2785   5.767   4.089   2.487  1.6291  1.9447  0.9141
  927TIP3   OH2 2786   0.618   1.023   1.858  0.1885  0.0023 -0.7430
  927TIP3    H1 2787   0.565   0.950   1.888  0.4006 -0.5813 -1.7495
  927TIP3    H2 2788   0.554   1.087   1.825 -0.0292  0.5323  0.6323
  928TIP3   OH2 2789   4.436   2.641   2.859 -0.1039 -0.5030 -0.1636
  928TIP3    H1 2790   4.402   2.676   2.776  0.5673 -1.8574 -1.0553
  928TIP3    H2 2791   4.480   2.715   2.900 -1.6100  0.5467 -0.3415
  929TIP3   OH2 2792   5.507   4.064   1.013  0.0509 -0.2428  0.3047
  929TIP3    H1 2793   5.506   4.072   0.917 -0.8802  0.0034  0.3263
  929TIP3    H2 2794   5.431   4.115   1.042 -2.1239 -3.5028  0.9171
  930TIP3   OH2 2795   0.927   4.163   2.291 -0.1178  0.4324  0.1052
  930TIP3    H1 2796   0.899   4.228   2.226 -1.0939  1.1166  1.1710
  930TIP3    H2 2797   0.999   4.116   2.249 -1.1158  0.4272 -1.7187
  931TIP3   OH2 2798   3.240   3.246   2.584 -0.1751 -0.0075 -0.0860
  931TIP3    H1 2799   3.200   3.161   2.604 -0.8174  0.1364 -0.7087
  931TIP3    H2 2800   3.322   3.224   2.540  1.3885 -0.3297  2.7821
  932TIP3   OH2 2801   6.143   0.171   3.654  0.2818 -0.0009  0.4705
  932TIP3    H1 2802   6.095   0.090   3.669 -0.1043  0.2689  0.7196
  932TIP3    H2 2803   6.235   0.148   3.669  0.4660 -0.9664 -1.7718
  933TIP3   OH2 2804   4.796   3.984   3.568  0.6472 -1.0979  0.0719
  933TIP3    H1 2805   4.787   3.897   3.605  2.1699 -1.8206 -1.1059
  933TIP3    H2 2806   4.867   3.975   3.504 -0.0464  0.6980 -1.0221
  934TIP3   OH2 2807   0.580   2.244   0.223 -0.2898  0.4892  0.0759
  934TIP3    H1 2808   0.495   2.284   0.245 -0.1846 -0.0538  1.6032
  934TIP3    H2 2809   0.640   2.318   0.220 -0.2129  0.5785  2.3041
  935TIP3   OH2 2810   1.624   0.660   4.700  0.0682  0.1673 -0.3466
  935TIP3    H1 2811   1.668   0.741   4.673  0.8031  0.2413  0.9818
  935TIP3    H2 2812   1.545   0.690   4.745  0.7845  0.2146  0.9311
  936TIP3   OH2 2813   1.553   0.069   0.345  0.5254 -0.6229 -0.2394
  936TIP3    H1 2814   1.543   0.015   0.267 -0.0564 -1.8576  0.6517
  936TIP3    H2 2815   1.487   0.138   0.336  0.2383 -0.9558 -0.6736
  937TIP3   OH2 2816   1.546   1.600   4.267  0.4877 -0.0785  0.1227
  937TIP3    H1 2817   1.623   1.566   4.222  1.9010  1.4474  1.2646
  937TIP3    H2 2818   1.543   1.551   4.350 -1.1229 -1.6836 -0.7999
  938TIP3   OH2 2819   5.079   4.395   1.669 -0.1461 -0.3647  0.0953
  938TIP3    H1 2820   5.143   4.409   1.599  0.2780  0.7614  0.6875
  938TIP3    H2 2821   4.995   4.390   1.625 -0.0145  1.4146 -0.4263
  939TIP3   OH2 2822   4.302   4.150   4.052  0.3040  0.3070  0.0235
  939TIP3    H1 2823   4.382   4.200   4.068  0.8856 -0.0936 -1.4395
  939TIP3    H2 2824   4.297   4.142   3.957 -1.0560 -0.3733  0.1177
  940TIP3   OH2 2825   2.049   3.005   4.678  0.0838 -0.2148  0.5499
  940TIP3    H1 2826   2.110   2.997   4.751  0.4440  0.6017  0.3489
  940TIP3    H2 2827   2.002   2.921   4.677  2.1288 -1.4441 -0.1163
  941TIP3   OH2 2828   2.131   5.492   2.560  0.2185  0.1799 -0.2768
  941TIP3    H1 2829   2.216   5.520   2.594  0.8542 -2.3937  0.4359
  941TIP3    H2 2830   2.067   5.542   2.610  1.2683 -0.0373  1.3425
  942TIP3   OH2 2831   2.373   4.124   0.585 -0.0276 -0.6749 -0.6634
  942TIP3    H1 2832   2.296   4.074   0.557  0.1236 -0.4850 -1.4240
  942TIP3    H2 2833   2.446   4.083   0.540  0.3729 -1.0659  0.3156
  943TIP3   OH2 2834   1.712   5.690   0.230  0.0783  0.0802  0.9262
  943TIP3    H1 2835   1.659   5.731   0.299  1.6761  0.7984  1.7620
  943TIP3    H2 2836   1.796   5.671   0.272  0.5261 -0.9826 -0.3914
  944TIP3   OH2 2837   5.079   0.008   3.606 -0.2768  0.3194  0.0879
  944TIP3    H1 2838   5.050   0.034   3.694 -1.0547  0.9693 -0.3433
  944TIP3    H2 2839   5.174   0.012   3.610 -0.3034  0.2435  0.9327
  945TIP3   OH2 2840   1.633   0.559   4.207  0.6406 -0.7440 -0.0771
  945TIP3    H1 2841   1.570   0.521   4.145 -0.6808  0.2837  0.5687
  945TIP3    H2 2842   1.579   0.612   4.266  2.2551  1.4296 -0.4038
  946TIP3   OH2 2843   2.684   2.445   4.259 -0.1551  0.0182 -0.4815
  946TIP3    H1 2844   2.737   2.522   4.280 -0.1257 -0.0866 -0.1761
  946TIP3    H2 2845   2.655   2.411   4.344 -0.7472  0.0968 -0.6425
  947TIP3   OH2 2846   4.952   4.296   4.519  0.1349  0.0588 -0.2160
  947TIP3    H1 2847   4.946   4.264   4.429  0.3701  1.4809 -0.7664
  947TIP3    H2 2848   5.011   4.235   4.562  1.3090  0.2636 -1.4726
  948TIP3   OH2 2849   4.892   1.764   1.686  0.2299 -0.2612  0.0433
  948TIP3    H1 2850   4.919   1.852   1.713  2.2080 -0.8694  0.2046
  948TIP3    H2 2851   4.974   1.716   1.674 -0.6931 -3.1532  3.4011
  949TIP3   OH2 2852   5.341   5.781   4.783  0.0515 -0.2363  0.2665
  949TIP3    H1 2853   5.326   5.725   4.706  1.8104 -0.3190 -0.0725
  949TIP3    H2 2854   5.295   5.862   4.764 -0.1349 -0.5280 -0.5592
  950TIP3   OH2 2855   1.745   3.448   3.167 -0.3909  0.2047  0.2158
  950TIP3    H1 2856   1.701   3.367   3.141  0.1745  0.6152 -2.2400
  950TIP3    H2 2857   1.772   3.488   3.085  1.2158  1.8627  1.4787
  951TIP3   OH2 2858   0.542   4.968   3.492 -0.1168  0.1062  0.0636
  951TIP3    H1 2859   0.566   4.918   3.570 -1.8693  0.3761  0.8240
  951TIP3    H2 2860   0.538   4.903   3.422  0.4323 -0.3177  0.4160
  952TIP3   OH2 2861   5.023   4.353   2.166 -0.1944 -0.0763  0.3456
  952TIP3    H1 2862   4.989   4.405   2.093  2.2683  0.2152 -0.7065
  952TIP3    H2 2863   4.994   4.264   2.148 -0.7311  0.2132 -0.2474
  953TIP3   OH2 2864   2.712   0.308   2.470  0.1541  0.2943  0.0438
  953TIP3    H1 2865   2.762   0.304   2.552 -1.1633 -1.3139  0.8528
  953TIP3    H2 2866   2.725   0.222   2.430 -0.8297  0.3315 -0.4049
  954TIP3   OH2 2867   5.377   0.288   4.555 -0.1173 -0.2776  0.1726
  954TIP3    H1 2868   5.297   0.339   4.538 -0.3062 -1.1429 -1.7780
  954TIP3    H2 2869   5.446   0.354   4.562 -0.8752  0.4394  1.1104
  955TIP3   OH2 2870   2.857   4.522   0.105  0.2271 -0.3081  0.0750
  955TIP3    H1 2871   2.775   4.545   0.151  1.7339  1.1562  2.2477
  955TIP3    H2 2872   2.875   4.598   0.050  0.8249  0.0225  0.7081
  956TIP3   OH2 2873   6.049   3.239   1.677 -0.5281  0.0599 -0.3151
  956TIP3    H1 2874   6.094   3.177   1.620  0.1728  0.0640  0.2102
  956TIP3    H2 2875   6.048   3.321   1.628  0.2759  0.1240 -0.2353
  957TIP3   OH2 2876   5.773   5.205   2.506 -0.0885 -0.4932 -0.0518
  957TIP3    H1 2877   5.823   5.145   2.450  0.5872 -0.8852  0.9378
  957TIP3    H2 2878   5.803   5.292   2.480  1.3279 -0.7275  0.6711
  958TIP3   OH2 2879   1.130   2.732   5.193  0.4458 -0.2651  0.0181
  958TIP3    H1 2880   1.126   2.661   5.129 -1.0124 -0.0180 -0.1962
  958TIP3    H2 2881   1.201   2.788   5.162  0.0335 -0.3748 -1.1621
  959TIP3   OH2 2882   6.127   5.638   5.034 -0.4950 -0.1321 -0.3211
  959TIP3    H1 2883   6.084   5.690   4.967 -1.7230  0.2885  0.7596
  959TIP3    H2 2884   6.098   5.548   5.017  1.2804 -0.4700 -1.9164
  960TIP3   OH2 2885   0.889   3.663   4.884  0.2954 -0.3952  0.0834
  960TIP3    H1 2886   0.945   3.614   4.945  0.5220 -0.6479 -0.3286
  960TIP3    H2 2887   0.845   3.728   4.940  2.2081  0.8904  0.1897
  961TIP3   OH2 2888   3.657   0.639   0.716 -0.3131 -0.2404 -0.2805
  961TIP3    H1 2889   3.656   0.549   0.748 -1.8628  0.2277  1.1800
  961TIP3    H2 2890   3.627   0.691   0.791  0.6179  1.5223 -1.0476
  962TIP3   OH2 2891   1.791   4.362   0.817 -0.3872 -0.0310 -0.5024
  962TIP3    H1 2892   1.839   4.371   0.735  0.3517  0.6399 -0.0192
  962TIP3    H2 2893   1.774   4.452   0.845  0.0019 -0.2300  0.4190
  963TIP3   OH2 2894   1.875   2.798   2.377  0.5288 -0.1586  0.1200
  963TIP3    H1 2895   1.920   2.721   2.342  1.1437  0.1778  0.1556
  963TIP3    H2 2896   1.828   2.766   2.454 -0.0617 -0.7087 -0.4613
  964TIP3   OH2 2897   0.402   5.714   3.728 -0.0599  0.7632 -0.0582
  964TIP3    H1 2898   0.427   5.797   3.768 -1.1880  3.8494 -4.8891
  964TIP3    H2 2899   0.309   5.706   3.744  0.1266  0.1502  0.7659
  965TIP3   OH2 2900   1.357   5.742   2.739  0.2888  0.6652 -0.3437
  965TIP3    H1 2901   1.417   5.817   2.735 -0.0545  0.9725  0.1197
  965TIP3    H2 2902   1.399   5.680   2.798  0.4284  0.6188 -0.4891
  966TIP3   OH2 2903   4.753   3.343   3.344  0.3626 -0.2101 -0.6021
  966TIP3    H1 2904   4.779   3.320   3.433  0.5140  0.2318 -0.5295
  966TIP3    H2 2905   4.662   3.371   3.351  1.1437  2.4756 -0.0969
  967TIP3   OH2 2906   3.722   3.873   3.159 -0.1341 -0.0187 -0.1491
  967TIP3    H1 2907   3.699   3.840   3.246 -0.2318 -2.3099 -0.9741
  967TIP3    H2 2908   3.809   3.837   3.142  0.7096  1.9612 -0.3017
  968TIP3   OH2 2909   5.328   4.010   4.121  0.7024 -0.8483  0.0676
  968TIP3    H1 2910   5.399   4.019   4.184  1.2973 -1.1741 -0.5414
  968TIP3    H2 2911   5.250   3.997   4.174  0.8879  0.7211  0.7894
  969TIP3   OH2 2912   2.954   0.022   0.237  0.8958 -0.1334  0.2094
  969TIP3    H1 2913   2.871  -0.024   0.220  0.5827 -0.1874  1.7513
  969TIP3    H2 2914   2.980   0.057   0.152  0.1221 -1.4914 -0.6149
  970TIP3   OH2 2915   4.584   4.949   3.621 -0.2348 -0.1097 -0.1505
  970TIP3    H1 2916   4.663   4.979   3.668  0.7155 -2.3196 -0.2122
  970TIP3    H2 2917   4.579   5.005   3.544  0.7906  0.6241  0.2931
  971TIP3   OH2 2918   3.284   4.248   4.774 -0.5751 -0.2693  0.2082
  971TIP3    H1 2919   3.321   4.270   4.688 -1.6699  2.9148  0.4027
  971TIP3    H2 2920   3.218   4.182   4.755  1.0173 -1.6245 -0.9654
  972TIP3   OH2 2921   6.065   0.877   1.158  0.4975 -0.1434  0.7122
  972TIP3    H1 2922   6.056   0.834   1.243 -0.3177 -0.1386  0.6300
  972TIP3    H2 2923   6.118   0.955   1.176  0.8184 -0.4488  1.1060
  973TIP3   OH2 2924   0.858   2.662   3.862 -0.3779 -0.4861  0.2156
  973TIP3    H1 2925   0.826   2.632   3.777 -2.3743 -2.0548  1.4350
  973TIP3    H2 2926   0.832   2.754   3.866 -1.5023 -0.7664 -0.3301
  974TIP3   OH2 2927   1.595   5.072   2.553  0.1912  0.2625  0.2975
  974TIP3    H1 2928   1.609   5.091   2.460 -1.8520 -0.3090 -0.1773
  974TIP3    H2 2929   1.522   5.128   2.578 -1.3326 -1.7782  0.6969
  975TIP3   OH2 2930   5.844   4.760   3.854  0.6089 -0.2026 -0.2070
  975TIP3    H1 2931   5.810   4.709   3.927  1.0719  1.6585  1.4125
  975TIP3    H2 2932   5.819   4.850   3.875 -0.7692  0.2375 -3.2606
  976TIP3   OH2 2933   4.758   2.532   3.839 -0.4877 -0.2485  0.4246
  976TIP3    H1 2934   4.663   2.530   3.847 -0.6784  0.4280 -1.2720
  976TIP3    H2 2935   4.786   2.601   3.898 -0.9340 -1.0402  1.6114
  977TIP3   OH2 2936   4.704   1.854   0.356  0.3832  0.1706 -0.4335
  977TIP3    H1 2937   4.651   1.776   0.341 -0.0322  0.3376  0.1462
  977TIP3    H2 2938   4.698   1.871   0.450  1.4018  0.2407 -0.3609
  978TIP3   OH2 2939   0.582   0.208   0.560  0.2792  0.3384  0.0776
  978TIP3    H1 2940   0.512   0.220   0.624 -0.1529  3.3437 -0.7815
  978TIP3    H2 2941   0.540   0.163   0.486 -0.3828  0.7381  0.1966
  979TIP3   OH2 2942   2.509   5.688   0.780 -0.1585 -0.0721 -0.0001
  979TIP3    H1 2943   2.594   5.716   0.813 -0.8513  0.2005  1.6392
  979TIP3    H2 2944   2.510   5.592   0.789  0.8612 -0.3495 -2.2985
  980TIP3   OH2 2945   4.716   4.721   1.664  0.5166  0.0965  0.3139
  980TIP3    H1 2946   4.758   4.782   1.725  0.4564 -0.1432  0.5960
  980TIP3    H2 2947   4.712   4.770   1.582  0.3612  0.5175  0.5646
  981TIP3   OH2 2948   3.065   1.102   4.835  0.4364 -0.1698 -0.1987
  981TIP3    H1 2949   3.025   1.107   4.922  1.9042  0.2112  0.4882
  981TIP3    H2 2950   3.143   1.157   4.842  1.8056 -1.9242 -1.0744
  982TIP3   OH2 2951   0.873   4.232   2.560  0.2275  0.1196 -0.4274
  982TIP3    H1 2952   0.778   4.220   2.559  0.1098  1.0019 -1.4923
  982TIP3    H2 2953   0.899   4.227   2.467  1.1890  0.1279 -0.1709
  983TIP3   OH2 2954   0.124   4.071   1.648 -0.3203 -0.1521 -0.1046
  983TIP3    H1 2955   0.080   4.006   1.592  0.1530 -0.3932 -0.2005
  983TIP3    H2 2956   0.171   4.019   1.713 -0.0430  0.0962 -0.1026
  984TIP3   OH2 2957   5.850   3.027   1.986 -0.6197  0.2267  0.1300
  984TIP3    H1 2958   5.928   2.985   1.951 -0.3417 -0.8115  1.8546
  984TIP3    H2 2959   5.868   3.121   1.978  0.7089  0.0031  0.2491
  985TIP3   OH2 2960   2.765   0.554   3.385  0.4072  0.0520  0.2538
  985TIP3    H1 2961   2.833   0.529   3.448  0.4159 -1.4767 -0.3106
  985TIP3    H2 2962   2.688   0.572   3.440  1.6517  3.6393  1.0625
  986TIP3   OH2 2963   5.093   5.309   4.421  0.1916  0.5204  0.8242
  986TIP3    H1 2964   5.044   5.287   4.500 -0.1181  1.3055  0.8577
  986TIP3    H2 2965   5.086   5.231   4.366 -0.0067  0.1517  1.3633
  987TIP3   OH2 2966   2.863   1.099   5.121  0.0825  0.6332 -0.1023
  987TIP3    H1 2967   2.777   1.133   5.097 -0.3310 -0.9557 -0.9808
  987TIP3    H2 2968   2.850   1.005   5.132  1.6079  0.4308  0.2266
  988TIP3   OH2 2969   1.431   4.811   0.211  0.1611 -0.0738  0.2066
  988TIP3    H1 2970   1.385   4.738   0.170  1.1027 -0.2678 -0.5306
  988TIP3    H2 2971   1.421   4.796   0.305 -2.0028  0.3672  0.0863
  989TIP3   OH2 2972   2.511   4.683   1.216  0.0196 -0.0684  0.4874
  989TIP3    H1 2973   2.494   4.616   1.282 -2.6760  0.3599  0.3206
  989TIP3    H2 2974   2.606   4.696   1.220  0.2061 -1.4800  2.8673
  990TIP3   OH2 2975   1.065   0.681   4.355  0.3219  0.0203  0.2328
  990TIP3    H1 2976   1.020   0.747   4.408  0.7757  0.5887 -0.0770
  990TIP3    H2 2977   1.009   0.668   4.280 -0.9900 -1.7611  1.4519
  991TIP3   OH2 2978   4.209   0.038   3.878 -0.0024  0.0010 -0.6048
  991TIP3    H1 2979   4.119   0.005   3.881  0.3450 -1.0027 -0.8703
  991TIP3    H2 2980   4.202   0.129   3.907 -0.9791 -0.3283  0.2589
  992TIP3   OH2 2981   6.081   5.963   1.621 -0.1605  0.1031 -0.0439
  992TIP3    H1 2982   6.023   6.013   1.564 -0.8411  0.4217  0.9044
  992TIP3    H2 2983   6.023   5.905   1.671  0.2138  0.9940  1.5040
  993TIP3   OH2 2984   3.320   2.457   2.602 -0.1455  0.0735 -0.2823
  993TIP3    H1 2985   3.318   2.415   2.688  1.8210 -0.8462 -0.6373
  993TIP3    H2 2986   3.282   2.544   2.617 -1.0325 -0.5307  1.2190
  994TIP3   OH2 2987   1.282   0.534   2.431 -0.1796 -0.0168 -0.3178
  994TIP3    H1 2988   1.239   0.449   2.427 -1.8239  0.7961 -0.6596
  994TIP3    H2 2989   1.369   0.515   2.468 -0.7839 -1.7167  0.3217
  995TIP3   OH2 2990   3.289   2.495   3.363 -0.0492 -0.2720 -0.2333
  995TIP3    H1 2991   3.280   2.583   3.399 -0.0535 -0.7795  1.0774
  995TIP3    H2 2992   3.271   2.505   3.270  0.8100  1.2510 -0.2723
  996TIP3   OH2 2993   3.112   0.179   0.053  0.2246 -0.0287 -0.1228
  996TIP3    H1 2994   3.174   0.239   0.094  0.8240  0.0617 -1.1084
  996TIP3    H2 2995   3.164   0.130  -0.010  0.0906 -2.7779  1.7695
  997TIP3   OH2 2996   5.535   1.304   1.802  0.3723 -0.6528  0.1404
  997TIP3    H1 2997   5.484   1.247   1.859 -1.5655 -0.0026 -0.8803
  997TIP3    H2 2998   5.530   1.390   1.844 -2.4946  0.2230 -1.7171
  998TIP3   OH2 2999   1.770   3.596   4.912 -0.1495 -0.1025 -0.0116
  998TIP3    H1 3000   1.712   3.670   4.924 -0.2258  0.2370 -2.1747
  998TIP3    H2 3001   1.768   3.578   4.818  0.4618 -2.3624  0.3452
  999TIP3   OH2 3002   4.195   1.135   2.246 -0.0945  0.6399  0.1644
  999TIP3    H1 3003   4.258   1.065   2.260 -0.1542  0.4970 -0.2835
  999TIP3    H2 3004   4.154   1.148   2.332  2.5812  2.7461  1.2913
 1000TIP3   OH2 3005   2.847   5.601   4.959 -0.7083  0.4164  0.0874
 1000TIP3    H1 3006   2.858   5.595   4.864 -0.3763  1.3998  0.0573
 1000TIP3    H2 3007   2.835   5.510   4.987 -0.6967  0.1053 -0.8775
 1001TIP3   OH2 3008   1.963   3.154   0.136  0.1956 -0.6224  0.3341
 1001TIP3    H1 3009   1.972   3.062   0.159  0.9272 -0.4339  0.8308
 1001TIP3    H2 3010   2.031   3.170   0.070 -1.2279 -0.9107 -1.2681
 1002TIP3   OH2 3011   2.798   4.812   2.829  0.3259 -0.0383 -0.2455
 1002TIP3    H1 3012   2.733   4.773   2.888  0.3249 -0.7815 -0.7206
 1002TIP3    H2 3013   2.765   4.792   2.741  2.5361 -2.9215 -0.5750
 1003TIP3   OH2 3014   1.757   3.922   1.269 -0.0895  0.4050 -0.1744
 1003TIP3    H1 3015   1.738   3.877   1.352  1.1378  0.6436  0.2631
 1003TIP3    H2 3016   1.752   3.853   1.203  0.9432 -0.2236  0.3788
 1004TIP3   OH2 3017   0.734   3.221   2.760  0.2528  0.7065  0.4086
 1004TIP3    H1 3018   0.749   3.246   2.851 -0.0390  0.2789  0.5799
 1004TIP3    H2 3019   0.646   3.183   2.760  0.6352 -0.1980  0.1386
 1005TIP3   OH2 3020   0.914   3.106   5.091 -0.0440 -0.4123 -0.0959
 1005TIP3    H1 3021   0.837   3.049   5.094  0.6959 -1.4426  0.0390
 1005TIP3    H2 3022   0.936   3.111   4.998  1.2549 -2.3109  0.0441
 1006TIP3   OH2 3023   5.577   5.211   4.055  0.4649 -0.3679 -0.2874
 1006TIP3    H1 3024   5.617   5.294   4.081 -1.3407  0.7771 -0.9847
 1006TIP3    H2 3025   5.567   5.162   4.136  0.0413  0.8148  0.3947
 1007TIP3   OH2 3026   3.661   0.823   1.010 -0.1696  0.5490  0.2300
 1007TIP3    H1 3027   3.726   0.843   0.942  0.7436  0.9289  1.1981
 1007TIP3    H2 3028   3.657   0.727   1.010 -0.3566  0.5461 -0.5141
 1008TIP3   OH2 3029   1.343   5.177   2.387 -0.0821 -0.1506 -0.1659
 1008TIP3    H1 3030   1.369   5.144   2.301  1.2455 -1.0633  0.5620
 1008TIP3    H2 3031   1.300   5.103   2.429 -0.0185  0.0509  0.2610
 1009TIP3   OH2 3032   6.176   0.313   4.414 -0.1183  0.2829 -0.0243
 1009TIP3    H1 3033   6.247   0.302   4.351 -0.4586 -3.3400  0.0391
 1009TIP3    H2 3034   6.099   0.331   4.360  0.1198  0.1935 -0.3970
 1010TIP3   OH2 3035   4.577   0.538   4.195 -0.3027 -0.1561  0.0279
 1010TIP3    H1 3036   4.590   0.600   4.267 -0.1520 -0.2381  0.0713
 1010TIP3    H2 3037   4.657   0.543   4.143  1.0921 -2.5460  1.7239
 1011TIP3   OH2 3038   3.128   1.274   2.901  0.6729 -0.4616 -0.2350
 1011TIP3    H1 3039   3.194   1.338   2.926  1.4571 -0.2061 -2.6390
 1011TIP3    H2 3040   3.060   1.281   2.967  1.1534  2.2327  0.0689
 1012TIP3   OH2 3041   1.123   1.875   0.653  0.3183 -0.6843  0.3412
 1012TIP3    H1 3042   1.108   1.968   0.639  0.2482 -0.5437  1.3077
 1012TIP3    H2 3043   1.112   1.836   0.566  2.8486  0.5118 -0.6152
 1013TIP3   OH2 3044   0.868   0.593   2.792 -0.1624  0.2012 -0.2693
 1013TIP3    H1 3045   0.886   0.507   2.829 -0.0945 -0.2742 -1.3763
 1013TIP3    H2 3046   0.944   0.612   2.737  0.0970  1.2357  0.4013
 1014TIP3   OH2 3047   2.809   2.779   3.958  0.2233 -0.2767  0.3549
 1014TIP3    H1 3048   2.771   2.861   3.990 -1.6276 -0.2426 -1.6854
 1014TIP3    H2 3049   2.742   2.713   3.976  0.2262 -0.6901 -1.0540
 1015TIP3   OH2 3050   3.324   5.916   3.660 -0.3999  0.2746 -0.4781
 1015TIP3    H1 3051   3.321   5.834   3.611 -1.2501  0.8357 -1.4046
 1015TIP3    H2 3052   3.398   5.963   3.623 -0.0214  0.0172 -0.0671
 1016TIP3   OH2 3053   1.659   3.002   0.027  0.1940 -0.4467  0.3659
 1016TIP3    H1 3054   1.728   2.996  -0.039 -0.8291  1.3020 -0.9461
 1016TIP3    H2 3055   1.704   3.017   0.109  1.3968  0.9507 -0.5077
 1017TIP3   OH2 3056   5.037   5.159   5.017  0.1626 -0.5166  0.6798
 1017TIP3    H1 3057   5.116   5.211   5.007  0.3831 -1.0968 -1.0340
 1017TIP3    H2 3058   4.981   5.188   4.945  0.1215 -2.3074 -0.0513
 1018TIP3   OH2 3059   0.529   5.704   4.662  0.3883  0.6818 -0.2025
 1018TIP3    H1 3060   0.513   5.631   4.601  0.7870 -0.3920  0.9351
 1018TIP3    H2 3061   0.619   5.731   4.643  0.4737  0.4249 -0.1725
 1019TIP3   OH2 3062   2.428   0.430   0.835 -0.7011 -0.2853  0.4877
 1019TIP3    H1 3063   2.410   0.507   0.888 -0.1131 -0.1731  0.5222
 1019TIP3    H2 3064   2.355   0.371   0.855 -0.4331 -0.2952  1.5149
 1020TIP3   OH2 3065   3.205   1.504   2.015 -0.0213  0.1501 -0.5551
 1020TIP3    H1 3066   3.214   1.427   1.959  0.2866 -0.4181  0.2657
 1020TIP3    H2 3067   3.156   1.566   1.962 -1.5542 -1.1325 -0.7108
 1021TIP3   OH2 3068   0.038   4.134   4.112 -0.6879 -0.0184 -0.5290
 1021TIP3    H1 3069  -0.039   4.186   4.087 -0.7005  1.1286  1.6374
 1021TIP3    H2 3070   0.006   4.074   4.179 -0.0681 -0.8579 -0.9718
 1022TIP3   OH2 3071   2.175   3.305   2.334 -0.0976 -0.1851 -0.2181
 1022TIP3    H1 3072   2.129   3.222   2.320  2.0318 -1.6378  0.8791
 1022TIP3    H2 3073   2.169   3.320   2.428  0.9683 -0.0268 -0.1568
 1023TIP3   OH2 3074   3.712   1.280   4.158 -0.4762  0.0136  0.4113
 1023TIP3    H1 3075   3.789   1.295   4.103  0.6104 -0.1647  1.8127
 1023TIP3    H2 3076   3.651   1.349   4.132  0.9189  1.3739  0.5763
 1024TIP3   OH2 3077   5.220   0.561   5.062  0.4625  0.1319  0.5093
 1024TIP3    H1 3078   5.148   0.577   5.123 -0.4762  0.6352 -0.6754
 1024TIP3    H2 3079   5.193   0.484   5.013 -0.0660  1.2481 -1.0345
 1025TIP3   OH2 3080   1.197   5.181   4.478 -0.6064  0.1568  0.4048
 1025TIP3    H1 3081   1.241   5.249   4.428 -1.6510  0.7179  0.2047
 1025TIP3    H2 3082   1.201   5.211   4.569  1.2393 -0.8334  0.6933
 1026TIP3   OH2 3083   4.848   3.728   3.908 -0.1872  0.3749 -0.1395
 1026TIP3    H1 3084   4.850   3.647   3.959 -0.9356  0.9720  0.8886
 1026TIP3    H2 3085   4.793   3.787   3.959  1.3490  1.9687 -0.2247
 1027TIP3   OH2 3086   2.996   4.926   4.072  0.2974  0.4792 -0.2485
 1027TIP3    H1 3087   2.942   4.895   4.145  0.7407  0.1408 -0.0609
 1027TIP3    H2 3088   3.061   4.983   4.112  1.2927 -0.6423 -0.1932
 1028TIP3   OH2 3089   0.575   2.433   1.997 -0.6438 -0.0847 -0.2492
 1028TIP3    H1 3090   0.590   2.513   2.048 -0.8158  0.0585 -0.4217
 1028TIP3    H2 3091   0.606   2.362   2.053 -0.2874  0.1220 -0.1806
 1029TIP3   OH2 3092   2.893   1.578   4.736  0.5412  0.1793  0.0223
 1029TIP3    H1 3093   2.880   1.661   4.691  1.4510  1.3886  1.8906
 1029TIP3    H2 3094   2.983   1.553   4.714  0.0456 -0.7257 -1.1081
 1030TIP3   OH2 3095   2.154   2.056   3.759 -0.2860 -0.5186 -0.5285
 1030TIP3    H1 3096   2.102   1.989   3.715 -0.7201 -0.1336 -0.6065
 1030TIP3    H2 3097   2.182   2.115   3.689  0.6143 -0.9529 -0.5485
 1031TIP3   OH2 3098   2.471   1.155   0.146  0.1894 -0.3929  0.3258
 1031TIP3    H1 3099   2.408   1.222   0.118  0.9338  0.4274  0.5931
 1031TIP3    H2 3100   2.416   1.086   0.183 -0.5625  0.3604  0.6625
 1032TIP3   OH2 3101   2.297   1.159   4.294  0.7902  0.4397  0.0283
 1032TIP3    H1 3102   2.372   1.119   4.249  1.2160  2.7285 -1.4541
 1032TIP3    H2 3103   2.233   1.175   4.224  0.6099  2.1700  0.5421
 1033TIP3   OH2 3104   3.223   4.250   0.802 -0.7164 -0.3064  0.0288
 1033TIP3    H1 3105   3.141   4.240   0.850 -2.0461  0.6123 -1.8911
 1033TIP3    H2 3106   3.205   4.212   0.716  0.5430  0.7844 -0.7545
 1034TIP3   OH2 3107   5.805   0.645   0.631 -0.9186  0.1087  0.1127
 1034TIP3    H1 3108   5.786   0.645   0.724  0.5443  1.5223  0.4490
 1034TIP3    H2 3109   5.840   0.558   0.613  1.0609  0.5804  1.4207
 1035TIP3   OH2 3110   2.729   3.043   4.824 -0.4662 -0.6413  0.4062
 1035TIP3    H1 3111   2.679   3.084   4.754  1.1313  0.1577 -0.3080
 1035TIP3    H2 3112   2.784   3.113   4.860  1.0287 -1.7108  0.3308
 1036TIP3   OH2 3113   3.120   0.859   4.975  0.0289 -0.8592 -0.0299
 1036TIP3    H1 3114   3.141   0.919   4.903  2.2577 -2.6169 -0.9744
 1036TIP3    H2 3115   3.025   0.853   4.974 -0.0772  0.2722 -1.9022
 1037TIP3   OH2 3116   1.094   2.700   4.765  0.2603  0.0897 -0.4930
 1037TIP3    H1 3117   1.095   2.647   4.685 -0.3188 -0.8700  0.1170
 1037TIP3    H2 3118   1.074   2.638   4.834  0.3764  0.9824  0.3555
 1038TIP3   OH2 3119   6.301   2.475   2.449 -0.5083 -0.6741 -0.1857
 1038TIP3    H1 3120   6.371   2.461   2.385 -0.3243  0.0294 -0.1473
 1038TIP3    H2 3121   6.302   2.396   2.503 -1.4254 -1.8030 -1.7520
 1039TIP3   OH2 3122   5.234   4.120   0.986  0.2028 -0.2851 -0.2998
 1039TIP3    H1 3123   5.237   4.200   0.934  0.2141  1.7623  2.5914
 1039TIP3    H2 3124   5.153   4.127   1.037  1.8304 -0.3516  2.4920
 1040TIP3   OH2 3125   3.465   4.600   2.678 -0.3884 -0.5052  0.0680
 1040TIP3    H1 3126   3.386   4.579   2.729 -0.6359 -0.7536 -0.4108
 1040TIP3    H2 3127   3.515   4.518   2.677  1.3373  0.3802  2.8691
 1041TIP3   OH2 3128   5.545   2.070   2.591  0.4071  0.2984 -0.0796
 1041TIP3    H1 3129   5.531   2.073   2.686  2.5513 -0.1937  0.2959
 1041TIP3    H2 3130   5.467   2.111   2.554 -0.8709 -0.3005  1.8494
 1042TIP3   OH2 3131   4.162   0.042   4.223  0.3826  0.4951 -0.1797
 1042TIP3    H1 3132   4.136   0.104   4.155 -2.6080  2.2087  2.2500
 1042TIP3    H2 3133   4.230   0.088   4.273  0.8659  0.2198 -0.5749
 1043TIP3   OH2 3134   0.582   1.708   2.888  0.2134  0.6299 -0.1667
 1043TIP3    H1 3135   0.511   1.688   2.949  1.1782 -0.1619  0.7261
 1043TIP3    H2 3136   0.660   1.667   2.926  0.9678  0.6085 -1.6358
 1044TIP3   OH2 3137   3.789   0.212   0.496  0.2472 -0.0449  0.3008
 1044TIP3    H1 3138   3.712   0.234   0.549  0.4244  1.4312  0.0121
 1044TIP3    H2 3139   3.754   0.198   0.408  0.1268 -0.9997  0.4968
 1045TIP3   OH2 3140   5.280   2.328   0.958 -0.2717  0.0255 -0.0525
 1045TIP3    H1 3141   5.260   2.397   0.895  0.7999  0.9603  0.5885
 1045TIP3    H2 3142   5.328   2.373   1.028  0.5617 -1.3887  0.3240
 1046TIP3   OH2 3143   1.503   2.566   4.543 -0.5951 -0.3344 -0.1669
 1046TIP3    H1 3144   1.481   2.595   4.454 -0.4157 -1.3366 -0.5443
 1046TIP3    H2 3145   1.507   2.647   4.593  1.1730  0.4683 -1.4793
 1047TIP3   OH2 3146   5.491   4.112   0.018  0.3708  0.6008  0.2387
 1047TIP3    H1 3147   5.537   4.072   0.092  0.8806 -0.4573 -0.6325
 1047TIP3    H2 3148   5.409   4.063   0.011  0.3639  0.6402  0.0447
 1048TIP3   OH2 3149   1.822   5.868   4.209  0.0390 -0.4350 -0.7639
 1048TIP3    H1 3150   1.844   5.799   4.147 -0.3825 -0.4800 -0.8668
 1048TIP3    H2 3151   1.904   5.914   4.224  0.0336 -0.0711 -1.7836
 1049TIP3   OH2 3152   5.303   3.506   2.644 -0.1207  0.3806  0.1748
 1049TIP3    H1 3153   5.294   3.540   2.555 -0.8612 -0.6969 -0.1854
 1049TIP3    H2 3154   5.384   3.455   2.642  0.3537  1.1141  0.3840
 1050TIP3   OH2 3155   5.926   4.474   3.391  0.0074 -0.5489 -0.5337
 1050TIP3    H1 3156   5.864   4.421   3.440  0.8291 -0.8385  0.2085
 1050TIP3    H2 3157   5.912   4.563   3.423  0.4623 -0.7192  0.1667
 1051TIP3   OH2 3158   5.363   1.162   4.358  0.1403 -0.3111 -0.5464
 1051TIP3    H1 3159   5.402   1.191   4.276  0.9026 -0.3824 -0.2231
 1051TIP3    H2 3160   5.361   1.067   4.351  0.5322 -0.3391 -0.3530
 1052TIP3   OH2 3161   3.338   1.896   5.015  0.0329 -0.3660 -0.4616
 1052TIP3    H1 3162   3.273   1.918   5.081  1.8301  2.8102  0.5116
 1052TIP3    H2 3163   3.313   1.947   4.939  1.3578  1.0361 -0.0167
 1053TIP3   OH2 3164   1.486   1.970   0.800  0.5444  0.0782  0.3526
 1053TIP3    H1 3165   1.520   1.922   0.876 -0.0869 -2.0046 -0.6038
 1053TIP3    H2 3166   1.472   1.903   0.734 -1.0214  1.5237 -0.8700
 1054TIP3   OH2 3167   0.090   3.973   2.103  0.1022 -0.5110  0.4351
 1054TIP3    H1 3168   0.047   3.888   2.091  0.2204 -0.7341  1.4449
 1054TIP3    H2 3169   0.043   4.013   2.176 -0.8768  0.9269 -0.9433
 1055TIP3   OH2 3170   2.412   3.175   3.381 -0.3972 -0.0100  0.1502
 1055TIP3    H1 3171   2.439   3.208   3.294  1.0119 -1.1314  0.1222
 1055TIP3    H2 3172   2.317   3.169   3.376 -0.3299 -0.1942 -1.3844
 1056TIP3   OH2 3173   3.972   3.482   4.631  0.3553 -0.0475 -0.2146
 1056TIP3    H1 3174   3.905   3.416   4.651 -1.4976  2.2150  1.4656
 1056TIP3    H2 3175   3.928   3.545   4.574  2.0385 -0.0561 -1.6302
 1057TIP3   OH2 3176   4.057   2.290   2.769  0.6736  0.5296 -0.2956
 1057TIP3    H1 3177   4.055   2.352   2.842 -0.0864 -0.2474  0.3671
 1057TIP3    H2 3178   4.028   2.341   2.694  0.6714  1.1406  0.1080
 1058TIP3   OH2 3179   2.390   1.196   0.511 -0.0559  0.0698  0.3722
 1058TIP3    H1 3180   2.466   1.221   0.458  0.0204  0.0604  0.4757
 1058TIP3    H2 3181   2.376   1.272   0.568 -1.8488  1.2735 -1.5304
 1059TIP3   OH2 3182   0.530   1.258   4.397  0.1465 -0.1773  0.1292
 1059TIP3    H1 3183   0.535   1.345   4.356  1.3270  0.7167  1.9777
 1059TIP3    H2 3184   0.447   1.259   4.444  0.5487  0.3401  0.8611
 1060TIP3   OH2 3185   5.370   4.294   2.591 -0.0509  0.0042  0.0942
 1060TIP3    H1 3186   5.344   4.230   2.656 -0.9886  0.0642 -0.2173
 1060TIP3    H2 3187   5.288   4.327   2.554  0.3959  1.3791  0.2442
 1061TIP3   OH2 3188   2.845   5.648   4.685  0.4280  0.6944  0.2556
 1061TIP3    H1 3189   2.939   5.656   4.669  0.7152 -0.6377  1.1424
 1061TIP3    H2 3190   2.824   5.558   4.662 -0.3893  0.6213  1.2206
 1062TIP3   OH2 3191   1.088   3.964   4.801  0.1396 -0.0987 -0.3905
 1062TIP3    H1 3192   1.133   4.003   4.876  0.6070  0.8176 -1.1293
 1062TIP3    H2 3193   1.136   3.996   4.725 -0.8612 -0.3111 -1.1329
 1063TIP3   OH2 3194   0.632   2.309   1.766  0.0411 -0.9211 -0.5535
 1063TIP3    H1 3195   0.612   2.340   1.854  1.6338  0.1206 -0.5358
 1063TIP3    H2 3196   0.563   2.347   1.711 -0.5459 -0.9907  0.1225
 1064TIP3   OH2 3197   6.227   4.466   1.651  0.1022  0.0453 -0.4093
 1064TIP3    H1 3198   6.317   4.458   1.682  0.1857 -1.8838 -1.0248
 1064TIP3    H2 3199   6.237   4.495   1.560  0.0065  1.5801  0.0444
 1065TIP3   OH2 3200   4.011   5.701   4.316  0.0405 -0.0189  0.0486
 1065TIP3    H1 3201   3.995   5.793   4.296  1.2169  0.0882 -0.4397
 1065TIP3    H2 3202   4.065   5.702   4.395  0.0718 -0.2977  0.0339
 1066TIP3   OH2 3203   0.807   4.366   1.769  0.1516 -0.2816  0.3990
 1066TIP3    H1 3204   0.805   4.286   1.715 -0.6035 -0.1451  0.2097
 1066TIP3    H2 3205   0.722   4.407   1.753  0.4878  0.4972  0.5979
 1067TIP3   OH2 3206   5.756   3.446   1.866  0.0229 -0.6726 -0.3958
 1067TIP3    H1 3207   5.695   3.462   1.794  0.4291 -1.3847 -0.9107
 1067TIP3    H2 3208   5.704   3.402   1.933 -0.5757  0.7719  0.1397
 1068TIP3   OH2 3209   3.963   0.468   4.307 -0.4361  0.1917  0.2723
 1068TIP3    H1 3210   4.050   0.480   4.269 -0.0820 -1.0331  0.6384
 1068TIP3    H2 3211   3.941   0.554   4.343  1.8967 -0.1238  2.7654
 1069TIP3   OH2 3212   4.422   1.823   0.744 -0.5514  0.0593  0.2064
 1069TIP3    H1 3213   4.414   1.728   0.743  0.0615 -0.0412  1.8915
 1069TIP3    H2 3214   4.427   1.846   0.837  1.6114  1.5189 -0.1951
 1070TIP3   OH2 3215   3.403   5.187   2.101  0.6310 -0.1094 -0.3481
 1070TIP3    H1 3216   3.404   5.121   2.171  2.4596 -0.7843 -0.9509
 1070TIP3    H2 3217   3.311   5.196   2.077  0.1232 -0.8715  1.2002
 1071TIP3   OH2 3218   1.650   3.061   3.962  0.3502 -0.8748  0.7789
 1071TIP3    H1 3219   1.581   3.113   4.005  0.7744 -0.5720  1.0991
 1071TIP3    H2 3220   1.633   3.071   3.868 -0.4485 -1.3527  0.8634
 1072TIP3   OH2 3221   0.591   1.751   0.154 -0.4700 -0.2009  0.7975
 1072TIP3    H1 3222   0.661   1.802   0.194 -0.0120 -1.7180  1.9995
 1072TIP3    H2 3223   0.528   1.817   0.125  1.2113  1.1806  0.0860
 1073TIP3   OH2 3224   1.894   5.804   1.730  0.0029  0.3851  0.0374
 1073TIP3    H1 3225   1.856   5.807   1.818  0.1502  0.1416  0.1082
 1073TIP3    H2 3226   1.823   5.834   1.672 -0.3261 -0.1543  0.1589
 1074TIP3   OH2 3227   3.448   2.193   0.170  0.0763  0.0115 -0.1958
 1074TIP3    H1 3228   3.452   2.285   0.195  0.2093  1.0399 -3.5602
 1074TIP3    H2 3229   3.356   2.176   0.152  0.3480  0.4023 -2.2736
 1075TIP3   OH2 3230   4.126   5.926   1.162  0.1182 -0.0652 -0.2265
 1075TIP3    H1 3231   4.146   5.898   1.073 -0.4249  1.9566 -1.0353
 1075TIP3    H2 3232   4.076   5.854   1.199  1.1698 -1.3551 -1.1969
 1076TIP3   OH2 3233   4.480   4.286   0.195  0.1311  0.3996  0.4489
 1076TIP3    H1 3234   4.572   4.290   0.170  0.5441  0.3448  1.8323
 1076TIP3    H2 3235   4.482   4.253   0.285 -1.2710 -0.0119  0.3462
 1077TIP3   OH2 3236   6.031   4.979   4.896  0.0809  0.1254 -0.0856
 1077TIP3    H1 3237   5.970   4.935   4.954  0.1242 -0.9302 -0.8248
 1077TIP3    H2 3238   6.021   4.936   4.812  2.2886 -0.5184 -0.0833
 1078TIP3   OH2 3239   2.849   4.188   3.911 -0.5721  0.2802  0.4152
 1078TIP3    H1 3240   2.764   4.233   3.911 -0.7881 -0.0602 -1.1033
 1078TIP3    H2 3241   2.836   4.114   3.852  1.4157  1.4859 -1.6599
 1079TIP3   OH2 3242   6.174   5.942   1.043  0.3821  0.2849 -0.3345
 1079TIP3    H1 3243   6.173   5.869   0.980 -0.4179  0.6133 -0.7070
 1079TIP3    H2 3244   6.127   5.908   1.119  0.7511  0.1254 -0.1741
 1080TIP3   OH2 3245   0.164   3.178   0.875 -0.3137  0.5835  0.1319
 1080TIP3    H1 3246   0.092   3.167   0.813  0.0730  1.1871 -0.4395
 1080TIP3    H2 3247   0.122   3.209   0.955 -0.6365  1.4130 -0.3522
 1081TIP3   OH2 3248   3.634   4.016   1.300  0.1247 -0.1013 -0.1166
 1081TIP3    H1 3249   3.642   3.981   1.389  1.6013  0.1394 -0.1382
 1081TIP3    H2 3250   3.715   4.064   1.285 -0.0699 -0.1937 -1.6261
 1082TIP3   OH2 3251   1.399   0.248   2.013 -0.0936  0.1376  0.7378
 1082TIP3    H1 3252   1.328   0.312   2.020  0.4010  0.4856  4.7838
 1082TIP3    H2 3253   1.465   0.292   1.959 -1.5464  1.1622 -0.2849
 1083TIP3   OH2 3254   0.752   1.515   4.620  0.0078 -0.2974  0.0548
 1083TIP3    H1 3255   0.689   1.451   4.654  0.7837 -0.4295  1.2931
 1083TIP3    H2 3256   0.814   1.528   4.691 -0.1555  1.8887 -0.1402
 1084TIP3   OH2 3257   2.949   1.949   0.255 -0.1722  0.0350 -0.7487
 1084TIP3    H1 3258   2.893   1.880   0.291  0.6910 -0.8924 -1.1569
 1084TIP3    H2 3259   2.914   1.965   0.167  0.0501 -0.3666 -0.9102
 1085TIP3   OH2 3260   3.775   2.502   0.246  0.7076  0.7758 -0.6031
 1085TIP3    H1 3261   3.863   2.483   0.280  0.1330  1.2732  1.2624
 1085TIP3    H2 3262   3.762   2.595   0.263 -1.7099 -0.0118  3.1539
 1086TIP3   OH2 3263   1.324   3.421   0.655  0.0268  0.4960  0.9460
 1086TIP3    H1 3264   1.294   3.379   0.574 -0.7950 -0.7768  1.8746
 1086TIP3    H2 3265   1.418   3.431   0.643  0.0203 -0.3268  0.1087
 1087TIP3   OH2 3266   0.623   4.256   2.340  0.3201  0.1965 -0.0613
 1087TIP3    H1 3267   0.659   4.344   2.352  2.2731 -0.5615  0.0077
 1087TIP3    H2 3268   0.590   4.255   2.250  1.9198  0.4652 -0.6697
 1088TIP3   OH2 3269   1.907   3.927   4.479  0.2558  0.7028  0.3778
 1088TIP3    H1 3270   1.887   3.950   4.388  1.5246 -0.8086 -0.3559
 1088TIP3    H2 3271   1.972   3.992   4.507 -0.4593  1.4315  0.3691
 1089TIP3   OH2 3272   5.361   4.548   0.041 -0.2653  0.2785 -0.3459
 1089TIP3    H1 3273   5.421   4.524   0.111  0.9342  0.6146 -1.2406
 1089TIP3    H2 3274   5.313   4.624   0.075 -1.8531 -1.3252  1.2578
 1090TIP3   OH2 3275   2.966   5.090   4.831  0.6200 -0.4124 -0.3768
 1090TIP3    H1 3276   3.009   5.022   4.884  0.1757 -0.9678 -0.7117
 1090TIP3    H2 3277   2.895   5.043   4.786  1.3135 -0.0832 -1.8762
 1091TIP3   OH2 3278   0.461   1.895   3.358  0.1316 -0.7132  0.4353
 1091TIP3    H1 3279   0.482   1.972   3.305 -1.8316  1.0409  2.0074
 1091TIP3    H2 3280   0.370   1.875   3.336  0.0943 -1.5562  1.2834
 1092TIP3   OH2 3281   2.360   3.443   1.313  0.3417  0.6525  0.1215
 1092TIP3    H1 3282   2.311   3.374   1.268 -0.1227  0.7916  0.3996
 1092TIP3    H2 3283   2.308   3.461   1.391  0.3163  1.5190 -0.0925
 1093TIP3   OH2 3284   2.947   3.349   0.876 -0.2483  0.9534 -0.0169
 1093TIP3    H1 3285   2.961   3.318   0.965  1.3129  1.6759  0.0260
 1093TIP3    H2 3286   2.969   3.443   0.879  1.3386  0.6747 -1.4484
 1094TIP3   OH2 3287   2.623   3.066   2.385  0.3400  0.2952 -0.3837
 1094TIP3    H1 3288   2.685   3.077   2.313  0.8626 -0.7151 -0.1042
 1094TIP3    H2 3289   2.546   3.026   2.343  0.8699 -0.8499 -0.3000
 1095TIP3   OH2 3290   4.837   3.513   2.036  0.4458  0.4342  0.1428
 1095TIP3    H1 3291   4.900   3.502   1.965  0.4774 -0.3531  0.2851
 1095TIP3    H2 3292   4.771   3.446   2.020  0.4377  0.2726  0.8341
 1096TIP3   OH2 3293   0.847   3.493   1.222 -0.1541 -0.7481  0.0921
 1096TIP3    H1 3294   0.824   3.493   1.129  0.1699  1.2927 -0.0266
 1096TIP3    H2 3295   0.932   3.536   1.226  0.2339 -1.5865  1.2601
 1097TIP3   OH2 3296   3.809   4.633   2.535 -0.1115  0.0138 -0.0447
 1097TIP3    H1 3297   3.865   4.655   2.461  1.5562 -0.2768  1.0930
 1097TIP3    H2 3298   3.798   4.538   2.529  1.7423 -0.3206  1.2024
 1098TIP3   OH2 3299   5.414   1.784   1.312 -0.3523  0.8500  0.3526
 1098TIP3    H1 3300   5.355   1.816   1.243  0.7824 -1.8297 -2.0544
 1098TIP3    H2 3301   5.360   1.724   1.363 -0.4893  0.6564 -0.0111
 1099TIP3   OH2 3302   1.246   5.040   2.766 -0.3180 -0.4234  0.4321
 1099TIP3    H1 3303   1.281   4.954   2.789 -0.0882 -0.0654  1.5110
 1099TIP3    H2 3304   1.224   5.033   2.673  2.9908 -0.5363 -0.4590
 1100TIP3   OH2 3305   0.293   2.856   0.178 -0.3963 -0.9196  0.0961
 1100TIP3    H1 3306   0.231   2.911   0.130  0.3873 -0.4389 -0.3760
 1100TIP3    H2 3307   0.247   2.835   0.260  0.0345  2.1064  1.2433
 1101TIP3   OH2 3308   5.427   3.950   2.580  0.1685 -0.2374  0.0774
 1101TIP3    H1 3309   5.346   3.915   2.542  1.0040 -2.4660  0.2268
 1101TIP3    H2 3310   5.423   3.923   2.672  1.0671 -0.3846  0.0831
 1102TIP3   OH2 3311   3.867   4.430   4.221  0.2635 -0.3152 -0.3468
 1102TIP3    H1 3312   3.829   4.343   4.213 -1.5060  0.4469 -0.8119
 1102TIP3    H2 3313   3.799   4.482   4.265  0.8236  1.0955 -1.0878
 1103TIP3   OH2 3314   4.795   1.186   2.204 -0.2380 -0.0754 -0.0100
 1103TIP3    H1 3315   4.799   1.177   2.299  0.6844 -1.2524 -0.1206
 1103TIP3    H2 3316   4.803   1.280   2.187 -0.3825  0.1374  1.0676
 1104TIP3   OH2 3317   3.690   0.449   2.996 -0.3081  0.2989 -0.4158
 1104TIP3    H1 3318   3.761   0.407   3.046  0.7192  1.9953 -0.3662
 1104TIP3    H2 3319   3.661   0.382   2.935  3.1155  0.2484 -2.2388
 1105TIP3   OH2 3320   5.750   2.847   0.993 -0.1319 -0.2870  0.5681
 1105TIP3    H1 3321   5.720   2.902   0.921  0.3813 -0.9495 -0.1731
 1105TIP3    H2 3322   5.691   2.771   0.991 -1.7701  0.8338  2.4899
 1106TIP3   OH2 3323   1.824   2.901   0.245 -0.8437  0.4459  0.2377
 1106TIP3    H1 3324   1.773   2.899   0.326 -1.0902 -1.4015  0.0670
 1106TIP3    H2 3325   1.906   2.857   0.268 -0.7844  0.1984 -0.4451
 1107TIP3   OH2 3326   0.568   4.395   1.459  0.0696 -0.3098  0.7085
 1107TIP3    H1 3327   0.650   4.361   1.422  0.3950  1.7406 -0.5879
 1107TIP3    H2 3328   0.586   4.403   1.553  0.6114 -1.8115  0.7722
 1108TIP3   OH2 3329   5.900   5.068   4.431 -0.2620 -0.1407  0.6958
 1108TIP3    H1 3330   5.908   5.067   4.336 -2.8127 -0.4145  0.4285
 1108TIP3    H2 3331   5.988   5.092   4.462  1.1439 -1.8651 -1.6174
 1109TIP3   OH2 3332   2.909   0.285   2.680 -0.3982  0.1416  0.2461
 1109TIP3    H1 3333   2.968   0.348   2.722  1.0776 -1.3541  0.4995
 1109TIP3    H2 3334   2.856   0.250   2.752  0.7341 -0.9395  0.5784
 1110TIP3   OH2 3335   2.439   0.165   1.813 -0.2748  0.0749 -0.1327
 1110TIP3    H1 3336   2.373   0.149   1.880  0.3722  1.1749  0.7990
 1110TIP3    H2 3337   2.482   0.246   1.840  0.4918  0.1533 -1.4959
 1111TIP3   OH2 3338   4.276   1.634   2.413  0.1574  0.2426  0.4876
 1111TIP3    H1 3339   4.263   1.718   2.456  0.7516  1.0954 -0.9226
 1111TIP3    H2 3340   4.193   1.588   2.424 -0.7479  1.6826 -0.1123
 1112TIP3   OH2 3341   5.034   1.885   0.560 -0.3820  0.0914  1.0470
 1112TIP3    H1 3342   5.066   1.931   0.638 -1.0549 -1.2849  2.1671
 1112TIP3    H2 3343   5.032   1.793   0.585  1.1577 -0.6482 -1.2239
 1113TIP3   OH2 3344   4.614   0.546   3.824  0.2611  0.0382  0.0901
 1113TIP3    H1 3345   4.702   0.508   3.824 -0.1960 -1.0486  0.7354
 1113TIP3    H2 3346   4.619   0.615   3.757  1.1095 -1.1677 -1.1561
 1114TIP3   OH2 3347   3.499   2.206   1.848 -0.7886  0.0117  0.1060
 1114TIP3    H1 3348   3.449   2.240   1.774  0.4092 -0.4163 -0.9426
 1114TIP3    H2 3349   3.435   2.157   1.900 -1.7766  0.8263 -0.3163
 1115TIP3   OH2 3350   5.527   0.167   3.373 -0.1015 -0.1683 -0.5120
 1115TIP3    H1 3351   5.578   0.086   3.375 -0.5973 -0.4819  1.4024
 1115TIP3    H2 3352   5.590   0.235   3.349  1.5255 -0.4178  2.5908
 1116TIP3   OH2 3353   5.365   3.798   5.134  0.2732  0.2658 -0.6315
 1116TIP3    H1 3354   5.402   3.755   5.212 -1.2281 -0.2101 -0.1384
 1116TIP3    H2 3355   5.426   3.777   5.064  0.3823 -1.4145 -0.0769
 1117TIP3   OH2 3356   1.142   3.589   2.411  0.2926  0.3028  0.3810
 1117TIP3    H1 3357   1.186   3.557   2.332  0.7663  2.3318 -0.2487
 1117TIP3    H2 3358   1.077   3.522   2.432  2.5046 -1.9961  0.3516
 1118TIP3   OH2 3359   1.459   0.878   1.441  0.3787 -0.5141 -0.1599
 1118TIP3    H1 3360   1.526   0.869   1.509 -0.2888 -0.8253  0.4716
 1118TIP3    H2 3361   1.410   0.956   1.467  0.1592 -0.5975 -0.3259
 1119TIP3   OH2 3362   1.742   1.753   3.702 -0.1206  0.1681  0.0739
 1119TIP3    H1 3363   1.706   1.800   3.777  1.3732  0.1287  0.8419
 1119TIP3    H2 3364   1.698   1.792   3.626 -0.7161  1.0933  0.8672
 1120TIP3   OH2 3365   0.489   3.409   4.583 -0.2394 -0.4777 -0.2725
 1120TIP3    H1 3366   0.482   3.503   4.600 -0.6225 -0.8343  1.8008
 1120TIP3    H2 3367   0.402   3.375   4.601 -0.3592 -1.1422 -1.9365
 1121TIP3   OH2 3368   4.398   2.529   1.599 -0.3000 -0.2990 -0.4943
 1121TIP3    H1 3369   4.429   2.459   1.541  1.2535  0.8246 -1.0963
 1121TIP3    H2 3370   4.359   2.593   1.540 -1.3317 -0.4352  0.0164
 1122TIP3   OH2 3371   3.607   5.758   1.173  0.0399  0.0283 -0.8912
 1122TIP3    H1 3372   3.616   5.681   1.117 -0.4751 -1.7983  1.4051
 1122TIP3    H2 3373   3.538   5.810   1.131  1.5764  0.1927 -3.4161
 1123TIP3   OH2 3374   2.247   5.142   2.996  0.1839 -0.3372 -0.3652
 1123TIP3    H1 3375   2.284   5.219   2.953  1.1626 -0.8230 -0.4260
 1123TIP3    H2 3376   2.253   5.162   3.090 -0.3587  0.0120 -0.4033
 1124TIP3   OH2 3377   1.355   5.688   0.649  0.3748  0.2436 -0.3806
 1124TIP3    H1 3378   1.319   5.748   0.583  1.8746 -0.7938 -2.2318
 1124TIP3    H2 3379   1.385   5.746   0.720 -1.3342  1.3845 -0.5148
 1125TIP3   OH2 3380   0.126   5.097   1.697  0.8079  0.0778 -0.3562
 1125TIP3    H1 3381   0.049   5.091   1.641  0.5546  0.7379 -0.0879
 1125TIP3    H2 3382   0.160   5.008   1.701 -0.4332 -0.3882  0.2227
 1126TIP3   OH2 3383   0.110   3.742   5.088  0.6663  0.2299 -0.0538
 1126TIP3    H1 3384   0.020   3.774   5.074  1.1483  1.5128 -0.3032
 1126TIP3    H2 3385   0.136   3.708   5.002  0.5450  0.1668 -0.0669
 1127TIP3   OH2 3386   2.735   1.918   3.270  0.2282 -0.5596 -0.4555
 1127TIP3    H1 3387   2.660   1.921   3.211  0.3940 -0.5858 -0.6679
 1127TIP3    H2 3388   2.746   1.825   3.290 -0.3976 -0.4708  0.3508
 1128TIP3   OH2 3389   4.933   0.208   0.363  0.4252  0.2184 -0.0657
 1128TIP3    H1 3390   4.875   0.131   0.366 -0.9185  1.2206  2.0476
 1128TIP3    H2 3391   4.928   0.238   0.272 -2.3214  0.1700 -0.0231
 1129TIP3   OH2 3392   3.687   0.890   1.719 -0.0650 -0.1076  0.3078
 1129TIP3    H1 3393   3.609   0.919   1.767 -0.3366  0.2610 -0.3408
 1129TIP3    H2 3394   3.705   0.803   1.753 -0.2876  0.1199  1.0334
 1130TIP3   OH2 3395   4.465   4.166   0.465  0.4403  0.5902 -0.3288
 1130TIP3    H1 3396   4.560   4.157   0.470  0.5555  1.1894 -1.1522
 1130TIP3    H2 3397   4.431   4.097   0.521  1.3671  0.8002  0.5147
 1131TIP3   OH2 3398   5.184   5.031   3.673 -0.4289 -0.0080 -0.1081
 1131TIP3    H1 3399   5.125   5.085   3.726 -1.0119 -1.3747  0.6925
 1131TIP3    H2 3400   5.226   4.973   3.737  1.4961  0.6509 -0.7208
 1132TIP3   OH2 3401   2.231   0.447   2.895 -0.1481 -0.6170  0.3149
 1132TIP3    H1 3402   2.279   0.492   2.826 -0.1267  0.0414  0.7485
 1132TIP3    H2 3403   2.159   0.403   2.849 -2.1084  2.4425  0.1517
 1133TIP3   OH2 3404   0.984   0.696   1.382 -0.4035  0.2318 -0.2687
 1133TIP3    H1 3405   0.901   0.649   1.384 -0.1416 -0.2215  1.5955
 1133TIP3    H2 3406   0.966   0.775   1.330 -1.9888  0.1174  0.0782
 1134TIP3   OH2 3407   1.960   0.783   5.078 -0.2402 -0.2670  0.1872
 1134TIP3    H1 3408   1.947   0.877   5.088  0.2207 -0.2651  0.8175
 1134TIP3    H2 3409   1.871   0.746   5.080 -0.3731  0.0646  0.9557
 1135TIP3   OH2 3410   1.460   3.892   4.770 -0.1570  0.0035 -0.4247
 1135TIP3    H1 3411   1.367   3.908   4.753 -0.4336  1.9730  2.3056
 1135TIP3    H2 3412   1.470   3.906   4.864  3.0004  0.3781 -0.7132
 1136TIP3   OH2 3413   2.485   5.370   4.777  0.9192 -0.4643 -0.6279
 1136TIP3    H1 3414   2.468   5.294   4.721 -1.3062 -0.9616  0.6005
 1136TIP3    H2 3415   2.484   5.445   4.717 -1.0781 -1.0001 -1.3311
 1137TIP3   OH2 3416   2.763   2.577   1.484  0.0007 -0.0310 -0.0555
 1137TIP3    H1 3417   2.806   2.491   1.487  0.2910  0.1312  0.7263
 1137TIP3    H2 3418   2.709   2.574   1.405 -2.5737 -2.2051  1.6072
 1138TIP3   OH2 3419   5.258   3.190   0.707  0.3700  0.3605 -0.4770
 1138TIP3    H1 3420   5.284   3.247   0.779 -1.3611  0.7675 -0.1264
 1138TIP3    H2 3421   5.226   3.111   0.749  0.4742  0.1103 -0.8581
 1139TIP3   OH2 3422   0.346   0.480   2.846  0.3130  0.2523  0.8425
 1139TIP3    H1 3423   0.329   0.401   2.897  2.4279  0.6072  2.2413
 1139TIP3    H2 3424   0.441   0.483   2.837  0.1378 -0.5163 -4.5194
 1140TIP3   OH2 3425   5.677   2.933   4.350 -0.3801  0.4209  0.7502
 1140TIP3    H1 3426   5.587   2.965   4.364 -0.1709  0.0067  3.5553
 1140TIP3    H2 3427   5.667   2.839   4.339 -0.4716  0.6617 -1.7964
 1141TIP3   OH2 3428   2.460   0.335   1.183  0.3561 -0.0570  0.0107
 1141TIP3    H1 3429   2.438   0.252   1.225 -0.5839 -0.0701 -0.4818
 1141TIP3    H2 3430   2.424   0.402   1.241  0.8604  0.0022  0.2606
 1142TIP3   OH2 3431   2.464   3.605   4.172 -0.4557 -0.0753 -0.2271
 1142TIP3    H1 3432   2.516   3.629   4.249  0.7631 -2.6422 -0.1359
 1142TIP3    H2 3433   2.373   3.609   4.202 -0.0009 -1.1338  1.4276
 1143TIP3   OH2 3434   0.134   0.011   3.672  0.1445 -0.0445 -0.2287
 1143TIP3    H1 3435   0.175  -0.049   3.610  0.4151  0.8706 -0.9615
 1143TIP3    H2 3436   0.138   0.097   3.629 -0.9767  0.3655  0.4306
 1144TIP3   OH2 3437   3.453   2.925   1.435 -0.0372  0.7015 -0.2308
 1144TIP3    H1 3438   3.407   2.943   1.354 -1.0071  0.3592  0.2274
 1144TIP3    H2 3439   3.426   2.837   1.459  1.3686  0.2294 -0.2729
 1145TIP3   OH2 3440   1.230   5.936   3.761 -0.4190 -0.6156 -0.1032
 1145TIP3    H1 3441   1.157   5.906   3.815  0.4514 -1.5384  0.6101
 1145TIP3    H2 3442   1.237   5.870   3.692 -0.6243 -0.2150 -0.5063
 1146TIP3   OH2 3443   2.652   2.131   1.502 -0.3753  0.3387 -0.2656
 1146TIP3    H1 3444   2.640   2.073   1.577  0.7607  0.8977  0.3736
 1146TIP3    H2 3445   2.640   2.074   1.425  0.3003 -0.6507  0.3396
 1147TIP3   OH2 3446   3.920   5.373   3.751 -0.3204 -0.4573  0.6002
 1147TIP3    H1 3447   3.830   5.400   3.734 -0.7042 -0.0125  2.9672
 1147TIP3    H2 3448   3.971   5.415   3.683 -1.8507 -0.4879 -0.6207
 1148TIP3   OH2 3449   4.939   1.720   2.736  0.4214 -0.1594  0.3013
 1148TIP3    H1 3450   4.857   1.760   2.707 -0.9240 -1.9150  1.4603
 1148TIP3    H2 3451   5.008   1.772   2.694 -1.1908  2.7419  1.0030
 1149TIP3   OH2 3452   3.595   4.686   1.460  0.1553  0.0024  0.2946
 1149TIP3    H1 3453   3.666   4.727   1.508 -0.2880  0.8327  0.2521
 1149TIP3    H2 3454   3.579   4.745   1.386 -1.5639  0.6299  1.1117
 1150TIP3   OH2 3455   4.415   4.278   3.339 -1.1767 -0.0066  0.2655
 1150TIP3    H1 3456   4.430   4.358   3.388  2.7965  2.0861 -3.6025
 1150TIP3    H2 3457   4.471   4.213   3.381  0.5056  1.1432 -0.0827
 1151TIP3   OH2 3458   5.154   2.442   4.101 -0.1830  0.0874  0.3928
 1151TIP3    H1 3459   5.170   2.536   4.114 -1.0451  0.3465 -0.2951
 1151TIP3    H2 3460   5.118   2.436   4.013  4.6717 -1.4821 -1.8339
 1152TIP3   OH2 3461   5.235   5.340   1.230  0.3856  0.0964 -0.1317
 1152TIP3    H1 3462   5.245   5.427   1.268  0.2375  0.2161 -0.3625
 1152TIP3    H2 3463   5.232   5.281   1.305 -0.0451  0.3416  0.0457
 1153TIP3   OH2 3464   6.066   1.120   3.276  0.4495  0.1208  0.7253
 1153TIP3    H1 3465   6.005   1.047   3.285 -0.3208  0.7902  1.0690
 1153TIP3    H2 3466   6.091   1.141   3.366  2.4887 -1.1933  0.5219
 1154TIP3   OH2 3467   2.042   0.091   3.336 -0.1723  0.5276 -0.0474
 1154TIP3    H1 3468   2.008   0.002   3.345 -0.4139  0.7336  1.1851
 1154TIP3    H2 3469   2.024   0.114   3.245  0.7784 -1.0354 -0.6689
 1155TIP3   OH2 3470   3.156   4.207   2.824  0.5360 -0.0168 -0.7270
 1155TIP3    H1 3471   3.194   4.271   2.764  0.7469  1.1300  0.5795
 1155TIP3    H2 3472   3.077   4.176   2.779 -0.3119  2.1442 -0.8753
 1156TIP3   OH2 3473   6.132   3.893   2.203 -0.2307  0.3045  0.4492
 1156TIP3    H1 3474   6.191   3.872   2.275 -0.3164 -2.0322 -0.0952
 1156TIP3    H2 3475   6.057   3.936   2.245 -0.2815 -0.9911  1.7676
 1157TIP3   OH2 3476   5.094   0.283   2.640 -0.9334  0.1924 -0.2538
 1157TIP3    H1 3477   5.060   0.351   2.581 -0.6783  2.4303  2.0256
 1157TIP3    H2 3478   5.180   0.262   2.605 -1.5654 -0.0161 -1.7796
 1158TIP3   OH2 3479   3.341   3.080   0.605 -0.5065  0.0228  0.5025
 1158TIP3    H1 3480   3.328   3.121   0.519  2.0180  0.7232  0.3865
 1158TIP3    H2 3481   3.252   3.060   0.635 -1.5236  0.6434 -1.8237
 1159TIP3   OH2 3482   5.876   0.822   3.780  0.6128  0.3066  0.1482
 1159TIP3    H1 3483   5.922   0.809   3.697  0.9989 -1.2037  0.5523
 1159TIP3    H2 3484   5.813   0.750   3.784  0.1796  0.7125  0.8997
 1160TIP3   OH2 3485   1.174   1.232   0.739 -0.5969  0.0461  0.4453
 1160TIP3    H1 3486   1.147   1.193   0.822  2.4413 -0.5441  1.2889
 1160TIP3    H2 3487   1.239   1.171   0.705  0.0553  1.5584 -1.1244
 1161TIP3   OH2 3488   3.410   3.580   0.755  0.4226 -0.1571 -0.7837
 1161TIP3    H1 3489   3.392   3.486   0.755 -0.3545 -0.2757  4.0822
 1161TIP3    H2 3490   3.340   3.617   0.701 -0.5011 -2.1945 -1.0926
 1162TIP3   OH2 3491   4.165   3.952   2.597  0.2962 -0.0250 -0.0157
 1162TIP3    H1 3492   4.096   4.006   2.635  0.6846  0.5635 -0.1293
 1162TIP3    H2 3493   4.164   3.871   2.648 -0.5140 -0.0458 -0.0591
 1163TIP3   OH2 3494   2.868   1.028   0.620  1.0829  0.2250  0.4759
 1163TIP3    H1 3495   2.910   0.967   0.559 -0.1254 -0.6433  0.4757
 1163TIP3    H2 3496   2.939   1.056   0.678  2.2695  1.0835 -1.2981
 1164TIP3   OH2 3497   3.732   1.676   2.275  0.2562  0.3984  0.4270
 1164TIP3    H1 3498   3.801   1.742   2.265 -0.0042  0.5157 -0.6135
 1164TIP3    H2 3499   3.700   1.660   2.187 -1.3566  0.6558  0.9297
 1165TIP3   OH2 3500   1.309   2.620   3.526  0.4731 -0.4491 -0.0376
 1165TIP3    H1 3501   1.307   2.705   3.481 -0.7696 -0.2481  0.3543
 1165TIP3    H2 3502   1.391   2.621   3.575  0.3212  0.6668  0.2210
 1166TIP3   OH2 3503   0.037   1.910   0.518  0.4026  0.3199  0.6655
 1166TIP3    H1 3504   0.110   1.970   0.502  1.7861 -0.9501  1.9374
 1166TIP3    H2 3505   0.079   1.826   0.540 -1.4431 -1.0971 -0.8169
 1167TIP3   OH2 3506   4.188   3.214   2.848  0.4823 -0.3077  0.0011
 1167TIP3    H1 3507   4.126   3.279   2.883 -0.3172 -0.8133 -0.4468
 1167TIP3    H2 3508   4.274   3.246   2.876 -0.0463 -0.2013  1.6300
 1168TIP3   OH2 3509   1.445   1.666   1.983  0.3487 -1.0452  0.5278
 1168TIP3    H1 3510   1.411   1.708   2.062  0.1989 -0.1199 -0.0055
 1168TIP3    H2 3511   1.526   1.715   1.963 -1.7308  1.6702 -2.2243
 1169TIP3   OH2 3512   0.592   4.206   0.313 -0.6441  0.2037 -0.3143
 1169TIP3    H1 3513   0.603   4.111   0.315  0.6307  0.3435 -0.0350
 1169TIP3    H2 3514   0.503   4.220   0.345 -0.7230 -0.8811 -0.0206
 1170TIP3   OH2 3515   5.100   2.594   3.209 -0.2885  0.0592  0.4440
 1170TIP3    H1 3516   5.186   2.560   3.232 -0.6784 -0.8315  0.6408
 1170TIP3    H2 3517   5.065   2.529   3.147 -1.1137  0.0130  0.9477
 1171TIP3   OH2 3518   6.119   4.278   1.806  0.1514 -0.2476 -0.1429
 1171TIP3    H1 3519   6.056   4.265   1.735  0.7361 -0.0201 -0.7140
 1171TIP3    H2 3520   6.184   4.338   1.769  0.4852 -0.1648  0.5747
 1172TIP3   OH2 3521   5.597   2.271   2.235  0.6111  0.1377  0.1551
 1172TIP3    H1 3522   5.629   2.195   2.187  0.5624  0.0476  0.2640
 1172TIP3    H2 3523   5.539   2.234   2.302 -1.6778  0.4526 -1.5348
 1173TIP3   OH2 3524   0.945   5.100   1.791  0.6185 -0.3921  0.1804
 1173TIP3    H1 3525   0.976   5.072   1.705  0.4781 -0.7194  0.2331
 1173TIP3    H2 3526   0.979   5.189   1.802 -1.8710  0.8599 -1.4762
 1174TIP3   OH2 3527   2.990   5.020   0.038 -0.5000 -0.1327  0.2811
 1174TIP3    H1 3528   3.066   4.995   0.091  0.0460 -0.0548 -0.4469
 1174TIP3    H2 3529   3.024   5.024  -0.052 -1.4809 -0.5802 -0.1240
 1175TIP3   OH2 3530   2.103   0.883   4.691  0.2885 -0.2152  0.2613
 1175TIP3    H1 3531   2.126   0.935   4.768  2.3186  2.0407 -1.6914
 1175TIP3    H2 3532   2.128   0.938   4.616  0.2557 -3.0465 -2.0332
 1176TIP3   OH2 3533   1.801   1.231   3.166  0.1284  0.1162  0.2464
 1176TIP3    H1 3534   1.811   1.264   3.077 -3.4059 -0.4157 -0.4812
 1176TIP3    H2 3535   1.857   1.154   3.170 -1.2894 -1.1409 -2.2946
 1177TIP3   OH2 3536   4.231   0.246   2.181 -0.2241  1.0364  0.1810
 1177TIP3    H1 3537   4.270   0.265   2.096  1.3045 -0.1030  0.5914
 1177TIP3    H2 3538   4.138   0.232   2.162  0.0603  0.9932 -1.2574
 1178TIP3   OH2 3539   2.742   0.636   2.079  0.4805  0.0400  0.6159
 1178TIP3    H1 3540   2.693   0.717   2.091 -1.1469 -0.3545 -2.3832
 1178TIP3    H2 3541   2.699   0.572   2.136  0.1077  0.6724  1.0465
 1179TIP3   OH2 3542   0.886   1.180   0.658 -0.2541 -0.4653 -0.1049
 1179TIP3    H1 3543   0.819   1.111   0.658 -0.6919 -0.0445  0.2484
 1179TIP3    H2 3544   0.906   1.194   0.751  0.6777 -0.9222 -0.2260
 1180TIP3   OH2 3545   0.504   2.898   3.174  0.6071  0.4753 -0.1990
 1180TIP3    H1 3546   0.438   2.957   3.138 -0.0025 -1.1734 -1.9932
 1180TIP3    H2 3547   0.579   2.907   3.115  0.2494 -0.9715 -0.9306
 1181TIP3   OH2 3548   0.444   1.921   4.246  0.1351  0.3326  0.8290
 1181TIP3    H1 3549   0.537   1.898   4.239  0.0115 -0.2155  0.9136
 1181TIP3    H2 3550   0.398   1.836   4.243 -0.4208  0.6611 -0.0965
 1182TIP3   OH2 3551   1.312   3.564   2.206  0.2006  0.3560  0.0118
 1182TIP3    H1 3552   1.295   3.471   2.218 -0.7997  0.6467  0.9686
 1182TIP3    H2 3553   1.399   3.567   2.166  1.6760 -0.9151  2.8375
 1183TIP3   OH2 3554   3.113   2.405   0.027 -0.8438  0.0524 -0.1639
 1183TIP3    H1 3555   3.173   2.419  -0.046 -1.9115 -0.1065 -1.1078
 1183TIP3    H2 3556   3.149   2.457   0.099  0.9433 -0.8349 -0.3803
 1184TIP3   OH2 3557   3.970   5.639   0.117  0.0477  0.2969  0.7180
 1184TIP3    H1 3558   3.940   5.727   0.140 -1.4709 -0.1582  0.6117
 1184TIP3    H2 3559   3.963   5.634   0.022  1.4293  0.4947  0.5955
 1185TIP3   OH2 3560   4.720   2.632   5.158 -0.4155  0.1591  0.3857
 1185TIP3    H1 3561   4.729   2.631   5.063  0.6836 -0.0031  0.4784
 1185TIP3    H2 3562   4.625   2.627   5.173 -0.5616 -2.6901 -0.6796
 1186TIP3   OH2 3563   5.308   4.000   4.902 -0.2814 -0.1615  0.2527
 1186TIP3    H1 3564   5.259   3.976   4.980  0.6934 -0.9610  0.6484
 1186TIP3    H2 3565   5.387   3.946   4.906  1.1255  1.7826  0.1933
 1187TIP3   OH2 3566   3.140   4.144   0.548 -0.0905 -0.0073  0.3154
 1187TIP3    H1 3567   3.097   4.202   0.485  0.5206  1.0759  0.8530
 1187TIP3    H2 3568   3.233   4.151   0.528 -0.0310 -1.2139  0.0811
 1188TIP3   OH2 3569   3.870   5.820   1.244 -0.3507  0.4111 -0.4978
 1188TIP3    H1 3570   3.775   5.825   1.251 -0.2878 -0.3101  2.6779
 1188TIP3    H2 3571   3.891   5.728   1.259  0.8531  0.3961 -1.9723
 1189TIP3   OH2 3572   4.230   4.960   0.989  0.5651 -0.3806  0.0811
 1189TIP3    H1 3573   4.146   4.916   1.000  0.0980  0.0947 -1.3471
 1189TIP3    H2 3574   4.290   4.891   0.964 -0.2037 -0.2707 -2.3212
 1190TIP3   OH2 3575   3.054   4.267   1.867  0.1855  0.4260 -0.1587
 1190TIP3    H1 3576   3.025   4.191   1.817  0.5384 -0.0000  0.2737
 1190TIP3    H2 3577   3.116   4.231   1.931 -0.9888  0.8110  1.2406
 1191TIP3   OH2 3578   0.620   2.141   4.981  0.1413 -0.5078  0.9088
 1191TIP3    H1 3579   0.581   2.210   4.928  1.2875 -0.5080  0.0355
 1191TIP3    H2 3580   0.554   2.121   5.048 -1.7713 -1.1705 -1.0751
 1192TIP3   OH2 3581   5.559   0.429   1.633  0.2361 -0.1214 -0.0248
 1192TIP3    H1 3582   5.652   0.404   1.632 -0.3051 -2.5848  1.8919
 1192TIP3    H2 3583   5.520   0.372   1.698 -2.3701  2.0105  0.4257
 1193TIP3   OH2 3584   6.018   5.754   2.448 -0.2519  0.6307 -0.3662
 1193TIP3    H1 3585   5.986   5.675   2.491  1.5747 -0.5246 -0.9850
 1193TIP3    H2 3586   5.946   5.782   2.391 -0.3876 -1.5472 -1.3368
 1194TIP3   OH2 3587   5.310   5.637   3.471 -0.5393 -0.6059  0.7195
 1194TIP3    H1 3588   5.308   5.713   3.414 -2.2246 -1.0818  0.0989
 1194TIP3    H2 3589   5.385   5.586   3.440  0.8557  0.9422  1.4004
 1195TIP3   OH2 3590   5.968   5.789   1.813  0.3495  0.3155 -0.3221
 1195TIP3    H1 3591   5.996   5.699   1.831 -1.8491 -0.2517  0.5569
 1195TIP3    H2 3592   6.022   5.843   1.870  2.2113 -0.3202 -1.3772
 1196TIP3   OH2 3593   5.852   2.121   3.974  0.2265  0.7554  0.0851
 1196TIP3    H1 3594   5.805   2.198   3.943 -0.4467  0.3430  0.0766
 1196TIP3    H2 3595   5.851   2.060   3.901 -0.0929  0.3534  0.4248
 1197TIP3   OH2 3596   6.181   5.685   0.627 -0.1550  0.3616  0.0986
 1197TIP3    H1 3597   6.131   5.706   0.706 -0.1534 -0.7232  0.3998
 1197TIP3    H2 3598   6.134   5.611   0.587 -0.4399  1.1975 -1.1881
 1198TIP3   OH2 3599   4.795   2.738   2.647  0.2212 -0.0934 -0.6232
 1198TIP3    H1 3600   4.887   2.763   2.656  0.2605  0.5288 -2.3437
 1198TIP3    H2 3601   4.747   2.820   2.657 -0.2931 -0.6154  1.6256
 1199TIP3   OH2 3602   1.127   2.492   3.361  0.5056  0.2399  0.9039
 1199TIP3    H1 3603   1.065   2.491   3.434 -0.6288 -0.3624 -0.0337
 1199TIP3    H2 3604   1.206   2.534   3.396 -0.2596  0.5724  2.2656
 1200TIP3   OH2 3605   4.229   2.696   3.951 -0.5940  0.5099  0.7337
 1200TIP3    H1 3606   4.164   2.639   3.992 -0.6250  0.6242  0.8462
 1200TIP3    H2 3607   4.194   2.715   3.864 -2.1734  2.9023  1.7740
 1201TIP3   OH2 3608   2.527   2.707   4.087 -0.5212 -0.5041  0.7483
 1201TIP3    H1 3609   2.451   2.763   4.102  1.1298  2.3872 -0.9035
 1201TIP3    H2 3610   2.581   2.719   4.165  0.1241  0.7529  0.1197
 1202TIP3   OH2 3611   0.299   0.565   2.581  0.4603  0.0599  0.3247
 1202TIP3    H1 3612   0.382   0.542   2.540  0.2241  0.2062 -0.2498
 1202TIP3    H2 3613   0.316   0.559   2.675  0.5796 -1.9038  0.2282
 1203TIP3   OH2 3614   5.892   1.510   4.940  0.1409  0.2634 -0.0999
 1203TIP3    H1 3615   5.856   1.494   5.027 -0.5623  1.8092 -0.0771
 1203TIP3    H2 3616   5.956   1.579   4.952  2.2356 -1.5172 -0.3710
 1204TIP3   OH2 3617   5.658   4.354   0.682  0.3451  0.8465  0.3047
 1204TIP3    H1 3618   5.668   4.441   0.722  1.7653 -0.1947  2.4398
 1204TIP3    H2 3619   5.743   4.337   0.641  0.1441  0.4002  0.0703
 1205TIP3   OH2 3620   1.497   3.245   4.777  0.5764 -0.5012  0.4035
 1205TIP3    H1 3621   1.583   3.202   4.775 -0.5998 -3.0206 -2.0153
 1205TIP3    H2 3622   1.451   3.201   4.848  0.2792 -1.3637 -0.3124
 1206TIP3   OH2 3623   5.236   2.671   1.070 -0.0855 -0.0033 -0.0087
 1206TIP3    H1 3624   5.168   2.604   1.067  0.4556 -0.5809  0.3814
 1206TIP3    H2 3625   5.240   2.697   1.162 -0.1981  0.4743 -0.1336
 1207TIP3   OH2 3626   6.219   3.188   5.085  1.3895 -0.0156 -0.1203
 1207TIP3    H1 3627   6.282   3.256   5.109  1.5101  0.1066 -0.7648
 1207TIP3    H2 3628   6.151   3.234   5.035  1.1887 -0.2761 -0.0907
 1208TIP3   OH2 3629   2.237   3.772   1.134  0.4114 -0.0849 -0.2058
 1208TIP3    H1 3630   2.143   3.774   1.151  0.4060 -0.1242 -0.2296
 1208TIP3    H2 3631   2.271   3.851   1.176  0.6553 -1.0289  1.4864
 1209TIP3   OH2 3632   2.238   0.343   3.301 -0.0178 -0.3923 -0.2136
 1209TIP3    H1 3633   2.167   0.315   3.359 -0.5863 -0.7769 -1.0769
 1209TIP3    H2 3634   2.265   0.263   3.256  0.7652 -0.1896 -0.1236
 1210TIP3   OH2 3635   6.275   4.785   3.715 -0.1114  0.5163  0.2911
 1210TIP3    H1 3636   6.296   4.711   3.658 -0.9295 -1.1600  2.0544
 1210TIP3    H2 3637   6.239   4.851   3.656 -1.4427 -1.3343 -1.1146
 1211TIP3   OH2 3638   1.054   2.665   4.345  0.1786 -0.4487  0.3134
 1211TIP3    H1 3639   1.071   2.599   4.413 -0.0895  1.8088  2.7064
 1211TIP3    H2 3640   1.008   2.617   4.276  0.5778 -2.8758  1.6346
 1212TIP3   OH2 3641   3.427   1.776   2.087 -0.3384 -0.0918 -0.5465
 1212TIP3    H1 3642   3.501   1.833   2.109 -0.8717 -0.0328  1.2930
 1212TIP3    H2 3643   3.466   1.705   2.036  0.9399  0.1092  0.1012
 1213TIP3   OH2 3644   5.387   3.070   5.028 -0.1325 -0.1992 -0.5794
 1213TIP3    H1 3645   5.449   3.015   5.076  0.1319  0.2421 -0.4038
 1213TIP3    H2 3646   5.392   3.039   4.937 -0.7880 -1.1752 -0.2943
 1214TIP3   OH2 3647   4.703   2.597   1.991 -0.0876 -0.2839  0.2124
 1214TIP3    H1 3648   4.771   2.663   1.977 -0.2261 -0.2995 -0.5605
 1214TIP3    H2 3649   4.638   2.613   1.923 -0.6943 -0.4951  0.7289
 1215TIP3   OH2 3650   3.774   1.386   2.854  0.3246 -0.1714 -0.2857
 1215TIP3    H1 3651   3.696   1.358   2.903  0.4308  0.0385  0.0103
 1215TIP3    H2 3652   3.748   1.383   2.762 -0.0077 -0.1812 -0.1914
 1216TIP3   OH2 3653   5.251   3.407   0.553  0.1396 -0.0295  0.6930
 1216TIP3    H1 3654   5.241   3.473   0.622  0.1673 -0.1711  0.8321
 1216TIP3    H2 3655   5.239   3.324   0.598 -0.1701 -0.1080  0.4661
 1217TIP3   OH2 3656   0.301   2.550   4.062 -0.8849 -0.1747 -0.5884
 1217TIP3    H1 3657   0.229   2.538   4.000  0.1402  0.1716 -1.8836
 1217TIP3    H2 3658   0.306   2.645   4.075  0.3671 -0.0456 -1.8041
 1218TIP3   OH2 3659   3.055   3.468   3.630  0.3337 -0.3696 -0.4473
 1218TIP3    H1 3660   2.974   3.491   3.585  0.3813 -2.1776 -1.5692
 1218TIP3    H2 3661   3.029   3.406   3.698  0.7502 -0.9177 -0.7765
 1219TIP3   OH2 3662   3.984   0.547   1.263 -0.1041 -0.4056  0.6988
 1219TIP3    H1 3663   4.076   0.573   1.270  0.2515 -1.7159  0.9950
 1219TIP3    H2 3664   3.965   0.552   1.169  1.3281 -3.5206  0.1302
 1220TIP3   OH2 3665   5.426   1.464   1.599  0.3916  0.1001 -0.1105
 1220TIP3    H1 3666   5.455   1.387   1.647 -1.1967 -0.7009 -0.3581
 1220TIP3    H2 3667   5.388   1.521   1.666  0.8737  0.3313 -0.0303
 1221TIP3   OH2 3668   4.495   1.419   3.008 -0.1526 -0.1030  0.3475
 1221TIP3    H1 3669   4.517   1.377   2.925  0.1910 -2.1658  1.4231
 1221TIP3    H2 3670   4.576   1.463   3.035  0.0555 -0.3453  0.1218
 1222TIP3   OH2 3671   6.251   3.362   4.216  0.4870 -0.0013  0.8781
 1222TIP3    H1 3672   6.342   3.363   4.244  0.6022 -0.9305  0.5993
 1222TIP3    H2 3673   6.219   3.276   4.244  0.1158 -0.2525 -0.2710
 1223TIP3   OH2 3674   4.385   1.075   0.827 -0.3186 -0.2391 -0.3138
 1223TIP3    H1 3675   4.456   1.129   0.861 -1.2979 -0.4744  2.3551
 1223TIP3    H2 3676   4.419   1.040   0.745  2.6285 -0.2527  0.7880
 1224TIP3   OH2 3677   5.390   5.867   0.597 -0.2067  0.1692  0.1312
 1224TIP3    H1 3678   5.454   5.939   0.596  0.3257 -0.2616 -1.7753
 1224TIP3    H2 3679   5.437   5.794   0.557 -1.5027 -0.5188 -0.1579
 1225TIP3   OH2 3680   5.305   1.627   2.471  0.8342 -0.3171 -0.3399
 1225TIP3    H1 3681   5.354   1.595   2.396 -1.6547  0.0438 -2.2568
 1225TIP3    H2 3682   5.310   1.555   2.535  2.7729 -0.7494 -0.9068
 1226TIP3   OH2 3683   2.647   2.407   0.396 -0.1869  0.6404 -0.2441
 1226TIP3    H1 3684   2.614   2.334   0.448  0.1477  0.3820 -0.3891
 1226TIP3    H2 3685   2.695   2.462   0.459 -0.9739  1.0780 -0.0114
 1227TIP3   OH2 3686   6.151   3.035   2.905 -0.5102  0.1113  0.1246
 1227TIP3    H1 3687   6.159   3.000   2.816  1.7084 -1.4883  0.8467
 1227TIP3    H2 3688   6.137   2.957   2.959  0.1373  0.8370  1.3679
 1228TIP3   OH2 3689   6.136   0.012   4.256 -0.0007  0.5908 -0.6387
 1228TIP3    H1 3690   6.076   0.035   4.326 -0.7090 -1.1005 -0.6413
 1228TIP3    H2 3691   6.136   0.088   4.198 -0.8495  1.2634  0.2168
 1229TIP3   OH2 3692   4.183   4.695   4.135 -0.2204 -0.2536 -0.4029
 1229TIP3    H1 3693   4.202   4.702   4.229  0.7331 -0.0389 -0.5966
 1229TIP3    H2 3694   4.113   4.630   4.129 -2.0229  1.4934  0.6466
 1230TIP3   OH2 3695   1.309   3.092   4.893  0.3785  0.0783  0.0714
 1230TIP3    H1 3696   1.299   3.019   4.832  0.5700  1.0501 -1.1583
 1230TIP3    H2 3697   1.236   3.150   4.874  0.2074  0.2078  1.0578
 1231TIP3   OH2 3698   4.438   5.068   4.123 -0.0680 -0.0764 -0.4873
 1231TIP3    H1 3699   4.475   4.981   4.140 -1.9541 -0.8483 -0.0072
 1231TIP3    H2 3700   4.352   5.050   4.085 -1.0575  1.5396  0.8273
 1232TIP3   OH2 3701   0.959   2.483   2.526 -0.2012  0.3322 -0.4232
 1232TIP3    H1 3702   0.980   2.401   2.481 -2.1179 -0.1564 -0.5072
 1232TIP3    H2 3703   0.917   2.537   2.459 -0.1909  0.8399 -0.0271
 1233TIP3   OH2 3704   5.195   3.366   2.869  0.6846 -0.3007 -0.1501
 1233TIP3    H1 3705   5.230   3.425   2.802  1.3949  0.2001  0.6343
 1233TIP3    H2 3706   5.271   3.317   2.900  0.5983  0.2840  1.0679
 1234TIP3   OH2 3707   2.485   3.960   3.063  0.4447  0.3112 -0.4123
 1234TIP3    H1 3708   2.420   4.024   3.032 -1.4569 -0.8217  1.0222
 1234TIP3    H2 3709   2.433   3.885   3.090  2.2809 -0.2625  1.7591
 1235TIP3   OH2 3710   0.195   5.975   0.166  0.1147  0.4763 -0.6118
 1235TIP3    H1 3711   0.151   5.903   0.211 -0.8012  1.8244  0.7385
 1235TIP3    H2 3712   0.270   5.995   0.221  1.1772 -0.3032 -1.7140
 1236TIP3   OH2 3713   2.763   4.154   4.453 -0.4189  0.1507 -0.3413
 1236TIP3    H1 3714   2.712   4.181   4.529 -0.4141  1.5153 -0.7920
 1236TIP3    H2 3715   2.808   4.233   4.425  0.5035 -0.6045 -1.0682
 1237TIP3   OH2 3716   6.161   3.340   3.959 -0.0980  0.4973 -0.4064
 1237TIP3    H1 3717   6.192   3.344   4.049 -1.1742  0.3230 -0.0220
 1237TIP3    H2 3718   6.070   3.310   3.965 -0.9038  2.5250 -1.3801
 1238TIP3   OH2 3719   6.329   3.945   0.102 -0.7681 -0.3070  0.0526
 1238TIP3    H1 3720   6.275   3.870   0.127 -0.0602 -0.5378  0.9440
 1238TIP3    H2 3721   6.329   4.002   0.179 -3.1098  1.7497 -1.3282
 1239TIP3   OH2 3722   2.407   1.718   3.330  0.1754 -0.2667 -0.1924
 1239TIP3    H1 3723   2.425   1.675   3.246 -0.0486 -0.2190 -0.2632
 1239TIP3    H2 3724   2.313   1.711   3.341  0.0708  0.5999 -0.4195
 1240TIP3   OH2 3725   4.985   2.093   4.075  0.2631  0.2404  0.1964
 1240TIP3    H1 3726   5.036   2.036   4.017  1.3239  1.7135 -0.3984
 1240TIP3    H2 3727   4.943   2.155   4.015  0.0263  0.7676  0.9029
 1241TIP3   OH2 3728   0.835   5.848   3.235 -0.2611 -0.2757 -0.6281
 1241TIP3    H1 3729   0.779   5.808   3.169 -1.3800 -0.8385  0.6417
 1241TIP3    H2 3730   0.781   5.854   3.313  0.5025  1.9086 -0.1966
 1242TIP3   OH2 3731   1.566   5.519   0.661  0.4298 -0.1316 -0.5251
 1242TIP3    H1 3732   1.565   5.553   0.751 -0.0159 -1.3086 -0.0568
 1242TIP3    H2 3733   1.491   5.559   0.619  1.4778  1.5929 -0.8595
 1243TIP3   OH2 3734   5.108   0.375   2.190  0.1330 -0.1592 -0.2406
 1243TIP3    H1 3735   5.028   0.397   2.142  0.6561 -1.2041 -1.6889
 1243TIP3    H2 3736   5.080   0.360   2.280 -0.8963  1.8532 -0.1685
 1244TIP3   OH2 3737   0.931   2.348   3.788 -0.3493 -0.1277 -0.1229
 1244TIP3    H1 3738   0.928   2.363   3.694 -1.0210  0.3285 -0.0381
 1244TIP3    H2 3739   0.851   2.300   3.808 -1.7162  2.2640  0.5993
 1245TIP3   OH2 3740   4.483   2.246   1.824 -0.4314 -0.1831  0.1336
 1245TIP3    H1 3741   4.507   2.338   1.817 -0.5557 -0.1985 -0.5992
 1245TIP3    H2 3742   4.425   2.242   1.899  0.3092  0.1811  0.7345
 1246TIP3   OH2 3743   2.404   2.494   2.322  0.0553 -0.0518  0.1374
 1246TIP3    H1 3744   2.359   2.410   2.338  1.2999 -1.1310 -1.7287
 1246TIP3    H2 3745   2.345   2.559   2.360 -1.9241 -1.5961 -0.0785
 1247TIP3   OH2 3746   4.001   5.469   2.870  0.2480  0.2432 -0.2684
 1247TIP3    H1 3747   4.078   5.497   2.920 -0.5741 -0.4788  1.4774
 1247TIP3    H2 3748   3.931   5.527   2.900 -0.6739 -1.3558  0.8240
 1248TIP3   OH2 3749   4.889   5.876   1.584  0.5313  0.0958  0.2290
 1248TIP3    H1 3750   4.839   5.828   1.518  0.6062  0.2179  0.0823
 1248TIP3    H2 3751   4.848   5.853   1.667 -0.0187  0.5100  0.0748
 1249TIP3   OH2 3752   0.750   3.920   1.395 -0.2920  0.4196 -0.5520
 1249TIP3    H1 3753   0.836   3.899   1.434 -0.6836  0.0559  0.1476
 1249TIP3    H2 3754   0.771   3.968   1.315  0.5969 -0.6364 -0.9877
 1250TIP3   OH2 3755   4.147   5.052   2.328 -0.2796 -0.5191 -0.1292
 1250TIP3    H1 3756   4.227   5.014   2.292  0.0934  0.4669 -0.3774
 1250TIP3    H2 3757   4.159   5.047   2.423  0.4561  0.3611 -0.1615
 1251TIP3   OH2 3758   2.377   4.208   3.217  0.3684 -0.0652 -0.2779
 1251TIP3    H1 3759   2.424   4.185   3.136 -0.6119  1.0024 -1.1878
 1251TIP3    H2 3760   2.292   4.164   3.209  0.6527 -0.8346  0.7031
 1252TIP3   OH2 3761   5.254   5.426   3.928  0.0146 -0.2636 -0.1106
 1252TIP3    H1 3762   5.327   5.487   3.936 -0.5870  0.2695  2.3778
 1252TIP3    H2 3763   5.296   5.341   3.912  0.9399  0.5088 -2.0842
 1253TIP3   OH2 3764   1.207   0.070   2.931  0.2814 -0.3579 -0.3460
 1253TIP3    H1 3765   1.282   0.107   2.884 -0.5096  0.4095 -1.0288
 1253TIP3    H2 3766   1.244   0.039   3.014  1.7548 -2.0126 -1.5490
 1254TIP3   OH2 3767   3.524   2.523   0.133  0.0598 -0.2526 -0.0701
 1254TIP3    H1 3768   3.604   2.503   0.182 -0.3386  0.2799  0.8217
 1254TIP3    H2 3769   3.555   2.555   0.048  0.7490 -2.0433 -0.5376
 1255TIP3   OH2 3770   6.307   5.997   0.702 -0.5361 -0.2456  0.5818
 1255TIP3    H1 3771   6.266   5.916   0.670  0.3873 -0.6334  0.3527
 1255TIP3    H2 3772   6.347   5.973   0.785  1.0571 -0.4430 -0.2019
 1256TIP3   OH2 3773   4.549   4.930   4.732 -0.1415 -0.2745 -0.1786
 1256TIP3    H1 3774   4.502   4.848   4.719  1.7032 -1.4886  0.4288
 1256TIP3    H2 3775   4.547   4.944   4.827  0.3113 -0.0831 -0.1949
 1257TIP3   OH2 3776   2.035   3.989   1.654 -0.4302 -0.5292  0.6214
 1257TIP3    H1 3777   2.117   4.032   1.629 -2.0446  1.5175 -1.6454
 1257TIP3    H2 3778   2.047   3.964   1.745  1.9746  1.5130  0.9601
 1258TIP3   OH2 3779   1.310   1.079   1.593  0.4486  0.0180 -0.3644
 1258TIP3    H1 3780   1.376   1.110   1.654  1.1436  0.5115 -1.3488
 1258TIP3    H2 3781   1.263   1.158   1.566 -1.9467 -0.5020  1.8374
 1259TIP3   OH2 3782   5.698   4.925   4.817  0.2037 -0.2860 -0.3231
 1259TIP3    H1 3783   5.746   4.897   4.895  0.8836  2.4982  0.3807
 1259TIP3    H2 3784   5.766   4.948   4.754 -0.3341 -1.4357 -1.3718
 1260TIP3   OH2 3785   2.132   5.751   3.018  0.5830  0.0757  0.0988
 1260TIP3    H1 3786   2.047   5.712   3.040  1.8610 -2.6246  0.6576
 1260TIP3    H2 3787   2.166   5.697   2.947  1.4966  1.6360 -0.7012
 1261TIP3   OH2 3788   3.973   4.907   1.031  0.4544 -0.2111 -0.0084
 1261TIP3    H1 3789   3.989   4.813   1.034 -2.3138 -0.7628 -0.5173
 1261TIP3    H2 3790   3.953   4.931   1.121  0.4570 -0.2376 -0.0009
 1262TIP3   OH2 3791   4.573   4.045   2.145  0.8192  0.4720  0.9804
 1262TIP3    H1 3792   4.585   4.117   2.084  1.7648 -1.7741 -1.6969
 1262TIP3    H2 3793   4.480   4.050   2.170  0.0939  0.9202 -1.5086
 1263TIP3   OH2 3794   0.699   4.517   2.420 -0.3275  0.0009 -0.5556
 1263TIP3    H1 3795   0.608   4.536   2.440 -0.3557 -0.5846 -0.1094
 1263TIP3    H2 3796   0.747   4.540   2.500  0.0104  0.9265 -1.0046
 1264TIP3   OH2 3797   3.717   2.761   0.317 -0.2088 -0.1261 -0.4355
 1264TIP3    H1 3798   3.659   2.789   0.389  1.2131 -1.2238  1.2161
 1264TIP3    H2 3799   3.689   2.814   0.242 -1.4658  1.4022  1.0237
 1265TIP3   OH2 3800   5.197   1.401   1.222 -0.4864 -0.2124 -0.1064
 1265TIP3    H1 3801   5.123   1.367   1.172 -1.9242 -0.4489  2.0333
 1265TIP3    H2 3802   5.254   1.326   1.234 -0.3297 -0.2453 -1.0263
 1266TIP3   OH2 3803   6.258   4.916   2.976 -0.3316 -0.0856 -0.1443
 1266TIP3    H1 3804   6.216   4.917   2.890 -2.1383 -0.0408  0.7025
 1266TIP3    H2 3805   6.311   4.997   2.978 -0.5175  0.0658 -1.0850
 1267TIP3   OH2 3806   2.700   5.733   2.654  0.1504  0.0356  0.6840
 1267TIP3    H1 3807   2.632   5.723   2.588 -0.0900  0.3076  0.8903
 1267TIP3    H2 3808   2.678   5.668   2.721 -0.3825  0.6880  1.1515
 1268TIP3   OH2 3809   0.684   5.338   4.741 -0.3055 -0.1434 -0.2219
 1268TIP3    H1 3810   0.695   5.354   4.648  1.6188  0.5553  0.0823
 1268TIP3    H2 3811   0.715   5.248   4.754  1.4754  0.4571  0.0115
 1269TIP3   OH2 3812   4.999   0.088   3.854  0.0438 -0.0063 -0.0947
 1269TIP3    H1 3813   4.925   0.137   3.890 -0.8708 -1.9984  0.9100
 1269TIP3    H2 3814   5.066   0.094   3.921  0.5721  1.2460 -0.7153
 1270TIP3   OH2 3815   0.827   1.378   4.346 -0.1681 -0.0327  0.3213
 1270TIP3    H1 3816   0.810   1.395   4.438  1.0480 -0.7792  0.7082
 1270TIP3    H2 3817   0.908   1.424   4.327 -1.1453  1.3328 -0.7954
 1271TIP3   OH2 3818   5.441   4.420   4.108 -0.3810  0.0079 -0.0758
 1271TIP3    H1 3819   5.463   4.362   4.182 -0.9169  0.1716  0.2196
 1271TIP3    H2 3820   5.399   4.362   4.044 -2.2394  0.2805  0.8159
 1272TIP3   OH2 3821   5.317   0.488   2.744  0.0275 -0.2934  0.2331
 1272TIP3    H1 3822   5.291   0.570   2.786 -2.9180 -0.1613 -1.5622
 1272TIP3    H2 3823   5.321   0.425   2.816  0.6979  1.0421  1.4134
 1273TIP3   OH2 3824   4.655   3.352   0.517 -0.2146  0.2424 -0.2646
 1273TIP3    H1 3825   4.744   3.326   0.494 -0.0720  0.9632 -0.5588
 1273TIP3    H2 3826   4.652   3.446   0.499 -0.2633  0.7612  2.1568
 1274TIP3   OH2 3827   2.221   0.198   0.005  0.2079  0.2359 -0.2131
 1274TIP3    H1 3828   2.282   0.264   0.038 -0.3290  0.4008  0.4759
 1274TIP3    H2 3829   2.234   0.122   0.062 -0.9878  0.6499  0.6480
 1275TIP3   OH2 3830   1.420   0.321   0.100  0.0399 -0.3902 -0.5503
 1275TIP3    H1 3831   1.427   0.334   0.005 -0.5519  0.1054 -0.5317
 1275TIP3    H2 3832   1.502   0.354   0.135 -0.0726  0.1964 -0.8214
 1276TIP3   OH2 3833   2.359   2.598   5.112 -0.7403  0.2952 -0.0917
 1276TIP3    H1 3834   2.349   2.528   5.176 -0.0906  1.1515  0.9902
 1276TIP3    H2 3835   2.275   2.644   5.114 -0.8464  0.1038 -0.1230
 1277TIP3   OH2 3836   4.932   2.043   5.094  0.0373  0.0496 -0.0594
 1277TIP3    H1 3837   4.940   1.995   5.011  1.3283  1.3674 -0.7249
 1277TIP3    H2 3838   4.977   2.126   5.079  0.6314  0.1746  2.0888
 1278TIP3   OH2 3839   5.333   0.913   2.390  0.2170 -0.1538 -0.6867
 1278TIP3    H1 3840   5.341   0.946   2.479  0.3169 -2.1023  0.0652
 1278TIP3    H2 3841   5.262   0.849   2.395  1.2895 -1.4647 -1.6313
 1279TIP3   OH2 3842   1.429   0.432   4.115 -0.2922 -0.1890 -0.9068
 1279TIP3    H1 3843   1.378   0.513   4.116  0.4854  0.3100  0.2429
 1279TIP3    H2 3844   1.377   0.370   4.165  0.0370  0.2069 -0.0601
 1280TIP3   OH2 3845   4.734   0.416   4.553 -0.2552  0.4375  0.8819
 1280TIP3    H1 3846   4.653   0.365   4.547 -0.6321  0.9723  1.2583
 1280TIP3    H2 3847   4.802   0.357   4.522 -1.0125  0.5334 -1.1460
 1281TIP3   OH2 3848   0.541   2.659   3.060 -0.4171  0.1815 -0.5370
 1281TIP3    H1 3849   0.460   2.646   3.010 -0.9921 -0.5513  0.5424
 1281TIP3    H2 3850   0.526   2.740   3.108  0.4112  1.2590 -2.0342
 1282TIP3   OH2 3851   3.869   5.762   0.966 -0.4275  0.3601  0.2839
 1282TIP3    H1 3852   3.903   5.673   0.973  0.7417  0.9245  3.7481
 1282TIP3    H2 3853   3.838   5.783   1.054 -0.6365  3.4185 -0.3909
 1283TIP3   OH2 3854   5.779   5.365   4.701 -0.0747 -0.2906  0.0634
 1283TIP3    H1 3855   5.792   5.352   4.795  0.1110 -0.3542  0.0299
 1283TIP3    H2 3856   5.697   5.413   4.694 -0.5082 -0.9948  0.2135
 1284TIP3   OH2 3857   4.049   5.181   0.384  1.0775 -0.4363  0.1797
 1284TIP3    H1 3858   4.004   5.105   0.422  0.9216 -0.2541  0.3570
 1284TIP3    H2 3859   3.995   5.206   0.309  0.0827  0.6759  1.2291
 1285TIP3   OH2 3860   3.837   0.913   0.817  0.3815 -0.3678 -0.5356
 1285TIP3    H1 3861   3.905   0.853   0.788 -1.9718 -2.9407 -1.0910
 1285TIP3    H2 3862   3.790   0.937   0.737 -2.0344 -2.2111  0.2212
 1286TIP3   OH2 3863   2.823   4.959   0.450 -0.3750 -0.3609 -0.1697
 1286TIP3    H1 3864   2.816   4.975   0.356 -1.1134 -0.5065 -0.1477
 1286TIP3    H2 3865   2.855   4.869   0.457  2.3381  0.5300 -0.2839
 1287TIP3   OH2 3866   5.084   4.651   4.854  0.2069  0.1196 -0.1207
 1287TIP3    H1 3867   5.084   4.679   4.763  0.9144 -0.0769 -0.1916
 1287TIP3    H2 3868   5.173   4.617   4.868 -0.0202 -0.2237  0.5226
 1288TIP3   OH2 3869   4.989   0.280   3.434  0.2360  0.3320  0.0086
 1288TIP3    H1 3870   5.060   0.240   3.483 -0.7429  0.5891  1.7181
 1288TIP3    H2 3871   5.032   0.340   3.373  1.5081 -0.2168  0.3453
 1289TIP3   OH2 3872   1.474   3.216   4.096  0.2593  0.3477 -0.1553
 1289TIP3    H1 3873   1.438   3.182   4.178  0.1490  0.4620 -0.1558
 1289TIP3    H2 3874   1.484   3.310   4.112  0.4348  0.3359 -0.2009
 1290TIP3   OH2 3875   4.668   0.374   0.652 -0.0505 -0.1054  1.0400
 1290TIP3    H1 3876   4.673   0.373   0.748  2.3166 -0.6687  0.9700
 1290TIP3    H2 3877   4.748   0.418   0.624 -1.3259  1.2394 -0.6922
 1291TIP3   OH2 3878   1.777   0.354   1.298 -0.0971  0.1408  0.0576
 1291TIP3    H1 3879   1.719   0.426   1.323  0.1363  0.5226 -0.4779
 1291TIP3    H2 3880   1.859   0.397   1.272  1.3649 -0.5114  3.1926
 1292TIP3   OH2 3881   1.929   5.075   4.670  0.0709 -0.0764 -0.0005
 1292TIP3    H1 3882   1.976   5.020   4.732 -0.3859  0.4296  0.8034
 1292TIP3    H2 3883   1.980   5.157   4.667 -1.0330  0.7056  1.3252
 1293TIP3   OH2 3884   1.135   4.266   0.596  0.3729 -0.0777  0.4662
 1293TIP3    H1 3885   1.057   4.322   0.586  1.5762  1.7681  0.8901
 1293TIP3    H2 3886   1.130   4.233   0.685 -0.2635 -0.5036  0.2744
 1294TIP3   OH2 3887   2.565   1.170   4.187  0.2231 -0.3147  0.1036
 1294TIP3    H1 3888   2.568   1.266   4.191  2.3213 -0.3326  0.2789
 1294TIP3    H2 3889   2.589   1.142   4.275 -0.8359 -1.0304  0.1820
 1295TIP3   OH2 3890   6.114   5.892   4.152  0.7680 -0.0942 -0.1879
 1295TIP3    H1 3891   6.071   5.977   4.163 -1.5555 -1.0594 -1.1928
 1295TIP3    H2 3892   6.068   5.833   4.212  0.3247 -1.2834 -1.6383
 1296TIP3   OH2 3893   0.920   1.792   0.831 -0.0497 -0.3167  0.2746
 1296TIP3    H1 3894   0.865   1.718   0.807 -1.2255  0.6515 -0.0971
 1296TIP3    H2 3895   0.958   1.822   0.749  0.5016 -0.5577  0.4372
 1297TIP3   OH2 3896   0.489   0.533   4.682  0.5547 -0.4974  0.0145
 1297TIP3    H1 3897   0.520   0.462   4.626  1.0796  1.0846 -1.7984
 1297TIP3    H2 3898   0.481   0.609   4.624 -3.6212  0.0911  1.0186
 1298TIP3   OH2 3899   6.070   2.125   2.977  0.2573 -0.7773 -0.7997
 1298TIP3    H1 3900   6.072   2.116   2.882  1.0757  0.0753 -0.8830
 1298TIP3    H2 3901   6.063   2.220   2.991 -3.1401 -1.0185 -0.0169
 1299TIP3   OH2 3902   1.878   0.530   4.097  0.1438  0.6691 -0.2584
 1299TIP3    H1 3903   1.845   0.520   4.008 -0.3767  1.2742 -0.1380
 1299TIP3    H2 3904   1.801   0.550   4.150  0.2978 -0.6290  0.5120
 1300TIP3   OH2 3905   2.669   3.685   3.414 -0.4996 -0.0102 -0.0572
 1300TIP3    H1 3906   2.749   3.728   3.383 -0.0224 -0.5678  0.3520
 1300TIP3    H2 3907   2.631   3.748   3.476 -0.2716  0.1865 -0.1123
 1301TIP3   OH2 3908   0.574   2.367   4.792  0.6843 -0.3867  0.3882
 1301TIP3    H1 3909   0.585   2.325   4.707  0.7944 -0.1040  0.2603
 1301TIP3    H2 3910   0.640   2.437   4.792  0.1195  0.1494  0.3611
 1302TIP3   OH2 3911   2.396   3.351   1.894 -0.7969 -0.1521  0.0834
 1302TIP3    H1 3912   2.322   3.361   1.954 -0.9300 -1.5331  0.1987
 1302TIP3    H2 3913   2.473   3.344   1.952 -0.7147  0.2052  0.0161
 1303TIP3   OH2 3914   0.165   4.872   3.858  0.4101  0.3183 -0.1099
 1303TIP3    H1 3915   0.079   4.846   3.825  0.3428  0.2748  0.1010
 1303TIP3    H2 3916   0.184   4.810   3.927  1.3329 -0.6788 -1.2260
 1304TIP3   OH2 3917   5.323   2.001   4.457 -0.1494 -0.5213  0.1747
 1304TIP3    H1 3918   5.380   1.939   4.502 -0.0592 -0.4736  0.1299
 1304TIP3    H2 3919   5.370   2.021   4.376  0.4540  0.5879  0.7682
 1305TIP3   OH2 3920   4.834   3.367   0.108  0.1975  0.2702  0.2288
 1305TIP3    H1 3921   4.862   3.420   0.182  0.2976  0.2798  0.1847
 1305TIP3    H2 3922   4.876   3.282   0.122 -0.9887 -0.2053  0.9722
 1306TIP3   OH2 3923   4.691   1.028   0.590 -0.7639  0.0698 -0.1431
 1306TIP3    H1 3924   4.767   1.063   0.636 -0.5994  0.9763 -1.0779
 1306TIP3    H2 3925   4.728   0.975   0.520 -0.9794  0.6344 -0.6938
 1307TIP3   OH2 3926   5.494   5.082   3.834  0.2626 -0.9686  0.4547
 1307TIP3    H1 3927   5.449   5.010   3.879 -0.8695  0.0467  1.0335
 1307TIP3    H2 3928   5.494   5.153   3.898  1.7523 -0.5723  0.0566
 1308TIP3   OH2 3929   1.167   4.105   1.373  0.0060  0.3014  0.0204
 1308TIP3    H1 3930   1.134   4.025   1.415  1.9688 -2.2589 -2.8024
 1308TIP3    H2 3931   1.247   4.126   1.423 -0.4085  0.3806  0.6602
 1309TIP3   OH2 3932   0.406   4.410   1.026 -0.4196  0.0937  0.0126
 1309TIP3    H1 3933   0.486   4.377   1.067 -0.4429 -0.4746 -0.3822
 1309TIP3    H2 3934   0.427   4.413   0.932 -0.4707  1.0685  0.0304
 1310TIP3   OH2 3935   3.886   3.277   4.393 -0.2021 -0.7501  0.4094
 1310TIP3    H1 3936   3.950   3.277   4.322 -1.0330  0.5312 -0.3648
 1310TIP3    H2 3937   3.928   3.225   4.462 -0.4183 -4.3625 -1.8930
 1311TIP3   OH2 3938   1.489   4.882   4.061 -0.1594  0.3186  0.3862
 1311TIP3    H1 3939   1.515   4.793   4.039 -1.1906 -0.2509  1.3134
 1311TIP3    H2 3940   1.551   4.909   4.129 -0.4779 -0.1127  0.8620
 1312TIP3   OH2 3941   6.061   5.302   3.427 -0.0837 -0.1006 -0.5164
 1312TIP3    H1 3942   6.112   5.313   3.508 -1.5120 -0.9929  0.5661
 1312TIP3    H2 3943   6.116   5.247   3.372  0.7668  0.2202 -0.0076
 1313TIP3   OH2 3944   4.246   2.507   2.454 -0.3616  0.4578 -0.6436
 1313TIP3    H1 3945   4.291   2.423   2.461  1.8488  1.6765  0.8778
 1313TIP3    H2 3946   4.253   2.530   2.361  1.4348  0.1738 -0.6097
 1314TIP3   OH2 3947   1.500   5.331   0.893  0.1015  0.1569  0.3434
 1314TIP3    H1 3948   1.406   5.328   0.876 -0.0723 -0.0599  1.3181
 1314TIP3    H2 3949   1.529   5.412   0.851 -0.6649  0.6581  0.7592
 1315TIP3   OH2 3950   4.681   4.910   3.190 -0.5928  0.5889  0.6988
 1315TIP3    H1 3951   4.645   4.845   3.251 -2.3230  0.2773 -0.5878
 1315TIP3    H2 3952   4.661   4.994   3.231 -2.3581  0.4020  0.2943
 1316TIP3   OH2 3953   2.361   4.503   2.351  0.2270 -0.2915  0.9055
 1316TIP3    H1 3954   2.423   4.451   2.299 -0.7124  0.8158 -1.4998
 1316TIP3    H2 3955   2.298   4.440   2.385 -0.3892 -0.8950 -1.2088
 1317TIP3   OH2 3956   0.981   4.647   4.919 -0.0571  0.1806  0.2443
 1317TIP3    H1 3957   0.924   4.610   4.852  1.4342 -4.5138  1.1915
 1317TIP3    H2 3958   0.942   4.620   5.002  2.0101 -0.7923  0.9632
 1318TIP3   OH2 3959   4.409   3.055   4.020  0.1184 -0.3096 -0.1148
 1318TIP3    H1 3960   4.407   3.149   4.005 -0.5715  0.0580  1.9451
 1318TIP3    H2 3961   4.353   3.018   3.951 -1.5135  1.0337  0.4320
 1319TIP3   OH2 3962   6.031   4.230   3.695  0.2561 -0.8307 -0.0476
 1319TIP3    H1 3963   6.089   4.220   3.770 -1.4306 -0.7899  1.3333
 1319TIP3    H2 3964   6.065   4.306   3.648  0.6770 -0.1179  1.3507
 1320TIP3   OH2 3965   2.238   5.697   4.997 -0.6610  0.3498 -0.0763
 1320TIP3    H1 3966   2.203   5.702   4.909 -1.4602 -0.3456  0.1876
 1320TIP3    H2 3967   2.181   5.635   5.042  0.6910 -0.5510  0.4737
 1321TIP3   OH2 3968   0.935   1.436   3.780  0.4270  0.0909  0.0778
 1321TIP3    H1 3969   0.928   1.371   3.710  1.6792  0.2549 -0.2295
 1321TIP3    H2 3970   0.910   1.389   3.860  0.9735 -0.6801 -0.1927
 1322TIP3   OH2 3971   2.941   2.336   3.128  0.4358 -0.6638  0.1431
 1322TIP3    H1 3972   2.870   2.273   3.145 -0.1433 -0.1992 -0.4551
 1322TIP3    H2 3973   2.984   2.302   3.050 -0.0827 -0.1726 -0.3750
 1323TIP3   OH2 3974   1.603   3.919   3.681  0.5145  0.1928 -0.1606
 1323TIP3    H1 3975   1.665   3.987   3.706  0.0406  1.0559 -1.2580
 1323TIP3    H2 3976   1.604   3.857   3.754  0.5426  1.6560  1.1177
 1324TIP3   OH2 3977   2.183   4.417   3.718  0.1253 -0.5535  0.2763
 1324TIP3    H1 3978   2.273   4.391   3.697 -0.0007 -0.3182 -0.5815
 1324TIP3    H2 3979   2.136   4.335   3.730 -0.3079 -0.8096 -2.5557
 1325TIP3   OH2 3980   5.317   2.560   2.723  0.4702 -0.1336 -0.0540
 1325TIP3    H1 3981   5.233   2.567   2.679 -0.0952  1.3314  1.1864
 1325TIP3    H2 3982   5.363   2.490   2.675 -2.1211 -2.3252  0.4032
 1326TIP3   OH2 3983   1.138   3.111   3.788 -0.3835 -0.1395  0.2118
 1326TIP3    H1 3984   1.118   3.149   3.874 -1.8957  2.1991 -1.0647
 1326TIP3    H2 3985   1.224   3.147   3.765 -0.9792  1.1007 -0.1754
 1327TIP3   OH2 3986   2.799   0.228   3.365  0.9580 -0.4887 -0.1191
 1327TIP3    H1 3987   2.757   0.206   3.282  0.2843 -0.6171  0.2559
 1327TIP3    H2 3988   2.881   0.179   3.364  1.1969 -0.0899 -0.9363
 1328TIP3   OH2 3989   0.096   4.486   5.131 -0.9564  0.3261 -0.1194
 1328TIP3    H1 3990   0.114   4.426   5.058 -1.4882 -0.9010  0.7076
 1328TIP3    H2 3991   0.176   4.537   5.140 -0.8475  0.4459 -1.4974
 1329TIP3   OH2 3992   2.576   2.275   4.893  0.4733  0.3273  0.2225
 1329TIP3    H1 3993   2.662   2.238   4.871  0.4422  0.1896  0.3328
 1329TIP3    H2 3994   2.589   2.316   4.979  0.6642  1.0961 -0.1615
 1330TIP3   OH2 3995   5.978   3.736   3.709  0.1995  0.1095  0.1420
 1330TIP3    H1 3996   6.041   3.703   3.773 -1.2148  0.6422  1.9108
 1330TIP3    H2 3997   5.899   3.753   3.761 -0.9048  0.8857 -1.7152
 1331TIP3   OH2 3998  -0.001   4.538   3.523 -0.4448  0.8589 -0.6069
 1331TIP3    H1 3999   0.086   4.511   3.495 -0.4596  0.2327 -0.0660
 1331TIP3    H2 4000  -0.053   4.542   3.443  0.1864  1.6579 -0.9921
 1332TIP3   OH2 4001   3.111   3.161   0.107  0.4344  0.3891 -0.1940
 1332TIP3    H1 4002   3.168   3.128   0.176  1.5868 -2.0351 -2.1620
 1332TIP3    H2 4003   3.022   3.147   0.140  0.9593 -0.3973  0.9072
 1333TIP3   OH2 4004   5.298   0.046   1.893 -0.4446 -0.0008  0.2357
 1333TIP3    H1 4005   5.248   0.041   1.811  1.0562 -0.0833 -0.7300
 1333TIP3    H2 4006   5.272   0.128   1.933 -0.9349  0.2212 -0.5200
 1334TIP3   OH2 4007   3.672   1.881   1.932 -0.1066  0.6113 -0.0137
 1334TIP3    H1 4008   3.612   1.898   1.859  0.3708  1.1729 -0.2787
 1334TIP3    H2 4009   3.664   1.959   1.987  1.3626  1.2999 -0.7313
 1335TIP3   OH2 4010   1.667   5.380   1.145 -0.1057 -0.3970  0.1114
 1335TIP3    H1 4011   1.584   5.401   1.101  1.1540  1.4019 -1.6024
 1335TIP3    H2 4012   1.714   5.325   1.082  0.8627  0.4119  0.1055
 1336TIP3   OH2 4013   0.608   2.517   3.651  0.0789  0.1876 -0.2839
 1336TIP3    H1 4014   0.571   2.567   3.724  1.4581 -0.6001  1.0354
 1336TIP3    H2 4015   0.633   2.584   3.587 -0.2742  1.0034  0.4000
 1337TIP3   OH2 4016   1.523   1.178   0.224 -0.3268  0.6543  0.4141
 1337TIP3    H1 4017   1.560   1.094   0.250  0.1140  0.2511 -1.3798
 1337TIP3    H2 4018   1.430   1.171   0.244 -0.2067 -0.0667  0.7425
 1338TIP3   OH2 4019   3.885   2.661   2.921 -0.2870 -0.3777 -0.2889
 1338TIP3    H1 4020   3.936   2.580   2.929  0.1655 -0.1674 -0.9966
 1338TIP3    H2 4021   3.924   2.720   2.986 -0.0630 -0.4403 -0.3657
 1339TIP3   OH2 4022   4.158   3.163   4.961 -0.3614  0.4164 -0.1147
 1339TIP3    H1 4023   4.224   3.184   5.027 -0.0234 -0.2594 -0.2287
 1339TIP3    H2 4024   4.189   3.205   4.881 -1.2332  2.0112  0.3409
 1340TIP3   OH2 4025   1.686   3.949   4.100 -0.2863 -0.0138  0.5374
 1340TIP3    H1 4026   1.630   3.990   4.034 -0.9714 -0.1025  1.0576
 1340TIP3    H2 4027   1.637   3.958   4.182  0.6666  0.3212  1.0821
 1341TIP3   OH2 4028   0.202   1.699   0.606 -0.7397  1.0408  0.1469
 1341TIP3    H1 4029   0.249   1.667   0.529 -0.8341 -1.4661  1.0469
 1341TIP3    H2 4030   0.267   1.750   0.654  0.6606 -1.0168  0.5581
 1342TIP3   OH2 4031   2.604   2.841   0.571 -0.2526  0.1061 -0.6200
 1342TIP3    H1 4032   2.547   2.912   0.600  2.1631  0.9746  2.5393
 1342TIP3    H2 4033   2.673   2.884   0.520 -0.3316 -0.3692 -1.1372
 1343TIP3   OH2 4034   0.668   5.364   1.458  0.1296  0.0367 -0.0788
 1343TIP3    H1 4035   0.674   5.374   1.553  1.1065  0.8143 -0.2084
 1343TIP3    H2 4036   0.759   5.364   1.427 -0.0837 -1.7328 -0.8924
 1344TIP3   OH2 4037   5.070   3.353   2.586  0.3278 -0.2113  0.1604
 1344TIP3    H1 4038   5.038   3.443   2.590 -2.1213 -1.0203  0.0690
 1344TIP3    H2 4039   5.162   3.362   2.559 -0.4092  2.1399 -1.9267
 1345TIP3   OH2 4040   2.178   3.325   2.893 -0.0810  1.0856 -0.4985
 1345TIP3    H1 4041   2.224   3.394   2.940 -0.4512  0.6985  0.4785
 1345TIP3    H2 4042   2.097   3.313   2.943  0.2279 -0.4276 -0.3137
 1346TIP3   OH2 4043   3.842   4.113   2.334  0.4436 -0.0647  0.3590
 1346TIP3    H1 4044   3.777   4.141   2.269  3.0026  0.7866 -2.0162
 1346TIP3    H2 4045   3.838   4.018   2.332 -0.1126 -0.0364 -0.3988
 1347TIP3   OH2 4046   1.379   3.934   3.967  0.1414 -0.5418 -0.3127
 1347TIP3    H1 4047   1.316   3.937   4.039 -1.8370 -1.4740 -1.8948
 1347TIP3    H2 4048   1.444   4.000   3.988 -1.9211  1.2025  0.9430
 1348TIP3   OH2 4049   3.222   0.908   2.705 -0.2743  0.0634 -0.2762
 1348TIP3    H1 4050   3.232   0.828   2.757 -0.4261 -0.0629 -0.4395
 1348TIP3    H2 4051   3.295   0.963   2.732  0.1876 -0.3772 -0.6003
 1349TIP3   OH2 4052   2.158   5.462   2.963  0.0567 -0.5497  0.1013
 1349TIP3    H1 4053   2.151   5.430   3.053 -0.2291 -1.2197 -0.1543
 1349TIP3    H2 4054   2.119   5.393   2.909  0.5745 -0.3338 -0.5732
 1350TIP3   OH2 4055   2.821   5.356   4.670 -0.1486  0.3080  0.2427
 1350TIP3    H1 4056   2.791   5.346   4.761 -0.0551 -0.8598  0.1697
 1350TIP3    H2 4057   2.763   5.298   4.620 -0.6721  1.4876 -0.5625
 1351TIP3   OH2 4058   0.888   1.223   3.531 -0.3792 -0.3760 -0.3145
 1351TIP3    H1 4059   0.838   1.293   3.488 -1.2522  1.4658  3.3111
 1351TIP3    H2 4060   0.822   1.170   3.576  0.5919 -1.2099  0.1748
 1352TIP3   OH2 4061   4.501   1.411   1.766 -0.6864 -0.8075 -0.5926
 1352TIP3    H1 4062   4.450   1.475   1.814  0.2859 -0.7094  0.3542
 1352TIP3    H2 4063   4.483   1.328   1.809  0.1554 -0.7274 -0.0705
 1353TIP3   OH2 4064   1.987   4.728   2.550 -0.2939  0.2019  0.0375
 1353TIP3    H1 4065   1.927   4.800   2.564 -0.0423  0.0350  2.3822
 1353TIP3    H2 4066   2.052   4.737   2.620  1.2895 -0.7586 -1.2311
 1354TIP3   OH2 4067   1.769   4.559   1.455 -0.0966  0.0724 -0.3175
 1354TIP3    H1 4068   1.706   4.624   1.486 -1.6438 -0.8262 -1.4165
 1354TIP3    H2 4069   1.764   4.565   1.360 -0.0448 -1.4350 -0.4309
 1355TIP3   OH2 4070   2.597   3.215   4.632 -0.0539 -0.8880  0.2505
 1355TIP3    H1 4071   2.647   3.294   4.612 -0.1894 -0.8033  0.2528
 1355TIP3    H2 4072   2.542   3.239   4.706 -0.8277 -0.6898 -0.3808
 1356TIP3   OH2 4073   4.173   3.801   2.849  0.3722 -0.3536  0.3450
 1356TIP3    H1 4074   4.085   3.794   2.887  0.1686 -0.7172 -0.1884
 1356TIP3    H2 4075   4.222   3.729   2.890  0.1176 -0.8245 -0.1596
 1357TIP3   OH2 4076   2.076   2.234   3.030 -0.5370  0.5937  0.3655
 1357TIP3    H1 4077   2.052   2.142   3.019 -3.1795  1.1414  0.8959
 1357TIP3    H2 4078   1.995   2.282   3.012  0.4697  2.7574  1.2668
 1358TIP3   OH2 4079   5.530   5.485   2.795 -0.3551  0.2244 -0.1358
 1358TIP3    H1 4080   5.520   5.430   2.717  0.5869 -1.7621  1.0463
 1358TIP3    H2 4081   5.445   5.480   2.838 -1.5835  3.0220 -1.9467
 1359TIP3   OH2 4082   4.830   2.750   0.402  0.3707  0.6018 -0.0951
 1359TIP3    H1 4083   4.737   2.771   0.397  0.1981 -0.1248 -0.0842
 1359TIP3    H2 4084   4.860   2.749   0.311  0.4524  1.1890 -0.0764
 1360TIP3   OH2 4085   4.445   4.947   0.662  0.4451 -0.1079 -0.2418
 1360TIP3    H1 4086   4.417   4.937   0.753 -0.1239  0.6471 -0.3294
 1360TIP3    H2 4087   4.417   4.866   0.619 -0.1604 -0.0471  0.0329
 1361TIP3   OH2 4088   5.334   3.016   0.142  0.0194 -0.2354  0.5538
 1361TIP3    H1 4089   5.336   3.000   0.236 -0.7081 -1.2357  0.4154
 1361TIP3    H2 4090   5.355   3.109   0.133 -2.0100  0.4251  1.8805
 1362TIP3   OH2 4091   3.746   1.650   4.159  0.8001 -0.6096  0.3149
 1362TIP3    H1 4092   3.813   1.625   4.094  0.4363  1.1207 -0.7842
 1362TIP3    H2 4093   3.748   1.745   4.159 -0.8324 -0.5564  1.1837
 1363TIP3   OH2 4094   1.739   0.444   0.428 -0.0964 -0.2232  0.0681
 1363TIP3    H1 4095   1.834   0.449   0.440 -0.1241 -1.3435  0.9324
 1363TIP3    H2 4096   1.703   0.488   0.504 -0.2813  0.3030 -0.3186
 1364TIP3   OH2 4097   2.773   4.983   3.360 -0.4983  0.6999 -0.2600
 1364TIP3    H1 4098   2.864   4.985   3.389 -0.4415 -0.5109 -0.2697
 1364TIP3    H2 4099   2.723   5.012   3.437 -0.2667 -1.3411  0.7327
 1365TIP3   OH2 4100   1.512   2.606   1.465 -0.3006  0.2478  0.2917
 1365TIP3    H1 4101   1.501   2.557   1.383 -0.6382  0.0264  0.4666
 1365TIP3    H2 4102   1.440   2.576   1.520 -0.6985  1.1808  0.2876
 1366TIP3   OH2 4103   1.561   2.249   0.647  0.3296 -0.8233 -0.5179
 1366TIP3    H1 4104   1.502   2.258   0.572  0.8242 -3.1771 -1.2878
 1366TIP3    H2 4105   1.518   2.184   0.703  1.5405 -1.6187 -0.4725
 1367TIP3   OH2 4106   4.827   3.222   4.048 -0.3175  0.5564 -0.5257
 1367TIP3    H1 4107   4.814   3.203   4.141  0.1895  2.3935 -0.0329
 1367TIP3    H2 4108   4.806   3.140   4.004 -0.4629 -0.3978  1.2112
 1368TIP3   OH2 4109   1.144   4.346   0.247 -0.1311  0.0140  0.2501
 1368TIP3    H1 4110   1.119   4.424   0.297 -1.8118 -0.7701  0.7043
 1368TIP3    H2 4111   1.158   4.278   0.313 -1.5225 -0.8063 -0.2459
 1369TIP3   OH2 4112   2.419   4.082   2.336  0.0125 -0.0034 -0.4197
 1369TIP3    H1 4113   2.384   4.171   2.332  1.7892  0.8994  1.8322
 1369TIP3    H2 4114   2.479   4.076   2.261  1.2613  1.4097  0.3974
 1370TIP3   OH2 4115   0.263   1.380   0.519 -0.7027 -0.0527  0.1743
 1370TIP3    H1 4116   0.330   1.399   0.584 -1.1162 -3.0107  1.5979
 1370TIP3    H2 4117   0.295   1.421   0.439  2.1561 -0.2458  1.1295
 1371TIP3   OH2 4118   4.439   3.737   3.610 -0.5066 -0.3921 -0.3989
 1371TIP3    H1 4119   4.438   3.722   3.515  1.0433  1.2388 -0.7220
 1371TIP3    H2 4120   4.528   3.716   3.637 -0.2817  1.2370  0.2720
 1372TIP3   OH2 4121   4.175   3.727   0.504 -0.4305 -0.6879  0.4360
 1372TIP3    H1 4122   4.117   3.652   0.491 -1.3627  0.0949 -0.0033
 1372TIP3    H2 4123   4.257   3.688   0.535 -0.4214 -2.0070 -1.1353
 1373TIP3   OH2 4124   2.653   3.397   0.816  0.4581 -0.0267  0.9527
 1373TIP3    H1 4125   2.559   3.391   0.798  0.2361  0.4790  1.8358
 1373TIP3    H2 4126   2.658   3.413   0.911  1.4331 -0.0284  0.9128
 1374TIP3   OH2 4127   5.965   3.592   4.825  0.5075  0.1023  0.1130
 1374TIP3    H1 4128   5.976   3.673   4.875  0.6555 -0.9342  1.8383
 1374TIP3    H2 4129   6.053   3.555   4.819  0.4974  0.2412 -0.9849
 1375TIP3   OH2 4130   5.630   5.127   0.854  0.5471 -0.1744 -0.1449
 1375TIP3    H1 4131   5.561   5.159   0.913 -0.7217  0.2473 -1.7960
 1375TIP3    H2 4132   5.699   5.193   0.860  0.7972 -0.5312  1.4250
 1376TIP3   OH2 4133   4.777   1.125   3.426 -0.2120 -0.3899  0.4279
 1376TIP3    H1 4134   4.770   1.105   3.520 -0.2513 -1.6112  0.1732
 1376TIP3    H2 4135   4.870   1.136   3.411 -0.1115 -1.2302  0.4111
 1377TIP3   OH2 4136   0.589   2.260   4.552  0.1046 -0.1512  0.2963
 1377TIP3    H1 4137   0.529   2.186   4.555  0.2405 -0.2370  1.0033
 1377TIP3    H2 4138   0.618   2.263   4.461  0.0879 -0.9513  0.2567
 1378TIP3   OH2 4139   3.767   4.160   3.460  0.3009 -0.0922  0.6827
 1378TIP3    H1 4140   3.753   4.128   3.549  0.0762 -0.5519  0.4849
 1378TIP3    H2 4141   3.679   4.181   3.427 -0.0518 -3.1106 -0.6074
 1379TIP3   OH2 4142   2.107   4.637   3.230 -0.1416  0.3146 -0.2536
 1379TIP3    H1 4143   2.118   4.685   3.148  0.6696  0.0960 -0.2785
 1379TIP3    H2 4144   2.190   4.648   3.276 -0.0653 -0.7695 -0.0980
 1380TIP3   OH2 4145   0.469   2.291   1.426 -0.0900 -0.5196  0.2658
 1380TIP3    H1 4146   0.561   2.306   1.405  0.0178 -0.7522  0.5545
 1380TIP3    H2 4147   0.425   2.285   1.341  0.2008 -0.6393  0.1238
 1381TIP3   OH2 4148   4.773   4.676   2.041 -0.4134  0.6279  0.0882
 1381TIP3    H1 4149   4.835   4.615   2.000  1.2792  1.5094  1.1969
 1381TIP3    H2 4150   4.717   4.620   2.095  0.8607 -0.0434  0.7832
 1382TIP3   OH2 4151   1.323   3.399   2.731 -0.5793  0.5607  0.1427
 1382TIP3    H1 4152   1.269   3.381   2.808 -0.0488  2.8507  1.1521
 1382TIP3    H2 4153   1.287   3.480   2.695 -0.3091 -0.0418 -1.5624
 1383TIP3   OH2 4154   1.412   4.790   2.801  0.2950  0.2209 -0.1267
 1383TIP3    H1 4155   1.404   4.703   2.840  0.1738 -0.1849 -1.0266
 1383TIP3    H2 4156   1.461   4.775   2.720 -0.6457  0.8204 -0.8319
 1384TIP3   OH2 4157   4.586   5.106   3.352  0.1055 -0.0060  0.2602
 1384TIP3    H1 4158   4.631   5.187   3.329 -0.4613  0.0519 -0.6642
 1384TIP3    H2 4159   4.493   5.127   3.349 -0.0642 -0.7844 -0.4074
 1385TIP3   OH2 4160   1.606   4.099   2.278  0.1327 -0.2619  0.3700
 1385TIP3    H1 4161   1.676   4.048   2.320 -0.4578 -0.7796  0.7386
 1385TIP3    H2 4162   1.622   4.189   2.307  0.4458 -0.4277  0.7206
 1386TIP3   OH2 4163   0.150   3.859   0.414  0.8029 -0.0097  0.7942
 1386TIP3    H1 4164   0.157   3.952   0.394 -0.4341 -0.5677 -3.3437
 1386TIP3    H2 4165   0.058   3.847   0.440  0.7960 -0.1096  0.7266
 1387TIP3   OH2 4166   4.946   3.109   0.125  0.0639 -0.2041  0.4304
 1387TIP3    H1 4167   5.004   3.086   0.052  0.4882  0.0888  0.6728
 1387TIP3    H2 4168   5.001   3.161   0.184 -1.1516  2.6104 -0.7253
 1388TIP3   OH2 4169   2.764   4.584   4.596 -0.0740 -0.4848 -0.1976
 1388TIP3    H1 4170   2.688   4.568   4.653  0.2145 -0.2875  0.2452
 1388TIP3    H2 4171   2.792   4.673   4.617 -1.8615  0.8495 -2.8845
 1389TIP3   OH2 4172   4.699   3.762   2.578  0.1748 -0.1619  0.0165
 1389TIP3    H1 4173   4.674   3.798   2.663 -0.2889  0.7029 -0.4699
 1389TIP3    H2 4174   4.622   3.712   2.550 -0.1224  0.5305 -0.4170
 1390TIP3   OH2 4175   5.270   0.513   1.754 -0.3640  0.3378  0.2369
 1390TIP3    H1 4176   5.297   0.457   1.680 -3.2904  0.6002 -1.1852
 1390TIP3    H2 4177   5.278   0.602   1.720 -0.0937  0.5551  0.8686
 1391TIP3   OH2 4178   4.827   1.900   4.174  0.4306  0.1654  0.7371
 1391TIP3    H1 4179   4.868   1.980   4.141 -1.8344  0.7475 -0.8515
 1391TIP3    H2 4180   4.884   1.872   4.246  3.6089  0.8556 -1.3120
 1392TIP3   OH2 4181   0.317   3.874   4.751 -0.0235  0.2189 -0.0511
 1392TIP3    H1 4182   0.279   3.961   4.741 -1.1589  0.0899  2.4608
 1392TIP3    H2 4183   0.341   3.868   4.843  0.4179 -1.9857 -0.2443
 1393TIP3   OH2 4184   5.786   2.105   4.335 -0.2188 -0.0671  0.1187
 1393TIP3    H1 4185   5.783   2.161   4.412 -0.7787 -0.0887  0.1186
 1393TIP3    H2 4186   5.728   2.148   4.272  0.4968  0.1340 -0.4166
 1394TIP3   OH2 4187   2.824   1.582   0.828  0.4956  0.2649  0.6317
 1394TIP3    H1 4188   2.830   1.515   0.895 -1.0317 -0.1844  0.3476
 1394TIP3    H2 4189   2.821   1.534   0.745  1.1069  0.7632  0.3078
 1395TIP3   OH2 4190   0.508   3.223   0.234  0.4572 -0.3723  0.5004
 1395TIP3    H1 4191   0.569   3.295   0.220  0.7642 -0.7693 -0.3055
 1395TIP3    H2 4192   0.534   3.157   0.169  2.6843 -2.8836  3.6532
 1396TIP3   OH2 4193   3.026   0.069   4.365  0.2383  0.0824 -0.4020
 1396TIP3    H1 4194   3.060   0.138   4.422  1.4507 -0.2566 -0.7031
 1396TIP3    H2 4195   2.978   0.116   4.296  1.3518  0.6487 -0.8090
 1397TIP3   OH2 4196   2.605   2.600   3.318 -0.0174 -0.4865  0.7247
 1397TIP3    H1 4197   2.582   2.639   3.403 -2.4983  2.0849 -0.9513
 1397TIP3    H2 4198   2.664   2.663   3.278  0.8957 -1.5368  0.3673
 1398TIP3   OH2 4199   0.990   1.560   2.827 -0.7370 -0.3453  0.4643
 1398TIP3    H1 4200   0.911   1.558   2.880 -0.5324  1.9120  0.9411
 1398TIP3    H2 4201   0.979   1.635   2.769  0.1206 -1.3094 -1.0312
 1399TIP3   OH2 4202   4.148   3.611   1.470  0.1098 -0.6800  0.6720
 1399TIP3    H1 4203   4.140   3.623   1.565 -1.6464  0.4800  0.4265
 1399TIP3    H2 4204   4.088   3.676   1.433  0.9989 -0.9007 -1.2565
 1400TIP3   OH2 4205   1.645   0.981   0.801 -0.1426  0.7389 -1.2883
 1400TIP3    H1 4206   1.681   0.915   0.742  1.5705  0.1226  0.3543
 1400TIP3    H2 4207   1.709   1.052   0.800 -1.4303  1.9399 -2.1959
 1401TIP3   OH2 4208   0.266   0.082   4.057 -0.2768 -0.2109  0.3003
 1401TIP3    H1 4209   0.253   0.031   4.137 -2.0842 -2.2962 -1.1915
 1401TIP3    H2 4210   0.337   0.036   4.011  0.1081  0.4179  0.2530
 1402TIP3   OH2 4211   3.721   1.822   2.883  0.5099 -0.3143 -0.0429
 1402TIP3    H1 4212   3.756   1.854   2.966 -0.6746  1.1393 -0.0529
 1402TIP3    H2 4213   3.636   1.785   2.907  1.7756 -3.5104 -0.0568
 1403TIP3   OH2 4214   3.876   5.401   1.655 -0.2638  0.1759  0.2732
 1403TIP3    H1 4215   3.940   5.471   1.651 -0.7501  0.5885 -0.6317
 1403TIP3    H2 4216   3.842   5.393   1.566 -2.5677  1.0353  0.9891
 1404TIP3   OH2 4217   6.275   4.220   2.251  0.4986 -0.2891 -0.4515
 1404TIP3    H1 4218   6.296   4.313   2.256  0.9228 -0.3299 -1.2152
 1404TIP3    H2 4219   6.199   4.215   2.192 -1.2696 -0.2083  1.7091
 1405TIP3   OH2 4220   0.843   4.961   3.070 -0.7683  0.5788 -0.5596
 1405TIP3    H1 4221   0.934   4.969   3.043 -0.0228 -1.4268  1.0955
 1405TIP3    H2 4222   0.841   5.000   3.158 -0.8570 -1.6253  0.4802
 1406TIP3   OH2 4223   4.146   1.691   0.833  0.5574  0.3265  0.6007
 1406TIP3    H1 4224   4.230   1.713   0.874  1.3568  2.3527 -1.8658
 1406TIP3    H2 4225   4.170   1.640   0.756 -0.3050  1.6979 -0.6435
 1407TIP3   OH2 4226   2.566   5.620   2.888 -0.7269  0.2119  0.8709
 1407TIP3    H1 4227   2.575   5.547   2.826 -0.2090  1.3701 -0.4729
 1407TIP3    H2 4228   2.585   5.581   2.973 -2.3277 -1.6387  0.4679
 1408TIP3   OH2 4229   3.665   1.212   3.308  0.1777  0.5720 -0.0052
 1408TIP3    H1 4230   3.688   1.183   3.396  2.7983  2.0474 -0.1160
 1408TIP3    H2 4231   3.695   1.142   3.251 -0.8638 -0.0501  0.1665
 1409TIP3   OH2 4232   5.539   0.534   3.525 -0.0020  0.5266  0.5217
 1409TIP3    H1 4233   5.576   0.468   3.467  0.0045  0.4209  0.6455
 1409TIP3    H2 4234   5.481   0.485   3.583 -0.5080  0.7190  0.1889
 1410TIP3   OH2 4235   4.121   5.817   0.891  0.1748 -0.4582  0.3459
 1410TIP3    H1 4236   4.138   5.723   0.890 -0.9101 -0.7175  2.1066
 1410TIP3    H2 4237   4.029   5.825   0.867  0.3828  0.2113 -0.2641
 1411TIP3   OH2 4238   5.505   3.135   4.184  0.0998  0.1960 -0.0069
 1411TIP3    H1 4239   5.529   3.227   4.193 -0.0181  0.0280  2.5903
 1411TIP3    H2 4240   5.464   3.112   4.267 -0.8949 -1.9284 -1.0008
 1412TIP3   OH2 4241   4.336   3.338   3.041  0.3879  0.4467  0.2463
 1412TIP3    H1 4242   4.314   3.257   3.086 -0.1503  1.1323  1.2814
 1412TIP3    H2 4243   4.382   3.390   3.107 -0.8914  1.6881  0.2180
 1413TIP3   OH2 4244   1.908   4.705   4.865 -0.0530 -0.8536  0.4047
 1413TIP3    H1 4245   1.964   4.726   4.940 -0.4098 -2.0192  1.0173
 1413TIP3    H2 4246   1.968   4.663   4.803  0.6935  1.8744 -0.8824
 1414TIP3   OH2 4247   2.375   1.991   0.443  0.2961  0.0679 -0.2543
 1414TIP3    H1 4248   2.457   1.981   0.394  0.5466 -0.8714  0.3244
 1414TIP3    H2 4249   2.312   1.935   0.398 -0.4182  1.8087 -1.4857
 1415TIP3   OH2 4250   2.777   3.868   0.104  0.1327 -0.5010 -0.2792
 1415TIP3    H1 4251   2.694   3.888   0.060  0.4685  1.1982 -0.2399
 1415TIP3    H2 4252   2.834   3.836   0.036  0.7105  2.2734 -1.2509
 1416TIP3   OH2 4253   5.277   5.011   0.067  0.3137 -0.1792  0.5845
 1416TIP3    H1 4254   5.193   5.020   0.111 -0.0445  1.6478 -0.3578
 1416TIP3    H2 4255   5.332   5.078   0.107  1.3888 -1.4054  1.2459
 1417TIP3   OH2 4256   1.307   3.562   0.879  0.0183  0.2386 -0.1301
 1417TIP3    H1 4257   1.318   3.498   0.809 -0.7113  0.7674 -0.7444
 1417TIP3    H2 4258   1.395   3.576   0.913  0.1880 -1.0757  0.0089
 1418TIP3   OH2 4259   1.036   0.998   2.973 -0.0623  0.7708  0.2745
 1418TIP3    H1 4260   1.091   1.034   3.043  1.5911 -0.6452 -0.2293
 1418TIP3    H2 4261   1.041   0.903   2.985  0.1469  0.5033 -1.6666
 1419TIP3   OH2 4262   1.816   0.859   4.687 -0.1006 -0.2674 -0.2134
 1419TIP3    H1 4263   1.787   0.888   4.773 -0.0318  1.3843 -0.7184
 1419TIP3    H2 4264   1.908   0.885   4.682  0.0424 -0.8167 -0.5981
 1420TIP3   OH2 4265   2.258   4.380   1.491 -0.2699  0.2041  0.9151
 1420TIP3    H1 4266   2.233   4.332   1.412 -2.2066  0.7596  1.1273
 1420TIP3    H2 4267   2.207   4.340   1.561  1.2556 -0.1353  1.8691
 1421TIP3   OH2 4268   3.980   5.359   0.180 -0.0139 -0.1491  0.1596
 1421TIP3    H1 4269   4.060   5.353   0.233  0.4977 -0.8868 -0.6675
 1421TIP3    H2 4270   3.968   5.453   0.166 -0.2349  0.0813  1.6635
 1422TIP3   OH2 4271   2.334   0.789   3.397 -0.2989  0.2910  0.6000
 1422TIP3    H1 4272   2.374   0.764   3.480 -1.4914 -0.3343  1.0096
 1422TIP3    H2 4273   2.354   0.717   3.338  0.0400  0.4560  0.5119
 1423TIP3   OH2 4274   3.360   1.109   2.482  0.7335 -0.0141  0.7338
 1423TIP3    H1 4275   3.338   1.114   2.389 -0.9110 -1.7455  0.9756
 1423TIP3    H2 4276   3.317   1.186   2.520  2.3727  1.3585 -0.0368
 1424TIP3   OH2 4277   1.282   4.506   0.710  0.1784 -0.3594 -0.4915
 1424TIP3    H1 4278   1.202   4.477   0.754 -1.3223  1.0547 -2.0848
 1424TIP3    H2 4279   1.323   4.566   0.771 -0.9805  0.3039 -0.3378
 1425TIP3   OH2 4280   0.728   1.807   1.057 -0.3953  0.0830 -0.0409
 1425TIP3    H1 4281   0.801   1.809   0.996 -1.6908 -0.0989 -1.6883
 1425TIP3    H2 4282   0.695   1.717   1.051 -1.9747  0.6759 -0.9327
 1426TIP3   OH2 4283   0.078   3.946   4.349 -0.1753 -0.1025  0.2015
 1426TIP3    H1 4284   0.132   3.980   4.420 -0.3591  0.0950  0.2453
 1426TIP3    H2 4285   0.005   3.902   4.392  1.3794 -2.8619  0.2453
 1427TIP3   OH2 4286   4.466   4.968   1.675  0.5600  0.2786  0.1507
 1427TIP3    H1 4287   4.491   4.919   1.597  0.7114 -0.2654  0.5364
 1427TIP3    H2 4288   4.478   4.906   1.747 -2.0862 -0.1109  0.3457
 1428TIP3   OH2 4289   0.581   1.033   4.578 -0.8466  0.1666 -0.2572
 1428TIP3    H1 4290   0.533   1.099   4.627 -0.4835  1.4934 -1.6347
 1428TIP3    H2 4291   0.632   1.082   4.513 -0.0754 -1.4124 -0.9138
 1429TIP3   OH2 4292   1.321   2.201   1.503 -0.4442 -0.0802 -0.3089
 1429TIP3    H1 4293   1.251   2.225   1.563  0.6361  1.1221  0.5142
 1429TIP3    H2 4294   1.392   2.169   1.559 -0.6666 -2.3273 -1.1897
 1430TIP3   OH2 4295   5.279   4.043   4.507 -0.2579 -0.5114  0.4858
 1430TIP3    H1 4296   5.316   4.124   4.470  1.0432 -0.7694  1.1738
 1430TIP3    H2 4297   5.202   4.073   4.556 -1.2736 -0.0170 -1.3141
 1431TIP3   OH2 4298   5.225   1.794   4.989 -0.0623 -0.4203 -0.0079
 1431TIP3    H1 4299   5.213   1.825   5.078 -0.1615 -0.8357  0.1269
 1431TIP3    H2 4300   5.180   1.859   4.935 -2.1766 -1.4436  0.4288
 1432TIP3   OH2 4301   3.924   3.676   3.100  0.2113  0.2420  0.2587
 1432TIP3    H1 4302   3.876   3.595   3.083 -2.3964  1.0449  2.8426
 1432TIP3    H2 4303   4.001   3.649   3.149  1.4222 -0.8987 -2.0903
 1433TIP3   OH2 4304   5.814   1.104   1.190 -0.2867  0.1654 -0.3644
 1433TIP3    H1 4305   5.857   1.033   1.142 -0.6301 -0.2073 -0.1259
 1433TIP3    H2 4306   5.727   1.071   1.210 -0.0084  0.1461  0.8917
 1434TIP3   OH2 4307   3.315   2.309   0.400 -0.2707 -0.2204 -0.3815
 1434TIP3    H1 4308   3.373   2.358   0.459  0.2856 -1.1615 -0.1144
 1434TIP3    H2 4309   3.368   2.234   0.373 -1.0613 -0.6128 -0.8582
 1435TIP3   OH2 4310   1.163   4.544   0.449 -0.3771 -0.3385 -0.6370
 1435TIP3    H1 4311   1.220   4.517   0.521  0.6432  0.6324 -1.0423
 1435TIP3    H2 4312   1.090   4.590   0.493 -0.0661 -0.2613 -0.1906
 1436TIP3   OH2 4313   0.352   2.914   2.596 -0.2111 -0.0061 -0.0161
 1436TIP3    H1 4314   0.405   2.853   2.647 -0.8866 -1.0589 -0.5413
 1436TIP3    H2 4315   0.375   2.897   2.505  0.6325  1.5296 -0.1257
 1437TIP3   OH2 4316   4.486   1.344   5.015 -0.0940 -0.8532 -0.1145
 1437TIP3    H1 4317   4.478   1.318   5.107 -0.8610 -0.9264 -0.1990
 1437TIP3    H2 4318   4.420   1.293   4.969  0.3981 -0.9359 -0.7370
 1438TIP3   OH2 4319   3.093   4.996   1.789 -0.2727  0.3180 -0.2829
 1438TIP3    H1 4320   3.168   5.032   1.742  1.2172 -0.7204  1.1704
 1438TIP3    H2 4321   3.060   4.926   1.733  1.2493 -0.6717  0.0081
 1439TIP3   OH2 4322   1.744   3.833   0.681  0.0463 -0.8123  0.2476
 1439TIP3    H1 4323   1.800   3.889   0.735 -0.8205 -1.4448  1.8916
 1439TIP3    H2 4324   1.748   3.747   0.724 -1.7174 -1.0018  0.1103
 1440TIP3   OH2 4325   2.807   0.964   2.946 -0.0962 -0.0358  0.5214
 1440TIP3    H1 4326   2.853   1.010   2.875  0.1009 -1.1975 -0.1275
 1440TIP3    H2 4327   2.875   0.913   2.990 -0.3072  0.3043  1.2457
 1441TIP3   OH2 4328   0.002   3.849   2.403 -0.4418 -0.0849 -0.1520
 1441TIP3    H1 4329   0.028   3.938   2.429  0.6680 -0.5616  0.4401
 1441TIP3    H2 4330   0.084   3.799   2.404 -1.2215 -1.4141  0.7516
 1442TIP3   OH2 4331   4.033   1.118   2.788  0.0518 -0.4560 -0.3353
 1442TIP3    H1 4332   3.961   1.070   2.748 -0.2106 -1.1871  0.9475
 1442TIP3    H2 4333   4.025   1.099   2.882  0.1465  1.8063  0.2020
 1443TIP3   OH2 4334   4.339   0.830   4.242  0.2029  0.3260 -0.4443
 1443TIP3    H1 4335   4.393   0.895   4.196  0.3052  0.6233  0.0861
 1443TIP3    H2 4336   4.379   0.821   4.328  0.4899 -0.8406 -0.6842
 1444TIP3   OH2 4337   3.740   5.465   3.346  0.1947  0.3113  0.1012
 1444TIP3    H1 4338   3.776   5.394   3.294 -2.6475  0.0780 -1.7876
 1444TIP3    H2 4339   3.736   5.431   3.435  0.5893 -1.2013 -0.4319
 1445TIP3   OH2 4340   3.436   0.842   2.455 -0.0206  0.3019  0.4516
 1445TIP3    H1 4341   3.431   0.937   2.465 -1.4162  0.3032 -0.0482
 1445TIP3    H2 4342   3.363   0.821   2.397  0.7178 -0.9976 -0.0373
 1446TIP3   OH2 4343   3.751   4.132   1.639  0.2367  0.1157 -0.5488
 1446TIP3    H1 4344   3.706   4.193   1.581 -0.9423 -1.3058 -1.2054
 1446TIP3    H2 4345   3.687   4.112   1.707  1.5933  1.7505  1.3102
 1447TIP3   OH2 4346   5.408   0.077   5.037  0.6617  0.6265 -0.0975
 1447TIP3    H1 4347   5.503   0.078   5.031  0.6098  0.1202 -1.1602
 1447TIP3    H2 4348   5.378   0.084   4.947 -0.3591  3.0102  0.3548
 1448TIP3   OH2 4349   3.893   4.240   4.896  0.3350  0.1297 -0.3941
 1448TIP3    H1 4350   3.986   4.261   4.890  0.8557 -2.0888 -1.0541
 1448TIP3    H2 4351   3.887   4.174   4.965 -1.1708  2.0440  1.4401
 1449TIP3   OH2 4352   3.994   5.855   3.657  0.4242 -0.0592 -0.2809
 1449TIP3    H1 4353   3.987   5.765   3.690 -0.5747  0.8121  2.0749
 1449TIP3    H2 4354   4.020   5.844   3.565 -0.2078 -2.7630 -0.2395
 1450TIP3   OH2 4355   2.773   3.301   2.000  0.1625 -0.0464 -0.2990
 1450TIP3    H1 4356   2.778   3.371   2.065 -0.5012 -0.1421 -0.1412
 1450TIP3    H2 4357   2.746   3.224   2.050  0.6144 -0.3552 -0.5207
 1451TIP3   OH2 4358   2.649   1.721   3.488 -0.1559 -0.2344  0.4204
 1451TIP3    H1 4359   2.623   1.746   3.577  1.0400  0.9437  0.4760
 1451TIP3    H2 4360   2.568   1.722   3.438 -0.4961  1.7045  0.9315
 1452TIP3   OH2 4361   5.826   2.696   2.456 -0.0490  0.1947  0.5055
 1452TIP3    H1 4362   5.801   2.614   2.415  0.6623  0.1620  0.1108
 1452TIP3    H2 4363   5.892   2.671   2.521  0.1061  0.4363  0.4433
 1453TIP3   OH2 4364   3.201   5.472   0.925 -0.3263  0.4944  0.5100
 1453TIP3    H1 4365   3.149   5.453   0.846  0.6767  0.1934 -0.0963
 1453TIP3    H2 4366   3.290   5.485   0.893  0.3887 -1.0335  1.7174
 1454TIP3   OH2 4367   6.313   0.392   1.701  0.7387  0.0114  0.4424
 1454TIP3    H1 4368   6.367   0.470   1.685  0.8858  0.2307  1.8671
 1454TIP3    H2 4369   6.240   0.423   1.753  0.6395 -0.7497  0.7752
 1455TIP3   OH2 4370   0.816   0.039   1.775 -0.0682  0.2506  0.0355
 1455TIP3    H1 4371   0.802  -0.025   1.844  3.8210 -1.5765 -0.6277
 1455TIP3    H2 4372   0.786  -0.005   1.695 -2.6732  1.6008  0.1446
 1456TIP3   OH2 4373   0.305   5.167   3.426  0.3044  0.2828  0.0766
 1456TIP3    H1 4374   0.391   5.209   3.419  0.2144  0.6860  1.1611
 1456TIP3    H2 4375   0.315   5.102   3.496 -0.0686 -0.2071 -0.3205
 1457TIP3   OH2 4376   4.579   0.621   2.693  0.0093 -0.2442  0.6557
 1457TIP3    H1 4377   4.626   0.538   2.689  0.0138 -0.2042 -0.5594
 1457TIP3    H2 4378   4.644   0.687   2.669  0.2952  0.2628  2.6936
 1458TIP3   OH2 4379   2.775   1.671   3.992  0.0354  0.2505 -0.3638
 1458TIP3    H1 4380   2.851   1.694   3.937 -1.7737  1.7446 -2.4368
 1458TIP3    H2 4381   2.812   1.652   4.078  2.7597  0.7976 -1.3156
 1459TIP3   OH2 4382   3.304   5.988   1.586  0.3120 -0.9735  0.3131
 1459TIP3    H1 4383   3.211   5.969   1.597 -0.8958  3.0060 -1.2749
 1459TIP3    H2 4384   3.339   5.912   1.540 -1.7887 -3.1090  1.9877
 1460TIP3   OH2 4385   6.048   4.921   1.374  0.3637 -0.6088 -0.3443
 1460TIP3    H1 4386   6.012   4.834   1.389  0.3984 -0.4341  0.7825
 1460TIP3    H2 4387   5.978   4.968   1.329 -1.2347 -0.0230  2.5225
 1461TIP3   OH2 4388   6.188   2.699   3.569 -0.4063 -0.4440 -0.0556
 1461TIP3    H1 4389   6.201   2.791   3.544  0.0301 -0.9401 -1.7667
 1461TIP3    H2 4390   6.185   2.652   3.486 -2.0869 -1.8132  0.7253
 1462TIP3   OH2 4391   4.608   5.796   4.516  0.2205 -0.1329 -0.5913
 1462TIP3    H1 4392   4.627   5.815   4.424 -0.8804  1.7731 -0.4815
 1462TIP3    H2 4393   4.562   5.874   4.547  1.1722 -0.4372  1.7741
 1463TIP3   OH2 4394   4.341   0.398   1.677 -0.3996 -0.4154  0.3325
 1463TIP3    H1 4395   4.254   0.356   1.675 -0.4465 -0.2975 -0.5189
 1463TIP3    H2 4396   4.402   0.326   1.691 -0.7650 -0.2315  3.6777
 1464TIP3   OH2 4397   0.286   3.052   3.068 -0.1945  0.0938  0.1217
 1464TIP3    H1 4398   0.231   3.119   3.027 -0.3993  0.0340  0.2975
 1464TIP3    H2 4399   0.227   2.978   3.083 -0.0528  0.0080  0.2630
 1465TIP3   OH2 4400   6.112   3.904   1.662 -0.0309 -0.4085 -0.2301
 1465TIP3    H1 4401   6.135   3.909   1.755 -0.7412  0.2032 -0.0795
 1465TIP3    H2 4402   6.152   3.822   1.631 -1.0378 -1.3839  0.9595
 1466TIP3   OH2 4403   4.039   2.164   3.356 -0.6788  0.3589  0.2003
 1466TIP3    H1 4404   3.969   2.122   3.306 -1.1629  0.5245  0.7127
 1466TIP3    H2 4405   4.117   2.157   3.301 -0.2891 -2.7910  1.0079
 1467TIP3   OH2 4406   3.548   5.094   5.088 -0.5936  0.0191 -0.0095
 1467TIP3    H1 4407   3.536   5.184   5.119  1.1006  0.7936 -1.4704
 1467TIP3    H2 4408   3.541   5.041   5.167 -3.4862  1.1819  0.6699
 1468TIP3   OH2 4409   4.845   3.430   4.973 -0.2646  0.6258 -0.5812
 1468TIP3    H1 4410   4.932   3.396   4.998  0.3325  1.5728 -1.3169
 1468TIP3    H2 4411   4.789   3.407   5.047 -0.4079 -3.6833 -1.7164
 1469TIP3   OH2 4412   4.194   2.176   0.487 -0.3236  0.0656  0.1537
 1469TIP3    H1 4413   4.223   2.264   0.463 -0.1959  0.0577  0.2718
 1469TIP3    H2 4414   4.268   2.120   0.462 -0.1373  0.0725  0.6695
 1470TIP3   OH2 4415   3.366   3.124   2.860  0.2500  0.1516  0.0853
 1470TIP3    H1 4416   3.440   3.185   2.865  1.4620 -1.3178  1.1888
 1470TIP3    H2 4417   3.321   3.134   2.944 -0.5301  0.6834 -0.3866
 1471TIP3   OH2 4418   4.588   2.482   1.771 -0.3886 -0.0866 -0.3826
 1471TIP3    H1 4419   4.669   2.458   1.726  0.4843  2.2419 -0.1890
 1471TIP3    H2 4420   4.530   2.513   1.701 -1.3112 -2.0536 -0.5649
 1472TIP3   OH2 4421   0.933   2.891   0.976 -0.4384  0.0114  0.1987
 1472TIP3    H1 4422   1.023   2.910   1.001 -0.4967 -0.2506  0.6033
 1472TIP3    H2 4423   0.891   2.977   0.972 -0.2724  0.1019  0.4019
 1473TIP3   OH2 4424   2.788   0.450   1.169  0.3766 -0.4876  0.0070
 1473TIP3    H1 4425   2.767   0.361   1.198  0.2159 -0.2276  0.7095
 1473TIP3    H2 4426   2.769   0.449   1.075 -0.6978 -0.8847  0.2120
 1474TIP3   OH2 4427   3.145   3.567   1.984  0.1030 -0.6195 -0.1828
 1474TIP3    H1 4428   3.061   3.575   1.938  0.4653  0.2982 -0.7209
 1474TIP3    H2 4429   3.121   3.566   2.077 -0.4248  1.5045 -0.2401
 1475TIP3   OH2 4430   1.855   4.696   3.291 -0.3013 -0.0634  0.5366
 1475TIP3    H1 4431   1.940   4.657   3.271  1.3253  3.3808  0.1062
 1475TIP3    H2 4432   1.844   4.683   3.385  0.3370 -1.1402  0.4818
 1476TIP3   OH2 4433   1.510   2.995   2.377 -0.5536  0.1992  0.1341
 1476TIP3    H1 4434   1.574   3.045   2.427 -1.2397  0.3262  0.9073
 1476TIP3    H2 4435   1.533   3.010   2.286  0.0089  0.9039  0.3867
 1477TIP3   OH2 4436   5.446   5.966   2.034 -0.0160 -0.3872 -0.6490
 1477TIP3    H1 4437   5.508   6.038   2.040 -0.0808 -0.3818  0.0087
 1477TIP3    H2 4438   5.497   5.888   2.054 -0.1210 -0.4335 -0.5590
 1478TIP3   OH2 4439   0.217   0.414   0.752 -0.0552  0.1648  0.2463
 1478TIP3    H1 4440   0.231   0.509   0.741  1.4114  0.0120  0.5388
 1478TIP3    H2 4441   0.123   0.405   0.767 -0.0887  1.6780  1.1489
 1479TIP3   OH2 4442   2.157   5.493   3.624 -0.0035  0.1768  0.3806
 1479TIP3    H1 4443   2.225   5.427   3.635  0.7829  0.8526 -0.3516
 1479TIP3    H2 4444   2.201   5.567   3.583 -1.0100  0.9268  0.6065
 1480TIP3   OH2 4445   1.700   0.120   1.426  0.6163  0.1534  0.7040
 1480TIP3    H1 4446   1.613   0.157   1.444  0.8789 -0.0621  2.6282
 1480TIP3    H2 4447   1.749   0.192   1.387 -0.7202 -0.0358 -1.4841
 1481TIP3   OH2 4448   4.068   0.170   0.356  0.2451  0.2883  0.5411
 1481TIP3    H1 4449   4.002   0.123   0.305  0.0159 -0.8816  1.8209
 1481TIP3    H2 4450   4.027   0.183   0.442  1.2765  0.5037  1.0201
 1482TIP3   OH2 4451   1.762   3.525   1.429 -0.4910 -0.6260 -0.0407
 1482TIP3    H1 4452   1.724   3.613   1.420 -1.9890 -1.3773 -1.3930
 1482TIP3    H2 4453   1.853   3.541   1.453 -0.6876  1.2998 -0.4273
 1483TIP3   OH2 4454   1.559   1.313   4.088 -0.0755  0.3311 -0.2188
 1483TIP3    H1 4455   1.475   1.292   4.129  0.3113 -0.3305  0.2570
 1483TIP3    H2 4456   1.541   1.389   4.034 -1.7120 -1.5488 -2.5350
 1484TIP3   OH2 4457   0.003   2.580   1.190 -0.1565 -0.2713 -0.0713
 1484TIP3    H1 4458  -0.015   2.654   1.131  0.2911 -0.8534 -0.9555
 1484TIP3    H2 4459   0.066   2.616   1.253 -1.1654  0.5588  0.5045
 1485TIP3   OH2 4460   4.256   0.570   0.999  0.0084 -0.3857 -0.1914
 1485TIP3    H1 4461   4.328   0.508   0.982 -0.2046  0.0440 -3.1985
 1485TIP3    H2 4462   4.179   0.514   1.011  0.2401 -0.7820 -0.5085
 1486TIP3   OH2 4463   2.487   3.136   0.745 -0.2084  0.0772  0.4845
 1486TIP3    H1 4464   2.575   3.131   0.707 -0.3064 -0.5979  0.3261
 1486TIP3    H2 4465   2.452   3.219   0.713  0.7183  0.8098  1.3319
 1487TIP3   OH2 4466   2.670   0.482   2.814  0.1302  0.4194  0.5422
 1487TIP3    H1 4467   2.612   0.488   2.738  1.2354  2.8947 -0.2126
 1487TIP3    H2 4468   2.654   0.562   2.863  1.5559  0.2623  1.3101
 1488TIP3   OH2 4469   1.726   3.495   1.140  0.4738 -0.0661  0.1715
 1488TIP3    H1 4470   1.745   3.428   1.206  0.4814 -1.2958 -1.0314
 1488TIP3    H2 4471   1.680   3.448   1.071 -3.5157  2.0349  1.1489
 1489TIP3   OH2 4472   3.155   0.106   4.029  0.2409 -0.5456 -0.0788
 1489TIP3    H1 4473   3.228   0.074   4.082  0.1337 -0.2483  0.2539
 1489TIP3    H2 4474   3.136   0.034   3.968  1.1334 -0.4273 -0.5082
 1490TIP3   OH2 4475   4.044   2.397   4.574  0.1848 -0.2965  0.1181
 1490TIP3    H1 4476   3.975   2.342   4.537  0.0335 -0.7274  0.9954
 1490TIP3    H2 4477   4.071   2.350   4.654  1.0763  0.1669  0.1007
 1491TIP3   OH2 4478   4.926   3.794   1.628  0.6999 -0.3926 -0.4331
 1491TIP3    H1 4479   4.926   3.883   1.663  0.6382 -0.8460  0.7624
 1491TIP3    H2 4480   4.895   3.740   1.701 -1.1613 -1.1725 -1.7374
 1492TIP3   OH2 4481   2.687   0.401   2.224  0.2151  0.0997 -0.5010
 1492TIP3    H1 4482   2.705   0.421   2.316  1.8107 -0.1618 -0.7350
 1492TIP3    H2 4483   2.591   0.398   2.219 -0.0511 -3.6950  2.0333
 1493TIP3   OH2 4484   4.244   2.946   3.466 -0.2577  0.4871  0.3574
 1493TIP3    H1 4485   4.319   2.919   3.519 -1.6737 -0.6996  1.8780
 1493TIP3    H2 4486   4.242   2.882   3.395  0.1176  0.4753  0.3523
 1494TIP3   OH2 4487   2.771   4.288   1.287  0.5973  0.2238  0.2238
 1494TIP3    H1 4488   2.821   4.226   1.235 -0.1405  0.2256 -0.5202
 1494TIP3    H2 4489   2.740   4.238   1.362 -3.0829 -1.4716 -2.1275
 1495TIP3   OH2 4490   0.412   5.853   5.120  0.4660 -0.5985 -0.0829
 1495TIP3    H1 4491   0.342   5.829   5.059  1.3409  0.0146 -1.3652
 1495TIP3    H2 4492   0.421   5.948   5.110 -0.4074 -0.1917  2.1661
 1496TIP3   OH2 4493   4.039   5.062   4.281  0.6346 -0.0893  0.3291
 1496TIP3    H1 4494   4.013   5.126   4.347  1.7330 -0.3318  1.0371
 1496TIP3    H2 4495   4.111   5.014   4.323  0.7236 -0.8701 -0.7021
 1497TIP3   OH2 4496   2.593   1.789   4.994 -0.1246  0.2842 -0.1293
 1497TIP3    H1 4497   2.528   1.791   5.065 -0.4640 -1.4888 -0.3426
 1497TIP3    H2 4498   2.599   1.880   4.964 -2.1904  0.5697  0.1905
 1498TIP3   OH2 4499   1.848   0.167   4.874 -0.2561  0.1885  0.4729
 1498TIP3    H1 4500   1.900   0.245   4.896  1.1809 -0.4901 -0.3531
 1498TIP3    H2 4501   1.904   0.094   4.902 -1.0678 -0.5631  0.1486
 1499TIP3   OH2 4502   1.056   1.257   1.232  0.3396  0.1508 -0.5074
 1499TIP3    H1 4503   1.086   1.234   1.144  0.0421 -2.2599 -0.0506
 1499TIP3    H2 4504   1.074   1.179   1.285 -3.7914 -0.3488  0.5055
 1500TIP3   OH2 4505   1.172   0.952   1.800  0.1224  0.3453 -0.0484
 1500TIP3    H1 4506   1.249   0.992   1.759 -0.9362  1.3274 -1.1637
 1500TIP3    H2 4507   1.100   0.971   1.739 -0.8118 -1.5355  0.3834
 1501TIP3   OH2 4508   5.355   0.011   2.736 -0.3281 -0.0517  0.6235
 1501TIP3    H1 4509   5.348   0.106   2.725 -0.7739  0.2142  2.8188
 1501TIP3    H2 4510   5.433  -0.013   2.686  0.6022  1.6832  1.1660
 1502TIP3   OH2 4511   2.028   5.515   1.834  0.3662 -0.2977 -0.7711
 1502TIP3    H1 4512   2.067   5.590   1.879  0.4855 -2.2596  2.8217
 1502TIP3    H2 4513   1.934   5.525   1.849  0.2777 -0.2561 -1.3448
 1503TIP3   OH2 4514   5.577   0.345   1.966  0.7126  1.1772  0.6834
 1503TIP3    H1 4515   5.505   0.293   2.001  1.4982  0.9255  1.9998
 1503TIP3    H2 4516   5.543   0.434   1.962 -0.2510  0.7938 -0.4618
 1504TIP3   OH2 4517   0.587   1.929   3.818 -0.3108 -0.8717 -0.2354
 1504TIP3    H1 4518   0.541   2.004   3.855  1.7049 -0.2782  1.2725
 1504TIP3    H2 4519   0.655   1.968   3.763  0.3587 -1.5871  0.0612
 1505TIP3   OH2 4520   4.573   5.085   1.109  0.1388 -0.1747 -0.1396
 1505TIP3    H1 4521   4.597   5.063   1.020 -2.3540 -0.1392 -0.9178
 1505TIP3    H2 4522   4.503   5.150   1.099  0.6547  0.7618  1.8718
 1506TIP3   OH2 4523   0.262   4.271   0.122 -0.0882 -0.4540 -0.0453
 1506TIP3    H1 4524   0.251   4.327   0.199  0.5220  1.4014 -1.2242
 1506TIP3    H2 4525   0.313   4.197   0.153  2.2728  1.4312  0.8952
 1507TIP3   OH2 4526   4.587   1.546   1.434  0.2145 -0.2867  0.9806
 1507TIP3    H1 4527   4.636   1.503   1.504 -0.2637  0.6034  1.8839
 1507TIP3    H2 4528   4.554   1.627   1.473  1.0059  0.8682 -0.6440
 1508TIP3   OH2 4529   0.891   4.578   2.213  0.0768 -0.0054 -0.5017
 1508TIP3    H1 4530   0.944   4.550   2.288 -2.0027 -4.0656 -0.2877
 1508TIP3    H2 4531   0.801   4.580   2.246 -0.6175  0.8851 -2.2684
 1509TIP3   OH2 4532   1.378   3.489   4.221  0.1167  0.4690 -0.2416
 1509TIP3    H1 4533   1.370   3.581   4.245 -2.2327  0.3495 -0.3192
 1509TIP3    H2 4534   1.449   3.456   4.275 -0.2912  1.8825  1.2292
 1510TIP3   OH2 4535   5.893   1.061   4.343 -0.0505  0.0281 -0.1664
 1510TIP3    H1 4536   5.980   1.029   4.317 -1.0915 -1.6092 -1.8546
 1510TIP3    H2 4537   5.909   1.150   4.374  2.1211  0.0571 -1.1468
 1511TIP3   OH2 4538   1.152   4.449   1.279  0.4490  0.2158 -0.6282
 1511TIP3    H1 4539   1.234   4.404   1.261 -1.1951 -2.8778 -1.1218
 1511TIP3    H2 4540   1.141   4.509   1.206  1.4788 -0.5330 -1.4368
 1512TIP3   OH2 4541   3.915   0.447   1.696  0.0578  0.3990  0.1798
 1512TIP3    H1 4542   3.989   0.396   1.664 -0.0300  1.0727 -1.1799
 1512TIP3    H2 4543   3.887   0.402   1.776 -0.0950 -1.7265 -1.0175
 1513TIP3   OH2 4544   1.469   1.149   1.787 -0.2944  0.2006  0.2632
 1513TIP3    H1 4545   1.548   1.185   1.747 -0.4012 -0.4004 -0.5095
 1513TIP3    H2 4546   1.501   1.092   1.857  0.0199 -0.8768 -0.7261
 1514TIP3   OH2 4547   5.781   5.151   2.119 -0.0364 -0.2554  0.3017
 1514TIP3    H1 4548   5.706   5.094   2.100 -0.4493  0.4321 -0.1982
 1514TIP3    H2 4549   5.758   5.235   2.078  0.1542  0.5500  1.7772
 1515TIP3   OH2 4550   1.526   5.869   1.255  0.4329 -0.1440  0.0131
 1515TIP3    H1 4551   1.556   5.899   1.169  0.8019 -4.8286 -1.7856
 1515TIP3    H2 4552   1.606   5.840   1.298  0.0173  0.5059  1.2556
 1516TIP3   OH2 4553   5.398   4.681   4.618  0.1401  0.2984  0.5579
 1516TIP3    H1 4554   5.333   4.620   4.583  1.2784 -1.5139  1.4682
 1516TIP3    H2 4555   5.470   4.677   4.555  0.4738  0.2283  0.9438
 1517TIP3   OH2 4556   5.607   1.659   0.739 -0.6678 -0.1797 -0.0486
 1517TIP3    H1 4557   5.572   1.604   0.808 -3.0292 -0.1204 -1.1249
 1517TIP3    H2 4558   5.667   1.602   0.691 -0.8793 -0.9305  0.5691
 1518TIP3   OH2 4559   0.897   3.056   4.204  0.1971 -0.2945  0.4094
 1518TIP3    H1 4560   0.964   2.998   4.169 -1.3810 -2.6684  1.1341
 1518TIP3    H2 4561   0.873   3.018   4.289 -0.9341  1.4039  0.9122
 1519TIP3   OH2 4562   4.426   1.185   2.469 -0.3824  0.2056  0.1411
 1519TIP3    H1 4563   4.392   1.244   2.402 -0.7675 -0.5288 -0.3260
 1519TIP3    H2 4564   4.375   1.207   2.548  0.5122  1.5049  0.3858
 1520TIP3   OH2 4565   5.808   1.715   1.799 -0.2714 -0.4044 -0.2795
 1520TIP3    H1 4566   5.718   1.736   1.824  0.3445  0.8008  1.0609
 1520TIP3    H2 4567   5.831   1.784   1.736  0.3522  0.5394  0.9290
 1521TIP3   OH2 4568   4.521   0.141   2.162  1.1634  0.8111 -0.1115
 1521TIP3    H1 4569   4.540   0.202   2.234 -2.2937  0.8147  1.0029
 1521TIP3    H2 4570   4.449   0.183   2.115  0.4355 -1.2254 -0.8925
 1522TIP3   OH2 4571   1.429   1.341   1.212 -0.4238  0.1460  0.0941
 1522TIP3    H1 4572   1.516   1.321   1.179 -0.0457  0.8490  0.6467
 1522TIP3    H2 4573   1.373   1.343   1.134  0.4378  1.7519 -0.5136
 1523TIP3   OH2 4574   5.848   3.865   4.907  0.2934  0.2003  0.0140
 1523TIP3    H1 4575   5.913   3.879   4.838  0.0115 -0.1524 -0.3237
 1523TIP3    H2 4576   5.814   3.952   4.926 -0.1085  0.2227 -0.7618
 1524TIP3   OH2 4577   0.881   3.827   1.984 -0.2277 -0.4525 -0.4734
 1524TIP3    H1 4578   0.866   3.920   1.964 -4.5083 -0.4892  1.4272
 1524TIP3    H2 4579   0.864   3.782   1.902  0.9119  0.3347 -1.1756
 1525TIP3   OH2 4580   4.680   2.304   3.338  0.7019 -0.3598 -0.3943
 1525TIP3    H1 4581   4.763   2.334   3.301  0.9931 -1.1632 -0.4236
 1525TIP3    H2 4582   4.659   2.369   3.405  2.2003 -0.9725  0.7477
 1526TIP3   OH2 4583   2.728   5.012   3.631 -0.1797 -0.0038 -0.5775
 1526TIP3    H1 4584   2.795   5.079   3.641 -1.1271  0.8664  0.3401
 1526TIP3    H2 4585   2.724   4.969   3.717 -1.3340  0.5161 -0.3516
 1527TIP3   OH2 4586   4.242   4.333   4.261 -0.0286 -0.0950  0.2950
 1527TIP3    H1 4587   4.333   4.361   4.250  0.3702 -1.2815  0.3647
 1527TIP3    H2 4588   4.231   4.264   4.196 -0.2918 -1.2403  1.5055
 1528TIP3   OH2 4589   2.175   1.004   0.627 -0.2643  0.0172 -0.2009
 1528TIP3    H1 4590   2.229   1.055   0.567 -0.1503 -1.5267 -1.4609
 1528TIP3    H2 4591   2.236   0.975   0.695  0.1769 -0.3848 -0.7555
 1529TIP3   OH2 4592   0.627   1.710   1.443 -0.2005  0.1934 -0.0708
 1529TIP3    H1 4593   0.669   1.781   1.492 -0.6453  1.7394 -1.8108
 1529TIP3    H2 4594   0.534   1.729   1.448 -0.4108 -0.9041  0.3501
 1530TIP3   OH2 4595   0.455   1.661   1.009 -0.3543 -0.1918 -0.3818
 1530TIP3    H1 4596   0.520   1.630   1.072 -0.0376  0.1376 -0.5366
 1530TIP3    H2 4597   0.507   1.701   0.940 -0.7521  1.5128  0.2503
 1531TIP3   OH2 4598   3.591   2.051   2.160  0.0167  0.3726 -0.0299
 1531TIP3    H1 4599   3.577   2.145   2.153 -4.2405 -0.0840 -0.2215
 1531TIP3    H2 4600   3.592   2.034   2.255  0.3127  0.5336 -0.0027
 1532TIP3   OH2 4601   6.267   2.972   4.873  0.0079  0.4857 -0.1243
 1532TIP3    H1 4602   6.253   2.946   4.964  0.4280 -0.1217 -0.2279
 1532TIP3    H2 4603   6.236   3.063   4.869 -1.6365 -0.0275  0.2077
 1533TIP3   OH2 4604   3.708   0.170   1.014 -0.5084 -0.6017  0.6859
 1533TIP3    H1 4605   3.771   0.098   1.009  0.2947  0.1393 -0.3502
 1533TIP3    H2 4606   3.631   0.137   0.967 -0.5700 -1.1760  1.1690
 1534TIP3   OH2 4607   5.036   3.801   4.366  0.0710  0.7076 -0.1512
 1534TIP3    H1 4608   5.127   3.778   4.385 -0.0995 -1.0815 -1.3072
 1534TIP3    H2 4609   5.041   3.859   4.290  0.2562  0.6011 -0.2223
 1535TIP3   OH2 4610   2.155   4.483   2.657 -0.0118 -0.1425  0.2141
 1535TIP3    H1 4611   2.095   4.551   2.625 -0.3772 -0.8975 -0.7550
 1535TIP3    H2 4612   2.111   4.401   2.636 -0.9920 -0.7729  3.9481
 1536TIP3   OH2 4613   1.555   5.116   0.456  0.2696 -0.4610  0.2475
 1536TIP3    H1 4614   1.597   5.075   0.380 -0.4051  0.3755 -0.5980
 1536TIP3    H2 4615   1.533   5.204   0.426  1.1533  0.3348  1.8413
 1537TIP3   OH2 4616   1.075   3.617   1.231 -0.2178 -0.0897  0.0567
 1537TIP3    H1 4617   1.166   3.598   1.210  0.0503  0.7485  0.4155
 1537TIP3    H2 4618   1.055   3.696   1.181 -1.1996 -1.0479 -1.1366
 1538TIP3   OH2 4619   1.887   3.343   2.934  0.3285 -0.1793 -0.0463
 1538TIP3    H1 4620   1.834   3.291   2.994  2.7234  0.1528  2.6134
 1538TIP3    H2 4621   1.852   3.325   2.847 -1.4664 -3.0574  1.1505
 1539TIP3   OH2 4622   0.887   0.614   4.167 -0.4138  0.0617  0.1983
 1539TIP3    H1 4623   0.867   0.539   4.223 -3.4967 -0.3749 -1.2494
 1539TIP3    H2 4624   0.914   0.575   4.084  0.3677  0.6158  0.1894
 1540TIP3   OH2 4625   4.673   1.945   0.638 -0.3640 -0.3889  0.0423
 1540TIP3    H1 4626   4.717   1.999   0.704  0.9012 -0.9479 -0.3235
 1540TIP3    H2 4627   4.582   1.939   0.669 -0.2815  1.0378  0.6526
 1541TIP3   OH2 4628   3.930   4.398   0.838 -0.2112 -0.8889  0.2775
 1541TIP3    H1 4629   3.886   4.399   0.753  0.1984  0.8524  0.0300
 1541TIP3    H2 4630   3.859   4.391   0.902 -0.5623 -1.6484 -0.1838
 1542TIP3   OH2 4631   0.666   5.720   2.236 -0.2890  0.4452  0.1344
 1542TIP3    H1 4632   0.628   5.806   2.254  0.4508  0.7280  0.4300
 1542TIP3    H2 4633   0.592   5.665   2.212 -0.6432  1.4508 -1.1837
 1543TIP3   OH2 4634   3.253   0.879   0.733 -0.1502 -0.6010 -1.0288
 1543TIP3    H1 4635   3.180   0.940   0.718 -0.4999 -0.8887 -0.5440
 1543TIP3    H2 4636   3.215   0.811   0.788  0.1052 -1.5185 -1.9626
 1544TIP3   OH2 4637   1.477   4.544   1.113  0.1777  0.2132  0.2024
 1544TIP3    H1 4638   1.552   4.487   1.128  0.8655  1.0760  0.1746
 1544TIP3    H2 4639   1.501   4.626   1.156  0.2645  1.2754 -1.7631
 1545TIP3   OH2 4640   4.133   0.271   4.041  0.1888 -0.0952  0.2814
 1545TIP3    H1 4641   4.211   0.326   4.031 -0.0918  0.2060 -0.3219
 1545TIP3    H2 4642   4.061   0.326   4.011 -0.1784 -0.5811  0.2613
 1546TIP3   OH2 4643   2.721   3.658   1.823 -0.9617  0.1586  0.0105
 1546TIP3    H1 4644   2.640   3.657   1.874 -2.9881 -1.0933 -2.9700
 1546TIP3    H2 4645   2.714   3.582   1.765  2.8110 -0.5231  0.1554
 1547TIP3   OH2 4646   1.046   0.553   0.075  0.2282  0.2513 -0.1220
 1547TIP3    H1 4647   1.113   0.524   0.014  0.7665 -0.0923  0.6100
 1547TIP3    H2 4648   0.968   0.505   0.050  1.2340 -2.4143  1.4360
 1548TIP3   OH2 4649   3.082   5.114   2.945  0.5861  0.2407  0.4016
 1548TIP3    H1 4650   3.072   5.125   3.040 -3.2388 -0.4275  0.2288
 1548TIP3    H2 4651   3.110   5.024   2.934  0.6892  0.2106  0.8833
 1549TIP3   OH2 4652   4.635   4.508   1.837  0.0102 -0.0778  0.1197
 1549TIP3    H1 4653   4.653   4.593   1.796  2.7767 -1.1001 -0.9697
 1549TIP3    H2 4654   4.559   4.474   1.790 -0.4333  1.2770 -0.1810
 1550TIP3   OH2 4655   0.747   4.533   0.821 -0.2074 -0.3668  0.2231
 1550TIP3    H1 4656   0.658   4.497   0.818  0.0155 -0.8911 -0.8998
 1550TIP3    H2 4657   0.745   4.606   0.758  0.2919 -0.7423 -0.2410
 1551TIP3   OH2 4658   5.631   2.864   1.992  0.2159 -0.2952  0.1411
 1551TIP3    H1 4659   5.717   2.907   1.990  0.8217 -1.4847 -0.8015
 1551TIP3    H2 4660   5.650   2.772   1.974 -1.1113 -0.8728  1.5526
 1552TIP3   OH2 4661   4.843   2.879   4.758  0.0490 -0.6605  0.0641
 1552TIP3    H1 4662   4.850   2.912   4.848  0.1246 -1.0596  0.2097
 1552TIP3    H2 4663   4.749   2.864   4.746 -0.0867  0.4483 -0.3172
 1553TIP3   OH2 4664   2.757   0.559   1.821  0.0901 -0.7616  0.3442
 1553TIP3    H1 4665   2.835   0.594   1.777 -0.4724  0.4016  0.2441
 1553TIP3    H2 4666   2.769   0.584   1.913  1.0139 -2.7447  0.8419
 1554TIP3   OH2 4667   0.115   3.015   2.681 -0.2741  0.2122  0.1761
 1554TIP3    H1 4668   0.119   3.103   2.644 -0.8862  1.6539  3.2155
 1554TIP3    H2 4669   0.190   2.970   2.644 -0.1446  1.8675 -1.7548
 1555TIP3   OH2 4670   1.825   4.741   3.590  0.8631 -0.0212  0.2024
 1555TIP3    H1 4671   1.862   4.777   3.671  1.8451  0.3704 -0.4147
 1555TIP3    H2 4672   1.890   4.679   3.559  2.0827  2.2024 -2.0291
 1556TIP3   OH2 4673   1.145   1.664   1.800  0.6817  0.5351  0.2341
 1556TIP3    H1 4674   1.107   1.751   1.793 -1.3579 -0.1080  2.1353
 1556TIP3    H2 4675   1.132   1.639   1.892 -0.3585 -2.4089 -0.5857
 1557TIP3   OH2 4676   4.540   3.015   1.184 -0.6176 -0.3497  0.2378
 1557TIP3    H1 4677   4.584   3.064   1.254 -0.6736 -1.5582  1.1441
 1557TIP3    H2 4678   4.599   3.022   1.109 -0.6590  1.1576  0.2991
 1558TIP3   OH2 4679   5.774   5.417   2.033 -0.1799 -0.2717 -0.3697
 1558TIP3    H1 4680   5.724   5.396   1.953  0.4708  2.6853 -1.6795
 1558TIP3    H2 4681   5.740   5.502   2.060  1.6385  0.1076  0.8301
 1559TIP3   OH2 4682   5.978   2.025   0.848  1.1449 -0.8629 -0.4212
 1559TIP3    H1 4683   5.961   1.939   0.809  0.3434 -1.3173  0.8430
 1559TIP3    H2 4684   6.041   2.007   0.918  2.9038  0.0037 -1.7199
 1560TIP3   OH2 4685   1.476   1.784   1.719  0.0231 -0.1735 -0.1727
 1560TIP3    H1 4686   1.568   1.775   1.695 -0.0419 -1.0432 -0.1591
 1560TIP3    H2 4687   1.455   1.876   1.703  0.9588  0.0936  0.0606
 1561TIP3   OH2 4688   0.412   4.846   3.204 -0.0607  0.4647 -0.3109
 1561TIP3    H1 4689   0.372   4.802   3.279  0.3168  0.6494 -0.0013
 1561TIP3    H2 4690   0.503   4.815   3.204  0.8223  2.7959  1.1419
 1562TIP3   OH2 4691   5.888   3.140   0.051  0.1023 -0.6362  0.6346
 1562TIP3    H1 4692   5.807   3.108   0.090 -0.9062 -0.4619 -1.2388
 1562TIP3    H2 4693   5.895   3.093  -0.032  0.4522  1.3813 -0.5288
 1563TIP3   OH2 4694   0.751   2.906   3.815 -0.5797 -0.4422  0.4202
 1563TIP3    H1 4695   0.763   2.997   3.841  0.0462 -0.3553 -0.1298
 1563TIP3    H2 4696   0.657   2.891   3.822 -0.6217  0.0653  1.0876
 1564TIP3   OH2 4697   4.149   2.385   3.505  0.0844  0.2121  0.2628
 1564TIP3    H1 4698   4.066   2.429   3.523  0.5716  2.0305 -1.4738
 1564TIP3    H2 4699   4.124   2.298   3.476 -1.2531  0.7283 -0.2405
 1565TIP3   OH2 4700   2.880   1.224   0.421 -0.2914 -0.4330 -0.3043
 1565TIP3    H1 4701   2.857   1.165   0.493 -2.2677  1.2938  0.5801
 1565TIP3    H2 4702   2.849   1.310   0.450  0.8189  0.7106 -2.3261
 1566TIP3   OH2 4703   4.955   3.307   3.139  0.7749  0.1973 -0.3274
 1566TIP3    H1 4704   4.896   3.342   3.206 -1.2671 -1.5780 -1.0992
 1566TIP3    H2 4705   4.952   3.372   3.069  1.4992  1.1718  0.5063
 1567TIP3   OH2 4706   2.469   0.536   4.137  0.1915 -0.3063 -0.1406
 1567TIP3    H1 4707   2.432   0.518   4.051 -1.0353 -0.2901  0.3614
 1567TIP3    H2 4708   2.537   0.602   4.121 -1.4198  1.2552 -0.8413
 1568TIP3   OH2 4709   4.290   2.863   0.778 -0.4131  0.5734  0.6811
 1568TIP3    H1 4710   4.333   2.842   0.695 -0.2797  2.7651  0.1212
 1568TIP3    H2 4711   4.357   2.844   0.845 -0.1996 -0.3430  0.2217
 1569TIP3   OH2 4712   5.910   2.151   1.605  0.0401 -0.2366  0.3083
 1569TIP3    H1 4713   5.884   2.066   1.568 -0.6677 -0.3162  0.9566
 1569TIP3    H2 4714   5.873   2.150   1.694  0.2393  0.6478  0.4034
 1570TIP3   OH2 4715   6.168   1.819   0.828 -0.1442 -0.1623 -0.4062
 1570TIP3    H1 4716   6.121   1.739   0.852  0.7119 -0.2781  0.9832
 1570TIP3    H2 4717   6.164   1.873   0.907 -2.1094  1.9057 -1.8074
 1571TIP3   OH2 4718   1.289   1.505   1.572 -0.3800 -0.3760  0.2551
 1571TIP3    H1 4719   1.345   1.545   1.506 -3.2154  2.1097 -0.8779
 1571TIP3    H2 4720   1.268   1.419   1.537  0.4729 -0.2312 -0.6523
 1572TIP3   OH2 4721   4.880   3.957   0.876  0.3729 -0.7389  0.3616
 1572TIP3    H1 4722   4.934   3.991   0.947 -1.1267 -0.3127  1.3538
 1572TIP3    H2 4723   4.861   4.034   0.822  0.3609 -0.7986  0.2805
 1573TIP3   OH2 4724   2.987   4.484   0.960 -0.3070 -0.0201  0.3457
 1573TIP3    H1 4725   3.007   4.421   0.892 -1.3292 -0.8077  0.7454
 1573TIP3    H2 4726   3.012   4.569   0.923  1.4822 -0.6839 -0.0364
 1574TIP3   OH2 4727   1.283   1.004   5.122  0.3960  0.0373 -0.1380
 1574TIP3    H1 4728   1.284   1.009   5.217  1.7567 -3.4999  0.1714
 1574TIP3    H2 4729   1.364   1.047   5.094 -0.5940  2.1956  0.1044
 1575TIP3   OH2 4730   3.423   5.920   1.080 -0.1299 -0.0650  0.5228
 1575TIP3    H1 4731   3.408   5.909   0.986  1.5602 -0.3096  0.2497
 1575TIP3    H2 4732   3.371   5.997   1.104  0.0580  0.5008 -0.7945
 1576TIP3   OH2 4733   2.472   5.715   2.115  0.0445  0.2630 -0.3259
 1576TIP3    H1 4734   2.485   5.759   2.198 -1.2318  0.4629 -0.2098
 1576TIP3    H2 4735   2.426   5.634   2.138 -0.8516  0.6011 -0.8806
 1577TIP3   OH2 4736   1.265   5.443   4.174 -0.0289 -0.3952 -0.3969
 1577TIP3    H1 4737   1.224   5.528   4.159  2.2860  0.8056 -0.3837
 1577TIP3    H2 4738   1.281   5.441   4.269  0.4520 -0.5810 -0.4794
 1578TIP3   OH2 4739   4.236   1.403   1.599 -0.4821 -0.4607 -0.6648
 1578TIP3    H1 4740   4.246   1.371   1.689 -0.7325  0.4949 -0.2859
 1578TIP3    H2 4741   4.245   1.498   1.607  3.2372 -0.5156 -2.1387
 1579TIP3   OH2 4742   3.629   4.885   0.663  0.2013  0.1183 -0.3430
 1579TIP3    H1 4743   3.711   4.932   0.644  0.5626 -0.4812 -0.2918
 1579TIP3    H2 4744   3.658   4.799   0.695 -0.4562 -0.2604 -0.7604
 1580TIP3   OH2 4745   4.945   0.836   4.996  0.0949 -0.0332 -0.1563
 1580TIP3    H1 4746   4.950   0.741   4.986 -1.1389 -0.2289  0.7908
 1580TIP3    H2 4747   4.928   0.868   4.908  1.0341 -0.6407 -0.5722
 1581TIP3   OH2 4748   0.777   5.932   3.777  0.4382  0.1805  0.1333
 1581TIP3    H1 4749   0.688   5.952   3.807  0.8120 -0.0631  1.4746
 1581TIP3    H2 4750   0.765   5.891   3.692 -0.8697 -1.4196  1.0302
 1582TIP3   OH2 4751   2.771   1.369   1.345  0.1196 -0.0589 -0.3706
 1582TIP3    H1 4752   2.678   1.376   1.365 -0.0313 -1.1248 -0.6201
 1582TIP3    H2 4753   2.793   1.278   1.364  0.8635 -0.0931 -1.2790
 1583TIP3   OH2 4754   2.835   2.948   2.854  0.0499  0.1180 -0.0388
 1583TIP3    H1 4755   2.895   2.888   2.899 -0.5540  1.4263  2.6868
 1583TIP3    H2 4756   2.829   2.913   2.765  1.8227 -2.2632  0.6749
 1584TIP3   OH2 4757   3.373   1.895   0.372  0.3986  0.4298 -0.0156
 1584TIP3    H1 4758   3.420   1.977   0.391  0.7710  0.6295 -1.6730
 1584TIP3    H2 4759   3.299   1.922   0.318 -1.3531  0.0343  2.0552
 1585TIP3   OH2 4760   4.130   2.415   2.201  0.0213  0.5646  0.3150
 1585TIP3    H1 4761   4.067   2.343   2.204  1.8462 -1.0992  0.7780
 1585TIP3    H2 4762   4.133   2.441   2.109  1.1296 -1.6898 -0.3467
 1586TIP3   OH2 4763   2.517   3.652   1.244  0.1156  0.0278  0.5058
 1586TIP3    H1 4764   2.592   3.598   1.218  1.1877  1.3212  0.8366
 1586TIP3    H2 4765   2.443   3.591   1.243  0.9605 -1.0479 -0.8684
 1587TIP3   OH2 4766   4.542   4.713   4.995  0.1947  0.2692 -0.6234
 1587TIP3    H1 4767   4.498   4.667   5.067  1.1685  1.6726  0.9365
 1587TIP3    H2 4768   4.579   4.643   4.941 -2.0797 -0.8823 -0.8223
 1588TIP3   OH2 4769   5.993   3.613   2.995 -0.5337 -0.3955 -0.4414
 1588TIP3    H1 4770   5.995   3.551   3.067  0.1946  0.7523  0.5544
 1588TIP3    H2 4771   6.059   3.581   2.934  0.0945 -0.4106  0.2315
 1589TIP3   OH2 4772   1.869   5.335   4.897  0.5921 -0.1234 -0.1784
 1589TIP3    H1 4773   1.902   5.249   4.920 -1.1372 -0.8209 -0.1814
 1589TIP3    H2 4774   1.857   5.380   4.981  3.4950  0.9653 -0.2412
 1590TIP3   OH2 4775   3.003   0.445   0.871 -0.1659 -0.1800  0.4025
 1590TIP3    H1 4776   3.023   0.362   0.914  0.3079 -1.4276 -2.0669
 1590TIP3    H2 4777   2.908   0.443   0.860 -0.1564 -0.3651  0.3594
 1591TIP3   OH2 4778   0.229   0.477   4.509  0.2462 -0.5296 -0.0446
 1591TIP3    H1 4779   0.299   0.457   4.571  0.6869  0.0730 -0.3447
 1591TIP3    H2 4780   0.274   0.507   4.430 -0.3343 -0.5988 -0.4051
 1592TIP3   OH2 4781   2.912   2.742   1.682  0.3695 -0.6714 -0.6638
 1592TIP3    H1 4782   2.844   2.680   1.708  0.1537 -0.3195 -0.3808
 1592TIP3    H2 4783   2.915   2.735   1.587 -0.0020 -0.7559 -0.6717
 1593TIP3   OH2 4784   5.717   1.213   2.968 -0.1867 -0.0104  0.4571
 1593TIP3    H1 4785   5.708   1.203   3.063  0.6711 -0.8267  0.4608
 1593TIP3    H2 4786   5.695   1.305   2.952 -0.1626  0.1851  1.4698
 1594TIP3   OH2 4787   0.287   4.774   3.441 -0.1664 -0.1330  0.4289
 1594TIP3    H1 4788   0.302   4.848   3.500 -0.7822 -0.5903  1.1676
 1594TIP3    H2 4789   0.321   4.698   3.488 -2.2376 -0.7701  0.9640
 1595TIP3   OH2 4790   4.595   4.466   3.721 -0.3077  0.2402 -0.0010
 1595TIP3    H1 4791   4.591   4.452   3.626  1.5799  0.2370 -0.1228
 1595TIP3    H2 4792   4.651   4.543   3.731 -0.8597  0.5197  1.1121
 1596TIP3   OH2 4793   1.376   1.560   3.399  0.5344  0.0597 -0.1552
 1596TIP3    H1 4794   1.302   1.502   3.379 -0.8993  1.8843 -0.5078
 1596TIP3    H2 4795   1.354   1.598   3.484 -0.0528  2.1853 -1.1927
 1597TIP3   OH2 4796   1.805   4.621   0.901 -0.2369 -0.2869 -0.1487
 1597TIP3    H1 4797   1.895   4.631   0.870 -0.9092 -0.7227 -2.3473
 1597TIP3    H2 4798   1.773   4.711   0.910  0.8836 -0.0409  2.3312
 1598TIP3   OH2 4799   3.083   0.127   3.224  0.7847  0.9651 -0.5736
 1598TIP3    H1 4800   3.052   0.037   3.217  2.0685  0.4092  0.6155
 1598TIP3    H2 4801   3.052   0.169   3.143 -1.0556 -0.1314 -0.4941
 1599TIP3   OH2 4802   4.963   0.789   4.437 -0.1184 -0.3391  0.2157
 1599TIP3    H1 4803   5.038   0.773   4.380 -1.6047 -2.2550 -1.3437
 1599TIP3    H2 4804   4.924   0.870   4.403  0.0795 -0.4492 -0.2800
 1600TIP3   OH2 4805   3.993   1.932   4.819 -0.8282 -0.0565 -0.4159
 1600TIP3    H1 4806   3.929   1.992   4.858 -0.7780 -0.3106  0.0605
 1600TIP3    H2 4807   4.000   1.860   4.882  0.2998  0.2038 -0.2142
 1601TIP3   OH2 4808   1.197   3.305   4.077  0.3522  0.0088 -0.4852
 1601TIP3    H1 4809   1.208   3.220   4.119 -0.7624  0.5418  0.9575
 1601TIP3    H2 4810   1.268   3.359   4.111  1.5189 -0.5074 -1.9767
 1602TIP3   OH2 4811   4.391   0.254   0.667  0.0034  0.4945  0.2619
 1602TIP3    H1 4812   4.477   0.218   0.646 -0.5638 -1.0435  0.3928
 1602TIP3    H2 4813   4.330   0.183   0.644 -1.4246  2.2085 -1.6542
 1603TIP3   OH2 4814   3.071   3.280   3.006 -0.0340  0.1034  0.0702
 1603TIP3    H1 4815   3.143   3.234   3.048 -0.5660  0.1753  1.0955
 1603TIP3    H2 4816   2.992   3.238   3.040 -0.4957  0.3631 -0.6353
 1604TIP3   OH2 4817   4.451   1.805   0.227  0.4428 -0.1207 -0.1337
 1604TIP3    H1 4818   4.372   1.781   0.177  0.2154 -0.4759  0.3877
 1604TIP3    H2 4819   4.490   1.876   0.176 -0.7131  0.7042  0.0837
 1605TIP3   OH2 4820   4.945   4.409   0.564 -0.2988 -0.2520  0.4094
 1605TIP3    H1 4821   5.001   4.477   0.603 -1.0156  0.7720 -0.3070
 1605TIP3    H2 4822   4.991   4.383   0.485 -0.8261  0.6310 -0.2102
 1606TIP3   OH2 4823   0.414   2.758   1.305  0.2645 -0.0995 -0.3979
 1606TIP3    H1 4824   0.411   2.773   1.400 -0.2229  2.5999 -0.7371
 1606TIP3    H2 4825   0.493   2.803   1.276  0.6468 -1.2754 -1.2554
 1607TIP3   OH2 4826   5.724   3.099   0.833 -0.7797 -0.3251  0.6797
 1607TIP3    H1 4827   5.774   3.180   0.843 -0.3747 -0.6875  1.7140
 1607TIP3    H2 4828   5.704   3.095   0.740  0.2855  0.3257  0.4029
 1608TIP3   OH2 4829   2.320   4.883   3.871  0.0264  0.3989  0.2161
 1608TIP3    H1 4830   2.284   4.949   3.812  2.0069  1.2193 -0.1651
 1608TIP3    H2 4831   2.265   4.806   3.858 -1.3981  1.4854 -0.4760
 1609TIP3   OH2 4832   0.937   2.377   2.165 -0.0041  0.1684 -0.4824
 1609TIP3    H1 4833   0.958   2.427   2.086  2.1576 -1.8191 -1.2821
 1609TIP3    H2 4834   0.865   2.320   2.139 -1.2198  1.5010 -0.1200
 1610TIP3   OH2 4835   5.694   5.655   5.078  0.1903 -0.4096  0.4703
 1610TIP3    H1 4836   5.671   5.686   4.990  0.0240 -0.4755  0.4901
 1610TIP3    H2 4837   5.761   5.717   5.108  0.1380 -0.2969  0.3563
 1611TIP3   OH2 4838   3.853   1.927   2.259  0.1532  0.6254 -0.5328
 1611TIP3    H1 4839   3.815   1.999   2.208  1.2736  2.5486  1.1763
 1611TIP3    H2 4840   3.866   1.964   2.346  0.9901 -1.6197  0.3724
 1612TIP3   OH2 4841   4.831   0.875   2.401 -0.0751 -0.5155  0.3653
 1612TIP3    H1 4842   4.912   0.836   2.432 -0.5991 -1.2939  0.7909
 1612TIP3    H2 4843   4.771   0.871   2.476 -0.6524 -0.3854 -0.0762
 1613TIP3   OH2 4844   4.155   3.774   4.771 -0.6835 -0.1756 -0.0939
 1613TIP3    H1 4845   4.068   3.781   4.809 -0.3764  1.4134  0.4050
 1613TIP3    H2 4846   4.140   3.755   4.679 -1.5841  0.5901 -0.1142
 1614TIP3   OH2 4847   4.066   4.013   0.091 -0.0546 -0.0107 -0.6901
 1614TIP3    H1 4848   4.127   4.078   0.057  0.1499  0.3132  0.2719
 1614TIP3    H2 4849   4.068   4.025   0.186 -0.1886 -1.2630 -0.5132
 1615TIP3   OH2 4850   6.155   4.017   1.903  0.1649  0.3586 -0.2468
 1615TIP3    H1 4851   6.126   4.106   1.882 -1.6320  0.2485  1.4952
 1615TIP3    H2 4852   6.192   4.024   1.991  0.5199 -0.5369 -0.3158
 1616TIP3   OH2 4853   1.526   0.953   2.554 -0.6180 -0.7353 -0.1228
 1616TIP3    H1 4854   1.530   1.006   2.474 -1.4506  1.2640  1.0859
 1616TIP3    H2 4855   1.615   0.921   2.566 -0.5793 -1.5401 -2.0950
 1617TIP3   OH2 4856   4.369   4.530   1.644 -0.0857 -0.1924  0.2397
 1617TIP3    H1 4857   4.275   4.527   1.661 -0.2624 -0.8753 -0.7710
 1617TIP3    H2 4858   4.378   4.497   1.554  1.0816  0.2211  0.1922
 1618TIP3   OH2 4859   3.904   4.011   4.629 -0.3185 -0.3024 -0.5664
 1618TIP3    H1 4860   3.854   4.066   4.568 -0.7930 -1.7731 -1.5513
 1618TIP3    H2 4861   3.995   4.035   4.613 -0.2393 -2.0569 -3.3979
 1619TIP3   OH2 4862   4.672   2.361   4.963  0.2874  0.3717 -0.3111
 1619TIP3    H1 4863   4.589   2.401   4.937 -1.2593 -1.9664  0.6732
 1619TIP3    H2 4864   4.660   2.335   5.054  2.3099  0.3993  0.0270
 1620TIP3   OH2 4865   3.198   0.574   4.860  0.2715 -0.2504  0.5260
 1620TIP3    H1 4866   3.127   0.631   4.831  0.1708  0.1681  1.5395
 1620TIP3    H2 4867   3.190   0.573   4.955  1.8018  0.0408  0.6791
 1621TIP3   OH2 4868   3.376   2.300   3.540 -0.3481 -0.5808 -0.5786
 1621TIP3    H1 4869   3.374   2.382   3.490  0.9635  1.1786  1.9782
 1621TIP3    H2 4870   3.284   2.276   3.551 -0.7068 -0.2118 -2.5116
 1622TIP3   OH2 4871   6.305   2.974   0.698 -0.6747 -0.1545 -0.2740
 1622TIP3    H1 4872   6.256   3.023   0.632 -0.8379  0.1370  0.0610
 1622TIP3    H2 4873   6.238   2.941   0.758 -0.8337 -2.8725 -1.8093
 1623TIP3   OH2 4874   5.336   1.414   2.646  1.1168 -0.6063  0.6898
 1623TIP3    H1 4875   5.343   1.340   2.707  2.1267 -0.0830  1.2376
 1623TIP3    H2 4876   5.400   1.478   2.678  0.8798  0.1474 -0.2806
 1624TIP3   OH2 4877   4.620   0.699   3.599 -0.7211  0.0502 -0.2355
 1624TIP3    H1 4878   4.642   0.792   3.593 -0.7711  0.1401  0.7665
 1624TIP3    H2 4879   4.532   0.693   3.561  0.3746 -0.0889 -2.9994
 1625TIP3   OH2 4880   6.135   1.495   2.022  0.2578  0.3224 -0.1796
 1625TIP3    H1 4881   6.070   1.442   1.975  1.2586  0.5363 -1.9265
 1625TIP3    H2 4882   6.128   1.582   1.981  0.4448  0.8177  0.8250
 1626TIP3   OH2 4883   4.789   2.606   1.052  0.3257 -0.2760  0.4374
 1626TIP3    H1 4884   4.846   2.529   1.052 -0.1822 -0.6565  0.6157
 1626TIP3    H2 4885   4.840   2.674   1.095  1.0196 -0.3327 -0.2857
 1627TIP3   OH2 4886   0.959   5.222   2.379  0.1021 -0.2985 -0.1092
 1627TIP3    H1 4887   0.983   5.130   2.368 -0.7233 -0.3812 -1.3520
 1627TIP3    H2 4888   0.893   5.220   2.449  0.4598 -0.5696  0.2347
 1628TIP3   OH2 4889   1.136   1.793   3.511  0.1411 -0.3057  0.2904
 1628TIP3    H1 4890   1.100   1.772   3.597  0.5191 -0.3391  0.4420
 1628TIP3    H2 4891   1.212   1.849   3.530  0.6723 -0.9269  0.0186
 1629TIP3   OH2 4892   0.568   2.941   1.191  0.1040 -0.4527  0.4703
 1629TIP3    H1 4893   0.560   2.947   1.096  1.0755 -1.4566  0.2954
 1629TIP3    H2 4894   0.556   3.030   1.223  3.8038  0.7679 -0.9627
 1630TIP3   OH2 4895   0.978   1.035   2.178  0.2667 -0.7498  0.1278
 1630TIP3    H1 4896   0.938   1.016   2.263  1.5450 -2.7444  0.3575
 1630TIP3    H2 4897   0.920   0.994   2.114 -0.7924  0.9062 -0.0310
 1631TIP3   OH2 4898   1.442   5.825   2.368 -0.1965  0.1053  0.1385
 1631TIP3    H1 4899   1.456   5.766   2.294 -1.1596 -0.7731  0.6415
 1631TIP3    H2 4900   1.383   5.778   2.427  1.4225  0.3035  2.0330
 1632TIP3   OH2 4901   2.091   3.315   5.064 -0.1109 -0.4625  0.0651
 1632TIP3    H1 4902   2.063   3.261   4.989  0.6321 -0.6027 -0.1220
 1632TIP3    H2 4903   2.019   3.377   5.076  0.2617  0.3460 -1.5354
 1633TIP3   OH2 4904   4.572   4.296   3.952 -0.1354 -0.4649 -0.0316
 1633TIP3    H1 4905   4.575   4.346   3.870 -0.3658 -0.2558  0.0851
 1633TIP3    H2 4906   4.635   4.340   4.009  0.3576 -0.8812 -0.2424
 1634TIP3   OH2 4907   6.336   2.698   4.384 -1.1507 -0.0057 -0.0242
 1634TIP3    H1 4908   6.257   2.738   4.420 -0.4886 -0.7477  2.4683
 1634TIP3    H2 4909   6.315   2.605   4.377 -1.3000  0.1431 -1.7492
 1635TIP3   OH2 4910   0.041   2.066   3.453 -0.1885  0.5269  0.4872
 1635TIP3    H1 4911   0.014   1.997   3.392 -1.5780  0.5320  1.0561
 1635TIP3    H2 4912   0.030   2.147   3.404 -1.1014  0.5170  0.6672
 1636TIP3   OH2 4913   6.160   4.925   0.617 -0.4201  0.0108 -0.0352
 1636TIP3    H1 4914   6.087   4.983   0.640 -0.7149 -0.0277 -0.8607
 1636TIP3    H2 4915   6.156   4.855   0.683 -0.1033  0.8731  0.9354
 1637TIP3   OH2 4916   1.961   1.380   4.388 -0.2695  0.4212  0.1468
 1637TIP3    H1 4917   1.999   1.347   4.469 -1.8186  1.3669  1.3232
 1637TIP3    H2 4918   1.932   1.469   4.410 -1.6764  0.3197 -1.1080
 1638TIP3   OH2 4919   3.513   2.890   1.829  0.1718  0.3017 -0.3282
 1638TIP3    H1 4920   3.428   2.867   1.792 -1.1455  1.9791  1.5112
 1638TIP3    H2 4921   3.507   2.983   1.849  1.2697 -0.1747  2.7131
 1639TIP3   OH2 4922   5.214   5.336   0.815  0.1466 -0.3026  0.2599
 1639TIP3    H1 4923   5.253   5.293   0.739  0.6316 -0.4284  0.5735
 1639TIP3    H2 4924   5.211   5.429   0.791 -0.3226 -0.4253 -0.1707
 1640TIP3   OH2 4925   2.193   1.951   4.149 -0.0649  0.0544  0.1535
 1640TIP3    H1 4926   2.110   1.920   4.186  0.0167  0.4806  0.7048
 1640TIP3    H2 4927   2.256   1.942   4.220  0.1570  0.6110  0.0303
 1641TIP3   OH2 4928   5.232  -0.000   1.004 -0.0090 -0.1804 -0.3982
 1641TIP3    H1 4929   5.290   0.046   1.065  0.6568 -1.3596 -0.1045
 1641TIP3    H2 4930   5.283  -0.008   0.923  0.0464 -0.7458 -0.3138
 1642TIP3   OH2 4931   0.044   5.321   2.698  0.0339  0.7275 -0.0901
 1642TIP3    H1 4932   0.040   5.263   2.774  2.0379  1.6012  0.7517
 1642TIP3    H2 4933   0.138   5.327   2.678 -0.3648  1.4620 -1.9094
 1643TIP3   OH2 4934   5.065   4.834   2.833 -0.2256  0.0872  0.1373
 1643TIP3    H1 4935   4.987   4.795   2.872  0.1045  0.0501  0.7608
 1643TIP3    H2 4936   5.035   4.918   2.797 -0.3356  0.5918  1.3476
 1644TIP3   OH2 4937   1.993   5.108   1.242 -0.7901 -0.3373  0.2479
 1644TIP3    H1 4938   1.979   5.031   1.187  0.3522  1.3825 -2.6881
 1644TIP3    H2 4939   1.922   5.106   1.306 -2.4000 -2.3349 -1.4725
 1645TIP3   OH2 4940   2.407   1.274   1.425  0.2839 -0.4007 -0.4348
 1645TIP3    H1 4941   2.376   1.364   1.422 -0.1855 -0.5747 -1.9395
 1645TIP3    H2 4942   2.346   1.229   1.484 -0.7014 -0.1388 -1.2198
 1646TIP3   OH2 4943   1.418   4.728   0.465 -0.9231 -0.2185 -0.4350
 1646TIP3    H1 4944   1.509   4.699   0.458 -1.2728 -1.5798  0.2142
 1646TIP3    H2 4945   1.367   4.647   0.453 -1.9768  0.2032  0.9691
 1647TIP3   OH2 4946   4.559   0.264   0.347 -0.1103 -0.0498  0.1902
 1647TIP3    H1 4947   4.591   0.264   0.437 -0.9524 -1.4166  0.5105
 1647TIP3    H2 4948   4.620   0.322   0.300 -1.1825  2.8802  2.1280
 1648TIP3   OH2 4949   3.864   2.657   1.705 -0.1040  0.0974  0.1114
 1648TIP3    H1 4950   3.811   2.593   1.657 -2.0374  1.6047  0.1031
 1648TIP3    H2 4951   3.952   2.648   1.668  0.1570 -3.6315  1.2436
 1649TIP3   OH2 4952   4.263   5.653   0.210 -0.3866 -0.4329 -0.2226
 1649TIP3    H1 4953   4.222   5.567   0.218  0.0741 -0.5407  1.2523
 1649TIP3    H2 4954   4.231   5.702   0.286 -0.9432  0.8467 -1.2446
 1650TIP3   OH2 4955   3.367   2.841   0.023  0.0227 -0.3159 -0.2173
 1650TIP3    H1 4956   3.442   2.783   0.011 -1.1052 -1.8456 -0.1866
 1650TIP3    H2 4957   3.300   2.806  -0.035 -0.8560  0.6973  0.1476
 1651TIP3   OH2 4958   4.363   0.366   3.070 -0.3353 -0.1049  0.1478
 1651TIP3    H1 4959   4.318   0.427   3.011  0.2156 -0.4829 -0.6880
 1651TIP3    H2 4960   4.299   0.298   3.090 -0.4396 -0.1235 -0.2517
 1652TIP3   OH2 4961   6.084   2.785   2.160 -0.0889  0.2335  0.1501
 1652TIP3    H1 4962   6.011   2.791   2.222 -0.9281  0.7726 -0.8525
 1652TIP3    H2 4963   6.045   2.810   2.076  0.7098 -1.7810 -0.8584
 1653TIP3   OH2 4964   4.792   3.127   1.781 -0.1267 -0.1601  0.1999
 1653TIP3    H1 4965   4.735   3.096   1.851  0.9531  1.3978  1.8438
 1653TIP3    H2 4966   4.739   3.193   1.735 -0.5685 -0.6279  0.0337
 1654TIP3   OH2 4967   4.035   5.527   4.701  0.4045 -0.7484  0.1666
 1654TIP3    H1 4968   3.946   5.553   4.678  0.5642 -2.2950 -2.7650
 1654TIP3    H2 4969   4.024   5.447   4.752  0.0981 -0.6326  0.2873
 1655TIP3   OH2 4970   1.935   5.882   4.857  0.1319  0.1394 -0.1822
 1655TIP3    H1 4971   1.907   5.918   4.773  1.5105  0.5395 -0.5078
 1655TIP3    H2 4972   1.962   5.793   4.837  2.4420  0.8609 -0.6640
 1656TIP3   OH2 4973   6.019   1.867   3.537 -0.4134  0.7740 -0.1248
 1656TIP3    H1 4974   6.085   1.851   3.605 -1.0254  0.7463  0.4656
 1656TIP3    H2 4975   5.998   1.960   3.545  1.1543  1.3502 -1.7768
 1657TIP3   OH2 4976   2.707   0.686   0.515 -0.4414  0.4032 -0.0011
 1657TIP3    H1 4977   2.620   0.666   0.548 -0.4601 -1.7937 -1.2311
 1657TIP3    H2 4978   2.704   0.664   0.422  0.3788  3.8528 -1.0013
 1658TIP3   OH2 4979   4.326   2.439   0.463  0.0121  0.1264  0.5762
 1658TIP3    H1 4980   4.375   2.501   0.409 -0.0388 -0.5623 -0.2761
 1658TIP3    H2 4981   4.386   2.418   0.535  1.3323 -1.3340 -0.8782
 1659TIP3   OH2 4982   6.072   4.382   0.391 -0.5520  0.0205  0.2848
 1659TIP3    H1 4983   6.134   4.310   0.384  0.6628  1.0403  0.2035
 1659TIP3    H2 4984   6.112   4.453   0.341  0.8548  2.4556  4.3651
 1660TIP3   OH2 4985   1.329   2.898   0.734 -0.3239 -0.2764 -0.0471
 1660TIP3    H1 4986   1.327   2.919   0.641  0.5607  1.6910  0.3438
 1660TIP3    H2 4987   1.239   2.915   0.765 -0.4822 -0.4377 -0.4142
 1661TIP3   OH2 4988   5.676   5.764   0.434 -0.0004  0.5258  0.2417
 1661TIP3    H1 4989   5.648   5.849   0.466  2.3588  1.5163 -0.1345
 1661TIP3    H2 4990   5.669   5.770   0.339  0.5338  0.4554  0.1945
 1662TIP3   OH2 4991   5.400   2.784   3.156  0.2745  0.2399 -0.2787
 1662TIP3    H1 4992   5.350   2.860   3.185  3.3114  1.9364  1.0249
 1662TIP3    H2 4993   5.371   2.769   3.066 -0.2301  3.1801 -0.7168
 1663TIP3   OH2 4994   0.717   2.851   4.850 -0.2686 -0.1807  0.2142
 1663TIP3    H1 4995   0.659   2.853   4.926  0.6166  0.0358  0.9066
 1663TIP3    H2 4996   0.687   2.775   4.799  0.6725 -1.9097  2.0703
 1664TIP3   OH2 4997   0.474   2.117   2.026  0.5664 -0.0305 -0.0210
 1664TIP3    H1 4998   0.382   2.094   2.033  0.6301 -0.1337  0.5494
 1664TIP3    H2 4999   0.503   2.079   1.943  0.2195 -0.4027  0.0296
 1665TIP3   OH2 5000   3.060   5.284   3.854  0.3591 -0.3304 -0.0852
 1665TIP3    H1 5001   2.983   5.335   3.879  0.6019  0.2189 -0.4424
 1665TIP3    H2 5002   3.120   5.292   3.928 -0.0288 -0.9929  0.3158
 1666TIP3   OH2 5003   4.083   4.534   4.377 -0.0233 -0.0066  0.2350
 1666TIP3    H1 5004   4.148   4.469   4.347  0.0203 -0.0331  0.3852
 1666TIP3    H2 5005   3.999   4.494   4.356  0.0025  0.7852 -1.5978
 1667TIP3   OH2 5006   1.172   4.106   1.078  0.2790  0.2908 -0.2730
 1667TIP3    H1 5007   1.256   4.122   1.034  1.2785  2.7286  2.2135
 1667TIP3    H2 5008   1.193   4.109   1.171 -2.6503  1.5456  0.4645
 1668TIP3   OH2 5009   3.767   3.214   3.832  0.2635  0.7542 -0.1398
 1668TIP3    H1 5010   3.769   3.307   3.853 -0.2785  0.4055  1.6376
 1668TIP3    H2 5011   3.841   3.177   3.881 -0.5361  0.0137  0.5375
 1669TIP3   OH2 5012   3.663   4.372   1.547 -0.0941 -0.2004  0.4804
 1669TIP3    H1 5013   3.657   4.455   1.498 -1.8723 -0.2377  0.5693
 1669TIP3    H2 5014   3.692   4.398   1.634  0.3118  0.2202  0.2228
 1670TIP3   OH2 5015   4.515   5.160   2.240  0.0995 -0.4513 -0.1141
 1670TIP3    H1 5016   4.477   5.187   2.324 -0.2435 -3.2345  0.7263
 1670TIP3    H2 5017   4.478   5.220   2.176  0.0417  1.4884  1.6485
 1671TIP3   OH2 5018   4.109   0.501   3.893  0.1213  0.9293  0.7706
 1671TIP3    H1 5019   4.181   0.455   3.852 -0.6398 -0.1481  0.6045
 1671TIP3    H2 5020   4.097   0.580   3.840 -0.7236 -0.3435 -1.0187
 1672TIP3   OH2 5021   1.835   5.219   4.107  0.1113  0.0790  0.2182
 1672TIP3    H1 5022   1.921   5.261   4.100  0.2210 -0.2382 -0.5317
 1672TIP3    H2 5023   1.775   5.290   4.129  0.7415  0.0903  2.0154
 1673TIP3   OH2 5024   0.896   3.596   0.969 -0.2375  0.7230  0.0331
 1673TIP3    H1 5025   0.973   3.643   0.936 -0.1716 -1.1004 -2.7614
 1673TIP3    H2 5026   0.829   3.664   0.978  0.6481  1.8180 -1.0950
 1674TIP3   OH2 5027   2.360   1.105   2.929  0.3015 -0.4223 -0.6093
 1674TIP3    H1 5028   2.432   1.087   2.869 -0.0752 -1.5734 -0.7431
 1674TIP3    H2 5029   2.354   1.026   2.983 -0.9538 -0.4120 -0.7069
 1675TIP3   OH2 5030   4.691   0.118   4.791  0.0494  0.1095  0.1449
 1675TIP3    H1 5031   4.653   0.121   4.878  1.7124  1.3990  0.8811
 1675TIP3    H2 5032   4.708   0.025   4.775 -0.5617 -0.1688  1.0665
 1676TIP3   OH2 5033   2.832   3.008   1.205  0.0837  0.5625 -0.6670
 1676TIP3    H1 5034   2.740   2.982   1.200 -0.3490  0.7257  3.1479
 1676TIP3    H2 5035   2.873   2.938   1.255  1.7849  1.1192 -1.2245
 1677TIP3   OH2 5036   1.386   4.967   0.598  0.2009 -0.1644  0.1974
 1677TIP3    H1 5037   1.398   4.881   0.558  1.0058  0.0795 -0.0862
 1677TIP3    H2 5038   1.441   5.026   0.547 -2.1680  1.0106 -1.1711
 1678TIP3   OH2 5039   0.870   5.640   1.231  0.0458  0.2968  0.5190
 1678TIP3    H1 5040   0.896   5.690   1.154  0.7390 -0.3581  0.3152
 1678TIP3    H2 5041   0.920   5.559   1.225 -0.9893 -0.3959  0.8868
 1679TIP3   OH2 5042   1.895   5.784   3.827  0.0864 -0.1055  0.2802
 1679TIP3    H1 5043   1.920   5.803   3.737  0.3987  2.2683  0.7843
 1679TIP3    H2 5044   1.844   5.861   3.854 -0.2125 -0.8743  2.0475
 1680TIP3   OH2 5045   3.029   4.563   3.212 -0.0349  0.2722  0.6074
 1680TIP3    H1 5046   3.072   4.648   3.219 -0.3802  0.3374  2.6071
 1680TIP3    H2 5047   3.094   4.500   3.243 -0.2609 -0.0102  0.5124
 1681TIP3   OH2 5048   3.577   0.192   3.475 -0.4958  0.1044  0.2815
 1681TIP3    H1 5049   3.552   0.262   3.415  2.2414 -0.1985 -1.4055
 1681TIP3    H2 5050   3.495   0.158   3.510 -2.0464  2.0214 -1.3403
 1682TIP3   OH2 5051   4.947   1.585   3.625  0.1034  0.3092 -0.2760
 1682TIP3    H1 5052   4.960   1.614   3.715  0.4687  0.0026 -0.2276
 1682TIP3    H2 5053   4.852   1.583   3.615  0.0179 -1.0071  0.5592
 1683TIP3   OH2 5054   4.770   0.854   2.128 -0.5415 -0.4295 -0.7922
 1683TIP3    H1 5055   4.844   0.816   2.080 -0.3867 -2.5573  0.9609
 1683TIP3    H2 5056   4.798   0.853   2.220 -1.5116  1.8225 -0.4228
 1684TIP3   OH2 5057   6.048   5.402   2.100  0.3144  0.3071 -0.3377
 1684TIP3    H1 5058   6.112   5.354   2.047  2.0035  3.4696 -1.4136
 1684TIP3    H2 5059   5.964   5.388   2.054  0.6909 -1.5148 -0.5700
 1685TIP3   OH2 5060   3.790   3.050   0.639  0.6425  0.1586  0.0396
 1685TIP3    H1 5061   3.799   3.053   0.544  1.9503  0.3556  0.1501
 1685TIP3    H2 5062   3.783   3.142   0.665 -1.4164  0.0411  0.0148
 1686TIP3   OH2 5063   3.244   5.513   4.848  0.2906  0.2570 -0.0345
 1686TIP3    H1 5064   3.232   5.543   4.938  0.3773 -0.3677  0.1928
 1686TIP3    H2 5065   3.270   5.421   4.857  0.9292  0.3720 -0.6750
 1687TIP3   OH2 5066   5.893   5.628   4.734  0.1032  0.0108 -0.2597
 1687TIP3    H1 5067   5.961   5.648   4.670 -0.2713  0.3682 -0.5582
 1687TIP3    H2 5068   5.855   5.545   4.703 -1.0386  0.9027 -1.3427
 1688TIP3   OH2 5069   6.020   1.742   5.002  0.0737  0.1487 -0.3905
 1688TIP3    H1 5070   5.994   1.755   5.093 -1.6423 -1.5478 -0.5839
 1688TIP3    H2 5071   5.990   1.822   4.957  1.6957  1.3887  0.6089
 1689TIP3   OH2 5072   4.364   3.972   0.646  0.5193 -0.4273  0.3528
 1689TIP3    H1 5073   4.386   3.879   0.638  1.3735 -0.2290  0.3183
 1689TIP3    H2 5074   4.269   3.973   0.656  0.2904 -1.1953 -1.4206
 1690TIP3   OH2 5075   2.484   0.715   0.668  0.0135 -0.4597 -0.1786
 1690TIP3    H1 5076   2.531   0.786   0.710  1.7297 -1.0388 -1.0189
 1690TIP3    H2 5077   2.462   0.654   0.739 -0.4094  0.3226  0.3696
 1691TIP3   OH2 5078   5.796   1.856   0.604 -0.0930  0.3421 -0.8433
 1691TIP3    H1 5079   5.758   1.794   0.667 -1.3868  1.1555 -0.7902
 1691TIP3    H2 5080   5.890   1.838   0.607 -0.1507  0.1823  1.1159
 1692TIP3   OH2 5081   2.976   4.984   1.154 -0.0819 -0.7869 -0.1429
 1692TIP3    H1 5082   3.059   4.985   1.201 -0.4056 -0.1423  0.4359
 1692TIP3    H2 5083   3.000   4.990   1.062  0.4908  0.1426  0.0526
 1693TIP3   OH2 5084   3.217   5.664   3.509  0.3268 -0.4937  0.6336
 1693TIP3    H1 5085   3.284   5.597   3.523  0.8152 -0.1762 -0.0780
 1693TIP3    H2 5086   3.248   5.712   3.432 -0.9259 -0.5884  0.0480
 1694TIP3   OH2 5087   3.773   3.855   2.358 -0.6745 -0.5895 -0.7857
 1694TIP3    H1 5088   3.682   3.846   2.384 -0.8486 -2.0844 -1.7923
 1694TIP3    H2 5089   3.812   3.769   2.379  0.6147  0.1522  0.0182
 1695TIP3   OH2 5090   0.896   2.459   3.533 -0.1686 -0.0829 -0.0538
 1695TIP3    H1 5091   0.839   2.443   3.457  0.9874  0.5934 -1.0867
 1695TIP3    H2 5092   0.874   2.548   3.560 -0.8475 -0.4538  0.6727
 1696TIP3   OH2 5093   0.473   3.899   3.759 -0.6937 -0.5235 -0.5366
 1696TIP3    H1 5094   0.530   3.822   3.767 -0.2816 -0.1366  0.3340
 1696TIP3    H2 5095   0.416   3.895   3.836 -0.8500 -0.1016 -0.6260
 1697TIP3   OH2 5096   0.309   4.987   3.650  0.1231 -0.1093 -0.0768
 1697TIP3    H1 5097   0.261   4.937   3.717 -0.6418  0.9056  0.1525
 1697TIP3    H2 5098   0.398   4.992   3.685  0.0204 -0.6224  0.2816
 1698TIP3   OH2 5099   3.279   0.991   4.631 -0.3311  0.4949 -0.4865
 1698TIP3    H1 5100   3.260   1.045   4.708  0.8013  1.0531 -0.5700
 1698TIP3    H2 5101   3.318   0.911   4.666 -0.7270  0.3276 -0.4298
 1699TIP3   OH2 5102   3.377   4.228   3.493  0.1267 -0.2797  0.3366
 1699TIP3    H1 5103   3.344   4.237   3.582 -2.0196 -0.5256 -0.3895
 1699TIP3    H2 5104   3.299   4.217   3.439  1.3873 -0.3793 -1.5602
 1700TIP3   OH2 5105   3.055   2.965   4.996 -0.3383  0.0498  0.0858
 1700TIP3    H1 5106   3.060   3.041   5.054 -2.5963 -0.2839  0.8118
 1700TIP3    H2 5107   2.976   2.918   5.023  0.8583 -2.4944 -0.4539
 1701TIP3   OH2 5108   6.319   1.550   4.175 -0.4269  0.7299 -0.2120
 1701TIP3    H1 5109   6.329   1.645   4.166  2.2541  0.4019 -1.5562
 1701TIP3    H2 5110   6.330   1.515   4.087  1.0085 -0.9632  0.5643
 1702TIP3   OH2 5111   2.718   2.932   1.878  1.1509 -0.2344  0.2713
 1702TIP3    H1 5112   2.724   2.860   1.814  2.1044  0.2404 -0.1838
 1702TIP3    H2 5113   2.625   2.954   1.880  0.8777 -1.3251  0.2440
 1703TIP3   OH2 5114   6.324   4.239   4.649  0.0383 -0.2788 -0.6655
 1703TIP3    H1 5115   6.367   4.184   4.714 -0.1068 -0.4329 -0.7016
 1703TIP3    H2 5116   6.233   4.245   4.679  0.0028 -0.2393 -0.7813
 1704TIP3   OH2 5117   3.674   4.122   0.876 -0.3881  0.3314  0.4193
 1704TIP3    H1 5118   3.744   4.069   0.837 -0.5832  0.3695  0.0107
 1704TIP3    H2 5119   3.713   4.209   0.887 -0.6553  0.6048 -0.6857
 1705TIP3   OH2 5120   3.338   4.725   1.329 -0.1811 -0.0749 -0.2758
 1705TIP3    H1 5121   3.310   4.653   1.272  0.0815  1.5192 -2.5821
 1705TIP3    H2 5122   3.427   4.701   1.357 -0.5508 -1.1772 -0.0136
 1706TIP3   OH2 5123   4.985   5.323   2.601 -0.2403 -0.0238 -0.2661
 1706TIP3    H1 5124   4.898   5.285   2.607 -0.3811  0.3631  0.2371
 1706TIP3    H2 5125   5.000   5.363   2.687  0.3637  0.0598 -0.4014
 1707TIP3   OH2 5126   1.243   0.464   3.492 -0.7373  0.0337  0.4399
 1707TIP3    H1 5127   1.246   0.424   3.579 -0.5314 -0.4053  0.2334
 1707TIP3    H2 5128   1.269   0.555   3.507 -1.5342  0.1818  0.9599
 1708TIP3   OH2 5129   3.754   2.808   2.019 -0.1687  0.1100 -0.3570
 1708TIP3    H1 5130   3.748   2.881   2.081 -0.6559  0.8764 -1.2778
 1708TIP3    H2 5131   3.688   2.827   1.953  1.1443 -0.0484 -1.7784
 1709TIP3   OH2 5132   4.313   4.738   0.840 -0.2075 -0.3506  0.4723
 1709TIP3    H1 5133   4.284   4.657   0.882 -0.9935 -0.0976  0.4379
 1709TIP3    H2 5134   4.408   4.735   0.844 -0.2046 -1.5578 -0.0585
 1710TIP3   OH2 5135   5.041   5.086   4.599  0.1263  0.2154 -0.3420
 1710TIP3    H1 5136   4.991   5.088   4.680 -0.0858 -1.0804 -0.4194
 1710TIP3    H2 5137   5.122   5.039   4.621 -0.0210 -0.3263 -0.9079
 1711TIP3   OH2 5138   5.949   4.972   1.725 -0.3534  0.1236  0.2735
 1711TIP3    H1 5139   6.038   4.947   1.749 -0.2830 -0.2453 -0.3567
 1711TIP3    H2 5140   5.896   4.895   1.743 -0.5552  0.3479  0.6657
 1712TIP3   OH2 5141   0.707   3.864   5.123 -0.0425  0.3378  0.6021
 1712TIP3    H1 5142   0.732   3.957   5.122  1.1300  0.0543  1.1661
 1712TIP3    H2 5143   0.762   3.825   5.191 -2.8181 -0.1761  2.7356
 1713TIP3   OH2 5144   4.039   2.370   1.886 -0.4641  0.1238 -0.6623
 1713TIP3    H1 5145   4.057   2.315   1.809  0.8968 -0.7079  0.2156
 1713TIP3    H2 5146   3.944   2.364   1.897 -0.3743 -2.0420 -0.6295
 1714TIP3   OH2 5147   4.375   1.409   4.707 -0.1098 -0.2189  0.4968
 1714TIP3    H1 5148   4.309   1.393   4.639  0.5845 -0.2623 -0.1830
 1714TIP3    H2 5149   4.428   1.329   4.708  1.0774  0.5387 -0.2851
 1715TIP3   OH2 5150   4.301   0.252   4.631 -0.4282 -0.2871 -0.3248
 1715TIP3    H1 5151   4.250   0.186   4.583  0.6427  0.5884 -2.8442
 1715TIP3    H2 5152   4.234   0.306   4.675 -1.3970 -1.8423  0.2087
 1716TIP3   OH2 5153   0.401   1.078   3.135  0.0820 -0.6206  0.0904
 1716TIP3    H1 5154   0.495   1.068   3.148  0.5356 -0.0537 -2.3035
 1716TIP3    H2 5155   0.377   1.005   3.078 -0.5299  0.3265 -0.9028
 1717TIP3   OH2 5156   4.285   2.866   4.623 -0.1143 -0.4240  0.9754
 1717TIP3    H1 5157   4.212   2.854   4.563  0.2445 -1.3885  0.7098
 1717TIP3    H2 5158   4.306   2.959   4.617 -0.1910 -0.4689 -0.2899
 1718TIP3   OH2 5159   5.460   2.504   2.326 -0.1830 -0.3757 -0.0264
 1718TIP3    H1 5160   5.524   2.470   2.388  1.2822  1.7347 -0.2558
 1718TIP3    H2 5161   5.493   2.478   2.240  0.1572  0.3317 -0.1199
 1719TIP3   OH2 5162   3.644   0.133   2.062 -0.8371 -0.1019  0.1485
 1719TIP3    H1 5163   3.662   0.081   1.983 -2.7778 -0.9652  0.2161
 1719TIP3    H2 5164   3.549   0.134   2.068 -0.9740  4.1112 -0.2345
 1720TIP3   OH2 5165   5.314   4.122   2.805 -0.8138  0.4309  0.7159
 1720TIP3    H1 5166   5.224   4.107   2.776 -0.6668  2.1636 -0.8316
 1720TIP3    H2 5167   5.326   4.062   2.879 -2.9296 -0.4724  0.3937
 1721TIP3   OH2 5168   0.984   5.896   2.734  0.2930  0.0295 -0.1512
 1721TIP3    H1 5169   1.003   5.878   2.642 -0.5408 -1.4480 -0.0648
 1721TIP3    H2 5170   0.892   5.924   2.735 -0.0534 -1.0581  0.3278
 1722TIP3   OH2 5171   3.831   3.390   2.173  0.0315  0.1824 -0.2624
 1722TIP3    H1 5172   3.874   3.313   2.135  0.6138  0.6287 -0.5245
 1722TIP3    H2 5173   3.857   3.390   2.265  1.1953  0.8407 -0.5717
 1723TIP3   OH2 5174   2.165   2.083   4.432  0.1450  0.4180 -0.1017
 1723TIP3    H1 5175   2.118   2.152   4.384  0.1776  0.0702 -0.6275
 1723TIP3    H2 5176   2.237   2.130   4.475 -1.3308  1.1897  1.6948
 1724TIP3   OH2 5177   4.337   4.425   4.793  0.3337  0.3814 -0.1392
 1724TIP3    H1 5178   4.279   4.464   4.728  0.3847 -1.4620 -1.3796
 1724TIP3    H2 5179   4.279   4.399   4.865  0.0892  1.2740 -0.0007
 1725TIP3   OH2 5180   0.901   5.283   2.879 -0.2660  0.2213 -0.4329
 1725TIP3    H1 5181   0.972   5.315   2.823 -0.8038 -0.3553 -1.4739
 1725TIP3    H2 5182   0.942   5.218   2.935  0.0310 -0.1639 -1.0804
 1726TIP3   OH2 5183   1.064   4.170   3.185 -0.0456  0.2018 -0.5699
 1726TIP3    H1 5184   0.997   4.101   3.188 -0.0091  0.1390 -1.0734
 1726TIP3    H2 5185   1.092   4.180   3.276  0.9519 -1.4514 -0.6525
 1727TIP3   OH2 5186   1.123   2.909   0.343  0.2876 -0.5764 -0.5705
 1727TIP3    H1 5187   1.193   2.906   0.277  0.1818 -1.1493 -0.6618
 1727TIP3    H2 5188   1.043   2.891   0.294  0.0987 -0.1320 -0.4293
 1728TIP3   OH2 5189   2.177   0.812   1.100 -0.4495 -0.1650 -0.0636
 1728TIP3    H1 5190   2.218   0.779   1.181  1.8747  1.9525 -0.2776
 1728TIP3    H2 5191   2.087   0.834   1.126  0.5591  1.5442  2.3135
 1729TIP3   OH2 5192   2.930   3.364   3.843 -0.1142 -0.2802 -0.2082
 1729TIP3    H1 5193   2.970   3.424   3.906 -0.6512  2.3060 -2.1552
 1729TIP3    H2 5194   2.836   3.372   3.858 -0.1673 -2.0558  0.6510
 1730TIP3   OH2 5195   5.808   2.888   0.423 -0.3191  0.0385 -0.3034
 1730TIP3    H1 5196   5.866   2.885   0.499  0.1479  0.1239 -0.6459
 1730TIP3    H2 5197   5.764   2.803   0.423  2.3114 -1.4783 -1.9337
 1731TIP3   OH2 5198   3.452   4.043   0.702  0.7901 -0.5960  0.0023
 1731TIP3    H1 5199   3.449   4.092   0.620 -0.5961 -1.3110 -0.4021
 1731TIP3    H2 5200   3.511   4.093   0.758 -0.0340  1.1524 -0.6396
 1732TIP3   OH2 5201   5.742   0.362   5.188  1.0934  0.4078  0.0062
 1732TIP3    H1 5202   5.809   0.431   5.189  0.4071  1.1013 -0.3377
 1732TIP3    H2 5203   5.741   0.330   5.098  0.9700  0.4012  0.0091
 1733TIP3   OH2 5204   4.520   3.731   1.147  0.3261 -0.0848 -0.1032
 1733TIP3    H1 5205   4.461   3.769   1.213 -0.0594 -0.4692 -0.2183
 1733TIP3    H2 5206   4.549   3.805   1.095  2.0222  0.5076  1.5467
 1734TIP3   OH2 5207   2.562   3.723   0.981 -0.4183 -0.1757  0.2692
 1734TIP3    H1 5208   2.538   3.773   1.059  1.0916 -0.0016  0.6459
 1734TIP3    H2 5209   2.590   3.638   1.015 -4.0124 -1.8427 -0.4162
 1735TIP3   OH2 5210   6.100   0.532   2.708 -0.2873 -0.3909 -0.1221
 1735TIP3    H1 5211   6.088   0.604   2.645  0.2444  0.5848  0.8701
 1735TIP3    H2 5212   6.189   0.542   2.739 -0.9158 -0.1136  1.6869
 1736TIP3   OH2 5213   1.593   2.427   3.388  0.3206  0.3634  0.4587
 1736TIP3    H1 5214   1.667   2.431   3.327  0.9039 -1.2469  1.0220
 1736TIP3    H2 5215   1.584   2.334   3.409 -3.1709  0.1890 -1.1374
 1737TIP3   OH2 5216   2.118   4.027   0.494  0.2584 -0.1567 -0.4524
 1737TIP3    H1 5217   2.127   4.043   0.400  0.5022 -3.3706 -1.0903
 1737TIP3    H2 5218   2.024   4.013   0.506  0.0415  1.5195  0.0957
 1738TIP3   OH2 5219   2.054   4.858   0.174 -0.0531 -0.0979  0.5817
 1738TIP3    H1 5220   2.107   4.930   0.208  0.4295  0.4819 -1.2528
 1738TIP3    H2 5221   2.025   4.810   0.251  2.0692  0.3484  1.7223
 1739TIP3   OH2 5222   4.911   2.378   4.310  0.6618 -0.3386  0.2177
 1739TIP3    H1 5223   4.888   2.378   4.217  0.5892  0.0936  0.2342
 1739TIP3    H2 5224   4.946   2.291   4.326 -0.0549 -0.6848 -0.0373
 1740TIP3   OH2 5225   5.933   2.531   0.955 -0.1596 -0.3546 -0.2227
 1740TIP3    H1 5226   5.907   2.576   0.875 -0.1010 -0.6553 -0.4145
 1740TIP3    H2 5227   6.014   2.485   0.932  0.1018 -0.0851  0.1364
 1741TIP3   OH2 5228   1.265   4.551   1.709 -0.3471  0.8585 -0.1748
 1741TIP3    H1 5229   1.305   4.563   1.795 -2.0681  0.0873  0.7914
 1741TIP3    H2 5230   1.309   4.475   1.672 -2.1364 -1.2186  1.7029
 1742TIP3   OH2 5231   3.372   0.836   1.094 -0.0969 -0.2939 -0.6174
 1742TIP3    H1 5232   3.453   0.785   1.094 -0.6313 -1.1612 -1.1016
 1742TIP3    H2 5233   3.312   0.788   1.150 -0.0711  0.7179  0.3086
 1743TIP3   OH2 5234   0.773   2.543   4.837 -0.4451  0.1687  0.6922
 1743TIP3    H1 5235   0.835   2.591   4.782  0.2717  0.1231  1.4526
 1743TIP3    H2 5236   0.826   2.477   4.881 -1.2054 -0.5156  0.6203
 1744TIP3   OH2 5237   5.690   2.294   1.367  0.0607 -0.4002  0.0547
 1744TIP3    H1 5238   5.780   2.267   1.351  0.0737 -0.1288 -0.3424
 1744TIP3    H2 5239   5.669   2.352   1.294 -1.3745 -2.6362 -1.3997
 1745TIP3   OH2 5240   5.739   3.308   2.909 -0.2530  0.4911 -0.2367
 1745TIP3    H1 5241   5.780   3.253   2.975 -0.7021 -0.3173 -0.6259
 1745TIP3    H2 5242   5.810   3.328   2.847 -0.4067 -0.8689 -0.8860
 1746TIP3   OH2 5243   1.215   5.400   1.402  0.3233  0.3370 -0.0083
 1746TIP3    H1 5244   1.306   5.409   1.432  0.2118  0.1872  0.3839
 1746TIP3    H2 5245   1.187   5.489   1.383  1.1412  0.2456 -1.9309
 1747TIP3   OH2 5246   1.842   0.764   0.844 -0.5339 -0.9593  0.6839
 1747TIP3    H1 5247   1.882   0.846   0.873 -0.5041 -1.0095  0.7855
 1747TIP3    H2 5248   1.870   0.699   0.909  0.4054 -1.3023 -0.0422
 1748TIP3   OH2 5249   4.090   2.728   0.977 -0.1864 -0.1367  0.4140
 1748TIP3    H1 5250   4.175   2.763   0.948 -0.3746  1.0325  1.1937
 1748TIP3    H2 5251   4.027   2.765   0.915 -0.0582 -1.8487 -0.8131
 1749TIP3   OH2 5252   2.001   5.534   3.836 -0.4303  0.1122 -0.5975
 1749TIP3    H1 5253   2.062   5.518   3.764 -1.5963  0.7356 -1.7461
 1749TIP3    H2 5254   1.992   5.629   3.840  1.5995  0.3262  2.1050
 1750TIP3   OH2 5255   4.645   0.495   1.891 -0.0885 -0.5423 -0.1770
 1750TIP3    H1 5256   4.668   0.463   1.804 -0.7904  0.1875 -0.6427
 1750TIP3    H2 5257   4.559   0.534   1.881  0.2769  0.5150  0.6020
 1751TIP3   OH2 5258   2.755   4.918   1.502  0.0481 -0.0298 -0.3789
 1751TIP3    H1 5259   2.771   4.974   1.426  0.2928 -1.6744 -1.6044
 1751TIP3    H2 5260   2.662   4.930   1.522  0.4553  2.0779  0.4968
 1752TIP3   OH2 5261   5.965   3.337   1.201 -0.1085 -0.7046 -0.5899
 1752TIP3    H1 5262   6.016   3.257   1.193  1.0766  0.0717 -1.0453
 1752TIP3    H2 5263   5.959   3.352   1.295  0.9939 -0.5188 -0.5350
 1753TIP3   OH2 5264   0.537   0.193   3.132 -0.5124 -0.2074  0.5863
 1753TIP3    H1 5265   0.516   0.136   3.058 -2.2037 -0.5624  1.2916
 1753TIP3    H2 5266   0.489   0.155   3.206 -1.8931  2.2280  1.0357
 1754TIP3   OH2 5267   5.944   0.792   2.864 -0.4325  0.0122 -0.8207
 1754TIP3    H1 5268   5.979   0.771   2.777 -0.1781  1.0911 -0.9961
 1754TIP3    H2 5269   5.906   0.879   2.854 -1.3168 -0.2826 -0.0944
 1755TIP3   OH2 5270   1.183   0.478   4.934  0.1092 -0.6224 -0.2287
 1755TIP3    H1 5271   1.229   0.440   5.009 -1.6238 -0.7147  0.8357
 1755TIP3    H2 5272   1.138   0.555   4.969 -1.1361 -0.9439 -1.0563
 1756TIP3   OH2 5273   6.079   1.175   3.575  0.0957  0.3245 -0.4887
 1756TIP3    H1 5274   6.112   1.191   3.663  1.3186 -0.9561 -0.6793
 1756TIP3    H2 5275   5.985   1.163   3.587 -0.0699  2.1692  0.3407
 1757TIP3   OH2 5276   0.148   2.710   1.791 -0.5435 -0.8060  0.4621
 1757TIP3    H1 5277   0.146   2.731   1.884 -1.4417 -0.5829  0.4021
 1757TIP3    H2 5278   0.176   2.791   1.749 -2.9542  0.0364  0.3208
 1758TIP3   OH2 5279   1.869   4.520   4.063  0.0207 -0.0100  0.0993
 1758TIP3    H1 5280   1.847   4.437   4.105 -1.0554  0.5121  0.6166
 1758TIP3    H2 5281   1.882   4.498   3.971  0.4636 -0.8605  0.3652
 1759TIP3   OH2 5282   5.763   4.314   4.035 -0.0112  0.2991 -0.0901
 1759TIP3    H1 5283   5.812   4.252   4.089  1.4146  0.0944 -1.5443
 1759TIP3    H2 5284   5.716   4.259   3.972 -0.5416  0.6017  0.0327
 1760TIP3   OH2 5285   0.486   4.469   4.884 -0.6864 -0.5279  0.4007
 1760TIP3    H1 5286   0.561   4.522   4.860 -0.3710 -1.7514 -1.5321
 1760TIP3    H2 5287   0.414   4.502   4.830 -1.8682  1.1894  2.8122
 1761TIP3   OH2 5288   3.694   0.553   2.660 -0.1095 -0.2126 -0.3078
 1761TIP3    H1 5289   3.616   0.592   2.701 -0.6405 -1.6251  0.0649
 1761TIP3    H2 5290   3.685   0.576   2.567 -0.9490 -0.3010 -0.2610
 1762TIP3   OH2 5291   0.666   4.615   3.657  0.8431 -0.2121  0.1169
 1762TIP3    H1 5292   0.758   4.640   3.647  0.7518  1.6803  2.8678
 1762TIP3    H2 5293   0.665   4.557   3.734 -0.3043  0.3184  0.5295
 1763TIP3   OH2 5294   0.208   5.340   0.725  0.4672 -0.4234  0.2213
 1763TIP3    H1 5295   0.185   5.416   0.778 -2.1215 -1.4939  0.8076
 1763TIP3    H2 5296   0.293   5.311   0.758  0.4807  0.9159  1.4366
 1764TIP3   OH2 5297   3.813   3.691   4.510 -0.2602  0.3661  0.3092
 1764TIP3    H1 5298   3.874   3.763   4.495  0.5982 -0.5816 -1.1022
 1764TIP3    H2 5299   3.731   3.719   4.469 -0.6432  1.4360  1.7572
 1765TIP3   OH2 5300   1.001   1.708   4.334 -0.2120  0.3973  0.5408
 1765TIP3    H1 5301   1.078   1.653   4.319 -0.0541  1.0718 -1.4845
 1765TIP3    H2 5302   1.033   1.797   4.320 -1.4049  0.6709 -0.6564
 1766TIP3   OH2 5303   3.359   2.675   2.912  0.1120 -0.5548 -0.4863
 1766TIP3    H1 5304   3.453   2.665   2.898  0.1589  1.3562 -2.0496
 1766TIP3    H2 5305   3.321   2.671   2.824 -0.8567  1.8894 -0.2713
 1767TIP3   OH2 5306   0.820   4.094   1.948 -0.7749 -0.4070  0.0556
 1767TIP3    H1 5307   0.803   4.176   1.995  2.2435 -0.5326  1.6286
 1767TIP3    H2 5308   0.814   4.117   1.856 -0.0149  1.6189  0.4610
 1768TIP3   OH2 5309   2.483   5.780   2.469  0.2765 -0.2181 -0.4509
 1768TIP3    H1 5310   2.449   5.866   2.444 -1.2731 -1.1580 -1.7862
 1768TIP3    H2 5311   2.412   5.740   2.519  1.6568 -0.0869  1.7373
 1769TIP3   OH2 5312   3.671   5.505   1.062  0.3313  0.5682 -0.4782
 1769TIP3    H1 5313   3.762   5.528   1.080  0.6143 -1.2203  0.6433
 1769TIP3    H2 5314   3.669   5.483   0.969  1.1762  0.0948 -0.3921
 1770TIP3   OH2 5315   3.149   0.081   0.633  0.5259 -0.1713 -0.3552
 1770TIP3    H1 5316   3.070   0.134   0.628 -0.6530 -1.6829  1.0705
 1770TIP3    H2 5317   3.147   0.027   0.554  0.3879  0.0991 -0.5375
 1771TIP3   OH2 5318   3.857   1.916   3.553 -0.2214  0.2671 -0.2166
 1771TIP3    H1 5319   3.812   1.958   3.480  1.7786  0.7768 -1.2276
 1771TIP3    H2 5320   3.879   1.988   3.613 -3.5720 -0.3414  2.0236
 1772TIP3   OH2 5321   1.213   0.259   4.766  0.0208 -0.4825  0.3743
 1772TIP3    H1 5322   1.283   0.216   4.815 -0.6168 -1.0147  0.8280
 1772TIP3    H2 5323   1.206   0.346   4.804  0.4384 -0.4217  0.3175
 1773TIP3   OH2 5324   2.070   2.368   1.023  0.1918 -0.0238  0.1638
 1773TIP3    H1 5325   2.040   2.330   0.940  1.3035  0.2661 -0.3898
 1773TIP3    H2 5326   2.038   2.308   1.090  0.0388 -0.7403 -0.5363
 1774TIP3   OH2 5327   1.709   0.869   1.617 -0.4449 -0.3991 -0.1446
 1774TIP3    H1 5328   1.672   0.871   1.705 -0.1053 -0.5817  0.0042
 1774TIP3    H2 5329   1.760   0.950   1.611 -0.6762 -0.2622 -0.2653
 1775TIP3   OH2 5330   5.236   5.474   2.376 -0.0152 -0.4345 -0.6913
 1775TIP3    H1 5331   5.234   5.442   2.466  0.4468 -0.8044 -0.8077
 1775TIP3    H2 5332   5.206   5.399   2.323 -0.4246 -0.1733 -0.8339
 1776TIP3   OH2 5333   5.832   2.595   0.160  0.0400  0.3344 -0.4728
 1776TIP3    H1 5334   5.898   2.551   0.213 -0.3630 -0.1174 -0.3330
 1776TIP3    H2 5335   5.754   2.599   0.216 -0.5115 -0.4876 -1.1434
 1777TIP3   OH2 5336   5.297   2.319   0.223  0.2285  0.1297  0.0756
 1777TIP3    H1 5337   5.386   2.347   0.201  0.4176 -0.0476  0.6162
 1777TIP3    H2 5338   5.242   2.393   0.197  0.9185  2.0903  3.6523
 1778TIP3   OH2 5339   0.080   2.795   2.869 -0.4085  0.0613  0.6532
 1778TIP3    H1 5340  -0.011   2.772   2.887 -0.6513 -1.4137 -1.9689
 1778TIP3    H2 5341   0.075   2.873   2.814 -0.0738  0.2494  0.8863
 1779TIP3   OH2 5342   3.778   1.917   4.233  0.0718 -0.1633  0.6515
 1779TIP3    H1 5343   3.868   1.949   4.228  0.1486 -0.1632  1.6765
 1779TIP3    H2 5344   3.772   1.878   4.321 -1.0877  0.3114  0.7970
 1780TIP3   OH2 5345   0.339   4.678   4.801  0.2446  0.1199  0.1661
 1780TIP3    H1 5346   0.267   4.620   4.825  0.6297 -0.3149  0.2790
 1780TIP3    H2 5347   0.346   4.740   4.874  1.1383 -0.9410  1.0239
 1781TIP3   OH2 5348   6.277   1.179   0.227 -0.3823  0.5877  0.3263
 1781TIP3    H1 5349   6.296   1.221   0.311 -1.1959  1.8741 -0.0944
 1781TIP3    H2 5350   6.283   1.251   0.163  2.7428 -0.7522 -1.1431
 1782TIP3   OH2 5351   2.704   3.609   3.870 -0.5219 -0.2466  0.2223
 1782TIP3    H1 5352   2.692   3.657   3.951  0.0570 -1.3520  0.9914
 1782TIP3    H2 5353   2.689   3.517   3.893  0.2072 -0.6495 -0.7797
 1783TIP3   OH2 5354   0.539   1.002   2.500 -0.6647 -0.2296 -0.2558
 1783TIP3    H1 5355   0.591   0.933   2.540 -0.5020  1.3228  2.4184
 1783TIP3    H2 5356   0.468   0.956   2.455  0.8859 -2.2051 -0.8158
 1784TIP3   OH2 5357   5.147   4.489   4.563 -0.0752  0.2196  0.1395
 1784TIP3    H1 5358   5.123   4.577   4.591 -0.9553  0.0386 -0.0264
 1784TIP3    H2 5359   5.065   4.440   4.565  0.6224 -0.9519  1.4873
 1785TIP3   OH2 5360   3.603   2.132   3.547 -0.2419 -0.2225 -0.3334
 1785TIP3    H1 5361   3.599   2.082   3.629  0.2079 -0.2275 -0.3151
 1785TIP3    H2 5362   3.538   2.202   3.559  0.4940  0.3601  0.4235
 1786TIP3   OH2 5363   3.769   0.703   2.200 -0.1123 -0.0366 -0.2777
 1786TIP3    H1 5364   3.768   0.649   2.121  1.9260 -0.1070 -0.3033
 1786TIP3    H2 5365   3.857   0.741   2.202 -0.9260  1.9147  0.6673
 1787TIP3   OH2 5366   5.630   1.085   2.282  0.2290 -0.0942 -1.1031
 1787TIP3    H1 5367   5.696   1.151   2.305  0.0064 -0.5408  1.0065
 1787TIP3    H2 5368   5.556   1.103   2.339  0.0920 -2.0434 -0.5716
 1788TIP3   OH2 5369   3.184   4.216   5.138  0.2059 -0.5043  0.0646
 1788TIP3    H1 5370   3.112   4.177   5.089 -0.1141 -1.6826  1.3963
 1788TIP3    H2 5371   3.254   4.150   5.132  0.0510 -0.8257  1.4007
 1789TIP3   OH2 5372   2.187   5.307   1.280  0.6189  0.1517  0.3178
 1789TIP3    H1 5373   2.121   5.242   1.254  1.8833 -1.3755  0.8168
 1789TIP3    H2 5374   2.136   5.375   1.325 -0.8654  0.0472 -1.0943
 1790TIP3   OH2 5375   1.997   0.751   3.639 -0.2704  0.5946 -0.4546
 1790TIP3    H1 5376   1.944   0.676   3.665  0.7529 -0.5744 -1.5744
 1790TIP3    H2 5377   2.076   0.744   3.692  0.5097 -0.0691 -1.6434
 1791TIP3   OH2 5378   2.765   2.632   0.613  0.0431 -0.3126 -0.9009
 1791TIP3    H1 5379   2.710   2.710   0.604  1.0719  0.3231 -1.8992
 1791TIP3    H2 5380   2.853   2.661   0.588  0.7443 -1.4376  0.1438
 1792TIP3   OH2 5381   4.482   3.856   3.963  0.0525  0.1619 -0.1689
 1792TIP3    H1 5382   4.508   3.768   3.934  1.8149  0.7587 -0.4855
 1792TIP3    H2 5383   4.440   3.895   3.886 -2.3830 -0.9562  0.4729
 1793TIP3   OH2 5384   3.369   3.895   0.231 -0.3151  0.5324 -0.0039
 1793TIP3    H1 5385   3.437   3.954   0.263  1.4487 -1.7467  0.6321
 1793TIP3    H2 5386   3.414   3.813   0.213 -2.3783 -0.2044 -2.4322
 1794TIP3   OH2 5387   1.919   4.023   4.221  0.1585  0.3591 -0.0231
 1794TIP3    H1 5388   1.843   3.981   4.183  0.7217  0.6603 -1.5461
 1794TIP3    H2 5389   1.920   4.111   4.184  1.6149  0.1411 -0.6030
 1795TIP3   OH2 5390   1.271   2.938   0.110 -0.1083 -0.2606 -0.2964
 1795TIP3    H1 5391   1.318   2.855   0.100 -0.4990 -0.4984 -0.1988
 1795TIP3    H2 5392   1.264   2.973   0.021  3.1896  1.4615 -0.0658
 1796TIP3   OH2 5393   3.538   3.989   3.990  0.5369 -0.5796 -0.5365
 1796TIP3    H1 5394   3.517   4.028   4.074 -1.2737 -1.0869 -0.7142
 1796TIP3    H2 5395   3.456   3.989   3.942  1.4473 -0.6624 -2.1707
 1797TIP3   OH2 5396   6.026   4.465   1.343 -0.6133  0.4128 -0.0890
 1797TIP3    H1 5397   5.999   4.389   1.395 -1.5628  1.4254  0.9398
 1797TIP3    H2 5398   6.115   4.444   1.315 -0.9135 -1.1483  0.0175
 1798TIP3   OH2 5399   1.605   1.525   3.839 -0.6841 -0.0583  0.0876
 1798TIP3    H1 5400   1.632   1.616   3.830 -1.4382  0.2345  0.7045
 1798TIP3    H2 5401   1.585   1.497   3.750  1.0525 -0.1244 -0.3325
 1799TIP3   OH2 5402   4.525   0.797   0.305 -0.4442 -0.2625 -0.1840
 1799TIP3    H1 5403   4.522   0.727   0.240  0.0056 -0.4570 -0.0046
 1799TIP3    H2 5404   4.540   0.876   0.254  1.2751 -0.5782 -0.2400
 1800TIP3   OH2 5405   0.405   3.621   1.879 -0.8640  0.1112  0.0187
 1800TIP3    H1 5406   0.317   3.643   1.848 -0.6096 -0.2783 -1.0494
 1800TIP3    H2 5407   0.410   3.659   1.966 -2.1240  0.0641  0.1396
 1801TIP3   OH2 5408   4.330   2.875   2.288 -0.4074 -0.4640  0.0479
 1801TIP3    H1 5409   4.246   2.835   2.267 -0.0633 -0.3180 -1.7635
 1801TIP3    H2 5410   4.357   2.919   2.208  2.5666 -2.6117 -0.3347
 1802TIP3   OH2 5411   6.020   1.254   4.873 -0.0000 -0.0599  0.6121
 1802TIP3    H1 5412   5.960   1.182   4.893 -0.1430 -0.3132 -0.6538
 1802TIP3    H2 5413   5.962   1.330   4.860 -0.0135 -0.2059 -0.1807
 1803TIP3   OH2 5414   4.318   1.248   3.885 -0.3131 -0.2013 -0.0247
 1803TIP3    H1 5415   4.327   1.185   3.957  0.6264  0.5340  0.5315
 1803TIP3    H2 5416   4.378   1.216   3.818  1.3293  0.8422  0.8492
 1804TIP3   OH2 5417   3.965   4.573   3.444 -0.3925  0.7977 -0.0851
 1804TIP3    H1 5418   4.060   4.582   3.451 -0.3282 -0.2136  0.5643
 1804TIP3    H2 5419   3.939   4.638   3.379  0.8523  0.5411 -0.8764
 1805TIP3   OH2 5420   1.599   0.795   1.867  0.6930  0.9206  0.6225
 1805TIP3    H1 5421   1.530   0.759   1.812  1.4933  0.8785 -0.3881
 1805TIP3    H2 5422   1.553   0.834   1.941 -0.2708 -1.1631  1.1921
 1806TIP3   OH2 5423   5.879   3.917   1.934  0.3216  0.2282  0.6187
 1806TIP3    H1 5424   5.974   3.914   1.944  0.2293 -1.6658  1.3642
 1806TIP3    H2 5425   5.865   3.948   1.845  1.6321  0.3964  0.4499
 1807TIP3   OH2 5426   1.586   4.750   4.643  0.2661  0.5588  0.0572
 1807TIP3    H1 5427   1.562   4.828   4.593 -0.2364  0.3097 -0.0956
 1807TIP3    H2 5428   1.614   4.687   4.576 -0.5986  0.1561  0.0582
 1808TIP3   OH2 5429   3.420   0.948   4.942 -0.5300  0.1411 -0.8438
 1808TIP3    H1 5430   3.475   0.890   4.891 -1.6659  0.4832 -2.5496
 1808TIP3    H2 5431   3.475   0.977   5.015  1.1543 -0.3704 -1.8772
 1809TIP3   OH2 5432   4.968   2.357   4.753 -0.5409  0.1842  0.1493
 1809TIP3    H1 5433   4.877   2.336   4.733 -0.9741  0.3101  1.8517
 1809TIP3    H2 5434   4.964   2.436   4.806  0.2929 -1.3049  2.6139
 1810TIP3   OH2 5435   4.592   2.067   0.919 -0.7996  0.3952  0.5621
 1810TIP3    H1 5436   4.646   1.994   0.950  1.3491  1.9789  0.7929
 1810TIP3    H2 5437   4.534   2.087   0.992 -2.2058 -1.6954  0.1120
 1811TIP3   OH2 5438   4.096   2.485   2.996 -0.1128  0.3940 -0.4254
 1811TIP3    H1 5439   4.112   2.444   3.081  0.7338  0.7112 -0.4267
 1811TIP3    H2 5440   4.182   2.488   2.954 -0.5767 -0.0523 -1.4336
 1812TIP3   OH2 5441   3.418   3.694   1.075 -0.6179  0.1128 -0.4327
 1812TIP3    H1 5442   3.439   3.786   1.060  0.7419  0.3611  2.2511
 1812TIP3    H2 5443   3.485   3.645   1.027 -0.3780  0.5751 -0.5734
 1813TIP3   OH2 5444   0.933   5.224   1.416  0.5084 -0.4504  0.2304
 1813TIP3    H1 5445   0.933   5.270   1.500  0.9990 -0.8879  0.4736
 1813TIP3    H2 5446   0.959   5.135   1.438  0.8235 -0.5198 -0.4143
 1814TIP3   OH2 5447   2.926   2.205   2.071  0.2161 -0.1862 -0.6238
 1814TIP3    H1 5448   2.914   2.168   2.159 -0.2975 -1.6821 -1.2891
 1814TIP3    H2 5449   3.017   2.234   2.069  0.1698  0.0825  0.4703
 1815TIP3   OH2 5450   0.630   3.580   4.081 -0.6173  0.1371 -0.5273
 1815TIP3    H1 5451   0.607   3.490   4.059  0.5706 -0.8340  1.8442
 1815TIP3    H2 5452   0.722   3.576   4.107 -1.4408  1.2828  3.0912
 1816TIP3   OH2 5453   6.225   3.296   0.054 -0.2139  0.0422 -0.0675
 1816TIP3    H1 5454   6.154   3.352   0.085  1.4895  2.1478  0.3138
 1816TIP3    H2 5455   6.220   3.218   0.109 -1.7874  0.4355  0.4008
 1817TIP3   OH2 5456   6.261   5.376   1.378 -0.1768 -0.2427 -0.0781
 1817TIP3    H1 5457   6.220   5.378   1.291  1.1093  1.6678 -0.6922
 1817TIP3    H2 5458   6.242   5.288   1.411 -0.7648 -0.9955 -2.2530
 1818TIP3   OH2 5459   5.486   4.315   0.453 -0.4517 -0.0044 -0.0199
 1818TIP3    H1 5460   5.540   4.275   0.385  1.1777  0.9035  0.7024
 1818TIP3    H2 5461   5.536   4.303   0.534 -1.9678 -0.3344  0.9104
 1819TIP3   OH2 5462   1.798   1.952   0.947 -0.0403  0.6389 -0.5149
 1819TIP3    H1 5463   1.779   1.984   0.859  0.7296 -0.6146 -1.1670
 1819TIP3    H2 5464   1.893   1.959   0.955 -0.2072  1.9896  0.7440
 1820TIP3   OH2 5465   0.199   1.733   0.982  0.4280  0.1801  0.1778
 1820TIP3    H1 5466   0.155   1.694   0.906 -0.0232  0.7760  0.1211
 1820TIP3    H2 5467   0.277   1.680   0.994  0.3348 -0.1309 -0.5003
 1821TIP3   OH2 5468   1.170   5.768   0.467  0.5496 -0.1269 -0.0447
 1821TIP3    H1 5469   1.172   5.748   0.374 -1.4212  2.0735 -0.6439
 1821TIP3    H2 5470   1.081   5.799   0.483  0.9244 -0.1746  2.5275
 1822TIP3   OH2 5471   1.428   3.240   3.192 -0.5342 -0.0443 -0.6099
 1822TIP3    H1 5472   1.382   3.297   3.254 -1.6438  0.2304 -1.6448
 1822TIP3    H2 5473   1.454   3.164   3.244 -1.6167  0.0849  0.1545
 1823TIP3   OH2 5474   0.554   4.067   0.812 -0.4444  0.0593  0.7708
 1823TIP3    H1 5475   0.542   4.046   0.719 -0.2498 -1.8181  1.1266
 1823TIP3    H2 5476   0.465   4.071   0.847 -0.4885 -0.4050  0.7226
 1824TIP3   OH2 5477   1.963   4.280   2.589  0.0780 -0.2948 -0.3650
 1824TIP3    H1 5478   1.886   4.314   2.542  0.5217  0.6433 -0.4291
 1824TIP3    H2 5479   1.929   4.257   2.675 -0.3347 -0.1550 -0.4834
 1825TIP3   OH2 5480   0.900   4.335   2.078 -0.1092  0.0063  0.0970
 1825TIP3    H1 5481   0.974   4.304   2.027 -0.6039 -0.0576 -0.5986
 1825TIP3    H2 5482   0.915   4.429   2.088  0.2347 -0.0637  0.2527
 1826TIP3   OH2 5483   1.525   4.389   4.690  0.1084  0.2947 -0.6239
 1826TIP3    H1 5484   1.480   4.306   4.677 -0.5526  0.7664 -1.4126
 1826TIP3    H2 5485   1.510   4.410   4.782  0.7550 -0.7211 -0.2664
 1827TIP3   OH2 5486   0.564   3.008   2.141 -0.0725 -0.0296  0.2560
 1827TIP3    H1 5487   0.548   3.048   2.056 -1.5880  1.5852  1.2334
 1827TIP3    H2 5488   0.633   3.062   2.181  0.0218 -0.2563  0.4075
 1828TIP3   OH2 5489   0.048   0.324   4.236  0.0493  0.3279  0.5961
 1828TIP3    H1 5490   0.043   0.316   4.140  1.0845 -1.1208  0.6195
 1828TIP3    H2 5491   0.069   0.416   4.251  0.2996  0.4905 -0.6119
 1829TIP3   OH2 5492   6.096   1.228   0.945 -0.3757  0.1755 -0.1070
 1829TIP3    H1 5493   6.019   1.176   0.922 -0.2021 -0.5476  0.8673
 1829TIP3    H2 5494   6.064   1.293   1.008 -0.6421  1.4626 -1.5071
 1830TIP3   OH2 5495   4.159   4.743   1.333  0.0049  0.2283  0.3332
 1830TIP3    H1 5496   4.094   4.812   1.322 -0.5450 -0.1908  0.8973
 1830TIP3    H2 5497   4.137   4.701   1.416  0.6067 -0.3368  0.2235
 1831TIP3   OH2 5498   3.348   3.064   0.949 -0.4847  0.1916  0.1364
 1831TIP3    H1 5499   3.283   3.003   0.914  0.9408 -0.5345 -1.4226
 1831TIP3    H2 5500   3.419   3.062   0.885  1.3727  0.4314  2.0666
 1832TIP3   OH2 5501   6.047   0.569   3.413  0.4315  0.1433  0.0010
 1832TIP3    H1 5502   6.046   0.635   3.343  0.0332  0.0185 -0.1170
 1832TIP3    H2 5503   5.960   0.528   3.407  0.2749  0.3572  0.7887
 1833TIP3   OH2 5504   4.167   4.595   4.640  0.3969 -0.1250 -0.7752
 1833TIP3    H1 5505   4.124   4.553   4.565 -1.5078 -1.8918  1.1571
 1833TIP3    H2 5506   4.100   4.653   4.677  0.9567 -0.0346  0.1208
 1834TIP3   OH2 5507   2.820   4.257   0.311  0.4614  0.0267 -0.5265
 1834TIP3    H1 5508   2.901   4.281   0.356 -0.1918  0.5409  0.4255
 1834TIP3    H2 5509   2.766   4.336   0.318  0.2081 -0.0115 -1.9280
 1835TIP3   OH2 5510   2.218   3.358   4.432  0.3247 -0.6942  0.2984
 1835TIP3    H1 5511   2.309   3.386   4.441  0.6291 -1.2416 -0.8791
 1835TIP3    H2 5512   2.222   3.285   4.371 -0.9940 -0.1752 -0.4414
 1836TIP3   OH2 5513   1.638   3.679   4.652 -0.4056  0.4133  0.1454
 1836TIP3    H1 5514   1.611   3.589   4.667  0.1253  0.2591  0.2115
 1836TIP3    H2 5515   1.571   3.732   4.696 -1.5314  0.1058 -1.1334
 1837TIP3   OH2 5516   2.086   3.972   2.872 -0.0481 -0.3199  0.5670
 1837TIP3    H1 5517   2.020   4.038   2.895  0.5716  0.2064  0.8664
 1837TIP3    H2 5518   2.169   4.009   2.903  0.3336 -1.1703  0.5896
 1838TIP3   OH2 5519   3.680   4.057   3.692 -0.2004 -0.3401 -0.5150
 1838TIP3    H1 5520   3.618   4.001   3.645 -0.2265 -0.3011 -0.5269
 1838TIP3    H2 5521   3.697   4.010   3.774 -2.5848  1.0361  0.9050
 1839TIP3   OH2 5522   5.719   3.137   1.330  0.1083  0.6566 -0.8589
 1839TIP3    H1 5523   5.667   3.214   1.309 -1.4404  0.3085  1.4363
 1839TIP3    H2 5524   5.756   3.155   1.416 -1.7724 -1.8075  0.5857
 1840TIP3   OH2 5525   3.388   1.521   2.852  0.1725 -0.8931  0.3967
 1840TIP3    H1 5526   3.457   1.467   2.890 -0.3574 -0.9190  1.3417
 1840TIP3    H2 5527   3.377   1.594   2.913  2.3336  1.5519 -1.8422
 1841TIP3   OH2 5528   4.243   5.088   2.590  0.4507 -0.5874 -0.1770
 1841TIP3    H1 5529   4.204   5.162   2.636 -0.8217 -2.0225  1.2117
 1841TIP3    H2 5530   4.332   5.082   2.626  0.4489  0.0588 -0.0531
 1842TIP3   OH2 5531   5.003   5.688   2.252 -0.2742  0.0840 -0.1329
 1842TIP3    H1 5532   5.091   5.652   2.261 -0.1905  0.1704 -0.5925
 1842TIP3    H2 5533   4.952   5.647   2.323  0.5862  1.4437  1.3417
 1843TIP3   OH2 5534   1.110   4.988   0.739  0.1741  1.2244  0.2718
 1843TIP3    H1 5535   1.189   4.951   0.698  0.2188  2.4845 -0.8251
 1843TIP3    H2 5536   1.085   5.061   0.682 -0.9825  1.7228  1.3764
 1844TIP3   OH2 5537   2.048   4.937   4.294  0.1103 -0.2872 -0.1387
 1844TIP3    H1 5538   2.051   4.844   4.273  2.5468 -0.0690 -1.0959
 1844TIP3    H2 5539   2.060   4.981   4.210  2.2023  0.7773  0.6316
 1845TIP3   OH2 5540   0.730   0.327   3.593  0.3759  0.2662  0.2610
 1845TIP3    H1 5541   0.695   0.238   3.586  1.9078 -0.4529  1.2140
 1845TIP3    H2 5542   0.825   0.316   3.595  0.6584  2.0422 -0.8366
 1846TIP3   OH2 5543   0.448   3.266   1.658  0.0468  0.1330 -0.1846
 1846TIP3    H1 5544   0.421   3.357   1.651 -1.9908 -0.3569  0.5411
 1846TIP3    H2 5545   0.487   3.245   1.573 -0.6293  1.3171 -0.8084
 1847TIP3   OH2 5546   1.273   5.857   3.290 -0.0112 -0.1619 -0.0728
 1847TIP3    H1 5547   1.369   5.858   3.283  0.0129 -0.8317  0.1032
 1847TIP3    H2 5548   1.250   5.947   3.312  0.4025  0.5616 -2.3047
 1848TIP3   OH2 5549   5.127   2.871   3.304  0.4134  0.0959 -0.1369
 1848TIP3    H1 5550   5.086   2.791   3.273  0.6148  0.0184 -0.2056
 1848TIP3    H2 5551   5.088   2.940   3.250 -1.3821  0.3321  1.3762
 1849TIP3   OH2 5552   4.935   1.465   1.856 -0.3650 -0.2248 -0.3086
 1849TIP3    H1 5553   5.022   1.436   1.827 -0.6506  0.0656 -1.5374
 1849TIP3    H2 5554   4.951   1.548   1.900  0.0776 -0.6140  0.2802
 1850TIP3   OH2 5555   3.959   0.140   2.163  0.2412  0.4900 -0.3013
 1850TIP3    H1 5556   3.969   0.061   2.109  0.7872  0.7013 -0.5205
 1850TIP3    H2 5557   3.866   0.145   2.181 -0.0572  0.7731 -1.7949
 1851TIP3   OH2 5558   4.735   0.890   2.666 -0.1522  0.4048  0.5417
 1851TIP3    H1 5559   4.785   0.838   2.729  2.0290  1.8213  0.1169
 1851TIP3    H2 5560   4.726   0.976   2.707 -2.1247  0.2659  0.4945
 1852TIP3   OH2 5561   4.283   3.745   0.104 -0.5024  0.4578  0.0217
 1852TIP3    H1 5562   4.268   3.820   0.162 -1.7547  0.3592 -0.1523
 1852TIP3    H2 5563   4.215   3.753   0.037 -1.1839 -1.3025  0.4692
 1853TIP3   OH2 5564   2.363   5.698   3.245 -0.0289 -0.1602 -0.0296
 1853TIP3    H1 5565   2.294   5.725   3.185 -0.6461  0.5524  0.9802
 1853TIP3    H2 5566   2.428   5.769   3.242 -1.3218  1.2046  2.0990
 1854TIP3   OH2 5567   5.266   5.045   2.096  0.0275  0.0029 -0.0777
 1854TIP3    H1 5568   5.315   5.105   2.152  1.7080 -0.6755 -0.7576
 1854TIP3    H2 5569   5.196   5.099   2.058  1.0131  1.3400 -0.0485
 1855TIP3   OH2 5570   5.794   1.651   3.893 -0.8838  0.2449  0.3540
 1855TIP3    H1 5571   5.744   1.576   3.924  0.8029 -1.5366 -1.0095
 1855TIP3    H2 5572   5.812   1.632   3.801  1.1417  1.4333  0.4542
 1856TIP3   OH2 5573   5.403   2.484   3.840  0.6235 -0.1710  0.0489
 1856TIP3    H1 5574   5.314   2.465   3.870  0.5184  2.6527  1.9085
 1856TIP3    H2 5575   5.395   2.490   3.744 -1.4375  0.8628  0.2132
 1857TIP3   OH2 5576   2.854   0.132   0.888 -0.5781  0.1110 -0.6073
 1857TIP3    H1 5577   2.934   0.163   0.930 -0.2722 -0.7539 -0.5146
 1857TIP3    H2 5578   2.784   0.160   0.946 -0.2900  0.3900 -0.3917
 1858TIP3   OH2 5579   0.942   2.037   1.075 -0.0427  0.1673  0.3918
 1858TIP3    H1 5580   0.925   1.961   1.020  0.2324 -0.6858  1.4646
 1858TIP3    H2 5581   0.937   2.004   1.165 -0.2178  1.4723  0.8890
 1859TIP3   OH2 5582   3.967   3.533   0.943 -0.5343  0.3895  0.4284
 1859TIP3    H1 5583   4.056   3.558   0.919 -0.1546  0.4976  1.8607
 1859TIP3    H2 5584   3.921   3.616   0.956 -0.4801  0.3321  0.9768
 1860TIP3   OH2 5585   6.093   3.237   3.293  0.2526  0.0097 -0.7083
 1860TIP3    H1 5586   6.064   3.157   3.337 -5.0962  2.7337  1.6067
 1860TIP3    H2 5587   6.059   3.229   3.204 -1.7710  0.3233  0.0077
 1861TIP3   OH2 5588   3.648   0.846   4.318 -0.5525  0.0474  0.0842
 1861TIP3    H1 5589   3.593   0.905   4.370 -1.6207 -0.5471 -0.3282
 1861TIP3    H2 5590   3.659   0.891   4.235 -0.7351  0.0086  0.0374
 1862TIP3   OH2 5591   5.785   3.060   5.127 -0.4431 -0.0560 -0.4184
 1862TIP3    H1 5592   5.789   3.067   5.031 -1.5331  0.7875 -0.4307
 1862TIP3    H2 5593   5.758   2.970   5.143  1.7418 -0.8391 -0.7961
 1863TIP3   OH2 5594   1.741   2.198   4.138 -0.0978 -0.5284 -0.5143
 1863TIP3    H1 5595   1.809   2.181   4.074  1.3632 -0.1706  0.8701
 1863TIP3    H2 5596   1.778   2.166   4.221 -0.9213  1.1694  0.5636
 1864TIP3   OH2 5597   2.687   3.067   3.751  0.0381  0.6159  0.3923
 1864TIP3    H1 5598   2.730   2.990   3.713  0.2200 -0.0693  1.9094
 1864TIP3    H2 5599   2.682   3.047   3.845 -0.1263  2.3599  0.7754
 1865TIP3   OH2 5600   5.577   1.251   5.040  0.3213  0.3418 -0.1181
 1865TIP3    H1 5601   5.508   1.218   5.097  1.4907  0.9805  1.7414
 1865TIP3    H2 5602   5.658   1.231   5.087  1.3415  0.7896 -1.6306
 1866TIP3   OH2 5603   5.342   2.777   2.346 -0.7308  0.1439  0.7501
 1866TIP3    H1 5604   5.288   2.753   2.270  0.8631 -1.4977  0.0484
 1866TIP3    H2 5605   5.386   2.696   2.370  1.9950  1.5150  0.7891
 1867TIP3   OH2 5606   3.926   4.133   3.164  0.1271  0.3452  0.5618
 1867TIP3    H1 5607   3.942   4.060   3.224 -1.1884 -0.2346  0.2444
 1867TIP3    H2 5608   3.964   4.209   3.208  1.6539 -0.5307  0.8345
 1868TIP3   OH2 5609   1.765   2.781   3.178  0.0235 -0.0636  0.5311
 1868TIP3    H1 5610   1.687   2.783   3.123  0.3240 -0.0911  0.0896
 1868TIP3    H2 5611   1.833   2.747   3.120 -0.2260 -2.7355  1.6732
 1869TIP3   OH2 5612   1.315   4.584   0.121  0.1148 -0.2337  0.0697
 1869TIP3    H1 5613   1.294   4.561   0.031 -1.6500 -2.0898  0.8855
 1869TIP3    H2 5614   1.283   4.510   0.174  0.0984  1.2640  2.3179
 1870TIP3   OH2 5615   3.081   5.359   0.169 -0.1705  0.4844  0.6063
 1870TIP3    H1 5616   3.140   5.284   0.172 -0.2811  0.3525 -0.2490
 1870TIP3    H2 5617   3.098   5.399   0.083 -1.4428  0.3433  0.2799
 1871TIP3   OH2 5618   2.644   5.005   4.817 -0.0201 -0.5737  0.1764
 1871TIP3    H1 5619   2.667   5.048   4.899  0.0851  0.7045 -0.5006
 1871TIP3    H2 5620   2.571   5.056   4.782  0.2226 -0.8235 -0.7351
 1872TIP3   OH2 5621   3.066   2.233   2.895 -0.2640  0.3865 -0.0796
 1872TIP3    H1 5622   3.154   2.268   2.883 -0.4100  1.0814  0.7891
 1872TIP3    H2 5623   3.078   2.138   2.896  0.6915  0.4884  1.4758
 1873TIP3   OH2 5624   5.524   1.560   2.796  0.0059  0.0118 -0.3349
 1873TIP3    H1 5625   5.544   1.652   2.814  0.8961 -0.4771  1.3875
 1873TIP3    H2 5626   5.507   1.522   2.882 -1.7453 -1.1514 -1.1436
 1874TIP3   OH2 5627   3.862   0.215   4.420 -0.2514 -0.4852  0.2363
 1874TIP3    H1 5628   3.767   0.231   4.421 -0.2241 -0.2393  1.7284
 1874TIP3    H2 5629   3.899   0.290   4.373 -0.9843 -2.2422 -3.5264
 1875TIP3   OH2 5630   2.955   0.662   1.313 -0.4063 -0.1503 -0.4199
 1875TIP3    H1 5631   2.916   0.607   1.245  2.2032 -2.5193 -0.2241
 1875TIP3    H2 5632   2.942   0.612   1.394 -0.0782  0.7394  0.1991
 1876TIP3   OH2 5633   6.004   5.134   3.095  0.1767  0.4960 -0.1302
 1876TIP3    H1 5634   5.982   5.091   3.012  0.2717 -0.3154  0.2523
 1876TIP3    H2 5635   5.919   5.162   3.130 -0.1420 -1.2435  0.5949
 1877TIP3   OH2 5636   1.362   2.072   3.394 -0.5346 -0.0917 -0.1837
 1877TIP3    H1 5637   1.372   1.978   3.379 -0.3095 -0.2277  0.7473
 1877TIP3    H2 5638   1.268   2.086   3.400 -0.5743 -0.2374 -0.4647
 1878TIP3   OH2 5639   4.551   1.543   2.470 -0.5566 -0.3894  0.3102
 1878TIP3    H1 5640   4.455   1.548   2.466 -0.8311 -3.5615 -0.1140
 1878TIP3    H2 5641   4.578   1.625   2.511 -3.2028  1.7738 -1.8823
 1879TIP3   OH2 5642   0.691   1.223   0.044 -0.3753  0.0949 -0.1264
 1879TIP3    H1 5643   0.677   1.317   0.058  0.2219  0.0980  0.4584
 1879TIP3    H2 5644   0.722   1.190   0.128  1.1536 -0.2870 -0.8022
 1880TIP3   OH2 5645   5.159   5.158   0.584  0.3548 -0.5035 -0.2871
 1880TIP3    H1 5646   5.081   5.172   0.637  0.7692 -1.2695  0.5520
 1880TIP3    H2 5647   5.173   5.064   0.585  1.1269 -0.4020 -0.6647
 1881TIP3   OH2 5648   0.907   4.417   0.540  0.2023  0.2416 -0.2330
 1881TIP3    H1 5649   0.823   4.416   0.495 -0.6105 -2.1244  1.2052
 1881TIP3    H2 5650   0.923   4.510   0.559 -1.5266  0.8325 -1.4829
 1882TIP3   OH2 5651   4.530   4.185   2.870  0.3951  0.0923  0.0404
 1882TIP3    H1 5652   4.464   4.118   2.853  0.6828 -0.6211  1.5373
 1882TIP3    H2 5653   4.482   4.268   2.866 -0.5442 -0.3895  0.7827
 1883TIP3   OH2 5654   1.329   1.427   0.980 -0.1137 -0.0337 -0.2843
 1883TIP3    H1 5655   1.297   1.517   0.987  1.6096  0.5812  0.2249
 1883TIP3    H2 5656   1.358   1.419   0.889  0.8318  0.3335 -0.0230
 1884TIP3   OH2 5657   0.774   3.413   1.689 -0.8404 -0.3104 -0.2613
 1884TIP3    H1 5658   0.796   3.330   1.731  0.7749  0.4774  0.5468
 1884TIP3    H2 5659   0.844   3.427   1.625  0.3607  1.5979  1.3745
 1885TIP3   OH2 5660   4.642   4.033   4.846 -0.1636 -0.3109 -0.0326
 1885TIP3    H1 5661   4.557   4.002   4.877  0.1311 -2.6707 -1.3242
 1885TIP3    H2 5662   4.703   3.962   4.869  1.4103  1.1405  0.5043
 1886TIP3   OH2 5663   3.457   1.819   3.008 -0.6814  0.1355  1.1040
 1886TIP3    H1 5664   3.466   1.915   3.004  0.9117  0.1108  2.9351
 1886TIP3    H2 5665   3.450   1.800   3.102  0.8285 -1.6816  0.8901
 1887TIP3   OH2 5666   0.410   0.118   2.150 -0.2434 -0.4051 -0.0043
 1887TIP3    H1 5667   0.332   0.115   2.205  0.9293  0.1589  1.7968
 1887TIP3    H2 5668   0.413   0.207   2.116  0.1043 -0.1024  0.7660
 1888TIP3   OH2 5669   2.036   0.771   3.366  0.0700  0.5106 -0.3314
 1888TIP3    H1 5670   1.991   0.759   3.449 -1.0919  3.6901 -0.3723
 1888TIP3    H2 5671   2.129   0.761   3.387 -0.3209 -1.1184  0.7994
 1889TIP3   OH2 5672   3.039   5.804   2.750 -0.5006 -0.0907  0.0234
 1889TIP3    H1 5673   3.040   5.789   2.845  1.5523 -0.4265 -0.0171
 1889TIP3    H2 5674   3.123   5.847   2.732 -0.6922 -0.3997 -1.7083
 1890TIP3   OH2 5675   5.361   3.834   1.393 -0.5490 -0.2006 -0.1581
 1890TIP3    H1 5676   5.358   3.830   1.298 -1.1736  1.3919 -0.2294
 1890TIP3    H2 5677   5.284   3.785   1.422 -1.2669  0.6768 -0.5396
 1891TIP3   OH2 5678   0.383   1.866   0.713 -0.1277 -0.0036 -0.0325
 1891TIP3    H1 5679   0.467   1.851   0.756  0.6387  1.1376 -1.0950
 1891TIP3    H2 5680   0.369   1.960   0.717 -0.4483  0.0415 -1.5074
 1892TIP3   OH2 5681   2.425   3.841   4.004  0.4034 -0.1283  0.2051
 1892TIP3    H1 5682   2.468   3.772   4.055 -0.1799 -0.8513 -0.2553
 1892TIP3    H2 5683   2.415   3.802   3.917 -0.6209  0.2582  0.1484
 1893TIP3   OH2 5684   3.150   3.646   0.707  0.6043  0.1422  0.4457
 1893TIP3    H1 5685   3.085   3.714   0.687 -1.0945 -1.2477  0.9820
 1893TIP3    H2 5686   3.168   3.657   0.800 -1.1423 -1.2629  1.0094
 1894TIP3   OH2 5687   4.204   5.793   5.130 -0.4175  0.0965  0.2509
 1894TIP3    H1 5688   4.173   5.758   5.047  1.0450 -0.8557  0.0582
 1894TIP3    H2 5689   4.155   5.744   5.196 -1.2650  0.5397 -0.0369
 1895TIP3   OH2 5690   5.915   4.274   0.584 -0.0525  0.1227  0.5992
 1895TIP3    H1 5691   5.963   4.319   0.514 -0.7262 -1.6253 -1.0478
 1895TIP3    H2 5692   5.981   4.260   0.652  1.1148  0.1582 -0.4778
 1896TIP3   OH2 5693   6.316   3.042   3.303 -0.3744  0.1409  0.5025
 1896TIP3    H1 5694   6.321   3.117   3.243  1.0570 -0.7700 -0.5905
 1896TIP3    H2 5695   6.328   2.966   3.246 -0.7163 -0.8606  1.7329
 1897TIP3   OH2 5696   1.776   3.922   1.702 -0.0311 -0.4372 -0.0785
 1897TIP3    H1 5697   1.861   3.945   1.664  1.0536 -2.5676  0.8689
 1897TIP3    H2 5698   1.791   3.924   1.797 -0.9116 -1.2771  0.0882
 1898TIP3   OH2 5699   3.411   0.251   1.597  0.3261  0.3502 -0.4581
 1898TIP3    H1 5700   3.387   0.329   1.648 -0.3978 -0.1891  0.0443
 1898TIP3    H2 5701   3.495   0.273   1.557  0.9174  0.7816  0.9871
 1899TIP3   OH2 5702   5.931   1.121   0.040  0.4974 -0.0636  0.6209
 1899TIP3    H1 5703   5.860   1.069   0.077  0.1665  0.1860  0.3391
 1899TIP3    H2 5704   5.983   1.057  -0.010 -1.3604  0.2541 -1.9277
 1900TIP3   OH2 5705   4.043   2.759   3.118  0.3758  0.0287  0.7867
 1900TIP3    H1 5706   4.083   2.784   3.035 -0.6476 -0.7226  0.0367
 1900TIP3    H2 5707   4.073   2.669   3.133 -2.6503 -1.4396 -0.9505
 1901TIP3   OH2 5708   1.782   0.380   3.308 -0.2038  0.1575  0.6970
 1901TIP3    H1 5709   1.848   0.408   3.245 -0.0811  0.3335  0.9021
 1901TIP3    H2 5710   1.726   0.319   3.260  0.8545 -0.9796  0.8712
 1902TIP3   OH2 5711   1.973   4.418   3.118 -0.1998 -0.8974  0.1632
 1902TIP3    H1 5712   1.907   4.421   3.187 -0.2883  0.8623  0.0527
 1902TIP3    H2 5713   2.031   4.492   3.137  0.2396 -0.8569 -1.1798
 1903TIP3   OH2 5714   2.584   1.174   3.664  0.4436  0.1475  0.7538
 1903TIP3    H1 5715   2.544   1.216   3.740 -0.4637  1.7959 -0.5512
 1903TIP3    H2 5716   2.518   1.181   3.595  1.8803  0.3107 -0.6803
 1904TIP3   OH2 5717   2.113   3.439   3.780 -0.3430 -0.7219  0.0589
 1904TIP3    H1 5718   2.207   3.430   3.791 -0.3440  0.0836  0.8498
 1904TIP3    H2 5719   2.098   3.431   3.685  0.5673 -0.4215 -0.1157
 1905TIP3   OH2 5720   0.174   2.178   1.434  0.3167  0.5477  0.1360
 1905TIP3    H1 5721   0.253   2.133   1.404  0.5566  0.5923  0.6775
 1905TIP3    H2 5722   0.157   2.141   1.521  0.2666  1.1829  0.4064
 1906TIP3   OH2 5723   3.719   3.064   4.262 -0.7869  0.3408 -0.4640
 1906TIP3    H1 5724   3.787   2.997   4.261 -1.4701 -0.3558 -1.0050
 1906TIP3    H2 5725   3.757   3.135   4.313 -0.2777 -0.7077  0.6854
 1907TIP3   OH2 5726   5.297   0.121   2.352  0.4573 -0.7445 -0.9273
 1907TIP3    H1 5727   5.343   0.050   2.309  0.5049 -1.1465 -0.2365
 1907TIP3    H2 5728   5.229   0.078   2.405 -0.1931 -0.2128 -1.3060
 1908TIP3   OH2 5729   4.113   2.854   4.410  0.9794 -0.3475  0.0198
 1908TIP3    H1 5730   4.064   2.772   4.411 -1.9157  1.2293 -0.5769
 1908TIP3    H2 5731   4.156   2.856   4.325  2.6409 -2.0038  0.7558
 1909TIP3   OH2 5732   0.467   4.906   0.363 -0.2087 -0.2905  0.4378
 1909TIP3    H1 5733   0.544   4.862   0.327  0.7608  0.4546  1.5153
 1909TIP3    H2 5734   0.393   4.852   0.334  0.7743 -1.5087  0.0804
 1910TIP3   OH2 5735   3.303   1.959   3.965 -0.1681 -0.4867  0.3762
 1910TIP3    H1 5736   3.273   1.899   4.033  2.3920 -0.3777  1.7510
 1910TIP3    H2 5737   3.285   2.046   4.000  0.3075 -0.4406  0.5165
 1911TIP3   OH2 5738   2.447   1.940   3.177  0.5154 -0.4383  0.0345
 1911TIP3    H1 5739   2.464   1.860   3.227  0.8591 -1.2727 -1.3619
 1911TIP3    H2 5740   2.402   1.910   3.098 -0.3882  0.8884  0.0192
 1912TIP3   OH2 5741   5.026   4.693   0.360 -0.4940 -0.4277  0.0160
 1912TIP3    H1 5742   5.037   4.685   0.454  3.0715 -0.6041 -0.2675
 1912TIP3    H2 5743   5.023   4.603   0.328 -0.9482 -0.3680 -0.1216
 1913TIP3   OH2 5744   4.958   5.479   0.297 -0.2539  0.3772 -0.5509
 1913TIP3    H1 5745   4.997   5.520   0.374 -0.9140 -0.7615  0.4364
 1913TIP3    H2 5746   4.949   5.550   0.234  1.9052  1.0060 -0.2480
 1914TIP3   OH2 5747   6.255   0.042   1.433  0.5981 -0.1180  0.0297
 1914TIP3    H1 5748   6.319   0.012   1.496  1.5949 -0.6418 -1.1956
 1914TIP3    H2 5749   6.271  -0.010   1.355 -1.1587 -0.0864 -0.4040
 1915TIP3   OH2 5750   6.173   5.961   2.549 -0.5086  0.0241 -0.3185
 1915TIP3    H1 5751   6.135   5.886   2.504 -0.1027  0.6152 -1.6760
 1915TIP3    H2 5752   6.265   5.963   2.522  0.2474 -0.6548  1.9516
 1916TIP3   OH2 5753   2.846   1.331   3.904  0.0728  0.2406  0.0071
 1916TIP3    H1 5754   2.866   1.249   3.949  1.2938  0.0439 -0.8457
 1916TIP3    H2 5755   2.752   1.326   3.885 -0.4987  0.3585  2.5301
 1917TIP3   OH2 5756   1.126   4.057   2.112 -0.0207 -0.0273 -0.1725
 1917TIP3    H1 5757   1.122   3.997   2.037 -3.1413 -0.4091  0.1582
 1917TIP3    H2 5758   1.182   4.011   2.176 -0.6491 -1.6361 -0.7224
 1918TIP3   OH2 5759   4.141   5.545   0.856  0.6027  0.4528 -0.0518
 1918TIP3    H1 5760   4.163   5.520   0.946  1.7063  1.0998 -0.1215
 1918TIP3    H2 5761   4.090   5.471   0.823  3.0411 -1.4127  0.0026
 1919TIP3   OH2 5762   5.604   3.106   3.236  0.4495  0.1750  0.0098
 1919TIP3    H1 5763   5.678   3.047   3.223 -1.1603 -1.9001 -0.2468
 1919TIP3    H2 5764   5.556   3.070   3.310  0.1278  1.9722  0.7286
 1920TIP3   OH2 5765   1.940   2.498   4.383 -0.0905 -0.6893  0.3077
 1920TIP3    H1 5766   1.977   2.575   4.427 -2.2218 -1.0326  2.9312
 1920TIP3    H2 5767   1.885   2.534   4.314  0.2091  0.0758  0.4559
 1921TIP3   OH2 5768   3.027   3.010   0.607  0.9347 -0.1014  0.5653
 1921TIP3    H1 5769   3.082   3.030   0.532 -1.0904  1.3658 -0.6153
 1921TIP3    H2 5770   2.966   2.944   0.576 -0.1502  0.7711  0.7531
 1922TIP3   OH2 5771   3.403   2.436   5.128  0.1919  0.3237  0.1784
 1922TIP3    H1 5772   3.490   2.405   5.104  0.0216 -1.5284  1.6979
 1922TIP3    H2 5773   3.408   2.531   5.118  2.2902  0.2355 -0.0666
 1923TIP3   OH2 5774   0.182   3.812   1.189 -0.2904  0.1149  0.1066
 1923TIP3    H1 5775   0.262   3.763   1.201 -0.6950 -0.8873 -1.0580
 1923TIP3    H2 5776   0.139   3.771   1.114 -1.4947  1.1441  0.1820
 1924TIP3   OH2 5777   4.893   0.365   1.311 -0.0079 -0.1709 -0.2380
 1924TIP3    H1 5778   4.834   0.290   1.303 -1.2159  0.6260  0.8879
 1924TIP3    H2 5779   4.836   0.442   1.306  1.1078  0.6605 -0.5247
 1925TIP3   OH2 5780   2.330   2.145   1.822 -0.2540  0.9542 -0.4992
 1925TIP3    H1 5781   2.388   2.086   1.870 -0.3303  1.8180  0.7164
 1925TIP3    H2 5782   2.338   2.118   1.731  0.3122 -0.4041 -0.0786
 1926TIP3   OH2 5783   5.595   0.780   0.056  0.4362  0.3379  0.0017
 1926TIP3    H1 5784   5.649   0.820   0.124 -0.9329  0.4780  1.0679
 1926TIP3    H2 5785   5.597   0.686   0.076 -0.4073  0.4346  0.6015
 1927TIP3   OH2 5786   0.313   0.312   3.674  0.2514  0.0860  0.5587
 1927TIP3    H1 5787   0.288   0.348   3.759  0.0314  0.5735  0.2961
 1927TIP3    H2 5788   0.289   0.381   3.612  1.4824  0.2087  0.2070
 1928TIP3   OH2 5789   5.594   0.414   3.240 -0.5198  0.5234  0.1673
 1928TIP3    H1 5790   5.598   0.396   3.146 -0.1962  0.3724  0.2098
 1928TIP3    H2 5791   5.515   0.467   3.251 -0.9990 -0.1226 -0.0796
 1929TIP3   OH2 5792   4.480   1.980   2.811  0.7827 -0.5403  0.2517
 1929TIP3    H1 5793   4.457   1.898   2.855  0.9930 -0.9034 -0.2985
 1929TIP3    H2 5794   4.398   2.030   2.809  1.1082  0.2045  2.4991
 1930TIP3   OH2 5795   1.890   3.697   3.176 -0.0965  0.0917  0.0292
 1930TIP3    H1 5796   1.811   3.737   3.140  0.4769  1.5021  0.2969
 1930TIP3    H2 5797   1.858   3.620   3.223 -1.0186 -1.0411 -2.2634
 1931TIP3   OH2 5798   5.784   4.144   4.951  0.0907 -0.0034  0.1180
 1931TIP3    H1 5799   5.692   4.169   4.949 -0.4226 -1.7965 -0.6123
 1931TIP3    H2 5800   5.818   4.184   5.031 -0.9423  1.8334 -0.2965
 1932TIP3   OH2 5801   1.196   0.735   5.059  0.2594  0.5611  0.3873
 1932TIP3    H1 5802   1.135   0.703   5.125  0.4851  1.1457  0.8924
 1932TIP3    H2 5803   1.224   0.820   5.092 -0.4752  1.3789 -1.0033
 1933TIP3   OH2 5804   6.245   0.169   4.663  0.4803  0.6828  0.2697
 1933TIP3    H1 5805   6.198   0.085   4.667  0.4932  0.6968  0.7516
 1933TIP3    H2 5806   6.205   0.215   4.589  0.9572 -0.0376 -0.4510
 1934TIP3   OH2 5807   5.732   3.494   3.815 -0.1017  0.1814  0.0276
 1934TIP3    H1 5808   5.686   3.477   3.733 -0.8359 -1.9885  0.8243
 1934TIP3    H2 5809   5.702   3.581   3.842 -1.0904  0.2477 -1.1881
 1935TIP3   OH2 5810   3.792   4.370   4.685 -0.4663  0.3611  1.0263
 1935TIP3    H1 5811   3.820   4.303   4.747 -0.4363 -1.4748 -0.8512
 1935TIP3    H2 5812   3.861   4.372   4.619  0.0466  3.0413  1.5205
 1936TIP3   OH2 5813   4.132   0.322   3.506  0.4544 -0.1953  0.2472
 1936TIP3    H1 5814   4.189   0.353   3.435  1.1279  0.5528  1.0956
 1936TIP3    H2 5815   4.048   0.306   3.463  1.2058 -1.0449 -0.9725
 1937TIP3   OH2 5816   1.752   0.568   3.525 -0.4714  0.2056  0.3941
 1937TIP3    H1 5817   1.745   0.499   3.459  0.1482  0.2669  0.2622
 1937TIP3    H2 5818   1.676   0.625   3.509  0.5045  1.0961 -1.2721
 1938TIP3   OH2 5819   4.735   5.842   2.078  1.1711 -0.0567 -0.1009
 1938TIP3    H1 5820   4.742   5.937   2.086 -1.3698  0.3015 -0.9933
 1938TIP3    H2 5821   4.729   5.811   2.168 -2.5191  1.2260  0.2906
 1939TIP3   OH2 5822   3.532   4.088   3.218  0.0640 -0.3382 -0.5995
 1939TIP3    H1 5823   3.574   4.003   3.202 -1.0162 -0.7921 -1.2125
 1939TIP3    H2 5824   3.487   4.077   3.302  1.0993  0.1276  0.0291
 1940TIP3   OH2 5825   2.829   0.843   4.553  0.1198  0.4141  0.6217
 1940TIP3    H1 5826   2.740   0.825   4.522  0.1785  1.5042 -0.2440
 1940TIP3    H2 5827   2.885   0.822   4.479  0.4683  0.9150  0.7390
 1941TIP3   OH2 5828   1.832   0.197   3.781  0.1069 -0.0284 -0.2127
 1941TIP3    H1 5829   1.861   0.209   3.690  1.1329 -0.2814  0.0624
 1941TIP3    H2 5830   1.834   0.285   3.818 -0.1610  0.0540 -0.3937
 1942TIP3   OH2 5831   6.041   5.390   4.996  0.0290 -0.1143  0.0027
 1942TIP3    H1 5832   6.007   5.344   4.919  0.6397  1.0456 -1.0038
 1942TIP3    H2 5833   5.986   5.360   5.068 -0.9419 -0.8056 -0.9853
 1943TIP3   OH2 5834   4.525   4.383   2.604  0.3402  0.1215 -0.8247
 1943TIP3    H1 5835   4.561   4.294   2.602 -0.3382 -0.1593 -0.6500
 1943TIP3    H2 5836   4.476   4.391   2.523 -0.5259 -0.0575 -0.3248
 1944TIP3   OH2 5837   2.390   3.120   2.821  0.1743  0.3367 -0.3880
 1944TIP3    H1 5838   2.479   3.143   2.848  1.0878 -1.8858 -1.2628
 1944TIP3    H2 5839   2.336   3.191   2.855  2.1004  1.1163  1.3051
 1945TIP3   OH2 5840   5.564   2.514   5.102 -0.0703 -0.0768  0.5598
 1945TIP3    H1 5841   5.579   2.423   5.078 -1.5419 -0.1049 -0.3114
 1945TIP3    H2 5842   5.523   2.553   5.025 -0.2585  1.1063  1.2378
 1946TIP3   OH2 5843   3.948   2.781   2.654  0.3005  0.5448  0.4208
 1946TIP3    H1 5844   3.921   2.751   2.741 -0.6329 -0.6916 -0.2677
 1946TIP3    H2 5845   3.997   2.862   2.671  0.7543 -0.0396  2.1447
 1947TIP3   OH2 5846   5.361   0.825   1.312 -0.2018 -0.3028  0.3626
 1947TIP3    H1 5847   5.346   0.733   1.331 -1.4423  0.2314  2.2074
 1947TIP3    H2 5848   5.276   0.867   1.325 -0.1079  0.8835 -2.1538
 1948TIP3   OH2 5849   5.354   2.507   3.285  0.1457 -0.0681 -0.2959
 1948TIP3    H1 5850   5.387   2.430   3.237  0.0186  0.4065 -1.1722
 1948TIP3    H2 5851   5.392   2.581   3.239 -0.0953  0.4130  0.2714
 1949TIP3   OH2 5852   2.046   5.470   1.426 -0.0510 -0.2192  0.0076
 1949TIP3    H1 5853   1.952   5.451   1.429 -0.0840 -0.4457 -1.5297
 1949TIP3    H2 5854   2.060   5.535   1.495 -0.9902 -1.5365  1.5192
 1950TIP3   OH2 5855   5.414   2.104   0.609 -0.6817  0.3748  0.0331
 1950TIP3    H1 5856   5.416   2.044   0.683  1.4186 -0.1019 -0.3639
 1950TIP3    H2 5857   5.396   2.049   0.533 -0.2407  0.4685 -0.1418
 1951TIP3   OH2 5858   4.015   1.059   0.122 -0.1084  0.3038 -0.1294
 1951TIP3    H1 5859   4.054   1.145   0.134  0.0455  0.5062 -1.8794
 1951TIP3    H2 5860   3.920   1.075   0.123 -0.0798  0.4963 -0.4329
 1952TIP3   OH2 5861   0.348   2.671   0.891 -0.1507  0.0149 -0.3004
 1952TIP3    H1 5862   0.278   2.607   0.904 -1.4538  1.7969  2.5894
 1952TIP3    H2 5863   0.410   2.652   0.961  0.0339  1.1398 -0.1451
 1953TIP3   OH2 5864   2.325   5.905   4.693  0.4119 -1.1135 -0.4151
 1953TIP3    H1 5865   2.400   5.896   4.634 -1.2098 -1.9348 -2.4811
 1953TIP3    H2 5866   2.248   5.890   4.637 -1.4028  1.0171  1.3001
 1954TIP3   OH2 5867   1.064   4.918   1.585  0.9259 -0.1018  0.0539
 1954TIP3    H1 5868   1.034   4.838   1.629  0.1625 -0.6004 -1.3153
 1954TIP3    H2 5869   1.159   4.917   1.593  0.8305 -0.3623  1.3426
 1955TIP3   OH2 5870   0.699   2.628   5.099  0.4305  0.8108 -0.3851
 1955TIP3    H1 5871   0.701   2.590   5.012  0.7773  2.8399 -1.3170
 1955TIP3    H2 5872   0.662   2.716   5.086 -1.7570  0.3461  1.8513
 1956TIP3   OH2 5873   4.618   5.466   3.021  0.0201  0.1798 -1.1304
 1956TIP3    H1 5874   4.634   5.464   3.115  0.1490  3.7752 -0.9264
 1956TIP3    H2 5875   4.524   5.457   3.012 -0.0239  0.0906 -0.6104
 1957TIP3   OH2 5876   4.075   1.242   4.886  0.3262 -0.1198  0.2990
 1957TIP3    H1 5877   4.030   1.213   4.807  0.8335 -1.7730  0.5730
 1957TIP3    H2 5878   4.043   1.183   4.955  0.4257  0.8367  1.1859
 1958TIP3   OH2 5879   2.195   1.535   3.785 -0.3710  0.6938  0.4953
 1958TIP3    H1 5880   2.183   1.467   3.718 -2.0703  0.2868  1.1444
 1958TIP3    H2 5881   2.148   1.611   3.751 -0.1969  0.8849  0.6796
 1959TIP3   OH2 5882   3.096   2.252   3.482  0.5761  0.5329 -0.7640
 1959TIP3    H1 5883   3.084   2.333   3.433 -0.7796  0.2590 -0.9262
 1959TIP3    H2 5884   3.008   2.228   3.512  1.1195 -0.2441  0.3128
 1960TIP3   OH2 5885   5.630   3.361   0.189  0.0834  0.0090 -0.3456
 1960TIP3    H1 5886   5.608   3.313   0.110  0.0906  0.5939 -0.7099
 1960TIP3    H2 5887   5.547   3.394   0.222 -0.1106 -1.4694  0.7229
 1961TIP3   OH2 5888   2.941   2.547   3.690 -0.4416  0.3103  0.2836
 1961TIP3    H1 5889   2.919   2.491   3.616  1.0800 -1.4008  1.0364
 1961TIP3    H2 5890   2.892   2.509   3.764  0.2144  0.2784  0.7082
 1962TIP3   OH2 5891   3.407   1.591   4.590  0.4935  0.0831  0.4571
 1962TIP3    H1 5892   3.424   1.605   4.497 -0.4903  1.9750  0.4995
 1962TIP3    H2 5893   3.340   1.656   4.612  0.0447 -0.9225  2.2928
 1963TIP3   OH2 5894   0.304   2.830   4.088 -0.2580  0.0815  0.2700
 1963TIP3    H1 5895   0.238   2.884   4.044  1.6659  0.5400 -2.2763
 1963TIP3    H2 5896   0.387   2.874   4.070  1.0146 -1.7826  1.2744
 1964TIP3   OH2 5897   3.540   5.156   0.336  0.1072 -0.5721  0.4066
 1964TIP3    H1 5898   3.614   5.096   0.330  0.0834 -0.5375 -0.3235
 1964TIP3    H2 5899   3.572   5.230   0.388  0.4187 -0.7962  0.5327
 1965TIP3   OH2 5900   1.801   3.207   1.877 -0.1504 -0.7459 -0.3982
 1965TIP3    H1 5901   1.774   3.248   1.958  2.8717 -0.9898  0.8961
 1965TIP3    H2 5902   1.765   3.262   1.808 -1.0241  0.7078  1.1522
 1966TIP3   OH2 5903   4.955   5.299   0.097 -0.6354  0.8160  0.2569
 1966TIP3    H1 5904   5.043   5.322   0.067  0.0150 -1.5171  0.2184
 1966TIP3    H2 5905   4.945   5.345   0.180  1.3032 -0.2235  1.1059
 1967TIP3   OH2 5906   4.612   2.232   0.489  0.1790 -0.4750  0.2489
 1967TIP3    H1 5907   4.637   2.303   0.548 -0.0453  0.4686 -0.7808
 1967TIP3    H2 5908   4.693   2.184   0.473  0.0581 -1.4137  2.1696
 1968TIP3   OH2 5909   3.972   2.152   3.641 -0.2540  0.7441 -0.4044
 1968TIP3    H1 5910   4.004   2.152   3.551 -0.2473 -0.8885 -0.4287
 1968TIP3    H2 5911   4.049   2.130   3.694 -0.7032 -0.4308 -0.2144
 1969TIP3   OH2 5912   6.302   0.898   2.714 -0.6586  0.0697 -0.1180
 1969TIP3    H1 5913   6.373   0.849   2.755 -0.7403  0.3360  0.3480
 1969TIP3    H2 5914   6.255   0.938   2.788 -1.3885 -0.2365 -0.4049
 1970TIP3   OH2 5915   0.339   1.271   4.591  0.1658 -0.1734  0.1778
 1970TIP3    H1 5916   0.386   1.300   4.669  2.1575 -0.2916 -0.9281
 1970TIP3    H2 5917   0.255   1.317   4.596 -0.1300 -0.8540  2.8109
 1971TIP3   OH2 5918   3.192   0.630   1.179  0.0369 -0.8130 -0.0570
 1971TIP3    H1 5919   3.234   0.558   1.224 -0.0390 -1.4264 -0.9442
 1971TIP3    H2 5920   3.109   0.643   1.226  0.3356 -0.8683  0.4950
 1972TIP3   OH2 5921   1.088   1.688   1.508 -0.0093  0.2932 -0.4794
 1972TIP3    H1 5922   1.147   1.631   1.558  1.3541  1.3119 -0.8447
 1972TIP3    H2 5923   1.069   1.639   1.428  3.3347  1.2905 -2.0669
 1973TIP3   OH2 5924   0.750   5.376   4.504  0.2970 -0.0618 -0.1016
 1973TIP3    H1 5925   0.704   5.424   4.435 -1.0758 -1.6220 -0.3164
 1973TIP3    H2 5926   0.830   5.427   4.518 -1.3388  2.6511  0.1464
 1974TIP3   OH2 5927   2.105   1.652   1.152  0.2572  0.2863 -0.0562
 1974TIP3    H1 5928   2.153   1.635   1.070  0.5526  1.5379 -0.1689
 1974TIP3    H2 5929   2.171   1.691   1.210 -0.2446  0.5276  0.3572
 1975TIP3   OH2 5930   5.724   3.129   4.847 -0.1165 -0.3655 -0.0508
 1975TIP3    H1 5931   5.681   3.131   4.762  0.4222  0.2227 -0.3191
 1975TIP3    H2 5932   5.751   3.220   4.862 -2.9242  0.2482  2.1521
 1976TIP3   OH2 5933   1.154   2.443   0.640  0.8577  0.2428 -0.1392
 1976TIP3    H1 5934   1.235   2.493   0.641  0.4466  0.9029  0.3154
 1976TIP3    H2 5935   1.093   2.494   0.692  0.0393 -0.0692 -0.7753
 1977TIP3   OH2 5936   0.575   3.438   0.488 -0.3724  0.6563 -0.4895
 1977TIP3    H1 5937   0.560   3.468   0.577 -1.3682 -0.8961 -0.0895
 1977TIP3    H2 5938   0.495   3.390   0.465 -0.3694  1.4641 -2.4249
 1978TIP3   OH2 5939   4.926   2.062   3.128 -0.3664  0.5312 -0.5992
 1978TIP3    H1 5940   4.892   2.014   3.053 -2.3269  0.1533  0.4599
 1978TIP3    H2 5941   4.858   2.053   3.195  1.1764  1.1066  1.1269
 1979TIP3   OH2 5942   5.288   5.201   2.560 -0.3516  0.0950  0.4532
 1979TIP3    H1 5943   5.303   5.169   2.649  2.0247 -0.9222 -0.2564
 1979TIP3    H2 5944   5.363   5.256   2.541 -1.3979  1.2308 -0.5538
 1980TIP3   OH2 5945   5.705   2.278   3.403  0.6999 -0.3192 -0.6471
 1980TIP3    H1 5946   5.745   2.352   3.358 -0.1060  0.5962  0.0811
 1980TIP3    H2 5947   5.779   2.229   3.439  1.3347 -0.9351 -2.6995
 1981TIP3   OH2 5948   5.035   2.429   2.153  0.2648  0.0434  0.0092
 1981TIP3    H1 5949   4.980   2.383   2.217 -0.3738 -0.5112 -0.9201
 1981TIP3    H2 5950   4.998   2.517   2.148 -0.1209 -0.1249 -0.1191
 1982TIP3   OH2 5951   4.279   0.337   0.309  0.3905 -0.7463 -0.7370
 1982TIP3    H1 5952   4.363   0.302   0.340  0.0778 -0.0306  1.0072
 1982TIP3    H2 5953   4.220   0.262   0.311  1.1722 -1.5226 -2.9952
 1983TIP3   OH2 5954   1.320   0.344   2.759 -0.0092  0.2991 -0.1968
 1983TIP3    H1 5955   1.399   0.396   2.744 -0.3220  0.6689 -0.6134
 1983TIP3    H2 5956   1.264   0.365   2.685 -0.9178  0.8516  0.6219
 1984TIP3   OH2 5957   1.006   1.467   0.704  0.2041 -0.4897  0.1937
 1984TIP3    H1 5958   1.038   1.522   0.633 -1.0740 -0.5507 -0.4669
 1984TIP3    H2 5959   1.008   1.378   0.668 -2.3195 -0.3354 -0.5823
 1985TIP3   OH2 5960   5.804   4.053   4.508  0.0198 -0.1256 -0.1381
 1985TIP3    H1 5961   5.730   4.034   4.566 -1.0989  1.2425 -1.0417
 1985TIP3    H2 5962   5.822   4.146   4.522  1.9725 -0.5493  0.4645
 1986TIP3   OH2 5963   1.187   5.529   1.057  0.3343  0.8155  1.1800
 1986TIP3    H1 5964   1.174   5.531   0.962 -0.3253  2.2576  1.2836
 1986TIP3    H2 5965   1.141   5.450   1.085 -1.0498  1.3349  0.4957
 1987TIP3   OH2 5966   3.240   3.034   1.866 -0.2965  0.0137 -0.3445
 1987TIP3    H1 5967   3.149   3.065   1.869 -0.1376  0.7880 -2.3439
 1987TIP3    H2 5968   3.238   2.959   1.807  0.0148 -1.4773  1.4455
 1988TIP3   OH2 5969   5.911   5.023   0.635  0.2324 -0.6956 -0.2095
 1988TIP3    H1 5970   5.858   5.001   0.558 -0.2823  0.2593 -0.1545
 1988TIP3    H2 5971   5.865   4.982   0.708 -1.6228  1.7072  0.1116
 1989TIP3   OH2 5972   0.198   4.663   4.365 -0.3783 -0.8387  0.1069
 1989TIP3    H1 5973   0.169   4.714   4.289 -1.5841 -0.6035  0.7032
 1989TIP3    H2 5974   0.292   4.649   4.350 -0.2725  0.5068 -0.6758
 1990TIP3   OH2 5975   2.522   5.898   4.016 -0.2755  0.3764  0.1450
 1990TIP3    H1 5976   2.508   5.949   3.937 -3.0991 -0.3408  0.0821
 1990TIP3    H2 5977   2.532   5.963   4.086  2.1611  1.0093 -0.6748
 1991TIP3   OH2 5978   0.322   0.428   3.281  0.3343  0.1011  0.4881
 1991TIP3    H1 5979   0.391   0.431   3.214  1.3032 -0.0567  1.4436
 1991TIP3    H2 5980   0.243   0.403   3.233  0.4780  2.2501 -0.9948
 1992TIP3   OH2 5981   2.664   0.187   1.071 -0.8447  0.1151 -0.1841
 1992TIP3    H1 5982   2.597   0.256   1.069 -1.8891 -0.7554  1.8138
 1992TIP3    H2 5983   2.684   0.176   1.164  1.7029 -0.0680 -0.6712
 1993TIP3   OH2 5984   0.615   2.055   3.162 -0.2024  0.2646 -0.0331
 1993TIP3    H1 5985   0.663   2.104   3.228 -0.2173  0.3948 -0.1192
 1993TIP3    H2 5986   0.665   1.973   3.152 -0.4535  0.0457  0.4653
 1994TIP3   OH2 5987   3.236   4.489   3.960 -1.1560 -0.2912  0.3933
 1994TIP3    H1 5988   3.144   4.467   3.950 -1.4262  0.7978  0.3724
 1994TIP3    H2 5989   3.242   4.581   3.935 -0.2266 -0.0851  1.2892
 1995TIP3   OH2 5990   4.638   5.262   5.024  0.3414 -0.4413  0.0227
 1995TIP3    H1 5991   4.641   5.357   5.015 -0.4380 -0.2473  1.5142
 1995TIP3    H2 5992   4.579   5.246   5.098  1.5417 -2.0281  0.7105
 1996TIP3   OH2 5993   3.508   1.511   1.259  0.4657  0.0930 -0.6069
 1996TIP3    H1 5994   3.481   1.445   1.322 -0.4367 -1.0158 -2.0888
 1996TIP3    H2 5995   3.603   1.515   1.267  0.2980  0.8896  1.6543
 1997TIP3   OH2 5996   3.456   1.343   2.128 -0.1466 -0.4015 -0.0551
 1997TIP3    H1 5997   3.402   1.422   2.116 -0.9666 -1.0287 -0.6587
 1997TIP3    H2 5998   3.509   1.338   2.049  0.0123 -0.3762  0.0497
 1998TIP3   OH2 5999   0.097   4.514   2.723 -0.0776  0.0159 -0.2719
 1998TIP3    H1 6000   0.041   4.586   2.753 -2.5398 -1.9898  0.3338
 1998TIP3    H2 6001   0.113   4.462   2.802 -1.9270 -2.2857 -1.2685
 1999TIP3   OH2 6002   5.076   4.567   3.102  0.2499  0.8045  0.0406
 1999TIP3    H1 6003   5.125   4.627   3.045  1.0315  0.9375  0.8309
 1999TIP3    H2 6004   5.066   4.488   3.050 -0.7486  1.5790 -1.0033
 2000TIP3   OH2 6005   2.128   1.662   3.343  0.0942  0.3362  0.4893
 2000TIP3    H1 6006   2.084   1.728   3.397  0.8535  0.9733  0.3527
 2000TIP3    H2 6007   2.078   1.659   3.262 -0.0865  0.5751  0.5921
 2001TIP3   OH2 6008   2.613   1.875   2.566  0.3897 -0.4964 -0.3301
 2001TIP3    H1 6009   2.564   1.865   2.647  0.6601  1.1881  0.0675
 2001TIP3    H2 6010   2.702   1.848   2.589  0.3996 -0.3082 -0.1441
 2002TIP3   OH2 6011   6.091   2.388   3.911 -0.2272  0.7114  0.5686
 2002TIP3    H1 6012   6.037   2.353   3.840 -2.1617  0.2925  2.1327
 2002TIP3    H2 6013   6.120   2.474   3.879  1.1233 -0.5039 -1.6818
 2003TIP3   OH2 6014   3.261   0.470   3.693 -0.1035  0.2640 -0.0110
 2003TIP3    H1 6015   3.238   0.458   3.785  0.4887 -1.0886 -0.0111
 2003TIP3    H2 6016   3.233   0.389   3.650 -1.3296  1.3005 -1.2436
 2004TIP3   OH2 6017   2.662   0.334   0.074 -0.4604  0.0278  0.3487
 2004TIP3    H1 6018   2.753   0.346   0.100 -0.8044 -0.5411  1.9645
 2004TIP3    H2 6019   2.651   0.239   0.070 -0.4573  0.0744 -1.9479
 2005TIP3   OH2 6020   0.234   3.552   3.202 -0.4094 -0.3933 -0.1494
 2005TIP3    H1 6021   0.282   3.470   3.193  1.4780  0.8341 -1.9266
 2005TIP3    H2 6022   0.165   3.547   3.135  0.1239 -0.2713 -0.7154
 2006TIP3   OH2 6023   5.502   1.963   4.845  0.1508 -0.2772 -0.4098
 2006TIP3    H1 6024   5.534   1.953   4.935  2.6814  0.3098 -1.1781
 2006TIP3    H2 6025   5.475   1.874   4.821 -2.5314 -0.1184  1.5205
 2007TIP3   OH2 6026   1.643   3.260   3.739  0.3736 -0.2517 -0.1539
 2007TIP3    H1 6027   1.714   3.296   3.791 -0.2612  0.2169  0.3980
 2007TIP3    H2 6028   1.686   3.197   3.681  1.4302  0.9612 -0.7567
 2008TIP3   OH2 6029   1.833   3.115   0.926  0.2457 -0.4614  0.0322
 2008TIP3    H1 6030   1.804   3.172   0.854  1.5208  0.0630 -0.0953
 2008TIP3    H2 6031   1.753   3.093   0.973 -0.6108 -0.7158 -1.4708
 2009TIP3   OH2 6032   3.106   5.724   1.416 -0.3612 -0.6038 -0.1099
 2009TIP3    H1 6033   3.023   5.685   1.389 -0.7365  1.1401 -1.6534
 2009TIP3    H2 6034   3.166   5.706   1.344  0.3006 -0.9079  0.5098
 2010TIP3   OH2 6035   4.972   2.609   0.027  0.0124 -0.3600 -0.0807
 2010TIP3    H1 6036   4.889   2.564   0.014 -0.2890 -0.2749  1.3885
 2010TIP3    H2 6037   4.949   2.701   0.037  0.1270 -0.4643  1.4346
 2011TIP3   OH2 6038   0.010   2.272   3.281 -0.4846  0.0004  0.1997
 2011TIP3    H1 6039  -0.008   2.293   3.189  1.1150 -1.4427 -0.4893
 2011TIP3    H2 6040   0.087   2.325   3.302 -1.8397  1.6411  1.2996
 2012TIP3   OH2 6041   2.930   1.140   4.255 -0.3870 -1.2445  0.0473
 2012TIP3    H1 6042   2.891   1.223   4.281 -0.5474 -0.4575 -2.4146
 2012TIP3    H2 6043   2.966   1.103   4.336 -2.2239  0.1587  1.5821
 2013TIP3   OH2 6044   5.923   5.597   3.983  0.2229 -0.5997  0.1132
 2013TIP3    H1 6045   5.949   5.510   3.952  0.4152  0.0635 -1.7051
 2013TIP3    H2 6046   5.934   5.654   3.907 -1.5026  0.7211  0.7795
 2014TIP3   OH2 6047   6.215   3.250   0.877 -0.3354  0.4947 -0.0985
 2014TIP3    H1 6048   6.158   3.173   0.878 -0.4004  0.5413 -0.1483
 2014TIP3    H2 6049   6.182   3.303   0.804  0.4969 -0.0143 -0.8531
 2015TIP3   OH2 6050   1.687   4.328   4.167 -0.0498  0.3546  0.0314
 2015TIP3    H1 6051   1.743   4.347   4.242  0.4474 -0.4669 -0.1290
 2015TIP3    H2 6052   1.602   4.305   4.206  0.8980 -2.6770  0.5260
 2016TIP3   OH2 6053   3.366   0.027   4.615  0.1290  0.1827 -0.2712
 2016TIP3    H1 6054   3.447  -0.023   4.604 -0.5827 -0.9638 -0.4697
 2016TIP3    H2 6055   3.351   0.067   4.530 -0.0963 -0.5168 -0.5653
 2017TIP3   OH2 6056   5.120   4.778   4.635  0.1863  0.4200 -0.3596
 2017TIP3    H1 6057   5.215   4.770   4.638  0.1190 -0.2513  0.8946
 2017TIP3    H2 6058   5.100   4.848   4.697 -0.0661  1.5426 -1.6742
 2018TIP3   OH2 6059   4.977   1.620   4.670 -0.1338 -0.0632 -0.2171
 2018TIP3    H1 6060   4.941   1.531   4.671  0.2330 -0.2297  1.5153
 2018TIP3    H2 6061   4.900   1.676   4.676 -0.2994 -0.3133  0.0605
 2019TIP3   OH2 6062   3.082   5.192   3.235 -0.5391 -0.1971  0.0867
 2019TIP3    H1 6063   3.055   5.256   3.302 -1.8165 -0.0846 -0.5215
 2019TIP3    H2 6064   3.087   5.109   3.283 -0.3520  0.0749  0.5550
 2020TIP3   OH2 6065   0.564   0.825   1.078  0.2286 -0.4492  0.4510
 2020TIP3    H1 6066   0.653   0.792   1.066  0.5904  0.6647 -0.1023
 2020TIP3    H2 6067   0.513   0.748   1.103  1.4417 -1.0159  1.2998
 2021TIP3   OH2 6068   3.947   3.400   1.198 -0.1759 -0.2093  0.2913
 2021TIP3    H1 6069   3.880   3.442   1.253 -1.2397 -0.6683 -0.6104
 2021TIP3    H2 6070   3.938   3.442   1.112  0.4276 -0.5573  0.0502
 2022TIP3   OH2 6071   4.950   4.125   4.291  0.5080 -0.2870 -0.4292
 2022TIP3    H1 6072   4.964   4.048   4.235  0.9781 -0.0551 -0.6367
 2022TIP3    H2 6073   4.890   4.095   4.358 -0.7597 -0.3533 -1.5412
 2023TIP3   OH2 6074   4.784   2.064   2.010  0.3440  0.3089 -0.4106
 2023TIP3    H1 6075   4.765   2.072   2.104  0.6094 -0.1544 -0.3175
 2023TIP3    H2 6076   4.736   1.986   1.983  0.2078  0.4854 -0.6774
 2024TIP3   OH2 6077   1.596   4.374   2.089  0.4444 -0.1665 -0.0912
 2024TIP3    H1 6078   1.614   4.409   2.002 -0.6120  1.4288  0.2986
 2024TIP3    H2 6079   1.534   4.303   2.074  0.3306  0.0470 -0.6472
 2025TIP3   OH2 6080   1.759   0.776   0.594 -0.3733  0.1874  0.3324
 2025TIP3    H1 6081   1.812   0.754   0.670 -1.7799 -0.9776  1.0491
 2025TIP3    H2 6082   1.822   0.792   0.524  0.9202 -0.3520  1.3324
 2026TIP3   OH2 6083   2.879   4.187   4.933  0.0541 -0.2179 -0.4074
 2026TIP3    H1 6084   2.842   4.267   4.893 -2.5093 -1.4115 -0.6559
 2026TIP3    H2 6085   2.847   4.189   5.023 -0.6954 -1.3184 -0.6355
 2027TIP3   OH2 6086   5.750   4.615   0.727 -0.0656  0.2596  0.3062
 2027TIP3    H1 6087   5.802   4.583   0.801 -0.6190 -0.2575  0.4850
 2027TIP3    H2 6088   5.722   4.703   0.753 -1.3545 -0.4065  1.3101
 2028TIP3   OH2 6089   4.054   1.955   0.576 -0.5685 -0.0966  0.0165
 2028TIP3    H1 6090   3.984   1.972   0.639  0.9858  1.2785  1.4847
 2028TIP3    H2 6091   4.084   2.042   0.549 -1.7801 -0.5795 -3.4644
 2029TIP3   OH2 6092   0.700   4.582   1.097 -0.4003  0.4507  0.2854
 2029TIP3    H1 6093   0.641   4.605   1.025 -1.3365  0.2663  0.9750
 2029TIP3    H2 6094   0.783   4.561   1.054 -0.6065  1.4601 -0.6408
 2030TIP3   OH2 6095   4.922   4.779   2.254  0.1483 -0.0590 -0.1370
 2030TIP3    H1 6096   4.911   4.695   2.298  0.0005 -0.2298 -0.5022
 2030TIP3    H2 6097   4.885   4.766   2.167 -1.0138  0.7557  0.2127
 2031TIP3   OH2 6098   5.299   0.136   3.846 -0.0849 -0.7211 -0.7272
 2031TIP3    H1 6099   5.333   0.052   3.814  1.3240 -0.1061 -0.9143
 2031TIP3    H2 6100   5.362   0.164   3.913 -1.4270 -0.5824  0.5162
 2032TIP3   OH2 6101   5.005   1.891   4.867 -0.7007  0.3583 -0.5657
 2032TIP3    H1 6102   5.045   1.969   4.828 -0.2822  1.1344  1.2968
 2032TIP3    H2 6103   4.958   1.849   4.794  0.1850  1.6004 -1.9130
 2033TIP3   OH2 6104   4.289   0.120   2.436 -0.1485  0.0220  0.0474
 2033TIP3    H1 6105   4.303   0.207   2.474 -2.3819  0.0160  1.0636
 2033TIP3    H2 6106   4.281   0.137   2.342  1.1054  0.6446  0.0211
 2034TIP3   OH2 6107   4.070   0.480   3.105  0.1068 -0.0531  0.0510
 2034TIP3    H1 6108   4.045   0.413   3.168  0.4870  1.2031  1.6216
 2034TIP3    H2 6109   4.029   0.453   3.023 -0.3827 -1.7635  0.8195
 2035TIP3   OH2 6110   3.357   4.134   1.606 -0.0939  0.1441  0.0766
 2035TIP3    H1 6111   3.297   4.077   1.655  1.5124 -2.4156 -0.7186
 2035TIP3    H2 6112   3.434   4.141   1.661  0.7832 -0.7646 -0.9893
 2036TIP3   OH2 6113   3.817   4.887   1.956 -0.2507 -0.4406  0.5716
 2036TIP3    H1 6114   3.875   4.811   1.949 -1.7848 -1.6740  0.8297
 2036TIP3    H2 6115   3.854   4.937   2.030 -0.2295 -1.8738  1.5812
 2037TIP3   OH2 6116   5.546   3.696   2.022 -0.7311  0.0652  0.4875
 2037TIP3    H1 6117   5.626   3.739   2.053 -0.8603  0.5598  0.1553
 2037TIP3    H2 6118   5.558   3.604   2.043  0.1962  0.0345 -0.0996
 2038TIP3   OH2 6119   3.157   5.428   1.176 -0.2809  0.0403  0.4344
 2038TIP3    H1 6120   3.188   5.433   1.086  1.7901 -0.5071  1.0804
 2038TIP3    H2 6121   3.066   5.399   1.168  0.1294 -0.8901 -1.4390
 2039TIP3   OH2 6122   2.208   1.390   2.406  0.1410 -0.0280  0.4709
 2039TIP3    H1 6123   2.150   1.433   2.343  0.1112  0.5289  0.8637
 2039TIP3    H2 6124   2.149   1.341   2.463  0.2935 -2.2303 -1.1333
 2040TIP3   OH2 6125   0.590   2.790   3.413 -0.4339 -0.6349  0.3462
 2040TIP3    H1 6126   0.588   2.869   3.465  1.7697 -1.1139  1.2813
 2040TIP3    H2 6127   0.543   2.813   3.332 -1.7266  0.8901  1.4682
 2041TIP3   OH2 6128   4.014   5.175   4.012  0.6731 -0.2264 -0.4192
 2041TIP3    H1 6129   3.996   5.170   4.106  0.6879  0.4848 -0.3762
 2041TIP3    H2 6130   4.089   5.117   3.999 -0.2553 -1.5207 -0.2462
 2042TIP3   OH2 6131   4.183   2.033   0.871  0.2371  0.3073  0.1713
 2042TIP3    H1 6132   4.234   1.961   0.832 -0.6964  0.4254 -1.3703
 2042TIP3    H2 6133   4.248   2.099   0.892  0.9153 -0.2434 -0.1354
 2043TIP3   OH2 6134   0.373   3.480   2.355  0.2701 -0.1986 -0.4867
 2043TIP3    H1 6135   0.368   3.385   2.352 -2.0025 -0.1040 -1.5031
 2043TIP3    H2 6136   0.441   3.498   2.420 -0.6522 -2.4844  1.2515
 2044TIP3   OH2 6137   2.197   0.515   3.665  0.2287 -0.3343 -0.0873
 2044TIP3    H1 6138   2.149   0.562   3.732  0.7910  0.4678 -0.2280
 2044TIP3    H2 6139   2.265   0.576   3.637  0.2319 -0.7895 -1.1214
 2045TIP3   OH2 6140   1.485   2.751   0.367  0.6803 -0.1964 -0.4029
 2045TIP3    H1 6141   1.467   2.844   0.381  0.1307 -0.3558 -0.0044
 2045TIP3    H2 6142   1.440   2.731   0.284  1.6242  0.1119 -1.0029
 2046TIP3   OH2 6143   1.744   5.776   4.461  0.1680 -0.8721  0.2963
 2046TIP3    H1 6144   1.765   5.824   4.382  0.4016 -0.0785  0.8238
 2046TIP3    H2 6145   1.686   5.705   4.432 -1.9215  0.9322 -0.2626
 2047TIP3   OH2 6146   2.821   3.220   3.159 -0.2054 -0.2146  0.3922
 2047TIP3    H1 6147   2.768   3.167   3.099  0.3012  0.8594 -1.0754
 2047TIP3    H2 6148   2.869   3.156   3.211  0.6427 -1.2533 -1.5582
 2048TIP3   OH2 6149   2.074   4.291   4.466 -0.1257  0.4398  0.2333
 2048TIP3    H1 6150   2.123   4.227   4.415  0.5501  0.6023  0.6681
 2048TIP3    H2 6151   2.049   4.244   4.546 -0.3861  0.4619  0.1682
 2049TIP3   OH2 6152   0.382   1.955   1.060 -0.1584 -0.6720 -0.0140
 2049TIP3    H1 6153   0.345   1.874   1.024 -1.2508 -0.5247  0.7217
 2049TIP3    H2 6154   0.461   1.970   1.008  0.1147 -2.2475 -0.1095
 2050TIP3   OH2 6155   5.131   5.510   3.237 -0.7782 -0.2313  0.2287
 2050TIP3    H1 6156   5.208   5.472   3.279 -1.0173 -0.8392  0.1358
 2050TIP3    H2 6157   5.059   5.492   3.298 -0.6607  1.4244  0.9015
 2051TIP3   OH2 6158   6.142   0.967   1.852 -0.4970  0.1972  0.2464
 2051TIP3    H1 6159   6.216   0.930   1.803 -1.4699 -1.7094  0.1316
 2051TIP3    H2 6160   6.183   1.013   1.926  0.8625  0.6985 -0.7739
 2052TIP3   OH2 6161   3.387   2.730   5.033 -0.0967  0.5890  0.2425
 2052TIP3    H1 6162   3.432   2.809   5.062  1.5277 -0.4046  0.5658
 2052TIP3    H2 6163   3.392   2.733   4.937  0.5842  0.5593  0.2687
 2053TIP3   OH2 6164   5.591   3.632   1.458  0.6596  0.5898 -0.2342
 2053TIP3    H1 6165   5.667   3.683   1.487  0.7091  1.4873 -1.7898
 2053TIP3    H2 6166   5.521   3.697   1.449  0.6169  0.3588 -1.9079
 2054TIP3   OH2 6167   0.219   0.798   1.157 -0.4347 -0.0285  0.1425
 2054TIP3    H1 6168   0.286   0.739   1.191 -0.3957 -0.3763 -0.5361
 2054TIP3    H2 6169   0.267   0.858   1.100 -0.5272  0.4573  0.5596
 2055TIP3   OH2 6170   6.001   5.052   0.970  0.1171  0.6566 -0.5439
 2055TIP3    H1 6171   6.045   5.135   0.950 -3.4741  2.7384 -0.7527
 2055TIP3    H2 6172   5.984   5.056   1.064  0.8625 -0.4189 -0.3468
 2056TIP3   OH2 6173   0.142   1.792   2.627 -0.1490 -0.4595  0.0238
 2056TIP3    H1 6174   0.052   1.820   2.643 -0.6985 -1.3309 -1.3611
 2056TIP3    H2 6175   0.153   1.715   2.683 -0.9677 -1.5530 -1.2585
 2057TIP3   OH2 6176   0.286   5.308   2.581 -0.4098 -0.7783 -0.7091
 2057TIP3    H1 6177   0.313   5.342   2.496  1.5380  2.6921  1.0991
 2057TIP3    H2 6178   0.365   5.268   2.617 -0.3412  0.5290  0.6565
 2058TIP3   OH2 6179   5.035   3.238   1.964  0.1405  0.1164 -0.2020
 2058TIP3    H1 6180   4.968   3.226   1.896  1.1006 -0.1434 -1.1298
 2058TIP3    H2 6181   5.026   3.161   2.020  1.2241 -1.1715 -1.7171
 2059TIP3   OH2 6182   6.064   1.580   0.119  0.2383  0.3990  0.3548
 2059TIP3    H1 6183   6.129   1.651   0.114 -0.2019  0.7523 -0.6474
 2059TIP3    H2 6184   5.989   1.612   0.069 -0.2297 -0.5103  0.4472
 2060TIP3   OH2 6185   1.575   5.019   2.942  0.0239 -0.1169  0.3029
 2060TIP3    H1 6186   1.656   4.970   2.955  0.8597  0.9190 -0.7701
 2060TIP3    H2 6187   1.517   4.957   2.897  0.1111 -0.9449  1.2992
 2061TIP3   OH2 6188   1.140   3.725   4.629 -0.0086 -0.6345  0.2576
 2061TIP3    H1 6189   1.138   3.637   4.666 -3.0102 -0.9737 -0.4495
 2061TIP3    H2 6190   1.101   3.781   4.696  0.8330 -0.0135  0.2543
 2062TIP3   OH2 6191   2.602   3.387   2.380 -0.3856  0.8042 -0.0235
 2062TIP3    H1 6192   2.684   3.415   2.340  0.5972 -0.4989  1.0107
 2062TIP3    H2 6193   2.628   3.330   2.452 -2.2000  0.2253  0.2286
 2063TIP3   OH2 6194   2.385   3.268   0.012  0.4209  0.2557  0.1228
 2063TIP3    H1 6195   2.302   3.308   0.038 -0.1135  0.7511 -2.1110
 2063TIP3    H2 6196   2.452   3.324   0.052 -0.3352  1.6859 -0.5397
 2064TIP3   OH2 6197   3.411   5.448   2.292 -0.0965  0.0376 -0.5252
 2064TIP3    H1 6198   3.444   5.396   2.219 -1.3064  1.6386 -2.3197
 2064TIP3    H2 6199   3.319   5.423   2.301  0.0632 -0.2151  0.5396
 2065TIP3   OH2 6200   0.577   0.578   2.485 -0.1340  0.2584  0.1835
 2065TIP3    H1 6201   0.657   0.530   2.463 -0.2412  0.5958 -0.9910
 2065TIP3    H2 6202   0.604   0.670   2.483 -0.0637  0.3142  1.8784
 2066TIP3   OH2 6203   2.181   3.704   2.092 -0.2016 -0.3549 -0.6567
 2066TIP3    H1 6204   2.198   3.776   2.152 -0.0631 -0.4215 -0.6158
 2066TIP3    H2 6205   2.258   3.700   2.036  0.2723 -1.1553  0.0313
 2067TIP3   OH2 6206   5.485   0.370   4.978  0.1078 -0.6125  0.6746
 2067TIP3    H1 6207   5.574   0.401   4.996 -0.2766  0.1073  1.4366
 2067TIP3    H2 6208   5.438   0.385   5.060 -0.1803 -3.0241  1.0143
 2068TIP3   OH2 6209   5.700   2.315   3.878 -0.2092 -0.0208 -0.2155
 2068TIP3    H1 6210   5.714   2.397   3.927  0.2569  0.0980 -0.5359
 2068TIP3    H2 6211   5.649   2.341   3.802 -0.8900 -0.1973  0.1776
 2069TIP3   OH2 6212   5.502   2.663   4.857  0.0092  0.1176 -0.1391
 2069TIP3    H1 6213   5.425   2.623   4.816  1.0835 -0.5671 -1.5795
 2069TIP3    H2 6214   5.561   2.682   4.784  1.3215  0.3751  0.9498
 2070TIP3   OH2 6215   2.116   0.086   5.096 -0.0761 -0.2958 -0.2352
 2070TIP3    H1 6216   2.131   0.061   5.187  1.4120 -0.2913 -0.4634
 2070TIP3    H2 6217   2.071   0.171   5.102 -1.9647 -1.2982  0.4930
 2071TIP3   OH2 6218   3.895   3.541   0.379 -0.5855 -0.7686 -0.2292
 2071TIP3    H1 6219   3.874   3.450   0.355 -0.0800 -0.7491 -0.7801
 2071TIP3    H2 6220   3.980   3.535   0.422 -0.9557 -0.6551  0.5429
 2072TIP3   OH2 6221   2.745   5.831   5.058 -0.2002 -0.1145 -0.0846
 2072TIP3    H1 6222   2.772   5.750   5.015 -2.6668 -0.1352 -1.8174
 2072TIP3    H2 6223   2.659   5.850   5.022 -0.0594  2.8977  0.8423
 2073TIP3   OH2 6224   4.091   0.694   3.268  1.0661 -0.2560  0.2377
 2073TIP3    H1 6225   4.186   0.681   3.265  1.0283 -0.6097  0.4348
 2073TIP3    H2 6226   4.057   0.635   3.201  1.1081  1.2662 -1.1754
 2074TIP3   OH2 6227   2.673   2.386   2.264  0.5623 -0.0892  0.2001
 2074TIP3    H1 6228   2.623   2.466   2.246  0.5749  0.1138  1.0119
 2074TIP3    H2 6229   2.762   2.407   2.234  0.1091 -0.6053 -1.6494
 2075TIP3   OH2 6230   3.095   3.583   4.007  0.3318  0.6949 -0.3700
 2075TIP3    H1 6231   3.180   3.623   3.994  0.6218  0.0748 -0.4427
 2075TIP3    H2 6232   3.113   3.506   4.062  0.0525 -0.2927 -1.6268
 2076TIP3   OH2 6233   2.301   0.719   2.469  0.2119  0.0510 -0.3041
 2076TIP3    H1 6234   2.263   0.780   2.532  1.6045  1.6359 -0.9119
 2076TIP3    H2 6235   2.339   0.775   2.401  1.1478 -1.5229 -1.1546
 2077TIP3   OH2 6236   6.220   5.318   4.055  0.6885  0.0985 -0.3102
 2077TIP3    H1 6237   6.222   5.367   4.138  1.0169 -1.3772  0.5949
 2077TIP3    H2 6238   6.290   5.254   4.064  0.8290  0.0157 -1.8246
 2078TIP3   OH2 6239   2.193   3.127   4.264 -0.5034 -0.1938 -0.0316
 2078TIP3    H1 6240   2.190   3.141   4.169  1.6614 -1.2225 -0.3147
 2078TIP3    H2 6241   2.164   3.036   4.275  0.6020 -0.5417  0.1185
 2079TIP3   OH2 6242   4.339   0.395   0.043 -0.2248  0.4471  0.0454
 2079TIP3    H1 6243   4.382   0.475   0.073  1.2595 -0.6546  0.9924
 2079TIP3    H2 6244   4.284   0.368   0.116 -0.3596  0.3527 -0.0906
 2080TIP3   OH2 6245   6.166   4.778   3.966  0.0537  0.3912  0.1461
 2080TIP3    H1 6246   6.091   4.719   3.961  0.4665 -0.0582 -1.2055
 2080TIP3    H2 6247   6.201   4.780   3.876  0.3760  2.2649  0.2660
 2081TIP3   OH2 6248   4.237   2.869   4.164 -0.5510  0.5022  0.2030
 2081TIP3    H1 6249   4.313   2.927   4.149  0.9352 -1.4268 -0.1528
 2081TIP3    H2 6250   4.224   2.825   4.080 -0.4523 -1.0042  0.9519
 2082TIP3   OH2 6251   4.361   2.135   3.432  0.3238 -0.0881 -0.1445
 2082TIP3    H1 6252   4.397   2.184   3.358  0.1493 -0.0700 -0.2198
 2082TIP3    H2 6253   4.340   2.049   3.395  1.8573 -0.6886  0.2944
 2083TIP3   OH2 6254   1.220   1.427   3.613 -0.1063  0.1796  0.4621
 2083TIP3    H1 6255   1.218   1.331   3.610  0.9550  0.1621 -1.8794
 2083TIP3    H2 6256   1.145   1.454   3.561  0.8409  0.5701 -0.7303
 2084TIP3   OH2 6257   5.758   4.708   1.727  0.1794 -0.3685  0.0975
 2084TIP3    H1 6258   5.722   4.662   1.803 -0.2363  1.6655  1.1750
 2084TIP3    H2 6259   5.839   4.660   1.706  1.5115  0.2713  3.2189
 2085TIP3   OH2 6260   5.574   2.685   0.320 -0.0176  0.7510  0.0745
 2085TIP3    H1 6261   5.484   2.707   0.296  0.4838  3.2107  0.1344
 2085TIP3    H2 6262   5.579   2.700   0.414  0.3821  0.3448  0.1227
 2086TIP3   OH2 6263   2.930   1.395   0.979  0.0990  0.4097  0.3212
 2086TIP3    H1 6264   2.939   1.435   1.066  2.4869 -0.2978  0.4792
 2086TIP3    H2 6265   2.937   1.301   0.995 -0.7892  0.1788 -0.5310
 2087TIP3   OH2 6266   2.066   2.672   3.243 -0.3011  0.7094  0.5172
 2087TIP3    H1 6267   2.117   2.754   3.241 -0.7336  0.9771 -2.1935
 2087TIP3    H2 6268   2.024   2.667   3.158 -2.8326 -0.8072  1.7345
 2088TIP3   OH2 6269   1.850   0.623   0.127 -0.4112  0.2013  0.7135
 2088TIP3    H1 6270   1.912   0.579   0.185 -0.5357 -1.0564 -0.0621
 2088TIP3    H2 6271   1.878   0.598   0.039 -0.8321  1.2471  0.2648
 2089TIP3   OH2 6272   2.320   2.534   3.419  0.3183 -0.1310 -0.4326
 2089TIP3    H1 6273   2.281   2.618   3.440  0.1576  0.0811 -1.5137
 2089TIP3    H2 6274   2.332   2.491   3.503  0.8535  1.1667  0.1733
 2090TIP3   OH2 6275   4.547   3.229   4.990  0.4158 -0.3889  0.4616
 2090TIP3    H1 6276   4.514   3.140   4.999  0.2333 -0.3715 -0.0024
 2090TIP3    H2 6277   4.642   3.221   5.003  0.3883 -0.6395  0.5074
 2091TIP3   OH2 6278   5.483   0.605   0.996 -0.0459 -0.3754 -0.1152
 2091TIP3    H1 6279   5.491   0.572   1.086 -0.8375  0.1832  0.1747
 2091TIP3    H2 6280   5.476   0.527   0.942 -1.8752 -0.7108  0.5514
 2092TIP3   OH2 6281   1.059   3.274   2.932  0.1551 -0.0240  0.2141
 2092TIP3    H1 6282   1.123   3.301   2.999  0.9018 -0.8167 -0.1533
 2092TIP3    H2 6283   0.974   3.289   2.973  0.5968 -1.1460  1.6311
 2093TIP3   OH2 6284   5.961   3.174   3.031  0.3515 -0.3122  0.2150
 2093TIP3    H1 6285   5.917   3.090   3.044  1.7233 -0.7771  2.3478
 2093TIP3    H2 6286   6.034   3.155   2.972  0.0412 -0.3786 -0.1515
 2094TIP3   OH2 6287   0.235   3.288   4.631 -0.6784 -0.0779  0.3183
 2094TIP3    H1 6288   0.150   3.313   4.597 -0.4738  0.5246  0.2316
 2094TIP3    H2 6289   0.239   3.193   4.620  0.1695  0.2287 -3.1787
 2095TIP3   OH2 6290   3.855   4.283   1.932 -0.6044  0.1331  0.4818
 2095TIP3    H1 6291   3.854   4.273   1.837 -0.7874 -1.2301  0.6103
 2095TIP3    H2 6292   3.943   4.255   1.958 -1.1823 -1.4096  0.8744
 2096TIP3   OH2 6293   1.779   5.916   1.089 -0.2032 -0.4010  0.0662
 2096TIP3    H1 6294   1.784   5.822   1.071 -0.4085 -0.2812 -0.6339
 2096TIP3    H2 6295   1.866   5.949   1.069 -0.1610 -0.4185  0.2139
 2097TIP3   OH2 6296   5.775   2.362   2.000  0.1841  0.0160  0.5167
 2097TIP3    H1 6297   5.808   2.286   1.952 -1.1937 -0.1178 -0.2570
 2097TIP3    H2 6298   5.830   2.366   2.078  1.4393 -0.7067 -0.2869
 2098TIP3   OH2 6299   6.196   2.166   0.204 -0.2549 -0.2852  0.0147
 2098TIP3    H1 6300   6.154   2.136   0.285  1.0593  1.2720  1.3343
 2098TIP3    H2 6301   6.133   2.227   0.166 -0.3383 -0.0227  0.5606
 2099TIP3   OH2 6302   0.627   1.376   1.744 -0.1565  0.5741 -0.8408
 2099TIP3    H1 6303   0.535   1.378   1.715 -0.7778  1.3856  1.0595
 2099TIP3    H2 6304   0.671   1.439   1.687 -0.8940  0.6240 -1.3748
 2100TIP3   OH2 6305   5.742   0.548   2.230  0.4068 -0.3169  0.5687
 2100TIP3    H1 6306   5.802   0.577   2.161  0.1598  0.6010  0.7320
 2100TIP3    H2 6307   5.685   0.623   2.246 -0.0437 -0.7869  1.2270
 2101TIP3   OH2 6308   0.225   5.452   1.743  0.0080  0.4015  0.4196
 2101TIP3    H1 6309   0.195   5.535   1.705  1.9323  1.5682  1.2416
 2101TIP3    H2 6310   0.207   5.387   1.676 -0.9490  1.6027 -0.5462
 2102TIP3   OH2 6311   3.967   5.910   4.007 -0.1926  0.4331 -0.0062
 2102TIP3    H1 6312   4.016   5.922   4.089  0.9305  0.5064 -0.6700
 2102TIP3    H2 6313   4.029   5.934   3.938 -0.3329 -1.8217 -1.0117
 2103TIP3   OH2 6314   2.595   4.192   3.430  0.2120 -0.2427  0.3005
 2103TIP3    H1 6315   2.640   4.132   3.371 -0.1914 -2.1767  1.8477
 2103TIP3    H2 6316   2.518   4.220   3.381  0.7089 -0.5198 -0.6748
 2104TIP3   OH2 6317   4.080   5.303   2.621 -0.3665  0.2609  0.5571
 2104TIP3    H1 6318   3.996   5.282   2.582 -0.0914 -0.4312  0.3340
 2104TIP3    H2 6319   4.064   5.385   2.669 -0.7523  0.9982 -0.8012
 2105TIP3   OH2 6320   0.468   4.079   3.562  0.0287  0.0545 -0.3315
 2105TIP3    H1 6321   0.548   4.076   3.510  0.2618 -0.2184  0.0373
 2105TIP3    H2 6322   0.475   4.003   3.620 -1.2952 -0.9926 -1.4830
 2106TIP3   OH2 6323   0.960   2.016   4.414  0.2448 -0.1267 -0.4611
 2106TIP3    H1 6324   1.021   2.017   4.487 -0.1038 -0.8543 -0.1537
 2106TIP3    H2 6325   0.907   1.938   4.427  0.2840 -0.3603 -1.5882
 2107TIP3   OH2 6326   1.442   5.199   4.302 -0.5876 -0.3855  0.2820
 2107TIP3    H1 6327   1.466   5.254   4.376 -0.8503  1.4514 -0.9516
 2107TIP3    H2 6328   1.515   5.206   4.241 -1.0078 -0.7045 -0.2723
 2108TIP3   OH2 6329   3.667   5.524   2.712  0.8652 -0.0736  0.1000
 2108TIP3    H1 6330   3.616   5.532   2.631 -0.3418 -0.0649  0.8405
 2108TIP3    H2 6331   3.716   5.443   2.700 -1.3805 -1.5786  0.4391
 2109TIP3   OH2 6332   1.029   4.112   1.646 -0.1116 -0.0237 -0.1589
 2109TIP3    H1 6333   1.068   4.116   1.734 -1.2128  0.7144  0.3335
 2109TIP3    H2 6334   1.038   4.201   1.612  1.0845 -0.5083 -1.1772
 2110TIP3   OH2 6335   5.737   1.525   1.479  0.2523 -0.1803  0.5138
 2110TIP3    H1 6336   5.676   1.459   1.512 -0.0981 -0.1108  0.0018
 2110TIP3    H2 6337   5.787   1.551   1.557 -2.8143  2.4663  1.7976
 2111TIP3   OH2 6338   4.808   3.016   2.282 -0.5005 -0.5928  0.5578
 2111TIP3    H1 6339   4.797   3.104   2.316  0.4456 -0.2411 -0.0143
 2111TIP3    H2 6340   4.726   2.971   2.304 -2.0747  1.1401 -1.3599
 2112TIP3   OH2 6341   3.624   2.656   2.963 -0.2803  0.2285 -0.1669
 2112TIP3    H1 6342   3.711   2.628   2.933 -0.3370  0.7212 -0.8059
 2112TIP3    H2 6343   3.631   2.655   3.058  0.5565  0.6585 -0.2112
 2113TIP3   OH2 6344   2.438   0.676   2.148 -0.3125  0.1035 -0.3027
 2113TIP3    H1 6345   2.408   0.703   2.061  0.4207  1.0713 -0.2807
 2113TIP3    H2 6346   2.435   0.757   2.200 -1.3724 -0.5960  0.7655
 2114TIP3   OH2 6347   5.784   1.246   1.700 -0.6838  0.7451 -0.6626
 2114TIP3    H1 6348   5.701   1.262   1.745 -0.7118  1.5338 -0.9793
 2114TIP3    H2 6349   5.757   1.210   1.615 -0.6418 -0.3919 -0.2175
 2115TIP3   OH2 6350   0.397   5.521   0.956 -0.3781 -0.0328 -0.0959
 2115TIP3    H1 6351   0.479   5.549   0.997 -1.2292  1.7840  0.4798
 2115TIP3    H2 6352   0.334   5.519   1.028 -0.5906 -2.8102 -0.2499
 2116TIP3   OH2 6353   5.205   4.313   3.834  0.5362  0.4837 -0.7468
 2116TIP3    H1 6354   5.138   4.262   3.790 -0.7899 -0.7036  2.4017
 2116TIP3    H2 6355   5.277   4.251   3.848  0.2047  0.3424  0.3420
 2117TIP3   OH2 6356   0.550   5.543   1.290  0.3885 -0.4139 -0.1275
 2117TIP3    H1 6357   0.477   5.534   1.350  0.1865 -1.8030 -0.5551
 2117TIP3    H2 6358   0.619   5.488   1.326  0.9436  0.2362 -0.1676
 2118TIP3   OH2 6359   0.466   4.733   4.311  0.2501  0.4194 -0.0015
 2118TIP3    H1 6360   0.554   4.748   4.345 -0.0072 -1.3578  1.5651
 2118TIP3    H2 6361   0.472   4.650   4.264 -0.2489  1.0821 -1.2916
 2119TIP3   OH2 6362   3.087   5.747   3.788  0.3652  0.2491 -0.0585
 2119TIP3    H1 6363   3.115   5.691   3.861  1.9100 -1.6063 -1.9544
 2119TIP3    H2 6364   3.159   5.743   3.725 -0.5565  2.4423 -1.3900
 2120TIP3   OH2 6365   4.589   0.305   2.839  0.1975  0.1996  0.0403
 2120TIP3    H1 6366   4.629   0.251   2.907 -1.6749 -0.7808  0.4380
 2120TIP3    H2 6367   4.511   0.341   2.881 -0.0028  1.0826 -1.0516
 2121TIP3   OH2 6368   5.237   1.636   1.692 -0.2956 -0.3136 -0.0590
 2121TIP3    H1 6369   5.243   1.732   1.691 -0.1130 -0.3003 -2.1551
 2121TIP3    H2 6370   5.242   1.611   1.600 -0.7888 -2.3296  0.4204
 2122TIP3   OH2 6371   3.585   3.258   2.091  0.4529  0.0256  0.2366
 2122TIP3    H1 6372   3.649   3.326   2.114  0.2511  0.1320  0.4887
 2122TIP3    H2 6373   3.544   3.290   2.011 -0.9838  1.1410  1.3604
 2123TIP3   OH2 6374   1.192   3.885   0.646 -0.4606  0.1897 -0.1918
 2123TIP3    H1 6375   1.284   3.856   0.650 -0.5249  0.0660  0.5069
 2123TIP3    H2 6376   1.174   3.894   0.553  0.0357 -0.5266 -0.3665
 2124TIP3   OH2 6377   4.795   4.692   2.949 -0.4299  0.3338 -0.7225
 2124TIP3    H1 6378   4.753   4.757   3.005  2.2758  2.4718 -0.9420
 2124TIP3    H2 6379   4.728   4.667   2.886 -2.0905  1.6275  0.4474
 2125TIP3   OH2 6380   2.452   5.092   3.609 -0.2317  0.4456  0.4971
 2125TIP3    H1 6381   2.419   5.180   3.592 -1.0757 -0.0391 -0.5094
 2125TIP3    H2 6382   2.547   5.101   3.609 -0.2645  1.0868 -1.2108
 2126TIP3   OH2 6383   2.488   4.448   4.379 -0.1260  0.5392 -0.9870
 2126TIP3    H1 6384   2.450   4.389   4.314  1.7503  0.3806 -2.0238
 2126TIP3    H2 6385   2.571   4.475   4.340  1.9227 -0.8529  2.0033
 2127TIP3   OH2 6386   1.582   3.181   0.544  0.3998  0.1831  0.1073
 2127TIP3    H1 6387   1.595   3.254   0.483 -0.2358 -0.2568 -0.5698
 2127TIP3    H2 6388   1.632   3.109   0.505  0.2159 -0.0218  0.2491
 2128TIP3   OH2 6389   2.516   3.698   4.433  0.6168  0.4724  0.6413
 2128TIP3    H1 6390   2.462   3.776   4.447 -0.3371  0.0270 -0.4162
 2128TIP3    H2 6391   2.584   3.704   4.500 -0.6663  1.1251  1.9471
 2129TIP3   OH2 6392   5.446   1.234   2.458  0.0729  0.0154  0.7895
 2129TIP3    H1 6393   5.400   1.299   2.404  0.2719 -0.5968 -0.1331
 2129TIP3    H2 6394   5.507   1.286   2.511  1.8685  0.4580 -1.5318
 2130TIP3   OH2 6395   2.248   0.446   4.377 -0.4215 -0.0749  0.0926
 2130TIP3    H1 6396   2.338   0.419   4.357 -0.9311  0.1607 -3.1870
 2130TIP3    H2 6397   2.257   0.513   4.445  2.3730  2.6885 -2.6308
 2131TIP3   OH2 6398   5.563   1.429   4.240 -0.4020  0.0266  0.2177
 2131TIP3    H1 6399   5.652   1.420   4.276 -0.5279  0.0999  0.5496
 2131TIP3    H2 6400   5.505   1.415   4.315 -0.6545  0.9286  0.2093
 2132TIP3   OH2 6401   6.169   5.538   2.739 -0.3261  0.5416  0.3798
 2132TIP3    H1 6402   6.186   5.582   2.822  0.8965 -0.2148  0.5416
 2132TIP3    H2 6403   6.253   5.537   2.694 -0.2448 -1.8342  0.4863
 2133TIP3   OH2 6404   0.349   5.918   2.913  0.3017 -0.2009  0.0570
 2133TIP3    H1 6405   0.364   5.832   2.873  0.7374  1.1612 -3.0356
 2133TIP3    H2 6406   0.315   5.972   2.841  0.2597  2.2714  1.8183
 2134TIP3   OH2 6407   4.366   1.526   0.758 -0.7731  0.8229 -0.0058
 2134TIP3    H1 6408   4.343   1.464   0.689  0.1241  0.3393  0.1179
 2134TIP3    H2 6409   4.335   1.485   0.838 -0.4152  0.6439  0.0456
 2135TIP3   OH2 6410   5.387   2.102   2.338  0.0614  0.5458 -0.2307
 2135TIP3    H1 6411   5.385   2.007   2.349  1.6764  0.3200 -1.4558
 2135TIP3    H2 6412   5.326   2.119   2.266 -0.7977  0.5516  0.4795
 2136TIP3   OH2 6413   6.258   5.126   3.253  0.3285  0.1594  0.0708
 2136TIP3    H1 6414   6.204   5.117   3.174 -0.8491 -2.0351  1.0534
 2136TIP3    H2 6415   6.308   5.045   3.257 -0.0440 -0.0122  1.8533
 2137TIP3   OH2 6416   2.938   3.763   3.492 -0.1480  0.2971 -0.3417
 2137TIP3    H1 6417   3.025   3.752   3.453 -0.4863 -0.1709 -0.9917
 2137TIP3    H2 6418   2.952   3.749   3.585  0.3987 -0.2475 -0.4929
 2138TIP3   OH2 6419   0.916   0.842   0.096 -0.0122  0.3222  0.0698
 2138TIP3    H1 6420   0.981   0.821   0.029 -1.1202  1.0191 -1.2598
 2138TIP3    H2 6421   0.840   0.788   0.074  0.0819 -0.5470  1.6562
 2139TIP3   OH2 6422   1.014   4.941   2.379 -0.8011  0.5465 -0.9910
 2139TIP3    H1 6423   1.022   4.879   2.451  0.6221  2.4324  0.5820
 2139TIP3    H2 6424   1.018   4.887   2.300  1.1939 -1.3312  0.2817
 2140TIP3   OH2 6425   2.635   1.566   3.784 -0.2533  0.4122  0.0636
 2140TIP3    H1 6426   2.692   1.599   3.854 -0.5359  1.4043 -0.1528
 2140TIP3    H2 6427   2.552   1.547   3.828 -0.7360  1.9377 -0.1407
 2141TIP3   OH2 6428   2.659   4.754   3.293  0.6840  0.3122  0.2249
 2141TIP3    H1 6429   2.586   4.776   3.350  0.4429  0.6796 -0.2164
 2141TIP3    H2 6430   2.718   4.828   3.300  0.8847  0.1376  0.3719
 2142TIP3   OH2 6431   2.394   0.631   5.133 -0.1286  0.5779  0.0221
 2142TIP3    H1 6432   2.419   0.699   5.070  0.3952 -0.3314 -0.7818
 2142TIP3    H2 6433   2.331   0.673   5.190 -1.3599  1.1888 -1.6990
 2143TIP3   OH2 6434   3.362   2.522   4.353 -0.2859 -0.0824  0.4800
 2143TIP3    H1 6435   3.362   2.431   4.324  0.1761 -0.0906  0.5044
 2143TIP3    H2 6436   3.313   2.568   4.285  0.6864 -0.1204 -0.2619
 2144TIP3   OH2 6437   0.480   3.976   0.554  0.9063  0.4704 -0.4177
 2144TIP3    H1 6438   0.389   4.002   0.547 -0.0903 -1.8093  2.1702
 2144TIP3    H2 6439   0.489   3.902   0.495  0.5814 -0.3172  0.4901
 2145TIP3   OH2 6440   1.374   0.960   0.352 -0.3425 -0.0925 -0.9304
 2145TIP3    H1 6441   1.310   0.934   0.286 -0.2737  0.6459 -1.2952
 2145TIP3    H2 6442   1.396   0.879   0.397 -1.7145 -0.3200 -0.6361
 2146TIP3   OH2 6443   1.784   4.768   4.032  0.1842 -0.6485  0.5153
 2146TIP3    H1 6444   1.837   4.805   3.962 -1.8558 -0.4291 -1.0079
 2146TIP3    H2 6445   1.813   4.678   4.040  0.3693 -0.7149 -0.7276
 2147TIP3   OH2 6446   6.231   4.416   3.772 -0.5805 -0.3479  0.7982
 2147TIP3    H1 6447   6.287   4.439   3.698 -1.5378 -0.6722 -0.0588
 2147TIP3    H2 6448   6.175   4.493   3.784  0.0956  0.0119  1.7052
 2148TIP3   OH2 6449   0.817   2.121   4.071  0.2882  0.2420  0.2063
 2148TIP3    H1 6450   0.828   2.210   4.036 -0.3296  0.3350  0.2430
 2148TIP3    H2 6451   0.836   2.063   3.998  1.0238  0.3935  0.2676
 2149TIP3   OH2 6452   2.820   3.979   4.762  0.0272 -0.0798  0.2817
 2149TIP3    H1 6453   2.815   4.051   4.699  0.6769 -0.9695 -0.8265
 2149TIP3    H2 6454   2.845   4.021   4.845 -1.0454  1.1357  0.0137
 2150TIP3   OH2 6455   5.409   2.347   0.493 -0.3687  0.0484 -0.1514
 2150TIP3    H1 6456   5.407   2.265   0.542 -0.0563  0.1127 -0.0238
 2150TIP3    H2 6457   5.376   2.325   0.406  0.4861 -0.3957 -0.3762
 2151TIP3   OH2 6458   5.141   5.718   3.066 -0.3416  0.4361  0.1715
 2151TIP3    H1 6459   5.166   5.644   3.122 -0.1088  1.0035  0.8330
 2151TIP3    H2 6460   5.046   5.716   3.063 -0.3086 -1.1487 -1.5489
 2152TIP3   OH2 6461   4.135   1.286   1.866 -0.3113 -0.0208  0.5157
 2152TIP3    H1 6462   4.147   1.288   1.961 -3.5824 -0.4970  1.0504
 2152TIP3    H2 6463   4.048   1.325   1.853  0.5398  1.1267 -2.4235
 2153TIP3   OH2 6464   2.196   5.100   0.264  0.1177 -0.2250 -0.4788
 2153TIP3    H1 6465   2.142   5.179   0.274  0.3075  0.0797 -1.6993
 2153TIP3    H2 6466   2.285   5.128   0.284  0.1016 -0.2822 -0.3219
 2154TIP3   OH2 6467   5.922   1.039   0.844 -0.2048 -0.0970  0.5365
 2154TIP3    H1 6468   5.878   0.957   0.863 -0.5875  0.3395  1.5875
 2154TIP3    H2 6469   5.968   1.023   0.761  0.0670 -1.4947  0.9402
 2155TIP3   OH2 6470   5.751   5.129   1.680  0.0696  0.8670 -0.1480
 2155TIP3    H1 6471   5.689   5.070   1.723  0.9836  1.2667  1.7970
 2155TIP3    H2 6472   5.833   5.079   1.675 -0.1557  0.6028 -2.0434
 2156TIP3   OH2 6473   4.534   5.344   4.683  0.5038 -0.2449 -0.0822
 2156TIP3    H1 6474   4.621   5.363   4.721  0.8229 -1.8906  0.0854
 2156TIP3    H2 6475   4.553   5.288   4.608 -0.4261 -0.5548 -0.0855
 2157TIP3   OH2 6476   6.329   5.812   1.981 -0.2006 -0.7016  0.5480
 2157TIP3    H1 6477   6.269   5.886   1.983 -0.5999 -1.0336  1.2063
 2157TIP3    H2 6478   6.327   5.777   2.070  0.3716 -1.1961  0.3763
 2158TIP3   OH2 6479   5.500   3.797   4.836 -0.0714  0.2955 -0.3543
 2158TIP3    H1 6480   5.564   3.777   4.904  1.2012  1.2040 -1.2434
 2158TIP3    H2 6481   5.512   3.728   4.770 -0.0911  0.4043 -0.4721
 2159TIP3   OH2 6482   3.847   1.818   0.321 -0.2218  0.3324 -0.1370
 2159TIP3    H1 6483   3.804   1.832   0.406 -3.5562 -0.4371 -1.5705
 2159TIP3    H2 6484   3.883   1.904   0.299 -1.9790  1.3498  0.7115
 2160TIP3   OH2 6485   2.560   4.153   3.728  0.2532  0.5486  0.3174
 2160TIP3    H1 6486   2.648   4.119   3.713 -0.7513 -2.1309 -0.1109
 2160TIP3    H2 6487   2.536   4.120   3.814 -0.0555  1.9852  0.8044
 2161TIP3   OH2 6488   1.773   2.864   4.577 -0.1824  1.1812  0.5583
 2161TIP3    H1 6489   1.688   2.888   4.542 -0.6057 -0.2119  0.5538
 2161TIP3    H2 6490   1.835   2.885   4.507 -0.8875 -0.5117 -0.6470
 2162TIP3   OH2 6491   4.383   4.545   0.307  0.3670  0.1973  0.1543
 2162TIP3    H1 6492   4.425   4.484   0.246  0.6640  0.1222  0.4304
 2162TIP3    H2 6493   4.357   4.619   0.253  0.7680  0.2000 -0.0391
 2163TIP3   OH2 6494   1.787   4.088   2.027 -1.0131 -0.2014  0.3725
 2163TIP3    H1 6495   1.768   4.146   2.101 -1.3309 -1.2128  1.1000
 2163TIP3    H2 6496   1.713   4.027   2.026  0.2797 -1.8323  0.8633
 2164TIP3   OH2 6497   4.004   2.494   3.286  0.4273  0.0465 -0.2733
 2164TIP3    H1 6498   3.970   2.471   3.372 -0.6376 -1.2380 -1.0027
 2164TIP3    H2 6499   4.069   2.427   3.266  0.2791  0.0236 -0.6942
 2165TIP3   OH2 6500   2.191   5.725   1.996 -0.1869 -0.1791  0.1813
 2165TIP3    H1 6501   2.156   5.710   2.084  0.0950  0.2280  0.3672
 2165TIP3    H2 6502   2.272   5.775   2.010 -0.6594  0.7783 -0.3603
 2166TIP3   OH2 6503   1.658   1.078   3.592  0.1856  0.6539  0.2205
 2166TIP3    H1 6504   1.661   1.116   3.680  0.3775  2.0867 -0.3761
 2166TIP3    H2 6505   1.748   1.053   3.574 -0.3116 -2.5298  1.5852
 2167TIP3   OH2 6506   0.327   1.946   0.228 -0.6206 -0.7144 -0.2193
 2167TIP3    H1 6507   0.237   1.967   0.253 -0.2577  0.6084  0.0330
 2167TIP3    H2 6508   0.352   2.015   0.167 -0.0560 -1.5489 -0.9544
 2168TIP3   OH2 6509   2.215   2.128   3.319 -1.0742  0.5503  0.8849
 2168TIP3    H1 6510   2.200   2.214   3.280  0.8512 -0.2778 -1.9315
 2168TIP3    H2 6511   2.147   2.072   3.281 -0.4292  0.1769  0.2668
 2169TIP3   OH2 6512   6.181   0.790   3.851 -0.0642 -0.2884 -0.0787
 2169TIP3    H1 6513   6.087   0.809   3.846 -0.1705 -0.6323  0.5311
 2169TIP3    H2 6514   6.214   0.809   3.763 -0.8916 -1.1716 -0.6051
 2170TIP3   OH2 6515   5.354   4.743   2.254  0.2227 -0.3336  0.2999
 2170TIP3    H1 6516   5.447   4.768   2.250 -0.1587  0.9925 -0.7623
 2170TIP3    H2 6517   5.307   4.818   2.219 -1.1802 -1.4737 -0.3565
 2171TIP3   OH2 6518   2.122   4.687   2.254  0.4210 -0.0456  0.0242
 2171TIP3    H1 6519   2.205   4.643   2.273  0.0361 -0.6234  0.4077
 2171TIP3    H2 6520   2.147   4.777   2.231  1.0438  0.2373  1.6738
 2172TIP3   OH2 6521   1.682   4.221   0.296 -0.3018  0.2023 -0.3882
 2172TIP3    H1 6522   1.635   4.293   0.338 -0.8595 -0.5094  0.2482
 2172TIP3    H2 6523   1.613   4.172   0.250 -0.0014 -0.1701 -0.4475
 2173TIP3   OH2 6524   3.915   4.670   4.750 -0.0729 -0.3091  0.4886
 2173TIP3    H1 6525   3.833   4.622   4.758 -0.7575  0.6433 -0.5693
 2173TIP3    H2 6526   3.889   4.761   4.737  1.1075 -0.1672 -1.1858
 2174TIP3   OH2 6527   6.261   3.953   3.281 -0.7460  0.1158 -0.4212
 2174TIP3    H1 6528   6.171   3.921   3.280 -0.9505  0.6862 -0.6526
 2174TIP3    H2 6529   6.267   4.007   3.360 -0.6275  0.1329 -0.4415
 2175TIP3   OH2 6530   1.356   1.083   0.600 -0.2657 -0.8143  0.0204
 2175TIP3    H1 6531   1.289   1.030   0.643  0.0217  0.7966  2.6709
 2175TIP3    H2 6532   1.362   1.048   0.511 -2.3538 -3.0356  0.6765
 2176TIP3   OH2 6533   0.611   5.724   1.109 -0.5329 -0.6985 -0.0541
 2176TIP3    H1 6534   0.691   5.768   1.138 -0.8696  1.2650 -1.8709
 2176TIP3    H2 6535   0.587   5.667   1.183 -0.3966  2.6058  2.8180
 2177TIP3   OH2 6536   0.378   1.844   4.795  0.4488  0.5024 -0.0469
 2177TIP3    H1 6537   0.384   1.799   4.879 -1.5372  2.8897  1.5220
 2177TIP3    H2 6538   0.307   1.800   4.748 -0.0624  0.6620  0.5710
 2178TIP3   OH2 6539   1.042   3.855   2.407 -0.5850 -0.4710 -0.4156
 2178TIP3    H1 6540   0.974   3.871   2.342 -1.1940 -1.6070 -0.0820
 2178TIP3    H2 6541   1.075   3.768   2.387 -0.7594 -0.8261  0.7559
 2179TIP3   OH2 6542   3.771   5.039   3.618 -0.1910  0.1496  0.4499
 2179TIP3    H1 6543   3.762   5.070   3.708 -0.0287 -2.0127  1.2636
 2179TIP3    H2 6544   3.792   4.946   3.627 -1.1104 -0.3329 -1.8497
 2180TIP3   OH2 6545   2.913   3.485   3.199  0.0507  0.2815  0.7073
 2180TIP3    H1 6546   2.892   3.394   3.220  0.5317 -0.2621 -1.0025
 2180TIP3    H2 6547   3.009   3.490   3.204  0.1897  0.1506 -1.0491
 2181TIP3   OH2 6548   1.701   5.245   0.680 -0.1508 -0.7300  0.8917
 2181TIP3    H1 6549   1.641   5.183   0.638  0.3853 -1.2486  0.8835
 2181TIP3    H2 6550   1.649   5.325   0.692 -0.8871 -1.2267  1.0340
 2182TIP3   OH2 6551   3.829   2.377   4.198 -0.3144  0.4614 -0.3765
 2182TIP3    H1 6552   3.740   2.384   4.164 -0.0188  0.6495 -1.1357
 2182TIP3    H2 6553   3.885   2.407   4.126  0.3205  1.2070  0.4031
 2183TIP3   OH2 6554   0.523   4.480   3.476  0.4649 -0.4187  0.8511
 2183TIP3    H1 6555   0.527   4.423   3.552 -2.3682  1.1670  2.3620
 2183TIP3    H2 6556   0.574   4.557   3.500 -0.2830  0.0074  1.0929
 2184TIP3   OH2 6557   1.286   0.045   0.912 -0.3594  0.5616 -0.4658
 2184TIP3    H1 6558   1.214   0.089   0.866 -0.3363 -0.5506 -1.6382
 2184TIP3    H2 6559   1.305   0.101   0.987 -2.6475  0.7584  0.0570
 2185TIP3   OH2 6560   1.699   2.626   0.493 -0.6244  0.0294 -0.6494
 2185TIP3    H1 6561   1.630   2.656   0.435 -2.0984 -2.7267 -0.4965
 2185TIP3    H2 6562   1.674   2.658   0.579  1.4507  3.9351 -1.2549
 2186TIP3   OH2 6563   0.763   1.472   1.533 -0.4305 -0.7645  0.1031
 2186TIP3    H1 6564   0.777   1.432   1.447  1.0657  0.0587 -0.0869
 2186TIP3    H2 6565   0.730   1.560   1.513  4.0939  1.2110 -0.0151
 2187TIP3   OH2 6566   4.837   5.400   0.568 -0.0282  0.2480 -0.2491
 2187TIP3    H1 6567   4.895   5.344   0.618  1.8104  1.6168 -0.7518
 2187TIP3    H2 6568   4.803   5.344   0.498  1.9849 -0.1862 -0.9246
 2188TIP3   OH2 6569   1.557   1.685   0.598  0.0049 -0.1148 -0.1621
 2188TIP3    H1 6570   1.627   1.723   0.545 -0.2106 -1.4964 -1.5219
 2188TIP3    H2 6571   1.593   1.602   0.630 -0.4838 -0.1081  0.4329
 2189TIP3   OH2 6572   6.096   4.703   4.277 -0.0875  0.2112  0.2716
 2189TIP3    H1 6573   6.077   4.673   4.188 -0.6426  1.3999 -0.0242
 2189TIP3    H2 6574   6.010   4.718   4.317  0.1195  2.8192 -0.1058
 2190TIP3   OH2 6575   2.441   2.761   1.044 -0.3817 -0.1160  0.1598
 2190TIP3    H1 6576   2.423   2.667   1.050 -1.7911  0.1947  1.4255
 2190TIP3    H2 6577   2.401   2.788   0.961  0.8658 -0.7702 -0.6894
 2191TIP3   OH2 6578   2.603   4.796   0.366  0.5044  0.1452  0.3453
 2191TIP3    H1 6579   2.657   4.834   0.436  1.4380  0.9262 -0.7624
 2191TIP3    H2 6580   2.514   4.827   0.385  0.9782  1.5206  0.4141
 2192TIP3   OH2 6581   0.570   5.394   5.089  0.5508  0.6493  0.3344
 2192TIP3    H1 6582   0.617   5.312   5.076  0.1427  0.3748  0.5642
 2192TIP3    H2 6583   0.521   5.406   5.007 -0.0651  0.2118  0.6310
 2193TIP3   OH2 6584   4.647   1.393   1.187  0.4761  0.3309 -0.0068
 2193TIP3    H1 6585   4.682   1.448   1.117 -0.9361  1.4498  0.1202
 2193TIP3    H2 6586   4.617   1.455   1.253 -1.6375 -0.5405 -0.0813
 2194TIP3   OH2 6587   3.979   3.154   2.138 -0.4286  0.4539 -0.3500
 2194TIP3    H1 6588   4.014   3.114   2.058 -1.3331  0.8520 -0.9604
 2194TIP3    H2 6589   3.951   3.080   2.191  2.9563 -0.0256  1.0011
 2195TIP3   OH2 6590   2.709   2.716   1.084  0.3510  0.2678  0.3146
 2195TIP3    H1 6591   2.621   2.729   1.051  0.7847 -1.1968 -1.6052
 2195TIP3    H2 6592   2.696   2.672   1.169 -0.7516  2.2516  1.2334
 2196TIP3   OH2 6593   0.133   3.850   2.739 -0.0919  0.3876 -0.1370
 2196TIP3    H1 6594   0.212   3.889   2.778 -0.7932  1.7641 -0.0118
 2196TIP3    H2 6595   0.072   3.843   2.812  0.6049 -2.8172  0.2759
 2197TIP3   OH2 6596   4.368   4.381   2.377  0.3837 -0.1652  0.0020
 2197TIP3    H1 6597   4.352   4.305   2.321  2.1109  1.0862 -2.4077
 2197TIP3    H2 6598   4.282   4.404   2.412 -0.5128 -1.9431 -0.9138
 2198TIP3   OH2 6599   3.498   0.523   1.844  0.3567 -0.3369  0.2107
 2198TIP3    H1 6600   3.485   0.590   1.911  0.5935 -0.8592  0.7849
 2198TIP3    H2 6601   3.533   0.447   1.892  1.3720 -0.4213 -0.6184
 2199TIP3   OH2 6602   3.443   0.648   3.095 -0.1688 -0.0263 -0.1756
 2199TIP3    H1 6603   3.417   0.633   3.186 -2.1886 -0.4619 -0.7802
 2199TIP3    H2 6604   3.539   0.641   3.096  0.3019  3.5963  2.5895
 2200TIP3   OH2 6605   0.533   3.148   0.675 -0.2535  0.3808  0.2657
 2200TIP3    H1 6606   0.526   3.053   0.681 -1.3980  0.5039  1.6686
 2200TIP3    H2 6607   0.488   3.171   0.593  0.8053 -0.3260 -0.5308
 2201TIP3   OH2 6608   4.379   5.701   4.296  0.3111 -0.1771 -0.4633
 2201TIP3    H1 6609   4.376   5.795   4.278  0.4518  0.0704  0.7321
 2201TIP3    H2 6610   4.311   5.686   4.362 -0.9216 -1.2393 -1.9027
 2202TIP3   OH2 6611   0.783   0.683   1.081 -0.3644 -0.1629 -0.1829
 2202TIP3    H1 6612   0.816   0.618   1.019 -0.6696 -0.3061 -0.1970
 2202TIP3    H2 6613   0.854   0.747   1.088  1.2945 -2.0964  2.2749
 2203TIP3   OH2 6614   5.494   5.489   4.666  0.1930  0.5564  0.2205
 2203TIP3    H1 6615   5.466   5.397   4.664  1.4047  0.1021  1.6769
 2203TIP3    H2 6616   5.486   5.519   4.576 -0.8158 -0.7918 -0.1728
 2204TIP3   OH2 6617   4.059   0.898   4.425  0.3072 -0.0251 -0.0041
 2204TIP3    H1 6618   4.127   0.931   4.366  0.1422  1.2244  0.4663
 2204TIP3    H2 6619   4.105   0.841   4.486  1.4895  2.7211  1.8909
 2205TIP3   OH2 6620   4.372   2.425   0.980  0.6532 -0.0289 -0.1529
 2205TIP3    H1 6621   4.391   2.337   1.012  0.3260 -0.6150 -1.4986
 2205TIP3    H2 6622   4.410   2.484   1.046  0.3476 -1.1604  1.0795
 2206TIP3   OH2 6623   1.280   0.423   0.908 -0.0589  0.6226 -0.2503
 2206TIP3    H1 6624   1.332   0.376   0.974  1.0652  0.9731 -0.8611
 2206TIP3    H2 6625   1.314   0.392   0.824 -2.1810 -0.6105 -0.7351
 2207TIP3   OH2 6626   2.535   2.340   3.478 -0.1732  0.0366  0.3624
 2207TIP3    H1 6627   2.623   2.358   3.511 -0.9249  1.0860  1.9444
 2207TIP3    H2 6628   2.527   2.245   3.485  0.6430 -0.0218  0.7305
 2208TIP3   OH2 6629   4.580   2.268   2.611 -0.0433  0.7932 -0.2376
 2208TIP3    H1 6630   4.579   2.350   2.660  1.4458  0.4434  0.4326
 2208TIP3    H2 6631   4.673   2.249   2.597 -0.3863  0.5303 -2.6501
 2209TIP3   OH2 6632   0.087   4.453   2.016  0.2642  0.0921  0.0676
 2209TIP3    H1 6633   0.108   4.475   1.925 -0.8592  0.0484 -0.2154
 2209TIP3    H2 6634   0.073   4.358   2.014  0.7137  0.0156  0.3922
 2210TIP3   OH2 6635   6.234   1.312   2.577  0.6098  0.0687  0.1641
 2210TIP3    H1 6636   6.260   1.223   2.553 -0.0244 -0.3114  0.8248
 2210TIP3    H2 6637   6.234   1.311   2.673 -0.8591  0.3315  0.1850
 2211TIP3   OH2 6638   5.209   4.295   4.813  0.4027  0.7330 -0.2199
 2211TIP3    H1 6639   5.262   4.374   4.825  2.0061 -0.2007 -0.8288
 2211TIP3    H2 6640   5.268   4.233   4.770 -0.6598 -0.9802  0.6950
 2212TIP3   OH2 6641   0.136   0.510   2.133 -0.2210  0.5243 -0.3220
 2212TIP3    H1 6642   0.073   0.448   2.097  1.2956 -0.9256 -0.6047
 2212TIP3    H2 6643   0.171   0.466   2.211 -1.2251  2.3039  1.2180
 2213TIP3   OH2 6644   3.421   4.985   3.276  0.1522 -0.0279 -0.6846
 2213TIP3    H1 6645   3.421   4.911   3.215  1.3581 -0.4776 -0.1675
 2213TIP3    H2 6646   3.433   5.062   3.220  0.6477 -0.3817 -1.0833
 2214TIP3   OH2 6647   5.570   0.337   0.242  0.9042  0.1616  0.5807
 2214TIP3    H1 6648   5.550   0.388   0.164  0.7760  2.6358  2.1396
 2214TIP3    H2 6649   5.490   0.341   0.295  1.3604 -0.5242  1.3592
 2215TIP3   OH2 6650   6.156   5.720   2.218 -0.6706 -0.2381 -0.1395
 2215TIP3    H1 6651   6.096   5.756   2.284  0.2036 -1.0277  1.1381
 2215TIP3    H2 6652   6.137   5.626   2.218 -1.0303 -0.1723 -1.4207
 2216TIP3   OH2 6653   1.312   5.149   0.102 -0.3232  0.5978 -0.5016
 2216TIP3    H1 6654   1.314   5.128   0.009  0.4988 -2.3074  0.0888
 2216TIP3    H2 6655   1.404   5.151   0.129 -0.5426  1.5952  0.2476
 2217TIP3   OH2 6656   1.138   3.582   3.335 -0.4164  0.3905 -0.6373
 2217TIP3    H1 6657   1.069   3.534   3.289 -1.8177  3.6412 -2.2446
 2217TIP3    H2 6658   1.129   3.556   3.427 -1.9217 -1.3350 -1.2300
 2218TIP3   OH2 6659   5.498   5.673   4.434 -0.2357 -0.2780  0.4769
 2218TIP3    H1 6660   5.476   5.659   4.342  1.6374 -0.6954  0.0615
 2218TIP3    H2 6661   5.555   5.750   4.434  0.3043 -0.6622  1.1946
 2219TIP3   OH2 6662   2.877   0.260   0.589  0.2364  0.6902  0.3042
 2219TIP3    H1 6663   2.851   0.224   0.674  0.2518 -0.8581 -0.3002
 2219TIP3    H2 6664   2.838   0.347   0.586 -0.0360  0.6362  1.7611
 2220TIP3   OH2 6665   2.871   2.141   2.369  0.4841  0.7988  0.2961
 2220TIP3    H1 6666   2.914   2.108   2.448  0.1775  0.8448  0.4875
 2220TIP3    H2 6667   2.799   2.195   2.402 -1.3436 -1.3414  0.0452
 2221TIP3   OH2 6668   4.193   1.637   1.130 -0.2572 -0.3562  0.0638
 2221TIP3    H1 6669   4.138   1.598   1.197 -0.6720  1.2353  0.6879
 2221TIP3    H2 6670   4.214   1.564   1.071 -3.2725 -1.0013 -0.3906
 2222TIP3   OH2 6671   3.797   2.378   3.063 -0.5566  0.0119  0.3359
 2222TIP3    H1 6672   3.869   2.431   3.097 -1.1294  0.8975  0.2051
 2222TIP3    H2 6673   3.759   2.337   3.141 -0.2608 -0.0126  0.4682
 2223TIP3   OH2 6674   2.657   3.169   2.894  0.1338 -0.0708  0.2987
 2223TIP3    H1 6675   2.706   3.096   2.856 -0.9631 -1.9619  2.2864
 2223TIP3    H2 6676   2.707   3.247   2.870  1.2897 -1.4085 -2.0383
 2224TIP3   OH2 6677   4.285   4.380   0.513  0.2016 -0.1835  0.1349
 2224TIP3    H1 6678   4.347   4.307   0.521  0.7505  0.3307  0.7531
 2224TIP3    H2 6679   4.320   4.435   0.443  0.8784  0.4909  0.9707
 2225TIP3   OH2 6680   1.728   1.178   2.710  0.5368 -0.2768  0.7426
 2225TIP3    H1 6681   1.700   1.228   2.786 -0.8002 -1.9913  1.4491
 2225TIP3    H2 6682   1.688   1.092   2.722  1.9941 -1.2452 -0.8576
 2226TIP3   OH2 6683   5.625   1.114   0.317 -0.2693  0.6577  0.1773
 2226TIP3    H1 6684   5.655   1.149   0.401  0.7557 -0.3246  0.2389
 2226TIP3    H2 6685   5.593   1.191   0.270 -1.1521  1.1769  1.5635
 2227TIP3   OH2 6686   4.900   4.076   3.059  0.1600  0.1076  0.7289
 2227TIP3    H1 6687   4.864   4.125   2.985  1.5814 -1.3802 -1.0579
 2227TIP3    H2 6688   4.833   4.010   3.078 -0.2303  0.5215  0.7956
 2228TIP3   OH2 6689   1.190   5.315   4.763  0.7452  0.5086  0.0759
 2228TIP3    H1 6690   1.282   5.334   4.748  0.6542  0.6212 -0.3952
 2228TIP3    H2 6691   1.152   5.400   4.789  0.7895  0.4463  0.3411
 2229TIP3   OH2 6692   0.500   4.383   5.152  0.3695  0.0460 -0.3802
 2229TIP3    H1 6693   0.485   4.400   5.059 -1.2100 -2.2407 -0.6193
 2229TIP3    H2 6694   0.444   4.445   5.197 -0.4518 -0.2177 -1.0157
 2230TIP3   OH2 6695   6.235   3.653   4.696  0.4730  0.1413 -0.0399
 2230TIP3    H1 6696   6.184   3.731   4.719  1.0437  0.6484 -0.4704
 2230TIP3    H2 6697   6.302   3.647   4.764 -0.6439 -1.0168  1.0196
 2231TIP3   OH2 6698   0.152   3.693   1.837 -0.0621  0.0681  0.3443
 2231TIP3    H1 6699   0.087   3.686   1.906 -0.6874  0.1893 -0.2312
 2231TIP3    H2 6700   0.103   3.718   1.759  0.5733 -0.4458 -0.2414
 2232TIP3   OH2 6701   1.316   3.815   0.378 -0.1008 -0.0185  0.3305
 2232TIP3    H1 6702   1.296   3.733   0.333 -0.6682 -0.0787  0.6705
 2232TIP3    H2 6703   1.407   3.807   0.405 -0.0916 -0.4530  0.1756
 2233TIP3   OH2 6704   5.412   1.466   4.689 -0.7032 -0.5957 -0.0392
 2233TIP3    H1 6705   5.337   1.491   4.744  0.2411  1.7986  0.3028
 2233TIP3    H2 6706   5.480   1.530   4.712  1.1010 -2.0405 -1.1059
 2234TIP3   OH2 6707   2.303   4.079   1.690  0.3868  0.4477  0.2875
 2234TIP3    H1 6708   2.358   4.156   1.670 -0.3430  0.9439  0.1501
 2234TIP3    H2 6709   2.362   4.005   1.681  0.5071  0.7471 -2.3023
 2235TIP3   OH2 6710   3.604   5.632   0.081  0.7705 -0.0712 -0.0199
 2235TIP3    H1 6711   3.570   5.587   0.003 -0.8901  0.4887  0.3270
 2235TIP3    H2 6712   3.581   5.574   0.154  1.3525 -0.0819  0.1585
 2236TIP3   OH2 6713   4.680   3.001   2.627  0.0821 -0.0593 -0.4871
 2236TIP3    H1 6714   4.645   2.960   2.548 -1.8935  0.6052  0.0124
 2236TIP3    H2 6715   4.639   3.087   2.630  0.4284  0.0752  1.0573
 2237TIP3   OH2 6716   0.809   3.711   0.348 -0.2034  0.7019  0.6680
 2237TIP3    H1 6717   0.877   3.678   0.406  1.6053  2.9433 -0.0471
 2237TIP3    H2 6718   0.728   3.673   0.382  0.9082  0.9202  3.8821
 2238TIP3   OH2 6719   1.586   5.842   0.407  0.5756  0.7131 -1.1016
 2238TIP3    H1 6720   1.527   5.899   0.455  1.8364  0.9734  0.2109
 2238TIP3    H2 6721   1.642   5.901   0.357  0.4184  0.5179 -1.5137
 2239TIP3   OH2 6722   0.176   2.934   1.586  0.0655 -0.1550 -0.1568
 2239TIP3    H1 6723   0.150   3.009   1.640 -2.2038 -2.6164  2.4798
 2239TIP3    H2 6724   0.157   2.961   1.497 -0.0682  2.6049  0.6183
 2240TIP3   OH2 6725   1.113   0.862   2.538  0.0966  0.2204  0.1440
 2240TIP3    H1 6726   1.190   0.825   2.581  1.3845  1.5346 -0.9283
 2240TIP3    H2 6727   1.148   0.912   2.465 -1.7514  1.3497 -0.0381
 2241TIP3   OH2 6728   5.264   0.821   0.602 -0.5056  0.0002 -0.1230
 2241TIP3    H1 6729   5.247   0.826   0.696 -0.8578  3.3011 -0.2454
 2241TIP3    H2 6730   5.358   0.832   0.593 -0.6936  1.8298 -0.1787
 2242TIP3   OH2 6731   5.882   0.644   2.010 -0.2263  0.4293  0.1967
 2242TIP3    H1 6732   5.802   0.691   1.989 -0.9487  0.3156  2.4024
 2242TIP3    H2 6733   5.943   0.667   1.940 -1.6460  1.8676 -0.6244
 2243TIP3   OH2 6734   4.764   5.536   2.120  0.2575 -0.0806  0.0877
 2243TIP3    H1 6735   4.802   5.622   2.107 -1.1016  0.2757 -1.8761
 2243TIP3    H2 6736   4.793   5.484   2.045  0.8458 -1.2789  1.1052
 2244TIP3   OH2 6737   5.350   3.598   2.352 -0.0432 -0.6792 -0.2016
 2244TIP3    H1 6738   5.427   3.542   2.346  1.3535  1.2487 -2.5290
 2244TIP3    H2 6739   5.309   3.592   2.265 -0.6540  0.7525 -0.0451
 2245TIP3   OH2 6740   2.894   5.525   2.251  0.0827  0.3250 -0.1527
 2245TIP3    H1 6741   2.867   5.489   2.167  1.3355 -0.8767 -0.0824
 2245TIP3    H2 6742   2.817   5.514   2.308 -0.0239 -1.0287 -0.5151
 2246TIP3   OH2 6743   5.934   2.199   1.253  0.0104  0.1876 -0.3664
 2246TIP3    H1 6744   5.996   2.258   1.210  0.3223  0.7804  0.8411
 2246TIP3    H2 6745   5.989   2.132   1.294 -0.1331  0.6489  0.6091
 2247TIP3   OH2 6746   3.837   5.059   0.237 -0.1378 -0.1132  0.0800
 2247TIP3    H1 6747   3.873   4.993   0.297  0.1246  0.4042  0.5092
 2247TIP3    H2 6748   3.836   5.017   0.152  1.2269 -0.2498  0.1130
 2248TIP3   OH2 6749   0.318   2.643   2.887 -0.1967  0.0399  0.3493
 2248TIP3    H1 6750   0.288   2.562   2.844 -0.2980  0.1969  0.1212
 2248TIP3    H2 6751   0.242   2.701   2.885 -0.2254  0.0194  0.8220
 2249TIP3   OH2 6752   1.040   2.774   1.428  0.3871 -0.6846 -0.0544
 2249TIP3    H1 6753   1.119   2.807   1.386  0.2109 -0.1619  0.0227
 2249TIP3    H2 6754   1.021   2.692   1.382  0.1761 -0.1123 -1.0206
 2250TIP3   OH2 6755   4.260   4.327   1.045  0.0106 -0.3018 -0.3281
 2250TIP3    H1 6756   4.265   4.422   1.051  0.6355 -0.4117  1.2132
 2250TIP3    H2 6757   4.345   4.301   1.009 -1.0729 -0.1544 -3.2525
 2251TIP3   OH2 6758   4.654   5.379   2.545  0.6798  0.0356 -0.2710
 2251TIP3    H1 6759   4.710   5.401   2.471  0.8544  0.9673  0.1306
 2251TIP3    H2 6760   4.566   5.402   2.515  0.5344 -1.0564 -0.7523
 2252TIP3   OH2 6761   4.933   3.306   0.783  0.0028 -0.3147 -0.6267
 2252TIP3    H1 6762   4.956   3.304   0.690 -1.0952  0.7266 -0.9497
 2252TIP3    H2 6763   4.841   3.281   0.784 -0.1867  0.4110  0.1094
 2253TIP3   OH2 6764   4.123  -0.012   3.589 -0.0224  0.6482 -0.2863
 2253TIP3    H1 6765   4.144   0.023   3.502 -0.2944  0.7052 -0.3278
 2253TIP3    H2 6766   4.108   0.065   3.643  1.4163  0.6656  0.1416
 2254TIP3   OH2 6767   2.736   4.337   2.740 -0.3649 -0.3794 -0.3458
 2254TIP3    H1 6768   2.655   4.345   2.791 -0.8821 -1.9955 -0.8391
 2254TIP3    H2 6769   2.790   4.276   2.789 -0.4252 -1.1110 -1.1540
 2255TIP3   OH2 6770   0.885   0.675   3.738  0.1890 -0.3309 -0.2823
 2255TIP3    H1 6771   0.931   0.671   3.822  1.5668 -0.5242 -1.0122
 2255TIP3    H2 6772   0.821   0.604   3.742 -0.2122  0.0657  0.8379
 2256TIP3   OH2 6773   5.203   0.565   2.508  0.3022  0.2291 -0.6763
 2256TIP3    H1 6774   5.226   0.511   2.432 -0.5232 -3.4509  1.4476
 2256TIP3    H2 6775   5.249   0.524   2.581 -0.4200  2.4722  1.1546
 2257TIP3   OH2 6776   2.773   5.067   0.185  0.5131 -0.0783 -0.1720
 2257TIP3    H1 6777   2.853   5.046   0.137  0.3611 -0.4345 -0.2688
 2257TIP3    H2 6778   2.745   5.151   0.148  1.8674  1.0268  1.1692
 2258TIP3   OH2 6779   0.195   0.640   4.012 -0.2089  0.1049  0.3753
 2258TIP3    H1 6780   0.201   0.557   3.966 -1.7418 -0.2558  0.7596
 2258TIP3    H2 6781   0.102   0.664   4.007  0.2153  1.8948  0.1143
 2259TIP3   OH2 6782   0.766   1.239   1.957  0.1664 -0.8891 -0.2129
 2259TIP3    H1 6783   0.732   1.161   1.912 -1.0018 -0.1499 -0.6727
 2259TIP3    H2 6784   0.736   1.312   1.902  1.8606 -0.1436 -0.1867
 2260TIP3   OH2 6785   4.849   5.619   4.982  0.2436 -0.1178  0.4128
 2260TIP3    H1 6786   4.762   5.584   4.964 -0.2709  1.5783 -0.5730
 2260TIP3    H2 6787   4.878   5.570   5.059 -0.7136 -2.1472 -0.4262
 2261TIP3   OH2 6788   1.265   3.040   2.109 -0.1761 -0.8024 -0.6352
 2261TIP3    H1 6789   1.185   3.072   2.150  0.0957  1.2701 -1.6374
 2261TIP3    H2 6790   1.235   2.978   2.042 -0.8558 -0.8349 -0.3045
 2262TIP3   OH2 6791   5.473   2.986   2.757  0.5974 -0.2550 -0.2302
 2262TIP3    H1 6792   5.548   2.928   2.740 -0.6695 -1.9036 -0.4671
 2262TIP3    H2 6793   5.432   2.998   2.672 -0.6396 -1.1823  0.2042
 2263TIP3   OH2 6794   6.057   0.415   1.841 -0.0932 -0.0086 -0.7634
 2263TIP3    H1 6795   5.984   0.356   1.864  0.2878 -1.3102 -2.6972
 2263TIP3    H2 6796   6.018   0.502   1.843 -0.9427 -0.3613  1.1091
 2264TIP3   OH2 6797   4.499   3.784   5.036  0.5449 -0.0049 -0.2972
 2264TIP3    H1 6798   4.549   3.732   5.098  0.3267  1.4106  1.1287
 2264TIP3    H2 6799   4.536   3.763   4.950  2.0835 -0.6301  0.4990
 2265TIP3   OH2 6800   2.167   4.643   3.884 -0.4083  0.2330  0.6339
 2265TIP3    H1 6801   2.186   4.629   3.977  0.9498 -0.1169  0.3121
 2265TIP3    H2 6802   2.157   4.555   3.848  0.8696  0.2984  0.0912
 2266TIP3   OH2 6803   5.202   1.570   4.826  0.2845  0.5950 -0.0823
 2266TIP3    H1 6804   5.214   1.656   4.867 -1.9633  0.5196  0.9194
 2266TIP3    H2 6805   5.138   1.586   4.757  1.3517  0.0509 -1.2367
 2267TIP3   OH2 6806   6.117   3.523   3.272  0.3257 -0.2119 -0.2222
 2267TIP3    H1 6807   6.107   3.434   3.306  0.4340 -0.7050 -1.4344
 2267TIP3    H2 6808   6.080   3.579   3.341  4.3479 -0.7714  2.7155
 2268TIP3   OH2 6809   4.613   0.638   1.459  0.3122 -0.0994  0.6839
 2268TIP3    H1 6810   4.559   0.692   1.518 -0.2648 -1.2037  1.2003
 2268TIP3    H2 6811   4.614   0.686   1.377 -0.8763  0.3018  0.8875
 2269TIP3   OH2 6812   1.301   3.136   4.303  0.3128  0.1856  0.3941
 2269TIP3    H1 6813   1.286   3.041   4.306  2.7292 -0.2457  0.9520
 2269TIP3    H2 6814   1.309   3.162   4.394 -1.8443  1.2615  0.3296
 2270TIP3   OH2 6815   2.644   5.212   4.524 -0.3089  0.2024 -0.1639
 2270TIP3    H1 6816   2.613   5.122   4.514 -0.7767  0.4060 -0.6209
 2270TIP3    H2 6817   2.637   5.248   4.436 -0.3181  0.7460  0.0599
 2271TIP3   OH2 6818   5.993   1.182   0.301  0.3392  0.0292 -0.6813
 2271TIP3    H1 6819   5.947   1.178   0.217  0.8934 -0.7301 -0.9570
 2271TIP3    H2 6820   6.085   1.168   0.279  0.6137  0.7898 -0.0484
 2272TIP3   OH2 6821   1.660   2.392   0.088 -0.1233 -0.0495  1.1503
 2272TIP3    H1 6822   1.708   2.475   0.080  0.6416 -0.4507  1.4413
 2272TIP3    H2 6823   1.586   2.401   0.028  0.3577  0.5591  0.6334
 2273TIP3   OH2 6824   0.390   0.860   4.597  0.3743  0.5611 -0.0982
 2273TIP3    H1 6825   0.338   0.876   4.518  0.6415  0.7779 -0.2351
 2273TIP3    H2 6826   0.472   0.906   4.580  1.7454 -2.0687 -1.0888
 2274TIP3   OH2 6827   1.912   5.090   4.991 -0.1586  0.0762  0.2193
 2274TIP3    H1 6828   1.834   5.124   5.037  0.0636  1.6740 -0.5146
 2274TIP3    H2 6829   1.877   5.026   4.929 -0.9291  0.9405 -0.2604
 2275TIP3   OH2 6830   5.068   1.444   3.405  0.0442 -0.0773 -0.1505
 2275TIP3    H1 6831   5.031   1.463   3.319  1.9688  0.7832 -0.8487
 2275TIP3    H2 6832   5.016   1.496   3.466 -1.4680 -0.8480 -0.7353
 2276TIP3   OH2 6833   2.133   1.646   4.175  0.0050  0.1330  0.5453
 2276TIP3    H1 6834   2.153   1.639   4.081 -0.8992 -2.4776  0.4790
 2276TIP3    H2 6835   2.204   1.599   4.218 -1.2546 -1.5462  0.8918
 2277TIP3   OH2 6836   2.145   1.326   0.356  0.2554 -0.0772 -0.6567
 2277TIP3    H1 6837   2.144   1.288   0.444  1.4011 -2.4196 -1.5452
 2277TIP3    H2 6838   2.053   1.336   0.332 -0.0907 -1.3548  0.0580
 2278TIP3   OH2 6839   2.851   3.128   0.192  0.2006  0.3003  0.8533
 2278TIP3    H1 6840   2.767   3.081   0.192  0.2138  0.2637  0.3903
 2278TIP3    H2 6841   2.827   3.219   0.171  0.0849  0.6989  2.5702
 2279TIP3   OH2 6842   2.884   5.503   3.269 -0.0957  0.6456 -0.0236
 2279TIP3    H1 6843   2.967   5.500   3.221 -1.6903 -0.2287 -2.9495
 2279TIP3    H2 6844   2.908   5.536   3.356  3.3902 -0.3249 -0.4803
 2280TIP3   OH2 6845   3.270   0.098   2.851  0.0975  0.1604  0.3566
 2280TIP3    H1 6846   3.328   0.135   2.785  0.2418  0.0057  0.3978
 2280TIP3    H2 6847   3.210   0.042   2.802 -0.5526  0.9583  0.2035
 2281TIP3   OH2 6848   2.997   4.138   3.611 -0.1855  0.1165 -0.0049
 2281TIP3    H1 6849   2.935   4.087   3.662  1.3855 -1.3542  0.5340
 2281TIP3    H2 6850   2.943   4.197   3.559 -1.9664 -0.4950  1.0707
 2282TIP3   OH2 6851   1.267   0.241   0.294 -0.1841 -0.2564  0.2021
 2282TIP3    H1 6852   1.200   0.307   0.311 -0.3337 -0.4829  0.5016
 2282TIP3    H2 6853   1.313   0.273   0.216  1.3298  1.4570  1.6945
 2283TIP3   OH2 6854   3.641   1.199   4.522  0.1745  0.2762  0.4722
 2283TIP3    H1 6855   3.609   1.177   4.609  1.4958 -1.6332  0.5339
 2283TIP3    H2 6856   3.575   1.164   4.462  0.2126 -0.1431  0.6744
 2284TIP3   OH2 6857   3.222   2.749   3.494 -0.4596  0.0703  0.2994
 2284TIP3    H1 6858   3.166   2.734   3.570  0.5029 -0.3736  0.9407
 2284TIP3    H2 6859   3.276   2.825   3.518  1.4934 -1.4881  1.0570
 2285TIP3   OH2 6860   2.160   1.837   0.366 -0.0737 -0.1179  0.4280
 2285TIP3    H1 6861   2.165   1.746   0.395  0.4578 -0.0253  0.6408
 2285TIP3    H2 6862   2.125   1.832   0.277  0.3531 -0.5604  0.2827
 2286TIP3   OH2 6863   3.623   4.745   4.081 -0.4961  0.2416  0.1881
 2286TIP3    H1 6864   3.703   4.786   4.112  0.6358 -0.3191 -1.8333
 2286TIP3    H2 6865   3.574   4.726   4.161  2.2343 -1.1406  1.6808
 2287TIP3   OH2 6866   1.645   3.824   3.139 -0.4966  0.2636 -0.5256
 2287TIP3    H1 6867   1.566   3.807   3.192  0.2367 -2.5106 -0.1351
 2287TIP3    H2 6868   1.619   3.800   3.050 -0.2549 -0.2014 -0.4755
 2288TIP3   OH2 6869   5.661   4.547   3.763 -0.0838  0.0685  0.4539
 2288TIP3    H1 6870   5.647   4.620   3.703 -0.4283 -0.7445 -0.4922
 2288TIP3    H2 6871   5.755   4.531   3.760 -0.1590 -0.2676 -0.2465
 2289TIP3   OH2 6872   0.382   1.442   0.819 -0.1522 -0.2348  0.5449
 2289TIP3    H1 6873   0.384   1.512   0.884 -1.3705  0.3256  0.0235
 2289TIP3    H2 6874   0.470   1.441   0.782 -0.3094  1.6039 -0.0048
 2290TIP3   OH2 6875   4.327   2.579   3.413 -0.0281  0.2179 -0.0858
 2290TIP3    H1 6876   4.270   2.505   3.432  0.5650 -0.1026  0.4284
 2290TIP3    H2 6877   4.414   2.551   3.438  0.4790  0.4866 -1.4346
 2291TIP3   OH2 6878   1.575   2.583   3.607 -0.8675 -0.0628 -0.1317
 2291TIP3    H1 6879   1.596   2.667   3.567  0.3643 -0.1359  0.3365
 2291TIP3    H2 6880   1.587   2.519   3.536  0.1377 -0.0557  0.0162
 2292TIP3   OH2 6881   5.289   3.882   1.124  0.3536 -0.8534 -0.3149
 2292TIP3    H1 6882   5.290   3.937   1.046 -0.9374 -1.3781 -0.7309
 2292TIP3    H2 6883   5.253   3.798   1.094 -0.8211 -0.8433  0.9546
 2293TIP3   OH2 6884   0.539   5.531   2.960  0.4906 -0.3617  0.2250
 2293TIP3    H1 6885   0.572   5.459   2.905 -0.0004 -0.3059 -0.1546
 2293TIP3    H2 6886   0.524   5.490   3.045  3.3051  0.0216  1.0007
 2294TIP3   OH2 6887   2.368   4.898   2.942  0.3769  0.1463 -0.2466
 2294TIP3    H1 6888   2.285   4.873   2.902  0.2059  0.4338 -0.0774
 2294TIP3    H2 6889   2.343   4.962   3.009  0.6482 -0.3689  0.3565
 2295TIP3   OH2 6890   0.975   2.747   3.312 -0.0320  0.1349 -0.1677
 2295TIP3    H1 6891   1.041   2.682   3.335  1.9441  1.8559 -0.5540
 2295TIP3    H2 6892   0.943   2.720   3.226  0.3472 -0.6206 -0.0722
 2296TIP3   OH2 6893   2.957   0.691   0.242  0.1011 -0.0323  0.0260
 2296TIP3    H1 6894   2.957   0.711   0.336 -2.3311 -0.2459  0.1405
 2296TIP3    H2 6895   2.907   0.610   0.235 -2.4529  1.5704 -1.6780
 2297TIP3   OH2 6896   0.297   3.415   4.865 -0.0826 -0.2958 -0.0285
 2297TIP3    H1 6897   0.282   3.364   4.785  1.9631 -0.2589 -0.4946
 2297TIP3    H2 6898   0.319   3.350   4.931 -0.7591 -0.2456  0.2536
 2298TIP3   OH2 6899   4.215   0.918   0.434  0.3098 -0.1961  0.3793
 2298TIP3    H1 6900   4.276   0.878   0.496  2.1210  1.3672 -0.2915
 2298TIP3    H2 6901   4.255   1.002   0.412 -2.2963  1.0841  0.1554
 2299TIP3   OH2 6902   3.031   4.827   2.959  0.1324 -0.1341 -0.1598
 2299TIP3    H1 6903   3.095   4.803   2.893 -0.6190 -0.8570 -0.6482
 2299TIP3    H2 6904   2.948   4.834   2.911 -0.4522 -0.8042  0.7091
 2300TIP3   OH2 6905   5.700   5.770   4.098  0.1105 -0.8669  0.1181
 2300TIP3    H1 6906   5.750   5.723   4.165  3.7052  0.9093 -1.0643
 2300TIP3    H2 6907   5.733   5.736   4.015 -2.4843 -1.2829 -0.8528
 2301TIP3   OH2 6908   1.235   0.905   0.757 -0.3947  0.0374  0.3201
 2301TIP3    H1 6909   1.277   0.836   0.706 -0.0148 -0.0029  0.6816
 2301TIP3    H2 6910   1.306   0.942   0.811 -0.4739  1.0688 -0.2595
 2302TIP3   OH2 6911   1.289   4.055   3.054 -0.3736  0.3916  0.6098
 2302TIP3    H1 6912   1.217   4.114   3.077 -0.0520  1.2816 -0.5973
 2302TIP3    H2 6913   1.276   4.036   2.961  0.2634 -0.4166  0.6748
 2303TIP3   OH2 6914   0.551   1.214   2.742 -0.0914  0.5117 -0.0909
 2303TIP3    H1 6915   0.619   1.147   2.742  0.0464  0.6536 -0.3935
 2303TIP3    H2 6916   0.580   1.278   2.678 -0.3286  0.7566  0.0469
 2304TIP3   OH2 6917   5.162   0.543   0.121 -0.0620 -0.0248 -0.8181
 2304TIP3    H1 6918   5.176   0.587   0.205  1.0617 -2.4174  0.3267
 2304TIP3    H2 6919   5.104   0.470   0.140  2.6141 -2.5057 -1.3404
 2305TIP3   OH2 6920   5.877   1.798   2.084  0.6404  0.0544 -0.0927
 2305TIP3    H1 6921   5.914   1.761   2.005 -1.5172 -0.7688 -0.8059
 2305TIP3    H2 6922   5.879   1.893   2.070 -0.3812 -0.0982 -1.5133
 2306TIP3   OH2 6923   3.392   0.117   1.984  0.4579 -0.6790 -0.3758
 2306TIP3    H1 6924   3.327   0.179   2.015  0.7155  0.3643 -1.8249
 2306TIP3    H2 6925   3.340   0.045   1.946  0.1196  0.1439 -1.5198
 2307TIP3   OH2 6926   0.190   2.626   5.126  0.3472  0.2237 -0.0287
 2307TIP3    H1 6927   0.256   2.601   5.062 -2.2461 -2.3386 -1.9420
 2307TIP3    H2 6928   0.197   2.722   5.131  3.1191  0.1819 -1.2546
 2308TIP3   OH2 6929   1.364   4.665   1.980  0.0777  0.2004  0.5565
 2308TIP3    H1 6930   1.285   4.716   1.962 -0.1212 -0.2143  0.2474
 2308TIP3    H2 6931   1.436   4.724   1.958 -0.1456 -0.0913 -1.1057
 2309TIP3   OH2 6932   4.644   0.147   4.215  0.2126 -0.1347  0.6284
 2309TIP3    H1 6933   4.671   0.228   4.258 -0.0625 -0.2938  1.1060
 2309TIP3    H2 6934   4.553   0.135   4.241  0.0231 -0.2125 -0.0401
 2310TIP3   OH2 6935   3.618   1.294   2.349 -0.1893  0.2606  0.1004
 2310TIP3    H1 6936   3.529   1.316   2.320  0.0455  0.0159 -0.8511
 2310TIP3    H2 6937   3.626   1.200   2.332 -0.5663 -0.2665  2.4609
 2311TIP3   OH2 6938   5.213   2.956   0.827 -0.0294 -0.2785  0.2665
 2311TIP3    H1 6939   5.268   2.938   0.904  0.4967 -1.8102 -0.4367
 2311TIP3    H2 6940   5.150   2.884   0.825  1.2164 -1.3967 -1.8251
 2312TIP3   OH2 6941   1.470   0.614   3.210  0.3143  0.5227  0.1016
 2312TIP3    H1 6942   1.540   0.611   3.145  0.2088  1.5008 -0.0662
 2312TIP3    H2 6943   1.403   0.553   3.177  0.5938  0.4333 -0.3040
 2313TIP3   OH2 6944   1.446   1.663   2.758  0.4006  0.4011 -0.5745
 2313TIP3    H1 6945   1.379   1.596   2.747  1.2293 -0.4312 -0.7203
 2313TIP3    H2 6946   1.398   1.746   2.761 -0.6738 -0.2283  0.0190
 2314TIP3   OH2 6947   3.022   1.116   0.819 -0.6808  0.1102  0.5441
 2314TIP3    H1 6948   3.089   1.089   0.883  1.1756 -1.8514 -1.9696
 2314TIP3    H2 6949   3.055   1.197   0.783  0.6886 -1.0569 -0.9749
 2315TIP3   OH2 6950   5.911   1.785   2.705  0.1048  0.5357 -0.4410
 2315TIP3    H1 6951   5.939   1.730   2.778  0.2943  0.5186 -0.5269
 2315TIP3    H2 6952   5.881   1.866   2.746  1.1239  0.9016 -0.4134
 2316TIP3   OH2 6953   3.450   4.447   0.855  0.2373  0.0949 -0.0712
 2316TIP3    H1 6954   3.388   4.378   0.878 -1.1719  1.2622 -0.2587
 2316TIP3    H2 6955   3.396   4.523   0.836  1.7508  1.2671  0.1081
 2317TIP3   OH2 6956   2.137   2.612   0.831  0.5529  0.4910  0.0754
 2317TIP3    H1 6957   2.072   2.569   0.886  0.6308  0.0355 -0.1787
 2317TIP3    H2 6958   2.218   2.606   0.881  0.9353 -1.2036 -0.6789
 2318TIP3   OH2 6959   3.715   1.506   4.381 -0.5904  0.1410  0.7504
 2318TIP3    H1 6960   3.699   1.559   4.303 -0.2296 -2.0854 -0.9298
 2318TIP3    H2 6961   3.764   1.564   4.439  0.8187  1.2948 -1.4442
 2319TIP3   OH2 6962   0.261   3.737   2.438 -0.5461 -0.7115  0.4645
 2319TIP3    H1 6963   0.298   3.779   2.516  0.0719 -0.6151  0.1305
 2319TIP3    H2 6964   0.320   3.664   2.421 -0.0929 -0.1333 -0.4927
 2320TIP3   OH2 6965   1.155   3.750   2.010 -0.5681  0.1244  0.6461
 2320TIP3    H1 6966   1.183   3.660   2.030 -0.4089  0.2473  0.9814
 2320TIP3    H2 6967   1.061   3.742   1.993 -0.1869 -0.4542 -1.4707
 2321TIP3   OH2 6968   3.234   2.168   1.428 -0.2785 -0.6388 -0.5396
 2321TIP3    H1 6969   3.303   2.149   1.364  1.0303 -2.0319  1.1965
 2321TIP3    H2 6970   3.279   2.207   1.502 -1.5530 -0.3772  0.1260
 2322TIP3   OH2 6971   4.846   0.843   1.451 -0.5769  0.1945  0.1234
 2322TIP3    H1 6972   4.827   0.754   1.422 -0.5698  0.6730 -1.4432
 2322TIP3    H2 6973   4.759   0.879   1.472 -1.0164  0.8276 -2.4092
 2323TIP3   OH2 6974   1.678   3.688   3.474 -0.2654 -0.2035 -0.1381
 2323TIP3    H1 6975   1.713   3.690   3.563 -0.2398 -0.6135 -0.1355
 2323TIP3    H2 6976   1.664   3.595   3.457 -0.2120 -0.1280 -0.5877
 2324TIP3   OH2 6977   4.184   4.370   1.956  0.0585 -0.0677 -0.0276
 2324TIP3    H1 6978   4.141   4.356   2.040 -0.1855 -0.2010 -0.1732
 2324TIP3    H2 6979   4.255   4.431   1.975 -1.1648  1.4489 -0.0490
 2325TIP3   OH2 6980   6.211   1.616   3.771 -0.5385  0.0761  0.0386
 2325TIP3    H1 6981   6.166   1.638   3.853 -0.3448  0.6633 -0.0092
 2325TIP3    H2 6982   6.280   1.682   3.763 -0.6684  0.1295 -0.6872
 2326TIP3   OH2 6983   4.244   1.416   0.989 -0.2811  0.2958  0.1774
 2326TIP3    H1 6984   4.192   1.378   0.918  0.9924 -0.9517 -0.1285
 2326TIP3    H2 6985   4.245   1.348   1.056  1.9087 -0.2348 -0.3128
 2327TIP3   OH2 6986   1.556   5.923   1.838  0.0685  0.2358  0.2467
 2327TIP3    H1 6987   1.584   5.998   1.785  1.0222 -0.6905 -0.6293
 2327TIP3    H2 6988   1.472   5.897   1.800  0.7858 -0.4749 -0.9356
 2328TIP3   OH2 6989   4.015   1.276   0.873  0.3174 -0.1138  0.7490
 2328TIP3    H1 6990   4.026   1.220   0.796 -1.5800  1.0711 -0.4802
 2328TIP3    H2 6991   3.989   1.217   0.943 -0.5831 -0.9336 -0.2410
 2329TIP3   OH2 6992   2.569   0.923   1.235 -0.1660  0.1824  0.1977
 2329TIP3    H1 6993   2.560   0.843   1.183 -0.8346  0.4472 -0.1119
 2329TIP3    H2 6994   2.580   0.993   1.171  0.0114  0.3874  0.4510
 2330TIP3   OH2 6995   5.380   5.893   2.679 -0.8777  0.3154  0.2819
 2330TIP3    H1 6996   5.409   5.914   2.768  1.0897  0.9943 -0.4474
 2330TIP3    H2 6997   5.458   5.906   2.625 -1.8700 -0.6208 -1.4796
 2331TIP3   OH2 6998   4.062   1.755   2.137  0.3230 -0.1077 -0.0904
 2331TIP3    H1 6999   3.989   1.794   2.185 -0.6651 -0.8629 -0.9249
 2331TIP3    H2 7000   4.050   1.784   2.047  1.2966  0.0724 -0.1788
 2332TIP3   OH2 7001   5.814   2.955   3.037  0.3932 -0.3803  0.2807
 2332TIP3    H1 7002   5.806   2.953   2.942 -0.0800  0.1099  0.3011
 2332TIP3    H2 7003   5.759   2.883   3.068 -1.2600  0.8010  0.2598
 2333TIP3   OH2 7004   4.418   3.387   0.744  0.1458  0.4563 -0.1210
 2333TIP3    H1 7005   4.399   3.353   0.832 -0.4847  1.1062  0.0044
 2333TIP3    H2 7006   4.512   3.406   0.746  0.4195 -0.7998 -0.0391
 2334TIP3   OH2 7007   4.955   2.163   2.800  0.6981 -0.0642 -0.1185
 2334TIP3    H1 7008   4.974   2.254   2.822 -1.4619  0.9957 -2.2528
 2334TIP3    H2 7009   4.866   2.148   2.833 -0.0767 -0.4424 -2.2277
 2335TIP3   OH2 7010   4.861   3.482   3.998  1.1280  0.2733  0.0712
 2335TIP3    H1 7011   4.916   3.514   4.069  0.9198  0.3771  0.1858
 2335TIP3    H2 7012   4.832   3.395   4.027 -0.1038  0.8954  0.7425
 2336TIP3   OH2 7013   3.413   5.887   2.534  0.1079 -0.0517 -0.0716
 2336TIP3    H1 7014   3.458   5.802   2.538 -0.4736 -0.3336  0.8004
 2336TIP3    H2 7015   3.455   5.933   2.461  1.0588 -0.7285  0.0263
 2337TIP3   OH2 7016   0.727   2.111   1.595 -0.5595  0.1967 -0.2607
 2337TIP3    H1 7017   0.677   2.169   1.652  0.0092  0.3510  0.0919
 2337TIP3    H2 7018   0.672   2.032   1.586 -0.4495 -0.0231  0.8813
 2338TIP3   OH2 7019   4.565   1.013   2.260 -0.2271  0.0329  0.3889
 2338TIP3    H1 7020   4.569   1.076   2.332  1.6170 -0.8318  1.1209
 2338TIP3    H2 7021   4.657   0.990   2.244 -0.8496 -2.8347  0.5088
 2339TIP3   OH2 7022   0.870   4.876   2.157  0.0477 -0.0306 -0.3049
 2339TIP3    H1 7023   0.810   4.834   2.096  0.1620 -0.8522  0.1313
 2339TIP3    H2 7024   0.885   4.963   2.120 -2.1278  0.5642  0.0291
 2340TIP3   OH2 7025   3.730   4.217   0.308  0.0204 -0.3003  0.3500
 2340TIP3    H1 7026   3.790   4.154   0.348 -1.1244 -2.2075 -0.7771
 2340TIP3    H2 7027   3.644   4.195   0.346 -0.0775  2.2872  1.8495
 2341TIP3   OH2 7028   3.459   4.738   1.712 -0.1986 -0.5535 -0.1098
 2341TIP3    H1 7029   3.537   4.718   1.661 -0.2689  1.9819 -1.3407
 2341TIP3    H2 7030   3.493   4.774   1.794 -0.0989 -1.4009  0.2314
 2342TIP3   OH2 7031   3.395   2.699   4.540 -0.0513  0.1313 -0.2727
 2342TIP3    H1 7032   3.395   2.643   4.462 -1.0247 -2.7558  1.6439
 2342TIP3    H2 7033   3.405   2.638   4.613  0.6230  2.6907  1.9240
 2343TIP3   OH2 7034   2.840   1.667   4.289 -0.1567  0.1394 -0.0970
 2343TIP3    H1 7035   2.793   1.678   4.372 -1.1307  1.0243 -0.7334
 2343TIP3    H2 7036   2.915   1.612   4.311  0.5474  1.7221  1.7264
 2344TIP3   OH2 7037   5.571   2.622   0.950 -0.3050 -0.0862  0.3107
 2344TIP3    H1 7038   5.626   2.547   0.929 -0.3139  0.1264 -0.4871
 2344TIP3    H2 7039   5.495   2.613   0.893 -0.7968 -0.0183  0.9357
 2345TIP3   OH2 7040   1.387   3.864   3.248  0.1094 -0.0066  0.4005
 2345TIP3    H1 7041   1.296   3.870   3.275  0.2036  2.9266  0.4749
 2345TIP3    H2 7042   1.392   3.919   3.169  1.8006 -0.0005  0.4656
 2346TIP3   OH2 7043   4.967   5.441   3.438 -0.3690 -0.1660 -0.5951
 2346TIP3    H1 7044   4.946   5.500   3.511 -1.8025 -0.7530 -0.5007
 2346TIP3    H2 7045   5.028   5.378   3.475  0.2533  0.5507 -0.3742
 2347TIP3   OH2 7046   3.248   4.394   3.108  0.0666 -0.0142 -0.3515
 2347TIP3    H1 7047   3.338   4.426   3.109  0.3563 -0.7617  1.0577
 2347TIP3    H2 7048   3.217   4.410   3.019  2.3707 -1.8736 -1.6028
 2348TIP3   OH2 7049   0.743   3.486   2.656 -0.4472  0.4036  0.0979
 2348TIP3    H1 7050   0.704   3.474   2.569  0.1371  1.2942 -0.3015
 2348TIP3    H2 7051   0.749   3.397   2.692  0.0341 -0.0755 -1.1005
 2349TIP3   OH2 7052   1.860   1.234   0.220 -0.2102  0.0656  0.3026
 2349TIP3    H1 7053   1.814   1.159   0.260 -0.3936  0.8143  1.5504
 2349TIP3    H2 7054   1.817   1.311   0.258  0.7930  0.7948 -0.0168
 2350TIP3   OH2 7055   3.106   3.024   1.297  0.2366  0.1331  0.3706
 2350TIP3    H1 7056   3.141   3.105   1.334  0.2117  0.1253  0.4105
 2350TIP3    H2 7057   3.016   3.044   1.274  0.4931  0.3884 -0.4579
 2351TIP3   OH2 7058   4.743   3.695   3.644  0.1616  0.0110  0.2980
 2351TIP3    H1 7059   4.794   3.717   3.722  1.4475  0.6922 -0.6992
 2351TIP3    H2 7060   4.725   3.601   3.653  1.3509 -0.1922  0.8344
 2352TIP3   OH2 7061   2.669   1.575   1.838 -0.2956  0.3819 -0.1963
 2352TIP3    H1 7062   2.613   1.542   1.767 -0.6553 -1.0100  0.6877
 2352TIP3    H2 7063   2.691   1.496   1.889 -1.3490  1.5242  2.1625
 2353TIP3   OH2 7064   5.440   0.307   3.661  0.0500  0.0851  0.4287
 2353TIP3    H1 7065   5.418   0.245   3.730 -0.7862  0.3865  0.4333
 2353TIP3    H2 7066   5.374   0.293   3.593  0.8730 -0.2330 -0.3372
 2354TIP3   OH2 7067   5.303   0.397   0.324  0.2482  0.3855 -0.2580
 2354TIP3    H1 7068   5.304   0.428   0.234  1.3471 -0.7672 -0.6850
 2354TIP3    H2 7069   5.255   0.464   0.373  0.2063  1.3513 -1.5781
 2355TIP3   OH2 7070   4.200   3.433   1.271 -0.6035  0.5331  0.2345
 2355TIP3    H1 7071   4.206   3.506   1.332  0.4151  0.8082 -0.1653
 2355TIP3    H2 7072   4.111   3.437   1.237 -1.0351  0.6538  1.3485
 2356TIP3   OH2 7073   6.147   4.140   1.515  0.1814  0.9022 -0.3564
 2356TIP3    H1 7074   6.221   4.172   1.567  1.6309 -0.0581 -1.7560
 2356TIP3    H2 7075   6.133   4.050   1.546  0.5186  0.6076 -1.0461
 2357TIP3   OH2 7076   1.016   4.606   3.156  0.3877  0.2064  0.0754
 2357TIP3    H1 7077   0.971   4.588   3.238 -0.2535 -0.8177 -0.4688
 2357TIP3    H2 7078   1.109   4.593   3.176  0.2346 -0.0418  0.6429
 2358TIP3   OH2 7079   5.267   0.251   3.433  0.0771  0.2958  0.4477
 2358TIP3    H1 7080   5.360   0.240   3.414 -0.2929  0.1610 -1.4742
 2358TIP3    H2 7081   5.222   0.218   3.355 -1.5431  1.7171  0.7160
 2359TIP3   OH2 7082   2.659   0.728   4.805  0.3461 -0.2825 -0.1228
 2359TIP3    H1 7083   2.646   0.818   4.775  0.5718 -0.1405  0.2016
 2359TIP3    H2 7084   2.580   0.681   4.777  0.1096  0.0794 -0.0637
 2360TIP3   OH2 7085   3.498   5.880   3.175  0.5719  0.6262  0.3975
 2360TIP3    H1 7086   3.444   5.803   3.158 -0.6336  1.7062 -0.8463
 2360TIP3    H2 7087   3.574   5.846   3.223 -0.3880 -1.1766  0.7077
 2361TIP3   OH2 7088   4.751   3.639   0.632 -0.0452 -0.0477 -0.3940
 2361TIP3    H1 7089   4.704   3.653   0.714 -0.2208  1.9329 -0.7932
 2361TIP3    H2 7090   4.683   3.619   0.568 -0.2120  1.2093 -0.6290
 2362TIP3   OH2 7091   3.359   2.820   3.143  0.3933 -0.4660  0.3753
 2362TIP3    H1 7092   3.447   2.859   3.149 -0.4115  2.1117 -2.3197
 2362TIP3    H2 7093   3.349   2.797   3.051 -1.8233 -0.5216  0.5791
 2363TIP3   OH2 7094   5.020   2.423   2.831 -0.1814  0.3607 -0.1945
 2363TIP3    H1 7095   5.008   2.499   2.888 -0.4564  0.0952  0.1021
 2363TIP3    H2 7096   5.032   2.460   2.744  0.9278  0.8114  0.1243
 2364TIP3   OH2 7097   0.562   1.472   4.206 -0.1567  0.1494  0.4112
 2364TIP3    H1 7098   0.650   1.507   4.223 -0.5193  1.1251  0.3084
 2364TIP3    H2 7099   0.578   1.392   4.156  0.7733 -0.7682  2.0442
 2365TIP3   OH2 7100   2.516   1.627   3.092  0.0668  0.3137 -0.1425
 2365TIP3    H1 7101   2.595   1.619   3.039  0.2031 -0.3473  0.1399
 2365TIP3    H2 7102   2.465   1.548   3.071  0.4571 -0.3316  1.2278
 2366TIP3   OH2 7103   2.258   2.255   2.613 -0.0966  0.1874 -0.0787
 2366TIP3    H1 7104   2.340   2.295   2.639  0.6346 -1.1725 -0.2084
 2366TIP3    H2 7105   2.277   2.161   2.608 -1.8886 -0.2705  0.8025
 2367TIP3   OH2 7106   0.260   1.019   0.102  0.1126  0.1114 -0.3404
 2367TIP3    H1 7107   0.257   0.937   0.150 -1.3880  0.3595  0.0304
 2367TIP3    H2 7108   0.323   1.003   0.031  0.7380 -0.9431  0.4286
 2368TIP3   OH2 7109   5.668   4.458   2.663 -0.5776  0.1110  0.6427
 2368TIP3    H1 7110   5.658   4.425   2.752 -0.9450  0.4003  0.7116
 2368TIP3    H2 7111   5.578   4.467   2.631 -0.4404 -0.3379  0.1120
 2369TIP3   OH2 7112   3.182   5.338   4.586  0.0002 -0.2188  0.1819
 2369TIP3    H1 7113   3.184   5.338   4.682  0.7566 -0.9227  0.1761
 2369TIP3    H2 7114   3.270   5.312   4.560  0.3486  1.6859 -0.7432
 2370TIP3   OH2 7115   3.040   4.702   2.167 -0.0064  0.5289  0.2150
 2370TIP3    H1 7116   2.986   4.624   2.155  0.3205  0.2187  0.6962
 2370TIP3    H2 7117   3.130   4.672   2.154  0.2429  0.5034  1.7304
 2371TIP3   OH2 7118   1.768   4.490   2.865 -0.0191  0.2051 -0.4241
 2371TIP3    H1 7119   1.715   4.450   2.934  0.4679  0.1421 -0.0882
 2371TIP3    H2 7120   1.777   4.581   2.891  0.5670  0.0724 -0.1571
 2372TIP3   OH2 7121   1.922   3.598   2.599  0.3083 -0.1422 -0.3154
 2372TIP3    H1 7122   1.958   3.581   2.511  1.0290  0.7215 -0.2039
 2372TIP3    H2 7123   1.833   3.563   2.595 -0.0720  0.8709 -1.7658
 2373TIP3   OH2 7124   2.340   5.020   4.254 -0.2329 -0.1158 -0.0687
 2373TIP3    H1 7125   2.294   5.021   4.170 -1.0994  1.4305  0.3941
 2373TIP3    H2 7126   2.395   4.942   4.249 -0.2379 -0.0636 -2.0857
 2374TIP3   OH2 7127   0.691   4.207   3.061 -0.2100 -0.3025 -0.0935
 2374TIP3    H1 7128   0.743   4.140   3.016  0.5455 -0.5493  1.0986
 2374TIP3    H2 7129   0.608   4.164   3.080 -0.0974 -0.5800 -0.2209
 2375TIP3   OH2 7130   5.106   5.933   0.180 -0.0064  0.2199 -0.2526
 2375TIP3    H1 7131   5.100   5.911   0.273 -0.7086  1.2811 -0.0249
 2375TIP3    H2 7132   5.200   5.934   0.161  0.1056 -2.6780 -0.2579
 2376TIP3   OH2 7133   1.022   0.832   3.980  0.0574  0.1755  0.2852
 2376TIP3    H1 7134   0.993   0.879   3.902  0.7935  0.2474  0.0460
 2376TIP3    H2 7135   0.966   0.864   4.050 -2.0001 -1.3521 -0.5513
 2377TIP3   OH2 7136   2.708   1.714   0.175 -0.0236 -0.2578 -0.5525
 2377TIP3    H1 7137   2.762   1.636   0.187 -0.4550 -0.7340 -1.5953
 2377TIP3    H2 7138   2.717   1.735   0.082  0.0622  0.9251 -0.2893
 2378TIP3   OH2 7139   5.940   0.037   3.177  0.2193  0.5491  0.3975
 2378TIP3    H1 7140   5.905   0.118   3.140 -3.2750 -0.0357  2.0588
 2378TIP3    H2 7141   5.979   0.063   3.260  1.0766  0.7742 -0.0607
 2379TIP3   OH2 7142   4.144   1.082   1.576  0.5606  0.0946 -0.1407
 2379TIP3    H1 7143   4.137   0.999   1.529 -0.9097  0.2150 -0.1965
 2379TIP3    H2 7144   4.219   1.127   1.537  0.4125 -0.5485 -1.1803
 2380TIP3   OH2 7145   0.721   2.463   1.048 -0.0373 -0.0438 -0.1782
 2380TIP3    H1 7146   0.776   2.539   1.065 -0.1939  0.0966 -0.2899
 2380TIP3    H2 7147   0.634   2.489   1.077 -0.0354 -0.2885  0.0579
 2381TIP3   OH2 7148   0.761   3.692   3.174  0.5749  0.3908 -0.3506
 2381TIP3    H1 7149   0.836   3.658   3.126  0.2999  1.0887 -1.3077
 2381TIP3    H2 7150   0.707   3.615   3.192  0.6609  0.1165 -1.2268
 2382TIP3   OH2 7151   5.527   1.077   3.792 -0.3672  0.0944  1.0192
 2382TIP3    H1 7152   5.436   1.049   3.802 -0.1242 -1.0328  0.1669
 2382TIP3    H2 7153   5.564   1.068   3.880 -1.2179  1.1558  1.5165
 2383TIP3   OH2 7154   1.195   5.407   2.261  0.6642  0.0180 -0.1954
 2383TIP3    H1 7155   1.186   5.319   2.297 -0.1978  0.0501 -0.3293
 2383TIP3    H2 7156   1.111   5.449   2.276  0.7928  0.5426 -0.8838
 2384TIP3   OH2 7157   5.414   5.397   3.274  0.3881  0.1204 -0.3637
 2384TIP3    H1 7158   5.465   5.389   3.193 -0.5707  0.5714 -1.0433
 2384TIP3    H2 7159   5.380   5.308   3.289  0.2256  0.1201 -0.7078
 2385TIP3   OH2 7160   1.953   2.976   2.654 -0.0885  0.1623 -0.1566
 2385TIP3    H1 7161   2.018   2.917   2.693 -0.7684 -0.3777  0.1875
 2385TIP3    H2 7162   1.906   3.012   2.729  0.7824  1.7306 -0.3125
 2386TIP3   OH2 7163   2.788   4.334   3.570 -0.2555  0.1113 -0.0548
 2386TIP3    H1 7164   2.819   4.402   3.509  0.2741  0.0176  0.1045
 2386TIP3    H2 7165   2.722   4.287   3.520  0.0929  0.1079 -0.5278
 2387TIP3   OH2 7166   1.168   2.900   1.862 -0.5313  0.2927  0.2738
 2387TIP3    H1 7167   1.200   2.811   1.851  1.1464  0.6572  1.6187
 2387TIP3    H2 7168   1.232   2.954   1.815 -2.1105  0.7681 -1.4393
 2388TIP3   OH2 7169   2.159   4.971   0.613  0.0671  0.4992  0.1690
 2388TIP3    H1 7170   2.086   5.029   0.592  0.0355 -0.4164 -2.5687
 2388TIP3    H2 7171   2.212   5.021   0.675 -0.5566  2.9957 -1.1841
 2389TIP3   OH2 7172   2.529   2.702   3.821 -0.1065 -0.4525  0.4056
 2389TIP3    H1 7173   2.540   2.707   3.916 -2.7962 -0.1006  0.7617
 2389TIP3    H2 7174   2.517   2.609   3.804 -0.1974 -0.4552  0.4835
 2390TIP3   OH2 7175   0.129   3.426   0.153  0.0277 -0.2911 -0.6713
 2390TIP3    H1 7176   0.047   3.430   0.105  0.0727  1.6835 -0.6417
 2390TIP3    H2 7177   0.142   3.332   0.169 -1.3844 -0.7746 -2.0549
 2391TIP3   OH2 7178   5.218   3.800   2.464 -0.1930  0.3192  0.0295
 2391TIP3    H1 7179   5.280   3.733   2.434 -1.5812 -1.8286  1.6236
 2391TIP3    H2 7180   5.154   3.807   2.394 -0.0821 -0.0942 -0.1161
 2392TIP3   OH2 7181   1.525   0.862   1.184 -0.2533  0.3322  0.8830
 2392TIP3    H1 7182   1.485   0.878   1.270  0.5383  1.1214  1.1136
 2392TIP3    H2 7183   1.536   0.767   1.181 -0.3189  0.2936  1.6489
 2393TIP3   OH2 7184   3.644   3.914   0.422 -0.2059  0.1644  0.0606
 2393TIP3    H1 7185   3.599   3.983   0.471 -0.2425 -0.9259  1.6285
 2393TIP3    H2 7186   3.736   3.939   0.425 -0.0532 -0.4320  1.7201
 2394TIP3   OH2 7187   3.115   0.384   4.207 -0.1655 -0.1308  0.2871
 2394TIP3    H1 7188   3.019   0.385   4.209 -0.1528  0.2254  1.8640
 2394TIP3    H2 7189   3.137   0.330   4.131 -1.6297 -1.4898  0.7696
 2395TIP3   OH2 7190   3.891   5.624   0.615  0.1198 -0.3149  0.1032
 2395TIP3    H1 7191   3.849   5.622   0.529 -2.2767  0.4944  1.1745
 2395TIP3    H2 7192   3.950   5.700   0.611 -1.0370  0.5833 -0.3829
 2396TIP3   OH2 7193   4.429   5.502   2.111 -0.4457 -0.2288 -0.2238
 2396TIP3    H1 7194   4.465   5.560   2.044  0.4458 -0.8639 -0.3220
 2396TIP3    H2 7195   4.487   5.512   2.186 -2.7326  2.2082  1.3676
 2397TIP3   OH2 7196   2.102   1.919   3.479 -0.8532 -0.1280 -0.3679
 2397TIP3    H1 7197   2.194   1.924   3.454 -0.0689 -3.6111  1.2595
 2397TIP3    H2 7198   2.054   1.937   3.398  1.2825 -0.1591 -1.7069
 2398TIP3   OH2 7199   3.048   3.891   0.641  0.2464  0.0254 -0.1590
 2398TIP3    H1 7200   2.963   3.902   0.685  0.3426  0.6782 -0.1269
 2398TIP3    H2 7201   3.075   3.980   0.620  0.7655 -0.2080 -0.4786
 2399TIP3   OH2 7202   4.625   1.792   4.952 -0.3225  0.4068 -0.1814
 2399TIP3    H1 7203   4.569   1.723   4.915  0.5053 -0.1818 -0.3567
 2399TIP3    H2 7204   4.567   1.842   5.009 -0.9540 -0.3919 -0.1104
 2400TIP3   OH2 7205   5.628   2.895   2.507  0.5125 -0.0539 -0.0786
 2400TIP3    H1 7206   5.686   2.827   2.473 -0.7529 -0.2830 -1.9591
 2400TIP3    H2 7207   5.642   2.970   2.449  0.8251  0.7950  1.0723
 2401TIP3   OH2 7208   1.225   1.671   0.856  0.0107  0.0420  0.2041
 2401TIP3    H1 7209   1.150   1.712   0.813 -0.7867 -0.8947  0.6668
 2401TIP3    H2 7210   1.248   1.598   0.798  0.9203  0.6476 -0.2141
 2402TIP3   OH2 7211   4.213   3.162   1.637  0.1600  0.0376  0.0022
 2402TIP3    H1 7212   4.235   3.173   1.730  1.6434  1.1098 -0.4471
 2402TIP3    H2 7213   4.230   3.069   1.620 -0.6240 -0.2865  0.9131
 2403TIP3   OH2 7214   1.452   2.468   0.840  0.4813  0.1557  0.4161
 2403TIP3    H1 7215   1.449   2.376   0.866 -3.1056  0.1446  0.3761
 2403TIP3    H2 7216   1.474   2.466   0.746 -0.4980 -0.7370  0.1929
 2404TIP3   OH2 7217   4.240   5.193   3.713 -0.1583 -0.2973  0.0373
 2404TIP3    H1 7218   4.217   5.138   3.788  2.6166 -0.9366  0.5253
 2404TIP3    H2 7219   4.176   5.171   3.646 -1.1608 -1.6106  1.3630
 2405TIP3   OH2 7220   0.810   3.842   3.546  0.1656 -0.2652  0.5306
 2405TIP3    H1 7221   0.800   3.795   3.630  1.2628 -0.8536  0.3514
 2405TIP3    H2 7222   0.776   3.781   3.481 -0.0721 -0.0716  0.4704
 2406TIP3   OH2 7223   6.292   1.385   1.483 -0.0425  0.3293  0.3696
 2406TIP3    H1 7224   6.258   1.359   1.568 -1.0418  0.2271 -0.0452
 2406TIP3    H2 7225   6.228   1.350   1.420  1.7986 -1.5670 -0.5905
 2407TIP3   OH2 7226   2.942   4.618   0.588 -0.4470  0.1116 -0.5294
 2407TIP3    H1 7227   2.915   4.642   0.499 -0.9458  0.6884 -0.2355
 2407TIP3    H2 7228   2.945   4.701   0.635  0.5544 -0.1041 -0.1942
 2408TIP3   OH2 7229   4.698   3.414   2.951  0.1890  0.3623 -0.2288
 2408TIP3    H1 7230   4.750   3.491   2.925  0.8551  0.2664  0.7421
 2408TIP3    H2 7231   4.758   3.340   2.939  0.1010  0.1871  0.3769
 2409TIP3   OH2 7232   4.196   5.404   0.332  0.4107 -0.0395  0.1324
 2409TIP3    H1 7233   4.183   5.337   0.399  1.7420 -1.3516 -0.8503
 2409TIP3    H2 7234   4.285   5.435   0.347 -0.1425  1.4753  0.4917
 2410TIP3   OH2 7235   1.251   5.918   4.132 -0.3714 -0.3261 -0.3436
 2410TIP3    H1 7236   1.311   5.850   4.163 -0.7601 -0.0449  1.1012
 2410TIP3    H2 7237   1.302   5.967   4.066  0.3524 -1.1923 -0.4457
 2411TIP3   OH2 7238   0.226   4.401   1.350  0.1553 -0.0181 -0.6100
 2411TIP3    H1 7239   0.296   4.433   1.293 -0.4040  0.2819 -1.1470
 2411TIP3    H2 7240   0.271   4.353   1.420  0.8569 -0.4112 -1.3172
 2412TIP3   OH2 7241   3.692   0.765   5.041 -0.2684 -0.0607 -0.5421
 2412TIP3    H1 7242   3.709   0.765   5.135 -1.7777 -0.0868 -0.2464
 2412TIP3    H2 7243   3.650   0.680   5.025  2.7538 -1.4734 -1.8245
 2413TIP3   OH2 7244   1.928   5.700   3.582 -0.8542 -0.1020 -0.0777
 2413TIP3    H1 7245   1.983   5.775   3.562 -0.5102 -0.2562  0.2681
 2413TIP3    H2 7246   1.988   5.626   3.586 -1.2594 -0.4945 -0.9247
 2414TIP3   OH2 7247   3.795   4.906   4.221 -0.0104 -0.2617 -0.1882
 2414TIP3    H1 7248   3.816   4.999   4.227  0.3981 -0.3201 -0.6506
 2414TIP3    H2 7249   3.853   4.865   4.285  0.3888 -0.2842 -0.5609
 2415TIP3   OH2 7250   4.767   0.411   2.669  0.7241 -0.4716 -0.4766
 2415TIP3    H1 7251   4.835   0.411   2.737  1.6286 -1.1939 -1.3447
 2415TIP3    H2 7252   4.688   0.381   2.714  1.0840 -0.0670  0.4533
 2416TIP3   OH2 7253   1.049   4.925   3.566  0.0826  0.4675 -0.0212
 2416TIP3    H1 7254   0.999   4.975   3.629  0.6977  1.6303 -0.4270
 2416TIP3    H2 7255   1.139   4.930   3.598  0.4645  1.4008 -1.1585
 2417TIP3   OH2 7256   1.014   5.269   0.083 -0.1145  0.1235  0.1492
 2417TIP3    H1 7257   1.048   5.358   0.091 -0.6088  0.4824 -1.4507
 2417TIP3    H2 7258   1.048   5.238  -0.001 -0.7801 -0.8249  0.2165
 2418TIP3   OH2 7259   3.347   2.601   3.932  0.8934  0.0314  0.1047
 2418TIP3    H1 7260   3.389   2.686   3.923  0.8284 -0.1246 -2.0483
 2418TIP3    H2 7261   3.253   2.620   3.934  0.9078  0.0738  0.8862
 2419TIP3   OH2 7262   5.138   5.788   0.411 -0.1946 -0.0584  0.4047
 2419TIP3    H1 7263   5.168   5.762   0.498  0.6704  0.9375  0.4296
 2419TIP3    H2 7264   5.217   5.786   0.357 -0.3492  1.1130  0.1019
 2420TIP3   OH2 7265   2.325   5.909   0.910 -0.2719 -0.6345 -0.5130
 2420TIP3    H1 7266   2.391   5.848   0.878 -0.0370 -1.0529  0.7333
 2420TIP3    H2 7267   2.281   5.940   0.830  0.5033 -1.3853 -1.2558
 2421TIP3   OH2 7268   3.800   2.176   1.835  0.4196  0.8153 -0.0012
 2421TIP3    H1 7269   3.719   2.200   1.791 -1.4896 -1.4886  1.9591
 2421TIP3    H2 7270   3.781   2.188   1.928  2.1722 -0.2242  0.5364
 2422TIP3   OH2 7271   6.264   4.654   4.731 -0.3814  0.6142  0.5448
 2422TIP3    H1 7272   6.201   4.582   4.724  1.6780 -1.2400 -0.5118
 2422TIP3    H2 7273   6.274   4.687   4.642  0.1011  0.8956  0.6960
 2423TIP3   OH2 7274   0.680   5.078   0.829 -0.0322 -0.1545 -0.8376
 2423TIP3    H1 7275   0.649   5.005   0.882 -1.6484  1.5256  0.6636
 2423TIP3    H2 7276   0.733   5.131   0.889  0.3915  0.3766 -1.6552
 2424TIP3   OH2 7277   4.659   0.556   3.058  0.0335 -0.8502  0.2538
 2424TIP3    H1 7278   4.579   0.505   3.062 -0.0434 -0.6893  0.8081
 2424TIP3    H2 7279   4.727   0.493   3.033  0.0653 -1.3812  1.5882
 2425TIP3   OH2 7280   4.513   2.059   4.608  0.3598 -0.0922  0.1617
 2425TIP3    H1 7281   4.523   1.965   4.621  1.8018  0.1208  0.7686
 2425TIP3    H2 7282   4.516   2.071   4.513  0.1118 -0.6536  0.0810
 2426TIP3   OH2 7283   2.581   4.910   1.870 -0.1755  0.1598  0.1364
 2426TIP3    H1 7284   2.627   4.867   1.942 -0.2712 -0.7766 -0.3542
 2426TIP3    H2 7285   2.650   4.956   1.822 -0.2440  1.7737  1.4455
 2427TIP3   OH2 7286   1.354   3.053   5.163  0.1666 -0.5016 -0.7475
 2427TIP3    H1 7287   1.281   3.104   5.196  1.3015  1.1433 -0.6583
 2427TIP3    H2 7288   1.345   3.054   5.068 -0.4700 -1.1642 -0.6973
 2428TIP3   OH2 7289   2.611   5.936   1.470 -0.1861  0.6819  0.4458
 2428TIP3    H1 7290   2.650   5.968   1.389 -0.9363  1.3128  0.3203
 2428TIP3    H2 7291   2.670   5.867   1.500  1.8143  2.5564  1.0121
 2429TIP3   OH2 7292   5.379   4.699   0.469  0.1775 -0.1126  0.2271
 2429TIP3    H1 7293   5.459   4.699   0.417 -2.1074  0.7902 -3.7731
 2429TIP3    H2 7294   5.341   4.612   0.455  1.0876 -1.1812  3.5154
 2430TIP3   OH2 7295   0.918   2.741   0.507 -0.4339  0.3178 -0.6828
 2430TIP3    H1 7296   0.918   2.737   0.411  1.4255  0.7130 -0.7453
 2430TIP3    H2 7297   0.932   2.833   0.527  1.4940 -0.0416 -0.1161
 2431TIP3   OH2 7298   3.792   0.527   1.453  0.3262  0.2971  0.3631
 2431TIP3    H1 7299   3.838   0.505   1.534  0.7231  2.3166  0.7425
 2431TIP3    H2 7300   3.860   0.524   1.386 -0.1573 -2.1794 -0.1134
 2432TIP3   OH2 7301   2.953   2.018   4.413  0.5052  0.3084 -0.0988
 2432TIP3    H1 7302   2.962   2.108   4.380  1.0942 -0.0209 -0.8598
 2432TIP3    H2 7303   2.859   2.009   4.432  0.6486  1.5810  1.4883
 2433TIP3   OH2 7304   3.261   2.793   1.736 -0.4822  0.2577  0.0606
 2433TIP3    H1 7305   3.207   2.803   1.658 -0.8233  0.3451  0.3069
 2433TIP3    H2 7306   3.214   2.731   1.791  1.1908 -2.1774 -1.0591
 2434TIP3   OH2 7307   5.498   4.507   2.401  0.1026 -0.2255  0.0835
 2434TIP3    H1 7308   5.446   4.565   2.345 -1.0889  0.0120  1.3638
 2434TIP3    H2 7309   5.438   4.437   2.424  1.5726 -2.1438 -1.5756
 2435TIP3   OH2 7310   1.744   1.010   2.373  0.0119 -0.0261  0.0143
 2435TIP3    H1 7311   1.779   1.097   2.392  0.1857 -0.3593  1.4007
 2435TIP3    H2 7312   1.821   0.953   2.376 -0.1951 -0.3143 -0.1695
 2436TIP3   OH2 7313   2.001   2.961   3.754  0.3890  0.0364  0.7363
 2436TIP3    H1 7314   2.001   2.873   3.718 -0.9287  0.4215 -0.2876
 2436TIP3    H2 7315   2.079   3.002   3.716 -0.5398  0.1853 -1.1656
 2437TIP3   OH2 7316   2.048   5.314   4.681  0.2119 -0.2543  0.1047
 2437TIP3    H1 7317   2.138   5.344   4.690  0.1761 -0.2178  0.3501
 2437TIP3    H2 7318   2.002   5.352   4.755  0.0333 -0.4237  0.0846
 2438TIP3   OH2 7319   6.332   3.317   0.394 -0.1165 -0.0547  0.3526
 2438TIP3    H1 7320   6.364   3.251   0.332 -1.1608  0.3753 -0.6998
 2438TIP3    H2 7321   6.249   3.348   0.355  1.0641  2.9973 -0.0392
 2439TIP3   OH2 7322   3.654   4.836   2.263 -0.3460 -0.1950  0.0284
 2439TIP3    H1 7323   3.749   4.837   2.271 -0.1490 -2.2895 -1.0818
 2439TIP3    H2 7324   3.624   4.784   2.337 -0.4661 -0.8783 -0.4900
 2440TIP3   OH2 7325   4.770   3.028   3.220  0.0970  0.3045  0.5281
 2440TIP3    H1 7326   4.772   3.121   3.197  1.9545  0.0896 -0.4092
 2440TIP3    H2 7327   4.750   3.027   3.313 -2.1434  1.5002  0.1495
 2441TIP3   OH2 7328   4.797   5.048   1.288  0.0662 -0.3026  0.5076
 2441TIP3    H1 7329   4.889   5.047   1.261 -0.0494 -0.2162  0.1010
 2441TIP3    H2 7330   4.754   5.102   1.221 -0.3975 -0.9040  0.3185
 2442TIP3   OH2 7331   2.627   0.397   1.468  0.7149  0.2113  0.0920
 2442TIP3    H1 7332   2.543   0.417   1.426 -0.3819 -2.1198  0.9566
 2442TIP3    H2 7333   2.657   0.317   1.425  0.9323 -0.6748  1.7692
 2443TIP3   OH2 7334   3.355   4.702   2.241 -0.4511  0.2459 -0.5072
 2443TIP3    H1 7335   3.409   4.701   2.162 -1.4390 -1.1258 -1.2085
 2443TIP3    H2 7336   3.418   4.709   2.313  0.4340  2.0705 -1.3867
 2444TIP3   OH2 7337   0.030   3.321   3.243  0.0038 -0.1300 -0.3595
 2444TIP3    H1 7338  -0.057   3.304   3.277  1.0365 -0.1691  2.5697
 2444TIP3    H2 7339   0.031   3.414   3.224 -0.9281 -0.3025 -1.3334
 2445TIP3   OH2 7340   4.698   2.138   2.888  0.4867 -0.0213  0.0057
 2445TIP3    H1 7341   4.634   2.072   2.861 -0.1970  0.7309 -0.2432
 2445TIP3    H2 7342   4.658   2.221   2.865  1.6921  0.4617 -0.4218
 2446TIP3   OH2 7343   0.792   0.122   4.239 -0.6875  0.4447  0.0081
 2446TIP3    H1 7344   0.724   0.065   4.205 -1.1450  1.7572 -1.4179
 2446TIP3    H2 7345   0.830   0.074   4.312 -1.6535 -1.2609 -0.5580
 2447TIP3   OH2 7346   2.298   0.224   0.980  0.0616  0.7786 -0.5263
 2447TIP3    H1 7347   2.335   0.285   1.043  0.2555  0.8011 -0.6621
 2447TIP3    H2 7348   2.203   0.230   0.993  0.1459 -0.4583  0.9267
 2448TIP3   OH2 7349   1.951   1.820   1.451  0.7490 -0.3097  0.2431
 2448TIP3    H1 7350   1.929   1.763   1.377 -0.0099 -1.0262  1.0024
 2448TIP3    H2 7351   2.042   1.844   1.436  0.9822 -1.4386 -0.2838
 2449TIP3   OH2 7352   2.009   2.027   2.471 -0.8721 -0.1769 -0.2002
 2449TIP3    H1 7353   1.995   2.087   2.545  0.8792  0.3150 -0.2122
 2449TIP3    H2 7354   2.015   1.941   2.511  0.9185  0.1785  0.3932
 2450TIP3   OH2 7355   2.639   1.538   2.152 -0.4414  0.1042 -0.0969
 2450TIP3    H1 7356   2.721   1.511   2.112 -0.6604  0.4769 -0.8192
 2450TIP3    H2 7357   2.592   1.456   2.168  0.6965 -0.2388  1.7690
 2451TIP3   OH2 7358   2.657   5.333   3.594  0.1570 -0.1947  0.1017
 2451TIP3    H1 7359   2.746   5.299   3.604  0.5444  0.4569 -0.9459
 2451TIP3    H2 7360   2.665   5.427   3.612 -0.4819 -0.2558  0.7815
 2452TIP3   OH2 7361   5.594   3.465   3.563 -0.1895  0.5080 -0.0535
 2452TIP3    H1 7362   5.525   3.401   3.545 -2.2984  2.3223  1.0107
 2452TIP3    H2 7363   5.640   3.474   3.480 -0.0035 -2.1011 -0.3179
 2453TIP3   OH2 7364   4.204   5.882   2.398  0.4136 -0.1835  0.0677
 2453TIP3    H1 7365   4.174   5.791   2.395 -0.6826  0.1339  0.9444
 2453TIP3    H2 7366   4.144   5.929   2.341  1.4468 -0.1053 -1.0051
 2454TIP3   OH2 7367   6.038   4.252   4.715 -0.2312  0.1043  0.0506
 2454TIP3    H1 7368   5.965   4.283   4.662  0.3251  1.1944 -0.0930
 2454TIP3    H2 7369   6.019   4.283   4.803  0.6860  1.5408 -0.2285
 2455TIP3   OH2 7370   2.511   3.084   4.288  0.2528  0.1375 -0.3975
 2455TIP3    H1 7371   2.437   3.144   4.294 -0.3940 -0.6352 -0.4888
 2455TIP3    H2 7372   2.588   3.138   4.307 -0.3682  0.8663  0.0948
 2456TIP3   OH2 7373   2.603   3.885   4.905 -0.0761 -0.1634  0.0980
 2456TIP3    H1 7374   2.638   3.863   4.991 -2.2601  1.7677  1.6213
 2456TIP3    H2 7375   2.679   3.911   4.853  1.1688 -0.0793  1.8988
 2457TIP3   OH2 7376   5.191   0.809   4.265 -0.1280  0.2027 -0.0385
 2457TIP3    H1 7377   5.227   0.806   4.177 -0.9218 -0.7011 -0.3542
 2457TIP3    H2 7378   5.257   0.854   4.317  1.4021 -1.2543 -0.6237
 2458TIP3   OH2 7379   5.047   0.103   1.729 -0.2171  0.1594  0.4781
 2458TIP3    H1 7380   4.992   0.071   1.801 -3.3201  0.2328 -1.6734
 2458TIP3    H2 7381   5.092   0.179   1.766  0.9022 -1.6577  3.2297
 2459TIP3   OH2 7382   1.533   4.769   2.567  0.5091  0.1255 -0.1880
 2459TIP3    H1 7383   1.618   4.798   2.535  0.4199 -1.6535 -2.2067
 2459TIP3    H2 7384   1.513   4.691   2.516 -2.2510  0.3649  0.3779
 2460TIP3   OH2 7385   2.402   0.855   4.972  0.0636  0.5729 -0.2383
 2460TIP3    H1 7386   2.402   0.939   5.017 -1.3163  0.7609 -0.5327
 2460TIP3    H2 7387   2.471   0.862   4.906 -1.8288  2.6247 -2.2148
 2461TIP3   OH2 7388   1.667   0.358   0.175 -0.0384  0.2184 -0.1741
 2461TIP3    H1 7389   1.725   0.403   0.114 -0.4310  1.2480  0.1851
 2461TIP3    H2 7390   1.699   0.384   0.262 -0.2109 -0.2760  0.0372
 2462TIP3   OH2 7391   2.485   2.089   5.117  0.4124 -0.1121 -0.5198
 2462TIP3    H1 7392   2.542   2.066   5.190  0.2393  2.8107  0.6890
 2462TIP3    H2 7393   2.541   2.137   5.056 -0.0506 -0.0520 -0.9117
 2463TIP3   OH2 7394   2.898   1.616   1.640 -0.1826 -0.2058 -0.0066
 2463TIP3    H1 7395   2.814   1.591   1.679 -0.7615 -0.0770 -1.1419
 2463TIP3    H2 7396   2.876   1.688   1.581  0.7548 -0.0745 -0.1980
 2464TIP3   OH2 7397   2.218   0.945   0.030  0.2770 -0.5311 -0.0490
 2464TIP3    H1 7398   2.248   0.919  -0.057 -0.3633 -0.7367 -0.2167
 2464TIP3    H2 7399   2.227   0.866   0.084 -0.1349 -0.6557 -0.1526
 2465TIP3   OH2 7400   0.245   4.826   0.838  0.0147 -0.2548  0.1356
 2465TIP3    H1 7401   0.202   4.911   0.830 -0.9164 -0.5171  1.9085
 2465TIP3    H2 7402   0.231   4.784   0.754 -0.1763  1.0331 -0.4999
 2466TIP3   OH2 7403   2.513   2.125   2.500 -0.2117  0.1419  0.4254
 2466TIP3    H1 7404   2.580   2.181   2.539 -1.2169 -0.1815  2.7544
 2466TIP3    H2 7405   2.548   2.036   2.508 -1.0027 -0.0652  1.9848
 2467TIP3   OH2 7406   0.180   1.874   1.877  0.7456  0.4438  0.2164
 2467TIP3    H1 7407   0.261   1.833   1.905  2.3794  2.2291 -1.5782
 2467TIP3    H2 7408   0.125   1.801   1.847  2.4247 -0.6510 -0.3038
 2468TIP3   OH2 7409   0.930   5.830   1.030  0.3110  0.4591  0.3326
 2468TIP3    H1 7410   0.891   5.852   0.945 -1.4013 -0.8699  0.7145
 2468TIP3    H2 7411   1.024   5.826   1.013 -0.0103  0.0480 -1.5665
 2469TIP3   OH2 7412   0.813   1.637   4.141  0.3854  0.1320  0.2046
 2469TIP3    H1 7413   0.895   1.620   4.189 -0.5084 -2.2849  0.9830
 2469TIP3    H2 7414   0.802   1.732   4.148  2.5861  0.4017  0.9598
 2470TIP3   OH2 7415   3.418   1.275   3.212  0.0072 -0.5960  0.6531
 2470TIP3    H1 7416   3.494   1.264   3.269 -0.6480  0.9417  1.8740
 2470TIP3    H2 7417   3.351   1.217   3.249  0.0251 -0.6309  0.6306
 2471TIP3   OH2 7418   4.015   2.048   4.152 -0.1573  0.3079 -0.1303
 2471TIP3    H1 7419   4.090   2.088   4.108  0.3727 -1.3322 -0.8156
 2471TIP3    H2 7420   3.949   2.037   4.084 -1.3152  2.2928  0.5955
 2472TIP3   OH2 7421   4.703   2.646   4.885 -0.1659  1.4383  0.2365
 2472TIP3    H1 7422   4.671   2.625   4.797 -0.2431  2.7223 -0.0705
 2472TIP3    H2 7423   4.797   2.631   4.881 -0.3259  0.3556  0.3007
 2473TIP3   OH2 7424   1.970   3.488   4.374  0.4434  0.0933  0.2886
 2473TIP3    H1 7425   2.042   3.434   4.408  0.1816  0.1064  0.8630
 2473TIP3    H2 7426   1.955   3.553   4.442 -1.5845 -1.2298  1.2032
 2474TIP3   OH2 7427   2.906   5.219   3.627 -0.4200 -0.1604 -0.5656
 2474TIP3    H1 7428   2.940   5.263   3.549  0.0828 -3.0346 -2.0954
 2474TIP3    H2 7429   2.971   5.239   3.695  1.0560 -0.5089 -1.8319
 2475TIP3   OH2 7430   5.726   5.881   0.863 -0.0000  0.0917 -0.1344
 2475TIP3    H1 7431   5.669   5.935   0.919  2.3950 -0.2857  2.8980
 2475TIP3    H2 7432   5.786   5.944   0.822  0.5434  0.0744  0.6183
 2476TIP3   OH2 7433   0.414   1.149   2.154  0.2693  0.0759  0.3334
 2476TIP3    H1 7434   0.355   1.175   2.083 -0.5788 -2.5656 -0.0650
 2476TIP3    H2 7435   0.380   1.194   2.231 -1.8346 -0.7270 -0.0532
 2477TIP3   OH2 7436   2.013   1.109   2.185  0.9489  0.0441  0.0006
 2477TIP3    H1 7437   2.071   1.041   2.218 -0.3538 -2.5396 -2.5974
 2477TIP3    H2 7438   1.925   1.075   2.198  0.1415  2.0415  0.1797
 2478TIP3   OH2 7439   0.709   0.387   4.968 -0.2413 -0.1438  0.2541
 2478TIP3    H1 7440   0.793   0.374   5.012  0.0184 -1.1121 -0.4848
 2478TIP3    H2 7441   0.679   0.298   4.947 -0.1106  0.2792 -1.9254
 2479TIP3   OH2 7442   0.515   1.218   4.804  0.3641 -0.1081 -0.1407
 2479TIP3    H1 7443   0.580   1.218   4.875  0.5254  2.5262 -0.2150
 2479TIP3    H2 7444   0.470   1.301   4.812 -1.7799 -1.0790 -1.2670
 2480TIP3   OH2 7445   5.195   3.006   4.603  0.9692  0.7930 -0.1780
 2480TIP3    H1 7446   5.148   3.088   4.618 -0.2864 -0.0360  0.5831
 2480TIP3    H2 7447   5.127   2.944   4.576  1.8202 -0.1347 -0.2584
 2481TIP3   OH2 7448   5.635   0.382   4.275  0.3476  0.2947 -0.1195
 2481TIP3    H1 7449   5.611   0.367   4.184  1.8311  1.6877 -0.7858
 2481TIP3    H2 7450   5.564   0.435   4.310  0.1647  0.4290 -0.6863
 2482TIP3   OH2 7451   1.543   2.992   1.968  0.4270  0.5823  0.1977
 2482TIP3    H1 7452   1.540   3.075   2.016 -2.2083  0.2119  0.8246
 2482TIP3    H2 7453   1.627   2.953   1.992  1.6610  2.9467  0.0210
 2483TIP3   OH2 7454   3.146   0.130   2.502  0.0223  0.1351  0.4964
 2483TIP3    H1 7455   3.084   0.158   2.569 -0.8452  1.1294 -0.6627
 2483TIP3    H2 7456   3.133   0.193   2.430  1.9163 -0.0258 -0.0433
 2484TIP3   OH2 7457   4.327   3.476   1.042 -0.3275 -0.4460 -0.1326
 2484TIP3    H1 7458   4.419   3.461   1.061  0.5473  2.3351 -1.6524
 2484TIP3    H2 7459   4.284   3.475   1.127  1.3739 -0.1889  0.7560
 2485TIP3   OH2 7460   4.804   4.781   2.615  0.5807 -0.8597  0.2110
 2485TIP3    H1 7461   4.742   4.726   2.663  0.5318 -0.5908  0.4615
 2485TIP3    H2 7462   4.818   4.735   2.533 -1.8915  0.2601 -0.9726
 2486TIP3   OH2 7463   5.916   3.419   2.410 -0.7077 -0.1337  0.0832
 2486TIP3    H1 7464   5.956   3.427   2.323  0.7838 -0.0299  0.7669
 2486TIP3    H2 7465   5.988   3.396   2.468 -1.5585  0.5211  1.4347
 2487TIP3   OH2 7466   2.664   0.883   2.138  0.2838  0.0708 -0.2834
 2487TIP3    H1 7467   2.603   0.885   2.212  1.7135  1.5925  0.9287
 2487TIP3    H2 7468   2.751   0.890   2.178  1.2859 -1.7989 -1.9814
 2488TIP3   OH2 7469   1.640   0.109   0.733  0.2349  0.9359  0.2123
 2488TIP3    H1 7470   1.683   0.068   0.658  0.4104  1.5557 -0.0391
 2488TIP3    H2 7471   1.680   0.196   0.738  0.6494  0.6941  1.3919
 2489TIP3   OH2 7472   2.965   3.571   1.122 -0.6654 -0.4824 -0.2021
 2489TIP3    H1 7473   3.039   3.588   1.063 -0.9995 -1.7105 -1.0145
 2489TIP3    H2 7474   3.003   3.575   1.209  0.4078 -1.1728 -0.6138
 2490TIP3   OH2 7475   5.997   4.472   2.590 -0.8608  0.6418 -0.4854
 2490TIP3    H1 7476   6.038   4.494   2.506 -3.0165  2.0761 -1.2556
 2490TIP3    H2 7477   6.021   4.544   2.648  0.6350 -0.3531  0.1982
 2491TIP3   OH2 7478   3.514   1.495   4.097  0.4260 -0.2913 -0.7933
 2491TIP3    H1 7479   3.597   1.542   4.085  0.2271 -0.1834 -1.7549
 2491TIP3    H2 7480   3.464   1.512   4.017 -1.4977  1.5685  0.6901
 2492TIP3   OH2 7481   3.066   5.708   5.104  0.2625  0.6003 -0.0900
 2492TIP3    H1 7482   3.121   5.656   5.162  2.9528  0.6397 -2.4083
 2492TIP3    H2 7483   3.007   5.645   5.064 -0.7966  0.3954  1.6915
 2493TIP3   OH2 7484   2.316   3.133   0.516  0.3642 -0.5174  0.0023
 2493TIP3    H1 7485   2.293   3.226   0.515  0.3230 -0.5255 -0.7393
 2493TIP3    H2 7486   2.390   3.127   0.455  0.4544 -0.9504  0.1536
 2494TIP3   OH2 7487   2.987   3.216   2.265 -0.5223  0.7379  0.0596
 2494TIP3    H1 7488   3.055   3.284   2.269 -0.3216  0.6426 -1.2407
 2494TIP3    H2 7489   3.004   3.161   2.341 -0.6797  2.1147  1.1308
 2495TIP3   OH2 7490   4.790   4.166   2.806  0.1002  0.1504 -0.1228
 2495TIP3    H1 7491   4.725   4.235   2.823 -1.5442 -0.9749 -1.4171
 2495TIP3    H2 7492   4.739   4.085   2.806  1.7483 -0.9312  0.0314
 2496TIP3   OH2 7493   5.312   0.431   1.147  0.1639 -0.9923 -0.4663
 2496TIP3    H1 7494   5.229   0.474   1.126  0.4981 -0.4402 -0.6805
 2496TIP3    H2 7495   5.291   0.369   1.217 -0.3511 -0.5757 -0.2528
 2497TIP3   OH2 7496   0.360   0.175   4.447 -0.2244 -0.3787 -0.2782
 2497TIP3    H1 7497   0.298   0.133   4.507  0.7565  0.8126  1.6513
 2497TIP3    H2 7498   0.395   0.102   4.394 -1.5148 -1.3866  0.2087
 2498TIP3   OH2 7499   0.715   4.664   2.655 -0.0642 -0.2161 -0.6953
 2498TIP3    H1 7500   0.714   4.587   2.712 -1.3743  0.2868  0.0093
 2498TIP3    H2 7501   0.720   4.738   2.715 -0.7629  0.3069 -1.2712
 2499TIP3   OH2 7502   3.181   2.968   4.288 -0.1365 -0.4284 -0.0529
 2499TIP3    H1 7503   3.185   3.063   4.283  1.7629 -0.4066  1.0759
 2499TIP3    H2 7504   3.273   2.940   4.285 -0.6201 -2.1807  0.4209
 2500TIP3   OH2 7505   3.780   5.548   4.292  0.3384 -0.0197  0.4392
 2500TIP3    H1 7506   3.727   5.619   4.255  1.5476  0.8826  0.3565
 2500TIP3    H2 7507   3.869   5.585   4.297  0.8764 -1.3260  0.9783
 2501TIP3   OH2 7508   0.733   1.028   3.642  0.6870 -0.3207 -0.4085
 2501TIP3    H1 7509   0.691   0.970   3.578  0.1665 -1.8686  1.2579
 2501TIP3    H2 7510   0.672   1.030   3.716  0.6720  2.4515 -0.4091
 2502TIP3   OH2 7511   2.726   3.537   4.849  0.0586 -0.4653  0.2124
 2502TIP3    H1 7512   2.796   3.595   4.876 -0.8541  0.2941  1.0071
 2502TIP3    H2 7513   2.754   3.504   4.763  1.7796 -0.8800  0.9009
 2503TIP3   OH2 7514   2.658   5.348   4.292 -0.3793  0.3926  0.0241
 2503TIP3    H1 7515   2.581   5.401   4.270 -0.2994  0.0443 -1.1838
 2503TIP3    H2 7516   2.732   5.407   4.281 -0.1548 -0.2823 -2.8125
 2504TIP3   OH2 7517   2.126   2.307   1.566  0.3832 -0.2248  0.1865
 2504TIP3    H1 7518   2.092   2.288   1.653  0.3366 -1.2221 -0.0296
 2504TIP3    H2 7519   2.191   2.238   1.550  0.3328 -0.1062 -0.5961
 2505TIP3   OH2 7520   2.673   1.512   4.868 -0.0022 -0.2522 -0.5243
 2505TIP3    H1 7521   2.737   1.530   4.799  0.4267 -0.3648 -0.1619
 2505TIP3    H2 7522   2.629   1.596   4.881 -0.0430 -0.2142 -0.8891
 2506TIP3   OH2 7523   6.186   1.785   2.686 -0.3606 -1.0701 -0.0565
 2506TIP3    H1 7524   6.218   1.720   2.748 -0.7432 -2.5520 -1.3517
 2506TIP3    H2 7525   6.097   1.756   2.664  0.0725 -1.0907 -1.9278
 2507TIP3   OH2 7526   1.952   5.796   0.698  0.0175 -0.3084  0.0875
 2507TIP3    H1 7527   1.934   5.711   0.739  0.3142 -1.4074 -1.9378
 2507TIP3    H2 7528   1.873   5.848   0.715  0.7548 -0.0733  3.4017
 2508TIP3   OH2 7529   0.678   4.504   4.544 -0.6389  0.2582 -0.7434
 2508TIP3    H1 7530   0.584   4.494   4.559 -0.5958 -0.6042 -1.0006
 2508TIP3    H2 7531   0.688   4.595   4.516 -1.4911  0.1779 -1.3731
 2509TIP3   OH2 7532   3.423   1.068   4.317 -0.0459  0.2753  0.2720
 2509TIP3    H1 7533   3.373   1.142   4.350 -1.6747  0.7230 -2.8521
 2509TIP3    H2 7534   3.358   1.010   4.277  1.5215 -1.2548 -0.1910
 2510TIP3   OH2 7535   4.314   3.919   1.015  0.0038 -0.3534  0.1542
 2510TIP3    H1 7536   4.255   3.938   1.088 -0.6385 -1.1785 -0.1347
 2510TIP3    H2 7537   4.368   3.998   1.006 -0.1945 -0.0833  1.2396
 2511TIP3   OH2 7538   1.081   2.569   0.115 -0.9882 -0.2245 -0.1468
 2511TIP3    H1 7539   1.156   2.512   0.098 -2.0113 -1.4089 -0.8596
 2511TIP3    H2 7540   1.100   2.609   0.200  0.3146 -0.7106 -0.1874
 2512TIP3   OH2 7541   0.363   0.995   4.863  0.1723 -0.4866 -0.3670
 2512TIP3    H1 7542   0.410   1.077   4.846 -1.0397  0.1717 -0.5918
 2512TIP3    H2 7543   0.365   0.948   4.779 -0.8625  0.2170 -0.8001
 2513TIP3   OH2 7544   1.371   3.861   2.162  0.6822 -0.3242 -0.2524
 2513TIP3    H1 7545   1.306   3.825   2.102  0.6876 -0.9191  0.0931
 2513TIP3    H2 7546   1.373   3.800   2.236  1.0600  0.1129  0.1081
 2514TIP3   OH2 7547   0.304   4.275   1.589  0.6450  0.0817 -0.5123
 2514TIP3    H1 7548   0.389   4.231   1.597  0.6745 -0.0134 -1.2802
 2514TIP3    H2 7549   0.240   4.205   1.604  0.6819  0.3006  0.8410
 2515TIP3   OH2 7550   4.248   5.503   1.089 -0.1108  0.2596 -0.4184
 2515TIP3    H1 7551   4.263   5.415   1.123 -0.1364 -0.2997 -1.7940
 2515TIP3    H2 7552   4.331   5.548   1.102  0.4610 -0.5094 -1.2172
 2516TIP3   OH2 7553   0.087   0.502   0.312 -0.9069  0.4298 -0.1682
 2516TIP3    H1 7554   0.042   0.453   0.243  0.0904  2.0789 -2.0999
 2516TIP3    H2 7555   0.053   0.591   0.305  2.1495  1.6223 -1.3731
 2517TIP3   OH2 7556   2.367   2.922   4.137 -0.6244  0.3841  0.3336
 2517TIP3    H1 7557   2.433   2.952   4.199  1.0653 -2.6028  0.1630
 2517TIP3    H2 7558   2.354   2.996   4.077  3.4292  0.7902 -0.3093
 2518TIP3   OH2 7559   6.077   1.573   4.295 -0.4147  0.0464 -0.1755
 2518TIP3    H1 7560   6.067   1.668   4.286 -0.5492  0.1009  0.5030
 2518TIP3    H2 7561   6.165   1.555   4.261 -0.0724  0.5266  0.4203
 2519TIP3   OH2 7562   3.174   3.423   2.813  0.7615 -0.1101  0.3515
 2519TIP3    H1 7563   3.205   3.353   2.756  3.0690 -0.5342  1.9854
 2519TIP3    H2 7564   3.126   3.378   2.882 -1.6309  0.3627 -0.9071
 2520TIP3   OH2 7565   1.502   0.875   3.235 -0.0098  0.3415 -0.1492
 2520TIP3    H1 7566   1.460   0.925   3.164  0.7382  1.3584  0.0901
 2520TIP3    H2 7567   1.472   0.785   3.223  0.9879  0.2512 -2.4563
 2521TIP3   OH2 7568   3.928   4.764   2.236 -0.4188  0.1246 -0.8474
 2521TIP3    H1 7569   3.941   4.848   2.193 -1.5619  0.3145 -0.8370
 2521TIP3    H2 7570   4.016   4.725   2.239  0.3617  1.8700  0.3634
 2522TIP3   OH2 7571   3.484   4.506   3.141  0.0252  0.2235  0.2085
 2522TIP3    H1 7572   3.488   4.489   3.235 -1.0535 -0.8663  0.0849
 2522TIP3    H2 7573   3.574   4.500   3.111  0.1889 -1.1819  0.9072
 2523TIP3   OH2 7574   0.959   3.610   3.009  0.1650  0.1901  0.5813
 2523TIP3    H1 7575   1.020   3.636   2.940 -1.6490  0.7326 -0.9398
 2523TIP3    H2 7576   0.966   3.515   3.013  0.9944  0.2373  0.3159
 2524TIP3   OH2 7577   3.722   2.573   1.207 -0.1178 -0.3442 -0.0437
 2524TIP3    H1 7578   3.666   2.612   1.274 -0.5615 -0.5427 -0.2928
 2524TIP3    H2 7579   3.699   2.621   1.127 -1.0911 -1.4785 -0.4788
 2525TIP3   OH2 7580   5.404   3.265   3.124 -0.1097 -0.0122 -0.1636
 2525TIP3    H1 7581   5.443   3.279   3.038  0.1460 -1.6586 -0.3414
 2525TIP3    H2 7582   5.465   3.207   3.169 -1.0027 -0.4198  0.5621
 2526TIP3   OH2 7583   5.134   0.310   1.876 -0.3192 -0.5196  0.9011
 2526TIP3    H1 7584   5.087   0.348   1.950 -0.5575 -0.4587  0.7209
 2526TIP3    H2 7585   5.150   0.384   1.817 -0.3610 -0.6125  0.7718
 2527TIP3   OH2 7586   5.638   1.920   1.401  0.0799 -0.3070 -0.1653
 2527TIP3    H1 7587   5.546   1.901   1.386 -0.3724  0.8748  0.8968
 2527TIP3    H2 7588   5.646   2.014   1.383  0.9960 -0.3223  0.1172
 2528TIP3   OH2 7589   3.543   0.519   4.046  0.2181  0.1194  0.3952
 2528TIP3    H1 7590   3.550   0.440   3.992  1.2861  0.3768  0.1368
 2528TIP3    H2 7591   3.571   0.491   4.133 -0.8950 -0.1419  0.6892
 2529TIP3   OH2 7592   2.276   5.471   0.967  0.2677  0.1177 -0.0948
 2529TIP3    H1 7593   2.209   5.537   0.985 -0.1894  0.0304 -1.4171
 2529TIP3    H2 7594   2.357   5.520   0.961  0.1732  0.3550  0.4407
 2530TIP3   OH2 7595   0.066   4.609   1.145 -0.2217  0.3070  0.6336
 2530TIP3    H1 7596   0.149   4.648   1.169  0.4935 -0.7939  0.0586
 2530TIP3    H2 7597   0.012   4.682   1.116  0.5160  1.0463  1.1091
 2531TIP3   OH2 7598   2.383   4.754   1.545 -0.2523 -0.6853  0.4939
 2531TIP3    H1 7599   2.317   4.715   1.602  0.1618 -0.9408  0.8064
 2531TIP3    H2 7600   2.375   4.706   1.463 -0.9373 -0.2299  0.2871
 2532TIP3   OH2 7601   5.605   3.539   3.003  0.0991 -0.1528 -0.2664
 2532TIP3    H1 7602   5.667   3.608   2.978  0.3230 -0.4921 -0.6448
 2532TIP3    H2 7603   5.646   3.458   2.975  0.0339 -0.4889  0.5626
 2533TIP3   OH2 7604   3.336   1.980   1.044  0.3959 -0.1005  0.0547
 2533TIP3    H1 7605   3.282   1.966   1.121  1.8176 -2.1913  0.7515
 2533TIP3    H2 7606   3.402   2.043   1.072 -1.7217  2.7539 -0.9071
 2534TIP3   OH2 7607   4.853   1.279   3.674  0.4449 -0.2935  0.0657
 2534TIP3    H1 7608   4.865   1.318   3.760 -1.4447 -0.1193  0.3057
 2534TIP3    H2 7609   4.874   1.349   3.612  1.0945 -0.1917  0.4023
 2535TIP3   OH2 7610   1.261   5.649   2.481  0.0724 -0.2187  0.1830
 2535TIP3    H1 7611   1.272   5.555   2.489 -0.1848 -0.2283  0.4486
 2535TIP3    H2 7612   1.291   5.685   2.564  0.9159  0.0062 -0.2089
 2536TIP3   OH2 7613   4.592   1.014   1.715  0.3738 -0.1544 -0.2231
 2536TIP3    H1 7614   4.626   1.053   1.796  1.4346 -0.0060 -0.7332
 2536TIP3    H2 7615   4.658   1.033   1.649 -0.3568 -0.5112 -1.0774
 2537TIP3   OH2 7616   3.587   2.657   4.740  0.1927 -0.2705 -0.1412
 2537TIP3    H1 7617   3.543   2.734   4.774  1.5716  1.0788 -1.2178
 2537TIP3    H2 7618   3.654   2.636   4.805 -0.2633 -0.6382  0.2103
 2538TIP3   OH2 7619   5.029   4.360   3.416 -0.5888 -0.0216  0.1548
 2538TIP3    H1 7620   5.108   4.329   3.373  0.0675 -0.2985  1.4995
 2538TIP3    H2 7621   5.056   4.441   3.460 -1.1939  0.1689  0.1836
 2539TIP3   OH2 7622   1.567   5.410   3.259 -0.0177 -0.3667  0.0100
 2539TIP3    H1 7623   1.653   5.374   3.280 -0.0203 -1.0942 -1.1569
 2539TIP3    H2 7624   1.545   5.373   3.174 -1.0683  0.5688 -0.1547
 2540TIP3   OH2 7625   2.826   5.786   2.329 -0.1825 -0.0032  0.6386
 2540TIP3    H1 7626   2.867   5.705   2.300  0.3359 -0.2155  1.8779
 2540TIP3    H2 7627   2.741   5.788   2.285 -0.1718 -1.1862  0.5384
 2541TIP3   OH2 7628   1.367   0.081   4.925 -0.1547  0.1030 -0.1563
 2541TIP3    H1 7629   1.431   0.011   4.928  0.8321  0.7725 -2.7872
 2541TIP3    H2 7630   1.287   0.043   4.961  1.0226 -1.5510  0.8036
 2542TIP3   OH2 7631   1.612   3.623   2.942  0.1216  0.3940  0.1880
 2542TIP3    H1 7632   1.572   3.536   2.947  2.4325 -0.7873 -0.3416
 2542TIP3    H2 7633   1.602   3.648   2.850  0.6283  0.0504  0.0311
 2543TIP3   OH2 7634   3.000   0.494   2.845  0.4406 -0.4722 -0.3286
 2543TIP3    H1 7635   2.958   0.579   2.830 -0.8381 -1.1695 -0.8778
 2543TIP3    H2 7636   2.961   0.462   2.927 -0.3800 -1.2631 -1.0036
 2544TIP3   OH2 7637   0.103   1.470   4.864 -0.9460  0.4327  0.1466
 2544TIP3    H1 7638   0.057   1.540   4.910 -3.7602 -2.3771  2.0315
 2544TIP3    H2 7639   0.036   1.429   4.809  0.6843 -0.5746 -1.2035
 2545TIP3   OH2 7640   0.033   0.746   2.040 -0.8473 -0.1148 -0.2962
 2545TIP3    H1 7641  -0.061   0.734   2.054 -0.8339  1.0627  1.0033
 2545TIP3    H2 7642   0.073   0.664   2.068 -1.4114 -0.2613  0.0901
 2546TIP3   OH2 7643   0.392   0.083   1.009 -0.1012  0.5220  0.0490
 2546TIP3    H1 7644   0.316   0.135   1.036 -0.5518  0.9056 -1.7940
 2546TIP3    H2 7645   0.444   0.074   1.089 -2.2857 -0.1579  1.5066
 2547TIP3   OH2 7646   5.475   3.211   1.563  0.0575  0.1558 -0.3741
 2547TIP3    H1 7647   5.459   3.164   1.645 -1.9078  2.7511  0.8894
 2547TIP3    H2 7648   5.424   3.163   1.497  2.0107 -2.2174 -0.3054
 2548TIP3   OH2 7649   1.338   5.250   5.037  0.1064 -0.4354  0.2355
 2548TIP3    H1 7650   1.357   5.161   5.009 -0.5514  0.1838 -2.4422
 2548TIP3    H2 7651   1.242   5.255   5.039  0.1217 -0.3118  2.3251
 2549TIP3   OH2 7652   2.773   5.246   2.903 -0.3792 -0.1136 -0.3150
 2549TIP3    H1 7653   2.729   5.184   2.961 -2.3576 -1.9349 -3.4597
 2549TIP3    H2 7654   2.851   5.200   2.871  1.6815  1.5242  2.0024
 2550TIP3   OH2 7655   4.811   0.423   5.129  0.5942 -0.1065  0.1815
 2550TIP3    H1 7656   4.838   0.451   5.216  1.7987 -1.3612  0.2364
 2550TIP3    H2 7657   4.814   0.328   5.132  1.6277 -0.1577 -1.5139
 2551TIP3   OH2 7658   0.411   5.395   4.836  0.8207 -0.2658  0.2050
 2551TIP3    H1 7659   0.473   5.392   4.763  1.4141 -0.7752  0.7153
 2551TIP3    H2 7660   0.329   5.360   4.800  0.3141  1.9237 -0.9353
 2552TIP3   OH2 7661   2.144   4.548   4.371 -0.0015  0.0731 -0.2046
 2552TIP3    H1 7662   2.159   4.630   4.419 -0.8680  0.2575 -0.2257
 2552TIP3    H2 7663   2.175   4.480   4.430  1.2835  0.4382 -0.4266
 2553TIP3   OH2 7664   4.899   0.745   2.834 -0.0643  0.1401 -0.0648
 2553TIP3    H1 7665   4.915   0.657   2.869 -0.6395  0.5114  1.1651
 2553TIP3    H2 7666   4.979   0.793   2.853 -0.6162  0.5258  1.3808
 2554TIP3   OH2 7667   4.893   3.554   2.537 -0.0423 -0.1146 -0.1946
 2554TIP3    H1 7668   4.903   3.558   2.442  0.0367 -0.3610 -0.1961
 2554TIP3    H2 7669   4.846   3.635   2.559  1.1618  0.6525 -0.2857
 2555TIP3   OH2 7670   3.053   5.842   2.130 -0.1707  0.1010 -0.4286
 2555TIP3    H1 7671   3.027   5.820   2.220 -1.3348 -0.8245 -0.9590
 2555TIP3    H2 7672   3.131   5.896   2.140 -0.7667  0.7256  1.1732
 2556TIP3   OH2 7673   1.041   3.854   1.086 -0.7197  0.3859  0.2155
 2556TIP3    H1 7674   1.099   3.930   1.095 -0.0113 -0.3013  1.9165
 2556TIP3    H2 7675   0.956   3.891   1.064 -0.6411  1.7914  2.0839
 2557TIP3   OH2 7676   4.952   5.391   2.856 -0.0093  0.2635 -0.1642
 2557TIP3    H1 7677   4.916   5.463   2.907  0.3130  0.5603 -0.3535
 2557TIP3    H2 7678   4.876   5.338   2.832 -0.2322  0.4771  0.0745
 2558TIP3   OH2 7679   4.513   4.994   5.049 -0.3993 -0.3963  0.5655
 2558TIP3    H1 7680   4.587   4.941   5.077 -1.1439 -1.9307 -0.2547
 2558TIP3    H2 7681   4.521   5.075   5.099  1.2225 -0.9509  1.2652
 2559TIP3   OH2 7682   2.068   4.310   4.148 -0.0649  0.1793  0.0898
 2559TIP3    H1 7683   2.161   4.300   4.127  0.0465  1.7418 -0.3022
 2559TIP3    H2 7684   2.061   4.399   4.184 -1.3321 -0.0941  0.5812
 2560TIP3   OH2 7685   3.205   1.673   4.087  0.5050  0.1831 -0.4353
 2560TIP3    H1 7686   3.279   1.700   4.033  0.0918  0.9170 -0.6528
 2560TIP3    H2 7687   3.176   1.591   4.048  1.7279 -0.5695  0.1780
 2561TIP3   OH2 7688   5.506   0.532   4.606  0.4109 -0.2825 -0.0958
 2561TIP3    H1 7689   5.551   0.610   4.575  1.7112 -1.6865 -2.0298
 2561TIP3    H2 7690   5.533   0.524   4.698  2.6867 -0.0351 -0.6708
 2562TIP3   OH2 7691   1.976   5.434   4.435 -0.3291  0.8243  0.3391
 2562TIP3    H1 7692   1.970   5.347   4.396 -1.6246  1.3935 -0.8371
 2562TIP3    H2 7693   1.979   5.418   4.529 -3.7591 -0.4824  0.3718
 2563TIP3   OH2 7694   1.303   4.228   4.000  0.2289  0.1876  0.0680
 2563TIP3    H1 7695   1.379   4.221   3.942 -0.4111 -0.5657 -0.7128
 2563TIP3    H2 7696   1.256   4.145   3.988  0.1470 -0.0560  1.7715
 2564TIP3   OH2 7697   2.388   0.140   4.166 -0.1873  0.1727  0.0255
 2564TIP3    H1 7698   2.437   0.073   4.214 -0.1540  0.8294  0.9463
 2564TIP3    H2 7699   2.450   0.212   4.155 -0.4243  0.3234 -0.3447
 2565TIP3   OH2 7700   1.144   0.031   0.136 -0.0674  0.7586 -0.6251
 2565TIP3    H1 7701   1.217  -0.010   0.090  0.4919 -0.3571  1.1624
 2565TIP3    H2 7702   1.184   0.091   0.198 -0.4836 -1.0145  1.4971
 2566TIP3   OH2 7703   3.115   3.542   4.725  0.7603  0.7107  0.0589
 2566TIP3    H1 7704   3.125   3.510   4.635  1.3811 -0.5646  0.5632
 2566TIP3    H2 7705   3.193   3.511   4.771 -0.2167  0.1042  1.3932
 2567TIP3   OH2 7706   4.162   1.450   3.714 -0.0875 -0.3693  0.4228
 2567TIP3    H1 7707   4.201   1.405   3.790  0.4405 -1.0023 -0.2103
 2567TIP3    H2 7708   4.191   1.399   3.639 -0.1466  0.5814 -0.2601
 2568TIP3   OH2 7709   3.799   3.789   3.763  0.0987 -0.4085  0.8252
 2568TIP3    H1 7710   3.709   3.769   3.791 -0.4436 -0.7698 -1.0443
 2568TIP3    H2 7711   3.837   3.836   3.837 -1.4748 -0.6728  1.8542
 2569TIP3   OH2 7712   4.077   4.466   1.713 -0.0102 -0.0046 -0.4240
 2569TIP3    H1 7713   4.085   4.393   1.652 -0.6172  0.9161 -1.6430
 2569TIP3    H2 7714   4.081   4.425   1.800  2.4611 -1.1870 -0.9992
 2570TIP3   OH2 7715   3.877   3.017   0.377 -0.2485 -0.0004  0.2047
 2570TIP3    H1 7716   3.827   3.004   0.296 -0.0695  0.2651  0.0504
 2570TIP3    H2 7717   3.968   3.011   0.350 -0.1473  1.5045  0.1262
 2571TIP3   OH2 7718   4.380   2.953   1.529  0.0545  0.0333 -0.3013
 2571TIP3    H1 7719   4.466   2.911   1.536  0.4439  0.6825 -1.0320
 2571TIP3    H2 7720   4.386   3.007   1.450 -0.8819  0.4240 -0.1174
 2572TIP3   OH2 7721   1.222   4.923   4.594  0.3257  0.2839  0.2075
 2572TIP3    H1 7722   1.163   4.992   4.625 -0.8758 -1.1439  1.2707
 2572TIP3    H2 7723   1.257   4.956   4.511 -0.9268  1.7610  0.2275
 2573TIP3   OH2 7724   4.719   0.086   2.417 -0.1021 -0.4378 -0.1160
 2573TIP3    H1 7725   4.684   0.084   2.506  0.1170 -0.9015 -0.0341
 2573TIP3    H2 7726   4.660   0.145   2.370 -0.4401 -0.4742  0.2473
 2574TIP3   OH2 7727   4.094   4.418   2.794 -0.2425 -0.2748 -0.1712
 2574TIP3    H1 7728   4.077   4.342   2.850 -0.0438  0.4098  0.8472
 2574TIP3    H2 7729   4.019   4.475   2.808 -0.7448 -0.5923 -1.4939
 2575TIP3   OH2 7730   4.556   3.690   1.506  0.1176 -0.1432  0.2152
 2575TIP3    H1 7731   4.473   3.703   1.460 -0.2356  0.5080  1.0206
 2575TIP3    H2 7732   4.530   3.668   1.596  0.7993 -1.3730  0.1375
 2576TIP3   OH2 7733   0.894   1.257   4.001  0.5131 -0.1809  0.4330
 2576TIP3    H1 7734   0.953   1.301   4.062  0.4170 -0.7555  0.9563
 2576TIP3    H2 7735   0.810   1.256   4.047  0.8208 -2.0844  1.0275
 2577TIP3   OH2 7736   5.532   1.909   5.106  0.0733 -0.0204 -0.3992
 2577TIP3    H1 7737   5.438   1.903   5.124 -0.1944  1.2545 -1.2548
 2577TIP3    H2 7738   5.573   1.911   5.193 -0.6752 -0.7002 -0.0230
 2578TIP3   OH2 7739   4.278   4.743   2.685 -0.4711  0.7422 -0.4692
 2578TIP3    H1 7740   4.259   4.733   2.592  1.3835 -0.3742 -0.7780
 2578TIP3    H2 7741   4.350   4.805   2.688  0.9631 -0.8792  0.0129
 2579TIP3   OH2 7742   0.679   4.476   0.392  0.3465 -0.2217  0.2887
 2579TIP3    H1 7743   0.637   4.397   0.357  1.8715 -1.0832  0.3023
 2579TIP3    H2 7744   0.725   4.514   0.317 -0.5700  0.8058  0.2284
 2580TIP3   OH2 7745   3.569   3.787   0.744 -0.3947  0.3403 -0.5412
 2580TIP3    H1 7746   3.533   3.873   0.722  1.3253  1.6189  1.1994
 2580TIP3    H2 7747   3.493   3.730   0.752 -1.6118  1.7583 -1.4884
 2581TIP3   OH2 7748   3.635   3.509   4.076  0.1071  0.4887  0.4616
 2581TIP3    H1 7749   3.671   3.598   4.075  0.1896  0.4567 -0.6572
 2581TIP3    H2 7750   3.660   3.474   4.161 -0.8398  1.9043  1.3637
 2582TIP3   OH2 7751   4.997   3.105   4.335 -0.6026  0.0220  0.1525
 2582TIP3    H1 7752   5.012   3.137   4.424 -1.2849  0.4477  0.1169
 2582TIP3    H2 7753   4.915   3.057   4.340 -1.7380  1.7686 -0.6610
 2583TIP3   OH2 7754   1.854   2.747   4.995 -0.2575  0.3492 -0.6226
 2583TIP3    H1 7755   1.876   2.731   4.903  0.3416  1.0223 -0.6040
 2583TIP3    H2 7756   1.910   2.820   5.020  1.0872 -1.1042  0.8635
 2584TIP3   OH2 7757   2.248   4.685   3.483  0.3458  0.6448  0.6243
 2584TIP3    H1 7758   2.265   4.594   3.459  0.7829  0.3207  2.0854
 2584TIP3    H2 7759   2.162   4.684   3.524  0.7431  0.7061  1.4873
 2585TIP3   OH2 7760   2.260   1.509   1.525 -0.3207  0.2925  0.1946
 2585TIP3    H1 7761   2.170   1.479   1.510 -0.3837  1.2296 -1.5632
 2585TIP3    H2 7762   2.264   1.595   1.484  1.7739 -0.3556 -1.1140
 2586TIP3   OH2 7763   5.426   4.941   1.396 -0.6654 -0.0991  0.6871
 2586TIP3    H1 7764   5.453   5.033   1.392 -1.3797  0.3156  3.5205
 2586TIP3    H2 7765   5.507   4.893   1.414 -0.5633  0.1790  0.9626
 2587TIP3   OH2 7766   6.184   2.971   2.630  0.5554 -0.2123 -0.2116
 2587TIP3    H1 7767   6.198   2.887   2.587  2.0431  0.1348 -0.4730
 2587TIP3    H2 7768   6.269   3.015   2.625 -0.7117  2.3658 -2.3773
 2588TIP3   OH2 7769   1.935   2.526   3.894 -0.3142 -0.0764  0.6670
 2588TIP3    H1 7770   1.867   2.478   3.847  1.1226 -0.6369 -0.9515
 2588TIP3    H2 7771   1.997   2.459   3.922  0.1156  0.5203  1.1804
 2589TIP3   OH2 7772   1.611   0.236   3.085 -0.3337  0.4007  0.4150
 2589TIP3    H1 7773   1.658   0.208   3.007  2.6135  2.7357  1.1949
 2589TIP3    H2 7774   1.528   0.271   3.052  0.6864  1.0144 -1.6392
 2590TIP3   OH2 7775   3.959   1.344   3.158  0.0189  0.3116 -0.3207
 2590TIP3    H1 7776   4.026   1.299   3.210 -1.8105 -1.2634  0.8039
 2590TIP3    H2 7777   3.924   1.276   3.100 -1.7749  0.6136  0.3479
 2591TIP3   OH2 7778   3.109   2.792   4.494 -0.0827 -0.5409  0.3275
 2591TIP3    H1 7779   3.089   2.872   4.445 -2.2858 -1.6317 -0.6718
 2591TIP3    H2 7780   3.200   2.804   4.523  0.7587  0.9165 -2.5518
 2592TIP3   OH2 7781   2.936   1.879   2.194  0.0660  0.4753  0.1332
 2592TIP3    H1 7782   2.940   1.904   2.102 -2.6676  3.2799  0.5969
 2592TIP3    H2 7783   2.874   1.941   2.233  0.6977 -0.9166  3.7786
 2593TIP3   OH2 7784   5.018   0.804   1.956 -0.2723  0.2438 -0.3982
 2593TIP3    H1 7785   5.086   0.753   2.000 -1.1983  0.2433  1.1204
 2593TIP3    H2 7786   4.987   0.747   1.886  2.3789  0.8907 -2.2508
 2594TIP3   OH2 7787   2.026   0.970   0.870 -0.5084  0.1726  1.0872
 2594TIP3    H1 7788   2.098   0.925   0.827 -0.8590  1.1157 -0.6002
 2594TIP3    H2 7789   2.066   1.046   0.911 -0.1849 -0.6779  2.3907
 2595TIP3   OH2 7790   2.337   5.285   4.150  0.3982 -0.2761  0.1598
 2595TIP3    H1 7791   2.351   5.222   4.221  0.6693  0.0500  0.4037
 2595TIP3    H2 7792   2.355   5.370   4.190 -1.0862  0.0764  0.1483
 2596TIP3   OH2 7793   1.051   1.329   2.103 -0.5200  0.1412 -0.0323
 2596TIP3    H1 7794   1.130   1.380   2.121 -0.7242  0.6714 -0.6329
 2596TIP3    H2 7795   0.992   1.389   2.058 -0.7434 -0.6304 -0.8084
 2597TIP3   OH2 7796   3.739   2.899   1.677  1.1099 -0.2143  0.5242
 2597TIP3    H1 7797   3.660   2.892   1.730  0.6376 -3.2168 -0.3709
 2597TIP3    H2 7798   3.794   2.826   1.706  3.2045  1.2829  0.5127
 2598TIP3   OH2 7799   2.911   4.643   4.990 -0.1267  0.9511  0.5151
 2598TIP3    H1 7800   2.843   4.710   4.994  0.4014  1.4908  0.6840
 2598TIP3    H2 7801   2.984   4.686   4.944  0.8317  1.0593  2.0429
 2599TIP3   OH2 7802   5.315   3.472   1.749  0.6430  0.3740 -0.0878
 2599TIP3    H1 7803   5.315   3.412   1.824  1.5501 -0.1688 -0.5050
 2599TIP3    H2 7804   5.407   3.481   1.726  0.4525  1.3605 -0.4981
 2600TIP3   OH2 7805   4.338   0.419   2.558 -0.0404  0.0516  0.4393
 2600TIP3    H1 7806   4.339   0.514   2.551 -0.3788  0.0081 -0.3734
 2600TIP3    H2 7807   4.325   0.401   2.651  0.5653  0.7904  0.6718
 2601TIP3   OH2 7808   1.557   0.544   1.305 -0.0719 -0.2843  0.2839
 2601TIP3    H1 7809   1.489   0.533   1.371 -0.6361 -0.5288 -0.3304
 2601TIP3    H2 7810   1.511   0.544   1.222  0.8196 -1.9385 -0.2520
 2602TIP3   OH2 7811   0.323   4.985   2.748 -0.0935 -0.4466 -0.2592
 2602TIP3    H1 7812   0.251   5.027   2.795 -0.5414 -3.3414  1.9801
 2602TIP3    H2 7813   0.392   5.051   2.745 -2.0388  1.6915 -0.5167
 2603TIP3   OH2 7814   3.277   2.077   3.039 -0.3096 -0.1597  0.8223
 2603TIP3    H1 7815   3.227   2.093   3.119 -1.3206  0.5453  0.0758
 2603TIP3    H2 7816   3.368   2.092   3.065 -0.7581  1.9894  1.4207
 2604TIP3   OH2 7817   1.041   4.644   1.590  0.7715  0.1335 -0.0572
 2604TIP3    H1 7818   1.128   4.636   1.629  1.7179  2.4793 -1.5086
 2604TIP3    H2 7819   1.056   4.637   1.495 -1.1091 -2.6791 -0.2879
 2605TIP3   OH2 7820   0.331   5.649   2.829  0.4328  0.3360 -0.0339
 2605TIP3    H1 7821   0.392   5.581   2.857  0.9142  0.1763 -1.3895
 2605TIP3    H2 7822   0.340   5.652   2.733  0.8631  2.6852  0.0050
 2606TIP3   OH2 7823   2.158   3.204   3.364  0.0032  0.3058  0.0369
 2606TIP3    H1 7824   2.143   3.270   3.433 -2.3533  0.6074 -0.6752
 2606TIP3    H2 7825   2.133   3.248   3.283 -1.1861 -1.3045 -0.5133
 2607TIP3   OH2 7826   0.952   0.492   3.461  0.1144 -0.3495  0.1716
 2607TIP3    H1 7827   0.954   0.585   3.441  0.4973 -0.2193  0.7607
 2607TIP3    H2 7828   0.981   0.487   3.553 -2.4046 -0.8278  1.0000
 2608TIP3   OH2 7829   0.767   3.120   3.976  0.1567  0.7066 -0.0081
 2608TIP3    H1 7830   0.796   3.086   4.061 -1.0663  0.6716  0.4165
 2608TIP3    H2 7831   0.805   3.207   3.972  0.4935  0.5872  0.4370
 2609TIP3   OH2 7832   2.391   4.859   2.110 -0.3627  0.4001  0.3244
 2609TIP3    H1 7833   2.456   4.906   2.057 -0.8811 -0.2764 -0.9477
 2609TIP3    H2 7834   2.382   4.774   2.068 -0.0936 -0.5374  2.0902
 2610TIP3   OH2 7835   2.275   3.478   0.984 -0.3430  0.1938  0.3978
 2610TIP3    H1 7836   2.263   3.542   1.053 -1.6850  1.0588 -0.5755
 2610TIP3    H2 7837   2.334   3.413   1.021  0.0653  1.3411  1.8489
 2611TIP3   OH2 7838   5.331   4.931   0.629 -0.2860 -0.4017 -0.4438
 2611TIP3    H1 7839   5.338   4.855   0.571 -0.4406 -0.9539  0.2467
 2611TIP3    H2 7840   5.404   4.987   0.603  1.6389 -2.0950  0.9056
 2612TIP3   OH2 7841   3.038   2.709   0.610 -0.4644 -0.1544  0.5898
 2612TIP3    H1 7842   3.068   2.693   0.520 -0.4930 -0.5465  0.6449
 2612TIP3    H2 7843   3.102   2.664   0.664 -1.1999 -1.1151  0.7037
 2613TIP3   OH2 7844   0.471   2.709   3.808 -0.3890 -0.4408  0.5531
 2613TIP3    H1 7845   0.424   2.788   3.781 -1.6425 -0.8947  1.3136
 2613TIP3    H2 7846   0.402   2.645   3.826  0.2690 -0.3189  4.4283
 2614TIP3   OH2 7847   3.406   2.231   4.248  0.4993  0.2649 -0.7136
 2614TIP3    H1 7848   3.479   2.207   4.191 -0.1253 -1.1042 -0.9931
 2614TIP3    H2 7849   3.373   2.147   4.281 -0.9203  0.8408 -0.5809
 2615TIP3   OH2 7850   3.849   5.893   0.181  0.2623  0.3908  0.5237
 2615TIP3    H1 7851   3.870   5.927   0.268 -2.8326  1.9861  0.7893
 2615TIP3    H2 7852   3.765   5.934   0.159  0.8034 -0.1344 -3.1405
 2616TIP3   OH2 7853   4.030   4.515   3.128 -0.4070  0.0912  0.2818
 2616TIP3    H1 7854   4.106   4.553   3.084 -1.0679  0.0926 -0.9195
 2616TIP3    H2 7855   4.065   4.481   3.211  0.4275  2.2131  0.8755
 2617TIP3   OH2 7856   0.793   2.899   2.401  0.0916 -0.1446  0.2964
 2617TIP3    H1 7857   0.771   2.920   2.492 -1.1132 -1.0960  0.2599
 2617TIP3    H2 7858   0.822   2.808   2.404  0.2395 -0.1160 -0.2404
 2618TIP3   OH2 7859   2.728   0.897   3.966  0.1487 -0.5775 -0.4251
 2618TIP3    H1 7860   2.656   0.913   4.028 -0.3183  1.2480 -1.3611
 2618TIP3    H2 7861   2.725   0.803   3.949 -1.0657 -0.7706  0.6997
 2619TIP3   OH2 7862   1.068   4.743   3.857  0.0659  0.6223  0.4482
 2619TIP3    H1 7863   1.053   4.673   3.793 -0.5204  0.7267  0.4656
 2619TIP3    H2 7864   1.156   4.727   3.890  0.3455  0.5165 -0.3256
 2620TIP3   OH2 7865   1.357   1.942   3.845 -0.4008  0.2066  0.2142
 2620TIP3    H1 7866   1.282   1.963   3.902  0.3398 -0.8863  1.6412
 2620TIP3    H2 7867   1.418   1.896   3.902  0.5099 -0.6739 -1.4221
 2621TIP3   OH2 7868   0.600   0.323   1.954  0.4505 -0.4933  0.1134
 2621TIP3    H1 7869   0.510   0.333   1.983  0.5614 -0.2569  0.3830
 2621TIP3    H2 7870   0.595   0.266   1.877 -0.1776  1.3234 -1.2602
 2622TIP3   OH2 7871   4.597   4.691   0.903 -0.5784  0.2685 -0.7214
 2622TIP3    H1 7872   4.648   4.763   0.866  0.4854  0.5563  1.1700
 2622TIP3    H2 7873   4.582   4.717   0.994  0.5269 -2.2257  0.2614
 2623TIP3   OH2 7874   5.118   0.566   0.827  0.4435  0.5158 -0.0612
 2623TIP3    H1 7875   5.077   0.507   0.891  0.7703 -0.2414 -0.5323
 2623TIP3    H2 7876   5.125   0.650   0.872  1.4021 -0.2043  1.1956
 2624TIP3   OH2 7877   4.208   2.102   2.232 -0.1380  0.1999 -0.0759
 2624TIP3    H1 7878   4.162   2.143   2.306 -1.3741 -1.2038 -0.0133
 2624TIP3    H2 7879   4.263   2.035   2.273  0.9365  0.9375 -0.2723
 2625TIP3   OH2 7880   4.781   2.778   3.584  0.0247 -0.1443  0.5858
 2625TIP3    H1 7881   4.844   2.786   3.655  0.2961 -3.4366  0.8344
 2625TIP3    H2 7882   4.822   2.717   3.522  0.0493  2.9558 -2.7918
 2626TIP3   OH2 7883   0.453   4.698   0.958 -0.1073  0.1693  0.6907
 2626TIP3    H1 7884   0.415   4.613   0.981  0.7133 -0.7017 -1.0068
 2626TIP3    H2 7885   0.381   4.748   0.921 -0.4718  0.0270  1.1943
 2627TIP3   OH2 7886   3.247   0.653   0.229  0.6388 -0.5172  0.5862
 2627TIP3    H1 7887   3.153   0.656   0.214  0.8221  2.3691 -0.7740
 2627TIP3    H2 7888   3.259   0.689   0.317  0.5188  0.5632  0.1717
 2628TIP3   OH2 7889   5.125   0.526   3.519  0.3934 -0.3121  0.2008
 2628TIP3    H1 7890   5.044   0.566   3.550  1.1619  0.2431  1.6092
 2628TIP3    H2 7891   5.153   0.470   3.591  0.3990 -1.8418 -0.9407
 2629TIP3   OH2 7892   5.381   0.580   1.450  0.5295 -0.2359  0.2269
 2629TIP3    H1 7893   5.344   0.638   1.516  0.0872 -0.1825 -0.0663
 2629TIP3    H2 7894   5.438   0.521   1.500  0.0080 -0.3569  0.6903
 2630TIP3   OH2 7895   4.694   5.564   0.139 -0.1960 -0.2513  0.5871
 2630TIP3    H1 7896   4.769   5.624   0.136  0.4481 -1.0853 -1.2237
 2630TIP3    H2 7897   4.618   5.620   0.124  0.3754  0.1778 -0.8697
 2631TIP3   OH2 7898   1.529   4.102   1.739  0.0838  0.7407  0.2621
 2631TIP3    H1 7899   1.524   4.079   1.832 -0.9318 -0.2549 -0.0158
 2631TIP3    H2 7900   1.618   4.075   1.714  0.0194  0.0583  0.7148
 2632TIP3   OH2 7901   6.150   2.646   4.603 -0.0355 -0.5220  0.3685
 2632TIP3    H1 7902   6.055   2.634   4.604 -0.2801  0.6622 -2.3220
 2632TIP3    H2 7903   6.185   2.557   4.613 -1.5296 -1.5404 -2.5692
 2633TIP3   OH2 7904   4.998   1.154   4.920  0.2227  0.0308  0.3970
 2633TIP3    H1 7905   4.932   1.211   4.958 -0.3386  1.3456 -2.2913
 2633TIP3    H2 7906   4.948   1.086   4.874  0.3805  2.4588 -3.8457
 2634TIP3   OH2 7907   5.239   3.594   0.799  0.5124 -0.1576 -0.7024
 2634TIP3    H1 7908   5.147   3.619   0.812  0.9166  0.5866  1.1627
 2634TIP3    H2 7909   5.286   3.678   0.797  1.5588 -0.4902  2.5904
 2635TIP3   OH2 7910   5.959   0.041   4.469 -0.5942  0.0437 -0.3495
 2635TIP3    H1 7911   5.894   0.099   4.509  0.7737  0.9427  0.6731
 2635TIP3    H2 7912   5.988  -0.016   4.540 -1.1884 -1.2420 -1.1091
 2636TIP3   OH2 7913   1.530   1.548   2.477 -0.3194  0.3505  0.3784
 2636TIP3    H1 7914   1.456   1.596   2.441  1.6666  3.6260  0.3037
 2636TIP3    H2 7915   1.540   1.582   2.566  1.0387 -0.0891  0.4167
 2637TIP3   OH2 7916   1.353   4.908   1.682  0.3885  0.2644 -0.1632
 2637TIP3    H1 7917   1.388   4.991   1.648 -0.5590  1.0701  0.7460
 2637TIP3    H2 7918   1.337   4.925   1.774  0.8456 -1.1798  0.2053
 2638TIP3   OH2 7919   2.837   3.913   2.526 -0.4993  0.0963 -0.1991
 2638TIP3    H1 7920   2.804   3.832   2.566 -0.0658  0.6556  1.3797
 2638TIP3    H2 7921   2.799   3.914   2.438 -0.8562 -1.6022 -0.0938
 2639TIP3   OH2 7922   2.538   3.866   2.476  0.4589 -0.0321 -0.2057
 2639TIP3    H1 7923   2.526   3.956   2.448 -2.5026 -0.4817 -0.6864
 2639TIP3    H2 7924   2.488   3.814   2.414 -0.5392 -1.7126  1.8646
 2640TIP3   OH2 7925   0.260   5.173   1.967  0.1248  0.2885 -0.9155
 2640TIP3    H1 7926   0.188   5.178   2.031  0.6611 -2.3404  0.0247
 2640TIP3    H2 7927   0.218   5.148   1.885 -0.1580 -0.5921 -0.5220
 2641TIP3   OH2 7928   4.900   1.093   0.375  0.5975 -0.5338  0.0680
 2641TIP3    H1 7929   4.920   1.182   0.403  3.2370 -0.5433 -1.5049
 2641TIP3    H2 7930   4.943   1.037   0.440  0.0085 -0.6791  0.3445
 2642TIP3   OH2 7931   0.663   3.656   1.390  0.5463  0.5320  0.1198
 2642TIP3    H1 7932   0.741   3.618   1.349  2.6471  1.2006  3.1561
 2642TIP3    H2 7933   0.691   3.744   1.417 -1.1669  0.6971  1.5531
 2643TIP3   OH2 7934   4.826   2.177   2.499 -0.3164 -0.3291 -1.4087
 2643TIP3    H1 7935   4.912   2.217   2.514 -0.7612  0.7100 -1.5368
 2643TIP3    H2 7936   4.845   2.084   2.489  0.8360 -0.0830 -1.7195
 2644TIP3   OH2 7937   4.757   0.013   2.111 -0.4926 -0.7829  0.1745
 2644TIP3    H1 7938   4.668   0.046   2.111  0.6117  2.5172  0.2767
 2644TIP3    H2 7939   4.782   0.012   2.204 -0.2864 -1.3484  0.1182
 2645TIP3   OH2 7940   6.147   4.601   2.384  0.0353 -0.3129 -0.7042
 2645TIP3    H1 7941   6.221   4.556   2.343 -0.3593 -0.2221 -1.5471
 2645TIP3    H2 7942   6.079   4.600   2.317  0.0841  1.7175 -0.8290
 2646TIP3   OH2 7943   0.251   5.334   0.315 -0.4539 -0.6202  0.1806
 2646TIP3    H1 7944   0.261   5.377   0.230  0.7171 -2.1366 -0.4946
 2646TIP3    H2 7945   0.159   5.347   0.337 -0.2648  1.8496 -0.1517
 2647TIP3   OH2 7946   5.621   1.086   3.250  0.2842  0.0584 -0.3050
 2647TIP3    H1 7947   5.560   1.040   3.307  0.4634 -0.7130 -0.7311
 2647TIP3    H2 7948   5.703   1.090   3.300  0.1115  0.4095 -0.0469
 2648TIP3   OH2 7949   2.413   3.005   1.823  0.0782  0.4306 -0.2172
 2648TIP3    H1 7950   2.377   3.029   1.737 -2.2530  2.4552  1.1998
 2648TIP3    H2 7951   2.381   2.916   1.838  0.2532  0.1657 -1.2723
 2649TIP3   OH2 7952   1.923   2.943   4.363 -0.6316  0.2115 -0.1126
 2649TIP3    H1 7953   1.975   2.906   4.291  0.2239 -1.0698  1.1208
 2649TIP3    H2 7954   1.913   3.035   4.340  0.2850 -0.0034 -1.4931
 2650TIP3   OH2 7955   3.187   4.182   3.301 -0.0644  0.2745  0.1520
 2650TIP3    H1 7956   3.098   4.160   3.272  0.4107  0.7981 -1.8312
 2650TIP3    H2 7957   3.213   4.254   3.244  1.9812 -0.4886  0.0635
 2651TIP3   OH2 7958   2.186   4.640   1.159 -0.3439  0.0004 -0.1243
 2651TIP3    H1 7959   2.186   4.560   1.106  1.3741 -0.6472  0.7637
 2651TIP3    H2 7960   2.150   4.614   1.243  0.8236 -0.0281  0.3829
 2652TIP3   OH2 7961   5.311   3.877   0.764 -0.0899 -0.1402 -0.0431
 2652TIP3    H1 7962   5.269   3.940   0.823 -2.1182 -1.4884  0.0429
 2652TIP3    H2 7963   5.279   3.900   0.677  0.9737  0.3369 -0.3194
 2653TIP3   OH2 7964   1.980   3.204   0.557  0.2205  0.0134  0.1607
 2653TIP3    H1 7965   2.060   3.152   0.563  0.7421  0.6318 -1.2222
 2653TIP3    H2 7966   1.993   3.260   0.481  0.0117  2.7362  1.9871
 2654TIP3   OH2 7967   0.726   1.899   4.269  0.7282  0.4326  0.4208
 2654TIP3    H1 7968   0.773   1.981   4.260  1.0294  0.3554  1.1717
 2654TIP3    H2 7969   0.731   1.879   4.363 -0.6727  0.3475  0.5007
 2655TIP3   OH2 7970   1.681   4.619   4.370  0.1582  0.0113  0.0692
 2655TIP3    H1 7971   1.744   4.561   4.327  0.3411 -0.9772  1.5911
 2655TIP3    H2 7972   1.736   4.681   4.418 -0.0486  0.2923 -0.0541
 2656TIP3   OH2 7973   5.413   2.876   0.987  0.1535  0.6524 -0.1918
 2656TIP3    H1 7974   5.503   2.873   1.021  0.1429 -0.0043 -0.2074
 2656TIP3    H2 7975   5.373   2.796   1.019 -1.2720  2.1639  2.0879
 2657TIP3   OH2 7976   2.902   0.551   5.071  0.8997 -0.3934  0.0624
 2657TIP3    H1 7977   2.832   0.486   5.068  1.1230 -0.6339  0.0948
 2657TIP3    H2 7978   2.917   0.573   4.979 -2.4368  3.1296  0.0834
 2658TIP3   OH2 7979   0.036   1.064   2.505 -0.1639 -0.0756  0.0545
 2658TIP3    H1 7980  -0.001   1.010   2.576 -2.1669  2.2947  0.9753
 2658TIP3    H2 7981   0.107   1.112   2.547 -0.6555  0.5417  0.1910
 2659TIP3   OH2 7982   5.310   3.737   3.289  0.0665 -0.1115  0.0309
 2659TIP3    H1 7983   5.344   3.650   3.268 -0.1627 -0.1285 -0.2844
 2659TIP3    H2 7984   5.288   3.774   3.204  1.4206  0.7841  0.0363
 2660TIP3   OH2 7985   4.488   2.262   4.083 -0.0013 -0.2238 -0.3028
 2660TIP3    H1 7986   4.534   2.257   3.999  0.7573 -0.6622  0.1206
 2660TIP3    H2 7987   4.544   2.319   4.137 -0.9867  0.8668 -0.3907
 2661TIP3   OH2 7988   5.662   5.769   4.846 -0.1939 -0.0661  0.0636
 2661TIP3    H1 7989   5.734   5.739   4.790  0.6125  1.8496 -0.0303
 2661TIP3    H2 7990   5.584   5.758   4.793  0.1557 -1.1422 -0.2608
 2662TIP3   OH2 7991   0.455   3.772   3.992  0.8313  0.0152 -0.0514
 2662TIP3    H1 7992   0.403   3.781   4.073  0.9990  0.8712 -0.0286
 2662TIP3    H2 7993   0.498   3.687   4.001 -2.6975 -2.1353 -1.3243
 2663TIP3   OH2 7994   4.473   3.282   2.242 -0.1817  0.2375 -0.1241
 2663TIP3    H1 7995   4.458   3.366   2.199 -0.1022 -0.9534 -2.6643
 2663TIP3    H2 7996   4.386   3.249   2.262 -0.3616 -0.1949 -1.5206
 2664TIP3   OH2 7997   3.722   5.945   2.124 -0.0181  0.3591 -0.2481
 2664TIP3    H1 7998   3.643   5.978   2.080  0.4148  1.9518  0.1185
 2664TIP3    H2 7999   3.697   5.939   2.216 -0.5800 -1.9393 -0.4715
 2665TIP3   OH2 8000   1.894   4.243   2.857  0.1344  0.2316  0.1108
 2665TIP3    H1 8001   1.858   4.332   2.865 -0.8768 -0.1631  0.0361
 2665TIP3    H2 8002   1.910   4.216   2.947  0.3237  0.4350  0.1401
 2666TIP3   OH2 8003   4.013   0.374   2.838  0.1688 -0.4433 -0.7322
 2666TIP3    H1 8004   4.019   0.452   2.783 -1.8894 -0.7035 -1.4265
 2666TIP3    H2 8005   3.990   0.304   2.778  0.3520 -1.2559  0.1176
 2667TIP3   OH2 8006   2.608   4.791   5.033 -0.4578  0.8836  0.2629
 2667TIP3    H1 8007   2.675   4.857   5.015 -0.5258  1.3055  1.4523
 2667TIP3    H2 8008   2.525   4.838   5.023 -0.7499 -0.0225 -2.8609
 2668TIP3   OH2 8009   4.690   1.135   2.775  0.3691  0.2632 -0.0993
 2668TIP3    H1 8010   4.657   1.154   2.863 -0.3880 -1.8739  0.1592
 2668TIP3    H2 8011   4.768   1.189   2.766 -1.2453  2.8839  0.6380
 2669TIP3   OH2 8012   2.575   0.670   1.128 -0.5156 -0.1242  0.0457
 2669TIP3    H1 8013   2.656   0.620   1.115  0.5263  1.3709  0.5536
 2669TIP3    H2 8014   2.521   0.614   1.183  0.2833 -1.0263 -0.0532
 2670TIP3   OH2 8015   3.218   4.284   4.200 -0.3497  0.3884 -0.5914
 2670TIP3    H1 8016   3.169   4.255   4.123 -2.6557  0.7567  0.6587
 2670TIP3    H2 8017   3.172   4.244   4.274  1.8846 -0.0675  0.6345
 2671TIP3   OH2 8018   0.405   1.463   1.566 -1.0469  0.1163  0.0118
 2671TIP3    H1 8019   0.415   1.545   1.517  1.4911  0.8001  1.5360
 2671TIP3    H2 8020   0.425   1.394   1.502  2.7568  1.0167  0.0239
 2672TIP3   OH2 8021   4.552   1.828   3.439 -0.7388  0.4008 -0.0848
 2672TIP3    H1 8022   4.497   1.841   3.361 -1.9803 -0.5436  0.5958
 2672TIP3    H2 8023   4.491   1.798   3.506 -0.1044  3.1704  1.8963
 2673TIP3   OH2 8024   3.338   4.373   1.426  0.3039  0.1987  0.3014
 2673TIP3    H1 8025   3.272   4.339   1.365  0.5349  0.4989 -0.1160
 2673TIP3    H2 8026   3.359   4.298   1.481  0.7942 -0.3427 -0.6000
 2674TIP3   OH2 8027   6.001   2.410   4.504  0.1263  0.1663 -0.0660
 2674TIP3    H1 8028   6.089   2.378   4.485  0.5002 -0.4604  2.3451
 2674TIP3    H2 8029   5.980   2.372   4.590 -2.0151  1.2745 -0.0361
 2675TIP3   OH2 8030   5.562   4.888   0.112  0.7558  0.2788  0.0061
 2675TIP3    H1 8031   5.534   4.977   0.089 -0.4517 -0.3472 -1.0893
 2675TIP3    H2 8032   5.567   4.842   0.029  0.4416 -0.9368  0.6348
 2676TIP3   OH2 8033   0.162   3.306   3.512  0.0537 -0.5371 -0.9314
 2676TIP3    H1 8034   0.126   3.278   3.427 -0.5085 -0.5576 -0.6884
 2676TIP3    H2 8035   0.091   3.355   3.553  0.5306 -0.0163 -0.7199
 2677TIP3   OH2 8036   3.464   1.900   1.754 -0.0405 -0.0076  0.8653
 2677TIP3    H1 8037   3.401   1.882   1.684 -0.2045  0.0804  0.9935
 2677TIP3    H2 8038   3.413   1.936   1.825 -0.1197 -1.5477  1.6340
 2678TIP3   OH2 8039   2.577   1.327   0.340 -0.6892  0.1540  0.2034
 2678TIP3    H1 8040   2.607   1.401   0.288  1.7317 -0.4956  0.5474
 2678TIP3    H2 8041   2.570   1.255   0.277 -0.5306  0.0526  0.3020
 2679TIP3   OH2 8042   4.095   5.246   3.463 -0.3044 -0.4079  0.0436
 2679TIP3    H1 8043   4.121   5.329   3.504  2.6039 -0.9432 -0.4645
 2679TIP3    H2 8044   4.035   5.271   3.394  1.3588  1.4746 -0.8176
 2680TIP3   OH2 8045   2.972   5.969   5.076  0.4929  0.2002  0.7927
 2680TIP3    H1 8046   2.888   5.924   5.069 -0.6157  2.1258  0.9345
 2680TIP3    H2 8047   3.037   5.900   5.068 -1.0609 -1.1630 -1.0385
 2681TIP3   OH2 8048   4.417   2.725   0.592  0.1197 -0.1399 -0.3294
 2681TIP3    H1 8049   4.437   2.740   0.500 -0.9148  0.1151 -0.5304
 2681TIP3    H2 8050   4.356   2.651   0.591 -1.2626  0.9590 -0.0121
 2682TIP3   OH2 8051   3.247   3.825   3.081 -0.4086  0.0002 -0.1760
 2682TIP3    H1 8052   3.337   3.795   3.067 -0.6045 -0.1590 -1.1961
 2682TIP3    H2 8053   3.250   3.919   3.063 -0.4615 -0.0230 -0.3097
 2683TIP3   OH2 8054   0.110   3.345   3.914  0.1035 -0.2521  0.2358
 2683TIP3    H1 8055   0.022   3.340   3.952  0.0900 -0.2244  0.2077
 2683TIP3    H2 8056   0.133   3.437   3.918  0.2552 -0.3014  0.5252
 2684TIP3   OH2 8057   0.091   0.117   2.011  0.0478 -0.1136  0.4925
 2684TIP3    H1 8058   0.043   0.060   1.951  0.6077 -0.0874  0.0079
 2684TIP3    H2 8059   0.036   0.196   2.018 -0.8971 -0.8265  1.4333
 2685TIP3   OH2 8060   3.257   3.103   3.121  0.3582 -0.3385 -0.0641
 2685TIP3    H1 8061   3.269   3.118   3.214 -0.6514 -0.8414  0.1575
 2685TIP3    H2 8062   3.269   3.009   3.110  1.1364 -0.1929 -0.5571
 2686TIP3   OH2 8063   3.369   3.864   4.619  0.1396  0.7696  0.5670
 2686TIP3    H1 8064   3.333   3.824   4.540 -0.2022  0.2553  0.9753
 2686TIP3    H2 8065   3.293   3.903   4.663  0.0746 -0.2340  1.3828
 2687TIP3   OH2 8066   4.148   3.671   1.738 -0.1070 -0.0537  0.0344
 2687TIP3    H1 8067   4.181   3.747   1.787 -2.2290  1.2889 -0.4809
 2687TIP3    H2 8068   4.053   3.676   1.749 -0.4185 -1.4886 -1.7042
 2688TIP3   OH2 8069   2.792   3.257   5.010 -0.1421 -0.0205 -0.0358
 2688TIP3    H1 8070   2.705   3.224   5.033  0.3584 -0.9820  0.5673
 2688TIP3    H2 8071   2.790   3.348   5.037 -1.0110  0.0142 -0.1672
 2689TIP3   OH2 8072   0.582   3.336   4.033  0.1094 -0.0661 -0.3094
 2689TIP3    H1 8073   0.492   3.315   4.058  0.0150  0.6538 -0.0284
 2689TIP3    H2 8074   0.611   3.259   3.984 -0.3927 -0.6286  0.2575
 2690TIP3   OH2 8075   0.173   5.077   1.370 -0.0903  0.5243  0.3916
 2690TIP3    H1 8076   0.255   5.040   1.338 -0.6483 -1.7011  1.3020
 2690TIP3    H2 8077   0.110   5.006   1.361 -1.8069  1.9942  0.2465
 2691TIP3   OH2 8078   1.750   5.091   3.233 -0.1806  0.2818  0.4313
 2691TIP3    H1 8079   1.750   5.055   3.322 -1.2257  1.7385  1.0496
 2691TIP3    H2 8080   1.663   5.130   3.223 -0.3177 -0.4481 -1.4936
 2692TIP3   OH2 8081   5.071   4.496   3.996 -0.4363 -0.0969  1.2768
 2692TIP3    H1 8082   5.083   4.464   4.086 -0.3183 -0.8166  1.0114
 2692TIP3    H2 8083   5.120   4.434   3.942 -2.4067 -1.0428  0.4880
 2693TIP3   OH2 8084   1.049   4.433   3.871  0.0112 -0.7333 -0.1623
 2693TIP3    H1 8085   1.014   4.345   3.858  0.8846 -0.9297 -1.4332
 2693TIP3    H2 8086   1.091   4.430   3.957 -0.8292 -1.2509  0.2364
 2694TIP3   OH2 8087   4.257   1.895   3.361  0.0254 -0.2648 -0.4756
 2694TIP3    H1 8088   4.221   1.836   3.428  1.5175 -1.9826 -1.0969
 2694TIP3    H2 8089   4.267   1.839   3.284  3.5760  0.1488 -0.4589
 2695TIP3   OH2 8090  -0.008   4.802   2.038 -0.3435 -0.1261 -0.0274
 2695TIP3    H1 8091   0.059   4.849   2.088  0.6686  0.2133 -1.6256
 2695TIP3    H2 8092   0.034   4.721   2.010 -0.7330 -0.1258 -0.6507
 2696TIP3   OH2 8093   6.000   1.768   2.313 -0.0161  0.0323 -0.2648
 2696TIP3    H1 8094   5.957   1.762   2.228 -0.5379  1.2265 -0.1106
 2696TIP3    H2 8095   6.040   1.855   2.313  1.3122 -0.5524  0.1131
 2697TIP3   OH2 8096   5.717   1.519   3.198 -0.0559 -0.5756 -0.2423
 2697TIP3    H1 8097   5.713   1.603   3.243 -1.8630 -0.0108 -1.3780
 2697TIP3    H2 8098   5.734   1.455   3.268  1.3665  0.6998  0.6271
 2698TIP3   OH2 8099   3.942   3.626   2.429 -0.3596  0.4537 -0.2763
 2698TIP3    H1 8100   4.032   3.612   2.400  0.3280  0.6958  1.6142
 2698TIP3    H2 8101   3.908   3.538   2.448 -0.4944  0.3738 -0.8640
 2699TIP3   OH2 8102   4.572   5.500   4.308  0.0942  0.1610 -0.3860
 2699TIP3    H1 8103   4.501   5.441   4.284 -0.0732  1.0147 -2.1664
 2699TIP3    H2 8104   4.531   5.586   4.315  0.7171  0.4393 -0.0433
 2700TIP3   OH2 8105   3.856   1.758   5.108  0.2218  0.1448 -0.1263
 2700TIP3    H1 8106   3.857   1.662   5.103 -0.9623  0.1949 -2.2665
 2700TIP3    H2 8107   3.773   1.784   5.070  0.4367  2.0570  0.5795
 2701TIP3   OH2 8108   1.288   5.501   3.765 -0.0055 -0.1546 -0.0507
 2701TIP3    H1 8109   1.347   5.481   3.693 -1.1334 -0.6915 -0.8398
 2701TIP3    H2 8110   1.252   5.587   3.743 -0.1828 -0.2190 -0.0076
 2702TIP3   OH2 8111   5.160   2.112   3.295 -0.5320  0.4716  0.2415
 2702TIP3    H1 8112   5.098   2.128   3.225 -1.4144  0.6214  1.0443
 2702TIP3    H2 8113   5.114   2.137   3.375 -0.9990 -3.2603  1.3303
 2703TIP3   OH2 8114   3.305   0.299   1.276  0.4062  0.4250  0.5778
 2703TIP3    H1 8115   3.395   0.276   1.254  0.7079  0.3505  1.8159
 2703TIP3    H2 8116   3.257   0.216   1.270  0.5500  0.3415  0.5824
 2704TIP3   OH2 8117   3.684   1.475   3.211 -0.3502 -0.1760  0.3670
 2704TIP3    H1 8118   3.779   1.467   3.204 -0.3107  0.5251 -0.0832
 2704TIP3    H2 8119   3.656   1.398   3.261  0.2569 -1.3270 -1.0073
 2705TIP3   OH2 8120   5.821   0.438   3.427  0.6063 -0.1069 -0.0646
 2705TIP3    H1 8121   5.763   0.414   3.355  1.1819 -1.1002 -0.2222
 2705TIP3    H2 8122   5.782   0.398   3.504  0.6664 -0.1242 -0.0428
 2706TIP3   OH2 8123   5.085   5.175   3.889  0.0726 -0.0946  0.3362
 2706TIP3    H1 8124   5.021   5.125   3.939  0.0720 -1.7481 -1.1876
 2706TIP3    H2 8125   5.093   5.258   3.935 -1.4869 -0.7122  1.8174
 2707TIP3   OH2 8126   3.062   3.703   2.871 -0.0087 -0.1961 -0.0317
 2707TIP3    H1 8127   3.109   3.621   2.888  0.3843 -0.1166 -0.7031
 2707TIP3    H2 8128   3.083   3.758   2.947  0.9141 -0.1997 -0.2667
 2708TIP3   OH2 8129   3.599   1.054   1.470  0.5357  0.0955  0.6184
 2708TIP3    H1 8130   3.638   1.011   1.394 -1.3666 -0.1462 -0.2629
 2708TIP3    H2 8131   3.638   1.009   1.546  1.8512 -0.1912 -0.1956
 2709TIP3   OH2 8132   3.735   0.286   0.116 -0.5565  0.5482  0.8525
 2709TIP3    H1 8133   3.689   0.252   0.193  0.3131 -0.2536  1.0357
 2709TIP3    H2 8134   3.713   0.224   0.046 -0.0609  0.3590  0.8570
 2710TIP3   OH2 8135   4.634   0.929   0.824  0.1247  0.1642  0.0169
 2710TIP3    H1 8136   4.545   0.963   0.824 -0.6407 -1.7300 -0.7541
 2710TIP3    H2 8137   4.667   0.948   0.736  0.7825  1.4591  0.4995
 2711TIP3   OH2 8138   0.249   3.465   1.035  0.0075 -0.3143 -0.3777
 2711TIP3    H1 8139   0.293   3.443   0.953 -2.4393 -0.3785 -1.7574
 2711TIP3    H2 8140   0.212   3.552   1.020 -0.6098 -0.3907  0.5864
 2712TIP3   OH2 8141   1.293   1.452   2.710 -0.3918  0.2021 -0.6097
 2712TIP3    H1 8142   1.360   1.390   2.682 -0.3187 -0.2402  0.4857
 2712TIP3    H2 8143   1.240   1.467   2.632  0.6837  0.1837 -1.3596
 2713TIP3   OH2 8144   1.161   0.301   2.522 -0.5567 -0.4886  0.3488
 2713TIP3    H1 8145   1.087   0.299   2.460  0.2749 -0.2189 -0.6833
 2713TIP3    H2 8146   1.169   0.210   2.551 -1.5665 -0.4421  0.8239
 2714TIP3   OH2 8147   3.750   1.819   3.151 -0.2728 -0.2805  0.1832
 2714TIP3    H1 8148   3.688   1.811   3.224  1.0451  1.1346  1.5064
 2714TIP3    H2 8149   3.788   1.731   3.143  0.8618 -0.0756  2.4476
 2715TIP3   OH2 8150   0.209   1.180   0.719  0.2548  0.3616  0.6888
 2715TIP3    H1 8151   0.245   1.253   0.669 -1.0769  0.9155  0.5108
 2715TIP3    H2 8152   0.171   1.220   0.797 -1.4058  0.0152  0.0961
 2716TIP3   OH2 8153   3.705   4.526   3.550  0.2794  0.1779  0.7303
 2716TIP3    H1 8154   3.799   4.513   3.536  0.6840  1.5983  1.8501
 2716TIP3    H2 8155   3.674   4.441   3.582  0.4913 -1.2721 -2.5319
 2717TIP3   OH2 8156   0.476   4.061   4.269  0.4811  0.2817  0.0678
 2717TIP3    H1 8157   0.553   4.097   4.312  0.4236  0.3537  0.1117
 2717TIP3    H2 8158   0.494   3.968   4.260 -0.2973 -0.0853  1.9694
 2718TIP3   OH2 8159   4.592   1.712   1.160  0.6288 -0.2839  0.0765
 2718TIP3    H1 8160   4.648   1.774   1.207  0.7374  0.2291 -0.7069
 2718TIP3    H2 8161   4.558   1.762   1.085 -1.1921 -0.4700  0.7359
 2719TIP3   OH2 8162   2.011   3.284   1.606  0.4937 -0.0748  0.3084
 2719TIP3    H1 8163   1.916   3.281   1.599  0.5606 -0.8719 -0.3286
 2719TIP3    H2 8164   2.028   3.324   1.692 -0.4207 -1.7680  1.3317
 2720TIP3   OH2 8165   4.045   3.244   4.172 -0.7012 -0.0383 -0.6543
 2720TIP3    H1 8166   4.100   3.319   4.146  2.5976 -2.5605 -1.6860
 2720TIP3    H2 8167   4.022   3.202   4.089 -1.8472 -0.6466 -0.0523
 2721TIP3   OH2 8168   4.709   1.815   1.898  0.2709  0.0334 -0.2708
 2721TIP3    H1 8169   4.785   1.792   1.845  0.1906 -1.5243  0.2385
 2721TIP3    H2 8170   4.636   1.769   1.858 -0.3799  1.2954 -0.5891
 2722TIP3   OH2 8171   3.204   5.355   0.656  0.1285 -0.7287  0.6859
 2722TIP3    H1 8172   3.292   5.392   0.661 -0.8781  1.7159  2.3113
 2722TIP3    H2 8173   3.170   5.385   0.571 -0.1388  0.9417  1.3448
 2723TIP3   OH2 8174   0.442   0.619   3.679  0.2620 -0.0157  0.1198
 2723TIP3    H1 8175   0.518   0.576   3.717 -0.8501 -3.5578 -1.2498
 2723TIP3    H2 8176   0.383   0.633   3.753  1.4504  1.1043  0.9018
 2724TIP3   OH2 8177   4.314   5.172   1.744 -0.2198 -0.5638 -0.7158
 2724TIP3    H1 8178   4.280   5.154   1.832  2.6610  2.2562  1.1931
 2724TIP3    H2 8179   4.373   5.098   1.726  0.9979 -0.0251  0.8524
 2725TIP3   OH2 8180   0.222   0.553   1.388  0.0636  0.0422  0.5328
 2725TIP3    H1 8181   0.309   0.591   1.379  0.2690  0.1912  2.6600
 2725TIP3    H2 8182   0.235   0.459   1.374  0.4361  0.1407  0.1864
 2726TIP3   OH2 8183   5.184   5.414   0.009 -0.1694  0.1103 -0.3202
 2726TIP3    H1 8184   5.275   5.389   0.024 -0.2752 -1.5568 -2.0309
 2726TIP3    H2 8185   5.188   5.507  -0.016  1.3958 -0.5008 -2.6663
 2727TIP3   OH2 8186   6.228   4.610   0.418  0.0384 -0.1033  0.2250
 2727TIP3    H1 8187   6.160   4.658   0.371  1.8864  2.0574 -0.4531
 2727TIP3    H2 8188   6.216   4.635   0.510 -0.7754 -0.6687  0.2803
 2728TIP3   OH2 8189   0.073   1.101   4.656 -0.3110  0.0878  0.5430
 2728TIP3    H1 8190   0.008   1.066   4.717 -0.1712 -0.5464  0.3352
 2728TIP3    H2 8191   0.140   1.033   4.651 -0.1312  0.3042 -0.0194
 2729TIP3   OH2 8192   4.013   4.691   1.570  0.1811 -0.1493  0.3174
 2729TIP3    H1 8193   3.925   4.716   1.596 -0.2925  0.2576 -1.5199
 2729TIP3    H2 8194   4.025   4.603   1.605 -1.0707 -0.3200  0.3384
 2730TIP3   OH2 8195   4.639   3.905   0.988  0.2124  0.2790  0.8799
 2730TIP3    H1 8196   4.586   3.974   0.948  0.1517 -0.1787  0.1619
 2730TIP3    H2 8197   4.728   3.921   0.957  0.1333 -0.1900  0.3974
 2731TIP3   OH2 8198   5.104   5.271   2.236  0.0942  0.3130 -0.2313
 2731TIP3    H1 8199   5.111   5.301   2.145 -0.8562  1.0254 -0.0858
 2731TIP3    H2 8200   5.056   5.189   2.231 -0.4477  0.6289 -0.3404
 2732TIP3   OH2 8201   6.239   2.577   4.981  0.1901  0.0176 -0.4400
 2732TIP3    H1 8202   6.189   2.639   4.929 -0.5176  0.6372  0.9105
 2732TIP3    H2 8203   6.306   2.630   5.025  0.7729 -0.4840 -0.7078
 2733TIP3   OH2 8204   0.872   3.970   3.186  0.2272 -0.6672 -0.0660
 2733TIP3    H1 8205   0.822   3.889   3.193 -0.3137 -0.3506 -0.2308
 2733TIP3    H2 8206   0.874   3.989   3.092  1.5720 -1.2396 -0.1837
 2734TIP3   OH2 8207   0.784   5.497   4.182 -0.2844 -0.2080  0.3395
 2734TIP3    H1 8208   0.872   5.536   4.184  0.2706 -1.4182  1.4918
 2734TIP3    H2 8209   0.793   5.421   4.124  0.2564 -1.9969  2.5949
 2735TIP3   OH2 8210   3.260   4.542   2.022 -0.3227 -0.0334  0.1821
 2735TIP3    H1 8211   3.192   4.528   1.956  0.6636 -0.1543 -0.8283
 2735TIP3    H2 8212   3.341   4.552   1.972  0.4266  0.0205  1.3679
 2736TIP3   OH2 8213   0.412   4.444   2.846  0.5254  0.0094 -0.3740
 2736TIP3    H1 8214   0.451   4.477   2.928 -0.5206  2.1273 -0.6615
 2736TIP3    H2 8215   0.434   4.511   2.781 -1.3799 -0.0299 -1.0992
 2737TIP3   OH2 8216   3.871   1.725   0.745 -0.2759 -0.0739  0.1231
 2737TIP3    H1 8217   3.964   1.726   0.723 -0.4101  1.2373 -0.4565
 2737TIP3    H2 8218   3.868   1.691   0.835  0.8554  0.7776  0.5125
 2738TIP3   OH2 8219   0.399   3.653   4.597 -0.4821  0.2902 -0.5954
 2738TIP3    H1 8220   0.389   3.743   4.627 -0.1142  0.6074 -1.3925
 2738TIP3    H2 8221   0.328   3.640   4.535 -2.2272 -0.8904  1.5307
 2739TIP3   OH2 8222   4.865   4.576   2.428 -0.0791  0.3130  0.3560
 2739TIP3    H1 8223   4.798   4.509   2.416 -2.6775  2.5950  0.8983
 2739TIP3    H2 8224   4.928   4.537   2.488 -2.0385 -1.2966  1.4900
 2740TIP3   OH2 8225   2.094   2.230   4.738  0.6330 -0.6823  0.1584
 2740TIP3    H1 8226   2.045   2.312   4.731  0.5544 -0.3662  3.2682
 2740TIP3    H2 8227   2.186   2.257   4.729  0.5359 -0.5082 -0.3683
 2741TIP3   OH2 8228   2.871   5.071   3.876 -0.1013 -0.4877  0.0430
 2741TIP3    H1 8229   2.922   5.019   3.938  0.9496 -1.3099 -1.4364
 2741TIP3    H2 8230   2.937   5.121   3.828 -0.9053  0.2926 -0.2721
 2742TIP3   OH2 8231   3.950   1.852   1.349 -0.1963 -0.0711 -0.1062
 2742TIP3    H1 8232   3.981   1.940   1.329 -1.7184  0.5028 -0.1333
 2742TIP3    H2 8233   3.990   1.796   1.283  1.1258  0.5234  0.1733
 2743TIP3   OH2 8234   4.254   3.452   1.842 -0.3163 -0.6458  0.2294
 2743TIP3    H1 8235   4.210   3.453   1.927 -0.5687  2.0222  0.1624
 2743TIP3    H2 8236   4.215   3.525   1.793 -0.2651 -2.1535 -2.2617
 2744TIP3   OH2 8237   4.023   0.330   2.382  0.1187  0.2123 -0.4962
 2744TIP3    H1 8238   4.073   0.410   2.367 -1.9734  1.9699  1.1903
 2744TIP3    H2 8239   4.025   0.285   2.298  3.1933  0.8945 -0.9046
 2745TIP3   OH2 8240   6.141   5.146   4.562  0.2614 -0.2183 -0.1688
 2745TIP3    H1 8241   6.199   5.118   4.491  1.0316  2.0462 -0.5250
 2745TIP3    H2 8242   6.192   5.129   4.642  0.1146 -1.1346 -0.2610
 2746TIP3   OH2 8243   0.097   2.392   0.216  0.3983  0.4744 -0.6623
 2746TIP3    H1 8244   0.083   2.399   0.310  0.3919  1.5920 -0.7360
 2746TIP3    H2 8245   0.048   2.314   0.190  0.6608 -0.0277  0.3051
 2747TIP3   OH2 8246   5.642   2.359   1.635 -0.0035  0.2876 -0.1040
 2747TIP3    H1 8247   5.647   2.357   1.540  1.5411 -0.0155 -0.0416
 2747TIP3    H2 8248   5.685   2.441   1.659 -0.4743  0.4110  0.3369
 2748TIP3   OH2 8249   3.485   5.083   1.126 -0.3160 -0.0485  0.9830
 2748TIP3    H1 8250   3.452   5.172   1.138 -0.5134 -0.3640  3.0304
 2748TIP3    H2 8251   3.480   5.068   1.031 -1.9807  1.4516  0.7959
 2749TIP3   OH2 8252   5.017   0.325   0.092 -0.1652 -0.2788 -0.6421
 2749TIP3    H1 8253   4.965   0.367   0.024 -0.3216  1.0770  0.2606
 2749TIP3    H2 8254   5.053   0.246   0.051 -0.5764  0.2928 -2.1516
 2750TIP3   OH2 8255   2.469   0.498   3.353 -0.2833  0.9297  0.1573
 2750TIP3    H1 8256   2.390   0.450   3.329 -0.6106  2.0815 -1.2060
 2750TIP3    H2 8257   2.510   0.520   3.269  1.5064  0.3621  0.8263
 2751TIP3   OH2 8258   1.599   3.132   5.133  0.1190  0.1226 -0.1467
 2751TIP3    H1 8259   1.507   3.126   5.159  1.0632 -1.1985  3.6410
 2751TIP3    H2 8260   1.619   3.047   5.095 -0.0017  0.0901 -0.1391
 2752TIP3   OH2 8261   6.025   0.482   0.748  0.4717  0.3918  0.3992
 2752TIP3    H1 8262   5.970   0.552   0.785 -0.4304  0.4336 -0.9369
 2752TIP3    H2 8263   5.963   0.413   0.725  0.8824  0.6721 -1.6845
 2753TIP3   OH2 8264   5.918   4.697   1.462  0.2081 -0.4758  0.3915
 2753TIP3    H1 8265   5.939   4.681   1.554  1.3416 -1.9819 -0.1000
 2753TIP3    H2 8266   5.961   4.626   1.414  0.5630  0.8707 -1.4111
 2754TIP3   OH2 8267   3.217   4.968   4.488  0.3131 -0.4980  0.0772
 2754TIP3    H1 8268   3.191   5.035   4.424 -1.4597  0.8472  2.0502
 2754TIP3    H2 8269   3.154   4.897   4.474 -0.5551  0.1116  0.7562
 2755TIP3   OH2 8270   2.696   3.903   1.493  0.3884 -0.3649  0.0797
 2755TIP3    H1 8271   2.745   3.897   1.411 -2.4252 -1.6510 -1.6340
 2755TIP3    H2 8272   2.699   3.814   1.529 -1.9123 -0.8925 -0.8900
 2756TIP3   OH2 8273   2.136   4.053   0.808  0.4872 -0.2728 -0.3664
 2756TIP3    H1 8274   2.218   4.003   0.804 -0.4649 -1.8878 -0.8400
 2756TIP3    H2 8275   2.124   4.086   0.719 -0.2551 -1.6058 -0.7981
 2757TIP3   OH2 8276   3.434   5.286   4.497 -0.3871 -0.2803 -0.3217
 2757TIP3    H1 8277   3.459   5.348   4.565 -1.1833 -0.4545  0.1447
 2757TIP3    H2 8278   3.515   5.238   4.478 -0.0577  0.0546  0.2052
 2758TIP3   OH2 8279   0.257   2.386   1.251 -0.0679  0.1377  0.2937
 2758TIP3    H1 8280   0.215   2.321   1.308  0.2079  0.7143  1.1681
 2758TIP3    H2 8281   0.217   2.469   1.276 -0.9734  0.2412 -1.3476
 2759TIP3   OH2 8282   3.100   2.715   3.947  0.5328 -0.2290 -0.2710
 2759TIP3    H1 8283   3.008   2.691   3.936  0.6017 -0.4943 -0.2619
 2759TIP3    H2 8284   3.106   2.803   3.910  0.1761 -0.0260  0.1288
 2760TIP3   OH2 8285   1.723   1.820   1.633 -0.6628  0.8144 -0.5200
 2760TIP3    H1 8286   1.697   1.865   1.552  0.0529  1.6566 -0.3010
 2760TIP3    H2 8287   1.808   1.782   1.614 -0.6627  0.6906 -0.2792
 2761TIP3   OH2 8288   2.370   2.461   4.231 -0.7147  0.3841  0.2966
 2761TIP3    H1 8289   2.331   2.546   4.210 -1.0135  0.2478  0.2941
 2761TIP3    H2 8290   2.460   2.467   4.199 -0.6637  0.7843  0.5148
 2762TIP3   OH2 8291   1.310   2.288   4.097 -0.0228 -0.0023  0.6350
 2762TIP3    H1 8292   1.227   2.243   4.115  0.2182 -1.0747 -0.8068
 2762TIP3    H2 8293   1.286   2.381   4.091 -0.6908  0.0155  2.6410
 2763TIP3   OH2 8294   3.814   3.300   0.311  0.2872 -0.0299  0.7454
 2763TIP3    H1 8295   3.849   3.322   0.225  1.0301 -0.9123  0.8081
 2763TIP3    H2 8296   3.830   3.206   0.320  0.0887  0.0249  1.7863
 2764TIP3   OH2 8297   5.975   3.302   1.934  0.5521 -0.1944 -0.2707
 2764TIP3    H1 8298   6.012   3.257   1.858 -0.7248 -0.2241 -0.9015
 2764TIP3    H2 8299   5.915   3.366   1.897 -0.2260 -0.3250  0.7134
 2765TIP3   OH2 8300   0.808   1.918   0.572  0.4130  0.8777 -0.3222
 2765TIP3    H1 8301   0.798   2.001   0.618  0.0323  0.3248  0.6162
 2765TIP3    H2 8302   0.719   1.890   0.554  0.5226  0.3946 -0.1214
 2766TIP3   OH2 8303   5.496   5.131   4.883 -0.5885  0.8337 -0.0113
 2766TIP3    H1 8304   5.544   5.213   4.872 -0.2659  0.9271  1.7729
 2766TIP3    H2 8305   5.564   5.063   4.876 -0.6747  0.7823 -0.3709
 2767TIP3   OH2 8306   0.543   1.061   0.382 -0.3815  0.4610  0.1473
 2767TIP3    H1 8307   0.607   1.115   0.337 -0.0678  1.6602  1.9318
 2767TIP3    H2 8308   0.467   1.118   0.393 -0.7492 -0.0639  0.4029
 2768TIP3   OH2 8309   4.828   1.131   1.590 -0.8837 -0.3107 -0.3045
 2768TIP3    H1 8310   4.848   1.218   1.554 -2.1803  0.2183  0.1987
 2768TIP3    H2 8311   4.866   1.132   1.677  0.6868 -0.9362 -0.9486
 2769TIP3   OH2 8312   2.154   3.802   1.461  0.0610  0.0998 -0.0461
 2769TIP3    H1 8313   2.130   3.852   1.539 -1.8854 -0.6298 -0.1174
 2769TIP3    H2 8314   2.195   3.866   1.404 -0.8304  1.2522  0.5435
 2770TIP3   OH2 8315   1.145   4.098   0.395 -0.5924 -0.4047 -0.5964
 2770TIP3    H1 8316   1.155   4.145   0.478 -0.0545  2.9481 -2.3815
 2770TIP3    H2 8317   1.053   4.073   0.393 -0.4134 -1.4954  1.3640
 2771TIP3   OH2 8318   1.493   2.719   2.455 -0.2674 -0.1059 -0.2055
 2771TIP3    H1 8319   1.462   2.719   2.364 -0.6590  0.3708 -0.0735
 2771TIP3    H2 8320   1.495   2.811   2.480  2.9520  0.0917 -0.7741
 2772TIP3   OH2 8321   2.154   4.343   2.899 -0.0170  0.3791  0.1529
 2772TIP3    H1 8322   2.094   4.378   2.964  0.8873  1.1903  0.5876
 2772TIP3    H2 8323   2.162   4.413   2.834  0.2574  0.1861 -0.0234
 2773TIP3   OH2 8324   2.641   4.991   2.509  0.0280 -0.0346  0.1399
 2773TIP3    H1 8325   2.643   4.910   2.561  1.6796 -0.7639 -0.9706
 2773TIP3    H2 8326   2.684   4.967   2.427 -1.6328  1.3525 -1.1844
 2774TIP3   OH2 8327   0.068   0.801   1.418  0.3942  0.0031  0.2467
 2774TIP3    H1 8328   0.050   0.873   1.358 -0.6046 -0.1309  0.3609
 2774TIP3    H2 8329   0.114   0.736   1.366 -0.6823 -0.2183 -0.4486
 2775TIP3   OH2 8330   2.712   4.031   3.240  0.0210 -0.0810 -0.1366
 2775TIP3    H1 8331   2.657   3.991   3.173  0.5610  0.1564 -0.7288
 2775TIP3    H2 8332   2.786   3.971   3.250 -0.4267 -0.4907  0.7849
 2776TIP3   OH2 8333   3.140   5.788   2.453 -0.7418 -0.6108  0.2006
 2776TIP3    H1 8334   3.142   5.718   2.387 -2.4473 -0.8021  0.3086
 2776TIP3    H2 8335   3.232   5.803   2.475 -0.0439 -0.0040 -2.7475
 2777TIP3   OH2 8336   3.067   0.303   1.656 -0.3472 -0.1085 -0.1154
 2777TIP3    H1 8337   3.144   0.360   1.652 -0.7580  0.3877 -1.7571
 2777TIP3    H2 8338   3.065   0.272   1.747  0.3804  1.7830  0.5961
 2778TIP3   OH2 8339   6.067   2.071   4.499 -0.0106  0.0394  0.0895
 2778TIP3    H1 8340   6.130   2.143   4.500  1.8375 -1.4356 -1.5582
 2778TIP3    H2 8341   6.000   2.098   4.437  0.3175  0.5986 -0.0289
 2779TIP3   OH2 8342   3.935   0.627   5.127 -0.2372 -0.1933 -0.1019
 2779TIP3    H1 8343   3.878   0.551   5.135 -1.4346  0.7795  1.1537
 2779TIP3    H2 8344   3.888   0.686   5.067 -1.2821  1.1407  1.8800
 2780TIP3   OH2 8345   2.396   5.107   4.737 -0.4416  0.1059  0.2832
 2780TIP3    H1 8346   2.317   5.082   4.785  0.1743 -1.5037  0.5191
 2780TIP3    H2 8347   2.374   5.092   4.645 -1.1067  1.7249  0.1518
 2781TIP3   OH2 8348   5.171   5.454   4.662  0.2257  0.6722 -0.5521
 2781TIP3    H1 8349   5.161   5.536   4.613 -0.2499 -0.7295 -2.9342
 2781TIP3    H2 8350   5.201   5.390   4.597 -0.2386 -1.2697  1.0371
 2782TIP3   OH2 8351   4.203   3.125   0.375  0.4689  0.1597 -0.0627
 2782TIP3    H1 8352   4.257   3.142   0.451  0.4915  0.7439 -0.2038
 2782TIP3    H2 8353   4.206   3.206   0.324 -0.0930  0.0143 -0.3446
 2783TIP3   OH2 8354   5.220   4.626   2.456 -0.1217  0.0588  0.3349
 2783TIP3    H1 8355   5.247   4.678   2.380 -0.8392  0.8554  0.6046
 2783TIP3    H2 8356   5.222   4.535   2.425 -1.9404  0.4592 -1.1676
 2784TIP3   OH2 8357   3.660   2.032   2.435  0.7432 -0.2352 -0.5133
 2784TIP3    H1 8358   3.666   1.966   2.505  2.3561  0.5052  0.1061
 2784TIP3    H2 8359   3.646   2.115   2.482 -0.2576  0.0107 -1.2217
 2785TIP3   OH2 8360   4.172   1.311   0.174  0.1762  0.2016  0.0433
 2785TIP3    H1 8361   4.235   1.352   0.232  1.2381 -0.8788 -0.3018
 2785TIP3    H2 8362   4.168   1.369   0.097 -0.3855  1.0340  0.6801
 2786TIP3   OH2 8363   2.311   1.610   2.565 -0.7541  0.1259  0.3904
 2786TIP3    H1 8364   2.306   1.688   2.511 -0.3476  0.5997  1.0240
 2786TIP3    H2 8365   2.293   1.538   2.505  0.8932  0.5272 -0.6309
 2787TIP3   OH2 8366   0.956   0.800   0.718 -0.0090 -0.1900  0.0184
 2787TIP3    H1 8367   1.033   0.836   0.763  0.9094  0.6590 -2.1186
 2787TIP3    H2 8368   0.984   0.785   0.628 -1.7428 -1.9656 -0.3150
 2788TIP3   OH2 8369   3.287   3.819   3.994 -0.3222 -0.0360  0.4924
 2788TIP3    H1 8370   3.256   3.823   4.084 -0.4153 -0.8022  0.5013
 2788TIP3    H2 8371   3.233   3.882   3.947 -1.4987 -0.9154  0.6257
 2789TIP3   OH2 8372   1.080   0.465   0.348  0.2931 -0.3676 -0.3983
 2789TIP3    H1 8373   0.994   0.500   0.372 -0.0242 -0.5862 -1.1775
 2789TIP3    H2 8374   1.101   0.509   0.265  0.0366 -1.7498 -1.2257
 2790TIP3   OH2 8375   0.731   4.748   4.458  0.0716  0.7740  0.1042
 2790TIP3    H1 8376   0.711   4.841   4.463  1.3934  1.0165  1.8661
 2790TIP3    H2 8377   0.801   4.742   4.393 -0.0369  1.0099 -0.0339
 2791TIP3   OH2 8378   4.681   1.084   1.967  0.3895  0.0596  0.0607
 2791TIP3    H1 8379   4.697   0.991   1.982  1.3544 -0.0260 -1.2960
 2791TIP3    H2 8380   4.714   1.127   2.046  0.2840 -0.7215  0.5362
 2792TIP3   OH2 8381   6.265   4.007   0.661  0.4177  0.0529  0.2611
 2792TIP3    H1 8382   6.274   4.001   0.566  0.5269  0.8072  0.2196
 2792TIP3    H2 8383   6.170   4.013   0.675  0.4627  1.5144  0.0863
 2793TIP3   OH2 8384   4.064   4.273   1.530 -0.1425  0.1501  0.0296
 2793TIP3    H1 8385   3.970   4.263   1.520  0.0599 -1.9007 -0.2809
 2793TIP3    H2 8386   4.100   4.253   1.444  0.7610 -3.5819  1.0714
 2794TIP3   OH2 8387   4.509   2.605   1.128  0.3140 -0.3274  0.1727
 2794TIP3    H1 8388   4.598   2.599   1.092  0.7950  0.4683  1.1530
 2794TIP3    H2 8389   4.470   2.681   1.085  1.2745  1.3074  1.9968
 2795TIP3   OH2 8390   1.260   4.044   4.611 -0.3405 -0.3881 -0.1110
 2795TIP3    H1 8391   1.233   4.136   4.612  0.4717 -0.0102  3.6801
 2795TIP3    H2 8392   1.347   4.045   4.573 -1.3044 -0.0566 -2.4736
 2796TIP3   OH2 8393   0.197   2.406   2.267 -0.7847  0.1252 -0.1835
 2796TIP3    H1 8394   0.169   2.391   2.177  0.8187 -0.0467 -0.6961
 2796TIP3    H2 8395   0.293   2.403   2.263 -0.6828 -1.9641  1.8756
 2797TIP3   OH2 8396   3.934   5.190   2.955  0.0355  0.1334  0.1490
 2797TIP3    H1 8397   3.953   5.270   2.907 -0.7678 -0.1553 -0.6790
 2797TIP3    H2 8398   3.995   5.126   2.920  0.2737  0.2295  0.3861
 2798TIP3   OH2 8399   5.792   5.064   0.314 -0.1615  0.0904  0.3298
 2798TIP3    H1 8400   5.712   5.013   0.320 -0.1606  0.2050  1.5165
 2798TIP3    H2 8401   5.862   5.002   0.334 -0.1833  0.5705  2.0963
 2799TIP3   OH2 8402   5.837   0.447   0.140  0.6486 -0.9030  0.4422
 2799TIP3    H1 8403   5.813   0.520   0.197  1.8799 -0.5797  0.5677
 2799TIP3    H2 8404   5.754   0.400   0.126  0.0008  0.0150  1.0530
 2800TIP3   OH2 8405   2.824   2.934   0.420 -0.4011 -0.3073  0.2312
 2800TIP3    H1 8406   2.842   2.845   0.391 -0.1744  0.1215 -1.0226
 2800TIP3    H2 8407   2.854   2.989   0.348 -1.8350  0.7156  0.3698
 2801TIP3   OH2 8408   4.846   0.163   5.159 -0.2463  0.6312 -0.1168
 2801TIP3    H1 8409   4.937   0.133   5.162 -0.2218  0.7716  1.9003
 2801TIP3    H2 8410   4.803   0.102   5.100  1.1056  0.4339 -0.9507
 2802TIP3   OH2 8411   3.987   1.874   3.871 -0.1301 -0.2131 -0.1520
 2802TIP3    H1 8412   4.082   1.875   3.870 -0.1382  0.7119 -0.6127
 2802TIP3    H2 8413   3.964   1.782   3.855  0.6795  0.1076 -4.1070
 2803TIP3   OH2 8414   2.376   4.469   0.182 -0.0559  0.2106 -0.8491
 2803TIP3    H1 8415   2.330   4.542   0.141 -0.1141 -0.9252 -2.9750
 2803TIP3    H2 8416   2.310   4.400   0.188 -0.7635  0.9523  3.5000
 2804TIP3   OH2 8417   1.382   2.204   0.897 -0.7843  0.0279  0.3506
 2804TIP3    H1 8418   1.288   2.213   0.884 -1.1140 -2.5369  0.3793
 2804TIP3    H2 8419   1.401   2.115   0.867  1.8712  0.9138 -0.8809
 2805TIP3   OH2 8420   1.203   3.378   0.382  0.0844  0.1959  0.9992
 2805TIP3    H1 8421   1.277   3.327   0.349  0.2010  0.6856  0.4914
 2805TIP3    H2 8422   1.138   3.313   0.407  0.7823 -0.2492  1.6884
 2806TIP3   OH2 8423   4.718   4.082   1.319 -0.0338  0.5366 -0.0906
 2806TIP3    H1 8424   4.735   3.989   1.305 -0.7996  0.5828 -1.5132
 2806TIP3    H2 8425   4.637   4.084   1.370 -1.2443  0.4027 -1.9148
 2807TIP3   OH2 8426   6.018   0.233   0.146 -0.0239 -0.0110  0.0308
 2807TIP3    H1 8427   5.997   0.319   0.182  0.1488 -0.2665  0.7654
 2807TIP3    H2 8428   5.940   0.207   0.098 -1.2593 -0.7109  2.2684
 2808TIP3   OH2 8429   3.453   5.829   3.916 -0.4390  0.2489 -0.1390
 2808TIP3    H1 8430   3.526   5.888   3.936 -1.8288  1.2167  2.7525
 2808TIP3    H2 8431   3.417   5.861   3.834  1.4769  0.6594 -0.8615
 2809TIP3   OH2 8432   4.880   4.605   3.270  0.0299 -0.2083  0.2084
 2809TIP3    H1 8433   4.830   4.523   3.271 -0.8102  0.2881 -0.0375
 2809TIP3    H2 8434   4.955   4.586   3.213 -0.4567 -0.6485 -0.3062
 2810TIP3   OH2 8435   4.538   5.191   1.402 -0.3722  0.0729 -0.4118
 2810TIP3    H1 8436   4.614   5.221   1.451 -1.9346  1.1641  1.4684
 2810TIP3    H2 8437   4.575   5.148   1.325  2.1745 -0.9020  1.2303
 2811TIP3   OH2 8438   4.844   5.469   4.371  0.3148  0.1233  0.2707
 2811TIP3    H1 8439   4.883   5.431   4.292 -2.1671  0.0947 -1.0437
 2811TIP3    H2 8440   4.751   5.475   4.351  0.0742  3.6989  1.7448
 2812TIP3   OH2 8441   1.771   3.400   4.628 -0.4000  0.6419 -0.1309
 2812TIP3    H1 8442   1.865   3.406   4.646 -0.7407  2.1068  1.4273
 2812TIP3    H2 8443   1.757   3.307   4.609  1.0202 -0.0840  1.9033
 2813TIP3   OH2 8444   2.132   4.441   0.719 -0.0413  0.7496  0.2176
 2813TIP3    H1 8445   2.175   4.488   0.647  0.9101  0.2266  0.4391
 2813TIP3    H2 8446   2.051   4.408   0.679  1.5510 -1.5570 -1.3364
 2814TIP3   OH2 8447   2.931   3.724   3.775  0.3682  0.1695 -0.2836
 2814TIP3    H1 8448   2.857   3.676   3.812 -1.0067  2.4247  0.0739
 2814TIP3    H2 8449   2.999   3.718   3.842 -0.9756  1.5093  1.2840
 2815TIP3   OH2 8450   3.701   5.900   2.941 -0.1345 -0.5998 -0.7225
 2815TIP3    H1 8451   3.619   5.859   2.969  0.1588 -1.3669 -0.9681
 2815TIP3    H2 8452   3.737   5.938   3.021 -1.1949  0.5931 -0.7799
 2816TIP3   OH2 8453   1.764   5.006   2.223  0.1536  0.0003  0.2893
 2816TIP3    H1 8454   1.840   5.034   2.273  0.3232 -0.1961  0.1443
 2816TIP3    H2 8455   1.801   4.958   2.149 -0.0484  1.0801 -0.5408
 2817TIP3   OH2 8456   2.010   2.923   1.546  0.0991 -0.3267  0.3467
 2817TIP3    H1 8457   2.039   3.014   1.547 -2.5912  0.6390  2.1187
 2817TIP3    H2 8458   2.091   2.872   1.558  1.3484  2.0495  3.7040
 2818TIP3   OH2 8459   4.832   4.419   2.989  0.1076 -0.1665 -0.0094
 2818TIP3    H1 8460   4.807   4.393   3.078  2.6752 -0.6269  0.6748
 2818TIP3    H2 8461   4.858   4.510   2.997  2.5758 -0.8241  0.3228
 2819TIP3   OH2 8462   4.188   2.004   0.050 -0.0062  0.4298  0.5414
 2819TIP3    H1 8463   4.210   2.092   0.080  0.7186 -0.0302  1.3939
 2819TIP3    H2 8464   4.171   2.014  -0.044 -0.7372  1.6123  0.7732
 2820TIP3   OH2 8465   2.069   3.419   3.483  0.4094  0.3763  0.0977
 2820TIP3    H1 8466   1.976   3.405   3.465  0.0231 -0.2622  2.2357
 2820TIP3    H2 8467   2.091   3.500   3.437 -1.5493  1.2342  0.5694
 2821TIP3   OH2 8468   4.745   5.086   2.110  0.5992  0.1899  0.5462
 2821TIP3    H1 8469   4.698   5.031   2.047  0.4765 -0.4273  1.1663
 2821TIP3    H2 8470   4.677   5.140   2.150  0.8265  1.3585 -0.6194
 2822TIP3   OH2 8471   6.009   1.292   4.474 -0.2860  0.5458 -0.1525
 2822TIP3    H1 8472   6.017   1.384   4.500  0.1257 -0.1930  2.7164
 2822TIP3    H2 8473   6.082   1.248   4.518  0.9092 -0.8888 -3.2811
 2823TIP3   OH2 8474   3.577   3.638   0.435 -0.1608  0.0933 -0.1504
 2823TIP3    H1 8475   3.606   3.595   0.515 -1.8625  1.4445  1.2867
 2823TIP3    H2 8476   3.589   3.732   0.453 -3.0288  0.5895 -0.3553
 2824TIP3   OH2 8477   2.619   4.318   2.337  0.1775  0.2098 -0.7417
 2824TIP3    H1 8478   2.635   4.262   2.261 -0.6162  0.5096 -1.1417
 2824TIP3    H2 8479   2.625   4.259   2.413 -1.6612 -0.6418 -1.2139
 2825TIP3   OH2 8480   2.776   1.970   3.716  0.1942  0.6739  0.3983
 2825TIP3    H1 8481   2.802   1.980   3.808  0.4107 -1.2145  0.5847
 2825TIP3    H2 8482   2.840   2.023   3.667  1.2366  0.2226  1.2212
 2826TIP3   OH2 8483   0.776   3.365   4.267  0.4052  0.2647  0.3912
 2826TIP3    H1 8484   0.748   3.287   4.314 -2.8630  1.8699  1.4985
 2826TIP3    H2 8485   0.750   3.350   4.176 -0.4216  0.0812  0.6447
 2827TIP3   OH2 8486   1.603   1.990   5.081  0.1662 -0.2808 -0.2596
 2827TIP3    H1 8487   1.513   2.019   5.094  0.9119  1.5596  1.1697
 2827TIP3    H2 8488   1.635   2.042   5.008  0.8750  1.1398  1.0046
 2828TIP3   OH2 8489   2.836   0.979   0.979 -0.0398 -0.3976  0.2481
 2828TIP3    H1 8490   2.896   1.030   0.924 -0.2108  1.6530  1.8792
 2828TIP3    H2 8491   2.893   0.939   1.045 -0.2355  0.0565  0.6982
 2829TIP3   OH2 8492   3.443   3.184   1.818  1.0109  0.2369 -0.0764
 2829TIP3    H1 8493   3.377   3.120   1.842  0.0714  0.6276 -1.4813
 2829TIP3    H2 8494   3.397   3.247   1.762  1.7876  2.3505  1.4976
 2830TIP3   OH2 8495   1.532   0.869   4.246 -0.2038 -0.0314 -0.1095
 2830TIP3    H1 8496   1.470   0.846   4.315 -1.5991  0.5857 -1.1291
 2830TIP3    H2 8497   1.478   0.892   4.171  1.2427 -2.4754 -2.0794
 2831TIP3   OH2 8498   4.378   4.727   2.386 -0.2298  0.0295  0.4586
 2831TIP3    H1 8499   4.433   4.727   2.464  0.0639  1.1551  0.2621
 2831TIP3    H2 8500   4.396   4.811   2.343 -0.4632 -0.5308 -0.7684
 2832TIP3   OH2 8501   1.030   1.506   0.990  0.2919  0.0316 -0.2389
 2832TIP3    H1 8502   1.065   1.562   0.921 -2.4597  0.4755 -1.3927
 2832TIP3    H2 8503   1.022   1.419   0.950  0.0753 -0.0531 -0.0179
 2833TIP3   OH2 8504   6.195   2.456   4.216  0.3487 -0.0391  0.6034
 2833TIP3    H1 8505   6.212   2.453   4.122 -0.4076  1.5031  0.3697
 2833TIP3    H2 8506   6.223   2.371   4.249  1.4458 -0.2895 -0.8696
 2834TIP3   OH2 8507   4.432   1.799   1.795  1.1923  0.0943  0.1064
 2834TIP3    H1 8508   4.375   1.871   1.821  2.0261  0.7039  0.2606
 2834TIP3    H2 8509   4.410   1.728   1.855  0.7070  0.3661  0.2576
 2835TIP3   OH2 8510   4.922   2.599   3.418  0.0858 -0.3612  0.3209
 2835TIP3    H1 8511   4.957   2.531   3.476  1.4443 -0.0049 -0.0441
 2835TIP3    H2 8512   4.979   2.598   3.342  0.2213  1.2688  0.3621
 2836TIP3   OH2 8513   1.880   3.156   4.912  0.1356  0.5153  0.4339
 2836TIP3    H1 8514   1.797   3.109   4.904  0.1290  0.4735  0.7330
 2836TIP3    H2 8515   1.921   3.147   4.827 -1.4344  2.9281 -0.7100
 2837TIP3   OH2 8516   5.147   3.939   2.995 -0.0217 -0.4984  0.1689
 2837TIP3    H1 8517   5.131   3.874   2.927 -0.4712  1.3170 -1.5401
 2837TIP3    H2 8518   5.064   3.984   3.006  1.1494  2.5018 -1.7424
 2838TIP3   OH2 8519   3.828   3.662   1.686 -0.1864  0.1325 -0.4537
 2838TIP3    H1 8520   3.865   3.580   1.720 -1.1928 -0.5517 -0.9750
 2838TIP3    H2 8521   3.808   3.643   1.595 -0.1372  1.0730 -0.6672
 2839TIP3   OH2 8522   0.593   3.829   4.310 -0.3914  0.5344  0.2859
 2839TIP3    H1 8523   0.655   3.786   4.369  1.0199  1.5806 -0.3724
 2839TIP3    H2 8524   0.534   3.758   4.282  1.8691 -1.0705 -0.8070
 2840TIP3   OH2 8525   3.759   2.309   0.030 -0.2903 -0.1786 -0.3532
 2840TIP3    H1 8526   3.762   2.213   0.033  3.1136 -0.2100 -0.8792
 2840TIP3    H2 8527   3.752   2.336   0.122  0.5503 -0.9421 -0.0568
 2841TIP3   OH2 8528   0.860   4.018   4.522  0.0898  0.2663  0.0285
 2841TIP3    H1 8529   0.798   4.075   4.477  0.0861 -0.2358 -0.6184
 2841TIP3    H2 8530   0.817   3.995   4.604  1.1659  3.3054  1.5824
 2842TIP3   OH2 8531   4.951   0.316   4.793  0.8422  0.1608 -0.4096
 2842TIP3    H1 8532   4.879   0.334   4.732  1.3673 -0.5706 -1.2784
 2842TIP3    H2 8533   4.915   0.253   4.855  0.7540 -0.2984 -0.9164
 2843TIP3   OH2 8534   5.926   4.528   0.939  0.0825 -0.6205 -0.4044
 2843TIP3    H1 8535   5.924   4.433   0.948 -1.2962 -0.5680  0.1768
 2843TIP3    H2 8536   5.886   4.560   1.020  1.2006  0.4859 -0.2665
 2844TIP3   OH2 8537   3.579   1.274   4.861 -0.2769 -0.2704  0.0944
 2844TIP3    H1 8538   3.601   1.358   4.900 -0.0949 -0.0202 -0.5400
 2844TIP3    H2 8539   3.586   1.211   4.933  1.8015 -0.0989  0.0916
 2845TIP3   OH2 8540   4.926   2.702   2.178 -0.6258 -0.3977 -0.4590
 2845TIP3    H1 8541   4.960   2.744   2.258 -1.5807  0.3973 -0.4480
 2845TIP3    H2 8542   4.834   2.683   2.198 -0.8339 -0.3361 -1.3148
 2846TIP3   OH2 8543   0.080   5.882   0.941 -0.0666 -0.5825  0.1427
 2846TIP3    H1 8544   0.009   5.909   0.999 -0.0456 -0.7022  0.2263
 2846TIP3    H2 8545   0.148   5.850   1.000 -0.2036 -1.0792  0.0396
 2847TIP3   OH2 8546   6.128   0.435   3.669 -0.1670  0.2749  0.1745
 2847TIP3    H1 8547   6.065   0.472   3.606  0.0200  0.9299  0.3614
 2847TIP3    H2 8548   6.104   0.343   3.676 -1.6327  0.6914  0.8722
 2848TIP3   OH2 8549   6.247   1.623   2.290 -0.2940  0.2234 -0.6988
 2848TIP3    H1 8550   6.280   1.632   2.201 -1.6780 -0.2337 -1.2750
 2848TIP3    H2 8551   6.163   1.669   2.290 -0.6009 -0.3119  0.2072
 2849TIP3   OH2 8552   1.020   2.417   1.394 -0.2275  0.0275  0.4824
 2849TIP3    H1 8553   1.107   2.410   1.355 -1.3350 -0.4537 -2.0898
 2849TIP3    H2 8554   1.017   2.347   1.459  0.8570 -0.8309 -0.3557
 2850TIP3   OH2 8555   1.554   2.748   3.024  0.5877 -0.3128 -0.0844
 2850TIP3    H1 8556   1.483   2.741   2.961 -0.2944  0.1564  0.8259
 2850TIP3    H2 8557   1.522   2.701   3.101  0.3172  1.7434  1.1233
 2851TIP3   OH2 8558   4.546   4.818   2.013 -0.0451  0.5548  0.8355
 2851TIP3    H1 8559   4.503   4.789   1.933  0.0504  0.9874  0.6226
 2851TIP3    H2 8560   4.614   4.753   2.029  0.5596  0.9783  0.0395
 2852TIP3   OH2 8561   5.028   4.085   2.716 -0.2619 -0.4788 -0.1722
 2852TIP3    H1 8562   5.020   4.098   2.622 -1.9596 -3.2015 -0.5087
 2852TIP3    H2 8563   4.954   4.133   2.754 -0.1647 -0.2147 -0.3159
 2853TIP3   OH2 8564   5.929   3.022   3.442 -0.9535  0.1265  0.1750
 2853TIP3    H1 8565   5.882   2.940   3.456 -0.2237 -0.7942 -2.1874
 2853TIP3    H2 8566   6.007   3.016   3.497  0.2898 -1.8952 -1.6638
 2854TIP3   OH2 8567   0.391   4.370   3.235 -0.7788 -0.0454 -0.0943
 2854TIP3    H1 8568   0.440   4.363   3.316  1.8453 -1.4968 -1.6690
 2854TIP3    H2 8569   0.340   4.290   3.230 -0.2092 -0.3994 -0.3032
 2855TIP3   OH2 8570   6.121   2.898   1.276  0.1951  0.2636 -0.0977
 2855TIP3    H1 8571   6.177   2.873   1.202 -0.7508 -2.0390 -0.1148
 2855TIP3    H2 8572   6.055   2.956   1.237  0.0981 -0.3962 -0.9570
 2856TIP3   OH2 8573   1.392   2.694   0.084  0.0648  0.1847 -0.4950
 2856TIP3    H1 8574   1.485   2.696   0.063  0.0070  3.0166 -0.8681
 2856TIP3    H2 8575   1.358   2.620   0.035  2.2055 -1.3979  0.2481
 2857TIP3   OH2 8576   5.995   3.451   1.497  0.0534  0.2158 -0.1192
 2857TIP3    H1 8577   6.017   3.528   1.445 -0.0003  0.5045  0.2872
 2857TIP3    H2 8578   5.969   3.485   1.582 -0.2152 -0.2358 -0.0161
 2858TIP3   OH2 8579   2.169   0.654   3.885  0.7379 -0.1008  0.1225
 2858TIP3    H1 8580   2.161   0.643   3.979  0.8461 -0.1673  0.1245
 2858TIP3    H2 8581   2.194   0.746   3.874 -0.8403  0.3423  0.0648
 2859TIP3   OH2 8582   4.970   1.969   3.670  0.2794 -0.1453 -0.4251
 2859TIP3    H1 8583   4.963   2.012   3.585  0.2986 -1.8645 -1.3314
 2859TIP3    H2 8584   4.885   1.928   3.683  0.1272  0.4677  0.6170
 2860TIP3   OH2 8585   0.072   5.051   0.855  0.0689  0.3957 -0.6822
 2860TIP3    H1 8586   0.017   5.088   0.787  1.9220  1.1938 -1.8260
 2860TIP3    H2 8587   0.066   5.113   0.928 -1.1099  0.0778 -0.5002
 2861TIP3   OH2 8588   3.745   3.806   3.492  0.1907  0.0763  0.1803
 2861TIP3    H1 8589   3.663   3.855   3.490  0.9950  1.4460 -1.1543
 2861TIP3    H2 8590   3.773   3.811   3.584 -1.2035 -0.4303  0.6615
 2862TIP3   OH2 8591   0.873   5.605   3.884  0.0558  0.3166 -0.1448
 2862TIP3    H1 8592   0.857   5.603   3.790  0.4721 -0.4859 -0.2093
 2862TIP3    H2 8593   0.863   5.514   3.912  2.1163  0.1582  0.1969
 2863TIP3   OH2 8594   2.940   5.772   0.125 -0.0434 -0.1716  0.3406
 2863TIP3    H1 8595   2.912   5.708   0.059  0.0032 -0.2118  0.3600
 2863TIP3    H2 8596   3.033   5.786   0.107 -0.3358  0.8311 -0.4506
 2864TIP3   OH2 8597   2.767   3.954   2.269  0.1898  0.0142 -0.9622
 2864TIP3    H1 8598   2.833   4.018   2.244 -0.4458  0.5112 -1.4124
 2864TIP3    H2 8599   2.696   3.967   2.206 -0.7929  0.2072  0.1477
 2865TIP3   OH2 8600   1.781   0.968   4.119 -0.1163 -0.0979 -0.4392
 2865TIP3    H1 8601   1.831   1.036   4.163  2.5356 -2.6067  0.7041
 2865TIP3    H2 8602   1.709   0.948   4.179  0.3723  0.1870  0.2514
 2866TIP3   OH2 8603   1.245   1.149   2.562  0.5053 -0.1631  0.3002
 2866TIP3    H1 8604   1.313   1.215   2.549 -0.8880  1.4706  0.9163
 2866TIP3    H2 8605   1.242   1.100   2.480  2.1071 -0.0164  0.1197
 2867TIP3   OH2 8606   5.220   2.677   2.058  0.0649 -0.0916 -0.6899
 2867TIP3    H1 8607   5.141   2.623   2.044  0.4494 -0.8898  0.1144
 2867TIP3    H2 8608   5.274   2.660   1.981 -0.7665  0.9006 -1.5316
 2868TIP3   OH2 8609   4.321   3.727   4.141 -0.5154  0.2677  0.3793
 2868TIP3    H1 8610   4.240   3.757   4.099 -0.8260 -0.2006  0.6263
 2868TIP3    H2 8611   4.385   3.722   4.070 -0.5156  1.2757  0.2964
 2869TIP3   OH2 8612   1.536   2.979   4.527  0.1142  0.0913  0.8542
 2869TIP3    H1 8613   1.508   3.071   4.526  1.7605  0.6265 -1.0562
 2869TIP3    H2 8614   1.456   2.930   4.507 -0.5891  1.1621  0.9375
 2870TIP3   OH2 8615   5.308   4.645   4.280 -0.3813  0.2706 -0.1140
 2870TIP3    H1 8616   5.389   4.615   4.322 -1.8827 -0.3425  2.5843
 2870TIP3    H2 8617   5.259   4.564   4.263  0.3080  0.4344 -3.6764
 2871TIP3   OH2 8618   0.441   1.012   5.141 -0.2471  0.3818  0.0531
 2871TIP3    H1 8619   0.480   1.099   5.137 -2.1131  1.2293 -1.2610
 2871TIP3    H2 8620   0.398   1.001   5.056  1.2185 -2.5061 -0.4533
 2872TIP3   OH2 8621   5.939   1.551   2.933  0.0899 -0.3444  0.1292
 2872TIP3    H1 8622   5.970   1.511   3.014  0.9714  0.7551  0.3445
 2872TIP3    H2 8623   5.870   1.612   2.960  0.6515  0.3121  0.1065
 2873TIP3   OH2 8624   3.707   5.266   4.445 -0.3463 -0.3902 -0.2970
 2873TIP3    H1 8625   3.801   5.271   4.430 -0.2497 -2.7496 -0.8540
 2873TIP3    H2 8626   3.697   5.289   4.538  0.9416 -1.3051  0.0979
 2874TIP3   OH2 8627   2.349   4.385   0.472 -0.5953  0.0502  0.0885
 2874TIP3    H1 8628   2.394   4.376   0.388  0.2122 -0.2331  0.5379
 2874TIP3    H2 8629   2.358   4.299   0.513  1.9194  1.0347  1.8639
 2875TIP3   OH2 8630   2.642   2.724   4.342 -0.3583 -0.4982 -0.2186
 2875TIP3    H1 8631   2.729   2.763   4.346 -0.5569  0.0751 -1.2054
 2875TIP3    H2 8632   2.586   2.782   4.394 -0.7285  0.8117 -1.9727
 2876TIP3   OH2 8633   5.409   3.059   4.434  0.0420 -0.3245 -0.2130
 2876TIP3    H1 8634   5.458   3.132   4.473  0.9737 -0.1328 -1.6340
 2876TIP3    H2 8635   5.352   3.028   4.504  3.3193 -1.6119  2.1320
 2877TIP3   OH2 8636   5.182   3.572   5.104 -0.2328 -0.2212  0.3420
 2877TIP3    H1 8637   5.214   3.659   5.128 -2.7853  0.4585  1.6200
 2877TIP3    H2 8638   5.181   3.573   5.008  2.0864  0.1843  0.2543
 2878TIP3   OH2 8639   2.684   1.779   2.030  0.5802 -0.0418  0.2777
 2878TIP3    H1 8640   2.672   1.728   1.950  1.0427 -1.4941  1.0854
 2878TIP3    H2 8641   2.672   1.716   2.100  1.2676  0.9532  1.3327
 2879TIP3   OH2 8642   1.487   5.559   3.988  0.2126  0.7815 -0.5075
 2879TIP3    H1 8643   1.522   5.572   3.900  1.1104 -1.1297 -0.4785
 2879TIP3    H2 8644   1.398   5.527   3.974  1.3709 -2.7264 -0.9622
 2880TIP3   OH2 8645   5.002   3.824   1.234 -0.3827  0.0177 -0.0164
 2880TIP3    H1 8646   4.916   3.795   1.265 -0.9190  0.9724 -0.5760
 2880TIP3    H2 8647   5.061   3.805   1.307 -1.6710  2.6486  1.8964
 2881TIP3   OH2 8648   5.497   5.211   1.380 -0.0555 -0.6345 -0.2693
 2881TIP3    H1 8649   5.589   5.183   1.384 -0.5998 -2.4319  0.5189
 2881TIP3    H2 8650   5.499   5.303   1.406  1.7279 -0.0716 -2.1060
 2882TIP3   OH2 8651   2.819   1.614   3.289 -0.2661  0.0419 -0.4163
 2882TIP3    H1 8652   2.771   1.657   3.359 -1.6131 -0.0374 -1.2666
 2882TIP3    H2 8653   2.764   1.540   3.263  0.5937 -0.4147 -1.0215
 2883TIP3   OH2 8654   3.143   1.888   0.541  0.4276 -0.6106  0.0609
 2883TIP3    H1 8655   3.230   1.849   0.547  1.2165  1.1243  0.6581
 2883TIP3    H2 8656   3.156   1.979   0.566 -1.8934 -0.7344  2.0812
 2884TIP3   OH2 8657   4.662   1.353   3.349 -0.5151 -0.1711 -0.0490
 2884TIP3    H1 8658   4.695   1.266   3.372  1.2235  0.9714  2.2760
 2884TIP3    H2 8659   4.699   1.371   3.263 -0.0150 -1.3200 -0.0906
 2885TIP3   OH2 8660   6.017   4.609   1.711  0.3338 -0.2181 -0.0192
 2885TIP3    H1 8661   6.101   4.568   1.689  0.6572 -0.5105  1.6294
 2885TIP3    H2 8662   6.021   4.623   1.806 -1.3175  0.1426  0.0285
 2886TIP3   OH2 8663   4.570   2.107   2.241  0.4875  0.3200 -0.1536
 2886TIP3    H1 8664   4.540   2.037   2.183 -1.7757  0.2658  0.9533
 2886TIP3    H2 8665   4.579   2.183   2.183  2.1424 -0.6238 -1.2150
 2887TIP3   OH2 8666   5.634   2.735   0.582 -0.1774 -0.6875 -0.1672
 2887TIP3    H1 8667   5.577   2.808   0.607 -0.8212 -1.3139  0.2251
 2887TIP3    H2 8668   5.590   2.657   0.616  0.7493 -1.2189 -0.1444
 2888TIP3   OH2 8669   5.389   2.533   3.551 -0.2657  0.0960  0.1883
 2888TIP3    H1 8670   5.383   2.629   3.546 -1.0817  0.0230 -0.3450
 2888TIP3    H2 8671   5.393   2.505   3.460  1.5870 -0.3009  0.3502
 2889TIP3   OH2 8672   5.959   5.416   2.387  0.2572 -0.3801 -0.3017
 2889TIP3    H1 8673   5.955   5.387   2.296  0.1350  1.6745 -1.0070
 2889TIP3    H2 8674   6.049   5.398   2.414  0.0849 -1.7181 -0.5393
 2890TIP3   OH2 8675   2.755   2.572   4.580 -0.3508 -0.1036  0.1949
 2890TIP3    H1 8676   2.686   2.614   4.529  1.5967  1.9474 -0.9419
 2890TIP3    H2 8677   2.751   2.480   4.555 -2.5069 -0.0148  0.0318
 2891TIP3   OH2 8678   0.681   5.622   0.627  0.3730 -0.2148  0.7084
 2891TIP3    H1 8679   0.709   5.535   0.657 -2.3792 -1.1084  0.9798
 2891TIP3    H2 8680   0.694   5.679   0.702 -1.2076 -1.2363  1.8105
 2892TIP3   OH2 8681   6.222   0.800   0.740  0.2007  0.6737  0.2570
 2892TIP3    H1 8682   6.129   0.780   0.748  0.2885  0.0528 -0.2464
 2892TIP3    H2 8683   6.252   0.811   0.830 -0.7860  2.9834  0.3956
 2893TIP3   OH2 8684   3.561   2.838   3.933 -0.4662 -0.2509 -0.5499
 2893TIP3    H1 8685   3.509   2.898   3.880 -0.7455 -0.0912 -0.0984
 2893TIP3    H2 8686   3.623   2.798   3.871 -2.9134 -2.5658 -1.7111
 2894TIP3   OH2 8687   2.223   1.160   1.602  0.3952  0.8107  0.7691
 2894TIP3    H1 8688   2.260   1.115   1.678  0.0305 -1.1461 -0.1470
 2894TIP3    H2 8689   2.146   1.109   1.579  0.1462  1.7291 -0.5517
 2895TIP3   OH2 8690   5.781   1.333   3.384 -0.0302 -0.5205  0.1884
 2895TIP3    H1 8691   5.858   1.366   3.429  0.1470 -0.7381  0.0453
 2895TIP3    H2 8692   5.744   1.268   3.444 -0.3437 -0.1137  0.4426
 2896TIP3   OH2 8693   4.999   5.060   1.941 -0.3890  0.1674  0.0121
 2896TIP3    H1 8694   4.924   5.068   2.000 -0.6050  2.2617 -0.4658
 2896TIP3    H2 8695   5.002   5.143   1.894  1.5203 -0.3259 -0.8619
 2897TIP3   OH2 8696   1.693   5.953   5.000 -0.1992 -0.3576 -0.0232
 2897TIP3    H1 8697   1.612   5.937   4.951 -1.5588  0.1520  1.9186
 2897TIP3    H2 8698   1.763   5.930   4.939 -1.7955 -0.8635 -1.7669
 2898TIP3   OH2 8699   2.340   2.495   1.767  0.2153 -0.0319  0.1286
 2898TIP3    H1 8700   2.401   2.443   1.716 -0.5344 -0.0191 -0.8173
 2898TIP3    H2 8701   2.258   2.446   1.765 -0.6111  1.2825 -1.0837
 2899TIP3   OH2 8702   0.231   0.533   4.901 -0.4161  0.2827 -0.5448
 2899TIP3    H1 8703   0.176   0.472   4.853  1.7338 -1.8161 -0.5534
 2899TIP3    H2 8704   0.319   0.494   4.897  0.7351  2.5021  0.9886
 2900TIP3   OH2 8705   4.715   4.029   4.400  0.4584 -0.0102 -0.9919
 2900TIP3    H1 8706   4.666   4.009   4.320 -0.6116  1.5002 -0.7492
 2900TIP3    H2 8707   4.649   4.026   4.469  1.3031 -0.9048 -0.1970
 2901TIP3   OH2 8708   1.839   0.733   2.133 -0.0053  0.1748 -0.5697
 2901TIP3    H1 8709   1.766   0.768   2.186 -0.5972 -1.4160 -0.2947
 2901TIP3    H2 8710   1.798   0.704   2.052  0.1857 -1.3947 -0.1235
 2902TIP3   OH2 8711   0.858   0.447   1.840 -0.5072 -0.3804  0.2038
 2902TIP3    H1 8712   0.770   0.411   1.847 -0.9368  0.5212 -0.3448
 2902TIP3    H2 8713   0.915   0.370   1.840 -1.2960 -0.9831  0.4304
 2903TIP3   OH2 8714   0.373   3.634   2.935  0.2892  0.2530  0.5961
 2903TIP3    H1 8715   0.347   3.718   2.972  0.5383  0.4937  0.2263
 2903TIP3    H2 8716   0.469   3.636   2.938  0.3946  1.0013 -1.6374
 2904TIP3   OH2 8717   4.307   4.406   0.790 -0.0766  0.0887  0.0101
 2904TIP3    H1 8718   4.238   4.367   0.844 -0.1579  0.5518  0.2418
 2904TIP3    H2 8719   4.270   4.406   0.701  0.3961 -1.4896 -0.2245
 2905TIP3   OH2 8720   1.318   3.154   1.325 -0.0959  0.0157 -0.1460
 2905TIP3    H1 8721   1.395   3.177   1.377  0.2871 -0.3496 -0.5386
 2905TIP3    H2 8722   1.337   3.189   1.238  1.7473 -3.8522 -1.5633
 2906TIP3   OH2 8723   3.745   3.183   3.533  0.0672  0.0345 -0.2495
 2906TIP3    H1 8724   3.803   3.111   3.558  0.2573  0.8008  1.6400
 2906TIP3    H2 8725   3.701   3.208   3.614 -1.2910  0.9097 -1.2230
 2907TIP3   OH2 8726   5.730   5.000   3.925 -0.1169 -0.2419 -0.0620
 2907TIP3    H1 8727   5.658   5.010   3.986 -2.0453 -1.7459 -1.9319
 2907TIP3    H2 8728   5.696   5.032   3.841  0.9676 -2.0156 -1.2511
 2908TIP3   OH2 8729   3.709   0.863   1.277 -0.4475 -0.4979 -0.1245
 2908TIP3    H1 8730   3.718   0.844   1.184 -1.5567 -2.4186  0.0988
 2908TIP3    H2 8731   3.677   0.781   1.315  0.6459  0.0042  2.0700
 2909TIP3   OH2 8732   4.129   0.063   1.061  0.3723 -0.1560 -0.3026
 2909TIP3    H1 8733   4.197   0.030   1.120 -0.3002  0.7834  1.0510
 2909TIP3    H2 8734   4.172   0.133   1.012 -0.3384  2.8311  2.9490
 2910TIP3   OH2 8735   0.727   4.794   4.772  0.4177  0.3949  0.1660
 2910TIP3    H1 8736   0.810   4.797   4.724 -0.6042 -0.6900 -1.8042
 2910TIP3    H2 8737   0.719   4.703   4.801 -0.3089  0.3693 -0.0945
 2911TIP3   OH2 8738   5.654   4.040   4.033  0.7558 -0.2912  0.3134
 2911TIP3    H1 8739   5.589   4.102   4.001  1.6387  0.1851 -0.6266
 2911TIP3    H2 8740   5.623   4.013   4.119  0.8042  2.1362  1.1395
 2912TIP3   OH2 8741   5.059   0.802   2.487 -0.1495 -0.3749  0.5110
 2912TIP3    H1 8742   5.063   0.833   2.578  1.1043  0.2933  0.2481
 2912TIP3    H2 8743   5.106   0.719   2.488 -2.7497 -1.9719  1.0355
 2913TIP3   OH2 8744   5.696   0.638   2.886 -0.5214  0.2745  0.0931
 2913TIP3    H1 8745   5.723   0.567   2.944 -2.2218 -0.1994  0.3720
 2913TIP3    H2 8746   5.733   0.615   2.801 -0.1893 -0.4030  0.4133
 2914TIP3   OH2 8747   6.002   4.052   0.308 -0.0776 -0.7089 -0.0515
 2914TIP3    H1 8748   6.002   4.111   0.232  1.2897 -0.8324 -0.1632
 2914TIP3    H2 8749   6.090   4.059   0.344 -1.0131  0.2157  2.2246
 2915TIP3   OH2 8750   1.988   2.297   0.060 -0.5591  0.0699 -0.5711
 2915TIP3    H1 8751   1.892   2.293   0.064 -0.5486 -1.8096 -1.2897
 2915TIP3    H2 8752   2.009   2.293  -0.033  0.2150  1.2300 -0.4594
 2916TIP3   OH2 8753   3.972   2.480   0.918 -0.2376 -0.8271  0.6731
 2916TIP3    H1 8754   4.009   2.549   0.972  0.0439 -0.5878  0.1759
 2916TIP3    H2 8755   4.044   2.418   0.904 -0.3104 -0.8927  0.5807
 2917TIP3   OH2 8756   3.690   5.485   4.941 -0.1212  0.1575  0.1519
 2917TIP3    H1 8757   3.704   5.579   4.931  1.6053  0.0230  0.8876
 2917TIP3    H2 8758   3.607   5.478   4.988 -0.4408  1.2940 -0.2155
 2918TIP3   OH2 8759   1.703   0.059   4.539  1.0866 -0.2855 -0.0155
 2918TIP3    H1 8760   1.669   0.131   4.593  2.4000 -0.6691  1.3915
 2918TIP3    H2 8761   1.798   0.062   4.551  1.4280 -0.5481 -2.1607
 2919TIP3   OH2 8762   4.507   5.610   1.136  0.1408  0.1238 -0.6382
 2919TIP3    H1 8763   4.508   5.649   1.048  2.1793  0.4231 -0.5433
 2919TIP3    H2 8764   4.591   5.564   1.141 -0.8995 -1.7391  0.3758
 2920TIP3   OH2 8765   3.050   5.720   0.685 -0.6467  0.0020  0.3052
 2920TIP3    H1 8766   2.979   5.667   0.649 -0.9226 -0.3018  1.2788
 2920TIP3    H2 8767   3.044   5.803   0.637 -1.7518  0.0325  0.4802
 2921TIP3   OH2 8768   2.366   0.114   1.303 -0.4161 -0.0940 -0.1395
 2921TIP3    H1 8769   2.284   0.068   1.316  0.5789 -1.3847  2.1429
 2921TIP3    H2 8770   2.410   0.110   1.388  1.4177  1.7616 -0.9059
 2922TIP3   OH2 8771   2.747   3.136   0.647  0.0538 -0.5281  0.3469
 2922TIP3    H1 8772   2.755   3.217   0.697 -1.0225  0.0868 -0.4578
 2922TIP3    H2 8773   2.836   3.100   0.647  0.8448  1.2938 -0.3578
 2923TIP3   OH2 8774   0.859   0.258   0.606  0.3724  0.2307  0.5602
 2923TIP3    H1 8775   0.770   0.255   0.571  0.0829 -0.8116  1.3358
 2923TIP3    H2 8776   0.911   0.211   0.541  0.1822  0.0075  0.5672
 2924TIP3   OH2 8777   1.755   3.283   0.718  0.3587 -0.0293 -0.2082
 2924TIP3    H1 8778   1.842   3.271   0.680  0.5879  0.6093  0.1009
 2924TIP3    H2 8779   1.695   3.251   0.650  0.8733 -2.1241  0.2512
 2925TIP3   OH2 8780   3.749   1.238   1.307 -0.4410 -0.3619 -0.1967
 2925TIP3    H1 8781   3.683   1.201   1.365 -0.7951 -1.0973 -1.0534
 2925TIP3    H2 8782   3.724   1.209   1.219  0.0065  0.8316 -0.7485
 2926TIP3   OH2 8783   3.509   3.204   1.246 -0.1461 -0.2488 -0.1844
 2926TIP3    H1 8784   3.539   3.136   1.307 -0.1284  0.7132  0.9287
 2926TIP3    H2 8785   3.572   3.201   1.174  1.5022  0.3894  1.1543
 2927TIP3   OH2 8786   0.907   0.770   3.494 -0.8718 -0.1709  0.0724
 2927TIP3    H1 8787   0.817   0.801   3.503 -0.5816  0.2205  1.9885
 2927TIP3    H2 8788   0.927   0.730   3.578  1.3237  1.3384  0.3573
 2928TIP3   OH2 8789   1.802   1.532   1.521  0.5138  0.0527  0.1546
 2928TIP3    H1 8790   1.828   1.568   1.436  1.5278 -2.3302 -0.6366
 2928TIP3    H2 8791   1.878   1.482   1.550 -0.4240 -0.5645  1.6713
 2929TIP3   OH2 8792   2.992   0.045   2.166 -0.1705 -0.8684 -0.8791
 2929TIP3    H1 8793   3.085   0.060   2.181 -0.2449  0.8565 -1.8863
 2929TIP3    H2 8794   2.987  -0.045   2.134  0.9035 -1.6438  0.9820
 2930TIP3   OH2 8795   0.398   4.307   1.902  0.4055  0.0592  0.3390
 2930TIP3    H1 8796   0.310   4.323   1.868  1.4744  0.5796 -2.3653
 2930TIP3    H2 8797   0.391   4.222   1.947 -1.1662 -0.5493 -0.9594
 2931TIP3   OH2 8798   4.700   5.114   4.220 -0.2770 -0.0888 -0.5375
 2931TIP3    H1 8799   4.683   5.101   4.314  0.3386  3.7658  0.3187
 2931TIP3    H2 8800   4.613   5.129   4.182 -0.3414  1.9108  0.2503
 2932TIP3   OH2 8801   2.821   3.911   0.426  0.1967 -0.2443  0.0496
 2932TIP3    H1 8802   2.840   3.891   0.334 -0.7513 -1.4409  0.0757
 2932TIP3    H2 8803   2.838   3.829   0.472 -2.5013 -0.7024  0.4126
 2933TIP3   OH2 8804   3.773   0.345   1.959  0.1580 -0.4268  0.1542
 2933TIP3    H1 8805   3.708   0.293   2.007  0.3580  0.0163  0.9165
 2933TIP3    H2 8806   3.833   0.377   2.026 -0.1987  1.1388 -0.2329
 2934TIP3   OH2 8807   5.848   2.502   4.880  0.1455  0.6030  0.3757
 2934TIP3    H1 8808   5.791   2.536   4.811  1.7035 -0.4054 -1.5253
 2934TIP3    H2 8809   5.788   2.476   4.950 -1.4703  2.0917 -0.3911
 2935TIP3   OH2 8810   0.548   2.345   3.050  0.6728 -0.6898 -0.5180
 2935TIP3    H1 8811   0.574   2.433   3.024  0.8085 -0.1901  1.1821
 2935TIP3    H2 8812   0.588   2.332   3.136 -1.3193 -1.4403  0.3736
 2936TIP3   OH2 8813   5.741   5.511   3.196  0.2345  0.7822 -0.1323
 2936TIP3    H1 8814   5.749   5.606   3.187  1.2518  0.5186 -3.0785
 2936TIP3    H2 8815   5.802   5.488   3.265 -1.2906  2.3718  1.8711
 2937TIP3   OH2 8816   0.511   2.479   0.448  0.1155 -0.8828 -0.2677
 2937TIP3    H1 8817   0.588   2.531   0.426 -0.0202 -0.4119  0.3221
 2937TIP3    H2 8818   0.453   2.488   0.373 -0.9314  1.8090  0.7311
 2938TIP3   OH2 8819   2.646   3.638   0.229 -0.6758 -0.5064  0.4292
 2938TIP3    H1 8820   2.675   3.721   0.194 -0.6371 -1.0485 -0.8734
 2938TIP3    H2 8821   2.578   3.661   0.292  0.2631  0.5729  1.0932
 2939TIP3   OH2 8822   4.781   4.708   3.718  0.4211 -0.0251 -0.1205
 2939TIP3    H1 8823   4.845   4.689   3.650  1.8690  2.3134  0.5081
 2939TIP3    H2 8824   4.723   4.774   3.680 -0.1269 -0.3202  0.1760
 2940TIP3   OH2 8825   1.166   5.808   2.027  0.0411 -0.0921  0.0556
 2940TIP3    H1 8826   1.085   5.769   2.058 -0.3516  1.0708  0.5432
 2940TIP3    H2 8827   1.196   5.863   2.099  0.9662 -0.0612 -0.3324
 2941TIP3   OH2 8828   2.063   1.180   0.014  0.4838  0.4859 -0.1480
 2941TIP3    H1 8829   2.002   1.188   0.087  1.4434  0.4277  0.6839
 2941TIP3    H2 8830   2.124   1.112   0.041 -0.2868 -0.9802 -1.8540
 2942TIP3   OH2 8831   0.177   2.269   4.389  0.3094 -0.4571 -0.0413
 2942TIP3    H1 8832   0.205   2.224   4.309  0.2479  0.2225 -0.4581
 2942TIP3    H2 8833   0.232   2.348   4.392  0.3568 -0.5157  0.6243
 2943TIP3   OH2 8834   3.665   3.197   1.034 -0.5026  0.0173  1.0399
 2943TIP3    H1 8835   3.586   3.183   0.982  0.0593  0.0423  0.1539
 2943TIP3    H2 8836   3.722   3.124   1.009 -0.6063 -0.5846  2.4235
 2944TIP3   OH2 8837   3.180   1.747   4.617  0.6196  0.5373 -0.0735
 2944TIP3    H1 8838   3.120   1.729   4.544  0.1078  0.0237  0.4638
 2944TIP3    H2 8839   3.132   1.808   4.673  0.1960 -0.5986  0.8430
 2945TIP3   OH2 8840   4.720   4.372   4.216  0.5047 -0.2583  0.2244
 2945TIP3    H1 8841   4.786   4.434   4.185  1.7191 -1.1052  1.0546
 2945TIP3    H2 8842   4.734   4.366   4.310 -1.7741  0.6894  0.6968
 2946TIP3   OH2 8843   2.157   0.381   2.012  0.3632 -0.0645  0.0928
 2946TIP3    H1 8844   2.071   0.405   2.044 -0.8631 -0.9092 -2.3230
 2946TIP3    H2 8845   2.192   0.461   1.973  0.2675  0.0484  0.2378
 2947TIP3   OH2 8846   5.466   1.268   2.100  0.0157  0.1304  0.1808
 2947TIP3    H1 8847   5.560   1.286   2.108  0.1308 -0.0450 -0.6999
 2947TIP3    H2 8848   5.458   1.174   2.111 -0.1409  0.2293  0.9381
 2948TIP3   OH2 8849   2.783   2.452   2.603 -0.3062 -0.5162  0.5070
 2948TIP3    H1 8850   2.783   2.359   2.629  1.4833 -0.3847  1.0856
 2948TIP3    H2 8851   2.831   2.454   2.520 -2.2169 -0.3391 -0.6751
 2949TIP3   OH2 8852   4.359   2.885   5.049  0.0987 -0.0393  0.3111
 2949TIP3    H1 8853   4.309   2.922   5.122  1.5520  0.1593  1.2711
 2949TIP3    H2 8854   4.294   2.865   4.982 -1.1551  0.8621  1.2083
 2950TIP3   OH2 8855   5.872   2.060   0.178 -0.3285 -0.2534  0.4581
 2950TIP3    H1 8856   5.800   1.997   0.174 -0.3351 -0.5103  2.8930
 2950TIP3    H2 8857   5.933   2.023   0.242  1.0557  0.8862 -0.1254
 2951TIP3   OH2 8858   1.367   1.728   0.375  0.0642  0.7308 -0.1332
 2951TIP3    H1 8859   1.430   1.738   0.447  0.0138  0.1230 -0.0009
 2951TIP3    H2 8860   1.347   1.818   0.348 -2.4856  1.2215  2.8013
 2952TIP3   OH2 8861   1.302   5.761   1.800  0.0210 -0.4586  0.0515
 2952TIP3    H1 8862   1.233   5.762   1.734  0.4820  0.6360 -0.4443
 2952TIP3    H2 8863   1.256   5.778   1.883 -0.4042 -0.5262 -0.1681
 2953TIP3   OH2 8864   5.427   1.868   0.793 -0.5213  0.2880  0.6018
 2953TIP3    H1 8865   5.461   1.891   0.880  1.6841  0.5881 -0.2809
 2953TIP3    H2 8866   5.488   1.802   0.760 -1.4261  0.0503 -0.6569
 2954TIP3   OH2 8867   3.068   1.688   2.967  0.2587  0.3404  0.1513
 2954TIP3    H1 8868   3.141   1.633   2.996  0.5569  0.7312  0.1532
 2954TIP3    H2 8869   3.043   1.738   3.045 -0.0039  0.2213  0.1470
 2955TIP3   OH2 8870   3.711   4.446   0.979  0.2898  0.1696 -0.5261
 2955TIP3    H1 8871   3.628   4.465   0.933 -0.4846 -3.3531 -0.8493
 2955TIP3    H2 8872   3.686   4.442   1.071  0.5619  1.1082 -0.4022
 2956TIP3   OH2 8873   1.554   3.705   0.951 -0.1175 -0.0790  0.1891
 2956TIP3    H1 8874   1.648   3.695   0.935  0.0366  1.4992  0.0064
 2956TIP3    H2 8875   1.548   3.741   1.039 -0.5201  0.4410 -0.0457
 2957TIP3   OH2 8876   0.954   2.304   0.195 -0.2935  0.3251 -0.1042
 2957TIP3    H1 8877   0.979   2.267   0.110  0.7775  0.5414  0.1087
 2957TIP3    H2 8878   0.989   2.393   0.194 -1.0761  0.6418  0.2050
 2958TIP3   OH2 8879   0.087   5.666   5.142  0.2122  0.5457  0.5016
 2958TIP3    H1 8880   0.132   5.695   5.062 -1.1182  1.5642  0.0921
 2958TIP3    H2 8881  -0.003   5.695   5.131 -0.4187 -0.8513  1.6072
 2959TIP3   OH2 8882   2.691   5.432   2.719  0.3854 -0.0370 -0.9310
 2959TIP3    H1 8883   2.736   5.369   2.776 -2.3190  0.2690  1.7670
 2959TIP3    H2 8884   2.641   5.378   2.658  1.4081 -0.3933 -1.4817
 2960TIP3   OH2 8885   1.809   0.606   1.859  0.3786 -0.8119 -0.1961
 2960TIP3    H1 8886   1.751   0.681   1.848  0.3363 -0.8182 -0.0095
 2960TIP3    H2 8887   1.837   0.585   1.770  0.6689 -0.3602 -0.2137
 2961TIP3   OH2 8888   4.705   4.867   0.517  0.0519  0.3654 -0.0504
 2961TIP3    H1 8889   4.612   4.889   0.513 -0.2911 -1.1481 -1.5424
 2961TIP3    H2 8890   4.719   4.835   0.606 -0.8332  0.6430  0.1934
 2962TIP3   OH2 8891   2.082   5.533   0.234  0.0207 -0.0653 -0.0400
 2962TIP3    H1 8892   2.104   5.611   0.184 -1.3827  0.6891  0.4668
 2962TIP3    H2 8893   2.119   5.461   0.183 -0.7777  0.7274 -1.8260
 2963TIP3   OH2 8894   3.237   2.043   4.442 -0.0281  0.6186 -0.1202
 2963TIP3    H1 8895   3.173   2.079   4.503 -0.2468 -0.3438  0.2420
 2963TIP3    H2 8896   3.186   1.987   4.384  0.3004  0.8879 -0.6784
 2964TIP3   OH2 8897   5.498   3.025   3.467  0.2456  0.1871 -0.2803
 2964TIP3    H1 8898   5.459   3.111   3.483  1.7775  0.7552  0.6008
 2964TIP3    H2 8899   5.565   3.015   3.535 -0.1295 -1.8681 -0.1252
 2965TIP3   OH2 8900   0.801   3.064   3.281 -0.2348  0.3476 -0.0919
 2965TIP3    H1 8901   0.862   3.056   3.355 -0.4722  0.7192  0.1466
 2965TIP3    H2 8902   0.770   2.975   3.266 -0.1924  0.2713  0.2632
 2966TIP3   OH2 8903   0.292   4.108   0.339  0.7560  0.4371 -0.6317
 2966TIP3    H1 8904   0.228   4.115   0.410 -0.1957  1.1672 -1.5370
 2966TIP3    H2 8905   0.336   4.024   0.355 -0.5896 -0.2060 -0.1082
 2967TIP3   OH2 8906   1.934   0.167   3.096 -0.0389 -0.1406 -0.0159
 2967TIP3    H1 8907   1.913   0.260   3.090  0.3188  0.1583  2.3682
 2967TIP3    H2 8908   1.854   0.122   3.067 -0.4352  0.8917 -0.5785
 2968TIP3   OH2 8909   3.351   4.109   1.320 -0.2139 -0.3821 -0.2202
 2968TIP3    H1 8910   3.344   4.131   1.412 -0.0007 -0.4085 -0.1964
 2968TIP3    H2 8911   3.430   4.054   1.314 -1.6982 -2.6906  0.0166
 2969TIP3   OH2 8912   4.932   1.204   1.156 -0.0661  0.1420  0.2065
 2969TIP3    H1 8913   4.933   1.256   1.075 -1.0773  2.1291  1.4026
 2969TIP3    H2 8914   4.851   1.230   1.200 -0.1610 -1.8181  1.3105
 2970TIP3   OH2 8915   1.031   3.171   1.789  0.2549 -0.3065  0.6718
 2970TIP3    H1 8916   1.007   3.080   1.770  0.7049 -0.1545 -0.7978
 2970TIP3    H2 8917   1.085   3.197   1.714  0.4141  1.0705  1.2353
 2971TIP3   OH2 8918   2.149   4.663   1.694 -0.2923 -0.4513  0.2995
 2971TIP3    H1 8919   2.081   4.624   1.750 -0.1497  0.5092  1.1736
 2971TIP3    H2 8920   2.171   4.746   1.737  0.0192  0.1979 -1.0520
 2972TIP3   OH2 8921   3.171   2.397   2.353 -0.1893  0.0890 -0.0401
 2972TIP3    H1 8922   3.239   2.419   2.417 -0.3130  1.0922 -0.2326
 2972TIP3    H2 8923   3.151   2.305   2.370  1.4299 -0.3237 -0.1799
 2973TIP3   OH2 8924   4.653   5.631   0.553 -0.4568  0.2353  0.0052
 2973TIP3    H1 8925   4.578   5.587   0.512 -0.0544  0.0693 -0.5623
 2973TIP3    H2 8926   4.729   5.592   0.511 -0.0840  1.2296 -0.2583
 2974TIP3   OH2 8927   5.614   3.565   3.273 -0.2706  0.3621 -0.1188
 2974TIP3    H1 8928   5.610   3.545   3.179  0.5518  0.5698 -0.2118
 2974TIP3    H2 8929   5.642   3.657   3.276 -0.3717  0.3788  0.3281
 2975TIP3   OH2 8930   5.051   4.451   0.937 -0.0530  0.3177 -0.2272
 2975TIP3    H1 8931   4.969   4.498   0.923  0.4400  0.6130 -2.4622
 2975TIP3    H2 8932   5.083   4.431   0.849  2.9776  1.4100  0.4797
 2976TIP3   OH2 8933   1.932   3.688   1.118 -0.5078  0.0226 -0.7325
 2976TIP3    H1 8934   1.893   3.601   1.117  1.6647 -1.0503 -3.2280
 2976TIP3    H2 8935   1.886   3.736   1.048 -0.8674  0.4983 -0.1812
 2977TIP3   OH2 8936   5.894   0.863   1.504 -0.2796 -0.0036  0.0536
 2977TIP3    H1 8937   5.933   0.783   1.470 -0.2439 -0.2914  0.7695
 2977TIP3    H2 8938   5.804   0.861   1.472 -0.6078 -0.8837  0.9602
 2978TIP3   OH2 8939   1.244   3.428   3.093  0.2085  0.0289 -0.1185
 2978TIP3    H1 8940   1.333   3.446   3.061  0.1472 -1.1950 -1.0301
 2978TIP3    H2 8941   1.242   3.468   3.180  1.4093  0.7071 -0.3680
 2979TIP3   OH2 8942   0.641   5.620   3.376 -0.0188 -0.1277  0.1200
 2979TIP3    H1 8943   0.613   5.674   3.302  1.0032 -2.1087 -1.8377
 2979TIP3    H2 8944   0.562   5.576   3.406 -0.1258 -0.8825 -1.1993
 2980TIP3   OH2 8945   4.508   5.884   3.480 -0.4962  0.0138 -0.0356
 2980TIP3    H1 8946   4.505   5.930   3.396  1.4970 -1.2177 -0.8342
 2980TIP3    H2 8947   4.599   5.858   3.490 -0.5624  0.5856  2.8013
 2981TIP3   OH2 8948   2.637   4.139   2.563 -0.2311 -0.3334 -0.3020
 2981TIP3    H1 8949   2.691   4.194   2.619 -1.0121  0.1264  0.0200
 2981TIP3    H2 8950   2.671   4.051   2.576 -0.6573 -0.3058  1.2284
 2982TIP3   OH2 8951   2.068   1.158   3.989  0.2574 -0.3849  0.2776
 2982TIP3    H1 8952   2.034   1.198   3.909  2.5936  3.3426  0.9051
 2982TIP3    H2 8953   2.003   1.180   4.056 -1.2234 -2.6957 -0.2691
 2983TIP3   OH2 8954   4.403   4.714   4.644  0.0870  0.2993  0.5973
 2983TIP3    H1 8955   4.319   4.669   4.632 -0.3116  1.0793  0.4040
 2983TIP3    H2 8956   4.456   4.685   4.569 -0.0737 -0.0451  0.6123
 2984TIP3   OH2 8957   2.326   4.847   5.125  0.2686 -0.4061 -0.3829
 2984TIP3    H1 8958   2.321   4.926   5.178 -0.2660  0.2561 -1.3882
 2984TIP3    H2 8959   2.236   4.812   5.125  0.6968 -1.6390  0.9315
 2985TIP3   OH2 8960   1.932   1.073   3.547  0.1217  0.2560 -0.1232
 2985TIP3    H1 8961   1.965   0.984   3.557  0.7238  0.5757  0.7880
 2985TIP3    H2 8962   1.967   1.102   3.463 -0.5257 -0.5408 -0.6975
 2986TIP3   OH2 8963   5.333   5.484   1.957  0.0310 -0.3292 -0.0298
 2986TIP3    H1 8964   5.416   5.512   1.995 -0.2282 -0.5367  0.7153
 2986TIP3    H2 8965   5.312   5.552   1.892 -0.8749  1.6512  2.1416
 2987TIP3   OH2 8966   6.306   1.356   2.215  0.5449  0.2780  0.2777
 2987TIP3    H1 8967   6.277   1.309   2.293 -0.5447 -0.8725 -0.7769
 2987TIP3    H2 8968   6.263   1.442   2.221  1.0539  0.4799  1.2800
 2988TIP3   OH2 8969   3.596   4.874   4.693 -0.0371 -0.2553 -0.3428
 2988TIP3    H1 8970   3.594   4.847   4.784 -0.0145  4.0091  1.1316
 2988TIP3    H2 8971   3.688   4.873   4.668 -0.0346 -1.3077 -0.3225
 2989TIP3   OH2 8972   2.878   4.676   0.330  0.5200  0.4084 -0.1679
 2989TIP3    H1 8973   2.928   4.629   0.264  0.2405 -0.6244  0.3324
 2989TIP3    H2 8974   2.789   4.681   0.294  0.9383  2.2020 -1.0371
 2990TIP3   OH2 8975   5.457   1.509   5.037  0.0053  0.0799 -0.6211
 2990TIP3    H1 8976   5.516   1.433   5.042  0.6281  0.6210  1.0633
 2990TIP3    H2 8977   5.474   1.547   4.951  0.4129 -1.1054 -1.0879
 2991TIP3   OH2 8978   3.076   5.132   0.724 -0.0466 -0.4224 -0.5379
 2991TIP3    H1 8979   3.122   5.216   0.712  0.0713 -0.5336 -0.8540
 2991TIP3    H2 8980   3.096   5.082   0.645  1.0461 -1.2997  0.2665
 2992TIP3   OH2 8981   1.466   1.730   0.990 -0.2959  0.1328  0.1463
 2992TIP3    H1 8982   1.408   1.713   0.916  1.4272 -0.4752 -1.1362
 2992TIP3    H2 8983   1.408   1.737   1.065 -2.0473 -0.0334 -1.1347
 2993TIP3   OH2 8984   1.258   3.670   2.631  0.1807  0.1296  0.1115
 2993TIP3    H1 8985   1.216   3.652   2.546  1.1996 -1.2181 -0.1417
 2993TIP3    H2 8986   1.185   3.680   2.692 -0.5446 -0.0305 -0.7096
 2994TIP3   OH2 8987   5.867   3.625   2.594  0.3468 -0.3112  0.4557
 2994TIP3    H1 8988   5.866   3.557   2.527 -1.4175  1.2852 -1.2505
 2994TIP3    H2 8989   5.953   3.666   2.586  1.4387 -2.2683  1.5193
 2995TIP3   OH2 8990   1.648   1.241   4.681 -0.2530  0.2379 -0.2007
 2995TIP3    H1 8991   1.666   1.226   4.588 -0.1326  0.6214 -0.2445
 2995TIP3    H2 8992   1.553   1.249   4.686 -0.2412  0.4774 -0.3343
 2996TIP3   OH2 8993   3.862   0.106   4.744 -0.6835  0.1592 -0.3155
 2996TIP3    H1 8994   3.923   0.138   4.811  0.4102 -2.1240 -0.1092
 2996TIP3    H2 8995   3.911   0.111   4.662 -0.4390 -1.0490 -0.2559
 2997TIP3   OH2 8996   5.600   4.919   1.705 -0.3142  0.2430 -0.6333
 2997TIP3    H1 8997   5.507   4.897   1.692 -0.2783 -0.5190  0.2633
 2997TIP3    H2 8998   5.642   4.835   1.723  0.1935  0.8058  0.9341
 2998TIP3   OH2 8999   5.553   4.001   4.628 -0.5606  0.0159  0.1867
 2998TIP3    H1 9000   5.461   4.025   4.643 -0.9440 -1.1934 -0.0783
 2998TIP3    H2 9001   5.579   3.955   4.708 -1.1922 -2.4153 -0.9258
 2999TIP3   OH2 9002   6.232   4.861   4.523  0.0660  0.5693 -0.0549
 2999TIP3    H1 9003   6.325   4.885   4.519  0.2796 -0.2317 -0.2451
 2999TIP3    H2 9004   6.226   4.782   4.469 -0.3570 -0.4795  1.4455
 3000TIP3   OH2 9005   5.218   3.524   4.091 -0.1595 -0.4953  0.8609
 3000TIP3    H1 9006   5.128   3.508   4.119 -0.0613 -2.6075  0.1022
 3000TIP3    H2 9007   5.240   3.450   4.035  1.2681  1.1587 -0.9223
 3001TIP3   OH2 9008   3.337   0.688   0.584  0.1607  0.4136 -0.2049
 3001TIP3    H1 9009   3.318   0.627   0.656  1.4601 -0.5486 -0.6399
 3001TIP3    H2 9010   3.298   0.771   0.612 -2.0902 -0.7045  0.1825
 3002TIP3   OH2 9011   4.521   1.185   0.449  0.2242 -0.4600  0.3299
 3002TIP3    H1 9012   4.592   1.149   0.503  1.1521  1.3746  0.4214
 3002TIP3    H2 9013   4.530   1.280   0.458 -1.2295 -0.1519 -1.0071
 3003TIP3   OH2 9014   3.853   2.105   3.919  0.2549  0.1894  0.5596
 3003TIP3    H1 9015   3.908   2.042   3.873  1.8889  1.7917  0.1919
 3003TIP3    H2 9016   3.764   2.075   3.904  0.7334  0.1689 -3.0409
 3004TIP3   OH2 9017   2.013   1.351   1.544  0.5332 -0.6413  0.5989
 3004TIP3    H1 9018   2.084   1.308   1.592  0.1966 -1.5794  0.2769
 3004TIP3    H2 9019   1.982   1.285   1.482  1.5232  0.8058 -1.5457
 3005TIP3   OH2 9020   0.106   5.548   0.902  0.6006  0.2060  0.1147
 3005TIP3    H1 9021   0.183   5.605   0.907  0.5918  0.4975 -1.9926
 3005TIP3    H2 9022   0.038   5.596   0.948  1.0277  1.1802 -0.2330
 3006TIP3   OH2 9023   5.474   1.872   2.088 -0.3737 -0.0547 -0.0644
 3006TIP3    H1 9024   5.518   1.833   2.164  0.8555 -0.2986 -0.8568
 3006TIP3    H2 9025   5.499   1.964   2.091  2.5176 -0.6095 -1.9084
 3007TIP3   OH2 9026   3.796   2.356   3.826  0.2627 -0.0160  0.2749
 3007TIP3    H1 9027   3.845   2.275   3.843 -1.0037 -1.0406 -0.8167
 3007TIP3    H2 9028   3.705   2.331   3.836 -0.1103  1.9499  2.6207
 3008TIP3   OH2 9029   4.103   1.975   4.541 -0.6850  0.3460 -0.2792
 3008TIP3    H1 9030   4.125   1.882   4.531 -2.0120  0.0604 -0.6239
 3008TIP3    H2 9031   4.091   1.986   4.635 -1.2435 -0.0012 -0.3071
 3009TIP3   OH2 9032   2.838   0.882   4.255  0.0995  0.1912 -0.0575
 3009TIP3    H1 9033   2.853   0.976   4.259  1.6556 -0.0667  1.3209
 3009TIP3    H2 9034   2.752   0.873   4.214  0.9016  2.0907 -2.3839
 3010TIP3   OH2 9035   3.080   1.132   2.274  0.3038  0.3649 -0.5577
 3010TIP3    H1 9036   3.104   1.222   2.294  0.6295  0.0778  0.3936
 3010TIP3    H2 9037   3.124   1.080   2.342 -0.1088 -0.4793 -0.9276
 3011TIP3   OH2 9038   0.041   5.110   2.160  1.2946  0.3356  0.1772
 3011TIP3    H1 9039  -0.027   5.051   2.192  2.0198 -0.9336 -0.5231
 3011TIP3    H2 9040   0.123   5.063   2.174  1.8493  0.9101 -0.9301
 3012TIP3   OH2 9041   2.119   3.019   0.982 -0.4925 -0.0970 -0.2742
 3012TIP3    H1 9042   2.029   3.042   0.955 -0.5485 -0.3174 -0.2784
 3012TIP3    H2 9043   2.114   3.013   1.077 -0.5156 -0.2496 -0.2850
 3013TIP3   OH2 9044   0.964   3.118   0.122 -0.3659  0.5099  0.3643
 3013TIP3    H1 9045   0.951   3.065   0.043 -0.9224  0.0833  0.7366
 3013TIP3    H2 9046   1.057   3.110   0.141 -0.5375 -0.7869  0.7259
 3014TIP3   OH2 9047   0.679   3.429   0.229  0.1091 -0.1547  0.7289
 3014TIP3    H1 9048   0.672   3.458   0.320 -0.5716  0.2352  0.5581
 3014TIP3    H2 9049   0.769   3.397   0.221  0.3845  0.4437  1.3533
 3015TIP3   OH2 9050   3.132   0.704   0.902  0.0671 -0.6535 -0.1633
 3015TIP3    H1 9051   3.097   0.617   0.922 -1.6343  0.1334  0.4226
 3015TIP3    H2 9052   3.177   0.731   0.982 -0.4456 -0.5088  0.0792
 3016TIP3   OH2 9053   2.359   5.231   1.060  0.6852 -0.2167  0.0979
 3016TIP3    H1 9054   2.367   5.315   1.014  0.7858 -1.2122 -1.7914
 3016TIP3    H2 9055   2.302   5.250   1.134  0.1962  1.3786 -0.6377
 3017TIP3   OH2 9056   4.336   0.380   3.350  0.5087  0.1308  0.2210
 3017TIP3    H1 9057   4.386   0.303   3.378 -0.6894 -0.6094  0.3909
 3017TIP3    H2 9058   4.366   0.397   3.261  0.2549 -1.0128 -0.1053
 3018TIP3   OH2 9059   1.991   0.469   0.543 -0.0296  0.0412 -0.0707
 3018TIP3    H1 9060   2.031   0.508   0.620  0.9960 -0.0419 -0.5458
 3018TIP3    H2 9061   1.978   0.377   0.567  0.9488 -0.1459 -0.2439
 3019TIP3   OH2 9062   1.592   4.141   3.935 -0.9447  0.2665 -0.2822
 3019TIP3    H1 9063   1.633   4.215   3.981 -0.3235 -0.9127  1.1404
 3019TIP3    H2 9064   1.598   4.164   3.843 -1.0627  2.1451  0.1339
 3020TIP3   OH2 9065   5.207   2.179   2.931 -0.2276  0.2745  0.1473
 3020TIP3    H1 9066   5.122   2.135   2.934  0.1438 -0.4292  1.7688
 3020TIP3    H2 9067   5.190   2.261   2.885 -2.0779  0.7109  1.4975
 3021TIP3   OH2 9068   1.702   2.666   0.091 -0.2623 -0.1182  0.3853
 3021TIP3    H1 9069   1.755   2.732   0.136  1.2273 -0.6756 -0.4544
 3021TIP3    H2 9070   1.693   2.701   0.002 -1.6603  0.1409  0.6106
 3022TIP3   OH2 9071   4.848   3.613   2.283  0.0222 -0.1240 -0.1161
 3022TIP3    H1 9072   4.826   3.586   2.194 -0.6353 -0.2265  0.0778
 3022TIP3    H2 9073   4.892   3.698   2.272  0.3197 -0.3334 -0.5679
 3023TIP3   OH2 9074   1.336   3.721   4.420 -0.0941 -0.0125  0.4196
 3023TIP3    H1 9075   1.285   3.641   4.407 -0.7692  0.7301 -1.8475
 3023TIP3    H2 9076   1.290   3.768   4.490 -1.2736 -0.3604 -0.1149
 3024TIP3   OH2 9077   5.727   1.159   3.598  0.2746 -0.2446  0.2980
 3024TIP3    H1 9078   5.685   1.129   3.679  1.1916 -0.5913  0.6658
 3024TIP3    H2 9079   5.753   1.078   3.553  1.5930 -0.0464  0.6574
 3025TIP3   OH2 9080   1.033   1.970   2.892  0.3051 -0.1789  0.2786
 3025TIP3    H1 9081   1.060   2.043   2.948  0.3292 -0.0282  0.0737
 3025TIP3    H2 9082   0.989   2.012   2.818  0.1797 -0.3818  0.2379
 3026TIP3   OH2 9083   4.073   0.997   2.045 -0.1961 -0.0318 -0.3739
 3026TIP3    H1 9084   4.117   1.056   2.106 -1.7377 -0.0500  0.8206
 3026TIP3    H2 9085   4.073   0.912   2.089 -1.5413  0.0088 -0.2418
 3027TIP3   OH2 9086   5.883   3.271   3.935  0.4554  0.3915  0.0064
 3027TIP3    H1 9087   5.877   3.194   3.877  1.8262 -1.5923  2.3045
 3027TIP3    H2 9088   5.833   3.339   3.890 -1.0741 -1.9122 -2.0279
 3028TIP3   OH2 9089   3.550   4.777   4.414 -0.5325  0.1613 -0.6338
 3028TIP3    H1 9090   3.504   4.849   4.372 -1.6344 -1.0039 -1.5319
 3028TIP3    H2 9091   3.558   4.804   4.506 -1.8940  0.9668 -0.7228
 3029TIP3   OH2 9092   2.672   1.361   3.397 -0.1934  0.3775 -0.5800
 3029TIP3    H1 9093   2.744   1.392   3.452 -0.8037  0.0697  0.4171
 3029TIP3    H2 9094   2.593   1.389   3.443 -0.7303 -0.9839 -0.6162
 3030TIP3   OH2 9095   1.799   4.250   4.654 -0.1814  0.1477  0.1399
 3030TIP3    H1 9096   1.890   4.227   4.672 -0.4637 -1.4354 -0.2958
 3030TIP3    H2 9097   1.775   4.308   4.726  0.8555 -0.2675  0.8539
 3031TIP3   OH2 9098   5.201   2.528   0.771  0.2003  0.2280 -0.0631
 3031TIP3    H1 9099   5.190   2.613   0.728 -0.2658  0.5084  0.6005
 3031TIP3    H2 9100   5.115   2.488   0.767 -0.0489  0.5975  1.3181
 3032TIP3   OH2 9101   0.826   5.610   3.597  0.0110  0.5891 -0.3884
 3032TIP3    H1 9102   0.781   5.644   3.520  1.9540  3.2348 -0.5281
 3032TIP3    H2 9103   0.894   5.552   3.561  0.4601  1.2622 -0.6562
 3033TIP3   OH2 9104   3.483   4.811   0.056  0.0293  0.9335 -0.0803
 3033TIP3    H1 9105   3.427   4.848  -0.012  1.5136  3.7023  0.0924
 3033TIP3    H2 9106   3.567   4.853   0.043  0.8385  0.2237  2.4133
 3034TIP3   OH2 9107   4.100   1.169   2.502 -0.3988  0.4016 -0.2303
 3034TIP3    H1 9108   4.016   1.155   2.546  0.2259  0.8723  1.1783
 3034TIP3    H2 9109   4.165   1.133   2.562  0.6414  2.6255  0.1066
 3035TIP3   OH2 9110   5.197   1.000   0.233  0.4588  0.5615  0.3489
 3035TIP3    H1 9111   5.123   1.055   0.207 -0.9469 -0.8916  1.1506
 3035TIP3    H2 9112   5.249   0.991   0.153 -1.1518  0.1900 -0.6908
 3036TIP3   OH2 9113   4.221   5.723   2.091 -0.5592  0.7928  0.1978
 3036TIP3    H1 9114   4.146   5.676   2.128 -0.0237 -0.0669  0.2251
 3036TIP3    H2 9115   4.297   5.675   2.123  0.0018  1.6007  0.0936
 3037TIP3   OH2 9116   3.118   5.346   2.794 -0.9206 -0.0138 -0.0275
 3037TIP3    H1 9117   3.098   5.256   2.817  1.3569 -0.6674 -0.2768
 3037TIP3    H2 9118   3.123   5.345   2.698  0.7870 -0.0859  0.0302
 3038TIP3   OH2 9119   4.769   2.756   3.241 -0.4546  1.3507  0.4139
 3038TIP3    H1 9120   4.804   2.717   3.322 -0.9488  0.8427  0.3906
 3038TIP3    H2 9121   4.798   2.847   3.244  0.8414  0.9659  0.4144
 3039TIP3   OH2 9122   3.974   3.831   1.352 -0.3423 -0.1423 -0.7922
 3039TIP3    H1 9123   3.933   3.746   1.365  0.9353 -0.7169 -0.2982
 3039TIP3    H2 9124   3.958   3.878   1.433  1.4509 -1.0418  0.1460
 3040TIP3   OH2 9125   1.732   1.074   0.402  0.5618  0.5357 -0.3061
 3040TIP3    H1 9126   1.668   1.113   0.461 -1.2173 -2.0249 -0.3661
 3040TIP3    H2 9127   1.791   1.025   0.459  0.0637 -0.2863 -0.4759
 3041TIP3   OH2 9128   5.240   5.762   5.042  0.1480 -0.1664 -0.8926
 3041TIP3    H1 9129   5.271   5.853   5.035  1.9855 -0.7908 -1.4227
 3041TIP3    H2 9130   5.241   5.730   4.952  1.6878 -1.3489 -0.5008
 3042TIP3   OH2 9131   1.334   5.611   5.135  0.1771 -0.1766 -0.2604
 3042TIP3    H1 9132   1.369   5.691   5.175  1.0520  0.0138 -1.3601
 3042TIP3    H2 9133   1.259   5.641   5.084 -0.9493 -0.4220  1.1848
 3043TIP3   OH2 9134   2.651   0.504   3.654  0.6578  0.0942 -0.6039
 3043TIP3    H1 9135   2.733   0.456   3.654  0.8690  0.3696 -2.1853
 3043TIP3    H2 9136   2.586   0.441   3.622 -0.0435 -0.4924  1.7918
 3044TIP3   OH2 9137   2.872   2.886   4.679  0.2273 -0.3493  0.1345
 3044TIP3    H1 9138   2.820   2.951   4.726 -0.6421 -1.3017  0.5262
 3044TIP3    H2 9139   2.809   2.816   4.657  1.0214 -0.8200 -0.7353
 3045TIP3   OH2 9140   0.141   3.665   3.959  0.2695 -0.2134  0.2266
 3045TIP3    H1 9141   0.140   3.742   3.902 -0.6494 -0.0629  0.4279
 3045TIP3    H2 9142   0.197   3.690   4.032  2.4037 -0.8157 -1.1162
 3046TIP3   OH2 9143   1.643   3.583   2.456 -0.3183 -0.2855  0.0577
 3046TIP3    H1 9144   1.584   3.658   2.447  1.1772  1.0608  0.9434
 3046TIP3    H2 9145   1.587   3.507   2.445 -1.8838  0.9550 -0.9807
 3047TIP3   OH2 9146   2.426   3.951   4.445  0.3626  0.0542 -0.0801
 3047TIP3    H1 9147   2.393   3.954   4.535  1.6816 -0.4426  0.4498
 3047TIP3    H2 9148   2.363   4.002   4.394 -0.6439 -0.0353  1.0463
 3048TIP3   OH2 9149   4.173   4.697   2.934 -0.2312  0.4188 -0.5531
 3048TIP3    H1 9150   4.216   4.721   2.852  1.5576  0.1714  0.2512
 3048TIP3    H2 9151   4.081   4.683   2.910  0.2721  0.1482 -2.5453
 3049TIP3   OH2 9152   2.224   1.323   0.847 -0.6339  0.1911  1.2266
 3049TIP3    H1 9153   2.164   1.359   0.911  0.4571  0.3344  2.2071
 3049TIP3    H2 9154   2.248   1.237   0.882  0.0566  0.3194  1.0918
 3050TIP3   OH2 9155   5.212   5.607   0.662  0.0544  0.0454 -0.5214
 3050TIP3    H1 9156   5.253   5.655   0.734 -0.7327  1.8887 -1.2421
 3050TIP3    H2 9157   5.281   5.547   0.632  0.6377 -0.2376  1.2433
 3051TIP3   OH2 9158   3.663   2.841   4.510  0.3297  0.8727 -0.6137
 3051TIP3    H1 9159   3.597   2.805   4.569  0.1561  2.3666  0.1605
 3051TIP3    H2 9160   3.664   2.781   4.435  0.6865 -1.1781  0.9536
 3052TIP3   OH2 9161   2.377   3.624   1.816 -0.3505 -0.2193  0.2512
 3052TIP3    H1 9162   2.423   3.627   1.732  0.9737  0.1803  0.9620
 3052TIP3    H2 9163   2.393   3.536   1.850  1.8829  0.6014  1.5278
 3053TIP3   OH2 9164   5.801   2.053   2.193  0.0994 -0.5290  0.5537
 3053TIP3    H1 9165   5.890   2.089   2.192  0.1574 -0.6466  1.1133
 3053TIP3    H2 9166   5.783   2.035   2.285 -0.8055  0.2303  0.5447
 3054TIP3   OH2 9167   4.674   4.442   0.433 -0.5594  0.7288  0.6903
 3054TIP3    H1 9168   4.755   4.406   0.469 -1.4765 -3.8527 -1.1601
 3054TIP3    H2 9169   4.621   4.463   0.510  0.9895  0.2406  1.9387
 3055TIP3   OH2 9170   3.574   0.168   0.306 -0.4393  0.0312 -0.5301
 3055TIP3    H1 9171   3.497   0.185   0.253 -0.4281 -0.8760 -0.8386
 3055TIP3    H2 9172   3.540   0.134   0.389 -0.3774 -0.1817 -0.5923
 3056TIP3   OH2 9173   4.077   3.487   2.031 -0.3647 -0.1220 -0.1793
 3056TIP3    H1 9174   4.119   3.520   2.110 -0.1351  1.8768 -1.0952
 3056TIP3    H2 9175   3.983   3.503   2.045 -0.2019  1.5929 -0.8841
 3057TIP3   OH2 9176   0.512   2.709   2.685  0.3634  0.6163  0.1390
 3057TIP3    H1 9177   0.598   2.721   2.725 -0.0910  0.4807  1.1981
 3057TIP3    H2 9178   0.460   2.665   2.753  0.0432 -1.1754 -1.2011
 3058TIP3   OH2 9179   5.982   3.297   4.975 -0.5613  0.5296  0.3264
 3058TIP3    H1 9180   6.034   3.375   4.994 -0.5533  0.4791  0.5200
 3058TIP3    H2 9181   5.891   3.326   4.987 -0.5868  0.6585 -0.1624
 3059TIP3   OH2 9182   3.385   4.657   0.670  0.1256 -0.2376  0.1110
 3059TIP3    H1 9183   3.388   4.736   0.617 -0.0502 -1.4110 -1.7618
 3059TIP3    H2 9184   3.302   4.663   0.717  0.2808  0.8527  0.2505
 3060TIP3   OH2 9185   5.508   1.430   3.040  0.1696  0.1969  0.3509
 3060TIP3    H1 9186   5.453   1.396   3.111  1.6226 -1.5484  0.7012
 3060TIP3    H2 9187   5.583   1.470   3.085  1.1575 -1.0262 -0.1505
 3061TIP3   OH2 9188   2.046   2.526   1.827 -0.1409 -0.0536  0.0843
 3061TIP3    H1 9189   1.976   2.576   1.787 -1.2569 -0.3354  1.5824
 3061TIP3    H2 9190   2.019   2.435   1.818  0.1308 -0.1773  0.4725
 3062TIP3   OH2 9191   4.481   0.749   2.066 -0.0028  0.3463 -0.6332
 3062TIP3    H1 9192   4.428   0.790   1.997 -2.2429  2.4683  2.1030
 3062TIP3    H2 9193   4.539   0.819   2.096 -2.7501  1.3707  3.0285
 3063TIP3   OH2 9194   1.410   1.039   3.802  0.3043 -0.0891  0.2962
 3063TIP3    H1 9195   1.410   0.949   3.833 -0.6549 -0.0758  0.3746
 3063TIP3    H2 9196   1.495   1.074   3.828 -0.3184 -0.1643  2.6506
 3064TIP3   OH2 9197   2.166   5.809   4.436 -0.4733  0.3761 -0.1078
 3064TIP3    H1 9198   2.236   5.859   4.395 -0.7048  0.0548 -0.8980
 3064TIP3    H2 9199   2.141   5.742   4.372  0.8886 -1.8035  1.4640
 3065TIP3   OH2 9200   4.349   3.878   4.356  0.1675 -0.4665 -0.5524
 3065TIP3    H1 9201   4.425   3.899   4.411  1.7585 -1.9318 -2.0934
 3065TIP3    H2 9202   4.387   3.846   4.274 -2.1254 -2.2328 -0.9945
 3066TIP3   OH2 9203   0.452   2.021   4.569 -0.3744 -0.3863 -0.2976
 3066TIP3    H1 9204   0.441   1.964   4.645 -0.2669 -1.2538 -0.9137
 3066TIP3    H2 9205   0.425   1.967   4.494  0.6232  0.0400 -0.9997
 3067TIP3   OH2 9206   3.462   3.720   2.152  0.0855 -0.1839  0.1684
 3067TIP3    H1 9207   3.375   3.703   2.188  0.0447  1.6870  1.0773
 3067TIP3    H2 9208   3.517   3.651   2.190 -0.4926  0.1647  1.7013
 3068TIP3   OH2 9209   2.984   0.086   1.496  0.0239 -0.3373  0.8462
 3068TIP3    H1 9210   3.011   0.162   1.548  0.8226 -0.0347  0.0091
 3068TIP3    H2 9211   3.064   0.035   1.485 -0.1581 -0.4490 -0.0078
 3069TIP3   OH2 9212   0.319   4.181   5.055 -0.0066 -0.0191  0.2126
 3069TIP3    H1 9213   0.380   4.241   5.098  0.5385 -1.0152  0.8690
 3069TIP3    H2 9214   0.309   4.109   5.118  0.4447 -1.2986 -1.1357
 3070TIP3   OH2 9215   0.986   2.695   2.009  0.7477  0.2791 -0.3139
 3070TIP3    H1 9216   0.968   2.632   1.940 -1.0897 -0.4106  0.7326
 3070TIP3    H2 9217   1.038   2.764   1.966  1.1544 -0.9720 -1.9207
 3071TIP3   OH2 9218   3.214   2.958   3.733 -0.2182  0.4237 -0.1754
 3071TIP3    H1 9219   3.272   3.002   3.671  0.5593 -0.0443  0.1999
 3071TIP3    H2 9220   3.187   3.027   3.794 -0.1417  0.6694 -0.4178
 3072TIP3   OH2 9221   5.392   4.693   0.853 -0.6207  0.4301  0.6330
 3072TIP3    H1 9222   5.408   4.732   0.767 -0.9162 -1.5140 -0.3701
 3072TIP3    H2 9223   5.474   4.648   0.875 -1.1014 -0.5537  0.5005
 3073TIP3   OH2 9224   0.041   2.415   2.005  0.3219  0.0807 -0.1601
 3073TIP3    H1 9225   0.009   2.406   1.915 -1.1327 -0.1014  0.3430
 3073TIP3    H2 9226   0.136   2.421   1.997  0.2473 -0.4335 -1.6662
 3074TIP3   OH2 9227   3.526   5.400   3.809 -0.5217 -0.4499 -0.0316
 3074TIP3    H1 9228   3.462   5.334   3.838 -4.7831  2.4452 -1.7817
 3074TIP3    H2 9229   3.528   5.465   3.879  0.3501 -0.3941 -0.1047
 3075TIP3   OH2 9230   0.897   2.464   0.495 -0.6516  0.2432 -0.0418
 3075TIP3    H1 9231   0.991   2.449   0.491 -0.4563  0.7866  1.8371
 3075TIP3    H2 9232   0.888   2.559   0.499 -1.2330  0.1689  0.6349
 3076TIP3   OH2 9233   0.905   4.242   4.137  0.0970  0.2144 -0.2498
 3076TIP3    H1 9234   0.980   4.258   4.194  1.8078 -1.3903 -1.9345
 3076TIP3    H2 9235   0.943   4.221   4.052 -2.2816 -0.4414 -1.2294
 3077TIP3   OH2 9236   0.063   1.332   0.895 -0.2919 -0.4154 -0.7429
 3077TIP3    H1 9237  -0.033   1.332   0.884 -0.3753  0.4238 -0.0950
 3077TIP3    H2 9238   0.091   1.416   0.859 -0.1962  0.8711  2.0914
 3078TIP3   OH2 9239   2.037   0.304   2.750  0.1029 -0.0978  0.2753
 3078TIP3    H1 9240   2.026   0.303   2.654  1.7777  0.2906  0.0450
 3078TIP3    H2 9241   1.984   0.378   2.779  0.9497  0.8782 -0.5742
 3079TIP3   OH2 9242   0.364   0.393   1.668 -0.2465 -0.3055  0.0829
 3079TIP3    H1 9243   0.459   0.403   1.662 -0.3599  0.0123 -2.1522
 3079TIP3    H2 9244   0.334   0.478   1.700  0.1619 -0.0318 -0.2417
 3080TIP3   OH2 9245   1.373   1.304   2.962  0.1615  0.0569  0.6895
 3080TIP3    H1 9246   1.395   1.268   3.048  0.4992  0.3972  0.7466
 3080TIP3    H2 9247   1.385   1.231   2.901  1.1318  0.1456  0.7628
 3081TIP3   OH2 9248   2.316   1.493   5.102  0.0401 -0.3793  0.1170
 3081TIP3    H1 9249   2.291   1.581   5.075 -0.0254  0.0759  1.5759
 3081TIP3    H2 9250   2.383   1.506   5.169 -1.8305 -1.3180  2.2873
 3082TIP3   OH2 9251   2.589   0.657   2.502 -0.1186  0.2564 -0.1298
 3082TIP3    H1 9252   2.629   0.743   2.516  0.6938 -0.0557 -0.5013
 3082TIP3    H2 9253   2.508   0.676   2.454  0.6048  0.7386 -1.2076
 3083TIP3   OH2 9254   4.490   3.383   3.420  0.4251 -0.1365  0.1468
 3083TIP3    H1 9255   4.428   3.327   3.467 -0.3972 -0.6901 -1.4977
 3083TIP3    H2 9256   4.443   3.465   3.407  0.3255 -0.2691 -0.3809
 3084TIP3   OH2 9257   5.133   3.318   1.610  0.2022 -0.1112  0.2426
 3084TIP3    H1 9258   5.201   3.361   1.662 -0.2742  1.9246 -0.7190
 3084TIP3    H2 9259   5.163   3.327   1.520 -0.2808 -1.2107 -0.0436
 3085TIP3   OH2 9260   1.202   4.687   4.415  0.0198  0.0997  0.0473
 3085TIP3    H1 9261   1.286   4.644   4.398 -0.5485 -1.2189  0.4136
 3085TIP3    H2 9262   1.211   4.774   4.378  0.6422 -0.8763 -2.2957
 3086TIP3   OH2 9263   5.505   3.593   4.662  0.6718  0.2462 -0.2649
 3086TIP3    H1 9264   5.432   3.617   4.604  1.3015 -3.4294 -2.9237
 3086TIP3    H2 9265   5.462   3.555   4.739 -0.2721 -0.7506 -1.2461
 3087TIP3   OH2 9266   0.707   2.157   2.858 -0.4358  0.1648  0.2433
 3087TIP3    H1 9267   0.724   2.116   2.774  0.5699 -1.0606  1.0113
 3087TIP3    H2 9268   0.773   2.226   2.865  0.9512 -1.1878  0.9597
 3088TIP3   OH2 9269   4.564   0.173   4.557  0.3390  0.0581  0.3941
 3088TIP3    H1 9270   4.478   0.181   4.597 -0.4247 -1.1875 -0.9295
 3088TIP3    H2 9271   4.624   0.165   4.631 -0.8725 -0.8612  1.3183
 3089TIP3   OH2 9272   3.305   4.071   3.003 -0.0806 -0.1776 -0.4493
 3089TIP3    H1 9273   3.239   4.132   2.970 -0.1541 -0.4287 -0.7637
 3089TIP3    H2 9274   3.354   4.122   3.068 -0.5710  0.0164 -0.2263
 3090TIP3   OH2 9275   2.660   5.032   3.113  0.0882  0.4837  0.0331
 3090TIP3    H1 9276   2.710   5.006   3.190 -1.2122 -0.9978  0.4221
 3090TIP3    H2 9277   2.688   4.972   3.044 -2.0773 -1.3623  0.6283
 3091TIP3   OH2 9278   0.621   0.441   3.118 -0.0182 -0.3748  0.4287
 3091TIP3    H1 9279   0.645   0.485   3.200 -0.1805  0.1841  0.1826
 3091TIP3    H2 9280   0.611   0.349   3.142  0.7465 -0.3505  0.8705
 3092TIP3   OH2 9281   5.514   2.746   4.599  0.0669 -0.2864  0.4442
 3092TIP3    H1 9282   5.562   2.770   4.520 -2.1207  1.2415 -0.5249
 3092TIP3    H2 9283   5.486   2.656   4.584 -1.0416  0.2578 -0.9447
 3093TIP3   OH2 9284   2.960   2.291   4.392 -0.2577  0.0906 -0.2073
 3093TIP3    H1 9285   2.976   2.308   4.300 -3.2547 -1.2783 -1.1047
 3093TIP3    H2 9286   3.042   2.313   4.436  1.2457  0.7776 -3.1755
 3094TIP3   OH2 9287   1.248   1.600   2.997 -0.2592  0.1995 -0.6533
 3094TIP3    H1 9288   1.290   1.685   3.006  1.8126 -0.6371 -1.9214
 3094TIP3    H2 9289   1.168   1.608   3.050  1.0941  2.0868  1.2773
 3095TIP3   OH2 9290   4.978   5.407   4.854  0.1213 -0.2603  0.1338
 3095TIP3    H1 9291   4.929   5.483   4.885 -0.5631  0.1134 -1.7120
 3095TIP3    H2 9292   5.053   5.444   4.807 -0.2875 -0.6819 -0.8907
 3096TIP3   OH2 9293   6.209   3.799   0.464  0.1240 -0.4045  0.0676
 3096TIP3    H1 9294   6.203   3.757   0.378  0.2567 -1.8674  0.7389
 3096TIP3    H2 9295   6.119   3.807   0.494  0.0497  0.4929 -0.3737
 3097TIP3   OH2 9296   2.573   0.262   3.550  0.0379  0.6008 -0.4736
 3097TIP3    H1 9297   2.494   0.247   3.499  1.0885 -2.2824 -1.4893
 3097TIP3    H2 9298   2.645   0.238   3.492  1.4171 -0.8412  1.6459
 3098TIP3   OH2 9299   5.364   0.040   4.415  0.1543 -0.5828 -0.2452
 3098TIP3    H1 9300   5.364   0.127   4.454 -0.6024  0.0599 -1.6128
 3098TIP3    H2 9301   5.450   0.004   4.436 -0.0923 -0.1690  1.6931
 3099TIP3   OH2 9302   0.390   5.273   1.122  0.2270 -0.1367  0.1826
 3099TIP3    H1 9303   0.421   5.359   1.095  0.4267 -0.2131  0.1719
 3099TIP3    H2 9304   0.395   5.274   1.218 -1.2081  0.4160  0.2765
 3100TIP3   OH2 9305   0.525   0.615   4.961 -0.0663 -0.0308  0.2018
 3100TIP3    H1 9306   0.503   0.625   4.868  0.8491 -1.1710 -0.1713
 3100TIP3    H2 9307   0.589   0.544   4.962  1.1893  1.0591  1.5361
 3101TIP3   OH2 9308   1.926   2.974   5.125  0.5757  0.0518  0.1759
 3101TIP3    H1 9309   1.864   2.979   5.198  0.7242  2.3648  0.2257
 3101TIP3    H2 9310   1.924   3.061   5.086  2.4679 -0.3422 -0.9322
 3102TIP3   OH2 9311   1.302   4.408   2.083 -0.1081 -0.2389 -0.1230
 3102TIP3    H1 9312   1.267   4.371   2.002  0.1581  0.1553 -0.4181
 3102TIP3    H2 9313   1.338   4.493   2.058 -4.5134  2.3641  1.2809
 3103TIP3   OH2 9314   3.338   0.344   4.822  0.3389  0.0332  0.1356
 3103TIP3    H1 9315   3.283   0.421   4.830  0.5025  0.0553  1.2820
 3103TIP3    H2 9316   3.298   0.292   4.752  0.1158  1.0476 -0.5035
 3104TIP3   OH2 9317   5.487   5.875   3.170  0.3600 -0.0401  0.1776
 3104TIP3    H1 9318   5.444   5.796   3.137  0.8638 -0.0136 -0.5698
 3104TIP3    H2 9319   5.578   5.848   3.183  1.4823  1.3412 -3.6603
 3105TIP3   OH2 9320   2.570   2.982   1.219  0.4810  0.3126 -0.1953
 3105TIP3    H1 9321   2.503   2.927   1.179  0.9511 -1.9382  1.9069
 3105TIP3    H2 9322   2.521   3.054   1.259 -0.6960 -1.0520  0.9269
 3106TIP3   OH2 9323   6.287   4.971   1.254  0.1145  0.5759 -0.3128
 3106TIP3    H1 9324   6.284   4.923   1.171  0.6917  1.5315 -0.9126
 3106TIP3    H2 9325   6.200   4.959   1.292 -0.2672  0.3968 -1.2199
 3107TIP3   OH2 9326   4.455   1.212   1.961  0.3454 -0.1556  0.1073
 3107TIP3    H1 9327   4.524   1.149   1.982 -0.9451 -1.1718  1.5032
 3107TIP3    H2 9328   4.420   1.239   2.046 -2.1928 -1.0855 -0.5642
 3108TIP3   OH2 9329   5.517   5.789   3.629 -0.1954 -0.0987  0.0581
 3108TIP3    H1 9330   5.465   5.842   3.569 -1.4812 -0.7935  0.5260
 3108TIP3    H2 9331   5.550   5.717   3.575  0.5751  0.5159 -0.3121
 3109TIP3   OH2 9332   5.859   2.695   1.172 -0.3346 -0.5281  0.1603
 3109TIP3    H1 9333   5.838   2.777   1.128 -3.8568 -1.1366  0.3984
 3109TIP3    H2 9334   5.897   2.640   1.104  2.2928  1.2510  0.0518
 3110TIP3   OH2 9335   1.092   2.879   4.089  0.1829  0.5115  0.4053
 3110TIP3    H1 9336   1.136   2.836   4.163  0.5920 -0.3131 -0.2947
 3110TIP3    H2 9337   1.093   2.813   4.020  0.5990  1.5653 -0.6281
 3111TIP3   OH2 9338   4.053   5.267   1.965  0.2464  0.8392 -0.7297
 3111TIP3    H1 9339   3.986   5.336   1.963 -0.1228  0.4723 -1.3400
 3111TIP3    H2 9340   4.036   5.215   1.886  0.2441 -0.2084 -0.0478
 3112TIP3   OH2 9341   0.560   4.296   3.680  0.6138  0.1125  0.3660
 3112TIP3    H1 9342   0.540   4.214   3.634  1.9921 -0.8670  1.4265
 3112TIP3    H2 9343   0.573   4.270   3.771  1.2851  1.4944  0.6868
 3113TIP3   OH2 9344   3.322   4.270   4.495  0.1136 -0.8808  0.2663
 3113TIP3    H1 9345   3.293   4.212   4.424 -0.6779  1.7580 -1.7453
 3113TIP3    H2 9346   3.412   4.293   4.472 -0.2081  0.1352 -0.0231
 3114TIP3   OH2 9347   4.415   3.670   2.489  0.2335  0.6147 -0.9122
 3114TIP3    H1 9348   4.342   3.664   2.551 -0.4815 -0.5016 -1.8229
 3114TIP3    H2 9349   4.473   3.598   2.514  0.3117  0.6264 -1.0628
 3115TIP3   OH2 9350   3.759   5.952   2.667 -0.0362 -0.3762  0.1953
 3115TIP3    H1 9351   3.851   5.931   2.648 -0.5506 -1.6373 -1.0438
 3115TIP3    H2 9352   3.749   5.931   2.760  0.9522 -0.0800  0.3857
 3116TIP3   OH2 9353   1.979   0.255   0.262 -0.2405  0.0536  0.1636
 3116TIP3    H1 9354   1.990   0.190   0.331  1.2244  0.3880  0.2762
 3116TIP3    H2 9355   1.962   0.203   0.183 -0.4811 -0.3949  0.5056
 3117TIP3   OH2 9356   5.000   4.061   1.091 -0.2711 -0.0871 -0.1691
 3117TIP3    H1 9357   5.052   3.990   1.129  0.8126  1.7063  1.9208
 3117TIP3    H2 9358   4.937   4.083   1.159 -1.9933 -0.3728 -1.6135
 3118TIP3   OH2 9359   6.288   0.671   0.088 -0.0665  0.0556 -0.4771
 3118TIP3    H1 9360   6.287   0.756   0.042 -0.5918  1.2703  1.6372
 3118TIP3    H2 9361   6.214   0.623   0.051 -0.7964  1.1976 -0.5510
 3119TIP3   OH2 9362   1.546   3.399   3.395 -0.0188 -0.6193 -0.1371
 3119TIP3    H1 9363   1.511   3.448   3.321 -0.4952 -0.0896  0.4283
 3119TIP3    H2 9364   1.472   3.391   3.455  0.6548 -0.0539  0.7812
 3120TIP3   OH2 9365   1.742   4.931   4.808  0.3379 -0.3348  0.2197
 3120TIP3    H1 9366   1.793   4.976   4.741  0.9917  0.0980  0.9835
 3120TIP3    H2 9367   1.713   4.850   4.767 -0.4791  0.5629 -1.0460
 3121TIP3   OH2 9368   0.104   4.390   4.017  0.0184  0.2105 -0.4647
 3121TIP3    H1 9369   0.110   4.309   4.067  0.6563  0.7681  0.3882
 3121TIP3    H2 9370   0.109   4.362   3.925  1.2985 -0.6369 -0.1595
 3122TIP3   OH2 9371   4.053   1.384   2.799  0.4309  0.3751 -0.1284
 3122TIP3    H1 9372   4.064   1.298   2.758  0.7256  0.0678  0.5806
 3122TIP3    H2 9373   3.969   1.378   2.845  0.7019  0.2882  0.3544
 3123TIP3   OH2 9374   5.409   4.611   2.733  0.1747 -0.1894 -0.0166
 3123TIP3    H1 9375   5.353   4.614   2.656  0.7626  0.4900 -0.4285
 3123TIP3    H2 9376   5.471   4.682   2.721 -0.2732  0.5078  1.5308
 3124TIP3   OH2 9377   2.752   2.873   5.035  0.0913  0.0255 -0.0982
 3124TIP3    H1 9378   2.745   2.926   4.956  1.5795 -0.4570 -0.5848
 3124TIP3    H2 9379   2.667   2.829   5.042 -1.0400  2.1425  0.1265
 3125TIP3   OH2 9380   3.524   2.110   0.463  0.0055  0.1338 -0.3013
 3125TIP3    H1 9381   3.525   2.144   0.553  0.0192  0.1889 -0.3221
 3125TIP3    H2 9382   3.605   2.144   0.424 -0.4220  0.8211 -0.6019
 3126TIP3   OH2 9383   6.290   0.494   0.658 -0.1942 -0.0491 -0.1073
 3126TIP3    H1 9384   6.208   0.447   0.674  0.0771 -0.3910  0.3211
 3126TIP3    H2 9385   6.278   0.579   0.701 -1.3676  1.0142 -2.3926
 3127TIP3   OH2 9386   0.102   4.101   2.442  0.2478 -0.2588 -0.1773
 3127TIP3    H1 9387   0.058   4.149   2.372  1.1193  0.2927 -0.3668
 3127TIP3    H2 9388   0.068   4.139   2.523  1.0785  0.8578 -0.3269
 3128TIP3   OH2 9389   1.289   3.358   3.548  0.2983 -0.0875 -0.1484
 3128TIP3    H1 9390   1.229   3.295   3.508  1.3816 -1.3662  0.1496
 3128TIP3    H2 9391   1.317   3.315   3.629 -0.0089  1.4099  0.7700
 3129TIP3   OH2 9392   3.676   5.781   4.226  0.1637  0.1520 -0.3744
 3129TIP3    H1 9393   3.628   5.830   4.293 -0.7656 -0.4188 -0.5972
 3129TIP3    H2 9394   3.716   5.848   4.171 -2.0486  0.7260 -1.3760
 3130TIP3   OH2 9395   5.280   4.722   2.949 -0.4143  0.2540 -0.3473
 3130TIP3    H1 9396   5.319   4.673   2.876  1.5945  1.8644 -0.4347
 3130TIP3    H2 9397   5.241   4.799   2.908 -2.8094 -0.7394 -0.1096
 3131TIP3   OH2 9398   0.710   0.117   0.843  0.3457 -0.1250 -0.3256
 3131TIP3    H1 9399   0.642   0.183   0.852  1.6898  0.9770  2.8262
 3131TIP3    H2 9400   0.773   0.156   0.783  0.7183  1.1240  0.8505
 3132TIP3   OH2 9401   2.931   3.115   4.497 -0.0075  0.0184 -0.2050
 3132TIP3    H1 9402   2.943   3.021   4.483 -1.2778 -0.5320  1.9172
 3132TIP3    H2 9403   2.917   3.123   4.591  1.3870  2.5193 -0.1215
 3133TIP3   OH2 9404   6.168   1.818   4.439 -0.0212  0.1252 -0.0971
 3133TIP3    H1 9405   6.124   1.869   4.507  0.6645 -0.8067  1.0880
 3133TIP3    H2 9406   6.241   1.874   4.411  0.8433 -0.2601  1.3322
 3134TIP3   OH2 9407   1.263   4.086   2.413  0.0451  0.1438  0.7380
 3134TIP3    H1 9408   1.202   4.014   2.427  1.0497 -1.9394 -3.8238
 3134TIP3    H2 9409   1.343   4.058   2.458 -0.2208 -0.5423  0.7886
 3135TIP3   OH2 9410   4.893   1.714   5.067 -0.2216 -0.2998 -0.0707
 3135TIP3    H1 9411   4.949   1.756   5.001 -0.1952  0.7282  0.5791
 3135TIP3    H2 9412   4.805   1.721   5.030 -0.0153 -1.2981 -0.7798
 3136TIP3   OH2 9413   2.392   4.673   0.918  0.0413  0.2063  0.3365
 3136TIP3    H1 9414   2.439   4.717   0.847  1.8606  0.2960  1.5226
 3136TIP3    H2 9415   2.394   4.580   0.894 -2.6374  0.5188 -1.5094
 3137TIP3   OH2 9416   0.766   1.056   2.799 -0.2193  0.0684  0.6377
 3137TIP3    H1 9417   0.727   0.971   2.779  1.4706 -0.5394 -0.2916
 3137TIP3    H2 9418   0.833   1.037   2.865  0.8290  0.4702 -0.2703
 3138TIP3   OH2 9419   5.350   5.902   1.526 -0.3855 -0.3306  0.9916
 3138TIP3    H1 9420   5.421   5.953   1.565 -1.0357 -0.1252  1.9536
 3138TIP3    H2 9421   5.323   5.953   1.450  0.0865 -0.0942  0.9797
 3139TIP3   OH2 9422   6.131   5.554   1.758  0.0480  0.1930  0.3661
 3139TIP3    H1 9423   6.206   5.566   1.816  2.3442 -0.2774 -2.2763
 3139TIP3    H2 9424   6.115   5.459   1.759  0.8729  0.0179 -0.5522
 3140TIP3   OH2 9425   1.633   4.134   0.852 -0.4364 -0.0398  0.1733
 3140TIP3    H1 9426   1.689   4.206   0.822 -0.8038 -0.1219 -0.7402
 3140TIP3    H2 9427   1.548   4.152   0.813 -0.5713 -0.8988  0.0467
 3141TIP3   OH2 9428   6.071   5.050   3.905  0.0068  0.1181 -0.2462
 3141TIP3    H1 9429   6.025   5.035   3.823  0.4055  0.5404 -0.5492
 3141TIP3    H2 9430   6.087   4.963   3.940  0.1573 -0.0778 -0.7949
 3142TIP3   OH2 9431   4.177   0.697   4.600 -0.1816 -0.4128 -0.1241
 3142TIP3    H1 9432   4.113   0.643   4.645 -0.1751  0.3099  0.7680
 3142TIP3    H2 9433   4.255   0.642   4.594 -1.1130 -1.6571 -2.0518
 3143TIP3   OH2 9434   5.227   4.274   3.253 -0.4655  0.2873 -0.4017
 3143TIP3    H1 9435   5.297   4.217   3.284 -0.7502  0.8073  1.2758
 3143TIP3    H2 9436   5.273   4.347   3.211 -0.0878 -0.6880 -1.7483
 3144TIP3   OH2 9437   4.954   2.839   4.531  0.3359 -0.0628 -0.4326
 3144TIP3    H1 9438   4.892   2.879   4.470 -0.5604 -0.0375  0.4733
 3144TIP3    H2 9439   4.904   2.828   4.613  1.0638 -1.4477 -0.1364
 3145TIP3   OH2 9440   2.226   1.640   2.826 -0.2481  0.4437 -0.3257
 3145TIP3    H1 9441   2.186   1.558   2.854  3.7863 -0.6409  3.2794
 3145TIP3    H2 9442   2.283   1.616   2.752  1.2089 -0.2365  0.9571
 3146TIP3   OH2 9443   0.105   2.009   1.670  0.0633  0.2329  0.6769
 3146TIP3    H1 9444   0.041   1.951   1.628  1.2096  0.9582 -2.3456
 3146TIP3    H2 9445   0.130   1.962   1.750 -0.7614 -2.3322 -0.4389
 3147TIP3   OH2 9446   4.864   3.665   2.861 -0.2890  0.1657 -0.4977
 3147TIP3    H1 9447   4.923   3.652   2.787 -0.3382 -2.0197 -0.2148
 3147TIP3    H2 9448   4.921   3.668   2.938 -0.3769  0.3334 -0.4389
 3148TIP3   OH2 9449   2.650   0.960   0.393  0.3895  0.3342  0.4728
 3148TIP3    H1 9450   2.672   0.892   0.457  1.0656  0.2716  0.1846
 3148TIP3    H2 9451   2.660   1.042   0.441 -1.0700  0.2227  1.0096
 3149TIP3   OH2 9452   3.592   4.752   3.406  0.4971 -0.2127  0.1084
 3149TIP3    H1 9453   3.557   4.807   3.477 -2.5706 -0.9975 -0.6384
 3149TIP3    H2 9454   3.593   4.664   3.442 -0.6677 -0.5515 -0.6291
 3150TIP3   OH2 9455   6.230   4.911   1.807 -0.1048 -0.3200 -0.7748
 3150TIP3    H1 9456   6.299   4.878   1.748  0.2829 -0.4800 -0.2379
 3150TIP3    H2 9457   6.243   4.863   1.889 -1.5614 -1.1698 -1.0094
 3151TIP3   OH2 9458   3.829   1.354   2.144 -0.1388  0.3086  0.1834
 3151TIP3    H1 9459   3.878   1.425   2.185 -1.6445  0.8290  1.1491
 3151TIP3    H2 9460   3.758   1.335   2.206 -1.0989 -0.4819 -1.1195
 3152TIP3   OH2 9461   4.955   0.419   2.437 -0.2095 -0.5509  0.3723
 3152TIP3    H1 9462   4.882   0.379   2.485 -0.9850  0.7654  0.3476
 3152TIP3    H2 9463   4.938   0.513   2.443 -0.3105 -0.3273 -2.4527
 3153TIP3   OH2 9464   5.189   2.665   1.340 -0.1975 -0.2198  0.1135
 3153TIP3    H1 9465   5.233   2.597   1.392  1.2228 -0.5977 -1.4849
 3153TIP3    H2 9466   5.190   2.742   1.396 -0.8897 -1.2167  1.5607
 3154TIP3   OH2 9467   5.582   3.325   2.291 -0.2814  0.4699  0.8281
 3154TIP3    H1 9468   5.552   3.325   2.382  2.6864 -0.0211  1.9036
 3154TIP3    H2 9469   5.627   3.408   2.280 -0.5725  0.5039 -0.2102
 3155TIP3   OH2 9470   1.284   2.786   1.299  0.3693 -0.4744 -0.1402
 3155TIP3    H1 9471   1.289   2.849   1.227 -1.3071 -0.8779 -0.6578
 3155TIP3    H2 9472   1.328   2.708   1.266  1.2510 -0.0386 -0.0105
 3156TIP3   OH2 9473   3.891   0.062   3.887 -0.4469 -0.1163  0.2478
 3156TIP3    H1 9474   3.896   0.137   3.829 -2.2881 -0.5923 -0.6291
 3156TIP3    H2 9475   3.858   0.098   3.970 -0.9306  0.1210 -0.0402
 3157TIP3   OH2 9476   2.116   2.892   0.334  0.3570 -0.1590  0.2965
 3157TIP3    H1 9477   2.108   2.955   0.406  0.8083  0.1474  0.0864
 3157TIP3    H2 9478   2.210   2.885   0.319  0.2394  0.6690 -1.0261
 3158TIP3   OH2 9479   2.326   5.468   0.556 -0.3315  0.0433  0.3055
 3158TIP3    H1 9480   2.362   5.480   0.644  0.0439 -1.5610  0.3923
 3158TIP3    H2 9481   2.393   5.420   0.509 -0.3870  1.1738 -0.9881
 3159TIP3   OH2 9482   4.323   4.759   0.504  0.4000  0.1245  0.2919
 3159TIP3    H1 9483   4.377   4.690   0.464  0.4668 -0.6142  1.6159
 3159TIP3    H2 9484   4.267   4.712   0.566 -2.4710  0.7311 -1.6654
 3160TIP3   OH2 9485   4.370   1.620   4.411 -0.1522  0.7889  0.2061
 3160TIP3    H1 9486   4.397   1.530   4.393 -1.9153  0.5607 -1.6139
 3160TIP3    H2 9487   4.410   1.672   4.341  0.5308  1.3976  1.0242
 3161TIP3   OH2 9488   4.694   2.262   4.697  0.1864 -0.2755 -0.2296
 3161TIP3    H1 9489   4.635   2.188   4.684  1.0358 -0.9461 -0.4189
 3161TIP3    H2 9490   4.690   2.281   4.791 -1.6661  0.8658 -0.4932
 3162TIP3   OH2 9491   4.922   5.034   0.956  0.1416  0.6537 -0.3633
 3162TIP3    H1 9492   4.989   4.986   0.908 -0.6722 -1.4673  0.5258
 3162TIP3    H2 9493   4.961   5.051   1.042 -0.0189  0.4832 -0.2555
 3163TIP3   OH2 9494   3.714   3.569   3.372  0.0151  0.0338 -0.2281
 3163TIP3    H1 9495   3.740   3.659   3.392 -0.6617  0.0425  0.6578
 3163TIP3    H2 9496   3.623   3.563   3.401 -0.1734 -0.7357 -0.9385
 3164TIP3   OH2 9497   2.843   5.550   4.314  0.0569  0.1471 -0.2345
 3164TIP3    H1 9498   2.849   5.625   4.254  1.4720  0.0642 -0.2234
 3164TIP3    H2 9499   2.864   5.587   4.400 -2.1898  0.3131  0.3079
 3165TIP3   OH2 9500   1.273   3.981   3.557  0.8450  0.6214  0.1568
 3165TIP3    H1 9501   1.218   3.926   3.502 -0.7101  0.0632  2.1620
 3165TIP3    H2 9502   1.273   3.938   3.642  1.4579  2.5139  1.1686
 3166TIP3   OH2 9503   5.549   2.862   5.091  0.2800  0.1946 -0.3966
 3166TIP3    H1 9504   5.511   2.785   5.048  0.5641 -0.1028 -0.1241
 3166TIP3    H2 9505   5.633   2.831   5.125  0.2531  0.5411 -0.0056
 3167TIP3   OH2 9506   1.671   5.075   1.346  0.0541  0.7938 -0.3646
 3167TIP3    H1 9507   1.616   5.065   1.268  0.9895  1.0661 -1.0641
 3167TIP3    H2 9508   1.623   5.138   1.401 -1.3741 -0.5376  0.0114
 3168TIP3   OH2 9509   0.142   3.042   1.330 -0.2944 -0.7947  0.3993
 3168TIP3    H1 9510   0.068   3.025   1.271 -0.4654 -0.2702  0.4557
 3168TIP3    H2 9511   0.215   2.996   1.290 -0.4224 -0.4865 -0.2095
 3169TIP3   OH2 9512   3.929   0.314   3.770  0.5697 -0.0414 -0.3496
 3169TIP3    H1 9513   3.977   0.393   3.797 -1.9818  1.5201 -0.0857
 3169TIP3    H2 9514   3.907   0.330   3.678  0.6776 -0.7963 -0.5062
 3170TIP3   OH2 9515   3.800   5.636   2.940  0.5318 -0.3034 -0.1527
 3170TIP3    H1 9516   3.764   5.588   2.866  0.3956 -1.9894  0.9305
 3170TIP3    H2 9517   3.770   5.726   2.928  0.3633 -0.5675 -2.0111
 3171TIP3   OH2 9518   4.333   5.689   1.519  0.4930  0.2069  0.0139
 3171TIP3    H1 9519   4.409   5.748   1.527 -0.7112  2.0789 -1.4475
 3171TIP3    H2 9520   4.371   5.601   1.524  2.5411  1.0672  1.0050
 3172TIP3   OH2 9521   0.667   2.666   2.093 -0.7104 -0.4635 -0.3057
 3172TIP3    H1 9522   0.618   2.734   2.139 -1.7496 -2.0159  1.0204
 3172TIP3    H2 9523   0.740   2.712   2.052 -0.5122  1.2098  1.7778
 3173TIP3   OH2 9524   0.658   0.553   1.282 -0.2673  0.2399 -0.4309
 3173TIP3    H1 9525   0.722   0.484   1.298 -0.4918  0.4686  1.6328
 3173TIP3    H2 9526   0.700   0.610   1.217  1.1425 -0.2526  0.0092
 3174TIP3   OH2 9527   1.566   1.442   3.578  0.4653  0.4531  0.1891
 3174TIP3    H1 9528   1.507   1.385   3.528  2.2450 -0.1356 -1.3194
 3174TIP3    H2 9529   1.540   1.531   3.553  1.7099  0.1806 -2.3882
 3175TIP3   OH2 9530   0.708   0.932   4.805 -0.5022  0.3796  0.2607
 3175TIP3    H1 9531   0.741   1.019   4.830 -2.3750  0.9998  0.7836
 3175TIP3    H2 9532   0.647   0.950   4.734  0.1720 -0.7081 -0.6167
 3176TIP3   OH2 9533   0.123   5.161   5.033  0.7666  0.0029 -0.6023
 3176TIP3    H1 9534   0.196   5.134   5.090  0.7590  1.5610  0.1927
 3176TIP3    H2 9535   0.101   5.249   5.063 -1.3978 -0.3985 -0.8838
 3177TIP3   OH2 9536   2.207   5.739   3.467 -0.3768  0.7182  0.0026
 3177TIP3    H1 9537   2.263   5.717   3.393 -0.1270  0.4368  0.2705
 3177TIP3    H2 9538   2.204   5.835   3.468  0.6506  0.7582  0.3910
 3178TIP3   OH2 9539   0.941   1.919   2.037 -0.7110  0.2864  0.3143
 3178TIP3    H1 9540   0.974   1.921   1.947 -0.7781 -0.0679  0.2796
 3178TIP3    H2 9541   1.020   1.920   2.092 -0.6104 -0.9506  0.2266
 3179TIP3   OH2 9542   2.444   0.118   4.525  0.0038  0.5762 -0.2254
 3179TIP3    H1 9543   2.508   0.082   4.464 -0.9946 -0.1236 -0.8843
 3179TIP3    H2 9544   2.445   0.212   4.508 -1.1165  0.2882 -2.2202
 3180TIP3   OH2 9545   5.582   0.796   3.605  0.7295 -0.5550  0.3422
 3180TIP3    H1 9546   5.567   0.805   3.699  1.8217 -0.8423  0.5624
 3180TIP3    H2 9547   5.590   0.702   3.590  1.6292 -0.4674  0.1656
 3181TIP3   OH2 9548   1.447   2.886   1.511 -0.2225  0.1154 -0.5137
 3181TIP3    H1 9549   1.482   2.803   1.542  0.1539  0.8010  0.9731
 3181TIP3    H2 9550   1.381   2.862   1.446  0.4251 -1.3073 -0.6797
 3182TIP3   OH2 9551   6.262   1.588   0.421 -0.1782 -0.2533 -0.0427
 3182TIP3    H1 9552   6.302   1.606   0.335 -1.1499  0.7571 -0.3177
 3182TIP3    H2 9553   6.292   1.501   0.444  0.2645 -0.4664 -1.3323
 3183TIP3   OH2 9554   2.890   0.389   3.964 -0.0320 -0.5124  0.3848
 3183TIP3    H1 9555   2.963   0.450   3.974 -0.4761 -0.1559  1.5381
 3183TIP3    H2 9556   2.931   0.308   3.931  0.4056  0.7196 -2.3748
 3184TIP3   OH2 9557   2.617  -0.008   3.850  0.2180 -0.1992  0.2315
 3184TIP3    H1 9558   2.549  -0.054   3.898 -0.3859  0.6293  0.1787
 3184TIP3    H2 9559   2.587   0.083   3.846  0.5903 -0.1146 -1.0880
 3185TIP3   OH2 9560   3.082   1.691   1.826  0.4509 -0.2871 -0.2583
 3185TIP3    H1 9561   3.045   1.658   1.744 -0.2671 -0.1593  0.0054
 3185TIP3    H2 9562   3.156   1.745   1.799 -0.5627  0.8223 -0.9211
 3186TIP3   OH2 9563   0.119   5.396   4.740 -0.2388 -0.0688 -0.1831
 3186TIP3    H1 9564   0.090   5.328   4.801 -0.8601  0.7037  0.3982
 3186TIP3    H2 9565   0.060   5.469   4.756  0.0037  0.3775 -1.2737
 3187TIP3   OH2 9566   4.221   2.261   4.078  0.0027 -0.1229 -0.1904
 3187TIP3    H1 9567   4.226   2.245   4.172 -1.4941 -1.8188 -0.3470
 3187TIP3    H2 9568   4.313   2.264   4.050  0.4683 -1.8118  0.9939
 3188TIP3   OH2 9569   5.966   0.895   2.338  0.0214  0.3273  0.3911
 3188TIP3    H1 9570   6.026   0.846   2.283 -3.5789 -2.5282 -1.4664
 3188TIP3    H2 9571   5.954   0.979   2.293 -0.4393 -0.7184 -1.5442
 3189TIP3   OH2 9572   0.357   5.529   3.469  1.0239 -0.3658 -0.4593
 3189TIP3    H1 9573   0.267   5.500   3.455  1.4242 -1.5672 -0.6865
 3189TIP3    H2 9574   0.372   5.514   3.562  0.4075  1.6116 -0.0035
 3190TIP3   OH2 9575   3.855   0.715   4.450 -0.0899 -0.0865 -0.5050
 3190TIP3    H1 9576   3.775   0.748   4.409 -0.6592  0.2277  0.7851
 3190TIP3    H2 9577   3.924   0.774   4.421 -0.2307 -0.5990 -1.9599
 3191TIP3   OH2 9578   3.600   2.633   3.229  0.1309 -0.5551 -0.6727
 3191TIP3    H1 9579   3.663   2.679   3.283  1.0710 -0.8517 -1.4923
 3191TIP3    H2 9580   3.515   2.653   3.269  0.5631  1.2777 -0.5745
 3192TIP3   OH2 9581   0.621   3.440   1.906  0.3898  0.3795 -0.1635
 3192TIP3    H1 9582   0.543   3.492   1.888  0.1611 -0.7759 -2.8902
 3192TIP3    H2 9583   0.666   3.432   1.822  0.6740 -3.3295  0.1593
 3193TIP3   OH2 9584   0.589   5.824   0.259  0.4830  0.3143 -0.5616
 3193TIP3    H1 9585   0.575   5.732   0.238  1.2103 -0.3800  1.7115
 3193TIP3    H2 9586   0.539   5.838   0.340 -1.1806  2.4778 -1.8207
 3194TIP3   OH2 9587   1.186   2.318   1.704 -0.0118  0.1308  0.2260
 3194TIP3    H1 9588   1.213   2.333   1.795  0.7088 -2.9190  0.6230
 3194TIP3    H2 9589   1.100   2.278   1.711 -0.6541  1.2953 -0.5811
 3195TIP3   OH2 9590   1.403   3.951   1.542  0.0446 -0.1277  0.2119
 3195TIP3    H1 9591   1.424   3.988   1.456  1.3056 -0.5183  0.3404
 3195TIP3    H2 9592   1.445   4.010   1.605  1.2183 -1.1798  0.4552
 3196TIP3   OH2 9593   4.534   3.188   3.742 -0.1823  0.1513  0.0930
 3196TIP3    H1 9594   4.514   3.178   3.649  1.2394  1.4962 -0.4015
 3196TIP3    H2 9595   4.563   3.101   3.769  0.6129  0.0275 -1.0664
 3197TIP3   OH2 9596   4.735   5.787   1.374  0.2243 -0.5833  0.1446
 3197TIP3    H1 9597   4.680   5.727   1.424  0.4358 -1.3840 -0.5661
 3197TIP3    H2 9598   4.776   5.732   1.307 -0.2637  0.4973 -1.0906
 3198TIP3   OH2 9599   4.501   0.425   0.990 -0.5226 -0.2169 -0.1583
 3198TIP3    H1 9600   4.513   0.333   1.011  0.9040 -0.4880 -1.9657
 3198TIP3    H2 9601   4.585   0.453   0.953 -0.2519  2.3331  2.0016
 3199TIP3   OH2 9602   3.749   5.644   0.343 -0.6615  0.1741 -0.4441
 3199TIP3    H1 9603   3.704   5.725   0.367 -0.9176  0.5735 -2.1324
 3199TIP3    H2 9604   3.736   5.636   0.248  2.5360  0.1410 -1.0044
 3200TIP3   OH2 9605   4.590   1.073   3.808 -0.6878  0.0361  0.7344
 3200TIP3    H1 9606   4.665   1.020   3.780 -0.4923  0.0526  1.2223
 3200TIP3    H2 9607   4.584   1.058   3.902 -2.2928 -1.2288  0.4541
 3201TIP3   OH2 9608   4.873   5.431   2.350 -0.4541 -0.0736  0.1991
 3201TIP3    H1 9609   4.958   5.397   2.322  0.3398  1.5553  0.4832
 3201TIP3    H2 9610   4.824   5.442   2.269 -0.3174 -0.8505  0.0106
 3202TIP3   OH2 9611   5.576   0.059   0.608  0.1995 -0.0853 -0.0800
 3202TIP3    H1 9612   5.496   0.093   0.568 -0.8915 -0.5671  1.5804
 3202TIP3    H2 9613   5.622   0.015   0.536 -1.4158 -0.4747 -0.9273
 3203TIP3   OH2 9614   0.223   5.278   4.178 -1.0355  0.2110 -0.0114
 3203TIP3    H1 9615   0.167   5.222   4.230 -1.7400 -0.4507 -1.4384
 3203TIP3    H2 9616   0.213   5.365   4.217 -2.8706  0.0638 -0.0909
 3204TIP3   OH2 9617   6.167   4.490   3.284 -0.0580 -0.8266  0.7775
 3204TIP3    H1 9618   6.140   4.550   3.213  0.9318 -0.2246  0.8955
 3204TIP3    H2 9619   6.096   4.497   3.348 -0.9978 -1.4216 -0.1588
 3205TIP3   OH2 9620   2.374   0.855   0.453  0.4202  0.1950 -0.0601
 3205TIP3    H1 9621   2.422   0.814   0.525  0.5954  1.0223  0.2947
 3205TIP3    H2 9622   2.433   0.921   0.419  0.4317 -0.3416 -1.1244
 3206TIP3   OH2 9623   5.808   2.773   3.490  0.7185  0.3527 -0.0693
 3206TIP3    H1 9624   5.762   2.756   3.572  1.0369 -1.5983 -0.2218
 3206TIP3    H2 9625   5.858   2.692   3.475  2.8457  1.7269 -0.7713
 3207TIP3   OH2 9626   4.272   5.861   3.122  0.4372 -0.2886 -0.5465
 3207TIP3    H1 9627   4.255   5.941   3.172  0.0864  0.3265 -1.6311
 3207TIP3    H2 9628   4.219   5.870   3.043 -0.9605 -2.3636  0.0528
 3208TIP3   OH2 9629   6.252   1.097   1.239  0.6191  0.3533  0.4728
 3208TIP3    H1 9630   6.191   1.093   1.312 -0.7735 -1.7651 -0.6932
 3208TIP3    H2 9631   6.239   1.183   1.200 -2.8530 -0.5305 -0.6543
 3209TIP3   OH2 9632   3.239   1.046   0.974 -0.5322  0.1155  0.5297
 3209TIP3    H1 9633   3.305   0.978   0.990  0.0311  0.7203  0.8294
 3209TIP3    H2 9634   3.231   1.092   1.057  1.2296  2.2536 -0.3742
 3210TIP3   OH2 9635   5.212   3.386   4.694  0.4809  0.1172  0.6960
 3210TIP3    H1 9636   5.212   3.475   4.730 -1.1601  0.9166 -1.1200
 3210TIP3    H2 9637   5.277   3.389   4.623 -0.4791  0.2659 -0.1974
 3211TIP3   OH2 9638   5.077   1.832   0.052 -0.0197  0.0513 -0.0348
 3211TIP3    H1 9639   5.107   1.827   0.142 -2.7897 -0.6545  0.9616
 3211TIP3    H2 9640   5.110   1.752   0.011 -0.3815 -0.6269  0.9546
 3212TIP3   OH2 9641   0.467   2.425   2.280  0.1183  0.3326 -0.7251
 3212TIP3    H1 9642   0.516   2.496   2.322  0.4148  0.6189 -1.5470
 3212TIP3    H2 9643   0.501   2.345   2.320 -0.7135  0.6575  0.7346
 3213TIP3   OH2 9644   5.736   3.419   4.822  0.2968 -0.4413 -0.2286
 3213TIP3    H1 9645   5.811   3.470   4.851 -0.5209  0.8458 -0.2970
 3213TIP3    H2 9646   5.663   3.452   4.875 -0.6648 -0.0309 -1.7578
 3214TIP3   OH2 9647   1.793   3.401   3.489 -0.0179  0.5427  0.7048
 3214TIP3    H1 9648   1.756   3.345   3.558  1.4511 -2.8435 -1.0587
 3214TIP3    H2 9649   1.733   3.392   3.415  1.1948 -0.2322 -0.2162
 3215TIP3   OH2 9650   4.699   3.893   2.829  0.2145 -0.4903 -0.5289
 3215TIP3    H1 9651   4.743   3.809   2.815  0.0227 -0.6313 -0.2752
 3215TIP3    H2 9652   4.686   3.898   2.923 -0.0818 -0.3300 -0.5780
 3216TIP3   OH2 9653   1.581   2.371   4.034 -0.4641 -0.5942 -0.0906
 3216TIP3    H1 9654   1.499   2.374   4.084 -0.3322 -2.2739  0.2717
 3216TIP3    H2 9655   1.642   2.322   4.089  0.9082  0.8798 -0.2321
 3217TIP3   OH2 9656   5.891   1.051   2.791  0.3144  0.1814 -0.0386
 3217TIP3    H1 9657   5.874   1.070   2.698  1.3741 -0.9006 -0.4898
 3217TIP3    H2 9658   5.838   1.115   2.839 -1.6452 -0.3736 -1.3470
 3218TIP3   OH2 9659   1.308   3.913   1.846  0.0220  0.3695  0.1020
 3218TIP3    H1 9660   1.396   3.886   1.821 -0.0759  0.0389  0.1165
 3218TIP3    H2 9661   1.270   3.836   1.889 -0.7229  0.1011 -1.0100
 3219TIP3   OH2 9662   0.019   5.390   5.122 -0.2207  0.6071  0.5780
 3219TIP3    H1 9663  -0.064   5.421   5.085 -1.2522 -1.6835  0.8410
 3219TIP3    H2 9664   0.064   5.470   5.148 -1.3682  2.0638 -1.5737
 3220TIP3   OH2 9665   3.050   0.286   0.363 -0.0283 -0.2219  0.0246
 3220TIP3    H1 9666   2.977   0.244   0.408  0.6901 -1.7556 -0.1928
 3220TIP3    H2 9667   3.112   0.216   0.345  1.3018  0.9569 -0.2316
 3221TIP3   OH2 9668   5.860   2.636   4.630 -0.4784 -0.7060 -0.5890
 3221TIP3    H1 9669   5.843   2.729   4.645 -0.6654 -0.8826  0.4090
 3221TIP3    H2 9670   5.789   2.607   4.572 -0.3227 -0.1914 -1.0345
 3222TIP3   OH2 9671   2.303   2.815   1.304 -0.1882  0.2317 -0.1505
 3222TIP3    H1 9672   2.302   2.725   1.338 -3.3849  0.4055  0.5452
 3222TIP3    H2 9673   2.355   2.810   1.224 -0.2023 -2.2215 -0.0879
 3223TIP3   OH2 9674   2.157   5.983   0.656 -0.3277  0.2070 -0.5064
 3223TIP3    H1 9675   2.103   5.904   0.666  0.2705 -0.4363 -2.0208
 3223TIP3    H2 9676   2.227   5.956   0.597  0.9641  1.3758  0.4293
 3224TIP3   OH2 9677   0.659   1.485   0.151  0.5510  0.3196 -0.4048
 3224TIP3    H1 9678   0.618   1.571   0.163  0.8975  0.3203  0.9255
 3224TIP3    H2 9679   0.753   1.503   0.145  0.8612 -0.0849  2.0964
 3225TIP3   OH2 9680   4.195   2.283   0.206  0.1552 -0.3116 -0.2007
 3225TIP3    H1 9681   4.137   2.347   0.247  2.6838  1.3914  1.0036
 3225TIP3    H2 9682   4.200   2.310   0.115 -0.7534 -0.3803 -0.2831
 3226TIP3   OH2 9683   5.283   1.205   3.715  0.2795 -0.3013 -0.2457
 3226TIP3    H1 9684   5.196   1.166   3.724 -0.3193  1.0738  0.1429
 3226TIP3    H2 9685   5.299   1.248   3.799  0.2520  1.5614 -1.1474
 3227TIP3   OH2 9686   0.809   1.201   4.865  0.3423  0.0318 -0.3939
 3227TIP3    H1 9687   0.785   1.286   4.903  1.5697  0.1932  0.0826
 3227TIP3    H2 9688   0.895   1.182   4.903  0.0336 -1.4921 -0.4018
 3228TIP3   OH2 9689   1.878   2.616   4.147 -0.1382 -0.1926  0.2851
 3228TIP3    H1 9690   1.886   2.594   4.054 -1.0230 -0.7886  0.3370
 3228TIP3    H2 9691   1.815   2.689   4.148 -0.2048 -0.2531  0.4240
 3229TIP3   OH2 9692   4.105   2.911   1.691  0.2100  0.2852  0.4757
 3229TIP3    H1 9693   4.054   2.867   1.623  0.1780  1.1977 -0.1124
 3229TIP3    H2 9694   4.196   2.887   1.671  0.0846 -0.8004  1.1261
 3230TIP3   OH2 9695   6.091   2.901   1.893 -0.1130 -1.0262  0.1868
 3230TIP3    H1 9696   6.164   2.963   1.889 -1.2794  0.6888  2.9664
 3230TIP3    H2 9697   6.122   2.824   1.844  2.4741  0.6485 -0.9964
 3231TIP3   OH2 9698   3.176   4.362   2.194 -0.2796 -0.4587  0.1583
 3231TIP3    H1 9699   3.206   4.424   2.128 -2.0183  0.0602 -0.2093
 3231TIP3    H2 9700   3.211   4.278   2.166  1.2532  0.1643  0.0921
 3232TIP3   OH2 9701   2.170   3.527   4.184  0.0039 -0.0436  0.0307
 3232TIP3    H1 9702   2.155   3.532   4.278 -1.1505  1.1178 -0.1847
 3232TIP3    H2 9703   2.084   3.539   4.145  0.6747  1.1661 -1.1845
 3233TIP3   OH2 9704   5.231   2.531   0.063 -0.5520 -0.3217  0.5246
 3233TIP3    H1 9705   5.146   2.558   0.027 -0.5819  0.5312  1.2086
 3233TIP3    H2 9706   5.276   2.490  -0.011 -1.4911 -0.6508  0.1126
 3234TIP3   OH2 9707   1.767   3.909   5.017  0.2763 -0.1728 -0.3190
 3234TIP3    H1 9708   1.862   3.917   5.024  0.1009  0.6941  2.0750
 3234TIP3    H2 9709   1.746   3.948   4.932  2.1770 -2.3161 -1.9098
 3235TIP3   OH2 9710   6.171   5.422   0.504 -0.2697  0.1406  0.1784
 3235TIP3    H1 9711   6.076   5.430   0.502 -0.2968 -0.2222 -0.3377
 3235TIP3    H2 9712   6.197   5.416   0.412  0.1397 -0.9083  0.3439
 3236TIP3   OH2 9713  -0.023   1.300   0.483 -0.1623  0.6049  0.5259
 3236TIP3    H1 9714  -0.040   1.259   0.568  1.2902 -0.1231  0.5013
 3236TIP3    H2 9715   0.067   1.333   0.490  0.4725 -0.6458 -1.1541
 3237TIP3   OH2 9716   5.401   2.075   3.458 -0.4574  0.0594  0.0865
 3237TIP3    H1 9717   5.332   2.066   3.393  0.3431 -2.8643 -0.4778
 3237TIP3    H2 9718   5.360   2.050   3.541 -0.3522 -0.6140 -0.0634
 3238TIP3   OH2 9719   3.892   3.979   0.906 -0.6926  0.4005 -0.4409
 3238TIP3    H1 9720   3.842   3.913   0.954  0.5519  0.1980  0.6592
 3238TIP3    H2 9721   3.938   3.929   0.838 -0.8539  0.3554 -0.5168
 3239TIP3   OH2 9722   2.831   3.315   1.731 -0.4037  0.2074 -0.4123
 3239TIP3    H1 9723   2.823   3.297   1.824  0.7468  1.4685 -0.0405
 3239TIP3    H2 9724   2.826   3.229   1.689  1.4720 -0.6371  0.9920
 3240TIP3   OH2 9725   4.272   3.889   3.752  0.0831  0.0489 -0.1095
 3240TIP3    H1 9726   4.326   3.968   3.760  0.6720 -0.5461  2.4758
 3240TIP3    H2 9727   4.326   3.829   3.700  0.6106  0.5174 -0.1171
 3241TIP3   OH2 9728   3.863   2.159   1.204  0.3294 -0.3447  0.1260
 3241TIP3    H1 9729   3.946   2.111   1.214  0.2689 -0.1838  1.6408
 3241TIP3    H2 9730   3.883   2.226   1.139  0.6884 -1.7768 -1.3214
 3242TIP3   OH2 9731   0.262   4.156   2.739 -0.0097 -0.4570  0.4953
 3242TIP3    H1 9732   0.191   4.192   2.687 -0.6836 -1.1461  0.9110
 3242TIP3    H2 9733   0.299   4.086   2.685  0.3746 -0.0764  0.2656
 3243TIP3   OH2 9734   3.920   5.757   3.167 -0.3843  0.2461  0.1733
 3243TIP3    H1 9735   3.907   5.849   3.145  1.6202  0.7331  0.9264
 3243TIP3    H2 9736   3.894   5.710   3.087 -1.1180  1.4581 -0.3257
 3244TIP3   OH2 9737   2.010   2.580   0.078  0.0965 -0.1260  0.0345
 3244TIP3    H1 9738   1.922   2.597   0.111  0.5869  0.8295  0.9202
 3244TIP3    H2 9739   2.043   2.508   0.132  1.5826  2.6286  3.1018
 3245TIP3   OH2 9740   5.488   2.139   2.872 -0.1404  0.2047  0.8133
 3245TIP3    H1 9741   5.550   2.189   2.926 -0.8938  1.0955  0.8753
 3245TIP3    H2 9742   5.402   2.162   2.907 -0.7060  1.3333 -1.1768
 3246TIP3   OH2 9743   2.729   3.992   1.804  0.3426 -0.2320 -0.9085
 3246TIP3    H1 9744   2.749   4.061   1.741 -0.3114  0.1389 -0.7093
 3246TIP3    H2 9745   2.646   3.955   1.774 -0.2678  0.3253  0.0428
 3247TIP3   OH2 9746   2.210   3.497   0.253 -0.6843  0.1558 -0.2841
 3247TIP3    H1 9747   2.232   3.558   0.183 -1.4769  1.1009  0.2587
 3247TIP3    H2 9748   2.293   3.454   0.275  0.1146  1.7539 -0.0148
 3248TIP3   OH2 9749   4.186   0.527   2.299 -0.3058 -0.2629  0.2179
 3248TIP3    H1 9750   4.210   0.572   2.380 -1.5070  1.1069 -0.1394
 3248TIP3    H2 9751   4.265   0.480   2.273  0.3734 -0.0005  1.6947
 3249TIP3   OH2 9752   5.931   5.092   4.156  0.0959  0.1823 -0.1607
 3249TIP3    H1 9753   5.949   5.072   4.064  1.1549 -0.2171  0.1132
 3249TIP3    H2 9754   5.852   5.145   4.154 -0.0151  0.0041 -1.2868
 3250TIP3   OH2 9755   0.848   3.984   0.311  0.0259 -0.0885 -0.0124
 3250TIP3    H1 9756   0.823   4.019   0.397 -0.6316 -2.3237  0.7775
 3250TIP3    H2 9757   0.850   3.889   0.324 -0.1542 -0.4878 -2.5032
 3251TIP3   OH2 9758   0.976   1.011   3.790  0.0018  0.7777 -0.4509
 3251TIP3    H1 9759   0.967   1.090   3.843 -0.7368  0.7314 -0.4936
 3251TIP3    H2 9760   0.920   1.026   3.714 -1.9494 -0.6574  0.5999
 3252TIP3   OH2 9761   6.226   1.584   2.906 -0.0328  0.4355 -0.4591
 3252TIP3    H1 9762   6.156   1.601   2.970  0.9575  0.4926  0.6455
 3252TIP3    H2 9763   6.227   1.489   2.897 -1.1226  0.5050 -1.5035
 3253TIP3   OH2 9764   0.050   4.486   2.293  0.4616 -0.6856  0.1782
 3253TIP3    H1 9765   0.143   4.492   2.315  0.5330 -1.4826  0.1032
 3253TIP3    H2 9766   0.045   4.514   2.202  0.4071  0.8551  0.6219
 3254TIP3   OH2 9767   3.027   5.445   1.735 -0.1810 -0.1148  0.6054
 3254TIP3    H1 9768   2.957   5.509   1.727  0.1550  0.5498  2.4935
 3254TIP3    H2 9769   3.036   5.430   1.829  1.1749 -1.3542  0.3272
 3255TIP3   OH2 9770   3.101   3.373   4.207 -0.0998  0.6833 -0.2087
 3255TIP3    H1 9771   3.184   3.342   4.171  0.4105  1.3832  0.3282
 3255TIP3    H2 9772   3.125   3.417   4.288 -0.9419  1.3120 -0.2827
 3256TIP3   OH2 9773   3.294   5.424   3.646 -0.1592 -0.2111  0.6168
 3256TIP3    H1 9774   3.295   5.353   3.710  0.7048  0.1266  0.9900
 3256TIP3    H2 9775   3.386   5.443   3.630 -0.3574 -0.3880 -0.8527
 3257TIP3   OH2 9776   3.133   3.730   3.299  0.0660 -0.0732 -0.1948
 3257TIP3    H1 9777   3.154   3.649   3.252 -0.8327  0.0593 -0.8534
 3257TIP3    H2 9778   3.116   3.794   3.230 -0.9546  0.2186  0.3062
 3258TIP3   OH2 9779   3.060   1.041   4.466  0.7037 -0.1089  0.1028
 3258TIP3    H1 9780   3.004   1.068   4.538 -0.5169 -1.3198 -0.3547
 3258TIP3    H2 9781   3.147   1.030   4.506 -0.0246 -1.1406  1.5097
 3259TIP3   OH2 9782   2.567   4.571   1.698 -0.2940 -0.2601 -0.7797
 3259TIP3    H1 9783   2.656   4.566   1.664 -0.2564  0.4652 -0.8026
 3259TIP3    H2 9784   2.550   4.665   1.707 -0.4948 -0.4121  0.6856
 3260TIP3   OH2 9785   4.799   1.630   4.410 -0.3759  0.4223  0.1130
 3260TIP3    H1 9786   4.756   1.666   4.332 -1.9953 -0.2386  0.6543
 3260TIP3    H2 9787   4.745   1.554   4.434  1.0413 -0.3650  0.9272
 3261TIP3   OH2 9788   0.807   3.956   4.869 -0.6594 -0.3008 -0.0647
 3261TIP3    H1 9789   0.813   4.012   4.946 -1.8720  3.0213 -2.1730
 3261TIP3    H2 9790   0.898   3.939   4.845 -0.0351  3.3894 -0.9374
 3262TIP3   OH2 9791   3.713   0.435   3.604  0.2867 -1.0243 -0.1965
 3262TIP3    H1 9792   3.684   0.387   3.527 -2.3392  1.6767 -1.0843
 3262TIP3    H2 9793   3.770   0.504   3.569 -2.6743  1.6369 -0.2827
 3263TIP3   OH2 9794   0.342   3.650   0.433 -0.5853  0.1127 -0.1157
 3263TIP3    H1 9795   0.403   3.664   0.506 -0.0077  0.9170 -0.7386
 3263TIP3    H2 9796   0.284   3.726   0.436  0.6763  1.1984 -1.6781
 3264TIP3   OH2 9797   5.773   3.196   2.624 -0.3239 -0.1799 -0.3884
 3264TIP3    H1 9798   5.853   3.237   2.656 -0.5608 -0.0231  0.0056
 3264TIP3    H2 9799   5.774   3.108   2.662 -0.3199 -0.1945 -0.4213
 3265TIP3   OH2 9800   4.679   2.466   0.174  0.3880  0.0091  0.5577
 3265TIP3    H1 9801   4.678   2.487   0.081  0.4161  1.7729  0.9147
 3265TIP3    H2 9802   4.622   2.389   0.182 -1.6764  1.3215 -0.6175
 3266TIP3   OH2 9803   4.171   2.326   0.813  0.2525  0.5908 -0.5832
 3266TIP3    H1 9804   4.207   2.258   0.756  0.1893  0.5097 -0.5264
 3266TIP3    H2 9805   4.238   2.340   0.879 -0.3212 -0.4235  0.2355
 3267TIP3   OH2 9806   3.969   0.977   1.282 -0.0646  0.1464  0.1690
 3267TIP3    H1 9807   3.886   0.961   1.327 -0.5005 -1.7375 -1.1945
 3267TIP3    H2 9808   3.946   1.034   1.208 -1.0241 -3.2760 -2.4468
 3268TIP3   OH2 9809   6.241   1.614   3.499 -0.2284 -0.7285 -0.0000
 3268TIP3    H1 9810   6.234   1.614   3.595 -0.1571 -1.1276  0.0095
 3268TIP3    H2 9811   6.334   1.600   3.482 -0.4215 -2.0141 -0.1213
 3269TIP3   OH2 9812   1.065   3.273   0.968 -0.1427  0.8415 -0.6693
 3269TIP3    H1 9813   0.994   3.221   1.004 -0.8656  0.1082 -2.9561
 3269TIP3    H2 9814   1.024   3.356   0.943  0.5424  1.7119  0.9339
 3270TIP3   OH2 9815   2.571   0.833   4.219  0.0149  0.0058  0.5355
 3270TIP3    H1 9816   2.537   0.907   4.170 -0.1188 -0.3693  0.0529
 3270TIP3    H2 9817   2.501   0.812   4.282 -0.6346 -0.6979 -0.3863
 3271TIP3   OH2 9818   5.049   5.869   2.846 -0.4157 -0.5216 -0.3948
 3271TIP3    H1 9819   4.966   5.893   2.886  0.1058 -1.4050  1.3256
 3271TIP3    H2 9820   5.089   5.808   2.908  2.8157  1.9787  0.2743
 3272TIP3   OH2 9821   6.280   4.827   2.490  0.0448 -0.5267 -0.2153
 3272TIP3    H1 9822   6.226   4.868   2.557 -0.5393 -0.9203 -0.4384
 3272TIP3    H2 9823   6.248   4.737   2.483  0.1421 -0.5170 -0.9686
 3273TIP3   OH2 9824   6.041   4.729   0.233 -0.2635 -0.0089 -0.2123
 3273TIP3    H1 9825   6.060   4.819   0.259 -0.2262  0.1495 -0.7594
 3273TIP3    H2 9826   5.974   4.738   0.165 -0.3624 -0.4049 -0.1710
 3274TIP3   OH2 9827   1.815   1.374   3.948  0.3297  0.0855  0.0059
 3274TIP3    H1 9828   1.735   1.406   3.907  0.3865 -1.6820 -1.6466
 3274TIP3    H2 9829   1.879   1.370   3.877  1.2110 -0.6965  0.8051
 3275TIP3   OH2 9830   5.021   3.098   1.099 -0.4006  0.3734 -0.2739
 3275TIP3    H1 9831   4.994   3.152   1.174 -0.0558  1.8922 -1.2091
 3275TIP3    H2 9832   5.116   3.107   1.097 -0.4134  0.4185 -0.9355
 3276TIP3   OH2 9833   4.638   1.803   2.592  0.3809  0.5297 -0.2492
 3276TIP3    H1 9834   4.592   1.885   2.573  0.3930  0.4084 -0.8415
 3276TIP3    H2 9835   4.635   1.794   2.687  2.3850  2.4028  0.0621
 3277TIP3   OH2 9836   5.339   0.258   2.098 -0.4099  0.1855 -0.2246
 3277TIP3    H1 9837   5.351   0.184   2.157 -0.9597 -0.6129 -1.0816
 3277TIP3    H2 9838   5.254   0.295   2.122 -0.7498 -0.2941 -0.6619
 3278TIP3   OH2 9839   5.582   3.753   1.010  0.2083  0.2724 -0.4845
 3278TIP3    H1 9840   5.662   3.788   1.047  1.5910 -1.4311 -1.6851
 3278TIP3    H2 9841   5.528   3.830   0.990  0.6546  1.3585  2.1369
 3279TIP3   OH2 9842   5.919   4.381   3.113 -0.1878 -0.1470  0.1600
 3279TIP3    H1 9843   5.851   4.317   3.135  0.9270 -0.4767  3.0765
 3279TIP3    H2 9844   5.920   4.442   3.186  1.2737  1.0806 -0.8056
 3280TIP3   OH2 9845   2.886   5.578   1.380 -0.0878 -0.0109  0.6735
 3280TIP3    H1 9846   2.922   5.500   1.422  0.1871 -0.5690 -0.5432
 3280TIP3    H2 9847   2.814   5.605   1.437 -0.7935 -1.7140  0.6426
 3281TIP3   OH2 9848   1.725   1.614   0.978  0.0115 -0.4227 -0.6054
 3281TIP3    H1 9849   1.775   1.687   0.941  0.2562  1.0629  2.3919
 3281TIP3    H2 9850   1.639   1.651   0.997 -0.5405 -1.5139 -0.8762
 3282TIP3   OH2 9851   4.500   4.913   2.668 -0.5494  0.5419  0.4115
 3282TIP3    H1 9852   4.570   4.920   2.604 -0.0824 -1.5583  0.6127
 3282TIP3    H2 9853   4.537   4.948   2.749 -0.2248  0.7304  0.1825
 3283TIP3   OH2 9854   2.460   3.692   3.762  0.1967  0.5416 -0.0359
 3283TIP3    H1 9855   2.418   3.612   3.732 -1.1777  1.6377 -1.1686
 3283TIP3    H2 9856   2.553   3.673   3.758 -0.0880 -1.4877  1.1811
 3284TIP3   OH2 9857   0.778   0.163   1.491 -0.1831 -0.4105 -0.0954
 3284TIP3    H1 9858   0.688   0.192   1.506 -0.6028 -1.2364 -0.9381
 3284TIP3    H2 9859   0.780   0.073   1.523  0.3968 -0.3346  0.0899
 3285TIP3   OH2 9860   1.982   1.222   1.945 -0.4257  0.5162  0.3470
 3285TIP3    H1 9861   1.991   1.189   2.034  0.2013  2.7736  1.2057
 3285TIP3    H2 9862   1.892   1.255   1.940 -0.3369  0.7524  0.2887
 3286TIP3   OH2 9863   2.069   2.922   4.144 -0.2292 -0.2700 -0.5037
 3286TIP3    H1 9864   2.029   2.970   4.072 -0.6967 -0.1299 -0.1544
 3286TIP3    H2 9865   2.150   2.887   4.107  0.3662  1.1741 -0.6389
 3287TIP3   OH2 9866   3.131   2.138   4.958 -1.0851  0.1760 -0.2078
 3287TIP3    H1 9867   3.072   2.211   4.941 -0.3025  0.8695 -0.0451
 3287TIP3    H2 9868   3.112   2.112   5.048 -1.5461  0.0079 -0.3547
 3288TIP3   OH2 9869   2.793   3.465   3.548  0.2206 -0.2853  0.2556
 3288TIP3    H1 9870   2.756   3.552   3.561 -0.4678 -0.2770 -1.4967
 3288TIP3    H2 9871   2.783   3.448   3.455  1.7990 -1.6081  0.2794
 3289TIP3   OH2 9872   1.240   5.206   3.139 -0.4460  0.2783 -0.6045
 3289TIP3    H1 9873   1.176   5.176   3.205 -1.4414 -1.7060 -2.3572
 3289TIP3    H2 9874   1.200   5.284   3.101 -0.5131  0.6395  0.1863
 3290TIP3   OH2 9875   5.203   5.654   2.639 -0.6536  1.1442 -0.3436
 3290TIP3    H1 9876   5.297   5.665   2.624 -0.8588  2.8922 -0.4644
 3290TIP3    H2 9877   5.198   5.581   2.700  0.7356  0.5451 -0.8774
 3291TIP3   OH2 9878   3.441   3.108   0.141  0.1824  0.0684  0.0123
 3291TIP3    H1 9879   3.417   3.025   0.101  2.2135 -0.9363  0.7497
 3291TIP3    H2 9880   3.536   3.105   0.148  0.1969  1.8826  1.2875
 3292TIP3   OH2 9881   0.646   5.823   0.834 -0.1391 -0.2189 -0.7735
 3292TIP3    H1 9882   0.615   5.791   0.918 -4.0490 -1.0337 -2.3281
 3292TIP3    H2 9883   0.650   5.918   0.844 -1.7906 -0.2060 -0.0088
 3293TIP3   OH2 9884   2.006   0.331   2.454  0.0292 -0.0853 -0.4591
 3293TIP3    H1 9885   2.092   0.373   2.453  1.7183 -3.1483  0.4466
 3293TIP3    H2 9886   2.013   0.260   2.390 -1.7550 -0.5581 -0.1876
 3294TIP3   OH2 9887   3.575   1.150   0.347  0.4201  0.3870 -0.0855
 3294TIP3    H1 9888   3.516   1.225   0.352  2.3141  1.9739 -0.2810
 3294TIP3    H2 9889   3.612   1.142   0.435 -1.3041 -1.7100  0.5223
 3295TIP3   OH2 9890   5.319   4.896   3.459 -0.6464 -0.1625 -0.0886
 3295TIP3    H1 9891   5.337   4.803   3.444 -2.2616 -0.3984 -0.9119
 3295TIP3    H2 9892   5.268   4.898   3.540 -0.1378  0.0729  0.2283
 3296TIP3   OH2 9893   3.963   5.881   0.614 -0.5940 -0.5235  0.5851
 3296TIP3    H1 9894   3.920   5.926   0.541  2.5467 -2.2458 -2.6110
 3296TIP3    H2 9895   4.036   5.937   0.638 -0.2405 -1.0794  0.8179
 3297TIP3   OH2 9896   3.756   1.349   1.619 -0.2684  0.4113 -0.2153
 3297TIP3    H1 9897   3.675   1.396   1.639  0.1302  0.4123  1.5873
 3297TIP3    H2 9898   3.820   1.386   1.678  0.6479 -0.7429 -0.4443
 3298TIP3   OH2 9899   1.225   5.147   1.283 -0.2158  0.2529 -0.5489
 3298TIP3    H1 9900   1.139   5.149   1.241 -0.6823  1.4346  0.4166
 3298TIP3    H2 9901   1.229   5.228   1.334  1.2962 -0.0003 -0.2261
 3299TIP3   OH2 9902   4.891   2.351   3.190 -0.2878 -0.2531 -0.0837
 3299TIP3    H1 9903   4.912   2.260   3.168 -2.0130 -0.7198  0.0851
 3299TIP3    H2 9904   4.864   2.389   3.106 -3.4980 -1.0739  0.4551
 3300TIP3   OH2 9905   0.932   3.932   3.990  0.4037  0.6022  0.0748
 3300TIP3    H1 9906   0.909   3.846   3.954 -0.8020  1.5954 -1.6500
 3300TIP3    H2 9907   0.848   3.970   4.016  0.9682  1.1346  1.1543
 3301TIP3   OH2 9908   1.634   2.822   4.115 -0.1734  0.6971  0.0426
 3301TIP3    H1 9909   1.634   2.917   4.107 -1.6750  0.7057 -0.1326
 3301TIP3    H2 9910   1.596   2.791   4.033  2.3133 -0.2027 -0.8684
 3302TIP3   OH2 9911   4.849   0.270   3.972  0.0684 -0.0766  0.4895
 3302TIP3    H1 9912   4.758   0.247   3.955  0.5363 -1.4352 -0.2826
 3302TIP3    H2 9913   4.854   0.278   4.068 -0.0693 -3.6750  0.9073
 3303TIP3   OH2 9914   0.105   1.095   3.918 -0.1368  0.0414 -0.1698
 3303TIP3    H1 9915   0.184   1.124   3.962 -1.0307 -1.5384  2.6870
 3303TIP3    H2 9916   0.136   1.040   3.846  1.3429  1.7907 -0.9446
 3304TIP3   OH2 9917   4.763   5.296   1.596 -0.1016  0.1982 -0.6638
 3304TIP3    H1 9918   4.842   5.242   1.590  0.2672  0.4051  1.5065
 3304TIP3    H2 9919   4.792   5.383   1.569  0.6266  0.4365  0.8182
 3305TIP3   OH2 9920   0.366   1.679   4.209 -0.5691  0.3624 -0.5059
 3305TIP3    H1 9921   0.446   1.630   4.223 -0.3580  0.8245 -0.0838
 3305TIP3    H2 9922   0.323   1.634   4.136 -0.7584 -0.9189  0.3677
 3306TIP3   OH2 9923   3.557   3.488   2.298  0.2753 -0.1753  0.5587
 3306TIP3    H1 9924   3.479   3.497   2.352 -0.5125 -0.1936 -0.5336
 3306TIP3    H2 9925   3.622   3.447   2.355 -1.0188 -1.6699  1.0201
 3307TIP3   OH2 9926   0.845   2.002   2.301  0.0269 -0.2190 -0.4222
 3307TIP3    H1 9927   0.763   1.958   2.326  0.2658 -0.3166  0.2039
 3307TIP3    H2 9928   0.859   1.976   2.210  0.0348 -1.2619 -0.1357
 3308TIP3   OH2 9929   3.356   4.334   3.756 -0.1556  0.0239  0.8077
 3308TIP3    H1 9930   3.442   4.376   3.748 -1.0079  1.7791  0.3224
 3308TIP3    H2 9931   3.314   4.379   3.829 -1.6745  1.1491 -0.6848
 3309TIP3   OH2 9932   2.830   4.498   2.992  0.1772  0.6250  0.2524
 3309TIP3    H1 9933   2.845   4.536   2.905  0.4877 -0.5681 -0.2372
 3309TIP3    H2 9934   2.885   4.550   3.050  0.8874  0.6964 -0.4596
 3310TIP3   OH2 9935   0.531   1.900   1.620  0.1685 -0.4629 -0.4185
 3310TIP3    H1 9936   0.480   1.953   1.681  0.9502 -0.2042  0.0291
 3310TIP3    H2 9937   0.467   1.867   1.558 -0.7457 -1.1425  0.8298
 3311TIP3   OH2 9938   2.722   2.485   3.926 -0.2144  0.2772  0.2684
 3311TIP3    H1 9939   2.688   2.436   4.001  0.3749 -1.6941 -0.7032
 3311TIP3    H2 9940   2.682   2.444   3.850 -1.8800  3.1004 -0.5588
 3312TIP3   OH2 9941   1.546   0.482   2.425 -0.2849  0.4396  0.4683
 3312TIP3    H1 9942   1.540   0.522   2.512 -1.3322  2.1111 -0.3240
 3312TIP3    H2 9943   1.640   0.474   2.408 -0.0692  0.4011  1.6044
 3313TIP3   OH2 9944   3.488   2.765   2.207 -0.2823  0.4360  0.0981
 3313TIP3    H1 9945   3.566   2.819   2.219 -0.5286  0.3532  2.7484
 3313TIP3    H2 9946   3.417   2.827   2.193  0.0409  0.5623 -1.0934
 3314TIP3   OH2 9947   6.287   4.546   4.473  0.3308 -0.2724 -0.0355
 3314TIP3    H1 9948   6.322   4.457   4.483  0.7520 -0.3041 -1.5307
 3314TIP3    H2 9949   6.353   4.591   4.420  1.5180  1.8015  2.9515
 3315TIP3   OH2 9950   1.813   0.488   3.786 -0.0637  0.0450 -0.1637
 3315TIP3    H1 9951   1.801   0.504   3.693 -2.2484 -0.5639 -0.0360
 3315TIP3    H2 9952   1.807   0.575   3.826  0.4919  0.2615 -0.5319
 3316TIP3   OH2 9953   4.013   1.052   5.072 -0.2725 -0.3593 -0.4509
 3316TIP3    H1 9954   4.077   1.037   5.141 -0.1153 -0.4738 -0.6229
 3316TIP3    H2 9955   4.029   0.983   5.008 -0.2203 -0.0755 -0.7458
 3317TIP3   OH2 9956   0.747   5.842   4.069  0.0067 -0.1272 -0.0121
 3317TIP3    H1 9957   0.765   5.793   3.988 -0.6644  0.3262 -0.4457
 3317TIP3    H2 9958   0.678   5.792   4.112  0.3037 -0.3213  0.2411
 3318TIP3   OH2 9959   4.469   2.857   0.215 -0.3311 -0.1110  0.6272
 3318TIP3    H1 9960   4.498   2.854   0.124 -2.1863 -0.4483  0.0239
 3318TIP3    H2 9961   4.492   2.946   0.243 -0.4905  0.2832 -0.4303
 3319TIP3   OH2 9962   4.979   3.929   4.113 -0.6092 -0.6199  0.2771
 3319TIP3    H1 9963   5.023   3.918   4.029  0.0211 -1.5077  0.7036
 3319TIP3    H2 9964   4.887   3.910   4.094 -0.6213  0.0789 -0.3860
 3320TIP3   OH2 9965   5.455   3.664   4.122 -0.0667  0.4574  0.0583
 3320TIP3    H1 9966   5.501   3.701   4.047  1.6407 -2.9649 -0.7546
 3320TIP3    H2 9967   5.377   3.623   4.084 -0.3790  0.6242  0.5122
 3321TIP3   OH2 9968   4.090   5.257   1.328  0.0348 -0.1611 -0.1136
 3321TIP3    H1 9969   4.151   5.246   1.255  0.6305  1.7590  0.0304
 3321TIP3    H2 9970   4.142   5.238   1.406  0.1064  0.2345 -0.0623
 3322TIP3   OH2 9971   3.778   5.519   4.592 -0.0763 -0.2273 -0.1874
 3322TIP3    H1 9972   3.698   5.497   4.639 -0.1877 -0.1044 -0.3207
 3322TIP3    H2 9973   3.754   5.514   4.500 -0.0858  0.4002 -0.2223
 3323TIP3   OH2 9974   2.752   3.492   4.230 -0.3758  0.0620 -0.2019
 3323TIP3    H1 9975   2.675   3.547   4.222 -0.1180  1.1516  2.9932
 3323TIP3    H2 9976   2.826   3.551   4.214 -0.1391 -0.4047 -0.8979
 3324TIP3   OH2 9977   3.985   1.290   1.444  0.2125  0.2711  0.6251
 3324TIP3    H1 9978   3.898   1.269   1.412 -0.3856  1.7516  1.2010
 3324TIP3    H2 9979   4.000   1.229   1.517  0.9320 -2.0248 -1.3092
 3325TIP3   OH2 9980   2.436   1.996   3.745 -0.3149  0.8433 -0.0569
 3325TIP3    H1 9981   2.407   2.072   3.694 -1.9066  1.1602  1.2532
 3325TIP3    H2 9982   2.497   2.032   3.809 -0.3826  0.8788 -0.0116
 3326TIP3   OH2 9983   4.246   1.516   2.977 -0.0964 -0.2074 -0.2875
 3326TIP3    H1 9984   4.322   1.459   2.965 -0.0549 -0.7685  2.0933
 3326TIP3    H2 9985   4.174   1.470   2.934  0.4038 -0.9675 -0.3297
 3327TIP3   OH2 9986   3.244   3.689   3.662  0.0153 -0.4422 -0.2724
 3327TIP3    H1 9987   3.164   3.638   3.668 -1.4773  1.7329 -0.5449
 3327TIP3    H2 9988   3.217   3.771   3.621  2.7037 -0.2540 -1.9348
 3328TIP3   OH2 9989   1.862   1.089   0.646 -0.4830  0.1474  0.1518
 3328TIP3    H1 9990   1.925   1.067   0.714 -1.7663  2.4927  2.3121
 3328TIP3    H2 9991   1.902   1.162   0.599  0.1170 -1.0435 -1.2449
 3329TIP3   OH2 9992   0.187   0.008   4.589 -0.9194  0.0715 -0.0435
 3329TIP3    H1 9993   0.114   0.038   4.644 -1.3166  0.2916 -0.6756
 3329TIP3    H2 9994   0.154   0.015   4.500 -0.2492 -0.1908 -0.3188
 3330TIP3   OH2 9995   3.089   5.619   4.581 -0.1370 -0.2406  0.0642
 3330TIP3    H1 9996   3.117   5.647   4.494  1.3849 -0.3193  0.4917
 3330TIP3    H2 9997   3.091   5.524   4.578  0.6983 -0.2474  0.3907
 3331TIP3   OH2 9998   2.558   0.501   3.085  0.1433 -0.3473  0.1251
 3331TIP3    H1 9999   2.650   0.474   3.091 -0.5335 -3.4489 -1.3584
 3331TIP3    H210000   2.561   0.591   3.051  2.6041 -0.8528 -1.1638
 3332TIP3   OH210001   6.235   4.168   2.842  0.2131 -0.2301  0.2766
 3332TIP3    H110002   6.216   4.251   2.886  1.4177 -0.5723  1.5047
 3332TIP3    H210003   6.275   4.113   2.909 -0.7530 -1.9159 -0.4402
 3333TIP3   OH210004   1.271   1.997   1.148 -0.0096 -0.2223  0.8025
 3333TIP3    H110005   1.235   1.997   1.059  0.2748  0.0787  0.6802
 3333TIP3    H210006   1.280   1.905   1.171  0.0055 -0.3039  0.4755
 3334TIP3   OH210007   2.370   2.251   0.072 -0.4300  0.1842 -0.1131
 3334TIP3    H110008   2.398   2.317   0.136 -0.4527  0.4543 -0.3768
 3334TIP3    H210009   2.313   2.192   0.122  1.4206 -0.9943  0.6775
 3335TIP3   OH210010   6.103   4.248   4.063  0.5236 -0.3921  0.0331
 3335TIP3    H110011   6.155   4.327   4.077 -0.6909  0.6765 -1.2181
 3335TIP3    H210012   6.036   4.250   4.131  2.3453 -2.0838  2.0307
 3336TIP3   OH210013   2.404   1.574   3.957  0.0368  0.3197 -0.7439
 3336TIP3    H110014   2.327   1.552   3.904 -0.3642 -0.1362  0.0115
 3336TIP3    H210015   2.392   1.666   3.980  1.0884  1.0519 -2.8702
 3337TIP3   OH210016   1.665   0.957   2.929 -0.1154  0.6504  0.4519
 3337TIP3    H110017   1.618   1.017   2.987 -0.7850  0.4492  0.1258
 3337TIP3    H210018   1.745   0.936   2.977 -0.1333  1.3652  0.8140
 3338TIP3   OH210019   4.987   0.321   4.473  0.6234  0.2705  0.5726
 3338TIP3    H110020   5.058   0.380   4.500  0.3638  0.3697  1.0518
 3338TIP3    H210021   5.030   0.237   4.457  0.8023  0.2319  1.2091
 3339TIP3   OH210022   5.627   4.164   2.770  0.9384  0.0423 -0.4003
 3339TIP3    H110023   5.610   4.179   2.677  0.7064 -0.8091 -0.5098
 3339TIP3    H210024   5.541   4.167   2.811  1.0747  0.7401 -0.1567
 3340TIP3   OH210025   2.033   0.235   1.023  0.1705  0.1648  0.1470
 3340TIP3    H110026   2.056   0.232   1.116  2.0732 -1.9286 -0.3072
 3340TIP3    H210027   1.995   0.149   1.005 -0.8163  0.7917 -0.8944
 3341TIP3   OH210028   2.976   1.061   2.736  0.6051  0.1137 -0.3698
 3341TIP3    H110029   3.004   1.113   2.812 -0.2882 -1.1265  0.8598
 3341TIP3    H210030   3.032   0.984   2.738 -2.4966 -2.3628  2.0766
 3342TIP3   OH210031   1.120   1.286   1.554  0.0353 -0.0728  0.1829
 3342TIP3    H110032   1.111   1.336   1.636  1.7843 -1.7785  1.5267
 3342TIP3    H210033   1.030   1.263   1.530 -0.4876 -1.3402  2.8901
 3343TIP3   OH210034   5.911   2.317   0.248 -0.5025 -0.4887  0.3966
 3343TIP3    H110035   5.832   2.345   0.294 -2.1459 -0.2184 -2.3871
 3343TIP3    H210036   5.892   2.227   0.221 -0.6724  0.1764 -1.8463
 3344TIP3   OH210037   6.265   1.127   5.159  0.2198 -0.6265 -0.4902
 3344TIP3    H110038   6.331   1.096   5.097  0.0194 -1.0678 -0.4809
 3344TIP3    H210039   6.279   1.074   5.237 -1.2420 -1.9117 -1.0599
 3345TIP3   OH210040   2.490   4.103   1.452  0.4674 -0.0544 -0.0408
 3345TIP3    H110041   2.494   4.174   1.517  0.2935 -0.5794  0.5620
 3345TIP3    H210042   2.556   4.041   1.481  0.6218 -0.1407 -0.5719
 3346TIP3   OH210043   4.981   3.473   3.461  0.2977 -0.0865 -0.0105
 3346TIP3    H110044   5.061   3.442   3.419 -0.1205 -1.8454  0.4013
 3346TIP3    H210045   4.977   3.426   3.544 -0.9627  0.2423  0.1458
 3347TIP3   OH210046   1.859   3.487   4.101  0.3362  0.6418 -0.1391
 3347TIP3    H110047   1.810   3.565   4.073 -1.3893 -0.1813  0.4744
 3347TIP3    H210048   1.872   3.499   4.195 -1.1171 -0.4053  0.2198
 3348TIP3   OH210049   2.228   2.533   1.410  0.3565 -0.5372 -0.3931
 3348TIP3    H110050   2.179   2.606   1.447 -0.4485 -0.6315 -1.2238
 3348TIP3    H210051   2.222   2.464   1.476 -1.9859 -1.0870 -1.0719
 3349TIP3   OH210052   0.318   0.063   1.819  0.0110  0.0609  0.8519
 3349TIP3    H110053   0.252   0.085   1.753 -0.7506 -1.7337  0.9665
 3349TIP3    H210054   0.276   0.085   1.902  1.2221  2.9686  0.8124
 3350TIP3   OH210055   2.499   4.786   4.202 -0.0953 -0.5547  0.1609
 3350TIP3    H110056   2.428   4.724   4.186 -0.6673  0.3012 -0.7528
 3350TIP3    H210057   2.542   4.795   4.116 -0.8666  1.3104 -0.0737
 3351TIP3   OH210058   0.326   5.565   1.456 -0.0309 -0.4205 -0.0592
 3351TIP3    H110059   0.253   5.606   1.502  0.1774  1.4635 -1.2990
 3351TIP3    H210060   0.313   5.471   1.469 -1.4296 -0.0495  1.5690
 3352TIP3   OH210061   4.224   2.042   3.084 -0.1548  0.2783 -0.3017
 3352TIP3    H110062   4.238   2.048   2.989 -0.6578  0.4581 -0.3674
 3352TIP3    H210063   4.194   1.952   3.098  0.3702  0.1091 -0.2516
 3353TIP3   OH210064   0.250   3.352   1.293  0.2161  0.3573  0.0257
 3353TIP3    H110065   0.192   3.285   1.256 -1.6319  1.5019  0.7098
 3353TIP3    H210066   0.265   3.413   1.220 -1.2829  1.2166  0.3934
 3354TIP3   OH210067   3.640   4.331   3.720 -0.2234 -0.1713 -0.5727
 3354TIP3    H110068   3.649   4.339   3.815  0.4067 -1.4144 -0.5049
 3354TIP3    H210069   3.654   4.238   3.703  2.0902  0.3786 -2.1234
 3355TIP3   OH210070   0.403   4.540   0.241 -0.2688 -0.1883 -0.0286
 3355TIP3    H110071   0.358   4.547   0.157  1.5761 -0.0030 -1.0513
 3355TIP3    H210072   0.493   4.567   0.222  0.8690 -2.6595  1.4021
 3356TIP3   OH210073   2.579   1.696   0.863 -0.2530  0.6826  0.1768
 3356TIP3    H110074   2.536   1.689   0.778 -1.1936  1.3998  0.5770
 3356TIP3    H210075   2.671   1.676   0.845 -0.1505  2.2241 -1.2671
 3357TIP3   OH210076   2.341   3.035   2.330 -0.2247  0.3801  0.1752
 3357TIP3    H110077   2.321   3.022   2.422 -1.3595  0.0800 -0.0961
 3357TIP3    H210078   2.255   3.045   2.288  0.1620 -1.2393 -1.1016
 3358TIP3   OH210079   1.778   3.839   0.082  0.5206  0.2424 -0.3715
 3358TIP3    H110080   1.695   3.885   0.094 -0.0232 -0.5035 -1.1431
 3358TIP3    H210081   1.804   3.813   0.171  0.1154  0.7853 -0.0883
 3359TIP3   OH210082   1.715   2.043   1.201 -0.5907 -0.4866  0.1119
 3359TIP3    H110083   1.628   2.073   1.174 -0.5020  0.1785  0.5612
 3359TIP3    H210084   1.742   1.984   1.131 -1.3723 -0.6378 -0.0695
 3360TIP3   OH210085   0.004   2.501   0.756 -0.1253 -0.0789  0.3676
 3360TIP3    H110086   0.060   2.447   0.812 -0.6508 -1.4832 -0.4028
 3360TIP3    H210087   0.066   2.551   0.702  0.3969 -0.7321  0.3381
 3361TIP3   OH210088   5.110   4.814   1.209 -0.2100 -0.2683  0.1460
 3361TIP3    H110089   5.134   4.905   1.189 -2.7472  0.5558  0.5517
 3361TIP3    H210090   5.143   4.764   1.134  0.4858  1.0970 -0.5003
 3362TIP3   OH210091   1.814   1.642   3.346 -0.1405  0.2869 -0.7019
 3362TIP3    H110092   1.864   1.603   3.274  2.0642  0.2416  0.7669
 3362TIP3    H210093   1.788   1.568   3.400  1.8428  0.5530  0.7219
 3363TIP3   OH210094   4.693   3.203   0.755 -0.0918 -0.1816  0.0592
 3363TIP3    H110095   4.639   3.127   0.774 -0.3238 -0.1789 -0.5544
 3363TIP3    H210096   4.673   3.224   0.664 -0.0454  0.6251  0.2283
 3364TIP3   OH210097   3.831   3.646   2.092 -0.4493  0.3189 -0.4057
 3364TIP3    H110098   3.752   3.697   2.076 -0.0095  1.2396  0.2893
 3364TIP3    H210099   3.799   3.566   2.134 -1.1591 -0.1008 -1.7048
 3365TIP3   OH210100   3.806   3.839   2.869  0.2273 -0.7445  0.1143
 3365TIP3    H110101   3.777   3.841   2.960 -0.4282 -1.6267 -0.0631
 3365TIP3    H210102   3.733   3.876   2.819 -0.0271 -1.6038 -0.1826
 3366TIP3   OH210103   5.106   5.091   3.259  0.3707  0.0275 -0.3950
 3366TIP3    H110104   5.071   5.091   3.347  1.2006  0.2549 -0.0561
 3366TIP3    H210105   5.092   5.002   3.227 -1.7104  0.4424 -0.7817
 3367TIP3   OH210106   2.087   4.285   1.673  0.1168  0.1630 -0.4045
 3367TIP3    H110107   1.998   4.272   1.641  0.3501 -0.3956 -0.8381
 3367TIP3    H210108   2.103   4.210   1.731  0.3560  0.1836 -0.4413
 3368TIP3   OH210109   1.493   5.252   3.044 -0.1587 -0.1114 -0.0720
 3368TIP3    H110110   1.525   5.165   3.022 -0.1201 -0.0096 -0.4228
 3368TIP3    H210111   1.409   5.236   3.088  0.7545 -0.4304  1.6466
 3369TIP3   OH210112   0.513   0.878   1.554  0.1481 -0.2177  0.8415
 3369TIP3    H110113   0.599   0.918   1.545 -0.0853  0.0610 -0.3372
 3369TIP3    H210114   0.459   0.946   1.594  0.5088 -0.4472  1.7253
 3370TIP3   OH210115   3.640   0.296   1.472 -0.4507 -0.9062 -0.3013
 3370TIP3    H110116   3.665   0.387   1.457 -1.5196 -0.7273 -1.0733
 3370TIP3    H210117   3.636   0.257   1.384 -1.1848 -1.3722 -0.0721
 3371TIP3   OH210118   2.740   1.897   1.247 -0.0827 -0.2234  0.2662
 3371TIP3    H110119   2.652   1.932   1.261 -0.2310 -0.6925  0.5353
 3371TIP3    H210120   2.739   1.812   1.291  0.4070 -0.3706  0.0001
 3372TIP3   OH210121   5.760   5.403   4.963  0.4421  0.2096  0.0794
 3372TIP3    H110122   5.774   5.379   5.054 -0.6677 -0.9502 -0.0230
 3372TIP3    H210123   5.724   5.491   4.966  0.3314  0.1399  0.7716
 3373TIP3   OH210124   5.983   4.554   4.043 -0.0435  0.4049 -0.4437
 3373TIP3    H110125   5.911   4.491   4.033  0.4906 -0.1447 -0.8633
 3373TIP3    H210126   6.037   4.517   4.113  0.5800  0.1016 -1.0826
 3374TIP3   OH210127   5.266   2.210   2.631 -0.0246  0.4347  0.3670
 3374TIP3    H110128   5.231   2.219   2.543  0.5565 -1.5836 -0.1346
 3374TIP3    H210129   5.212   2.142   2.672  0.9603 -0.0936  0.8351
 3375TIP3   OH210130   4.628   0.651   0.837  0.4191 -0.6615  0.1785
 3375TIP3    H110131   4.617   0.746   0.838  0.7998 -0.6170  1.1533
 3375TIP3    H210132   4.556   0.619   0.782 -0.0391  0.1501  0.2885
 3376TIP3   OH210133   5.732   3.094   2.339 -0.1171  0.4092  0.0152
 3376TIP3    H110134   5.776   3.151   2.403 -0.2334  0.4421  0.0660
 3376TIP3    H210135   5.660   3.148   2.305  0.3310  0.6270 -0.6159
 3377TIP3   OH210136   1.972   0.197   2.192 -0.2587  0.4117 -0.3703
 3377TIP3    H110137   2.043   0.184   2.129  1.6406  1.9732  1.3119
 3377TIP3    H210138   1.920   0.268   2.154  0.5488  0.9716 -0.4534
 3378TIP3   OH210139   4.797   1.911   1.047  0.7969  0.0031 -0.2245
 3378TIP3    H110140   4.787   1.961   1.128  1.3309 -0.4783  0.1463
 3378TIP3    H210141   4.874   1.856   1.062 -0.7785 -2.2365  0.0653
 3379TIP3   OH210142   6.299   0.918   4.067  0.1977 -0.5634  0.1422
 3379TIP3    H110143   6.342   0.975   4.003 -1.8180  0.3733 -0.4623
 3379TIP3    H210144   6.236   0.867   4.016 -1.1129 -0.1564  1.2888
 3380TIP3   OH210145   6.197   4.842   3.439  0.5072  0.0263  0.7406
 3380TIP3    H110146   6.259   4.910   3.464 -0.4230  1.8992 -1.5608
 3380TIP3    H210147   6.219   4.823   3.348 -0.6737 -1.1463  0.6797
 3381TIP3   OH210148   3.443   5.000   4.268 -0.3561  0.2524 -0.1074
 3381TIP3    H110149   3.438   4.980   4.175 -0.3529 -1.8179  0.2850
 3381TIP3    H210150   3.352   5.017   4.294 -0.5121 -0.2811 -0.2865
 3382TIP3   OH210151   3.743   1.630   2.005  1.1083  0.2340  0.1232
 3382TIP3    H110152   3.713   1.716   1.974 -3.5632 -1.0765  0.2237
 3382TIP3    H210153   3.770   1.584   1.926 -0.5647  0.4118 -0.5882
 3383TIP3   OH210154   4.664   2.111   1.582 -0.3176  0.3882  0.0306
 3383TIP3    H110155   4.646   2.144   1.670  1.1783 -0.6782  0.7683
 3383TIP3    H210156   4.585   2.063   1.557 -0.5021  0.1496  1.0650
 3384TIP3   OH210157   2.413   5.263   2.826 -0.0987 -0.2002  0.3697
 3384TIP3    H110158   2.399   5.267   2.731 -0.0207  0.8734  0.3820
 3384TIP3    H210159   2.476   5.192   2.838  1.1283  0.6748 -0.5628
 3385TIP3   OH210160   3.618   4.395   4.010  0.1382  0.0138 -0.3808
 3385TIP3    H110161   3.687   4.358   4.066  0.7888 -0.1053 -1.2366
 3385TIP3    H210162   3.536   4.373   4.055  0.2831 -4.2002 -1.6604
 3386TIP3   OH210163   6.286   0.149   3.230  0.3794  0.0172  0.2456
 3386TIP3    H110164   6.196   0.181   3.222 -0.0527 -1.4769 -1.6372
 3386TIP3    H210165   6.334   0.196   3.162  0.5312 -0.6821 -0.1420
 3387TIP3   OH210166   5.216   0.507   4.553 -0.0058 -0.2678  0.1346
 3387TIP3    H110167   5.296   0.550   4.582  1.0050 -0.9498 -1.4808
 3387TIP3    H210168   5.148   0.538   4.613  0.9502  2.3802 -0.0289
 3388TIP3   OH210169   5.099   0.738   3.198  0.1044  0.0327  0.5230
 3388TIP3    H110170   5.180   0.718   3.244  0.2547  0.2094  0.3345
 3388TIP3    H210171   5.040   0.770   3.266  0.3763  0.4381  0.5750
 3389TIP3   OH210172   0.183   1.068   1.279  0.1740 -0.3879  0.1433
 3389TIP3    H110173   0.250   1.063   1.211 -0.3858 -0.9881 -0.3778
 3389TIP3    H210174   0.101   1.058   1.232 -0.3200  0.8253  0.7126
 3390TIP3   OH210175   1.159   4.149   0.043 -0.2738 -0.0049  0.1779
 3390TIP3    H110176   1.205   4.085   0.097  1.7908  1.4374  0.2409
 3390TIP3    H210177   1.134   4.219   0.104  0.3928  0.7400 -0.3738
 3391TIP3   OH210178   2.662   4.053   1.085  0.0119  0.0793 -0.5540
 3391TIP3    H110179   2.634   4.024   0.998 -0.0948  0.9650 -0.8265
 3391TIP3    H210180   2.653   4.148   1.083 -0.6355  0.0750  0.6514
 3392TIP3   OH210181   0.896   2.967   0.671 -0.5867  0.0537 -0.3786
 3392TIP3    H110182   0.846   3.049   0.671 -0.5552  0.1244  1.4825
 3392TIP3    H210183   0.978   2.990   0.714 -0.1483 -0.7371 -0.7805
 3393TIP3   OH210184   1.124   1.966   4.015  0.2191 -0.0327  0.3331
 3393TIP3    H110185   1.099   2.030   4.081 -1.2222  0.9085 -1.0484
 3393TIP3    H210186   1.042   1.947   3.968  1.4722  0.6756 -2.2867
 3394TIP3   OH210187   0.290   2.017   3.584  0.3845  0.2736 -0.2275
 3394TIP3    H110188   0.214   1.968   3.555 -2.0057  3.7631 -0.3982
 3394TIP3    H210189   0.347   2.022   3.507 -0.7632  0.3052 -1.0950
 3395TIP3   OH210190   0.121   5.659   0.556 -0.4777 -0.0184  1.0745
 3395TIP3    H110191   0.039   5.622   0.591 -1.8631  1.1803 -0.6996
 3395TIP3    H210192   0.147   5.725   0.620 -2.0807  1.0314  0.7064
 3396TIP3   OH210193   4.361   4.931   2.209 -0.1324  0.4128  0.0035
 3396TIP3    H110194   4.407   4.866   2.156 -2.0644 -0.9573 -0.1155
 3396TIP3    H210195   4.393   5.015   2.177  0.6951 -0.4387 -1.5132
 3397TIP3   OH210196   3.201   4.056   4.376  0.4180  0.5989 -0.1244
 3397TIP3    H110197   3.123   4.054   4.321  0.3134  0.6428  0.0230
 3397TIP3    H210198   3.223   3.963   4.389 -1.0587  0.4804  1.8916
 3398TIP3   OH210199   5.705   4.778   1.022  0.2915 -0.5078  0.4538
 3398TIP3    H110200   5.711   4.716   1.094 -1.0765  0.2026  1.2277
 3398TIP3    H210201   5.752   4.856   1.053  1.6279 -0.9690 -0.3399
 3399TIP3   OH210202   1.291   1.639   4.582  0.1612  0.0025 -0.6118
 3399TIP3    H110203   1.340   1.564   4.617 -0.8389 -0.8246 -0.9328
 3399TIP3    H210204   1.205   1.603   4.561 -0.3020  1.2336 -0.8705
 3400TIP3   OH210205   4.603   3.116   0.266 -0.0092  0.0335 -0.0122
 3400TIP3    H110206   4.691   3.152   0.279  0.4030 -0.5034 -1.1707
 3400TIP3    H210207   4.550   3.155   0.336  1.0523  0.6894  0.4437
 3401TIP3   OH210208   4.997   2.973   5.036 -0.1162  0.3312 -0.5062
 3401TIP3    H110209   5.029   3.057   5.002 -0.0541  0.2943 -0.5392
 3401TIP3    H210210   5.068   2.911   5.018 -1.2908 -0.3717 -3.1836
 3402TIP3   OH210211   1.088   3.164   3.419 -0.2391 -0.0765  0.2201
 3402TIP3    H110212   1.039   3.113   3.484 -0.9527  0.1418 -0.1279
 3402TIP3    H210213   1.090   3.108   3.341 -1.5722  0.6276 -0.3716
 3403TIP3   OH210214   1.722   2.919   0.506 -0.3817  0.1782  0.4205
 3403TIP3    H110215   1.651   2.890   0.563  1.1424  0.4353  2.6204
 3403TIP3    H210216   1.801   2.908   0.560  1.3251 -0.4958 -2.0332
 3404TIP3   OH210217   1.579   4.647   2.216 -0.2622  0.1397 -1.0315
 3404TIP3    H110218   1.599   4.565   2.172 -2.5114  0.0320 -1.9642
 3404TIP3    H210219   1.663   4.694   2.219  0.5868 -1.1984 -2.5416
 3405TIP3   OH210220   5.800   5.590   1.342 -0.8763  0.4356 -0.6820
 3405TIP3    H110221   5.708   5.569   1.326 -1.1260  0.5022  0.6241
 3405TIP3    H210222   5.813   5.574   1.435  1.1435 -2.3023 -1.2989
 3406TIP3   OH210223   2.925   3.759   2.123  0.2312  0.4573  0.1782
 3406TIP3    H110224   2.855   3.812   2.161 -0.0228 -1.1595  2.1304
 3406TIP3    H210225   2.929   3.787   2.031 -2.2098  1.3923  0.2864
 3407TIP3   OH210226   3.939   0.669   0.961 -0.5228 -0.2831 -0.3994
 3407TIP3    H110227   4.021   0.707   0.994 -0.1242 -0.4716 -1.1400
 3407TIP3    H210228   3.955   0.655   0.868 -2.1750  1.7233 -1.0503
 3408TIP3   OH210229   0.767   2.690   4.581  0.0249 -0.0910  0.1029
 3408TIP3    H110230   0.679   2.690   4.617  0.1065 -2.0236  0.4395
 3408TIP3    H210231   0.776   2.604   4.540  1.0161  0.8866 -1.8363
 3409TIP3   OH210232   1.059   0.312   1.576  0.4835 -0.0258  0.2552
 3409TIP3    H110233   1.115   0.340   1.648 -2.0851 -1.0326  2.8096
 3409TIP3    H210234   0.993   0.257   1.617 -0.4991 -1.5722 -3.0785
 3410TIP3   OH210235   6.196   5.542   3.559 -0.6099  0.1396  0.1049
 3410TIP3    H110236   6.105   5.566   3.572 -0.7776  0.2088 -1.0928
 3410TIP3    H210237   6.233   5.539   3.647 -1.4457  1.3415  0.5175
 3411TIP3   OH210238   5.298   5.337   4.935  0.1387  0.0136 -0.0695
 3411TIP3    H110239   5.345   5.256   4.913 -0.0878  0.2137 -1.4089
 3411TIP3    H210240   5.268   5.370   4.850 -3.5697 -0.7662  0.7675
 3412TIP3   OH210241   0.088   2.384   0.492 -0.5564 -0.1670 -0.0040
 3412TIP3    H110242   0.005   2.417   0.527  0.1440  0.9034  0.7305
 3412TIP3    H210243   0.151   2.455   0.510  0.8200 -1.5224  0.7404
 3413TIP3   OH210244   1.025   4.199   2.781 -0.0394 -0.2002  0.0125
 3413TIP3    H110245   0.955   4.212   2.717 -1.1772 -1.0279  1.0401
 3413TIP3    H210246   1.029   4.282   2.830 -0.5067 -0.2435  0.1308
 3414TIP3   OH210247   2.922   0.698   4.789  0.5834 -0.3487 -0.4944
 3414TIP3    H110248   2.827   0.705   4.791  0.5109 -1.2059 -0.2708
 3414TIP3    H210249   2.949   0.745   4.710 -0.0865 -0.6554 -0.9106
 3415TIP3   OH210250   0.655   3.427   3.189 -0.7500 -0.4397  0.4705
 3415TIP3    H110251   0.571   3.381   3.179  0.4473 -3.3396  2.3080
 3415TIP3    H210252   0.650   3.466   3.277 -0.4675  0.1205  0.2441
 3416TIP3   OH210253   1.570   1.889   4.350  0.6430  0.6184  0.5773
 3416TIP3    H110254   1.560   1.959   4.285  0.0703  0.3223  0.3443
 3416TIP3    H210255   1.598   1.813   4.299 -0.9169  0.0757  0.4945
 3417TIP3   OH210256   2.727   5.710   0.923 -0.8494  0.2839 -0.2007
 3417TIP3    H110257   2.810   5.669   0.948 -0.6913  0.7288  0.0241
 3417TIP3    H210258   2.752   5.785   0.870 -1.1674 -0.3332 -1.2450
 3418TIP3   OH210259   3.524   5.577   1.911  0.5977 -0.1783 -0.5303
 3418TIP3    H110260   3.454   5.576   1.845  0.0252  0.3563  0.0561
 3418TIP3    H210261   3.557   5.487   1.912 -0.3767 -0.5505 -0.5123
 3419TIP3   OH210262   1.590   4.244   4.991 -0.0028  0.3827 -0.1133
 3419TIP3    H110263   1.630   4.182   4.929 -0.7274  0.5963 -0.8094
 3419TIP3    H210264   1.639   4.230   5.072  0.0857 -0.8556 -0.3497
 3420TIP3   OH210265   0.330   1.190   2.552 -0.0581 -0.2893 -0.0359
 3420TIP3    H110266   0.391   1.125   2.518  1.3692 -0.4522  2.5394
 3420TIP3    H210267   0.379   1.234   2.622 -2.7575 -0.2222  1.9774
 3421TIP3   OH210268   1.872   0.424   2.079 -0.4520  0.0353  0.0805
 3421TIP3    H110269   1.835   0.461   2.159  0.3377  1.5318 -0.2041
 3421TIP3    H210270   1.832   0.474   2.008  0.6825  0.4292 -0.3186
 3422TIP3   OH210271   4.835   4.866   1.839  0.2669 -0.2015  0.1325
 3422TIP3    H110272   4.917   4.912   1.855 -0.1611  0.5066  0.3392
 3422TIP3    H210273   4.823   4.810   1.916  0.1033  0.3783  0.5364
 3423TIP3   OH210274   5.796   1.986   2.852  0.2525  0.6918  0.1404
 3423TIP3    H110275   5.705   2.006   2.827 -0.0903 -0.4637  0.3864
 3423TIP3    H210276   5.846   2.064   2.826 -1.2374  2.6629  2.6421
 3424TIP3   OH210277   4.803   0.058   2.783  0.1684  0.4534  0.2708
 3424TIP3    H110278   4.822  -0.009   2.717  2.9864  1.7191 -0.3364
 3424TIP3    H210279   4.758   0.127   2.734  0.3810  0.4944  0.1323
 3425TIP3   OH210280   6.279   4.328   0.618  0.0900  0.1516 -0.4304
 3425TIP3    H110281   6.274   4.238   0.585  0.0339  0.3567 -0.9868
 3425TIP3    H210282   6.215   4.377   0.566  0.8869  0.7371 -0.8777
 3426TIP3   OH210283   2.509   5.712   4.947  0.4470  0.1300 -0.0159
 3426TIP3    H110284   2.546   5.735   4.862  0.7387 -4.2786 -1.3506
 3426TIP3    H210285   2.421   5.679   4.927  1.4573 -3.4984  0.7787
 3427TIP3   OH210286   3.549   2.077   3.070 -0.0063  0.5355  0.3460
 3427TIP3    H110287   3.525   2.170   3.074 -0.2693  0.7538 -3.1313
 3427TIP3    H210288   3.644   2.077   3.082  0.2066  1.4911 -1.0051
 3428TIP3   OH210289   5.007   2.819   2.412 -0.6757  0.3442 -0.1679
 3428TIP3    H110290   4.936   2.882   2.401 -1.4017 -0.4985 -0.4244
 3428TIP3    H210291   5.075   2.867   2.459 -2.4275  0.4513  2.4235
 3429TIP3   OH210292   5.245   1.924   1.681 -0.1341 -0.2464  0.0224
 3429TIP3    H110293   5.319   1.979   1.709  0.8026 -1.4452 -0.0438
 3429TIP3    H210294   5.189   1.984   1.632  0.9456  0.6259 -0.1971
 3430TIP3   OH210295   4.763   2.124   4.432  0.1896 -0.1642  0.5560
 3430TIP3    H110296   4.781   2.189   4.500 -0.1921  1.1652 -0.5674
 3430TIP3    H210297   4.848   2.104   4.395  0.3169 -0.3387  0.9425
 3431TIP3   OH210298   1.531   2.381   0.364 -0.0481 -0.8690  0.3737
 3431TIP3    H110299   1.557   2.379   0.272  1.5150 -3.3007  0.7921
 3431TIP3    H210300   1.441   2.413   0.362  0.2742  0.1313 -1.8745
 3432TIP3   OH210301   0.833   1.717   5.093 -0.2477 -0.0814 -0.4846
 3432TIP3    H110302   0.928   1.710   5.083 -0.1563 -0.1570  0.3754
 3432TIP3    H210303   0.803   1.752   5.009  0.4818 -0.5176 -0.9441
 3433TIP3   OH210304   2.643   4.735   2.613 -0.2181 -0.0959  0.2862
 3433TIP3    H110305   2.667   4.680   2.538 -0.8133  1.2835 -0.9691
 3433TIP3    H210306   2.563   4.695   2.646  1.0523 -1.8495  1.4598
 3434TIP3   OH210307   2.071   5.793   0.121 -0.1745 -0.1471 -0.1340
 3434TIP3    H110308   1.994   5.827   0.075 -0.4959 -0.2026  0.3556
 3434TIP3    H210309   2.145   5.821   0.068 -0.5934 -1.3697 -1.4434
 3435TIP3   OH210310   2.406   3.247   1.637 -0.3792 -0.2573 -0.4279
 3435TIP3    H110311   2.368   3.333   1.620  0.8425  0.3615 -0.1415
 3435TIP3    H210312   2.438   3.253   1.727  0.8297 -0.5819 -0.8199
 3436TIP3   OH210313   3.395   2.023   2.790 -0.3186  0.3536  0.4096
 3436TIP3    H110314   3.346   1.974   2.856 -0.2399  1.7568  1.5400
 3436TIP3    H210315   3.438   1.955   2.738  0.1425 -0.7860  2.1904
 3437TIP3   OH210316   0.156   1.564   2.082  0.0346 -0.2385 -0.0721
 3437TIP3    H110317   0.128   1.477   2.110 -0.6856  0.1031  0.3118
 3437TIP3    H210318   0.187   1.606   2.162 -0.2590  0.0928 -0.1299
 3438TIP3   OH210319   1.867   1.812   0.266 -0.3467  0.1294  0.3090
 3438TIP3    H110320   1.793   1.822   0.206 -1.7245  0.8720  2.0395
 3438TIP3    H210321   1.940   1.786   0.209 -1.2830  1.8026 -1.8167
 3439TIP3   OH210322   5.448   5.196   0.162  0.0814  0.3513  0.2933
 3439TIP3    H110323   5.446   5.224   0.253 -0.6001 -1.0191  0.7348
 3439TIP3    H210324   5.478   5.272   0.114  2.1568  0.6006  1.8365
 3440TIP3   OH210325   2.649   5.467   2.356 -0.4397 -0.1439  0.3685
 3440TIP3    H110326   2.632   5.411   2.431  0.9659  1.1108  1.6965
 3440TIP3    H210327   2.562   5.487   2.321 -1.0439 -1.8963  0.7505
 3441TIP3   OH210328   6.300   0.905   0.284  0.7411 -0.1211  0.2839
 3441TIP3    H110329   6.209   0.876   0.277  0.8630 -0.4775  0.1954
 3441TIP3    H210330   6.298   0.997   0.255  0.5896 -0.4490 -0.7791
 3442TIP3   OH210331   2.972   3.128   4.092  0.2299 -0.3815  0.0776
 3442TIP3    H110332   3.017   3.140   4.008 -0.4506  1.0616 -0.1179
 3442TIP3    H210333   2.987   3.211   4.139 -1.5598 -0.1486  0.3112
 3443TIP3   OH210334   0.390   2.668   1.592  0.0828 -0.0125 -0.1711
 3443TIP3    H110335   0.474   2.621   1.587  0.4108  0.0763  2.7668
 3443TIP3    H210336   0.390   2.708   1.679 -2.5450  0.9543 -0.5275
 3444TIP3   OH210337   5.752   1.334   2.380  0.3001 -0.2933 -0.0973
 3444TIP3    H110338   5.824   1.396   2.392 -0.3566  0.2589  1.2844
 3444TIP3    H210339   5.712   1.327   2.467 -0.5739 -1.5108 -0.5686
 3445TIP3   OH210340   2.363   1.716   0.644 -0.5727  0.1854 -0.1319
 3445TIP3    H110341   2.341   1.692   0.554 -0.2444  1.6170 -0.6204
 3445TIP3    H210342   2.388   1.809   0.639 -0.2896  0.2201  1.3893
 3446TIP3   OH210343   2.562   0.260   3.836 -0.0227 -0.7318 -0.3889
 3446TIP3    H110344   2.474   0.291   3.858 -0.7461 -1.8995 -1.5442
 3446TIP3    H210345   2.564   0.259   3.741  1.4830 -0.1307 -0.3872
 3447TIP3   OH210346   2.782   4.330   1.747 -0.0036  0.4938 -0.2620
 3447TIP3    H110347   2.837   4.403   1.717  1.5262 -0.3335  0.4426
 3447TIP3    H210348   2.758   4.284   1.666  1.8713 -0.1799 -0.4730
 3448TIP3   OH210349   0.602   2.269   3.527 -0.4917 -0.2472  0.6666
 3448TIP3    H110350   0.596   2.360   3.555 -0.6223 -0.0030 -0.1423
 3448TIP3    H210351   0.637   2.273   3.438 -1.2415 -0.9390  0.3296
 3449TIP3   OH210352   3.427   0.344   0.512  0.2934 -0.1719  0.4258
 3449TIP3    H110353   3.487   0.335   0.587 -0.5314  0.3745  1.1766
 3449TIP3    H210354   3.340   0.329   0.550  0.0233 -2.5662 -0.9160
 3450TIP3   OH210355   3.739   1.537   4.699  0.1657 -0.3679  0.2973
 3450TIP3    H110356   3.651   1.505   4.680  0.9224 -2.5241  0.2053
 3450TIP3    H210357   3.732   1.632   4.692 -1.2644 -0.6028 -3.5458
 3451TIP3   OH210358   1.217   3.509   1.691  0.0082 -0.3874 -0.9456
 3451TIP3    H110359   1.166   3.461   1.626  0.4521  0.8032 -2.2152
 3451TIP3    H210360   1.184   3.599   1.686  1.3797  0.1472 -0.9474
 3452TIP3   OH210361   3.695   5.089   1.818 -0.1200  0.0437  0.1820
 3452TIP3    H110362   3.750   5.019   1.853 -1.2906 -0.6828  0.6418
 3452TIP3    H210363   3.713   5.089   1.724 -0.3502 -1.1400  0.1123
 3453TIP3   OH210364   6.152   0.968   4.436 -0.2676 -0.0258 -0.4190
 3453TIP3    H110365   6.224   0.905   4.431 -1.0803 -0.8769 -4.4680
 3453TIP3    H210366   6.187   1.048   4.396 -1.0181  0.1534 -0.7383
 3454TIP3   OH210367   0.810   0.122   4.863 -0.0560 -0.0731 -0.4747
 3454TIP3    H110368   0.792   0.178   4.787 -0.0040  0.1933 -0.2931
 3454TIP3    H210369   0.804   0.033   4.829  1.6864  0.0465 -1.2056
 3455TIP3   OH210370   2.493   5.824   4.456 -0.0453 -0.1454  0.4358
 3455TIP3    H110371   2.442   5.810   4.377  0.2993  2.0290 -0.2428
 3455TIP3    H210372   2.565   5.882   4.429  1.0426 -0.6809  1.9977
 3456TIP3   OH210373   2.464   5.621   3.970  0.1247  0.2631 -0.6613
 3456TIP3    H110374   2.378   5.658   3.951 -0.1980  0.2934  0.7527
 3456TIP3    H210375   2.520   5.697   3.986 -0.2450  0.2055  1.0406
 3457TIP3   OH210376   0.637   0.842   3.453 -0.1447 -0.1075  0.0516
 3457TIP3    H110377   0.593   0.760   3.430  2.1557 -0.9251 -1.8076
 3457TIP3    H210378   0.641   0.891   3.371 -0.7535  1.5545  0.9684
 3458TIP3   OH210379   4.402   3.283   0.493  0.6796 -0.0440  0.4467
 3458TIP3    H110380   4.382   3.307   0.583  0.8706 -0.1380  0.5156
 3458TIP3    H210381   4.492   3.313   0.480  0.2470  1.0492 -0.0943
 3459TIP3   OH210382   6.124   2.356   0.861 -0.5304  0.3887  0.5257
 3459TIP3    H110383   6.089   2.282   0.813  0.0199  0.6006 -0.2144
 3459TIP3    H210384   6.204   2.380   0.814 -1.0937  1.9220  0.3000
 3460TIP3   OH210385   0.662   0.133   2.279 -0.6157 -0.6573  0.9562
 3460TIP3    H110386   0.685   0.207   2.222  0.3282 -0.5830  1.4255
 3460TIP3    H210387   0.567   0.126   2.271 -0.8339  1.1592  1.5665
 3461TIP3   OH210388   2.240   4.102   1.962 -0.3187 -0.3757 -0.3803
 3461TIP3    H110389   2.279   4.086   1.876 -0.3693 -1.3673 -0.2370
 3461TIP3    H210390   2.159   4.050   1.961 -0.6702  0.1538  0.0203
 3462TIP3   OH210391   3.565   3.705   4.364 -0.7298  0.3863  0.4147
 3462TIP3    H110392   3.474   3.705   4.333 -0.3023  0.5970 -0.8974
 3462TIP3    H210393   3.597   3.617   4.345 -0.3267  0.6565 -0.2027
 3463TIP3   OH210394   0.715   2.895   1.571 -0.7114 -0.6970 -0.4108
 3463TIP3    H110395   0.692   2.822   1.514 -1.8208 -0.1979 -0.6350
 3463TIP3    H210396   0.631   2.932   1.598 -0.1811 -0.1914  0.5935
 3464TIP3   OH210397   3.554   3.884   1.571  0.6147  0.4907 -0.0537
 3464TIP3    H110398   3.589   3.815   1.627  0.7457  1.0969  0.6264
 3464TIP3    H210399   3.459   3.881   1.585  0.4881 -0.3944 -1.0174
 3465TIP3   OH210400   3.451   1.314   3.589  0.2650  0.1770  0.6248
 3465TIP3    H110401   3.436   1.309   3.683 -0.3174 -1.0588  0.4922
 3465TIP3    H210402   3.455   1.223   3.560 -1.4978  0.4949 -0.8306
 3466TIP3   OH210403   5.807   4.551   1.186 -0.0498  0.1337 -0.2602
 3466TIP3    H110404   5.734   4.522   1.241  0.7325  0.1527  0.8293
 3466TIP3    H210405   5.884   4.510   1.225  0.4471 -0.5712 -1.8941
 3467TIP3   OH210406   4.772   0.117   1.194 -0.4395 -0.0607 -0.2470
 3467TIP3    H110407   4.692   0.136   1.146  0.4432  1.7035 -1.1682
 3467TIP3    H210408   4.823   0.062   1.135  0.3273  1.4829 -1.0923
 3468TIP3   OH210409   1.869   4.873   1.334 -0.4995 -0.4527 -0.0138
 3468TIP3    H110410   1.803   4.943   1.334 -0.6966 -0.6268  0.7982
 3468TIP3    H210411   1.826   4.799   1.290 -0.7062 -0.4380  0.1633
 3469TIP3   OH210412   1.745   0.996   4.940 -0.1779  0.0677 -0.0524
 3469TIP3    H110413   1.724   0.923   4.999 -1.5594  1.0013  0.6797
 3469TIP3    H210414   1.660   1.024   4.906  0.2936  1.4610 -0.1420
 3470TIP3   OH210415   6.121   3.615   1.939 -0.5642  0.3799  0.1158
 3470TIP3    H110416   6.146   3.527   1.912 -2.1422  0.5933 -2.3048
 3470TIP3    H210417   6.203   3.655   1.968  0.3773 -1.5036  0.1914
 3471TIP3   OH210418   4.322   5.478   5.027 -0.0094  0.1683  0.1645
 3471TIP3    H110419   4.262   5.412   4.993  0.8622 -0.1198 -0.8579
 3471TIP3    H210420   4.277   5.513   5.104 -1.0180 -0.7632  0.0292
 3472TIP3   OH210421   2.249   0.558   0.483 -0.1361 -0.1043  0.0319
 3472TIP3    H110422   2.245   0.624   0.553 -1.3940  0.7946 -0.8387
 3472TIP3    H210423   2.338   0.565   0.449  0.5158 -0.5991  1.5578
 3473TIP3   OH210424   4.038   4.628   0.646 -0.2674 -0.5509  0.2090
 3473TIP3    H110425   4.049   4.714   0.686 -0.4461  0.2735 -1.4071
 3473TIP3    H210426   4.050   4.566   0.717  1.5854  0.7509  1.0978
 3474TIP3   OH210427   2.392   3.445   3.689 -0.0958  0.5209  0.3879
 3474TIP3    H110428   2.401   3.472   3.597  1.5552  0.9771  0.6525
 3474TIP3    H210429   2.433   3.359   3.693  0.3131  0.7332  0.8036
 3475TIP3   OH210430   1.615   5.442   2.791 -0.0852  0.3929 -0.1499
 3475TIP3    H110431   1.576   5.356   2.776 -0.5475  0.6644 -0.5459
 3475TIP3    H210432   1.642   5.472   2.704  1.3363  0.0694  0.1568
 3476TIP3   OH210433   2.919   0.473   3.615  0.6411  0.0112  0.2758
 3476TIP3    H110434   2.946   0.388   3.652 -0.0635  0.0150  0.8269
 3476TIP3    H210435   2.947   0.537   3.680  0.6658  0.1477  0.1290
 3477TIP3   OH210436   3.493   5.580   4.002  0.2168  0.6869  0.0990
 3477TIP3    H110437   3.491   5.672   3.977  2.1663  0.8273  0.2815
 3477TIP3    H210438   3.491   5.581   4.098 -1.0315  0.4482  0.0945
 3478TIP3   OH210439   3.020   4.051   0.070 -0.5592 -0.1077 -0.2960
 3478TIP3    H110440   2.928   4.030   0.085 -0.3267 -0.7417  0.3352
 3478TIP3    H210441   3.067   4.002   0.138  0.1518  1.2827  0.2475
 3479TIP3   OH210442   2.522   1.903   1.622  0.4550 -0.4382 -0.1221
 3479TIP3    H110443   2.503   1.809   1.616 -0.8246 -0.2967  1.1539
 3479TIP3    H210444   2.523   1.922   1.715  1.0403  0.7597 -0.3538
 3480TIP3   OH210445   2.173   2.351   2.361  0.0124  0.1820  0.1673
 3480TIP3    H110446   2.113   2.425   2.374  0.7624  1.1720 -1.5068
 3480TIP3    H210447   2.213   2.337   2.446  0.0994  1.9750  0.4703
 3481TIP3   OH210448   2.257   4.627   0.521  0.6027 -0.4989  0.2492
 3481TIP3    H110449   2.301   4.543   0.505  0.4170 -0.9433  1.9315
 3481TIP3    H210450   2.325   4.693   0.509  1.1082 -0.9943  0.3782
 3482TIP3   OH210451   4.867   0.547   3.604  0.8084 -0.5052 -0.0843
 3482TIP3    H110452   4.784   0.585   3.576  0.2691 -0.9562  0.8517
 3482TIP3    H210453   4.845   0.457   3.627  1.3053 -0.2694  1.3655
 3483TIP3   OH210454   5.744   0.039   2.398 -0.4525 -0.4056  0.0889
 3483TIP3    H110455   5.802   0.052   2.473 -0.3181 -1.5555  0.1963
 3483TIP3    H210456   5.717   0.128   2.373 -2.5228 -0.0853  3.0291
 3484TIP3   OH210457   1.417   4.081   0.475  0.0193  0.0716  0.2609
 3484TIP3    H110458   1.345   4.047   0.421 -0.1820  0.7832  0.0729
 3484TIP3    H210459   1.481   4.010   0.477 -0.3288 -0.2613 -0.2524
 3485TIP3   OH210460   0.098   5.131   3.984 -0.4663 -0.1445  1.1763
 3485TIP3    H110461   0.117   5.046   3.945 -0.2872  0.8723 -1.0984
 3485TIP3    H210462   0.175   5.151   4.037  1.3937  0.3412 -1.5111
 3486TIP3   OH210463   5.762   4.319   3.553  0.1704 -0.8658 -0.2231
 3486TIP3    H110464   5.804   4.241   3.588 -2.1823 -0.6681  3.6383
 3486TIP3    H210465   5.675   4.320   3.593 -0.0721  3.5545 -0.3203
 3487TIP3   OH210466   5.468   1.808   3.099 -0.4180  0.3868 -0.1446
 3487TIP3    H110467   5.482   1.884   3.155  1.0433  0.8200 -1.0458
 3487TIP3    H210468   5.431   1.742   3.158 -0.2023  1.2690  1.0198
 3488TIP3   OH210469   2.444   2.230   3.154  0.0889 -0.3902  0.2849
 3488TIP3    H110470   2.416   2.149   3.195 -3.5320 -0.2150 -1.3887
 3488TIP3    H210471   2.457   2.207   3.062  0.3669  0.6687  0.0403
 3489TIP3   OH210472   4.083   3.982   1.161 -0.2791  0.1444 -0.3888
 3489TIP3    H110473   4.016   3.981   1.093  0.4053  0.0141 -1.0763
 3489TIP3    H210474   4.049   3.924   1.229 -0.4815 -0.6107 -1.1160
 3490TIP3   OH210475   5.637   5.417   0.659 -0.2826 -0.4977 -0.3970
 3490TIP3    H110476   5.635   5.486   0.725 -0.7356  0.8275 -1.7570
 3490TIP3    H210477   5.691   5.348   0.698 -0.8355  0.0869  1.4923
 3491TIP3   OH210478   0.178   4.878   4.556 -0.2800  0.6598  0.6733
 3491TIP3    H110479   0.245   4.901   4.620  0.0955 -1.2194  1.0198
 3491TIP3    H210480   0.213   4.800   4.512 -2.2480 -0.4060  0.8974
 3492TIP3   OH210481   0.376   5.122   3.149 -0.1953  0.1906  0.3586
 3492TIP3    H110482   0.350   5.102   3.239 -1.1554  0.2765  0.1099
 3492TIP3    H210483   0.414   5.040   3.117 -0.4521 -0.0394  0.6320
 3493TIP3   OH210484   4.412   1.322   1.420  0.3996 -0.7530  0.1521
 3493TIP3    H110485   4.341   1.344   1.481 -0.0527 -0.7711 -0.3615
 3493TIP3    H210486   4.461   1.403   1.409  0.0395 -0.5594 -0.0339
 3494TIP3   OH210487   1.504   1.588   3.120 -0.2672 -0.0638 -0.0127
 3494TIP3    H110488   1.501   1.543   3.205  0.0105 -0.2537 -0.1044
 3494TIP3    H210489   1.418   1.570   3.081 -0.7859  0.8497  0.6474
 3495TIP3   OH210490   6.143   5.220   0.065 -0.0488  0.0231 -0.4392
 3495TIP3    H110491   6.192   5.149   0.023 -0.6329 -1.1897  0.8294
 3495TIP3    H210492   6.060   5.179   0.090  0.6956  0.2502  2.9475
 3496TIP3   OH210493   2.661   2.658   0.254 -0.1627 -0.8804 -0.1059
 3496TIP3    H110494   2.641   2.569   0.283  0.4247 -2.1080 -3.1095
 3496TIP3    H210495   2.753   2.671   0.274 -0.1077 -1.1890 -0.1580
 3497TIP3   OH210496   2.032   3.619   0.729  0.3413 -0.1930 -0.3822
 3497TIP3    H110497   2.048   3.549   0.793  1.4197  1.3268  1.0950
 3497TIP3    H210498   2.061   3.699   0.773 -0.1166  1.1031 -2.3109
 3498TIP3   OH210499   1.619   0.109   0.073  0.1224  0.4671 -0.3486
 3498TIP3    H110500   1.627   0.198   0.107  1.6636 -0.2496  1.3569
 3498TIP3    H210501   1.698   0.097   0.020 -0.0501  0.0972 -0.5263
 3499TIP3   OH210502   0.236   5.556   1.168  0.4682  0.4985 -0.0587
 3499TIP3    H110503   0.268   5.591   1.251 -0.0999  2.0410 -0.4417
 3499TIP3    H210504   0.150   5.520   1.188  0.8211 -0.1815  0.2391
 3500TIP3   OH210505   1.819   5.337   0.308  0.2160 -0.2767  0.5215
 3500TIP3    H110506   1.858   5.406   0.361 -0.2724 -0.0373  0.5772
 3500TIP3    H210507   1.728   5.364   0.298  0.0608 -0.8412  0.4160
 3501TIP3   OH210508   4.526   1.982   3.176  0.2175  0.2292  0.8831
 3501TIP3    H110509   4.446   2.032   3.158 -0.5447 -0.4765  2.1628
 3501TIP3    H210510   4.574   1.985   3.094 -1.5130 -0.0165 -0.1986
 3502TIP3   OH210511   1.444   4.198   3.678  0.4975  0.5503  0.5790
 3502TIP3    H110512   1.461   4.256   3.604  0.4352  0.3814  0.4285
 3502TIP3    H210513   1.376   4.139   3.646  0.7724  0.2048  0.6236
 3503TIP3   OH210514   2.880   5.694   1.768 -0.0462  0.0231  0.2577
 3503TIP3    H110515   2.849   5.754   1.835 -1.2322 -0.5175  0.2221
 3503TIP3    H210516   2.968   5.725   1.746 -0.5805  1.6703  0.3145
 3504TIP3   OH210517   1.408   1.001   0.950  0.2151 -0.0725 -0.1576
 3504TIP3    H110518   1.436   0.954   1.028  1.8346  1.8725  0.5068
 3504TIP3    H210519   1.486   1.004   0.894 -0.9804 -1.7033 -2.0901
 3505TIP3   OH210520   5.925   4.230   4.287  0.0288  0.0172 -0.0685
 3505TIP3    H110521   5.926   4.135   4.287  1.1377  0.0174 -0.4969
 3505TIP3    H210522   5.892   4.254   4.374  0.0088 -0.7517  0.1368
 3506TIP3   OH210523   0.336   3.201   2.357  0.0446 -0.1394  0.4187
 3506TIP3    H110524   0.296   3.132   2.303 -0.4714  1.5938 -1.5610
 3506TIP3    H210525   0.271   3.219   2.424 -1.8095  1.2862 -1.6068
 3507TIP3   OH210526   3.601   1.975   1.487  0.0506  0.3208  0.0556
 3507TIP3    H110527   3.669   1.908   1.488 -0.0024  0.2604  0.9939
 3507TIP3    H210528   3.556   1.964   1.571 -1.1387  0.3295 -0.5610
 3508TIP3   OH210529   1.191   3.473   0.073  0.4031  0.7020  0.5412
 3508TIP3    H110530   1.144   3.521   0.005  2.9997  1.8114 -0.6127
 3508TIP3    H210531   1.124   3.451   0.138 -2.0089  0.4613 -1.8586
 3509TIP3   OH210532   2.459   1.135   4.961  1.1989 -0.1703 -0.5794
 3509TIP3    H110533   2.390   1.198   4.940 -0.1478 -1.1159  0.7729
 3509TIP3    H210534   2.536   1.189   4.979  0.1252  1.1256  0.4121
 3510TIP3   OH210535   2.450   4.394   3.638 -0.2774  0.4989  0.1057
 3510TIP3    H110536   2.441   4.407   3.544  0.4554 -0.6902 -0.1440
 3510TIP3    H210537   2.476   4.303   3.648  0.4818  0.8268  1.4079
 3511TIP3   OH210538   5.410   2.597   1.858 -1.0255 -0.0335  0.0431
 3511TIP3    H110539   5.380   2.612   1.769 -2.3156 -2.4787 -0.0216
 3511TIP3    H210540   5.502   2.623   1.857 -0.9765 -0.1203 -2.0263
 3512TIP3   OH210541   1.843   4.371   2.230  0.4982 -0.3249  0.5913
 3512TIP3    H110542   1.831   4.444   2.291  2.8018  1.5600 -1.0387
 3512TIP3    H210543   1.762   4.366   2.181  0.5711  1.7463  0.1819
 3513TIP3   OH210544   1.641   3.788   1.504  0.3289 -0.0618  0.0379
 3513TIP3    H110545   1.701   3.839   1.559  1.3359 -0.7620 -0.3716
 3513TIP3    H210546   1.554   3.822   1.525  0.8929  1.2223  0.3962
 3514TIP3   OH210547   2.927   2.498   2.178 -0.0321  0.5004  0.0984
 3514TIP3    H110548   2.983   2.517   2.103  1.8009 -0.9670  1.0142
 3514TIP3    H210549   2.985   2.454   2.241 -2.0080 -0.2586  1.4851
 3515TIP3   OH210550   0.845   3.456   0.737 -0.7669  0.6843 -0.1483
 3515TIP3    H110551   0.851   3.472   0.832 -1.8755  0.8938 -0.0986
 3515TIP3    H210552   0.890   3.531   0.698  0.1232  0.3556  0.2048
 3516TIP3   OH210553   0.498   4.905   2.250  0.3805  0.3475 -0.2662
 3516TIP3    H110554   0.469   4.844   2.318  1.5788 -1.6257 -1.4582
 3516TIP3    H210555   0.576   4.947   2.287  1.1503 -0.8694 -0.4807
 3517TIP3   OH210556   4.551   3.238   2.536  0.1483 -0.0645 -0.8156
 3517TIP3    H110557   4.500   3.237   2.454  0.4897 -0.5131 -1.0221
 3517TIP3    H210558   4.641   3.255   2.508  0.2970 -0.4092 -0.5503
 3518TIP3   OH210559   3.884   0.670   4.015  0.0754  0.7281 -0.7837
 3518TIP3    H110560   3.869   0.722   4.094  1.1145  1.2770 -0.9228
 3518TIP3    H210561   3.852   0.583   4.037 -0.7647  1.1732 -0.1851
 3519TIP3   OH210562   0.056   5.058   3.523  0.8095  0.3924  0.1607
 3519TIP3    H110563   0.146   5.025   3.523  0.0899 -2.0588 -2.7549
 3519TIP3    H210564   0.050   5.110   3.443 -0.3535  0.5764  0.3545
 3520TIP3   OH210565   0.904   5.479   2.153  0.2146 -0.0366  0.3259
 3520TIP3    H110566   0.850   5.437   2.220  1.6921  0.2122  1.7633
 3520TIP3    H210567   0.873   5.443   2.070 -1.4518 -0.6341  1.1600
 3521TIP3   OH210568   1.740   0.145   4.164  0.2243 -0.2390  0.6254
 3521TIP3    H110569   1.768   0.217   4.220 -0.6315  0.6559 -0.0696
 3521TIP3    H210570   1.707   0.187   4.084  0.5553 -1.4432 -0.1739
 3522TIP3   OH210571   4.443   1.997   1.455 -0.4646  0.4679 -0.0291
 3522TIP3    H110572   4.362   2.048   1.469  0.5472  2.2709 -0.3881
 3522TIP3    H210573   4.416   1.925   1.398 -1.9420  0.6865  0.3485
 3523TIP3   OH210574   0.341   4.531   2.330 -0.0610  0.4941 -0.2270
 3523TIP3    H110575   0.399   4.573   2.267 -0.6363 -0.1840 -1.2291
 3523TIP3    H210576   0.367   4.569   2.415  0.6394  1.5121 -0.8668
 3524TIP3   OH210577   4.325   0.962   4.597 -0.4534  0.0564 -0.1909
 3524TIP3    H110578   4.332   1.015   4.676 -0.9259 -1.8168  1.1967
 3524TIP3    H210579   4.246   0.909   4.610 -1.8723  1.2768 -2.9877
 3525TIP3   OH210580   1.297   1.870   4.416 -0.7089 -0.3305 -0.8692
 3525TIP3    H110581   1.318   1.812   4.489 -1.1998 -0.2358 -0.6506
 3525TIP3    H210582   1.378   1.917   4.399 -0.3430 -0.9812 -0.9597
 3526TIP3   OH210583   4.531   2.059   4.312  0.4416 -0.2027 -0.1536
 3526TIP3    H110584   4.519   2.116   4.236 -0.7773  1.5496  1.2776
 3526TIP3    H210585   4.624   2.067   4.334  1.0112 -1.3936 -1.8836
 3527TIP3   OH210586   0.804   1.295   3.164  0.1937  0.2003 -0.3220
 3527TIP3    H110587   0.844   1.208   3.165  2.4394  1.1070  1.7732
 3527TIP3    H210588   0.787   1.314   3.257 -0.8983  1.7263 -0.7950
 3528TIP3   OH210589   5.850   2.895   4.731 -0.4331 -0.1755 -0.2048
 3528TIP3    H110590   5.798   2.965   4.771 -1.4850 -0.6728 -0.6727
 3528TIP3    H210591   5.904   2.940   4.666 -0.4857  0.3097  0.0792
 3529TIP3   OH210592   0.238   0.257   1.475  0.2676 -0.5335 -0.4797
 3529TIP3    H110593   0.266   0.320   1.542 -0.0467  1.0913 -1.8086
 3529TIP3    H210594   0.165   0.210   1.516 -0.2185  0.7462  0.1910
 3530TIP3   OH210595   1.618   4.400   0.047 -0.2788 -0.2955 -0.3634
 3530TIP3    H110596   1.622   4.305   0.046  0.8777 -0.2525 -1.1400
 3530TIP3    H210597   1.646   4.425   0.135  0.9132 -0.6347 -0.6322
 3531TIP3   OH210598   5.183   2.199   4.714  0.3526 -0.0397 -0.6301
 3531TIP3    H110599   5.105   2.253   4.728  1.1535  1.3905 -1.4557
 3531TIP3    H210600   5.153   2.128   4.657 -0.7664 -0.6379  0.6429
 3532TIP3   OH210601   3.431   3.706   3.324  0.2664  0.3726  0.6579
 3532TIP3    H110602   3.436   3.684   3.231  0.7504 -0.2158  0.8150
 3532TIP3    H210603   3.340   3.732   3.338 -0.0949 -0.6114  0.2500
 3533TIP3   OH210604   5.482   1.567   1.895 -0.1121 -0.0496 -0.1350
 3533TIP3    H110605   5.479   1.649   1.844  0.9342  0.2681  0.2757
 3533TIP3    H210606   5.432   1.585   1.974  1.2252  0.6890  0.5902
 3534TIP3   OH210607   0.457   4.494   4.180  0.4082  0.1283 -0.5574
 3534TIP3    H110608   0.401   4.421   4.154  1.2908 -0.8689  0.2244
 3534TIP3    H210609   0.541   4.453   4.203 -0.0796  0.8733  3.3002
 3535TIP3   OH210610   5.106   1.338   0.623  0.2926 -0.0219  0.0273
 3535TIP3    H110611   5.175   1.283   0.588 -1.1904 -1.2349 -1.1313
 3535TIP3    H210612   5.039   1.276   0.653  0.0436  1.0856  1.9029
 3536TIP3   OH210613   1.977   1.029   1.708  0.3211  0.1787  0.4682
 3536TIP3    H110614   2.014   0.950   1.748  0.6797  0.5694  0.9353
 3536TIP3    H210615   1.962   1.088   1.782 -0.3939  0.3682  0.1769
 3537TIP3   OH210616   1.708   0.733   2.545 -0.0573 -0.3255  0.3501
 3537TIP3    H110617   1.801   0.711   2.552 -0.0941 -0.4833  0.3607
 3537TIP3    H210618   1.665   0.675   2.608 -0.3321 -1.3967 -0.7607
 3538TIP3   OH210619   3.121   3.629   2.572  0.6861  0.2142 -0.1763
 3538TIP3    H110620   3.149   3.641   2.662 -0.8966 -0.8590  0.5134
 3538TIP3    H210621   3.027   3.648   2.572  0.1844 -1.8474 -1.0799
 3539TIP3   OH210622   2.209   0.821   2.706 -0.0859 -0.0924  0.1168
 3539TIP3    H110623   2.126   0.865   2.720 -0.4063 -0.6006 -0.1744
 3539TIP3    H210624   2.240   0.799   2.794  0.0836  0.7052  0.2675
 3540TIP3   OH210625   4.131   5.919   1.864  0.2351 -0.3397 -0.2601
 3540TIP3    H110626   4.158   5.858   1.932  0.2937  1.1052  1.0883
 3540TIP3    H210627   4.097   5.864   1.794  0.9853 -1.9223  0.5727
 3541TIP3   OH210628   3.395   5.764   1.456  0.7266  0.0063  0.2907
 3541TIP3    H110629   3.352   5.748   1.372  1.4016 -0.1364 -0.0308
 3541TIP3    H210630   3.399   5.678   1.498  1.3849 -0.1135 -0.0118
 3542TIP3   OH210631   1.950   4.815   3.810 -0.4819  0.2039  0.6201
 3542TIP3    H110632   2.011   4.755   3.854  0.0019  0.3778  0.1949
 3542TIP3    H210633   2.006   4.883   3.773 -0.6336 -0.9377 -1.9352
 3543TIP3   OH210634   1.846   1.555   4.623 -0.0704  0.6578 -0.7646
 3543TIP3    H110635   1.755   1.554   4.593 -0.1717 -0.3267 -0.4581
 3543TIP3    H210636   1.885   1.629   4.577 -1.0237  1.0931 -0.9074
 3544TIP3   OH210637   3.896   1.349   4.598  0.0821  0.0276 -0.1804
 3544TIP3    H110638   3.835   1.416   4.628  0.7858  1.4964 -1.8714
 3544TIP3    H210639   3.896   1.284   4.669 -0.3842  1.9273  1.6899
 3545TIP3   OH210640   2.402   1.425   0.691 -0.3375 -0.2365  0.0840
 3545TIP3    H110641   2.351   1.385   0.762  0.5073 -0.9968  0.2856
 3545TIP3    H210642   2.384   1.518   0.698  0.6042 -0.1487  2.0651
 3546TIP3   OH210643   6.255   5.104   4.809  0.1834 -0.8264  0.0634
 3546TIP3    H110644   6.178   5.066   4.851  0.1099  0.3671  1.0719
 3546TIP3    H210645   6.302   5.149   4.879 -0.7560  2.5764 -1.2820
 3547TIP3   OH210646   0.731   3.361   3.772 -0.0542  0.4344  0.0259
 3547TIP3    H110647   0.813   3.362   3.821 -1.0082  2.3672  1.7069
 3547TIP3    H210648   0.758   3.375   3.681  1.6053 -1.1539  0.2292
 3548TIP3   OH210649   5.015   4.810   3.955 -1.1048  0.1832  0.1433
 3548TIP3    H110650   5.030   4.715   3.958 -1.0873  0.1169 -1.1982
 3548TIP3    H210651   5.099   4.846   3.927 -1.1786  0.5716  0.4236
 3549TIP3   OH210652   0.139   0.910   0.639 -0.1812 -0.5027  0.2308
 3549TIP3    H110653   0.164   0.995   0.676  0.7727  0.0717 -1.6316
 3549TIP3    H210654   0.044   0.917   0.627 -0.3715 -0.3545  1.6135
 3550TIP3   OH210655   1.406   4.214   0.717  0.4862 -0.2120 -0.0779
 3550TIP3    H110656   1.360   4.297   0.706  0.1917 -0.3324  0.2219
 3550TIP3    H210657   1.389   4.167   0.635 -0.4159 -0.4853  0.2510
 3551TIP3   OH210658   1.259   4.312   4.567  0.0401 -0.3973  0.2108
 3551TIP3    H110659   1.299   4.387   4.524  0.4202 -0.3562  0.6303
 3551TIP3    H210660   1.183   4.348   4.613  0.4020 -0.2050  0.6742
 3552TIP3   OH210661   1.362   4.341   5.109  0.5999 -0.1890  0.1505
 3552TIP3    H110662   1.337   4.413   5.052 -0.3302 -0.9620 -0.4443
 3552TIP3    H210663   1.435   4.299   5.065  1.1862  0.4205  0.5306
 3553TIP3   OH210664   1.102   3.753   2.842  0.2957  0.3834 -0.1503
 3553TIP3    H110665   1.024   3.798   2.807  1.0966  0.0002 -2.6429
 3553TIP3    H210666   1.144   3.817   2.898 -1.7979  0.5942  1.2912
 3554TIP3   OH210667   0.539   3.538   1.608  0.3248 -0.3997 -0.8985
 3554TIP3    H110668   0.619   3.492   1.634 -0.0981 -1.0872 -0.7787
 3554TIP3    H210669   0.559   3.574   1.522  0.6590 -0.8243 -1.0013
 3555TIP3   OH210670   1.798   4.064   2.484  0.0239  0.1761  0.1459
 3555TIP3    H110671   1.883   4.019   2.489 -0.1706 -0.1814  0.2475
 3555TIP3    H210672   1.756   4.043   2.568 -0.7520 -0.8174 -0.4705
 3556TIP3   OH210673   5.091   4.393   1.200  0.0373 -0.5885  0.6393
 3556TIP3    H110674   5.024   4.346   1.249 -1.4221  0.4159 -0.3333
 3556TIP3    H210675   5.049   4.416   1.118  1.4315  0.4813  0.1895
 3557TIP3   OH210676   4.243   2.269   4.776  0.1267  0.2313 -0.1780
 3557TIP3    H110677   4.266   2.179   4.801  1.0588  0.4113 -0.3395
 3557TIP3    H210678   4.319   2.300   4.726 -0.1415  1.1444 -0.0393
 3558TIP3   OH210679   0.578   0.410   0.828  0.5977  0.0963 -0.5713
 3558TIP3    H110680   0.559   0.478   0.893  0.4020 -0.8248  0.3648
 3558TIP3    H210681   0.493   0.373   0.806  0.9188 -2.5737  2.0127
 3559TIP3   OH210682   3.189   2.275   2.083  0.2853  0.4362 -0.3978
 3559TIP3    H110683   3.213   2.250   2.172 -1.9341  0.4636  0.2608
 3559TIP3    H210684   3.207   2.369   2.078  1.3293  0.2518 -0.3306
 3560TIP3   OH210685   6.168   0.417   5.085  0.4281  0.3772  0.2360
 3560TIP3    H110686   6.250   0.442   5.044  0.4599 -0.4085 -0.2139
 3560TIP3    H210687   6.173   0.452   5.174  1.2811  0.2795  0.2343
 3561TIP3   OH210688   3.494   2.996   5.107 -0.3323 -0.1709 -0.4994
 3561TIP3    H110689   3.571   3.037   5.146  0.3370 -0.4824 -1.4305
 3561TIP3    H210690   3.449   3.067   5.062 -0.1916 -0.1176 -0.5563
 3562TIP3   OH210691   2.659   1.275   2.799  0.8888  0.3091 -0.1331
 3562TIP3    H110692   2.729   1.236   2.748  0.6295  0.1851 -0.3980
 3562TIP3    H210693   2.589   1.290   2.736  0.0373 -1.1054  0.4381
 3563TIP3   OH210694   1.050   3.512   5.037  0.7071 -0.1873 -0.3660
 3563TIP3    H110695   1.061   3.422   5.006 -0.2539 -0.7139  0.7249
 3563TIP3    H210696   1.004   3.502   5.120  1.7214  1.2526  0.4053
 3564TIP3   OH210697   5.430   5.196   3.579  0.0631  0.3212  0.0908
 3564TIP3    H110698   5.407   5.115   3.533 -1.6101  0.7072  0.1737
 3564TIP3    H210699   5.455   5.168   3.667 -0.4511 -0.1198  0.1031
 3565TIP3   OH210700   1.715   4.755   0.425  0.2195 -0.5088 -0.0394
 3565TIP3    H110701   1.801   4.734   0.390 -0.3922  0.0566 -2.0579
 3565TIP3    H210702   1.716   4.850   0.437 -0.0999 -0.5035 -0.0353
 3566TIP3   OH210703   0.494   1.272   1.058  0.1587  0.1756 -0.2492
 3566TIP3    H110704   0.410   1.313   1.079  0.0964  0.4227 -0.9547
 3566TIP3    H210705   0.517   1.306   0.972  1.9685  1.6755  0.7281
 3567TIP3   OH210706   2.498   2.912   2.124  0.3906 -0.3104  0.0411
 3567TIP3    H110707   2.541   2.971   2.061 -0.6494 -0.1020 -0.4912
 3567TIP3    H210708   2.433   2.966   2.167  1.2774 -0.3765  1.5456
 3568TIP3   OH210709   5.180   1.790   0.320  0.3884 -0.0927  0.3738
 3568TIP3    H110710   5.265   1.797   0.364 -0.0392  4.3261  0.9331
 3568TIP3    H210711   5.116   1.810   0.389 -0.8712 -0.2323 -0.7250
 3569TIP3   OH210712   0.396   0.078   3.779  0.4491 -0.1311  0.3026
 3569TIP3    H110713   0.402   0.158   3.728  0.6009 -0.7696 -0.7124
 3569TIP3    H210714   0.312   0.040   3.754  0.2596 -0.1628  0.9731
 3570TIP3   OH210715   1.016  -0.010   4.388  0.5928  1.0233 -0.7891
 3570TIP3    H110716   1.051   0.058   4.445  1.1237 -0.1853  0.4062
 3570TIP3    H210717   1.078  -0.014   4.315  0.2979  2.1195 -1.1138
 3571TIP3   OH210718   1.974   1.262   3.752 -0.0930 -0.4220  0.2772
 3571TIP3    H110719   1.980   1.337   3.693  1.2964 -0.3823  0.4163
 3571TIP3    H210720   1.955   1.187   3.695  0.2497 -0.2300 -0.0926
 3572TIP3   OH210721   0.291   2.112   4.138 -0.3551  0.0683 -0.3341
 3572TIP3    H110722   0.349   2.043   4.168 -0.7086 -0.5026 -0.9455
 3572TIP3    H210723   0.318   2.130   4.048 -0.3190  0.6672 -0.2097
 3573TIP3   OH210724   0.739   1.097   1.091 -0.5621  0.0960 -0.8789
 3573TIP3    H110725   0.728   1.030   1.023 -0.1797  0.7808 -1.6410
 3573TIP3    H210726   0.650   1.116   1.120 -1.0786  1.8789 -3.3008
 3574TIP3   OH210727   0.167   2.721   4.668  0.0510  0.6159  0.3911
 3574TIP3    H110728   0.097   2.784   4.654 -1.7321 -1.7990 -3.1784
 3574TIP3    H210729   0.122   2.638   4.684  2.1291 -0.6709 -0.0159
 3575TIP3   OH210730   5.116   4.346   4.227  0.2804  0.2851  0.6199
 3575TIP3    H110731   5.184   4.332   4.293  0.8470  0.4588  0.0847
 3575TIP3    H210732   5.068   4.264   4.223  1.7762 -0.5867 -0.4608
 3576TIP3   OH210733   2.338   1.540   4.714  0.6912 -0.4872 -0.0011
 3576TIP3    H110734   2.285   1.587   4.650  0.9964 -0.8190 -0.5054
 3576TIP3    H210735   2.426   1.577   4.705  0.7363 -0.5333  0.2279
 3577TIP3   OH210736   3.449   2.931   4.262 -0.3174 -0.0293 -0.0772
 3577TIP3    H110737   3.497   2.908   4.342  1.1860  0.2507 -0.8658
 3577TIP3    H210738   3.486   2.873   4.195 -0.6469  0.6358 -0.8474
 3578TIP3   OH210739   4.399   3.664   0.653 -0.2170  0.3626 -0.4400
 3578TIP3    H110740   4.423   3.577   0.621 -0.2052  0.7880 -1.6360
 3578TIP3    H210741   4.395   3.654   0.748 -0.5482 -1.0269 -0.5758
 3579TIP3   OH210742   4.480   2.972   2.080 -0.1173 -0.0480 -0.2549
 3579TIP3    H110743   4.524   2.964   1.995 -0.6453 -0.5617 -0.4869
 3579TIP3    H210744   4.548   2.952   2.144  0.5985  1.4962 -0.4840
 3580TIP3   OH210745   1.791   5.376   1.406  0.4570 -0.7753 -0.3116
 3580TIP3    H110746   1.801   5.292   1.452  0.7597 -0.6020 -0.0517
 3580TIP3    H210747   1.760   5.353   1.319  0.6883 -1.1665 -0.2892
 3581TIP3   OH210748   1.558   3.992   0.184  0.2850 -0.1309  0.2599
 3581TIP3    H110749   1.481   3.945   0.153  0.1080 -0.7681  1.6223
 3581TIP3    H210750   1.584   3.947   0.264  2.4943 -0.3640 -0.5001
 3582TIP3   OH210751   5.634   4.520   4.771  0.2148 -0.2594  0.0332
 3582TIP3    H110752   5.683   4.539   4.851  1.8704 -0.5758 -0.8622
 3582TIP3    H210753   5.697   4.475   4.714 -0.8677  0.0790 -1.5041
 3583TIP3   OH210754   3.773   5.476   0.822  0.3134  0.5764 -0.1693
 3583TIP3    H110755   3.808   5.531   0.751 -1.1439  0.3282 -1.1346
 3583TIP3    H210756   3.845   5.419   0.846  0.6672  0.2229 -1.9235
 3584TIP3   OH210757   2.384   1.343   4.482 -0.2568 -0.3955 -0.2240
 3584TIP3    H110758   2.305   1.319   4.531 -1.6128 -1.3038 -2.6774
 3584TIP3    H210759   2.381   1.288   4.404  2.4874  0.0468 -0.7267
 3585TIP3   OH210760   4.465   4.127   0.934  0.1440  0.4223  0.2309
 3585TIP3    H110761   4.412   4.113   0.856  1.8594 -1.8717 -0.6629
 3585TIP3    H210762   4.504   4.214   0.922 -0.7717  0.7173 -0.7218
 3586TIP3   OH210763   0.756   0.924   0.867  0.2608  0.0606 -0.2918
 3586TIP3    H110764   0.694   0.959   0.804 -1.6251 -0.7881  0.9901
 3586TIP3    H210765   0.820   0.876   0.814 -0.7573  0.0976 -1.6027
 3587TIP3   OH210766   4.408   1.686   3.174  0.1254  0.3401 -0.4715
 3587TIP3    H110767   4.446   1.769   3.147 -1.5982  0.9759 -1.0657
 3587TIP3    H210768   4.344   1.664   3.106 -1.9639  0.3300  1.3538
 3588TIP3   OH210769   6.012   5.841   4.891  0.0677  0.3137  0.1507
 3588TIP3    H110770   5.975   5.777   4.830 -0.7776 -0.2756  1.2414
 3588TIP3    H210771   5.993   5.926   4.851 -1.9280  0.0140  0.3293
 3589TIP3   OH210772   3.508   2.555   2.034 -0.1676  0.1161 -0.0426
 3589TIP3    H110773   3.415   2.535   2.041  0.0046 -1.4736 -1.5441
 3589TIP3    H210774   3.521   2.631   2.091 -2.3165  0.2213  0.3837
 3590TIP3   OH210775   0.311   1.297   0.155 -0.0495 -0.4331 -0.0042
 3590TIP3    H110776   0.321   1.206   0.128 -0.2446 -0.7727  1.0253
 3590TIP3    H210777   0.218   1.306   0.175  0.1244 -0.2760  0.7920
 3591TIP3   OH210778   3.263   1.823   2.538  0.5967 -0.2556  0.4540
 3591TIP3    H110779   3.355   1.826   2.565  1.2506 -1.7326 -1.3797
 3591TIP3    H210780   3.265   1.839   2.444 -0.8880 -1.4235  0.1823
 3592TIP3   OH210781   4.739   5.776   3.219  0.4160  0.0093  0.3692
 3592TIP3    H110782   4.665   5.830   3.193 -0.0094 -0.0096  1.5038
 3592TIP3    H210783   4.802   5.837   3.258  0.6913 -0.0756  0.0633
 3593TIP3   OH210784   4.082   1.116   0.633 -0.1937 -0.0101 -0.2162
 3593TIP3    H110785   3.990   1.109   0.610 -0.2895 -0.5831  0.3114
 3593TIP3    H210786   4.112   1.025   0.640  0.5154  0.1657 -0.7813
 3594TIP3   OH210787   4.614   4.301   1.566 -0.8415  0.0254  0.1508
 3594TIP3    H110788   4.537   4.288   1.510  0.8453 -1.4998 -1.9712
 3594TIP3    H210789   4.590   4.259   1.648 -2.0918 -0.9307 -0.6496
 3595TIP3   OH210790   1.629   0.551   0.681  0.6476  0.6871 -0.0247
 3595TIP3    H110791   1.702   0.612   0.676  0.3985  1.1380  1.3662
 3595TIP3    H210792   1.661   0.479   0.735  0.4618  0.2704 -0.4549
 3596TIP3   OH210793   0.569   3.266   2.471 -0.1835 -0.7511 -0.0774
 3596TIP3    H110794   0.554   3.256   2.565  0.0599 -0.5366 -0.0168
 3596TIP3    H210795   0.493   3.223   2.431 -0.6671 -0.1989  0.2239
 3597TIP3   OH210796   2.803   4.514   3.362 -0.4164 -0.5803 -0.1160
 3597TIP3    H110797   2.884   4.541   3.318  0.2836  0.7159  1.8329
 3597TIP3    H210798   2.737   4.575   3.329 -0.3908 -1.0254 -0.9991
 3598TIP3   OH210799   2.506   3.681   1.574 -0.1548  0.2438  0.2089
 3598TIP3    H110800   2.588   3.631   1.567 -0.3250 -0.2672  1.5936
 3598TIP3    H210801   2.455   3.654   1.498 -0.1361 -1.5242  0.7742
 3599TIP3   OH210802   3.336   1.803   3.264 -0.1717 -0.2759 -0.8999
 3599TIP3    H110803   3.304   1.729   3.212 -1.1749  0.4884 -1.4070
 3599TIP3    H210804   3.308   1.783   3.353  2.3587 -2.0456 -0.4114
 3600TIP3   OH210805   2.364   0.066   3.401 -0.4321 -0.1217  0.1415
 3600TIP3    H110806   2.283   0.097   3.442  0.0849 -0.2621  1.3175
 3600TIP3    H210807   2.338   0.041   3.313 -1.6230  0.0711  0.4168
 3601TIP3   OH210808   3.181   1.435   3.544 -0.1268 -0.6328 -0.4045
 3601TIP3    H110809   3.260   1.382   3.539 -0.3385 -1.0293  0.3852
 3601TIP3    H210810   3.111   1.373   3.564 -0.3192 -0.0345  0.8903
 3602TIP3   OH210811   2.464   0.257   2.973  0.7527 -0.1620 -0.6396
 3602TIP3    H110812   2.376   0.264   3.009  1.0235 -1.9743  0.4985
 3602TIP3    H210813   2.507   0.339   3.000 -0.4138  0.5425 -0.8376
 3603TIP3   OH210814   0.503   5.810   3.204  0.2783  0.0574 -0.0824
 3603TIP3    H110815   0.468   5.817   3.293  0.9849 -0.9877  0.2921
 3603TIP3    H210816   0.447   5.746   3.161  1.7820 -1.8017  0.5901
 3604TIP3   OH210817   5.669   1.373   2.637 -0.2461 -0.5122 -0.2054
 3604TIP3    H110818   5.639   1.455   2.678 -1.1760 -0.2418 -1.3405
 3604TIP3    H210819   5.758   1.361   2.668  0.1709  1.3431 -0.5737
 3605TIP3   OH210820   0.759   4.102   1.663 -0.2748 -0.0486  0.0886
 3605TIP3    H110821   0.687   4.070   1.608  0.0436  0.7426 -0.8146
 3605TIP3    H210822   0.838   4.075   1.617  0.0118 -0.5246  0.8489
 3606TIP3   OH210823   3.543   0.161   1.241 -0.2482 -0.9863  0.0433
 3606TIP3    H110824   3.591   0.154   1.159  0.1404 -0.5811  0.2306
 3606TIP3    H210825   3.543   0.073   1.278  3.7804 -0.4242  1.9569
 3607TIP3   OH210826   5.102   1.343   2.144 -0.0282 -0.5676  0.6456
 3607TIP3    H110827   5.130   1.371   2.231 -0.2282 -2.0317  1.2054
 3607TIP3    H210828   5.104   1.247   2.147 -2.0455 -0.6955 -0.2972
 3608TIP3   OH210829   4.840   0.964   4.795  0.3593 -0.6943 -0.2304
 3608TIP3    H110830   4.751   0.930   4.805 -0.5149  1.7400  1.2317
 3608TIP3    H210831   4.841   1.002   4.707 -0.0787 -0.6708 -0.2314
 3609TIP3   OH210832   0.082   0.582   5.120 -0.0483 -0.2637 -0.3144
 3609TIP3    H110833   0.169   0.574   5.159  0.5067  3.2192 -0.5315
 3609TIP3    H210834   0.098   0.581   5.026 -0.5066 -1.4123 -0.3938
 3610TIP3   OH210835   3.046   4.559   1.420 -0.0375 -0.7331  0.1836
 3610TIP3    H110836   3.093   4.482   1.389 -0.0747 -1.0853  0.9811
 3610TIP3    H210837   3.010   4.533   1.505  2.2240  0.9946  1.7953
 3611TIP3   OH210838   2.593   4.050   0.812  0.2201 -0.2595  0.4204
 3611TIP3    H110839   2.509   4.016   0.783 -1.0002  0.7822  2.4854
 3611TIP3    H210840   2.600   4.137   0.773 -0.0151 -0.0679  0.7937
 3612TIP3   OH210841   1.399   3.042   1.734  0.3408  0.0362  0.0901
 3612TIP3    H110842   1.445   2.990   1.668 -0.2723 -1.6677  0.9315
 3612TIP3    H210843   1.450   3.028   1.814 -0.1269  0.3250  0.4390
 3613TIP3   OH210844   0.419   0.801   3.010 -0.4836 -1.2007  0.5488
 3613TIP3    H110845   0.483   0.732   3.027 -0.3855 -1.6925 -1.6088
 3613TIP3    H210846   0.410   0.803   2.915 -0.3293  1.9080  0.4892
 3614TIP3   OH210847   2.340   5.649   2.683  0.4310 -0.4429  0.3605
 3614TIP3    H110848   2.401   5.657   2.756  1.3701  0.8263 -0.5240
 3614TIP3    H210849   2.254   5.661   2.722  1.0161  2.3435  1.0321
 3615TIP3   OH210850   4.831   0.086   3.291  0.0201 -0.1460  0.6178
 3615TIP3    H110851   4.859   0.009   3.340  0.3606 -0.1597  0.4078
 3615TIP3    H210852   4.861   0.160   3.344  1.1154 -0.1575  0.0418
 3616TIP3   OH210853   6.244   1.329   4.709  0.2061 -0.2312 -0.5813
 3616TIP3    H110854   6.291   1.249   4.682  0.3307 -0.7357  1.0452
 3616TIP3    H210855   6.171   1.296   4.762 -1.4334  0.6027 -2.2071
 3617TIP3   OH210856   5.730   3.981   0.601 -0.0750  0.4630 -0.2258
 3617TIP3    H110857   5.757   3.921   0.672 -0.8267  0.3316 -0.0405
 3617TIP3    H210858   5.797   4.049   0.600  0.7199 -0.3039 -0.3414
 3618TIP3   OH210859   5.349   1.160   3.445  0.0496 -0.1180  0.2535
 3618TIP3    H110860   5.323   1.178   3.535 -0.1643 -1.0033  0.3745
 3618TIP3    H210861   5.398   1.078   3.450  0.4122  0.0540 -0.3788
 3619TIP3   OH210862   5.679   5.347   1.077 -0.0057 -0.5300 -0.4884
 3619TIP3    H110863   5.719   5.274   1.124 -0.7603 -0.7986 -0.2569
 3619TIP3    H210864   5.586   5.325   1.072  0.0344 -0.4756 -2.0237
 3620TIP3   OH210865   3.103   1.939   4.202  0.1654  0.4158 -0.2355
 3620TIP3    H110866   3.112   1.844   4.201  1.4243  0.5182 -1.2888
 3620TIP3    H210867   3.035   1.956   4.267 -2.5174 -1.3727 -2.3774
 3621TIP3   OH210868   0.468   3.307   3.458 -0.0925 -0.1783  0.5358
 3621TIP3    H110869   0.376   3.283   3.472 -0.2499  1.2128  2.2238
 3621TIP3    H210870   0.482   3.381   3.516  2.3099 -0.8215  0.8715
 3622TIP3   OH210871   2.970   4.404   3.978  0.1037  0.7738 -0.6293
 3622TIP3    H110872   2.931   4.464   3.915 -0.5648  1.7217  0.6605
 3622TIP3    H210873   2.944   4.317   3.946 -0.2483  1.2302 -1.6353
 3623TIP3   OH210874   1.498   0.555   2.059  0.0615  0.0369  0.7030
 3623TIP3    H110875   1.411   0.524   2.084  0.0794 -0.3855  0.2550
 3623TIP3    H210876   1.515   0.628   2.118 -0.8683  0.5420  0.3670
 3624TIP3   OH210877   2.337   0.858   4.348 -0.3234  0.4975 -0.2622
 3624TIP3    H110878   2.350   0.808   4.429  0.6493  1.8820  0.4889
 3624TIP3    H210879   2.247   0.889   4.354 -0.9421 -1.1464 -0.7508
 3625TIP3   OH210880   5.473   2.377   2.617 -0.3457 -0.3647 -0.0035
 3625TIP3    H110881   5.553   2.328   2.636 -0.2557  0.0887  0.8340
 3625TIP3    H210882   5.403   2.311   2.624 -0.1387 -0.5645  0.2286
 3626TIP3   OH210883   3.393   4.778   3.087 -0.5863 -0.7321 -0.2729
 3626TIP3    H110884   3.438   4.695   3.098  0.0498 -0.4265 -0.5085
 3626TIP3    H210885   3.428   4.813   3.005  0.3038  0.4665  0.5717
 3627TIP3   OH210886   1.369   2.538   1.201 -0.3223 -0.0402 -0.0441
 3627TIP3    H110887   1.366   2.443   1.190  2.6608 -0.2860  0.5573
 3627TIP3    H210888   1.326   2.573   1.123  0.7944 -1.8806 -1.5625
 3628TIP3   OH210889   0.897   4.087   1.186  0.1000 -0.2468  0.6027
 3628TIP3    H110890   0.988   4.092   1.157 -0.0927  1.9067  0.2238
 3628TIP3    H210891   0.845   4.111   1.109 -0.6384  1.1910  1.5190
 3629TIP3   OH210892   0.298   2.739   4.345  0.5018  0.4577 -0.0657
 3629TIP3    H110893   0.204   2.750   4.354  0.6822  1.3231  0.9280
 3629TIP3    H210894   0.319   2.779   4.260  0.1710  1.6258  0.3843
 3630TIP3   OH210895   5.423   5.504   0.510 -0.1969  0.2472  0.6139
 3630TIP3    H110896   5.433   5.584   0.459 -0.3189  0.0584  0.2894
 3630TIP3    H210897   5.500   5.502   0.568 -1.1716  1.5860  2.0230
 3631TIP3   OH210898   2.688   0.170   2.819  0.3471  0.8085 -0.4038
 3631TIP3    H110899   2.621   0.236   2.836 -0.6037 -0.5830  1.7651
 3631TIP3    H210900   2.649   0.088   2.850  2.8791 -0.1259  0.5950
 3632TIP3   OH210901   2.867   0.810   5.146  0.2387  0.3045 -0.5904
 3632TIP3    H110902   2.865   0.723   5.106  0.5722  0.4254 -0.8687
 3632TIP3    H210903   2.802   0.805   5.216  0.0351 -0.0737 -0.8019
 3633TIP3   OH210904   2.693   2.851   3.209 -0.2175  0.5088  0.2867
 3633TIP3    H110905   2.619   2.873   3.152  0.3633 -0.2099 -0.7789
 3633TIP3    H210906   2.752   2.800   3.153 -1.1197 -3.1361  2.3456
 3634TIP3   OH210907   0.269   3.198   3.734  0.8208  0.2507 -0.2733
 3634TIP3    H110908   0.238   3.228   3.648  1.5759  0.7129 -0.3854
 3634TIP3    H210909   0.214   3.244   3.797  0.7023  0.4093 -0.4913
 3635TIP3   OH210910   3.650   5.382   0.452  0.0701 -0.9286 -0.3709
 3635TIP3    H110911   3.605   5.407   0.533  1.6256 -2.4162  1.0230
 3635TIP3    H210912   3.688   5.464   0.420  1.1959 -0.6370  1.5754
 3636TIP3   OH210913   1.960   1.679   4.405 -0.3695 -0.0945 -0.3655
 3636TIP3    H110914   1.926   1.768   4.400 -3.6255 -1.2298 -0.8489
 3636TIP3    H210915   2.014   1.670   4.326 -1.7378  0.8318 -1.4605
 3637TIP3   OH210916   3.945   0.951   3.287  0.0971  0.3887 -0.2316
 3637TIP3    H110917   3.973   0.993   3.206  0.9128  0.3423  0.0150
 3637TIP3    H210918   4.002   0.874   3.295 -0.3493  0.0875  0.1026
 3638TIP3   OH210919   6.058   1.972   4.190  0.1493 -0.2750  0.1031
 3638TIP3    H110920   5.965   1.990   4.171 -0.1185 -0.0576  1.5122
 3638TIP3    H210921   6.055   1.912   4.265  1.1482 -0.3106  0.1162
 3639TIP3   OH210922   3.065   2.129   3.763  0.0915 -0.3365  0.2633
 3639TIP3    H110923   3.120   2.208   3.761 -0.9813  0.4132 -0.7369
 3639TIP3    H210924   3.108   2.069   3.701  2.7754 -1.9205  3.3564
 3640TIP3   OH210925   5.573   1.828   3.720 -0.1082 -0.4464 -0.5600
 3640TIP3    H110926   5.666   1.836   3.742 -0.6571 -0.2349  2.0920
 3640TIP3    H210927   5.541   1.918   3.719 -0.7745 -0.6297  1.2489
 3641TIP3   OH210928   2.497   2.430   3.751  0.5402 -0.0422  0.0369
 3641TIP3    H110929   2.502   2.376   3.672  0.9022  3.7217 -2.7503
 3641TIP3    H210930   2.403   2.439   3.768  0.4614 -0.8475  0.0998
 3642TIP3   OH210931   4.628   3.210   1.401 -0.0492 -0.0442 -0.1154
 3642TIP3    H110932   4.535   3.226   1.388 -0.3932 -1.7437  0.0326
 3642TIP3    H210933   4.643   3.228   1.494  0.0509  1.3487 -0.3716
 3643TIP3   OH210934   1.150   1.930   0.291 -0.1202  0.0640 -0.1940
 3643TIP3    H110935   1.098   1.877   0.231 -1.9701 -0.3553  1.6654
 3643TIP3    H210936   1.091   2.000   0.318  0.7825  0.4447  0.8550
 3644TIP3   OH210937   5.499   5.609   3.923  0.2959 -0.4403 -0.2172
 3644TIP3    H110938   5.586   5.600   3.885  0.2133 -0.7939 -0.3176
 3644TIP3    H210939   5.481   5.703   3.918  0.5286 -0.4104 -0.5040
 3645TIP3   OH210940   3.804   0.922   2.869  0.3330  0.3803  0.0130
 3645TIP3    H110941   3.744   0.951   2.800 -2.0307  0.4356  1.9677
 3645TIP3    H210942   3.812   0.828   2.856  1.0550  0.5857 -1.1483
 3646TIP3   OH210943   4.067   0.906   3.997  0.0695  0.0173 -0.2109
 3646TIP3    H110944   4.037   0.985   3.952 -1.6611 -0.0810  0.6696
 3646TIP3    H210945   4.008   0.838   3.966 -1.5128  0.0484  2.4755
 3647TIP3   OH210946   4.375   5.364   2.413 -0.1078 -0.3396  0.5458
 3647TIP3    H110947   4.424   5.445   2.396  0.4536 -1.0452 -1.5270
 3647TIP3    H210948   4.283   5.388   2.400  0.0505 -0.0043  0.0021
 3648TIP3   OH210949   5.201   4.141   0.533 -0.1269 -0.1466  0.2631
 3648TIP3    H110950   5.174   4.053   0.510 -1.1550  0.5623 -1.4155
 3648TIP3    H210951   5.154   4.198   0.472  0.7505  1.5473  1.0803
 3649TIP3   OH210952   3.224   2.737   2.639 -0.3010 -0.5088 -0.1483
 3649TIP3    H110953   3.191   2.805   2.698  1.5202 -1.1455  1.6839
 3649TIP3    H210954   3.250   2.785   2.560 -0.2071  0.7613  0.6265
 3650TIP3   OH210955   4.215   1.715   0.084  0.1851  0.0250 -0.9854
 3650TIP3    H110956   4.194   1.785   0.022 -1.0859 -0.0802 -0.7012
 3650TIP3    H210957   4.218   1.636   0.030 -0.1601  0.0415 -1.0278
 3651TIP3   OH210958   4.766   5.762   2.735  0.0841 -0.3599  0.3115
 3651TIP3    H110959   4.829   5.723   2.795 -0.1086 -1.6637 -0.2793
 3651TIP3    H210960   4.796   5.734   2.648 -1.5333 -1.4202  0.0431
 3652TIP3   OH210961   2.311   0.085   2.701  0.5288 -0.2397 -0.2932
 3652TIP3    H110962   2.262   0.021   2.649  0.9382 -0.9908  0.2279
 3652TIP3    H210963   2.262   0.092   2.783  1.0259 -0.6333  0.0413
 3653TIP3   OH210964   0.351   0.507   0.464 -0.1873 -0.0040 -0.0624
 3653TIP3    H110965   0.340   0.556   0.546 -0.8187 -1.5778  0.8341
 3653TIP3    H210966   0.271   0.523   0.415  0.4129  1.3710 -0.6404
 3654TIP3   OH210967   2.174   2.649   4.170 -0.1390  0.4666 -0.3171
 3654TIP3    H110968   2.141   2.701   4.243  0.0602  0.7011 -0.3942
 3654TIP3    H210969   2.100   2.594   4.145 -0.7284  1.5423 -0.9951
 3655TIP3   OH210970   3.741   2.747   2.417 -0.4007 -0.2726  0.1780
 3655TIP3    H110971   3.810   2.810   2.437  0.7129 -2.2552  3.3425
 3655TIP3    H210972   3.785   2.678   2.367 -0.6883 -0.3384  0.0148
 3656TIP3   OH210973   0.586   4.868   1.331 -0.1176  0.2665 -0.5723
 3656TIP3    H110974   0.567   4.774   1.333 -0.1657  0.2882  0.3194
 3656TIP3    H210975   0.678   4.874   1.307 -0.2780  0.0233 -1.2858
 3657TIP3   OH210976   3.943   3.921   1.645 -0.4347  0.5178 -0.2554
 3657TIP3    H110977   3.891   4.001   1.658 -0.5577  0.5579 -0.9374
 3657TIP3    H210978   3.890   3.851   1.683  0.4837  0.9797  2.0052
 3658TIP3   OH210979   2.274   2.994   2.600  0.7396  0.0753  0.4718
 3658TIP3    H110980   2.190   3.029   2.630  0.1347 -0.9007  0.0018
 3658TIP3    H210981   2.336   3.020   2.667  0.5556  2.8422 -0.3153
 3659TIP3   OH210982   2.927   0.338   2.063  0.3103  0.7868  0.3241
 3659TIP3    H110983   2.944   0.249   2.094  0.0457  0.2628 -0.9676
 3659TIP3    H210984   2.855   0.369   2.118  0.8281  0.4720  1.2200
 3660TIP3   OH210985   0.946   3.378   0.183  0.1855 -0.4166 -0.1608
 3660TIP3    H110986   0.933   3.293   0.140 -0.3697 -0.1550 -0.5171
 3660TIP3    H210987   0.958   3.356   0.275  0.3091 -0.9024 -0.2868
 3661TIP3   OH210988   1.776   5.368   3.663  0.0130 -0.2702 -0.2975
 3661TIP3    H110989   1.773   5.314   3.742 -0.6620 -0.0844 -0.1861
 3661TIP3    H210990   1.807   5.453   3.692  2.5692 -0.9722 -0.7182
 3662TIP3   OH210991   5.749   1.210   4.601  0.2223  0.1272  0.0126
 3662TIP3    H110992   5.736   1.261   4.681 -0.0478 -1.6530  1.1631
 3662TIP3    H210993   5.820   1.256   4.555  0.1448  1.3929  1.0889
 3663TIP3   OH210994   2.229   0.796   2.989  0.4010  0.4553  0.0153
 3663TIP3    H110995   2.230   0.705   3.021  0.2968  0.0442 -1.0809
 3663TIP3    H210996   2.237   0.849   3.068  1.8545 -0.5283  0.5868
 3664TIP3   OH210997   0.575   1.344   2.998  0.2043  0.2490 -0.0528
 3664TIP3    H110998   0.562   1.283   2.926  1.4565  1.7350 -1.6444
 3664TIP3    H210999   0.651   1.310   3.045 -0.4764 -0.6072  0.4332
 3665TIP3   OH211000   1.155   1.644   3.978 -0.3757  0.2567  0.0737
 3665TIP3    H111001   1.190   1.568   4.026  0.8361  1.0538  0.5018
 3665TIP3    H211002   1.154   1.714   4.043  0.3000  1.0904 -0.7880
 3666TIP3   OH211003   6.079   0.480   3.961 -0.0700  0.1719 -0.1164
 3666TIP3    H111004   5.992   0.438   3.961  0.1535 -0.3564 -1.5909
 3666TIP3    H211005   6.086   0.518   3.873  0.5402  1.6367  0.5459
 3667TIP3   OH211006   1.301   4.956   4.307  0.0120 -0.3594 -0.6544
 3667TIP3    H111007   1.267   4.939   4.219 -1.5253  0.2882 -0.2331
 3667TIP3    H211008   1.334   5.046   4.303 -1.2268  0.1401 -0.2799
 3668TIP3   OH211009   3.483   3.558   4.584  0.5353 -0.3716 -0.5277
 3668TIP3    H111010   3.573   3.527   4.591  0.7409  0.0331 -1.2519
 3668TIP3    H211011   3.490   3.646   4.547 -0.1582 -0.3706 -0.6820
 3669TIP3   OH211012   1.798   5.545   5.116  0.1201  0.1662  0.0692
 3669TIP3    H111013   1.730   5.555   5.182 -0.3397  0.0481 -0.3834
 3669TIP3    H211014   1.770   5.601   5.044  0.6570  0.3552  0.0050
 3670TIP3   OH211015   1.053   1.472   0.291 -0.4747  0.4700  0.4387
 3670TIP3    H111016   1.071   1.379   0.273 -1.0431  0.1104  1.6498
 3670TIP3    H211017   1.018   1.506   0.208  0.3840 -0.2177 -0.2241
 3671TIP3   OH211018   2.038   3.039   2.380 -0.3675 -0.0972  0.1986
 3671TIP3    H111019   1.980   2.965   2.363  1.3126 -1.2678 -0.7627
 3671TIP3    H211020   2.035   3.051   2.475  0.1654 -2.1581  0.5203
 3672TIP3   OH211021   3.548   1.753   1.045 -0.8980  0.0034 -0.4038
 3672TIP3    H111022   3.602   1.819   1.088 -0.9904  0.3405 -0.8032
 3672TIP3    H211023   3.459   1.788   1.048 -1.3588 -1.1979  1.5446
 3673TIP3   OH211024   1.851   4.932   0.814 -0.2563  0.5862 -0.0055
 3673TIP3    H111025   1.854   4.981   0.732  2.4376  1.4628  0.5036
 3673TIP3    H211026   1.916   4.863   0.803 -1.2953 -0.5398  0.7007
 3674TIP3   OH211027   0.379   4.412   0.502 -0.1415  0.1540  0.0618
 3674TIP3    H111028   0.299   4.358   0.501  1.5410 -2.5104 -1.3572
 3674TIP3    H211029   0.392   4.436   0.411  0.4164  0.9819  0.3573
 3675TIP3   OH211030   4.613   1.760   1.603 -0.1157  0.6541  0.5146
 3675TIP3    H111031   4.558   1.791   1.675 -0.4761 -0.2136  0.6191
 3675TIP3    H211032   4.702   1.765   1.637 -0.3397 -0.5403  1.3475
 3676TIP3   OH211033   5.764   2.758   1.422 -0.4226  0.0306  0.0094
 3676TIP3    H111034   5.791   2.741   1.332  1.5820 -0.3354  0.6377
 3676TIP3    H211035   5.723   2.845   1.418  1.8636  1.1511 -0.8782
 3677TIP3   OH211036   2.602   2.058   3.529 -0.0699  0.0630  0.5737
 3677TIP3    H111037   2.641   2.023   3.609 -0.1860 -0.4404  0.4120
 3677TIP3    H211038   2.528   2.000   3.511 -0.3763  0.4998  0.4009
 3678TIP3   OH211039   1.983   3.852   2.517 -0.4092 -0.1350 -0.6427
 3678TIP3    H111040   2.074   3.859   2.545 -0.5084 -2.2119  0.4406
 3678TIP3    H211041   1.962   3.759   2.528 -3.1888  0.5543  0.9153
 3679TIP3   OH211042   3.318   2.320   1.659 -0.1254  0.0996  0.0547
 3679TIP3    H111043   3.366   2.391   1.700 -0.6032 -0.1310  1.0329
 3679TIP3    H211044   3.226   2.336   1.681 -0.2842 -0.5798 -0.0748
 3680TIP3   OH211045   2.743   2.159   4.258  0.3083 -0.1996 -0.4654
 3680TIP3    H111046   2.722   2.156   4.165  0.7683  0.0259 -0.5828
 3680TIP3    H211047   2.725   2.249   4.284 -1.1520 -0.5984  0.0035
 3681TIP3   OH211048   0.374   4.088   2.083  0.9162  0.2596 -0.1052
 3681TIP3    H111049   0.312   4.016   2.073  3.4798 -1.9137 -1.7518
 3681TIP3    H211050   0.334   4.146   2.148 -1.9468 -1.8782  0.2106
 3682TIP3   OH211051   2.096   5.412   0.768 -0.2374 -0.5461  0.0998
 3682TIP3    H111052   2.038   5.485   0.787 -0.0104 -0.6738  1.3578
 3682TIP3    H211053   2.160   5.413   0.839  0.6110 -1.1070 -0.6392
 3683TIP3   OH211054   4.795   5.782   1.012  0.3701 -0.1494 -0.3994
 3683TIP3    H111055   4.717   5.828   0.982 -1.0479 -1.0017  1.7237
 3683TIP3    H211056   4.868   5.842   0.993 -0.8136  0.8105 -2.1296
 3684TIP3   OH211057   5.983   1.857   0.332 -0.3143  0.4607 -0.5426
 3684TIP3    H111058   5.992   1.762   0.335 -0.1759  0.4188 -1.7675
 3684TIP3    H211059   6.012   1.887   0.418 -2.4649 -0.7494  0.6960
 3685TIP3   OH211060   5.067   0.560   3.889 -0.7769  0.4942 -0.1469
 3685TIP3    H111061   5.099   0.628   3.830  0.7784  0.8894  1.0745
 3685TIP3    H211062   5.066   0.480   3.836 -2.1619  1.3259 -1.4654
 3686TIP3   OH211063   3.239   3.321   1.691 -0.7360  0.1264 -0.3667
 3686TIP3    H111064   3.255   3.413   1.713 -1.6410  0.3728 -0.6975
 3686TIP3    H211065   3.144   3.311   1.698 -0.6042 -0.9029  0.0988
 3687TIP3   OH211066   3.184   1.295   2.628  0.2046  0.4638 -0.4136
 3687TIP3    H111067   3.136   1.375   2.609 -1.5268 -0.0020  1.6391
 3687TIP3    H211068   3.146   1.262   2.709  1.9925 -1.5744 -0.2905
 3688TIP3   OH211069   0.259   3.670   1.569  0.4323 -0.0958 -0.1441
 3688TIP3    H111070   0.313   3.695   1.644  1.6421 -0.7044 -0.7900
 3688TIP3    H211071   0.321   3.634   1.506 -0.4765  1.0010 -1.7163
 3689TIP3   OH211072   6.015   3.057   4.563  0.1892 -0.5763 -0.4314
 3689TIP3    H111073   6.003   2.998   4.488 -1.0452  0.6874 -1.2858
 3689TIP3    H211074   5.934   3.109   4.565  1.0495  0.7767  0.5675
 3690TIP3   OH211075   4.704   5.899   4.275 -0.3968  0.0968 -0.1235
 3690TIP3    H111076   4.689   5.860   4.189 -0.8304 -1.8020  0.7620
 3690TIP3    H211077   4.792   5.870   4.299 -0.6187 -0.1472  0.4267
 3691TIP3   OH211078   5.200   2.945   4.263 -0.1327  0.1083  0.5177
 3691TIP3    H111079   5.272   2.974   4.318  0.3011  0.7891 -0.3940
 3691TIP3    H211080   5.131   3.009   4.278 -0.4886 -0.4140  1.2118
 3692TIP3   OH211081   4.034   1.399   4.272  0.6587  0.0397 -0.0450
 3692TIP3    H111082   4.049   1.323   4.215 -0.6274 -0.0758 -0.2656
 3692TIP3    H211083   4.043   1.475   4.215  4.0046  0.2463  0.5833
 3693TIP3   OH211084   5.052   1.783   1.071  0.4016  0.9628 -0.1537
 3693TIP3    H111085   5.124   1.832   1.111  1.6032  0.3227 -1.4311
 3693TIP3    H211086   5.087   1.754   0.986 -0.1586 -2.1873  0.5412
 3694TIP3   OH211087   2.435   4.303   1.253 -0.0520 -0.1810  0.3859
 3694TIP3    H111088   2.477   4.372   1.305  0.9977 -0.8795  0.4903
 3694TIP3    H211089   2.442   4.224   1.307 -1.5203 -0.3380  0.4002
 3695TIP3   OH211090   3.999   3.045   3.197 -0.6166  0.2806  0.5212
 3695TIP3    H111091   4.000   2.950   3.186 -0.6170  0.4051 -0.6402
 3695TIP3    H211092   4.091   3.069   3.209 -0.8001 -0.1340  3.6975
 3696TIP3   OH211093   2.281   1.379   3.079 -0.0096  0.2307  0.1129
 3696TIP3    H111094   2.314   1.301   3.034 -2.0246  0.3244 -1.7036
 3696TIP3    H211095   2.266   1.350   3.169  2.6077 -0.4266  0.4055
 3697TIP3   OH211096   0.653   0.479   3.817  0.3750 -0.3954  0.4519
 3697TIP3    H111097   0.685   0.429   3.742 -0.5484  0.2065 -0.3627
 3697TIP3    H211098   0.618   0.413   3.877 -1.4726 -0.7276 -0.9172
 3698TIP3   OH211099   6.064   2.695   4.194 -0.1718  0.1227  0.0589
 3698TIP3    H111100   6.093   2.607   4.218  1.0951  0.3833 -0.4396
 3698TIP3    H211101   6.145   2.742   4.174 -0.8653  1.2782 -0.1086
 3699TIP3   OH211102   3.508   2.877   0.472  0.2514 -0.5797 -0.1783
 3699TIP3    H111103   3.419   2.881   0.436 -0.0337 -1.9514  0.2909
 3699TIP3    H211104   3.513   2.952   0.531 -0.6753 -0.5668 -0.0869
 3700TIP3   OH211105   4.252   4.096   3.132 -0.0046  0.0174 -0.1449
 3700TIP3    H111106   4.260   4.079   3.038  2.3241  0.1189 -0.0369
 3700TIP3    H211107   4.224   4.187   3.138 -0.8906 -0.2097 -0.7310
 3701TIP3   OH211108   1.364   3.260   3.777  0.2973 -0.8746 -0.4785
 3701TIP3    H111109   1.356   3.313   3.857 -1.4861 -0.2718 -1.0070
 3701TIP3    H211110   1.458   3.243   3.769  0.8738  1.5634  0.1317
 3702TIP3   OH211111   1.327   1.372   1.906 -0.4210 -0.3666 -0.6389
 3702TIP3    H111112   1.390   1.309   1.870 -2.3067 -3.1621  0.5113
 3702TIP3    H211113   1.271   1.319   1.963 -1.1443  2.7442  1.8330
 3703TIP3   OH211114   2.189   5.928   5.170 -0.6590  0.3361  0.6133
 3703TIP3    H111115   2.215   5.964   5.085 -3.5204 -0.4893 -0.7321
 3703TIP3    H211116   2.192   5.833   5.158 -0.0282  0.1808  1.8193
 3704TIP3   OH211117   5.036   5.867   2.042 -1.2038  0.1101 -0.1004
 3704TIP3    H111118   5.083   5.804   2.097  0.1279  0.0039 -1.2717
 3704TIP3    H211119   4.955   5.886   2.089  0.3805  0.9754  2.4937
 3705TIP3   OH211120   4.255   1.120   4.377 -0.0536 -0.3108 -0.1515
 3705TIP3    H111121   4.208   1.182   4.432 -0.2106 -0.2573 -0.3447
 3705TIP3    H211122   4.303   1.064   4.438  1.2016  0.8752 -0.0024
 3706TIP3   OH211123   3.450   1.551   0.356 -0.0192 -0.2468  0.3152
 3706TIP3    H111124   3.400   1.469   0.355  1.4488 -1.1763 -1.2388
 3706TIP3    H211125   3.425   1.593   0.439 -1.3035 -1.9371  0.8395
 3707TIP3   OH211126   5.223   3.365   1.367 -0.2689 -0.1591  0.4573
 3707TIP3    H111127   5.252   3.274   1.357 -1.3847 -0.5393  0.5532
 3707TIP3    H211128   5.302   3.417   1.353 -0.1856 -0.9729 -2.9614
 3708TIP3   OH211129   4.177   5.159   0.637  0.3501  0.3716  0.4238
 3708TIP3    H111130   4.258   5.159   0.586 -0.2442  0.5655 -0.5506
 3708TIP3    H211131   4.112   5.199   0.579 -0.7894 -1.1254  0.6042
 3709TIP3   OH211132   1.400   2.832   3.358  1.1357  0.1072  0.0387
 3709TIP3    H111133   1.458   2.907   3.344  1.4588 -0.4498 -1.9955
 3709TIP3    H211134   1.312   2.867   3.340  1.1843  0.2123  0.0017
 3710TIP3   OH211135   3.651   2.177   4.524 -0.1071 -0.3516 -0.1880
 3710TIP3    H111136   3.701   2.164   4.444 -2.7206 -1.2602 -1.8063
 3710TIP3    H211137   3.613   2.265   4.513 -0.9186 -0.7050 -0.2195
 3711TIP3   OH211138   0.010   3.501   2.382  0.3192  0.9443 -0.3027
 3711TIP3    H111139   0.027   3.560   2.455  0.1071 -1.0574  1.4525
 3711TIP3    H211140   0.093   3.496   2.334  0.7488  1.5433  0.3665
 3712TIP3   OH211141   3.864   4.055   5.090  0.1415 -0.4921  0.0059
 3712TIP3    H111142   3.905   3.970   5.071  1.1264 -0.1899  0.6941
 3712TIP3    H211143   3.864   4.061   5.186  0.0909  0.2913 -0.0339
 3713TIP3   OH211144   2.601   5.064   3.908  0.9145  0.4351 -0.4852
 3713TIP3    H111145   2.577   4.975   3.932  1.3672  0.4756  0.1541
 3713TIP3    H211146   2.697   5.062   3.902  0.9504  0.9582 -0.1258
 3714TIP3   OH211147   0.346   0.852   2.407 -0.1903 -0.0973 -0.2089
 3714TIP3    H111148   0.354   0.780   2.344 -0.3793 -0.1550 -0.1658
 3714TIP3    H211149   0.254   0.850   2.434 -0.1764  0.1102 -0.1487
 3715TIP3   OH211150   3.538   3.429   1.394 -0.3473  0.3234 -0.2166
 3715TIP3    H111151   3.616   3.394   1.437  0.7775  1.3113 -1.3608
 3715TIP3    H211152   3.513   3.361   1.331 -0.8695 -0.3119  0.6629
 3716TIP3   OH211153   3.189   4.535   4.491 -0.1703  0.1930 -0.3480
 3716TIP3    H111154   3.094   4.539   4.483 -0.3387  0.5138  1.4170
 3716TIP3    H211155   3.213   4.450   4.454 -1.1712 -0.0276 -0.5127
 3717TIP3   OH211156   1.790   2.401   0.645 -0.5425 -0.2747 -0.1032
 3717TIP3    H111157   1.704   2.359   0.656 -0.0185 -2.4042 -2.9412
 3717TIP3    H211158   1.775   2.470   0.581 -0.6590  1.5894  1.8143
 3718TIP3   OH211159   1.395   1.658   3.668  0.1928 -0.0699  0.3640
 3718TIP3    H111160   1.344   1.715   3.726  1.0403 -0.5729  1.6406
 3718TIP3    H211161   1.384   1.570   3.706  1.1645 -0.3314  0.0555
 3719TIP3   OH211162   1.847   2.070   1.504  0.1200 -0.2349 -0.5462
 3719TIP3    H111163   1.860   1.981   1.472 -0.6830 -0.4296 -0.3690
 3719TIP3    H211164   1.870   2.066   1.597  0.3089 -0.2059 -0.5928
 3720TIP3   OH211165   5.997   5.782   4.388 -0.1514 -0.0713 -0.2914
 3720TIP3    H111166   6.022   5.757   4.477 -0.0768 -2.0323 -0.8273
 3720TIP3    H211167   5.969   5.873   4.396  0.7380  0.0815  1.5602
 3721TIP3   OH211168   1.249   2.648   0.962 -0.2856 -0.2717 -0.1918
 3721TIP3    H111169   1.298   2.586   0.908 -1.5860  0.5588 -2.4482
 3721TIP3    H211170   1.166   2.659   0.916 -0.3592  2.6201  0.4730
 3722TIP3   OH211171   3.909   5.274   1.071  0.1522 -0.0327 -0.0588
 3722TIP3    H111172   3.949   5.200   1.116  1.3825 -0.5442 -1.8735
 3722TIP3    H211173   3.816   5.265   1.088  0.4172 -1.1935  0.9106
 3723TIP3   OH211174   1.029   3.015   2.972 -0.4038  0.5403 -0.3898
 3723TIP3    H111175   1.033   3.105   2.942 -2.1634  0.5327 -0.7529
 3723TIP3    H211176   1.052   2.963   2.895 -1.0613  0.6434 -0.6649
 3724TIP3   OH211177   5.809   3.303   3.412 -0.0174  0.2002 -0.4510
 3724TIP3    H111178   5.838   3.212   3.409 -2.0258 -0.5704  1.0762
 3724TIP3    H211179   5.757   3.314   3.333 -1.5625 -0.7039  0.3915
 3725TIP3   OH211180   4.713   3.908   3.110 -0.4173  0.0976 -0.7043
 3725TIP3    H111181   4.629   3.934   3.148 -0.0087 -1.1004  1.1647
 3725TIP3    H211182   4.736   3.828   3.157  2.1521  0.8241 -0.5773
 3726TIP3   OH211183   2.262   4.009   1.317  0.4657  0.2245  0.2719
 3726TIP3    H111184   2.347   4.042   1.347 -0.1247  0.7049  1.4884
 3726TIP3    H211185   2.210   4.088   1.303  0.1142 -0.0780 -0.1250
 3727TIP3   OH211186   1.424   4.675   0.893  0.3252  0.3307  0.4682
 3727TIP3    H111187   1.434   4.622   0.972  2.2885  1.0783  0.7871
 3727TIP3    H211188   1.514   4.692   0.864 -0.2275  2.7530 -0.0931
 3728TIP3   OH211189   2.214   1.735   4.566  0.0985 -0.0806  0.2566
 3728TIP3    H111190   2.135   1.759   4.516  0.4373 -0.6623 -0.5785
 3728TIP3    H211191   2.252   1.819   4.591 -2.4215  0.3163  3.4203
 3729TIP3   OH211192   5.237   1.438   0.889  0.7812 -0.4647 -0.0502
 3729TIP3    H111193   5.227   1.471   0.800  0.6362 -1.2266 -0.3171
 3729TIP3    H211194   5.251   1.344   0.880  0.9502 -0.5280  0.7215
 3730TIP3   OH211195   5.771   2.425   2.362 -0.1819 -0.0036 -0.2322
 3730TIP3    H111196   5.829   2.358   2.398 -1.9403 -1.6217 -0.2053
 3730TIP3    H211197   5.697   2.376   2.326 -1.7243  1.9370  0.0687
 3731TIP3   OH211198   6.265   0.707   4.644  0.0259  0.2725  0.0739
 3731TIP3    H111199   6.190   0.748   4.688  0.6528  0.7563  0.7078
 3731TIP3    H211200   6.342   0.742   4.690  0.6392 -0.2607 -0.5329
 3732TIP3   OH211201   4.474   0.780   4.476 -0.0209  0.7365  0.0893
 3732TIP3    H111202   4.425   0.850   4.519  1.7834  2.1258  0.0291
 3732TIP3    H211203   4.517   0.733   4.547 -0.2370  0.4817  0.0515
 3733TIP3   OH211204   4.097   3.895   2.356 -0.2024 -0.4386  0.3815
 3733TIP3    H111205   4.036   3.825   2.380  0.1982 -0.9415 -0.0508
 3733TIP3    H211206   4.118   3.938   2.439 -1.1819 -0.2160  0.5310
 3734TIP3   OH211207   1.319   3.192   4.568  0.3145  0.1239  0.5430
 3734TIP3    H111208   1.256   3.142   4.619  1.0324 -1.4504 -0.0537
 3734TIP3    H211209   1.366   3.244   4.633 -1.8921  1.7480  0.9450
 3735TIP3   OH211210   0.943   1.129   4.535  0.3059  0.1113 -0.3201
 3735TIP3    H111211   0.911   1.100   4.620  0.3416  1.0060  0.0048
 3735TIP3    H211212   0.927   1.055   4.477 -0.9072 -0.0324  0.1796
 3736TIP3   OH211213   1.374   3.802   0.098  0.2053  0.7186  0.3515
 3736TIP3    H111214   1.349   3.746   0.025  1.9278  3.0062 -2.1696
 3736TIP3    H211215   1.295   3.810   0.151 -1.5605  0.1955 -2.0697
 3737TIP3   OH211216   1.685   1.472   0.714  0.0530  0.1414  0.0670
 3737TIP3    H111217   1.774   1.457   0.684 -0.2706 -1.8944 -0.0155
 3737TIP3    H211218   1.695   1.508   0.802  0.9527 -0.9518  0.4255
 3738TIP3   OH211219   3.532   0.501   4.639  1.0627  0.2038 -0.3853
 3738TIP3    H111220   3.464   0.434   4.643  0.5077  0.7039 -1.2082
 3738TIP3    H211221   3.605   0.464   4.689  0.2852 -0.4409  0.3058
 3739TIP3   OH211222   3.265   1.573   4.900  0.2369 -0.4120 -0.5987
 3739TIP3    H111223   3.297   1.657   4.869 -0.9622  0.3719  0.2054
 3739TIP3    H211224   3.262   1.581   4.996 -1.5691 -0.6957 -0.5822
 3740TIP3   OH211225   5.082   3.974   5.094  0.3186 -0.5677  0.3485
 3740TIP3    H111226   5.120   4.055   5.128  0.3784 -0.7151  0.6382
 3740TIP3    H211227   5.090   3.912   5.166 -1.2148 -0.3816  0.7025
 3741TIP3   OH211228   1.656   5.492   4.436  0.4963  0.2748 -0.2528
 3741TIP3    H111229   1.749   5.514   4.428  0.1763  1.7915 -0.1449
 3741TIP3    H211230   1.646   5.462   4.526  0.7928  0.6129 -0.1056
 3742TIP3   OH211231   0.305   1.182   4.129 -0.0430  0.3840  0.2992
 3742TIP3    H111232   0.265   1.240   4.193  0.8373 -0.2696  1.4786
 3742TIP3    H211233   0.381   1.231   4.096  0.6777 -0.0456  1.2664
 3743TIP3   OH211234   1.011   0.290   4.181  0.2074  0.2926 -0.0521
 3743TIP3    H111235   1.094   0.261   4.220 -0.8156 -0.2157  1.8708
 3743TIP3    H211236   0.953   0.214   4.188 -0.6486  0.8685 -0.7184
 3744TIP3   OH211237   1.880   0.559   1.044 -0.2080 -0.1412 -0.0106
 3744TIP3    H111238   1.839   0.513   0.970 -0.7685 -1.3822  1.0335
 3744TIP3    H211239   1.963   0.513   1.057 -0.1892 -0.0358  0.2349
 3745TIP3   OH211240   2.238   3.874   3.702 -0.0081  0.3134 -0.1388
 3745TIP3    H111241   2.323   3.831   3.703 -0.2903 -0.5138 -3.1477
 3745TIP3    H211242   2.185   3.824   3.764  1.0422 -0.6350  0.0261
 3746TIP3   OH211243   4.623   3.506   2.433 -0.3318  0.6277 -0.0093
 3746TIP3    H111244   4.713   3.511   2.464 -0.2498  0.6077 -0.2472
 3746TIP3    H211245   4.630   3.501   2.338 -0.6492  2.2056 -0.1334
 3747TIP3   OH211246   3.962   2.624   4.716 -0.0850 -0.3957  0.0239
 3747TIP3    H111247   3.991   2.556   4.655 -0.1206  0.0888 -0.5361
 3747TIP3    H211248   3.898   2.580   4.772 -0.3892 -0.7255 -0.5751
 3748TIP3   OH211249   3.431   1.281   1.417 -0.0062  0.6263  0.0532
 3748TIP3    H111250   3.380   1.323   1.486 -0.5167 -0.4800  0.3665
 3748TIP3    H211251   3.447   1.192   1.449  1.4836  0.7101 -0.3722
 3749TIP3   OH211252   0.764   1.413   3.406  0.5186 -0.2348 -0.3983
 3749TIP3    H111253   0.669   1.416   3.415  0.4399 -1.6359 -0.6153
 3749TIP3    H211254   0.794   1.499   3.435 -0.8784  0.5455 -1.1901
 3750TIP3   OH211255   4.289   5.811  -0.005 -0.1484 -0.0524 -0.0830
 3750TIP3    H111256   4.210   5.865   0.003  0.7376  1.1068  1.5724
 3750TIP3    H211257   4.285   5.753   0.071  0.4145 -0.2465 -0.2015
 3751TIP3   OH211258   1.912   3.060   3.970 -0.9174  0.4310 -0.1388
 3751TIP3    H111259   1.937   3.025   3.884 -1.8286  2.7710 -1.4458
 3751TIP3    H211260   1.817   3.048   3.974 -0.5911 -2.6272  2.0621
 3752TIP3   OH211261   2.410   1.655   2.225 -0.0560  0.5527 -0.3364
 3752TIP3    H111262   2.352   1.594   2.180  0.4300  0.0353 -0.2714
 3752TIP3    H211263   2.496   1.641   2.184  0.7628 -1.0590  1.7414
 3753TIP3   OH211264   3.485   1.553   3.438 -1.0113  0.1549  0.5673
 3753TIP3    H111265   3.470   1.459   3.448  1.4189 -0.4924 -0.8995
 3753TIP3    H211266   3.494   1.567   3.344 -1.4542  1.8941  0.7373
 3754TIP3   OH211267   3.216   4.459   4.926  0.3941 -0.2168 -0.4316
 3754TIP3    H111268   3.248   4.377   4.887  2.5143  0.3063  0.0737
 3754TIP3    H211269   3.262   4.528   4.877 -1.8113  0.7468 -1.2521
 3755TIP3   OH211270   1.668   0.227   2.806  1.0738  0.4179  0.0751
 3755TIP3    H111271   1.625   0.312   2.800 -0.8985 -0.5538 -0.3162
 3755TIP3    H211272   1.721   0.221   2.726  0.1927  0.7425 -0.5404
 3756TIP3   OH211273   4.130   5.683   1.304 -0.3226  0.1232 -0.6581
 3756TIP3    H111274   4.094   5.732   1.378 -1.6864 -2.3114  0.4237
 3756TIP3    H211275   4.221   5.666   1.327  0.2551  2.2364 -1.1738
 3757TIP3   OH211276   3.673   5.353   3.594  0.1282 -0.1290 -0.4516
 3757TIP3    H111277   3.597   5.363   3.651  0.7965 -0.5856  0.5569
 3757TIP3    H211278   3.679   5.258   3.579  1.8030 -0.3986  1.4000
 3758TIP3   OH211279   4.996   0.038   2.536  0.1196 -0.1886 -0.1960
 3758TIP3    H111280   5.022   0.119   2.581  2.1385  0.1564 -1.8228
 3758TIP3    H211281   4.934   0.066   2.470  0.5089 -0.0128 -0.4922
 3759TIP3   OH211282   4.465   4.588   3.018 -0.7850 -0.0267 -0.1217
 3759TIP3    H111283   4.377   4.625   3.029 -0.0176  1.5856  0.8812
 3759TIP3    H211284   4.454   4.520   2.951 -2.0791  2.7293 -2.9552
 3760TIP3   OH211285   6.291   4.823   1.011 -0.4023 -0.1345 -0.1408
 3760TIP3    H111286   6.350   4.879   0.960 -0.0057 -0.1462  0.3057
 3760TIP3    H211287   6.216   4.809   0.953 -0.9263  1.5954  0.0659
 3761TIP3   OH211288   1.123   2.063   2.592 -0.2467  0.2932 -0.2601
 3761TIP3    H111289   1.199   2.103   2.633  0.1507  0.3069 -1.0009
 3761TIP3    H211290   1.072   2.137   2.558 -1.0325  0.3452  0.9493
 3762TIP3   OH211291   5.000   2.068   0.350 -0.2561  0.1044 -0.3332
 3762TIP3    H111292   4.994   1.990   0.406 -1.3111 -0.6050 -1.3893
 3762TIP3    H211293   4.944   2.133   0.393 -1.1232 -0.4623 -0.5943
 3763TIP3   OH211294   1.900   1.507   2.630 -0.2032  0.7482 -0.2037
 3763TIP3    H111295   1.825   1.548   2.588 -0.9401  0.0768  0.4271
 3763TIP3    H211296   1.899   1.541   2.720  0.0535  0.4837 -0.0978
 3764TIP3   OH211297   5.083   5.349   1.982  0.6906  0.1208  0.1075
 3764TIP3    H111298   5.169   5.390   1.966  1.1376 -1.7177 -2.9958
 3764TIP3    H211299   5.022   5.402   1.930  0.2335  0.3190  0.8357
 3765TIP3   OH211300   1.040   5.900   4.782 -0.5019 -0.1006 -0.4904
 3765TIP3    H111301   1.089   5.935   4.707 -0.7669 -1.3062 -1.2656
 3765TIP3    H211302   1.094   5.828   4.814 -0.9840 -0.3915 -0.3227
 3766TIP3   OH211303   0.801   1.483   2.209 -0.5205 -0.1513 -0.1786
 3766TIP3    H111304   0.718   1.524   2.183 -0.2778  0.3591 -0.1775
 3766TIP3    H211305   0.848   1.553   2.255  1.1015  0.4827 -2.6262
 3767TIP3   OH211306   2.633   5.839   4.714  0.3717 -0.1353 -0.0567
 3767TIP3    H111307   2.613   5.884   4.632  0.3644  1.6698  0.8964
 3767TIP3    H211308   2.695   5.770   4.689 -1.9468 -1.6818 -2.0392
 3768TIP3   OH211309   4.486   0.972   0.034  0.1126  0.3370 -0.2597
 3768TIP3    H111310   4.430   1.011   0.101 -1.4925 -1.1413 -0.6733
 3768TIP3    H211311   4.434   0.901  -0.003  2.2159 -1.0283 -0.7876
 3769TIP3   OH211312   3.806   4.565   2.088 -0.2402 -0.0720  0.3421
 3769TIP3    H111313   3.833   4.646   2.131  0.7023 -1.1342  1.8510
 3769TIP3    H211314   3.855   4.496   2.133 -0.4547 -1.4298 -1.3863
 3770TIP3   OH211315   0.392   0.216   0.752 -0.1656 -0.4612 -0.0720
 3770TIP3    H111316   0.322   0.280   0.743  0.7160  0.4352 -0.7727
 3770TIP3    H211317   0.364   0.159   0.823 -1.4129  0.1204 -0.0824
 3771TIP3   OH211318   1.344   4.896   1.326 -0.0589 -0.3191  0.3168
 3771TIP3    H111319   1.292   4.973   1.349 -0.1771 -0.6158  1.0934
 3771TIP3    H211320   1.412   4.929   1.268  0.2215  0.4783  1.0773
 3772TIP3   OH211321   5.933   5.530   3.389  0.3945  0.0510  0.2350
 3772TIP3    H111322   6.001   5.463   3.385  0.2235 -0.1133  0.0038
 3772TIP3    H211323   5.946   5.573   3.473 -0.1361 -0.9748  0.8582
 3773TIP3   OH211324   5.741   5.756   3.087  0.2019 -0.4525  0.1492
 3773TIP3    H111325   5.715   5.730   2.999 -0.3093  0.2169  0.0947
 3773TIP3    H211326   5.805   5.826   3.074 -0.4695  0.2033  0.3059
 3774TIP3   OH211327   3.676   5.316   2.134  0.1867  0.3325  0.6323
 3774TIP3    H111328   3.731   5.371   2.078  0.7065  0.1456  0.9523
 3774TIP3    H211329   3.601   5.293   2.079  0.6750  0.1795  0.0239
 3775TIP3   OH211330   1.082   4.965   0.337  0.3762 -0.2745  0.2570
 3775TIP3    H111331   1.052   5.049   0.303 -0.4515 -0.0559  1.4564
 3775TIP3    H211332   1.154   4.987   0.395 -0.5878 -0.2496  1.4767
 3776TIP3   OH211333   0.529   1.050   3.843  0.1455  0.3259  0.7542
 3776TIP3    H111334   0.441   1.050   3.806 -0.2175  0.5300  1.5974
 3776TIP3    H211335   0.540   0.963   3.880  0.6042  0.0378 -0.0417
 3777TIP3   OH211336   3.554   0.566   1.294 -0.0184 -0.4376  0.2486
 3777TIP3    H111337   3.624   0.548   1.357  0.3271 -0.2659 -0.0807
 3777TIP3    H211338   3.473   0.550   1.343  0.2554 -2.0034  0.2303
 3778TIP3   OH211339   1.824   4.358   4.399 -0.2405 -0.0349  0.6504
 3778TIP3    H111340   1.917   4.339   4.407 -0.4875 -1.7745 -0.0793
 3778TIP3    H211341   1.787   4.338   4.485 -0.1589 -0.8798  0.4971
 3779TIP3   OH211342   0.751   1.123   4.301  1.0456  0.6510 -0.4612
 3779TIP3    H111343   0.779   1.214   4.307  1.3048  0.7501 -2.3749
 3779TIP3    H211344   0.656   1.127   4.293  0.8915  0.6236  1.1274
 3780TIP3   OH211345   0.330   4.969   2.464  0.3885 -0.6358  0.9819
 3780TIP3    H111346   0.390   5.043   2.461 -1.1144  0.6218  0.8653
 3780TIP3    H211347   0.302   4.964   2.556  0.6493 -1.2189  1.0379
 3781TIP3   OH211348   4.124   4.196   3.689 -0.0272  0.8087 -0.3270
 3781TIP3    H111349   4.135   4.164   3.600 -1.6886  1.4022 -0.7621
 3781TIP3    H211350   4.206   4.242   3.708  0.2340  0.9305 -1.6474
 3782TIP3   OH211351   2.124   4.262   3.450 -0.3142 -0.0400  0.3317
 3782TIP3    H111352   2.078   4.223   3.524 -0.4852 -0.3434  0.0688
 3782TIP3    H211353   2.110   4.200   3.378 -0.0618  0.2000  0.0751
 3783TIP3   OH211354   2.094   3.389   3.177  0.0196  0.4127 -0.0383
 3783TIP3    H111355   2.003   3.387   3.146 -0.3484 -1.0030  1.0568
 3783TIP3    H211356   2.126   3.476   3.150 -1.6967  1.0038 -0.3052
 3784TIP3   OH211357   2.496   1.273   2.559  0.0220  0.1757  0.2512
 3784TIP3    H111358   2.559   1.274   2.488 -1.2174 -1.4060 -0.9390
 3784TIP3    H211359   2.411   1.286   2.517 -0.6828 -0.1597  1.4959
 3785TIP3   OH211360   1.504   3.914   4.317  0.1376 -0.2489 -0.4272
 3785TIP3    H111361   1.539   3.965   4.390  2.2632  1.2637 -2.3582
 3785TIP3    H211362   1.467   3.836   4.357  4.2670 -1.2034  2.0309
 3786TIP3   OH211363   3.684   2.448   1.600  0.7010 -0.0573 -0.2531
 3786TIP3    H111364   3.671   2.367   1.551 -0.5197  0.6713 -1.2099
 3786TIP3    H211365   3.617   2.444   1.669  0.6509  0.1266 -0.2920
 3787TIP3   OH211366   1.149   3.562   3.607 -0.2189 -0.2432 -0.0223
 3787TIP3    H111367   1.198   3.644   3.614 -1.6526  1.0335 -2.9897
 3787TIP3    H211368   1.214   3.497   3.581  0.5173  0.6024 -0.3387
 3788TIP3   OH211369   1.481   0.716   3.888  0.0066 -0.0975 -0.2980
 3788TIP3    H111370   1.447   0.668   3.813  0.6848  0.8029 -1.2068
 3788TIP3    H211371   1.415   0.703   3.957 -0.9213 -0.4414 -1.2300
 3789TIP3   OH211372   1.209   0.598   0.580 -0.0338  0.3645  0.3243
 3789TIP3    H111373   1.278   0.655   0.547 -1.8424  2.9663  0.7227
 3789TIP3    H211374   1.172   0.558   0.501  2.0110 -1.2958  0.1317
 3790TIP3   OH211375   0.203   2.908   5.148  0.3824 -0.4919 -0.1920
 3790TIP3    H111376   0.233   2.914   5.057 -0.2650  2.4402 -0.3138
 3790TIP3    H211377   0.275   2.946   5.199  0.2343 -1.0050  0.4079
 3791TIP3   OH211378   5.702   3.742   4.274 -0.2022 -0.4727  0.3703
 3791TIP3    H111379   5.778   3.715   4.223  1.1687  2.3815  0.6946
 3791TIP3    H211380   5.700   3.681   4.348  2.0244 -0.4288  0.5420
 3792TIP3   OH211381   0.420   3.664   1.245  0.3496  0.6149 -0.0990
 3792TIP3    H111382   0.425   3.593   1.181 -1.7808 -0.8162  1.1842
 3792TIP3    H211383   0.496   3.651   1.302  1.5414  1.1201 -1.5340
 3793TIP3   OH211384   1.423   3.535   4.869 -0.1895 -0.0263  0.3900
 3793TIP3    H111385   1.465   3.452   4.890 -0.9609 -0.4970  0.0652
 3793TIP3    H211386   1.414   3.535   4.774 -0.4656  0.2962  0.4128
 3794TIP3   OH211387   1.208   0.405   1.781  0.8624  0.1874 -0.1305
 3794TIP3    H111388   1.160   0.335   1.825 -0.2220  0.4264 -0.9176
 3794TIP3    H211389   1.245   0.457   1.853 -1.9106  1.3146  0.6090
 3795TIP3   OH211390   1.263   5.442   0.773  0.0598  0.2068 -0.3150
 3795TIP3    H111391   1.306   5.517   0.730  1.2120  0.1604  0.7231
 3795TIP3    H211392   1.187   5.424   0.717 -0.5417  2.4664 -0.3207
 3796TIP3   OH211393   5.363   1.443   4.430 -0.0788  0.9344 -0.1402
 3796TIP3    H111394   5.391   1.447   4.522  1.0497  1.3881 -0.4964
 3796TIP3    H211395   5.350   1.349   4.413  1.1073  0.7093  0.0828
 3797TIP3   OH211396   6.243   4.058   4.877 -0.2153 -0.6216  0.3779
 3797TIP3    H111397   6.260   3.965   4.893 -2.6286 -1.0070  1.0363
 3797TIP3    H211398   6.164   4.059   4.823  0.6372  1.0494 -0.9343
 3798TIP3   OH211399   2.082   3.699   3.874  0.3321 -0.0732  0.3834
 3798TIP3    H111400   2.092   3.608   3.845 -1.6918  0.8634 -4.2489
 3798TIP3    H211401   2.015   3.696   3.942 -0.3342 -2.0154 -0.2831
 3799TIP3   OH211402   1.388   5.467   4.430  0.1242 -0.2445 -0.6640
 3799TIP3    H111403   1.481   5.487   4.416  0.2131  0.4748  0.7903
 3799TIP3    H211404   1.364   5.519   4.507 -1.4367 -0.5799 -0.9040
 3800TIP3   OH211405   5.061   1.182   3.363  0.3163 -0.2077  0.3139
 3800TIP3    H111406   5.153   1.162   3.381  0.6069  0.0030 -0.8464
 3800TIP3    H211407   5.057   1.278   3.364  0.9960  0.0077 -3.3791
 3801TIP3   OH211408   0.868   2.634   2.326  0.1256 -0.1819  0.2902
 3801TIP3    H111409   0.928   2.701   2.293  0.9977 -0.7571  0.6702
 3801TIP3    H211410   0.856   2.574   2.253 -1.5720  0.9608 -0.4377
 3802TIP3   OH211411   1.531   2.717   4.852 -0.2345 -0.1430 -0.7120
 3802TIP3    H111412   1.613   2.675   4.827  0.2739  0.8796 -0.7639
 3802TIP3    H211413   1.546   2.748   4.942 -1.4216 -2.1582  0.2646
 3803TIP3   OH211414   3.224   1.131   3.358 -0.2021 -0.0208 -0.2211
 3803TIP3    H111415   3.231   1.059   3.422  0.8175 -2.0942 -2.5048
 3803TIP3    H211416   3.136   1.123   3.322 -0.2407  0.1844 -0.1749
 3804TIP3   OH211417   4.597   5.553   4.994  0.0094 -0.2863 -0.4031
 3804TIP3    H111418   4.590   5.639   5.036  2.2346 -1.2032  2.0887
 3804TIP3    H211419   4.507   5.521   4.989 -0.5035  0.4584  2.5753
 3805TIP3   OH211420   6.116   2.635   3.816  0.6816  0.0462  0.4805
 3805TIP3    H111421   6.028   2.673   3.819  1.4430  1.9230  0.0104
 3805TIP3    H211422   6.142   2.640   3.724  0.7521 -1.8594  0.3509
 3806TIP3   OH211423   3.401   0.556   3.345 -0.3151  0.6339 -0.3569
 3806TIP3    H111424   3.346   0.478   3.345 -0.6963  0.8369  1.9155
 3806TIP3    H211425   3.388   0.595   3.432 -0.3223  3.3656 -1.4675
 3807TIP3   OH211426   1.589   2.873   5.084  0.0110 -0.3533  0.4561
 3807TIP3    H111427   1.532   2.822   5.142  3.5614 -0.7490  4.0325
 3807TIP3    H211428   1.677   2.844   5.106  1.8747  2.9150 -1.9122
 3808TIP3   OH211429   0.735   4.109   3.474  0.0249  0.2333 -0.4714
 3808TIP3    H111430   0.761   4.145   3.389  2.5337  2.3695  1.0295
 3808TIP3    H211431   0.787   4.028   3.481  2.7671  1.9356  0.4236
 3809TIP3   OH211432   4.751   5.232   2.779 -0.2109 -0.0179  0.1851
 3809TIP3    H111433   4.708   5.164   2.831 -1.8052  0.8236  0.0176
 3809TIP3    H211434   4.681   5.270   2.726  1.1900 -0.2259 -1.9247
 3810TIP3   OH211435   2.177   4.086   4.317 -1.1159  0.2437  0.4781
 3810TIP3    H111436   2.216   4.096   4.231  1.1836 -2.7800  0.9870
 3810TIP3    H211437   2.095   4.040   4.302  0.5144 -2.7443 -0.1062
 3811TIP3   OH211438   5.021   1.470   3.135  0.2017 -0.1037  0.3831
 3811TIP3    H111439   5.064   1.405   3.080 -1.8450  0.8894 -2.6785
 3811TIP3    H211440   5.062   1.553   3.111  0.9610  0.1233  2.2777
 3812TIP3   OH211441   1.601   5.217   3.518 -0.0706  0.2289  0.2136
 3812TIP3    H111442   1.637   5.135   3.485  0.9347  0.1375  1.4732
 3812TIP3    H211443   1.675   5.263   3.557 -1.1037  0.4135  2.1319
 3813TIP3   OH211444   2.932   2.163   0.459  0.7850  0.0306 -0.7009
 3813TIP3    H111445   2.889   2.212   0.388 -0.9466 -0.1357  0.1815
 3813TIP3    H211446   2.962   2.082   0.417  0.6632  0.3580 -1.4446
 3814TIP3   OH211447   6.071   3.797   1.032 -0.4494 -0.4360  0.7245
 3814TIP3    H111448   6.095   3.706   1.051  0.2914 -0.3085  0.4489
 3814TIP3    H211449   6.090   3.844   1.113 -0.9439 -0.5380  0.9061
 3815TIP3   OH211450   1.610   1.812   3.963  0.4671 -0.8373  0.2029
 3815TIP3    H111451   1.570   1.869   4.029  0.8868 -1.0751  0.6675
 3815TIP3    H211452   1.665   1.752   4.013 -0.7455 -2.3369 -0.1763
 3816TIP3   OH211453   2.569   0.977   4.764 -0.1153  0.0426 -0.1004
 3816TIP3    H111454   2.569   1.017   4.677  0.8276 -0.8454 -0.5307
 3816TIP3    H211455   2.555   1.050   4.824  2.6753  1.2581 -0.7772
 3817TIP3   OH211456   4.894   3.697   4.862  0.0009  0.1066 -0.2447
 3817TIP3    H111457   4.880   3.742   4.946  0.3247 -0.9906  0.4288
 3817TIP3    H211458   4.873   3.605   4.881 -0.5268 -0.0506 -1.5437
 3818TIP3   OH211459   4.249   0.854   2.697 -0.1766  0.0409 -0.0025
 3818TIP3    H111460   4.191   0.812   2.761  1.0574 -1.3479  0.2646
 3818TIP3    H211461   4.325   0.882   2.749  1.3970 -2.1571 -0.9156
 3819TIP3   OH211462   4.927   1.045   3.124 -0.8492  0.5229 -0.5188
 3819TIP3    H111463   4.956   1.072   3.210 -1.1951 -0.4412 -0.0836
 3819TIP3    H211464   5.007   1.032   3.074 -0.6648  1.8460 -0.6030
 3820TIP3   OH211465   1.820   2.938   1.875 -0.1166 -0.0838  0.1439
 3820TIP3    H111466   1.908   2.902   1.888 -0.8216 -0.9402  3.4089
 3820TIP3    H211467   1.830   3.032   1.890  0.1487 -0.2973  1.4475
 3821TIP3   OH211468   5.013   3.421   3.745 -0.8857  0.2794  0.2421
 3821TIP3    H111469   5.104   3.397   3.760 -1.1541 -0.5490  0.5515
 3821TIP3    H211470   4.991   3.480   3.817 -0.4706  0.8509 -0.0837
 3822TIP3   OH211471   2.916   5.937   1.486  0.2434  0.7801 -0.3279
 3822TIP3    H111472   2.893   5.991   1.562 -1.9972  0.7794 -0.9452
 3822TIP3    H211473   2.955   5.858   1.523 -1.8000  0.2969  0.9418
 3823TIP3   OH211474   3.835   4.483   3.874  0.4136  0.4328 -0.2103
 3823TIP3    H111475   3.802   4.448   3.791  0.4928  0.4733 -0.2593
 3823TIP3    H211476   3.767   4.463   3.938 -0.5736  2.1986 -0.6674
 3824TIP3   OH211477   0.750   3.108   4.728 -0.1334  0.5256 -0.3185
 3824TIP3    H111478   0.838   3.080   4.753 -0.8977 -0.2314  1.7923
 3824TIP3    H211479   0.693   3.036   4.758 -1.3568  0.2449 -3.0546
 3825TIP3   OH211480   5.521   1.044   4.652 -0.2976 -1.2299  0.4953
 3825TIP3    H111481   5.569   0.965   4.677  1.2495 -0.1177  1.1389
 3825TIP3    H211482   5.588   1.104   4.620 -1.1537  0.5538  1.8872
 3826TIP3   OH211483   4.751   0.276   3.613 -0.4376 -0.2234  0.6224
 3826TIP3    H111484   4.710   0.224   3.681  1.1298  0.9394  2.5576
 3826TIP3    H211485   4.808   0.214   3.567 -1.7641 -1.0899  0.1004
 3827TIP3   OH211486   6.110   5.411   4.617  0.4712  0.2220  0.4183
 3827TIP3    H111487   6.020   5.390   4.642  1.2982 -1.6416  2.1780
 3827TIP3    H211488   6.151   5.326   4.600  1.7435  1.0719 -1.0253
 3828TIP3   OH211489   3.482   4.425   1.884  0.1988 -0.4479 -0.4124
 3828TIP3    H111490   3.449   4.438   1.795 -1.6839 -0.8566  0.2000
 3828TIP3    H211491   3.561   4.481   1.888 -0.9013  1.2988 -1.6493
 3829TIP3   OH211492   4.314   4.903   3.373  0.1407  0.1592 -0.3602
 3829TIP3    H111493   4.221   4.913   3.388  0.0433 -0.4890 -0.4886
 3829TIP3    H211494   4.351   4.990   3.386  0.0358 -0.1752  3.3154
 3830TIP3   OH211495   1.190   2.464   3.880 -0.5277  0.7391  0.1618
 3830TIP3    H111496   1.132   2.400   3.840  0.6122 -0.5181  0.4697
 3830TIP3    H211497   1.277   2.442   3.848  0.0092  1.5904  0.9649
 3831TIP3   OH211498   4.682   2.487   2.751  0.7434  0.4052  0.8466
 3831TIP3    H111499   4.739   2.558   2.719 -0.2615  0.3860 -1.1414
 3831TIP3    H211500   4.662   2.511   2.841  2.1469  1.5326  0.8915
 3832TIP3   OH211501   3.217   4.957   1.261 -0.1075 -0.4698 -0.0062
 3832TIP3    H111502   3.251   4.870   1.279 -1.1913 -0.9169 -0.0411
 3832TIP3    H211503   3.295   5.011   1.246  0.5432 -1.7216 -1.3655
 3833TIP3   OH211504   5.718   4.277   0.301  0.0340  0.5222  0.4978
 3833TIP3    H111505   5.725   4.199   0.246  1.3603  0.0785  1.2416
 3833TIP3    H211506   5.802   4.281   0.348  0.5135  3.0547 -0.3774
 3834TIP3   OH211507   5.746   4.274   1.381 -0.1519 -0.4048  0.1274
 3834TIP3    H111508   5.693   4.344   1.343  0.9278 -0.2109 -1.0963
 3834TIP3    H211509   5.745   4.205   1.315 -0.6564 -1.2756  1.0374
 3835TIP3   OH211510   0.168   1.118   1.543  0.1464 -0.5156  0.2381
 3835TIP3    H111511   0.189   1.089   1.455 -0.6355  1.4174 -0.6352
 3835TIP3    H211512   0.077   1.092   1.557 -0.1196  0.2731 -0.0116
 3836TIP3   OH211513   5.509   4.224   2.181 -0.3918 -0.5998  0.5894
 3836TIP3    H111514   5.553   4.143   2.156  2.7440  0.5557  1.7880
 3836TIP3    H211515   5.504   4.220   2.276  1.1602  1.1059  0.8189
 3837TIP3   OH211516   0.045   5.804   4.600  0.2310 -0.0847 -0.7442
 3837TIP3    H111517   0.138   5.803   4.620 -0.0098  0.7768  0.6099
 3837TIP3    H211518   0.040   5.821   4.506  1.4281  0.2197 -0.7646
 3838TIP3   OH211519   1.862   3.395   3.848 -0.0236  0.0409 -0.0511
 3838TIP3    H111520   1.953   3.375   3.827 -0.3243 -0.6993 -0.7506
 3838TIP3    H211521   1.863   3.422   3.940  0.9681  0.5827 -0.2118
 3839TIP3   OH211522   0.400   3.032   0.956 -0.3821 -0.8807 -0.6663
 3839TIP3    H111523   0.324   3.084   0.931  0.1189 -0.0098 -0.4059
 3839TIP3    H211524   0.412   2.971   0.884  0.3331  0.8011 -2.0178
 3840TIP3   OH211525   5.789   0.928   3.476 -0.1061  0.1022  0.2623
 3840TIP3    H111526   5.733   0.879   3.536 -1.1694  0.5361 -0.3514
 3840TIP3    H211527   5.855   0.864   3.448 -1.4395 -0.9911 -0.4869
 3841TIP3   OH211528   3.270   4.998   3.650 -0.6122  0.0492  0.6929
 3841TIP3    H111529   3.323   5.046   3.714 -0.5283  1.2851 -0.2621
 3841TIP3    H211530   3.286   5.043   3.567 -1.7757 -0.6650  0.0503
 3842TIP3   OH211531   6.046   3.987   3.939  0.1595  0.3672  0.0301
 3842TIP3    H111532   6.108   4.000   3.867  1.4534 -0.2666  1.0144
 3842TIP3    H211533   6.042   4.072   3.983 -0.0665  0.5469 -0.3316
 3843TIP3   OH211534   1.756   3.577   0.830  0.2385 -0.0633  0.0598
 3843TIP3    H111535   1.852   3.575   0.827  0.2900  0.8739  0.6195
 3843TIP3    H211536   1.730   3.486   0.839  1.0277 -0.4386 -1.1563
 3844TIP3   OH211537   4.087   3.678   3.562  0.1265 -0.7076 -0.1329
 3844TIP3    H111538   4.055   3.722   3.641 -1.1285 -0.1227 -0.9233
 3844TIP3    H211539   4.127   3.747   3.510  0.1566 -0.9117 -0.3854
 3845TIP3   OH211540   3.549   0.516   5.102  0.2845 -0.4062  0.2598
 3845TIP3    H111541   3.491   0.589   5.125 -2.3333 -1.7213 -1.7110
 3845TIP3    H211542   3.490   0.447   5.072  2.8916 -1.8039 -2.0470
 3846TIP3   OH211543   5.627   5.398   3.574  0.0151 -0.3624 -0.1949
 3846TIP3    H111544   5.565   5.330   3.549  0.8862 -0.9438 -0.8244
 3846TIP3    H211545   5.652   5.377   3.664 -0.8252 -0.0094  0.1373
 3847TIP3   OH211546   5.364   4.558   3.133  0.1640 -0.3240 -0.3672
 3847TIP3    H111547   5.342   4.608   3.211 -2.2853 -0.5661 -0.8266
 3847TIP3    H211548   5.332   4.611   3.060 -0.3897 -1.4911 -1.0030
 3848TIP3   OH211549   2.247   5.085   4.501  0.2626 -0.4045 -0.6383
 3848TIP3    H111550   2.302   5.071   4.424 -1.1630 -1.2434 -1.5433
 3848TIP3    H211551   2.157   5.080   4.468 -0.4369  2.3115  0.5409
 3849TIP3   OH211552   3.072   3.052   3.503 -0.0061 -0.9520  0.3992
 3849TIP3    H111553   3.130   3.028   3.575 -0.6042 -0.8929  0.9043
 3849TIP3    H211554   2.999   3.096   3.544  0.1902  0.1144 -0.3545
 3850TIP3   OH211555   2.132   4.275   1.241  0.0197 -0.1643  0.2050
 3850TIP3    H111556   2.080   4.243   1.167  1.0197 -1.5401  0.0502
 3850TIP3    H211557   2.222   4.274   1.209  0.2359  1.7412  0.6125
 3851TIP3   OH211558   5.122   1.282   2.936 -0.0450 -0.4303 -0.1338
 3851TIP3    H111559   5.105   1.189   2.948  0.5147 -0.5034  0.1096
 3851TIP3    H211560   5.216   1.288   2.919 -0.4570 -0.1894 -2.9133
 3852TIP3   OH211561   2.943   3.001   3.268 -0.4982 -0.1532  0.1735
 3852TIP3    H111562   2.857   2.960   3.281  0.5788 -2.1654  1.5065
 3852TIP3    H211563   2.964   3.040   3.353  0.0095  0.1698 -0.0928
 3853TIP3   OH211564   4.701   4.525   4.829 -0.1619 -0.3208  0.1054
 3853TIP3    H111565   4.711   4.430   4.824  1.3363 -0.2649  1.1903
 3853TIP3    H211566   4.727   4.557   4.743  0.7447 -0.8278  0.1703
 3854TIP3   OH211567   2.816   2.369   3.497 -0.2472  0.2471 -0.2729
 3854TIP3    H111568   2.841   2.296   3.440  1.9287  1.1176 -0.5508
 3854TIP3    H211569   2.827   2.447   3.441  0.9580  1.0415  1.0017
 3855TIP3   OH211570   1.011   5.469   0.647  0.1323  0.9262  0.1040
 3855TIP3    H111571   0.985   5.462   0.555 -0.6751  1.4743  0.2828
 3855TIP3    H211572   0.933   5.444   0.696 -0.0154  2.3383  0.6443
 3856TIP3   OH211573   3.256   2.589   0.181 -0.1116 -0.3182  0.0670
 3856TIP3    H111574   3.231   2.681   0.167 -0.0179  0.0252  1.8900
 3856TIP3    H211575   3.348   2.586   0.156 -0.2840 -0.0648 -0.6081
 3857TIP3   OH211576   4.778   5.095   4.803 -0.5297 -0.3572  0.2069
 3857TIP3    H111577   4.715   5.153   4.847  0.0906  0.2529  0.3066
 3857TIP3    H211578   4.770   5.118   4.711 -0.8171 -0.6428  0.1584
 3858TIP3   OH211579   4.659   1.415   0.559 -0.0269  0.2807  0.0145
 3858TIP3    H111580   4.613   1.498   0.559  0.2438  0.4386  0.7128
 3858TIP3    H211581   4.737   1.430   0.505  1.0560  1.0924  1.7113
 3859TIP3   OH211582   3.772   2.482   2.032 -0.3170  0.0265  0.0188
 3859TIP3    H111583   3.679   2.487   2.054 -0.5953  0.2299 -1.1370
 3859TIP3    H211584   3.792   2.566   1.991  0.6604  0.4108  1.2331
 3860TIP3   OH211585   4.733   2.302   0.995 -0.1577 -0.6120  0.2762
 3860TIP3    H111586   4.672   2.359   1.042 -0.0506 -1.0623  0.9686
 3860TIP3    H211587   4.677   2.238   0.951 -0.3445  0.5391 -1.2525
 3861TIP3   OH211588   4.806   4.549   3.968 -0.6409  0.3333  0.4779
 3861TIP3    H111589   4.900   4.535   3.976 -0.6181  0.8445  1.1892
 3861TIP3    H211590   4.793   4.575   3.877 -0.3693 -1.7064 -0.1934
 3862TIP3   OH211591   4.385   1.626   5.074 -0.5210  0.0475 -0.3527
 3862TIP3    H111592   4.339   1.679   5.140  1.5818  0.6238  0.7750
 3862TIP3    H211593   4.368   1.536   5.100 -0.8720  0.2492  0.1417
 3863TIP3   OH211594   2.243   3.087   3.693 -0.1563  0.4821 -0.5530
 3863TIP3    H111595   2.250   3.010   3.637  1.0216 -0.3041  0.6005
 3863TIP3    H211596   2.320   3.139   3.672 -0.0070  0.4583 -0.0888
 3864TIP3   OH211597   1.314   4.774   2.253 -0.1380  0.0870  0.5826
 3864TIP3    H111598   1.238   4.741   2.205  0.0032  0.4721  0.0886
 3864TIP3    H211599   1.388   4.729   2.213 -0.1348 -0.6030  1.3402
 3865TIP3   OH211600   4.229   1.030   3.542  0.0752 -0.3954 -0.6109
 3865TIP3    H111601   4.249   1.118   3.510 -0.0221 -0.3921 -0.6643
 3865TIP3    H211602   4.134   1.031   3.556  0.5027  0.7715  3.2257
 3866TIP3   OH211603   2.199   0.633   4.578  0.2171  0.1482 -0.1570
 3866TIP3    H111604   2.266   0.624   4.645  0.2427 -0.3181 -0.2439
 3866TIP3    H211605   2.152   0.713   4.602 -1.3803 -1.2865  1.8749
 3867TIP3   OH211606   0.230   2.607   0.609  0.2457 -0.3555 -0.0705
 3867TIP3    H111607   0.250   2.671   0.542  0.5867 -0.2485  0.1261
 3867TIP3    H211608   0.306   2.610   0.668  0.6435 -1.4879 -0.4830
 3868TIP3   OH211609   6.073   1.090   1.450  0.6168 -0.4314 -0.1806
 3868TIP3    H111610   6.076   1.154   1.521  0.4737 -0.8373  0.1904
 3868TIP3    H211611   5.997   1.035   1.470 -0.3301  0.3698 -1.4290
 3869TIP3   OH211612   0.866   0.965   2.466 -0.0047  0.0613 -0.0146
 3869TIP3    H111613   0.854   1.048   2.513 -0.6843  0.4111 -0.7815
 3869TIP3    H211614   0.954   0.937   2.491  0.3500  1.1579  0.0560
 3870TIP3   OH211615   4.579   1.751   4.283  0.1459  0.3525  0.0804
 3870TIP3    H111616   4.601   1.842   4.302  2.9300  0.3549 -2.4449
 3870TIP3    H211617   4.599   1.740   4.190 -0.2523 -2.8063  0.2529
 3871TIP3   OH211618   1.102   4.797   2.963  0.3113  0.3310 -0.1457
 3871TIP3    H111619   1.042   4.753   3.023 -1.1911  1.8301 -0.4554
 3871TIP3    H211620   1.180   4.741   2.961 -0.8115 -1.3641  0.7708
 3872TIP3   OH211621   3.040   4.772   4.472  0.4334 -0.2697 -0.6458
 3872TIP3    H111622   2.989   4.777   4.554  0.0283  0.2470 -0.9255
 3872TIP3    H211623   2.974   4.779   4.403  0.7702 -0.7571 -1.0267
 3873TIP3   OH211624   5.077   2.319   1.904  0.1300 -0.2753  0.3243
 3873TIP3    H111625   5.078   2.360   1.991  0.3539  0.1267  0.1334
 3873TIP3    H211626   4.984   2.314   1.881  0.0293 -0.9142  0.8303
 3874TIP3   OH211627   5.904   5.510   1.576  0.2628 -0.3079 -0.0435
 3874TIP3    H111628   5.956   5.431   1.594 -0.5205 -0.8903 -0.2964
 3874TIP3    H211629   5.967   5.582   1.583  0.6219 -0.7654  2.0348
 3875TIP3   OH211630   1.333   4.611   3.948  0.3421  0.2779 -0.2678
 3875TIP3    H111631   1.399   4.623   4.016 -0.6649  1.9741  0.4586
 3875TIP3    H211632   1.264   4.559   3.990  0.7506 -0.6763 -0.7388
 3876TIP3   OH211633   3.718   2.993   0.124 -0.6244 -0.0625  0.5463
 3876TIP3    H111634   3.723   3.045   0.044 -0.6425  0.8855  1.1475
 3876TIP3    H211635   3.789   2.929   0.116  0.3643  1.0168  0.4468
 3877TIP3   OH211636   3.770   5.026   3.895  0.3812  0.3226  0.0136
 3877TIP3    H111637   3.788   4.948   3.948  2.2490  0.2489 -0.6575
 3877TIP3    H211638   3.841   5.086   3.916 -0.1769  1.2279 -0.6400
 3878TIP3   OH211639   1.271   4.660   3.440 -0.3713 -0.2744 -0.2175
 3878TIP3    H111640   1.290   4.753   3.454  0.3994 -0.3830 -0.4620
 3878TIP3    H211641   1.245   4.628   3.526  1.9797 -0.4063  0.5178
 3879TIP3   OH211642   1.623   2.148   3.316  0.0107  0.6898 -0.6170
 3879TIP3    H111643   1.531   2.121   3.315  0.3161 -0.4158 -0.5848
 3879TIP3    H211644   1.659   2.109   3.236  0.2768  1.7726 -1.0345
 3880TIP3   OH211645   3.841   0.207   3.057  0.6552  0.3051  0.4147
 3880TIP3    H111646   3.898   0.194   2.981 -1.2188  0.9007 -1.1878
 3880TIP3    H211647   3.754   0.180   3.026 -0.3834  1.6847  1.9591
 3881TIP3   OH211648   2.129   2.106   0.159  0.1528  0.5462 -0.0515
 3881TIP3    H111649   2.139   2.117   0.253 -0.8950 -1.0273  0.2736
 3881TIP3    H211650   2.072   2.178   0.132 -0.9340  0.0320  0.8142
 3882TIP3   OH211651   5.671   3.825   2.418  0.2247  0.6844  0.1666
 3882TIP3    H111652   5.638   3.893   2.358  1.5854  1.5908  0.3908
 3882TIP3    H211653   5.746   3.866   2.461 -0.2999 -0.1853  2.0023
 3883TIP3   OH211654   0.465   3.141   2.709 -0.2167  0.4281  0.7949
 3883TIP3    H111655   0.444   3.051   2.683  0.4777  0.6724 -0.7991
 3883TIP3    H211656   0.391   3.169   2.762 -1.3881 -0.4479 -0.2914
 3884TIP3   OH211657   1.406   1.401   4.676  0.3104  0.3841  0.5098
 3884TIP3    H111658   1.315   1.369   4.675 -0.1150  1.4072  1.9668
 3884TIP3    H211659   1.422   1.421   4.768  1.1984  2.4810 -0.0503
 3885TIP3   OH211660   1.148   4.960   1.933 -0.7890  0.6444 -0.3446
 3885TIP3    H111661   1.073   5.001   1.890  0.0867  0.7678 -1.8374
 3885TIP3    H211662   1.112   4.884   1.978 -1.7593  0.5014 -1.3295
 3886TIP3   OH211663   3.467   0.694   2.691  0.3330 -0.4895 -0.6423
 3886TIP3    H111664   3.464   0.743   2.773 -1.3102 -2.3649  0.5204
 3886TIP3    H211665   3.449   0.759   2.623 -1.1349  0.6553  0.7565
 3887TIP3   OH211666   0.868   5.133   2.070  0.1297 -0.4716  0.2714
 3887TIP3    H111667   0.937   5.197   2.089 -0.6569  0.0734  1.4263
 3887TIP3    H211668   0.799   5.184   2.029 -0.9773 -0.2929  2.2280
 3888TIP3   OH211669   6.170   4.137   1.063  0.0207 -0.6965  0.3445
 3888TIP3    H111670   6.228   4.212   1.081 -0.7632  0.6024 -2.0717
 3888TIP3    H211671   6.227   4.074   1.018  0.1098 -0.4275  0.0723
 3889TIP3   OH211672   4.084   2.824   2.201 -0.5083 -0.4923  0.4005
 3889TIP3    H111673   4.072   2.859   2.113  0.2292 -0.2498  0.3883
 3889TIP3    H211674   4.001   2.779   2.221 -0.9784  0.1467 -0.0907
 3890TIP3   OH211675   0.082   5.255   3.724  0.4184 -0.0792  0.6985
 3890TIP3    H111676   0.060   5.179   3.669 -1.4968  0.2496  0.9443
 3890TIP3    H211677   0.071   5.223   3.813 -0.7685  0.5529  0.7994
 3891TIP3   OH211678   3.028   4.979   5.140 -0.0385 -0.3527 -0.0665
 3891TIP3    H111679   3.086   5.046   5.104  0.4495 -1.3758 -1.2662
 3891TIP3    H211680   3.088   4.916   5.181 -0.4777 -0.1731  0.8733
 3892TIP3   OH211681   0.061   2.069   2.797  0.7311 -0.0836 -0.4927
 3892TIP3    H111682  -0.004   2.076   2.867  0.2250  0.8448 -1.0484
 3892TIP3    H211683   0.094   1.979   2.805  0.1756 -0.2162  0.4859
 3893TIP3   OH211684   5.700   4.841   4.466  0.2347 -0.0479 -0.1309
 3893TIP3    H111685   5.707   4.929   4.431  0.3147  0.0303  0.0803
 3893TIP3    H211686   5.766   4.837   4.535  0.7912 -0.5378 -0.6868
 3894TIP3   OH211687   4.735   3.720   0.137 -0.6015 -0.3958 -0.0552
 3894TIP3    H111688   4.657   3.711   0.082 -0.3180  0.8755 -0.6948
 3894TIP3    H211689   4.719   3.799   0.188 -0.3882 -0.9770  0.9476
 3895TIP3   OH211690   1.879   0.772   3.104  0.2415  0.1700 -0.0212
 3895TIP3    H111691   1.932   0.768   3.183 -0.1797  1.9890  0.4154
 3895TIP3    H211692   1.810   0.707   3.117  0.0706  0.5854  1.2089
 3896TIP3   OH211693   1.415   0.225   1.101 -0.0473 -0.2336  0.2273
 3896TIP3    H111694   1.392   0.202   1.190 -1.3207 -1.1992 -0.3302
 3896TIP3    H211695   1.510   0.210   1.095 -0.0147 -0.4672  1.2996
 3897TIP3   OH211696   2.360   2.842   2.949  0.4966 -0.0087  0.9913
 3897TIP3    H111697   2.415   2.917   2.930 -0.2416  0.4805  0.7256
 3897TIP3    H211698   2.401   2.769   2.901  0.7136  0.4213  0.5098
 3898TIP3   OH211699   1.609   0.142   3.362  0.6427  0.3275 -0.2104
 3898TIP3    H111700   1.624   0.153   3.268  0.5113  0.1756 -0.2509
 3898TIP3    H211701   1.573   0.225   3.391 -0.9579 -0.1806 -0.6340
 3899TIP3   OH211702   3.112   1.290   0.227  0.1960 -0.3096  0.1568
 3899TIP3    H111703   3.045   1.269   0.292 -0.7652  0.9962 -0.3594
 3899TIP3    H211704   3.168   1.212   0.223 -1.4465 -1.5470  0.4054
 3900TIP3   OH211705   1.461   3.114   2.905  0.1306 -0.5855 -0.8424
 3900TIP3    H111706   1.434   3.041   2.850  0.7843 -1.3548 -0.1713
 3900TIP3    H211707   1.387   3.127   2.964  0.1601 -0.9692 -0.7137
 3901TIP3   OH211708   4.078   1.538   2.585 -0.6503 -0.5260 -0.2134
 3901TIP3    H111709   4.013   1.603   2.611  0.8445  0.6764  0.6721
 3901TIP3    H211710   4.090   1.483   2.662  1.2327  0.8815  0.5747
 3902TIP3   OH211711   4.196   3.591   2.611 -0.0562 -0.2653  0.0681
 3902TIP3    H111712   4.256   3.585   2.685  0.3627 -0.6626 -0.2963
 3902TIP3    H211713   4.125   3.648   2.642  0.4836  0.1746  0.5128
 3903TIP3   OH211714   1.883   3.960   0.884  0.1737  0.1233 -0.0491
 3903TIP3    H111715   1.971   3.998   0.886  0.4547 -0.5130  0.0134
 3903TIP3    H211716   1.824   4.035   0.881  0.7537  0.5583 -2.0050
 3904TIP3   OH211717   2.524   4.410   2.925 -0.0913  0.2934  0.2191
 3904TIP3    H111718   2.459   4.384   2.991  0.7672  0.0720  1.0021
 3904TIP3    H211719   2.605   4.421   2.974  0.6361 -0.1357 -0.8460
 3905TIP3   OH211720   5.550   4.598   1.578  0.1130 -0.0975  0.5113
 3905TIP3    H111721   5.536   4.523   1.635  0.2493 -0.3622  0.2023
 3905TIP3    H211722   5.624   4.645   1.617 -0.1496  0.0258  0.8566
 3906TIP3   OH211723   0.459   2.985   1.622  0.0432  0.2385 -0.6059
 3906TIP3    H111724   0.373   2.946   1.608  0.0828 -0.3834  0.6449
 3906TIP3    H211725   0.441   3.077   1.641 -0.5848 -0.2469  1.5249
 3907TIP3   OH211726   2.131   5.876   2.605 -0.2505  0.3614  0.5238
 3907TIP3    H111727   2.132   5.937   2.531  0.2791 -0.6257 -0.3118
 3907TIP3    H211728   2.040   5.847   2.611 -0.1584 -0.1318 -0.2575
 3908TIP3   OH211729   3.565   5.253   0.795 -0.0905 -0.5490 -0.3941
 3908TIP3    H111730   3.496   5.319   0.808  0.4992 -0.0150  0.0831
 3908TIP3    H211731   3.642   5.303   0.771  0.0739 -1.1692 -1.2022
 3909TIP3   OH211732   0.867   5.675   1.518 -0.4145  0.2139 -0.3375
 3909TIP3    H111733   0.784   5.663   1.564 -0.2513  0.3460 -0.0051
 3909TIP3    H211734   0.846   5.659   1.426 -0.6030 -0.6965 -0.1424
 3910TIP3   OH211735   5.173   3.646   4.842 -0.2572 -0.0393  0.0433
 3910TIP3    H111736   5.200   3.706   4.772 -0.7090  0.3790  0.2249
 3910TIP3    H211737   5.078   3.649   4.842 -0.3350  2.1973  2.5154
 3911TIP3   OH211738   0.543   0.223   3.981 -0.1584  0.3079  0.4032
 3911TIP3    H111739   0.510   0.137   3.954  1.7286 -1.0911  2.2352
 3911TIP3    H211740   0.468   0.266   4.021 -1.3027 -0.1732 -1.1183
 3912TIP3   OH211741   1.983   2.161   1.242  0.6391 -0.3927  0.1230
 3912TIP3    H111742   1.895   2.131   1.216  0.5617 -0.4346  0.4346
 3912TIP3    H211743   1.974   2.185   1.334  1.0261 -0.6638  0.2310
 3913TIP3   OH211744   3.991   2.032   0.271 -0.4279 -0.8240  0.0712
 3913TIP3    H111745   4.045   2.017   0.193 -1.9441 -1.8814 -0.8294
 3913TIP3    H211746   4.049   2.012   0.344  1.1639  0.5940 -0.7229
 3914TIP3   OH211747   6.156   1.361   1.233  0.0420  0.0159 -0.4186
 3914TIP3    H111748   6.199   1.440   1.202 -0.2304  0.7820  1.0499
 3914TIP3    H211749   6.063   1.380   1.227 -0.1024  1.4572  3.5706
 3915TIP3   OH211750   3.074   1.505   3.294  0.1761  0.4878 -0.3034
 3915TIP3    H111751   3.103   1.492   3.384 -0.9226  1.3527  0.2068
 3915TIP3    H211752   3.000   1.566   3.301 -0.4280 -0.0225 -1.7163
 3916TIP3   OH211753   6.050   4.605   3.719 -0.2844 -0.1421  0.0311
 3916TIP3    H111754   6.091   4.651   3.646 -2.8539 -0.0727 -1.4881
 3916TIP3    H211755   5.980   4.664   3.747 -1.5600 -1.6874  0.1998
 3917TIP3   OH211756   3.999   5.328   0.834  0.2950  0.4204  0.1154
 3917TIP3    H111757   3.963   5.286   0.911  1.9848 -0.2492  0.5950
 3917TIP3    H211758   4.084   5.286   0.821 -0.0343  0.3252 -2.2674
 3918TIP3   OH211759   2.295   2.997   4.555  0.1875 -0.1830  0.1253
 3918TIP3    H111760   2.213   2.997   4.603  0.1202  0.3373  0.0179
 3918TIP3    H211761   2.288   3.071   4.495  1.3182  0.7400  1.1022
 3919TIP3   OH211762   2.583   4.058   4.002 -0.1649  0.0986 -0.4679
 3919TIP3    H111763   2.607   4.075   4.093 -1.3955 -1.4807  0.2137
 3919TIP3    H211764   2.516   3.989   4.008 -0.5317  0.2140 -2.5517
 3920TIP3   OH211765   3.247   1.091   1.651  0.2029  0.2334 -0.1585
 3920TIP3    H111766   3.265   1.003   1.684  0.5218  0.6314  0.7585
 3920TIP3    H211767   3.160   1.111   1.684  0.8306  0.9352  1.1517
 3921TIP3   OH211768   5.703   1.351   4.818  0.0312  0.3224  0.4206
 3921TIP3    H111769   5.640   1.319   4.883  0.2689  1.2397  1.1174
 3921TIP3    H211770   5.755   1.417   4.864  0.6188  0.5465 -0.5247
 3922TIP3   OH211771   3.480   5.203   1.483 -0.0188  0.3230  0.7009
 3922TIP3    H111772   3.412   5.139   1.505 -0.2222  1.0183  2.2125
 3922TIP3    H211773   3.560   5.151   1.480 -0.2800 -0.1333  1.2642
 3923TIP3   OH211774   3.450   5.682   2.169  0.5289 -0.0132  0.0187
 3923TIP3    H111775   3.494   5.656   2.088  1.0063  1.0716 -0.0883
 3923TIP3    H211776   3.421   5.600   2.208  1.0416 -0.6122 -0.8299
 3924TIP3   OH211777   2.008   3.745   3.574  0.7591  0.4316  0.1694
 3924TIP3    H111778   2.028   3.712   3.486 -1.3706  0.7426 -0.5124
 3924TIP3    H211779   2.090   3.782   3.606  1.8299 -0.5761 -1.2789
 3925TIP3   OH211780   4.356   0.609   2.881 -0.1187  0.0597  0.2452
 3925TIP3    H111781   4.389   0.569   2.800 -2.0801 -1.5038  0.1260
 3925TIP3    H211782   4.406   0.690   2.891  3.0350 -1.6418 -0.3494
 3926TIP3   OH211783   0.448   4.663   2.536 -0.3172 -0.0299 -0.2726
 3926TIP3    H111784   0.407   4.713   2.606  1.2731 -0.3649  0.9653
 3926TIP3    H211785   0.542   4.678   2.547  0.1441 -2.1944 -0.6708
 3927TIP3   OH211786   2.508   4.321   4.958  0.3579 -0.1913  0.3539
 3927TIP3    H111787   2.483   4.308   5.050  0.6999  0.0626  0.4873
 3927TIP3    H211788   2.574   4.390   4.961  0.8019 -0.5860 -0.0218
 3928TIP3   OH211789   3.947   0.646   0.683 -0.3616 -0.5962  0.5478
 3928TIP3    H111790   3.987   0.709   0.622 -0.1293 -0.4011  0.8950
 3928TIP3    H211791   3.853   0.661   0.674 -0.3083 -0.1753  0.6461
 3929TIP3   OH211792   3.925   1.609   3.075  0.2307  0.3519  0.1846
 3929TIP3    H111793   3.904   1.596   2.982  1.6213 -0.8361  0.0063
 3929TIP3    H211794   3.957   1.524   3.104 -2.1927  0.0677  2.3743
 3930TIP3   OH211795   1.906   4.315   0.567 -0.3423 -0.6284  0.4289
 3930TIP3    H111796   1.913   4.351   0.479  0.7518 -2.2036 -0.1616
 3930TIP3    H211797   1.869   4.228   0.555 -1.1808 -0.4663  1.6482
 3931TIP3   OH211798   5.421   3.512   4.896 -0.6495  0.4684 -0.1646
 3931TIP3    H111799   5.412   3.453   4.971 -2.6660 -1.0137 -1.4637
 3931TIP3    H211800   5.348   3.573   4.903 -0.9501  0.2195 -0.9781
 3932TIP3   OH211801   0.846   1.322   2.738  0.3308 -0.2361  0.1269
 3932TIP3    H111802   0.812   1.233   2.733 -1.3295  0.3980 -0.9203
 3932TIP3    H211803   0.929   1.314   2.785 -1.1971 -1.9328  2.8293
 3933TIP3   OH211804   6.081   3.951   1.248 -0.5496 -0.3804  0.4532
 3933TIP3    H111805   6.083   4.030   1.195 -0.7899  0.1304  1.1963
 3933TIP3    H211806   6.165   3.949   1.293 -0.3470 -0.8127  0.0722
 3934TIP3   OH211807   0.495   5.252   2.138  0.0498 -0.5374 -0.3052
 3934TIP3    H111808   0.556   5.204   2.193 -0.9836  0.8606  2.2070
 3934TIP3    H211809   0.448   5.185   2.089  2.3495 -1.7134 -1.0273
 3935TIP3   OH211810   6.183   5.264   1.019  0.2724  0.4678  0.0946
 3935TIP3    H111811   6.275   5.260   1.042  0.7526 -2.4912 -1.9121
 3935TIP3    H211812   6.180   5.319   0.941  0.4529 -0.1810 -0.3658
 3936TIP3   OH211813   4.262   4.835   4.893  0.1453  0.5608 -0.3276
 3936TIP3    H111814   4.310   4.782   4.829  0.4654  1.9651 -1.3126
 3936TIP3    H211815   4.330   4.868   4.952 -0.3220 -2.0172  1.7974
 3937TIP3   OH211816   4.307   3.158   1.898  0.0351  0.0115  0.3298
 3937TIP3    H111817   4.321   3.253   1.904  1.2246 -0.0896 -0.4823
 3937TIP3    H211818   4.349   3.123   1.976  1.5702 -0.0033 -0.4595
 3938TIP3   OH211819   1.332   3.397   1.938  0.4865  0.1761  0.2628
 3938TIP3    H111820   1.342   3.401   1.843  0.1350  0.0978  0.2195
 3938TIP3    H211821   1.237   3.396   1.952  0.4820  2.2311  0.7103
 3939TIP3   OH211822   4.710   5.440   1.074 -0.4626 -0.3568  0.5855
 3939TIP3    H111823   4.725   5.466   0.983 -0.5583  0.7355  0.8674
 3939TIP3    H211824   4.798   5.426   1.110 -0.2004  2.3865  1.1955
 3940TIP3   OH211825   1.058   0.599   0.929 -0.0528  1.1054  0.3005
 3940TIP3    H111826   1.129   0.534   0.933 -2.3682 -1.5735  1.5383
 3940TIP3    H211827   1.029   0.596   0.837 -0.1398  0.3512  0.3443
 3941TIP3   OH211828   1.698   4.985   1.733 -0.2787 -0.9153 -0.0822
 3941TIP3    H111829   1.680   5.079   1.731 -0.2918 -0.9158  0.0135
 3941TIP3    H211830   1.709   4.961   1.641  1.7378 -0.4377 -0.0194
 3942TIP3   OH211831   1.478   4.358   1.686  0.4508 -0.5959  1.1118
 3942TIP3    H111832   1.563   4.379   1.726  0.7166  0.1052  0.2138
 3942TIP3    H211833   1.466   4.265   1.703  1.5247 -0.7693  1.0152
 3943TIP3   OH211834   4.770   1.835   1.365 -0.4357 -0.0759 -0.4066
 3943TIP3    H111835   4.703   1.788   1.415 -0.7254  0.5461 -0.2002
 3943TIP3    H211836   4.810   1.894   1.429  0.5585 -0.6924 -0.4433
 3944TIP3   OH211837   3.463   0.707   2.069 -0.4172 -0.0974 -0.0147
 3944TIP3    H111838   3.498   0.625   2.105  0.3208  0.3382  0.2666
 3944TIP3    H211839   3.378   0.718   2.113 -0.9843 -1.1973 -0.7578
 3945TIP3   OH211840   3.035   0.913   1.225  0.0330 -0.0466  0.7420
 3945TIP3    H111841   3.118   0.921   1.272 -0.1808 -1.5976  1.4662
 3945TIP3    H211842   2.993   0.836   1.265 -0.1637 -1.4781 -1.9642
 3946TIP3   OH211843   1.142   3.845   5.106  0.3619  0.5119  0.2119
 3946TIP3    H111844   1.212   3.800   5.154  0.7705  0.7969 -0.1088
 3946TIP3    H211845   1.114   3.781   5.040  0.3108  0.3898  0.3527
 3947TIP3   OH211846   4.329   0.960   1.864  0.1692 -0.5102  0.1497
 3947TIP3    H111847   4.367   1.047   1.874 -3.0331  1.4121 -2.2452
 3947TIP3    H211848   4.372   0.923   1.787  0.9784 -0.7505  0.7040
 3948TIP3   OH211849   1.127   5.767   1.593 -0.3330  0.4886 -0.0490
 3948TIP3    H111850   1.052   5.715   1.563 -0.2956 -0.0159  0.6912
 3948TIP3    H211851   1.194   5.754   1.526 -1.1192  1.4820 -1.0631
 3949TIP3   OH211852   2.638   2.191   2.082  0.1110 -0.1159  0.4124
 3949TIP3    H111853   2.731   2.201   2.058  0.3791  0.6953  1.6521
 3949TIP3    H211854   2.629   2.244   2.162 -1.5324  0.1711  0.0611
 3950TIP3   OH211855   5.211   2.179   1.265 -0.1864 -0.1394  0.3399
 3950TIP3    H111856   5.280   2.245   1.271 -0.5120  0.2781 -0.3790
 3950TIP3    H211857   5.171   2.178   1.352  0.4440 -0.0860  0.6383
 3951TIP3   OH211858   4.377   2.269   2.408 -0.7420  0.2847  0.2369
 3951TIP3    H111859   4.424   2.229   2.335 -1.6463  0.7232 -0.5913
 3951TIP3    H211860   4.443   2.274   2.478 -0.5271 -2.4771  0.3389
 3952TIP3   OH211861   5.937   0.788   4.497  0.1736 -0.3708  0.1632
 3952TIP3    H111862   6.022   0.831   4.484  0.3690 -1.0579 -0.9411
 3952TIP3    H211863   5.925   0.736   4.418 -1.8089  0.5955 -0.2259
 3953TIP3   OH211864   3.534   1.174   3.871  0.3670 -0.5734  0.4346
 3953TIP3    H111865   3.576   1.158   3.956  0.0714  1.1932  0.9478
 3953TIP3    H211866   3.453   1.220   3.892 -0.0671 -0.7319 -0.7807
 3954TIP3   OH211867   0.064   5.544   1.958  0.0813  0.0413  0.0175
 3954TIP3    H111868   0.057   5.638   1.940 -0.7201  0.0807  0.4776
 3954TIP3    H211869   0.135   5.514   1.902  0.8336  1.0637  0.4010
 3955TIP3   OH211870   3.872   2.989   0.974 -0.3655  0.4381  0.3407
 3955TIP3    H111871   3.946   3.018   1.027  0.0962  1.2872 -0.7254
 3955TIP3    H211872   3.910   2.934   0.906 -1.0228 -1.1400  1.1984
 3956TIP3   OH211873   4.057   2.083   2.009  0.1371 -0.6908 -0.3036
 3956TIP3    H111874   4.105   2.069   2.091 -0.7892 -1.5354  0.1162
 3956TIP3    H211875   3.999   2.157   2.028  0.2141 -0.6244 -0.3278
 3957TIP3   OH211876   3.443   4.805   4.911  0.3295 -0.0757 -0.1104
 3957TIP3    H111877   3.416   4.754   4.835 -0.8242 -0.1442  0.3295
 3957TIP3    H211878   3.408   4.893   4.895 -0.8087 -0.3329  0.7769
 3958TIP3   OH211879   5.455   3.072   3.902 -0.6119  0.1507 -0.6025
 3958TIP3    H111880   5.444   3.070   3.997 -1.0611  2.1717 -0.5567
 3958TIP3    H211881   5.514   3.146   3.886 -3.0024  1.9087 -1.9979
 3959TIP3   OH211882   0.823   4.125   0.545  0.1851 -0.3112  0.1842
 3959TIP3    H111883   0.735   4.152   0.571  0.2767  1.1717 -0.9385
 3959TIP3    H211884   0.876   4.205   0.555  0.9359 -0.6143 -1.1844
 3960TIP3   OH211885   2.771   5.487   1.126 -0.0167  0.0802 -0.5145
 3960TIP3    H111886   2.807   5.420   1.184  0.0645 -0.2322 -0.9198
 3960TIP3    H211887   2.828   5.563   1.140 -0.9702  0.5535  1.0052
 3961TIP3   OH211888   2.222   1.178   2.713  0.5939 -0.0534  0.2343
 3961TIP3    H111889   2.272   1.161   2.793  1.7573  1.5854 -0.0749
 3961TIP3    H211890   2.279   1.148   2.642 -0.1281 -0.8479 -0.0162
 3962TIP3   OH211891   1.235   1.458   0.004  0.2432  0.0643  0.2010
 3962TIP3    H111892   1.272   1.389   0.059  0.3287 -0.2195 -0.2056
 3962TIP3    H211893   1.171   1.412  -0.052  0.5870  0.2426 -0.3451
 3963TIP3   OH211894   0.967   0.007   1.327 -0.3446  0.6742 -0.5661
 3963TIP3    H111895   0.891   0.061   1.348  0.1250  0.8937  0.6885
 3963TIP3    H211896   0.935  -0.059   1.266 -2.2916 -1.1269  2.1936
 3964TIP3   OH211897   4.833   4.040   1.777 -0.2383 -0.2687  0.1061
 3964TIP3    H111898   4.750   4.087   1.782 -0.4078 -0.4632 -0.7347
 3964TIP3    H211899   4.898   4.107   1.757 -0.3864 -0.2946 -0.4750
 3965TIP3   OH211900   4.074   0.626   0.025  0.4593  0.2125 -0.3828
 3965TIP3    H111901   4.120   0.676   0.093  0.8854  0.7106 -1.0255
 3965TIP3    H211902   4.060   0.540   0.064 -0.1747  0.7931  0.6963
 3966TIP3   OH211903   1.421   4.939   3.575 -0.1268  0.1610  0.2719
 3966TIP3    H111904   1.347   4.987   3.613  0.4425  0.4516  1.0532
 3966TIP3    H211905   1.495   4.959   3.633  0.9727  1.1981 -1.4075
 3967TIP3   OH211906   2.778   4.570   1.521 -0.4204  0.0332  0.2858
 3967TIP3    H111907   2.741   4.631   1.456  2.9031  1.5550 -0.3716
 3967TIP3    H211908   2.817   4.500   1.469  0.6612  0.2938  0.7282
 3968TIP3   OH211909   2.114   4.156   3.722 -0.3863 -0.1979 -0.5885
 3968TIP3    H111910   2.053   4.130   3.791 -1.1753 -0.3675 -1.3378
 3968TIP3    H211911   2.181   4.088   3.721 -0.7884 -0.5965 -0.4957
 3969TIP3   OH211912   2.069   3.946   5.133  0.1156 -0.3837 -0.0051
 3969TIP3    H111913   2.063   4.009   5.206 -2.0181  1.5733 -1.7155
 3969TIP3    H211914   2.157   3.959   5.098 -0.0582  1.2656  0.0700
 3970TIP3   OH211915   4.235   3.429   4.102 -0.0423  0.1922 -0.0331
 3970TIP3    H111916   4.289   3.438   4.181 -0.1823  1.5214 -0.0699
 3970TIP3    H211917   4.278   3.360   4.051  2.5228  2.1599 -0.7515
 3971TIP3   OH211918   2.358   2.925   0.872 -0.1908  0.3463  0.1022
 3971TIP3    H111919   2.407   2.996   0.830 -0.2157  1.1761  1.3944
 3971TIP3    H211920   2.296   2.970   0.930  0.3036 -0.7211  1.5229
 3972TIP3   OH211921  -0.018   4.297   0.076  0.5393  0.2983  0.6428
 3972TIP3    H111922  -0.021   4.256   0.162  2.2348 -1.6521 -0.1410
 3972TIP3    H211923   0.075   4.306   0.057  0.2012  0.7060 -0.9782
 3973TIP3   OH211924   5.267   4.390   2.270  0.5141  0.7544 -0.1990
 3973TIP3    H111925   5.328   4.330   2.228 -0.5829 -2.0915  1.9267
 3973TIP3    H211926   5.184   4.377   2.224  0.5522  1.6921 -0.5651
 3974TIP3   OH211927   4.438   3.594   3.913  0.1874  0.1499  0.0286
 3974TIP3    H111928   4.358   3.578   3.862  0.4574 -0.9647 -0.0699
 3974TIP3    H211929   4.496   3.522   3.889  0.5631 -0.0321  1.4244
 3975TIP3   OH211930   5.509   0.239   3.988 -0.1557  0.7239 -0.4804
 3975TIP3    H111931   5.603   0.260   3.980 -0.3470  1.7292 -0.2114
 3975TIP3    H211932   5.506   0.170   4.054  0.5198 -0.3631 -1.5466
 3976TIP3   OH211933   5.750   0.364   2.959 -0.1649  0.5625  0.3283
 3976TIP3    H111934   5.843   0.382   2.950  0.1993 -1.0782  0.4989
 3976TIP3    H211935   5.731   0.301   2.891 -1.6265  2.3029 -0.9816
 3977TIP3   OH211936   4.294   1.776   2.859  0.0769 -0.2863 -0.1081
 3977TIP3    H111937   4.292   1.683   2.878  0.4210 -0.3273 -0.2651
 3977TIP3    H211938   4.203   1.799   2.841 -0.0571 -0.5224  0.2479
 3978TIP3   OH211939   4.470   5.337   0.993 -0.3651  0.8370  1.1250
 3978TIP3    H111940   4.554   5.358   1.034  0.3881  0.2128 -0.0173
 3978TIP3    H211941   4.460   5.404   0.924  0.1021 -0.1259  0.0856
 3979TIP3   OH211942   4.795   1.806   4.724 -0.3500 -0.5983  0.3875
 3979TIP3    H111943   4.738   1.844   4.657 -0.5145  0.4548  1.0976
 3979TIP3    H211944   4.735   1.785   4.797 -0.3141 -2.5283 -0.0728
 3980TIP3   OH211945   2.828   0.692   0.820  0.4351 -0.0494  0.1581
 3980TIP3    H111946   2.829   0.711   0.726 -5.0544  0.7873 -0.0354
 3980TIP3    H211947   2.813   0.777   0.861 -4.0466 -1.0242  1.0202
 3981TIP3   OH211948   1.890   0.250   3.518  0.0805  0.4400  0.2738
 3981TIP3    H111949   1.820   0.290   3.466 -0.7835 -0.1644  0.9286
 3981TIP3    H211950   1.950   0.214   3.453 -0.8214 -0.0394 -0.3199
 3982TIP3   OH211951   0.967   4.277   3.618  0.4601  0.2884 -0.6498
 3982TIP3    H111952   0.885   4.247   3.579 -0.2744  0.5560  0.6449
 3982TIP3    H211953   1.030   4.276   3.545 -0.1880 -1.7729 -1.2560
 3983TIP3   OH211954   3.936   4.388   5.139  0.6291 -0.0073 -0.5276
 3983TIP3    H111955   3.868   4.330   5.105  1.8051 -1.7371 -0.0435
 3983TIP3    H211956   3.944   4.365   5.231  1.6925  0.3327 -0.5176
 3984TIP3   OH211957   5.107   5.691   3.736 -0.3710  0.0981  0.4156
 3984TIP3    H111958   5.168   5.620   3.756  0.6092  1.1043  1.1769
 3984TIP3    H211959   5.150   5.740   3.666  0.3618  1.5580  1.8244
 3985TIP3   OH211960   5.212   4.461   1.439 -0.4024 -0.3880  0.6595
 3985TIP3    H111961   5.182   4.437   1.351 -2.3675  0.9807  0.8836
 3985TIP3    H211962   5.235   4.554   1.432 -0.1848 -0.3719  1.4979
 3986TIP3   OH211963   3.023   0.843   0.490 -0.1058 -0.5406 -0.2185
 3986TIP3    H111964   3.069   0.763   0.465  0.0889 -0.2293 -0.8829
 3986TIP3    H211965   3.086   0.913   0.474 -0.9920 -0.0504 -1.6837
 3987TIP3   OH211966   6.029   3.042   0.870 -0.0551  0.8673  0.1370
 3987TIP3    H111967   6.028   3.030   0.965  0.0309  0.4153  0.0806
 3987TIP3    H211968   5.941   3.016   0.843  0.6811 -1.4631 -0.2025
 3988TIP3   OH211969   0.240   2.132   0.572 -0.5740 -0.1353 -0.2164
 3988TIP3    H111970   0.187   2.211   0.561  2.0713  1.8584  0.2683
 3988TIP3    H211971   0.313   2.144   0.511  1.2364 -0.9158  1.6805
 3989TIP3   OH211972   5.797   0.955   1.766  0.6957  0.6619  0.6074
 3989TIP3    H111973   5.838   0.940   1.681  2.7118 -1.0352  1.7779
 3989TIP3    H211974   5.720   1.008   1.747 -0.2380 -1.5655 -2.5353
 3990TIP3   OH211975   0.520   1.324   0.319  0.0376  0.4922 -0.1006
 3990TIP3    H111976   0.575   1.387   0.274 -1.1952  2.3840  0.9278
 3990TIP3    H211977   0.448   1.308   0.258  0.3842 -0.0114 -0.3889
 3991TIP3   OH211978   2.763   4.559   2.423 -0.2602 -0.1891  0.1785
 3991TIP3    H111979   2.771   4.597   2.335 -1.3658  0.9128  0.5238
 3991TIP3    H211980   2.722   4.474   2.409 -1.5265  0.4679 -0.2961
 3992TIP3   OH211981   1.848  -0.004   2.003  0.0364  0.0543 -0.3801
 3992TIP3    H111982   1.860  -0.021   2.097 -1.4611  0.7327 -0.0349
 3992TIP3    H211983   1.760   0.033   1.997  1.0921  2.5882 -1.7151
 3993TIP3   OH211984   2.761   3.741   4.555  0.3074 -0.8001  0.0049
 3993TIP3    H111985   2.819   3.763   4.482 -0.3297 -0.2979 -0.3591
 3993TIP3    H211986   2.778   3.809   4.621  0.5145 -0.9619  0.1205
 3994TIP3   OH211987   5.341   3.283   3.532 -0.0183 -1.1940  0.2438
 3994TIP3    H111988   5.278   3.295   3.461  0.1302 -1.3449  0.0850
 3994TIP3    H211989   5.287   3.284   3.612 -0.4376 -2.9233  0.0212
 3995TIP3   OH211990   1.384   1.174   4.278  0.3202  0.7859  0.3909
 3995TIP3    H111991   1.326   1.217   4.340  1.2503  2.9692 -0.1391
 3995TIP3    H211992   1.466   1.162   4.325 -0.0498 -0.8888  0.6645
 3996TIP3   OH211993   4.792   1.676   0.741 -0.1780 -0.4728  0.0783
 3996TIP3    H111994   4.737   1.717   0.674 -0.1261  0.6968  0.7257
 3996TIP3    H211995   4.876   1.721   0.735  0.0370 -0.8066  0.4977
 3997TIP3   OH211996   5.258   4.758   0.173  0.5033 -0.0247  0.1448
 3997TIP3    H111997   5.282   4.850   0.160 -1.1901  0.5058  0.4563
 3997TIP3    H211998   5.229   4.753   0.264  0.2971 -0.7981  0.0481
 3998TIP3   OH211999   6.125   5.704   0.895 -0.0682 -0.7172 -0.3163
 3998TIP3    H112000   6.186   5.661   0.956  0.3546  2.0889  1.4459
 3998TIP3    H212001   6.043   5.709   0.943 -0.4977 -0.7695 -1.0319
 3999TIP3   OH212002   2.468   1.166   3.287  0.2577 -0.6513 -0.4615
 3999TIP3    H112003   2.518   1.105   3.232  1.4801 -1.2087  1.1783
 3999TIP3    H212004   2.534   1.228   3.319 -0.6388  0.3696 -0.5646
 4000TIP3   OH212005   3.345   1.739   1.318  0.5050  0.1382  0.2781
 4000TIP3    H112006   3.410   1.668   1.318  0.4647  0.0984 -0.0073
 4000TIP3    H212007   3.294   1.725   1.238  1.8825  1.7456 -0.9512
 4001TIP3   OH212008   5.207   3.561   2.112  0.1910 -0.1927  0.3916
 4001TIP3    H112009   5.153   3.612   2.051  2.2853  2.8365  0.8330
 4001TIP3    H212010   5.144   3.507   2.160 -1.9695  0.3627 -1.6364
 4002TIP3   OH212011   5.381   2.932   4.779  0.0879  0.1966  0.6458
 4002TIP3    H112012   5.446   2.874   4.739  2.8336  2.8166  0.9706
 4002TIP3    H212013   5.317   2.948   4.710  1.3043 -0.2757 -0.6456
 4003TIP3   OH212014   5.446   5.581   4.182  0.2631  0.2000 -0.1834
 4003TIP3    H112015   5.486   5.576   4.095  1.0157  0.9420  0.1062
 4003TIP3    H212016   5.423   5.491   4.202 -0.4402  0.0841 -1.3820
 4004TIP3   OH212017   5.593   4.296   3.327 -0.2819  0.0399  0.2464
 4004TIP3    H112018   5.673   4.315   3.376  0.5214  0.2067 -1.0757
 4004TIP3    H212019   5.535   4.254   3.391  1.2012 -0.9121  1.0356
 4005TIP3   OH212020   6.220   3.479   4.956 -0.2239 -0.1867 -0.0600
 4005TIP3    H112021   6.190   3.493   5.046 -0.3346 -0.4059 -0.0623
 4005TIP3    H212022   6.302   3.528   4.951  0.1286 -0.7175  0.3627
 4006TIP3   OH212023   3.281   1.687   3.568 -0.2776  0.3423 -0.3248
 4006TIP3    H112024   3.211   1.623   3.578  1.2505 -1.4213 -0.4566
 4006TIP3    H212025   3.359   1.635   3.550  1.3153  2.1454  0.9845
 4007TIP3   OH212026   2.479   3.559   0.032 -0.2202  0.2612 -0.3311
 4007TIP3    H112027   2.520   3.583  -0.051 -0.0087  0.9162 -0.0502
 4007TIP3    H212028   2.552   3.561   0.095 -0.6415  1.3214  0.1535
 4008TIP3   OH212029   6.120   5.683   4.607 -0.0838  0.5076  0.1033
 4008TIP3    H112030   6.136   5.589   4.602  2.7198  0.8407  0.6480
 4008TIP3    H212031   6.207   5.721   4.626 -1.2877  3.1160  0.9223
 4009TIP3   OH212032   3.671   3.431   4.327 -0.4769 -0.0597 -0.9452
 4009TIP3    H112033   3.758   3.405   4.357 -0.5360  0.0513 -0.6723
 4009TIP3    H212034   3.611   3.376   4.378 -0.5953  0.4587 -0.5197
 4010TIP3   OH212035   3.604   0.012   2.689  0.0512  0.5135 -0.2595
 4010TIP3    H112036   3.532   0.044   2.635 -1.3799 -2.0627 -0.0275
 4010TIP3    H212037   3.682   0.022   2.634 -0.7723  1.4507 -1.3066
 4011TIP3   OH212038   3.247   2.863   0.330 -0.0608  0.5107  0.3527
 4011TIP3    H112039   3.159   2.848   0.296  0.5940 -0.3330 -1.0802
 4011TIP3    H212040   3.303   2.860   0.252  1.1497  1.7850  1.1435
 4012TIP3   OH212041   0.022   4.271   2.631  0.1027  0.2563  0.6172
 4012TIP3    H112042   0.042   4.364   2.646 -0.0994  0.6990 -1.5735
 4012TIP3    H212043  -0.035   4.247   2.704 -0.2420  1.9932  0.9543
 4013TIP3   OH212044   5.761   4.013   1.679 -0.2512  0.2076 -0.3093
 4013TIP3    H112045   5.800   4.099   1.664  0.6799 -0.4398 -1.8782
 4013TIP3    H212046   5.687   4.010   1.618 -0.5743  0.0789  0.0884
 4014TIP3   OH212047   1.723   1.431   0.381 -0.8203  0.1825 -0.6155
 4014TIP3    H112048   1.645   1.397   0.424 -1.1934  3.0845  1.3054
 4014TIP3    H212049   1.690   1.484   0.309 -0.7258  1.7096  0.4183
 4015TIP3   OH212050   0.149   2.663   3.326  0.6455  0.2157 -0.1102
 4015TIP3    H112051   0.191   2.714   3.395  0.4371  0.1694  0.0499
 4015TIP3    H212052   0.181   2.574   3.338 -0.0986  0.0240  0.4921
 4016TIP3   OH212053   4.929   5.912   3.371  0.0728  0.1312  0.0250
 4016TIP3    H112054   4.914   5.963   3.451  1.3014 -1.1664  1.1591
 4016TIP3    H212055   5.023   5.920   3.355  0.1220 -0.9482 -0.3176
 4017TIP3   OH212056   2.440   0.326   4.823  0.0533  0.2405 -0.0587
 4017TIP3    H112057   2.417   0.278   4.903 -0.4150  0.9557  0.2485
 4017TIP3    H212058   2.494   0.265   4.773  0.4302 -0.1838  0.8453
 4018TIP3   OH212059   0.465   4.064   1.581  0.6321  0.3217 -0.3483
 4018TIP3    H112060   0.510   3.986   1.549 -1.2570 -0.3078 -1.6376
 4018TIP3    H212061   0.422   4.036   1.662  2.0998  0.8000  0.6358
 4019TIP3   OH212062   0.082   0.750   2.431  0.2980 -0.8226  0.4575
 4019TIP3    H112063   0.052   0.772   2.520 -0.5126 -2.0019  0.5001
 4019TIP3    H212064   0.080   0.654   2.428  1.8374 -0.8651 -0.3365
 4020TIP3   OH212065   1.219   1.131   2.012 -0.1520 -0.3799 -0.0249
 4020TIP3    H112066   1.212   1.086   1.927 -0.0700  0.6128 -0.5747
 4020TIP3    H212067   1.134   1.173   2.024  0.2282  0.4527 -0.1846
 4021TIP3   OH212068   2.922   3.271   4.766 -0.0049  0.2682 -0.0812
 4021TIP3    H112069   2.965   3.334   4.709  1.1625  0.1399  0.6263
 4021TIP3    H212070   2.881   3.324   4.834  2.8594  0.2654  1.8099
 4022TIP3   OH212071   3.482   5.904   4.708 -0.3852 -0.1597  0.5884
 4022TIP3    H112072   3.420   5.859   4.765 -2.2432 -0.2270 -1.3596
 4022TIP3    H212073   3.461   5.997   4.717 -0.8699 -0.1883 -0.1427
 4023TIP3   OH212074   0.413   4.500   4.547 -0.1202  0.2034  0.5317
 4023TIP3    H112075   0.335   4.446   4.536  0.8981 -1.6803  1.9542
 4023TIP3    H212076   0.387   4.566   4.612 -0.7310  0.0428  0.4560
 4024TIP3   OH212077   1.914   4.587   1.861  0.6986 -0.0480 -0.0050
 4024TIP3    H112078   1.921   4.659   1.924 -0.0644  1.2022 -1.3047
 4024TIP3    H212079   1.982   4.525   1.889  1.8290  1.4529  0.7748
 4025TIP3   OH212080   4.087   0.079   4.531 -0.2015 -0.0648  0.2836
 4025TIP3    H112081   4.099  -0.009   4.496 -0.1313  0.0974 -0.1040
 4025TIP3    H212082   4.018   0.118   4.477 -0.7406 -0.1292  0.9152
 4026TIP3   OH212083   0.950   0.118   2.993 -0.2877  0.6920  0.0592
 4026TIP3    H112084   0.916   0.053   2.932 -1.6432  0.9887  0.4584
 4026TIP3    H212085   1.044   0.100   2.998 -0.5464 -0.8735 -0.2405
 4027TIP3   OH212086   3.113   0.247   4.636 -0.3140 -0.1377 -0.5322
 4027TIP3    H112087   3.068   0.322   4.596  1.1823  1.1190  0.0625
 4027TIP3    H212088   3.060   0.227   4.713 -1.1924 -0.2570 -1.1404
 4028TIP3   OH212089   1.068   5.507   3.450 -0.3613  0.3199 -0.6961
 4028TIP3    H112090   1.073   5.498   3.355 -0.0468  1.5449 -0.8042
 4028TIP3    H212091   1.044   5.419   3.480 -0.9822  0.0330 -1.9378
 4029TIP3   OH212092   1.375   2.154   4.698 -0.1802 -0.0838  0.0146
 4029TIP3    H112093   1.364   2.067   4.735 -0.1795  0.1885  0.6834
 4029TIP3    H212094   1.343   2.147   4.608  1.6475 -1.2556 -0.5992
 4030TIP3   OH212095   4.160   0.846   0.182  0.2761 -0.5187  0.0568
 4030TIP3    H112096   4.123   0.927   0.145 -1.2426 -1.4154 -0.4705
 4030TIP3    H212097   4.190   0.872   0.269  1.8351  1.1135 -0.8895
 4031TIP3   OH212098   1.080   3.798   0.194 -0.2395  0.1690 -0.1087
 4031TIP3    H112099   1.067   3.810   0.288  0.2731  0.4321 -0.0720
 4031TIP3    H212100   1.006   3.742   0.167 -1.9355  2.2393 -0.0650
 4032TIP3   OH212101   3.655   2.146   4.187 -0.5362  0.1629 -0.1122
 4032TIP3    H112102   3.736   2.196   4.199  0.0204 -0.6865 -0.2404
 4032TIP3    H212103   3.678   2.057   4.214 -1.1548 -0.3000 -1.0651
 4033TIP3   OH212104   5.866   5.249   0.774 -0.1528 -0.3254  0.3178
 4033TIP3    H112105   5.888   5.167   0.730  1.8602  0.2588  0.1739
 4033TIP3    H212106   5.928   5.255   0.847 -1.6773  0.0542  1.6490
 4034TIP3   OH212107   4.675   4.238   1.977 -0.3033  0.1188  0.2153
 4034TIP3    H112108   4.682   4.333   1.971 -1.4357  0.2212  0.4145
 4034TIP3    H212109   4.762   4.209   2.005 -0.2609  1.1883  1.2190
 4035TIP3   OH212110   0.673   4.747   3.187  0.3199  0.6101  0.5435
 4035TIP3    H112111   0.743   4.773   3.247  1.2119 -3.7900  1.7525
 4035TIP3    H212112   0.711   4.757   3.100  1.6494  0.4121  1.0770
 4036TIP3   OH212113   2.907   0.240   3.022  0.2675  0.3183 -0.4709
 4036TIP3    H112114   2.849   0.315   3.033  2.3723  1.9579  0.2178
 4036TIP3    H212115   2.848   0.165   3.010 -1.9786  1.7246  0.9619
 4037TIP3   OH212116   3.550   3.248   0.751  0.1902  0.0751  0.6882
 4037TIP3    H112117   3.598   3.292   0.681  1.7171 -2.8113 -0.2288
 4037TIP3    H212118   3.466   3.225   0.711 -0.0715  0.9001  0.7433
 4038TIP3   OH212119   2.533   1.627   2.758 -0.5462  0.3330 -0.5886
 4038TIP3    H112120   2.616   1.637   2.711 -0.8187  0.2019 -1.1122
 4038TIP3    H212121   2.467   1.623   2.688 -0.9948  0.4715 -0.1779
 4039TIP3   OH212122   3.541   1.296   2.968 -0.2720 -0.2644 -0.0191
 4039TIP3    H112123   3.482   1.231   2.930 -2.4461  1.2523  0.5516
 4039TIP3    H212124   3.515   1.301   3.060  0.3801  0.8349  0.1281
 4040TIP3   OH212125   3.128   3.926   1.080  0.5431 -0.3103  0.0521
 4040TIP3    H112126   3.151   3.938   0.988 -1.1738 -0.7707 -0.4686
 4040TIP3    H212127   3.191   3.860   1.112 -0.5508 -2.2551 -1.5779
 4041TIP3   OH212128   2.597   3.645   5.097  0.4884 -0.0854  0.1148
 4041TIP3    H112129   2.575   3.589   5.023 -1.1402  0.8027 -0.1012
 4041TIP3    H212130   2.522   3.637   5.156  0.2661  1.7895  0.1170
 4042TIP3   OH212131   5.590   4.495   0.177 -0.6372 -0.1161  0.0947
 4042TIP3    H112132   5.612   4.579   0.216  0.2361 -0.8445  1.2562
 4042TIP3    H212133   5.617   4.431   0.243  1.0084 -1.4342 -1.7566
 4043TIP3   OH212134   6.215   5.056   4.191 -0.2722 -0.0001  0.0454
 4043TIP3    H112135   6.130   5.045   4.234 -0.4982  0.3578 -0.3000
 4043TIP3    H212136   6.194   5.058   4.098 -0.0020  1.0582 -0.0062
 4044TIP3   OH212137   2.922   2.901   4.231 -0.2686 -0.5948 -0.1037
 4044TIP3    H112138   3.013   2.930   4.227  0.0991 -1.6387  0.5282
 4044TIP3    H212139   2.876   2.959   4.169  0.9102 -0.4111 -0.8375
 4045TIP3   OH212140   5.536   5.708   1.549 -0.3806  0.0400 -0.2511
 4045TIP3    H112141   5.585   5.761   1.612  2.5614 -1.1274 -1.3817
 4045TIP3    H212142   5.474   5.769   1.509  0.8408  1.8933  0.5439
 4046TIP3   OH212143   5.919   2.342   4.131  0.1947  0.0301  0.4810
 4046TIP3    H112144   5.933   2.256   4.091  0.3403  0.9470 -1.5681
 4046TIP3    H212145   6.006   2.379   4.137 -0.0445  0.8489 -0.6797
 4047TIP3   OH212146   0.619   3.575   3.422  0.9694 -0.2821  0.0388
 4047TIP3    H112147   0.549   3.630   3.386  0.3242 -1.5697 -0.7444
 4047TIP3    H212148   0.607   3.581   3.516 -0.9834 -1.4180 -0.0907
 4048TIP3   OH212149   5.755   0.380   0.667  0.0914  0.4947  0.3684
 4048TIP3    H112150   5.659   0.385   0.663  0.1582  2.0490  0.1794
 4048TIP3    H212151   5.780   0.330   0.590 -0.5379  0.5888  0.1029
 4049TIP3   OH212152   5.445   5.470   1.684 -0.6539 -0.0388 -0.3276
 4049TIP3    H112153   5.465   5.562   1.663  0.6775 -0.4655 -1.0242
 4049TIP3    H212154   5.530   5.432   1.706 -1.4057 -0.7448  1.4994
 4050TIP3   OH212155   4.012   4.913   0.462  0.2981  0.1359 -0.1320
 4050TIP3    H112156   3.976   4.826   0.444  0.1595  0.4089 -1.3083
 4050TIP3    H212157   4.001   4.925   0.556 -1.0436 -0.5161 -0.1801
 4051TIP3   OH212158   1.962   1.410   2.265  0.1253  0.8880 -0.5156
 4051TIP3    H112159   2.013   1.465   2.206 -0.0016  1.3470 -0.2014
 4051TIP3    H212160   1.985   1.320   2.240  0.3625  1.0825 -1.0037
 4052TIP3   OH212161   5.827   1.159   5.116  0.3357 -0.4964 -0.3506
 4052TIP3    H112162   5.826   1.108   5.197  0.3421 -1.7314 -1.0857
 4052TIP3    H212163   5.915   1.147   5.080 -0.0140 -0.9428 -1.1034
 4053TIP3   OH212164   3.351   3.562   1.778 -0.1422 -0.0143 -0.4235
 4053TIP3    H112165   3.439   3.556   1.815  0.5716 -0.8451 -2.1597
 4053TIP3    H212166   3.293   3.530   1.848  0.5778  2.8854  1.6992
 4054TIP3   OH212167   0.920   2.376   4.085 -0.0316 -0.3160  0.2912
 4054TIP3    H112168   0.944   2.378   3.993  0.0948 -2.3411  0.2278
 4054TIP3    H212169   0.861   2.451   4.097 -0.2650 -0.1853 -1.4789
 4055TIP3   OH212170   1.592   1.450   2.861 -0.1157 -0.0792  0.1219
 4055TIP3    H112171   1.519   1.419   2.915  0.4397  0.1542  1.0346
 4055TIP3    H212172   1.555   1.522   2.810 -0.2293  0.9251  1.5453
 4056TIP3   OH212173   6.158   4.916   2.247 -0.0071 -0.1227  0.1671
 4056TIP3    H112174   6.211   4.897   2.325  0.7805  0.9241 -0.0824
 4056TIP3    H212175   6.186   4.852   2.182 -0.4619 -0.8206  0.6446
 4057TIP3   OH212176   2.889   2.639   0.903  0.4043 -0.6427  0.1810
 4057TIP3    H112177   2.820   2.664   0.964  1.0017  1.4353  0.1126
 4057TIP3    H212178   2.855   2.665   0.817  1.4287  0.8980  0.2065
 4058TIP3   OH212179   5.704   3.325   0.664 -0.3071 -0.1927 -0.0425
 4058TIP3    H112180   5.778   3.381   0.641 -0.4618 -0.4405 -1.1559
 4058TIP3    H212181   5.646   3.382   0.715 -1.1589  1.1244 -2.3638
 4059TIP3   OH212182   3.009   0.953   1.529 -0.8843  0.2452 -0.0165
 4059TIP3    H112183   2.986   1.025   1.588 -0.1085  0.3065  0.2236
 4059TIP3    H212184   3.100   0.968   1.507 -0.8213 -0.4594 -0.2696
 4060TIP3   OH212185   1.607   3.054   1.086 -0.0715 -0.0872  0.8799
 4060TIP3    H112186   1.627   3.005   1.166  0.0145 -0.8368  0.4126
 4060TIP3    H212187   1.523   3.017   1.057  0.4863 -0.6661 -0.0198
 4061TIP3   OH212188   1.712   2.993   2.822 -0.4124 -0.7491  0.2687
 4061TIP3    H112189   1.637   3.051   2.807 -1.9387 -1.9476  2.7161
 4061TIP3    H212190   1.676   2.905   2.816  1.2304 -1.4205 -0.2923
 4062TIP3   OH212191   2.972   2.422   1.892 -0.4825  0.0815  0.4391
 4062TIP3    H112192   2.973   2.377   1.808 -3.3990  1.7289 -0.6075
 4062TIP3    H212193   2.968   2.351   1.957  1.1153 -1.1962 -0.7679
 4063TIP3   OH212194   5.358   4.300   1.936  0.1345  0.0089 -0.1018
 4063TIP3    H112195   5.431   4.277   1.993 -0.5348 -0.1751  0.7144
 4063TIP3    H212196   5.350   4.225   1.877 -0.4677 -0.7785  0.9329
 4064TIP3   OH212197   3.598   0.293   4.823 -0.5149 -0.1458  0.4867
 4064TIP3    H112198   3.504   0.306   4.808 -0.8755 -1.4299  1.3412
 4064TIP3    H212199   3.602   0.214   4.878  1.0096  0.5062  1.3802
 4065TIP3   OH212200   4.565   0.148   3.317  0.0183 -0.3075  0.1440
 4065TIP3    H112201   4.625   0.223   3.320 -0.9902  0.5993 -0.9581
 4065TIP3    H212202   4.609   0.084   3.261 -0.4533  0.8178 -1.6249
 4066TIP3   OH212203   3.372   1.238   0.526  0.0496  0.3464  0.8701
 4066TIP3    H112204   3.299   1.295   0.503  0.6987  1.2065  0.8888
 4066TIP3    H212205   3.382   1.248   0.621  0.3935  0.4771  0.8205
 4067TIP3   OH212206   1.157   1.958   1.504  0.3186 -0.2908 -0.3011
 4067TIP3    H112207   1.137   1.866   1.486  0.0480 -0.3109  0.0885
 4067TIP3    H212208   1.216   1.984   1.433  1.9021 -1.2889  0.5684
 4068TIP3   OH212209   5.803   3.147   1.604 -0.1857 -0.3335 -0.1882
 4068TIP3    H112210   5.870   3.198   1.650  0.6474 -1.2858 -0.2887
 4068TIP3    H212211   5.847   3.064   1.584 -1.4007 -0.9757 -0.2772
 4069TIP3   OH212212   1.709   5.473   2.528  0.2199  0.0776 -0.1345
 4069TIP3    H112213   1.663   5.412   2.470  1.3250 -1.7488  0.8173
 4069TIP3    H212214   1.784   5.502   2.476 -0.2193  0.5258 -0.5328
 4070TIP3   OH212215   4.516   5.768   0.866  0.1944 -0.1583 -0.6778
 4070TIP3    H112216   4.479   5.855   0.873  0.2393 -0.2783  2.1337
 4070TIP3    H212217   4.598   5.781   0.818  0.4558  1.4310  0.1401
 4071TIP3   OH212218   2.067   3.341   1.271 -0.3252 -0.1934 -0.4947
 4071TIP3    H112219   2.046   3.421   1.318  0.2162 -1.2480  1.6916
 4071TIP3    H212220   1.983   3.298   1.258 -0.6521  0.8571 -1.9739
 4072TIP3   OH212221   5.126   1.514   0.283  0.1162 -0.2539  0.0591
 4072TIP3    H112222   5.152   1.598   0.323 -1.5365  0.1112  0.4380
 4072TIP3    H212223   5.203   1.487   0.234 -0.2741  3.1484 -2.8754
 4073TIP3   OH212224   2.253   2.148   3.985 -0.5499 -0.3733  0.2439
 4073TIP3    H112225   2.245   2.071   4.041  0.7229 -0.2671  0.5988
 4073TIP3    H212226   2.214   2.121   3.902 -0.5645 -1.2251  0.5190
 4074TIP3   OH212227   1.967   0.055   4.589  0.6489  0.1866 -0.5304
 4074TIP3    H112228   2.030  -0.009   4.623 -0.4848  1.1944  4.2435
 4074TIP3    H212229   2.016   0.137   4.584  0.3658  0.4524  0.7662
 4075TIP3   OH212230   1.521   1.224   3.167 -0.4946 -0.4826 -0.2534
 4075TIP3    H112231   1.615   1.233   3.154 -0.4628  2.9666  1.2131
 4075TIP3    H212232   1.508   1.240   3.261 -2.6005  0.2097 -0.6060
 4076TIP3   OH212233   5.534   4.265   4.722 -0.0502 -0.6053  0.0838
 4076TIP3    H112234   5.608   4.230   4.673 -0.1331  1.7669 -1.8980
 4076TIP3    H212235   5.554   4.357   4.735 -2.8764  0.2670 -1.0433
 4077TIP3   OH212236   6.181   1.712   4.710  0.4764 -0.2612  0.5910
 4077TIP3    H112237   6.194   1.755   4.625 -2.0560  0.3353  0.4397
 4077TIP3    H212238   6.253   1.745   4.764 -0.9657  3.9148  0.3236
 4078TIP3   OH212239   3.803   2.868   1.272 -0.1222  0.0581  0.0357
 4078TIP3    H112240   3.807   2.934   1.203 -0.0755 -0.4670 -0.4843
 4078TIP3    H212241   3.754   2.796   1.232 -0.1532 -0.2274  0.5807
 4079TIP3   OH212242   6.008   2.813   0.121 -0.3508  0.2517  0.4002
 4079TIP3    H112243   6.033   2.749   0.054  0.9862  0.5717  0.5753
 4079TIP3    H212244   5.912   2.817   0.115 -0.2853  0.0404 -1.2685
 4080TIP3   OH212245   4.309   0.777   3.917 -0.2783 -0.1804 -0.1586
 4080TIP3    H112246   4.266   0.752   3.835 -0.3984 -0.5365  0.0104
 4080TIP3    H212247   4.236   0.791   3.978 -0.1762 -3.8648  1.0481
 4081TIP3   OH212248   5.188   4.068   1.345  0.2834  0.0828  0.4111
 4081TIP3    H112249   5.222   4.076   1.435 -0.8431 -2.9480  1.2177
 4081TIP3    H212250   5.251   4.010   1.301 -0.1925 -0.0105 -0.1573
 4082TIP3   OH212251   3.264   1.617   0.813  0.5539  0.0361  0.0473
 4082TIP3    H112252   3.302   1.661   0.738 -2.5787 -0.2706 -1.9127
 4082TIP3    H212253   3.207   1.683   0.854  0.4589 -0.4656  0.7515
 4083TIP3   OH212254   1.473   3.217   2.110 -0.0193 -0.0260 -0.0247
 4083TIP3    H112255   1.432   3.292   2.066 -0.1617  0.1554  0.4127
 4083TIP3    H212256   1.402   3.153   2.118 -0.2627  0.3326  0.8361
 4084TIP3   OH212257   2.577   1.664   1.371 -0.6518 -0.9170  0.7221
 4084TIP3    H112258   2.563   1.628   1.284  0.1467  0.4736 -0.0163
 4084TIP3    H212259   2.502   1.720   1.387  0.2866  0.6374 -0.0791
 4085TIP3   OH212260   1.891   2.070   3.974 -0.2182  0.6779  0.1326
 4085TIP3    H112261   1.834   2.064   3.897 -0.0823  0.1782  0.0682
 4085TIP3    H212262   1.975   2.100   3.939  0.0748 -0.3048 -0.0378
 4086TIP3   OH212263   2.129   1.063   4.908 -0.3208  0.1595  0.0812
 4086TIP3    H112264   2.135   1.159   4.910  1.0570  0.2467 -2.8776
 4086TIP3    H212265   2.210   1.033   4.951 -0.6218  0.3031  0.7625
 4087TIP3   OH212266   2.585   5.665   0.106  0.1267 -0.1256 -0.3515
 4087TIP3    H112267   2.616   5.594   0.050  0.3584 -1.0093  0.8728
 4087TIP3    H212268   2.496   5.640   0.129 -0.0428  0.3434 -0.4861
 4088TIP3   OH212269   3.806   4.738   3.243  0.2783  0.0299  0.0937
 4088TIP3    H112270   3.788   4.664   3.186 -0.8084 -0.1354  0.6222
 4088TIP3    H212271   3.730   4.743   3.300  0.7634  0.9813  0.6816
 4089TIP3   OH212272   0.759   2.075   3.666 -0.1772  0.8928  0.2619
 4089TIP3    H112273   0.689   2.140   3.659 -0.3912  0.5415 -0.9928
 4089TIP3    H212274   0.781   2.053   3.576  0.7457  0.1259  0.6572
 4090TIP3   OH212275   4.531   2.553   4.569  0.1957 -0.0148 -0.2833
 4090TIP3    H112276   4.474   2.592   4.503 -0.5523 -0.3323  0.1658
 4090TIP3    H212277   4.519   2.458   4.558 -2.3839 -0.1141  2.3206
 4091TIP3   OH212278   6.285   2.581   0.010  0.2990 -0.1684 -0.2522
 4091TIP3    H112279   6.192   2.565   0.000  0.4196 -0.5379 -0.8393
 4091TIP3    H212280   6.307   2.548   0.097 -0.0422 -0.4368 -0.2687
 4092TIP3   OH212281   6.122   2.002   2.329 -0.3307 -0.1340 -0.6979
 4092TIP3    H112282   6.167   2.022   2.411 -1.7533 -0.7435  0.2698
 4092TIP3    H212283   6.158   2.064   2.266  0.4653  0.6516  0.4987
 4093TIP3   OH212284   2.564   2.899   4.532 -0.5819  0.0450  0.4554
 4093TIP3    H112285   2.481   2.947   4.539 -0.4761  0.1833  0.7659
 4093TIP3    H212286   2.632   2.964   4.547 -0.3863  0.0589 -0.4237
 4094TIP3   OH212287   3.319   4.484   0.072 -0.0075  0.0615 -0.1416
 4094TIP3    H112288   3.393   4.454   0.126 -0.7100  0.9613  1.3652
 4094TIP3    H212289   3.267   4.405   0.059  0.3307 -0.2374  0.2441
 4095TIP3   OH212290   1.037   1.811   2.586 -0.5471 -0.3846  0.2534
 4095TIP3    H112291   1.044   1.905   2.604 -2.8205 -0.4406  1.8775
 4095TIP3    H212292   1.128   1.781   2.582  0.2958  2.0337 -1.5093
 4096TIP3   OH212293   1.513   0.626   0.276  0.3086 -0.0254 -0.2062
 4096TIP3    H112294   1.474   0.539   0.267 -1.9821  1.0364 -1.2308
 4096TIP3    H212295   1.600   0.616   0.237  0.0568 -1.8194 -0.4251
 4097TIP3   OH212296   1.688   3.126   3.056 -0.3669 -0.3081 -0.0728
 4097TIP3    H112297   1.730   3.058   3.004 -1.3728 -1.4343  0.5456
 4097TIP3    H212298   1.597   3.126   3.025 -0.8970 -0.7556  1.4160
 4098TIP3   OH212299   5.443   0.858   1.902  0.2835  0.2668 -0.4333
 4098TIP3    H112300   5.538   0.870   1.899  0.1747  1.3305 -0.2641
 4098TIP3    H212301   5.413   0.924   1.965 -0.6230  0.3402 -0.9253
 4099TIP3   OH212302   1.507   3.816   2.431  0.1715 -0.2688 -0.4977
 4099TIP3    H112303   1.471   3.867   2.504 -1.3277 -1.6310 -0.2236
 4099TIP3    H212304   1.556   3.880   2.379 -0.1957  1.0837  0.7535
 4100TIP3   OH212305   0.457   5.167   4.267 -0.3752  0.3065  0.6100
 4100TIP3    H112306   0.391   5.228   4.236 -0.6607  0.3814  1.3487
 4100TIP3    H212307   0.417   5.080   4.255 -0.6545  0.3569  1.1517
 4101TIP3   OH212308   0.755   5.693   3.034  0.1266 -1.3443  0.1030
 4101TIP3    H112309   0.662   5.714   3.041  0.5211  1.0575 -0.8699
 4101TIP3    H212310   0.770   5.680   2.940  1.4128  2.3124 -0.3609
 4102TIP3   OH212311   2.045   0.377   4.847 -0.3513 -0.4480  0.2232
 4102TIP3    H112312   2.038   0.473   4.845  0.1331 -0.4212 -1.4365
 4102TIP3    H212313   2.102   0.355   4.773  1.3198 -1.8993  1.8379
 4103TIP3   OH212314   3.552   4.390   0.193  0.4217 -0.3900 -0.0087
 4103TIP3    H112315   3.593   4.450   0.256 -0.9804  1.2621 -0.5724
 4103TIP3    H212316   3.525   4.314   0.245  1.9128 -0.3893  0.8030
 4104TIP3   OH212317   0.257   2.862   1.127  0.0977 -0.2226 -0.2824
 4104TIP3    H112318   0.297   2.806   1.193 -0.8456  0.9969  1.4037
 4104TIP3    H212319   0.326   2.925   1.103 -0.4722  1.4486  2.1120
 4105TIP3   OH212320   2.065   2.218   0.462  0.6041 -0.5887  0.1654
 4105TIP3    H112321   2.081   2.311   0.447 -0.1567 -0.4006  0.4607
 4105TIP3    H212322   1.971   2.208   0.445  0.3558 -0.9833  1.7079
 4106TIP3   OH212323   3.574   5.896   3.560  0.0731 -0.1567  0.3654
 4106TIP3    H112324   3.657   5.933   3.589 -0.1466  2.1661 -1.6396
 4106TIP3    H212325   3.598   5.829   3.496  0.4536  1.3187 -1.0880
 4107TIP3   OH212326   2.849   3.402   2.853  0.2900 -0.1607  0.2153
 4107TIP3    H112327   2.928   3.389   2.905  0.4603 -0.2438 -0.0649
 4107TIP3    H212328   2.880   3.410   2.763  0.1684  1.7016  0.3017
 4108TIP3   OH212329   4.331   5.190   3.361 -0.4594  0.5457 -0.3618
 4108TIP3    H112330   4.271   5.231   3.423 -0.2870  0.0567  0.1313
 4108TIP3    H212331   4.277   5.173   3.284 -0.8873  0.3645 -0.0246
 4109TIP3   OH212332   6.279   5.416   0.236 -0.1116 -0.6795 -0.1905
 4109TIP3    H112333   6.314   5.469   0.164 -2.3823  2.2131  0.6243
 4109TIP3    H212334   6.224   5.351   0.193  0.6641 -0.7372 -1.1358
 4110TIP3   OH212335   0.946   2.090   0.394  0.6026  0.4374 -0.2162
 4110TIP3    H112336   0.938   2.177   0.354  0.6380  0.0208 -1.1637
 4110TIP3    H212337   0.856   2.065   0.415  0.5400  0.4788 -0.4340
 4111TIP3   OH212338   0.267   5.626   2.535  0.2470 -0.1058 -1.1440
 4111TIP3    H112339   0.179   5.593   2.518 -0.4500 -0.1959  2.0664
 4111TIP3    H212340   0.325   5.557   2.504 -1.0578 -2.6552  1.5477
 4112TIP3   OH212341   0.362   2.398   0.198 -0.1444 -0.2864  0.0582
 4112TIP3    H112342   0.267   2.393   0.209 -0.0609  1.1703  1.8818
 4112TIP3    H212343   0.375   2.466   0.133 -0.3460 -0.2830  0.0214
 4113TIP3   OH212344   4.412   2.748   3.617 -0.1864 -0.1226  0.2220
 4113TIP3    H112345   4.383   2.711   3.534  2.6336 -1.7909 -0.1611
 4113TIP3    H212346   4.431   2.672   3.672 -0.4024  0.9163  1.8047
 4114TIP3   OH212347   3.158   3.478   0.510  0.6433 -0.1730  0.1207
 4114TIP3    H112348   3.171   3.540   0.582  2.4019  1.2075 -1.3065
 4114TIP3    H212349   3.160   3.392   0.553 -1.9917  0.6253  2.1710
 4115TIP3   OH212350   5.080   4.178   1.846  0.4879  0.3744 -0.2050
 4115TIP3    H112351   5.132   4.102   1.821  1.1508  0.5122  0.7334
 4115TIP3    H212352   5.129   4.253   1.813 -0.2244  0.4180 -1.2366
 4116TIP3   OH212353   4.255   5.694   0.505 -0.0694  0.7372 -0.2964
 4116TIP3    H112354   4.219   5.610   0.533 -1.6601  1.4760 -0.0694
 4116TIP3    H212355   4.342   5.697   0.545  0.1338 -0.9220 -0.5631
 4117TIP3   OH212356   5.005   3.546   4.248 -0.7674  0.4926 -0.2307
 4117TIP3    H112357   4.991   3.639   4.268  0.8668  1.0369 -1.4092
 4117TIP3    H212358   4.952   3.500   4.313 -2.0039  2.2422  0.0869
 4118TIP3   OH212359   2.904   4.985   4.336  0.5721 -0.2671  0.6514
 4118TIP3    H112360   2.821   5.026   4.315  0.7420 -0.9736 -1.7396
 4118TIP3    H212361   2.956   5.054   4.377 -0.1267  1.0828 -0.6749
 4119TIP3   OH212362   3.538   2.513   3.743 -1.1378  0.0780 -0.3663
 4119TIP3    H112363   3.522   2.422   3.770 -1.7860  0.2151 -0.2707
 4119TIP3    H212364   3.466   2.562   3.781  0.9023  1.1977  2.3584
 4120TIP3   OH212365   3.405   0.770   4.045 -0.0100 -0.2670  0.4198
 4120TIP3    H112366   3.372   0.801   4.130  1.6983 -0.2217  1.1155
 4120TIP3    H212367   3.407   0.675   4.053 -0.3693 -0.2968  0.2046
 4121TIP3   OH212368   0.721   5.359   2.003  0.0738 -0.2191 -0.3991
 4121TIP3    H112369   0.688   5.384   1.917 -0.3283  0.4323 -0.0651
 4121TIP3    H212370   0.642   5.351   2.057  0.3393 -0.3807 -0.0353
 4122TIP3   OH212371   1.756   4.133   3.285 -0.4081  0.2144  0.0239
 4122TIP3    H112372   1.842   4.116   3.325 -0.2092  1.4365  0.1767
 4122TIP3    H212373   1.701   4.059   3.312 -0.0975  0.6632  2.0288
 4123TIP3   OH212374   0.254   1.329   2.334 -0.1767 -0.1566 -0.1789
 4123TIP3    H112375   0.273   1.265   2.403 -0.1680 -0.9413 -0.8959
 4123TIP3    H212376   0.181   1.381   2.369 -0.1953 -0.5711  0.4029
 4124TIP3   OH212377   1.675   1.860   3.459 -0.2701  0.2674 -0.0736
 4124TIP3    H112378   1.679   1.941   3.408  0.5715 -0.0230 -0.4881
 4124TIP3    H212379   1.743   1.804   3.420 -1.2307 -0.8621 -0.1857
 4125TIP3   OH212380   2.497   1.594   1.125  0.0979  0.4792 -0.2792
 4125TIP3    H112381   2.531   1.586   1.036  1.6370 -1.4037  0.4098
 4125TIP3    H212382   2.442   1.673   1.123 -0.2915  0.2332 -2.9852
 4126TIP3   OH212383   3.043   1.981   1.527  0.8404  0.2569 -0.2905
 4126TIP3    H112384   3.005   2.020   1.606  0.4984  0.6019 -0.6222
 4126TIP3    H212385   3.096   2.051   1.488  1.5011 -0.0954 -0.0492
 4127TIP3   OH212386   3.741   1.594   0.963  0.1684  0.6705  0.4434
 4127TIP3    H112387   3.682   1.668   0.971  0.3760  0.7820  0.9928
 4127TIP3    H212388   3.739   1.552   1.050  0.3345  0.2553  0.2499
 4128TIP3   OH212389   1.479   4.104   2.043  0.0072 -0.1173  0.1423
 4128TIP3    H112390   1.506   4.099   2.135  1.1638  0.5035 -0.1390
 4128TIP3    H212391   1.399   4.051   2.038  0.6848 -1.2928  1.2161
 4129TIP3   OH212392   0.588   2.869   5.087 -0.2697 -0.3651  0.0486
 4129TIP3    H112393   0.554   2.843   5.173  0.3984  0.5402  0.6179
 4129TIP3    H212394   0.529   2.939   5.058 -0.7690 -0.9888 -0.4535
 4130TIP3   OH212395   3.839   4.709   0.438  0.0535 -0.2649 -0.7258
 4130TIP3    H112396   3.862   4.651   0.511 -0.1731 -0.0169 -0.4529
 4130TIP3    H212397   3.761   4.669   0.399  1.8013 -2.0003 -2.6634
 4131TIP3   OH212398   2.385   5.510   2.252 -0.3119  0.2056 -0.2632
 4131TIP3    H112399   2.371   5.418   2.230  0.3256 -0.1486  0.7316
 4131TIP3    H212400   2.297   5.542   2.276 -0.2094 -0.8627  1.8627
 4132TIP3   OH212401   5.188   0.568   4.139  0.5007 -0.2087 -0.7674
 4132TIP3    H112402   5.158   0.645   4.187  0.1212 -0.7927 -0.0377
 4132TIP3    H212403   5.151   0.576   4.052  1.3542  0.9769 -1.0435
 4133TIP3   OH212404   5.097   4.310   2.954 -0.0123  0.3680 -0.3831
 4133TIP3    H112405   5.003   4.330   2.955  0.1968  1.3947 -0.0416
 4133TIP3    H212406   5.105   4.239   2.890 -1.1963 -0.7601  0.6575
 4134TIP3   OH212407   3.406   0.876   3.380 -0.6910  0.6810 -0.8108
 4134TIP3    H112408   3.486   0.928   3.377  0.0965 -0.5192 -1.6005
 4134TIP3    H212409   3.426   0.805   3.442 -1.5439  1.0023 -0.1621
 4135TIP3   OH212410   4.023   1.697   1.796  0.2917  0.3832 -0.5225
 4135TIP3    H112411   3.997   1.787   1.779  0.6222 -0.0508 -4.0679
 4135TIP3    H212412   4.107   1.686   1.751  0.8661 -1.3927  0.8402
 4136TIP3   OH212413   1.981   5.859   2.273  0.2624 -0.7534  0.0807
 4136TIP3    H112414   1.913   5.885   2.336 -0.5298 -1.7738 -0.3277
 4136TIP3    H212415   1.994   5.937   2.220 -0.4940 -0.4933  0.2563
 4137TIP3   OH212416   5.841   2.775   4.052  0.1194 -0.0814  0.2402
 4137TIP3    H112417   5.814   2.866   4.069  0.0148  0.0612 -0.6407
 4137TIP3    H212418   5.889   2.750   4.131 -1.9599 -0.1162  1.5888
 4138TIP3   OH212419   5.741   4.092   1.184  0.0491 -0.1298  0.2624
 4138TIP3    H112420   5.672   4.094   1.117 -1.0846 -0.0779  1.4045
 4138TIP3    H212421   5.778   4.004   1.177  0.4453  0.1000 -0.8910
 4139TIP3   OH212422   4.646   1.144   1.062 -0.3641 -0.4547  0.1733
 4139TIP3    H112423   4.643   1.226   1.111 -2.4537 -0.9071  0.8852
 4139TIP3    H212424   4.622   1.168   0.973  1.3417  0.0241 -0.2077
 4140TIP3   OH212425   3.483   2.095   1.267  0.3660  0.0867  0.3004
 4140TIP3    H112426   3.534   2.175   1.277  0.2009 -0.0016  2.2296
 4140TIP3    H212427   3.520   2.035   1.332 -0.0109 -1.1493 -0.5913
 4141TIP3   OH212428   4.011   5.571   3.561 -0.2756  0.0965 -0.1101
 4141TIP3    H112429   4.020   5.629   3.485  0.5082  2.6823  1.7921
 4141TIP3    H212430   4.097   5.529   3.569 -1.1285 -2.2955 -2.0638
 4142TIP3   OH212431   2.618   1.966   0.301  0.4340  0.4190 -0.0837
 4142TIP3    H112432   2.612   2.026   0.226  1.1257 -0.0570 -0.5320
 4142TIP3    H212433   2.641   1.881   0.262  1.1934  0.2495  0.6940
 4143TIP3   OH212434   1.436   5.532   1.190 -0.0518 -0.3029 -0.3709
 4143TIP3    H112435   1.481   5.588   1.127 -0.8627  0.2027 -0.5238
 4143TIP3    H212436   1.357   5.503   1.143 -0.6580  0.0703  0.3959
 4144TIP3   OH212437   1.861   1.554   5.090 -0.1110  0.4208 -0.2739
 4144TIP3    H112438   1.907   1.618   5.145  0.0169  0.1328 -0.0375
 4144TIP3    H212439   1.849   1.478   5.148  1.9710 -0.7372 -1.2591
 4145TIP3   OH212440   0.820   0.217   3.908  0.4256 -0.4509 -1.4231
 4145TIP3    H112441   0.849   0.126   3.903  0.6830 -0.4949  0.3131
 4145TIP3    H212442   0.741   0.214   3.961  0.2976  0.3109 -1.5619
 4146TIP3   OH212443   6.046   3.179   2.172 -0.3275  0.7684 -0.1859
 4146TIP3    H112444   5.990   3.102   2.182 -0.4527  0.9890  0.9333
 4146TIP3    H212445   6.019   3.217   2.088 -0.3527 -0.3179 -0.6986
 4147TIP3   OH212446   2.227   3.898   2.648  0.0957 -0.5485  0.2885
 4147TIP3    H112447   2.187   3.910   2.735 -3.0149  1.0974 -1.2152
 4147TIP3    H212448   2.253   3.987   2.622 -2.1059 -0.4071 -1.7314
 4148TIP3   OH212449   2.821   3.502   2.254 -0.0057  0.1015 -0.3187
 4148TIP3    H112450   2.839   3.587   2.213 -0.0141  0.7827  1.0514
 4148TIP3    H212451   2.908   3.464   2.269 -0.0144 -0.6509 -1.8989
 4149TIP3   OH212452   4.744   1.184   2.484 -0.0590 -0.3226  0.1580
 4149TIP3    H112453   4.785   1.269   2.498  1.8844 -0.9941 -0.9437
 4149TIP3    H212454   4.671   1.181   2.545  0.4565  1.7111  0.9422
 4150TIP3   OH212455   0.494   1.451   2.259  0.1851  0.0778 -0.0451
 4150TIP3    H112456   0.489   1.441   2.164  1.3524 -4.6437  0.1739
 4150TIP3    H212457   0.410   1.420   2.291  0.2331  0.5288  0.5394
 4151TIP3   OH212458   1.041   4.388   2.957 -0.2318  0.2809  0.0001
 4151TIP3    H112459   1.072   4.305   2.994  0.6828 -0.1648 -1.6370
 4151TIP3    H212460   1.009   4.438   3.032  2.0104 -0.3307  1.4806
 4152TIP3   OH212461   5.354   4.438   1.136  0.2901  0.1603  0.7263
 4152TIP3    H112462   5.268   4.407   1.167 -0.1629  1.5865  0.9749
 4152TIP3    H212463   5.371   4.386   1.058 -1.0781  0.2320  0.3441
 4153TIP3   OH212464   0.667   1.882   4.873 -0.0068  0.1186  0.7701
 4153TIP3    H112465   0.579   1.882   4.836  0.1359  0.6857  0.4228
 4153TIP3    H212466   0.672   1.963   4.924  0.7630  0.7814 -0.3140
 4154TIP3   OH212467   1.455   0.977   2.029 -0.2251 -0.8615 -0.2811
 4154TIP3    H112468   1.365   1.006   2.042  0.2692  2.0149 -2.1781
 4154TIP3    H212469   1.507   1.034   2.087  0.5326 -0.4519 -1.3233
 4155TIP3   OH212470   3.271   5.171   0.186  0.7753  0.8439  0.0326
 4155TIP3    H112471   3.317   5.100   0.232  1.2986  1.2818  0.1946
 4155TIP3    H212472   3.313   5.174   0.100  0.7582  0.9652  0.0291
 4156TIP3   OH212473   2.698   0.770   1.443 -0.3799  0.3598  0.2549
 4156TIP3    H112474   2.783   0.761   1.399 -0.3609  0.6921  0.2182
 4156TIP3    H212475   2.646   0.824   1.384 -1.0052 -0.7720 -0.2519
 4157TIP3   OH212476   4.908   4.134   2.063 -0.9054  0.2018 -0.3438
 4157TIP3    H112477   4.963   4.143   1.985  2.2524  0.2016  1.6999
 4157TIP3    H212478   4.892   4.040   2.069 -3.1805  0.3738 -2.1238
 4158TIP3   OH212479   1.148   0.412   3.239 -0.0452 -0.0974  0.1406
 4158TIP3    H112480   1.174   0.426   3.330  1.3070 -1.0721 -0.0759
 4158TIP3    H212481   1.061   0.373   3.245  1.0364 -2.5176  1.1488
 4159TIP3   OH212482   0.279   4.717   1.272  0.0486 -0.1642  0.2548
 4159TIP3    H112483   0.371   4.696   1.285 -0.1576 -0.3494  1.5141
 4159TIP3    H212484   0.280   4.802   1.229  0.8097 -0.0645  0.4532
 4160TIP3   OH212485   4.337   3.991   4.788  0.0055  0.2963 -0.0944
 4160TIP3    H112486   4.289   3.909   4.785 -0.2270  0.4203  0.1806
 4160TIP3    H212487   4.271   4.059   4.775  0.2913  0.4162 -0.9780
 4161TIP3   OH212488   6.034   0.657   4.271 -0.0483  0.0153 -0.1229
 4161TIP3    H112489   6.108   0.626   4.323 -1.5783 -2.3815  0.7721
 4161TIP3    H212490   6.056   0.630   4.181  1.2241  1.4886 -0.2884
 4162TIP3   OH212491   0.996   5.287   3.613  0.1477  0.2106 -0.1420
 4162TIP3    H112492   0.974   5.330   3.696  2.5734  1.1784  0.0697
 4162TIP3    H212493   0.911   5.258   3.578 -0.9610 -0.0705  2.5538
 4163TIP3   OH212494   4.220   3.917   1.547 -0.7790 -0.4321 -1.0305
 4163TIP3    H112495   4.244   3.931   1.639 -1.0053 -0.9816 -0.8832
 4163TIP3    H212496   4.126   3.930   1.544 -0.4463  2.5664 -1.7745
 4164TIP3   OH212497   0.652   0.966   3.172  0.0981 -0.0732 -0.2989
 4164TIP3    H112498   0.739   0.985   3.205 -0.1898 -0.8924  1.0610
 4164TIP3    H212499   0.665   0.896   3.108  0.4230 -0.5785  0.2945
 4165TIP3   OH212500   1.400   0.401   0.624  0.1587  0.4978  0.9538
 4165TIP3    H112501   1.470   0.462   0.604 -0.7943  1.7377  1.2438
 4165TIP3    H212502   1.320   0.454   0.618 -0.7159 -0.7716  1.0293
 4166TIP3   OH212503   3.619   4.171   0.013  0.2344 -0.3102 -1.0310
 4166TIP3    H112504   3.672   4.108   0.062 -0.9444 -0.5401  0.0065
 4166TIP3    H212505   3.588   4.233   0.079 -0.2076  0.2274 -1.7242
 4167TIP3   OH212506   1.746   3.165   4.489  0.0114 -0.0525  0.0325
 4167TIP3    H112507   1.742   3.157   4.393 -0.9543 -0.1846  0.0773
 4167TIP3    H212508   1.684   3.099   4.521 -0.5474  0.7855  0.7145
 4168TIP3   OH212509   5.259   3.965   0.039  0.0947  0.3359 -0.1564
 4168TIP3    H112510   5.263   3.924  -0.048 -1.3560 -1.5457  0.5718
 4168TIP3    H212511   5.264   3.891   0.099 -2.7087  1.1658  1.2682
 4169TIP3   OH212512   6.335   5.601   4.854 -0.0656  0.0656  0.1619
 4169TIP3    H112513   6.271   5.616   4.923  0.6032 -0.1041  0.8242
 4169TIP3    H212514   6.371   5.687   4.835  1.7729 -0.2333  2.0187
 4170TIP3   OH212515   5.164   1.075   0.533 -0.3108  0.4161  0.0068
 4170TIP3    H112516   5.229   1.008   0.556  1.1568  1.0338 -2.0626
 4170TIP3    H212517   5.150   1.063   0.439 -0.8859  2.2596 -0.1670
 4171TIP3   OH212518   3.239   0.511   1.700 -0.0583  0.9789 -0.5245
 4171TIP3    H112519   3.318   0.534   1.750 -0.2228  1.1501 -0.3408
 4171TIP3    H212520   3.168   0.520   1.763  0.0857 -2.7489  0.3904
 4172TIP3   OH212521   6.318   3.541   3.064 -0.2566 -0.2081 -0.2256
 4172TIP3    H112522   6.361   3.615   3.022 -0.2991 -0.7559 -1.2675
 4172TIP3    H212523   6.252   3.581   3.121  1.2911  0.6200  1.0615
 4173TIP3   OH212524   2.812   5.224   2.220  0.1700 -0.2085 -0.0519
 4173TIP3    H112525   2.771   5.141   2.242  0.6921 -0.6705 -0.7745
 4173TIP3    H212526   2.754   5.262   2.153  0.7328 -0.7075 -0.8323
 4174TIP3   OH212527   1.493   1.190   2.195 -0.0213 -0.0772 -0.3092
 4174TIP3    H112528   1.576   1.237   2.198 -0.8099  1.4523 -1.2225
 4174TIP3    H212529   1.426   1.259   2.198 -1.3216 -1.3331  1.8550
 4175TIP3   OH212530   5.748   2.521   4.048  0.1860 -0.2188 -0.0963
 4175TIP3    H112531   5.834   2.490   4.077  0.7087  0.8091 -0.5074
 4175TIP3    H212532   5.754   2.617   4.051 -0.7777 -0.1255 -0.6272
 4176TIP3   OH212533   0.278   0.709   0.094 -0.4605  0.0553  0.0526
 4176TIP3    H112534   0.255   0.721   0.186 -1.1243  0.7115 -0.1936
 4176TIP3    H212535   0.201   0.669   0.055 -0.1677 -0.2526 -0.2195
 4177TIP3   OH212536   2.074   1.828   0.063 -0.2711  0.0735 -0.0675
 4177TIP3    H112537   2.010   1.841  -0.007 -1.4941  0.3013  1.0456
 4177TIP3    H212538   2.121   1.911   0.068  0.8480 -0.4312 -1.5669
 4178TIP3   OH212539   3.506   2.241   3.895 -0.2892 -0.4764  0.5690
 4178TIP3    H112540   3.505   2.161   3.842 -0.3943 -0.4551  0.5395
 4178TIP3    H212541   3.422   2.241   3.941 -1.1078  0.5670 -0.8484
 4179TIP3   OH212542   2.356   4.155   2.640 -0.8411  0.2225 -0.4101
 4179TIP3    H112543   2.447   4.180   2.622 -0.1385 -2.0266 -0.2528
 4179TIP3    H212544   2.305   4.204   2.575  0.4195  1.7653 -0.3014
 4180TIP3   OH212545   2.970   1.130   1.724 -0.2470  0.2868 -0.4493
 4180TIP3    H112546   2.961   1.160   1.815 -1.4780 -0.2590 -0.3670
 4180TIP3    H212547   2.962   1.210   1.672  2.8640  0.9801 -0.0558
 4181TIP3   OH212548   2.144   0.598   1.767  0.0743 -0.6228 -0.1746
 4181TIP3    H112549   2.161   0.686   1.801  0.2849 -0.4817 -0.6454
 4181TIP3    H212550   2.049   0.591   1.763  0.0581 -0.4297 -0.1094
 4182TIP3   OH212551   3.599   2.917   3.072 -0.1689 -0.2382 -0.4000
 4182TIP3    H112552   3.610   2.854   3.001  0.3424  0.3001 -0.8068
 4182TIP3    H212553   3.619   3.001   3.032 -0.1553  0.1003  0.3157
 4183TIP3   OH212554   0.193   1.802   3.291  0.3693 -0.1711 -0.1147
 4183TIP3    H112555   0.192   1.751   3.372 -0.2137 -0.1866 -0.1256
 4183TIP3    H212556   0.103   1.833   3.281  0.1591 -1.1147 -1.3531
 4184TIP3   OH212557   0.759   0.080   4.555  0.0315 -0.0904  0.2030
 4184TIP3    H112558   0.742   0.038   4.471 -0.3532 -4.3911  2.1779
 4184TIP3    H212559   0.853   0.072   4.569  0.2478  1.4800 -0.1433
 4185TIP3   OH212560   1.451   5.097   3.275  0.2724 -0.2986 -0.7489
 4185TIP3    H112561   1.393   5.117   3.201 -0.5203 -1.5469 -0.5001
 4185TIP3    H212562   1.395   5.102   3.352  0.6169 -0.9542 -0.4456
 4186TIP3   OH212563   6.186   3.105   0.485 -0.0906  0.2752 -0.2318
 4186TIP3    H112564   6.262   3.145   0.443 -0.4914  1.6664  0.3272
 4186TIP3    H212565   6.126   3.087   0.412  0.5750 -0.4298 -0.6240
 4187TIP3   OH212566   4.903   3.168   3.642  0.1656  0.3254 -0.3164
 4187TIP3    H112567   4.906   3.114   3.720  0.7116  0.0347 -0.5359
 4187TIP3    H212568   4.930   3.255   3.671 -0.1813  0.3564 -0.0754
 4188TIP3   OH212569   1.372   5.105   1.890  0.6502  0.0785 -0.4522
 4188TIP3    H112570   1.397   5.092   1.981 -0.1115 -0.0100 -0.2479
 4188TIP3    H212571   1.289   5.058   1.880 -0.8998  2.5532 -0.3642
 4189TIP3   OH212572   5.819   1.828   4.289  0.5941 -0.5207 -0.4222
 4189TIP3    H112573   5.782   1.815   4.202 -1.0452  1.2159 -0.0836
 4189TIP3    H212574   5.800   1.920   4.309  1.0087 -0.8388  1.7191
 4190TIP3   OH212575   5.901   0.999   4.678 -0.3155 -0.7705  0.1570
 4190TIP3    H112576   5.904   0.953   4.594  1.7910 -0.4887  0.0110
 4190TIP3    H212577   5.836   1.068   4.665  1.5185  0.6834 -2.0612
 4191TIP3   OH212578   1.824   2.660   0.871 -0.7397  0.4320  0.7001
 4191TIP3    H112579   1.877   2.662   0.951 -0.7933 -0.9424  0.7927
 4191TIP3    H212580   1.877   2.706   0.806 -1.3554  2.9790  1.8678
 4192TIP3   OH212581   2.499   3.200   3.634  0.6736  0.0538  0.4551
 4192TIP3    H112582   2.483   3.165   3.546 -2.1851  0.7060  0.6119
 4192TIP3    H212583   2.577   3.154   3.665  0.8616 -1.2969 -1.8144
 4193TIP3   OH212584   0.881   0.254   3.212  0.3310 -0.1408  0.1495
 4193TIP3    H112585   0.907   0.200   3.138  1.0004 -0.9659  0.9593
 4193TIP3    H212586   0.790   0.277   3.195  0.3162 -0.7768 -0.6527
 4194TIP3   OH212587   4.769   4.879   4.956 -0.4478  0.0664  0.1011
 4194TIP3    H112588   4.769   4.961   4.907 -1.0738  1.0990  1.7276
 4194TIP3    H212589   4.702   4.825   4.915  0.1391  0.2538 -1.1389
 4195TIP3   OH212590   3.072   4.149   4.649  0.4463  0.2377  0.2717
 4195TIP3    H112591   3.115   4.129   4.566  1.3544  1.5742  0.3906
 4195TIP3    H212592   3.004   4.212   4.626 -1.4807 -1.7736  0.1025
 4196TIP3   OH212593   3.273   5.571   2.775 -0.4230 -0.0527  0.4429
 4196TIP3    H112594   3.223   5.610   2.703 -0.7790  0.8366  1.1601
 4196TIP3    H212595   3.223   5.493   2.799 -1.3555  0.7085  1.0096
 4197TIP3   OH212596   3.255   3.501   0.258 -0.4797 -0.6564  0.3639
 4197TIP3    H112597   3.192   3.537   0.196  0.7515  0.1230 -0.5021
 4197TIP3    H212598   3.215   3.512   0.344 -1.0042  0.9530 -0.0559
 4198TIP3   OH212599   0.366   3.770  -0.012  0.1842  0.1349  0.4260
 4198TIP3    H112600   0.380   3.712   0.062  0.1152 -1.0219 -0.4443
 4198TIP3    H212601   0.445   3.824  -0.016 -0.2200  0.8896  1.9081
 4199TIP3   OH212602   0.407   4.964   4.713  0.0643  0.0857 -0.6593
 4199TIP3    H112603   0.360   4.979   4.795  0.0745 -0.7886 -0.4811
 4199TIP3    H212604   0.437   4.873   4.719  2.9576  0.9727 -0.1898
 4200TIP3   OH212605   5.796   0.001   3.990 -0.3142  0.0475 -0.1381
 4200TIP3    H112606   5.799   0.089   3.954 -0.9294  1.0756  2.1946
 4200TIP3    H212607   5.888  -0.026   3.995 -0.0952  0.7100 -0.4978
 4201TIP3   OH212608   3.415   4.955   1.908 -1.1032  0.2502 -0.7392
 4201TIP3    H112609   3.490   4.965   1.849 -0.6663  0.5954 -0.1395
 4201TIP3    H212610   3.432   5.018   1.978 -2.0783  0.5002 -0.7175
 4202TIP3   OH212611   3.666   5.762   0.737  0.0865 -0.5033  0.2535
 4202TIP3    H112612   3.737   5.742   0.676  0.7143  1.7369  0.1474
 4202TIP3    H212613   3.709   5.768   0.822 -0.0827  0.0733  0.3073
 4203TIP3   OH212614   5.966   3.703   1.357 -0.3873  0.3994 -0.3161
 4203TIP3    H112615   5.913   3.728   1.433 -0.2635  1.1915 -0.4896
 4203TIP3    H212616   6.015   3.782   1.334 -1.6216  0.6729 -2.2305
 4204TIP3   OH212617   5.106   4.385   5.094  0.6666 -0.4471  0.3349
 4204TIP3    H112618   5.134   4.320   5.030  1.5641  2.1930 -2.2111
 4204TIP3    H212619   5.187   4.421   5.130  0.2687  0.3177  0.5125
 4205TIP3   OH212620   1.058   0.195   0.819 -0.0404  0.3367  0.2081
 4205TIP3    H112621   1.051   0.168   0.727 -1.8200 -0.2033  0.4601
 4205TIP3    H212622   1.029   0.286   0.820 -1.5798 -0.1384  0.4373
 4206TIP3   OH212623   4.079   5.784   3.409  0.2514 -0.3846 -0.0836
 4206TIP3    H112624   4.033   5.755   3.330 -1.0012  0.6860  0.2152
 4206TIP3    H212625   4.136   5.854   3.379 -2.6127  2.3620  0.3326
 4207TIP3   OH212626   0.997   5.487   0.363  0.4252  0.4560 -0.0098
 4207TIP3    H112627   0.908   5.474   0.329  0.9754 -0.3150 -1.2075
 4207TIP3    H212628   1.048   5.513   0.287  2.4266 -4.4766 -0.7137
 4208TIP3   OH212629   1.894   2.927   0.731  0.0051  0.3759 -0.2910
 4208TIP3    H112630   1.962   2.953   0.668 -0.2898  1.5635 -0.1595
 4208TIP3    H212631   1.901   2.992   0.801  0.6728 -1.2197  1.1990
 4209TIP3   OH212632   1.282   4.676   4.677 -0.2305 -0.0389 -0.5034
 4209TIP3    H112633   1.258   4.693   4.586  0.9290  1.7448 -0.5303
 4209TIP3    H212634   1.260   4.757   4.724 -0.2845 -0.7206  0.7008
 4210TIP3   OH212635   5.282   1.388   3.967  0.3443 -0.2260 -0.3282
 4210TIP3    H112636   5.263   1.456   4.032  0.3606 -0.0460 -0.5078
 4210TIP3    H212637   5.354   1.425   3.916  1.0485 -0.8189  0.2250
 4211TIP3   OH212638   4.013   4.932   3.431 -0.1313  0.0774  0.3460
 4211TIP3    H112639   4.009   4.984   3.510 -0.7466 -1.9266  1.7225
 4211TIP3    H212640   3.923   4.931   3.398  0.2172  1.3398 -0.7257
 4212TIP3   OH212641   0.136   3.265   2.540 -0.2248 -0.2044 -0.3921
 4212TIP3    H112642   0.150   3.341   2.597 -0.8963 -0.0138 -0.4710
 4212TIP3    H212643   0.106   3.302   2.457 -0.9074 -0.5677 -0.3180
 4213TIP3   OH212644   4.623   1.504   4.839 -0.0377  0.0149  0.0299
 4213TIP3    H112645   4.556   1.504   4.770 -0.7382  0.3584  0.6952
 4213TIP3    H212646   4.587   1.445   4.906  1.4998 -1.8450 -0.6928
 4214TIP3   OH212647   2.490   3.330   3.156 -0.6340  0.5445 -0.3966
 4214TIP3    H112648   2.447   3.397   3.103  1.8142  0.7480 -2.3148
 4214TIP3    H212649   2.584   3.343   3.140  0.0916 -1.2931  1.7542
 4215TIP3   OH212650   5.432   1.198   1.461 -0.5700 -0.2135 -0.1608
 4215TIP3    H112651   5.427   1.291   1.485 -1.7234 -0.3541  0.2433
 4215TIP3    H212652   5.341   1.169   1.463 -0.3425 -1.0792 -1.4556
 4216TIP3   OH212653   4.062   3.087   4.535  0.2236 -0.1323  0.4360
 4216TIP3    H112654   3.981   3.061   4.579 -0.7038  1.2534 -0.3662
 4216TIP3    H212655   4.077   3.018   4.469 -1.5551  0.6695 -0.9001
 4217TIP3   OH212656   3.615   2.945   0.823  0.0316  0.1790 -0.6971
 4217TIP3    H112657   3.675   2.945   0.898  0.9268  0.6873 -1.3937
 4217TIP3    H212658   3.660   2.996   0.756 -1.8800  2.0102 -0.7086
 4218TIP3   OH212659   2.222   3.432   2.095 -0.8764 -0.1759  0.1931
 4218TIP3    H112660   2.192   3.385   2.173 -0.8469  1.0247  0.9652
 4218TIP3    H212661   2.214   3.524   2.119  1.1390  0.2133 -0.4423
 4219TIP3   OH212662   0.433   3.811   5.030  0.4830 -0.6710  0.9089
 4219TIP3    H112663   0.528   3.810   5.017  0.2914  0.7722 -0.8136
 4219TIP3    H212664   0.417   3.885   5.089  0.3222 -0.1218  0.1820
 4220TIP3   OH212665   1.078   2.508   4.559 -0.6178  0.3754 -0.3517
 4220TIP3    H112666   1.006   2.447   4.545 -0.9562  0.6904  0.0195
 4220TIP3    H212667   1.149   2.453   4.592 -0.9217  0.1775 -0.0239
 4221TIP3   OH212668   2.755   0.884   0.161 -0.5221  0.1904 -0.4459
 4221TIP3    H112669   2.823   0.831   0.201 -1.2746 -0.9443 -0.6147
 4221TIP3    H212670   2.705   0.918   0.235 -0.6007 -0.1146 -0.3569
 4222TIP3   OH212671   3.853   4.818   2.979  0.2013 -0.5119  0.0843
 4222TIP3    H112672   3.823   4.908   2.968  0.7466 -0.3469 -0.1128
 4222TIP3    H212673   3.843   4.801   3.072  1.8065  0.4013  0.4650
 4223TIP3   OH212674   6.295   0.587   4.332 -0.1253 -0.2965 -0.2248
 4223TIP3    H112675   6.324   0.543   4.412  1.3667  0.1432 -0.5045
 4223TIP3    H212676   6.323   0.678   4.342 -1.1355  0.0849 -0.6711
 4224TIP3   OH212677   4.153   1.797   4.234  0.4468 -0.8691  0.6394
 4224TIP3    H112678   4.095   1.873   4.222  1.0932 -0.5262 -0.4453
 4224TIP3    H212679   4.167   1.793   4.329  0.8186  0.7048  0.6954
 4225TIP3   OH212680   0.501   4.562   3.080 -0.3619  0.2879  0.2212
 4225TIP3    H112681   0.472   4.496   3.143 -0.6161  1.3428  1.2543
 4225TIP3    H212682   0.565   4.614   3.128 -0.4468  1.0197 -0.4384
 4226TIP3   OH212683   5.899   1.783   1.211  0.4192  0.3532 -0.2324
 4226TIP3    H112684   5.856   1.857   1.170 -0.2578 -0.0862 -0.3336
 4226TIP3    H212685   5.830   1.716   1.218  0.4268  0.4998  1.8494
 4227TIP3   OH212686   0.126   2.827   0.398 -0.3467 -0.0249 -0.1078
 4227TIP3    H112687   0.031   2.814   0.393 -0.3669  0.2311 -0.4297
 4227TIP3    H212688   0.141   2.860   0.486 -0.8276  2.0786 -0.7553
 4228TIP3   OH212689   0.755   4.512   4.816 -0.2316 -0.3683  0.2383
 4228TIP3    H112690   0.754   4.515   4.720  0.6994 -0.8777  0.1978
 4228TIP3    H212691   0.739   4.419   4.837  0.9431 -0.5220  0.5253
 4229TIP3   OH212692   3.713   2.588   0.874 -0.7565 -0.1427  0.5022
 4229TIP3    H112693   3.802   2.556   0.884 -0.7141 -0.7991 -1.5939
 4229TIP3    H212694   3.659   2.510   0.862 -1.1740  0.3322 -1.0226
 4230TIP3   OH212695   4.606   5.074   0.273 -0.3129  0.4691  0.2788
 4230TIP3    H112696   4.522   5.077   0.227  0.1640 -0.7467 -0.7417
 4230TIP3    H212697   4.639   4.985   0.258  2.7215  1.8196 -2.2589
 4231TIP3   OH212698   5.605   4.114   1.896  0.0511 -0.6659  0.1052
 4231TIP3    H112699   5.626   4.062   1.974  2.4653 -0.5325 -0.3639
 4231TIP3    H212700   5.652   4.070   1.825  0.3429  0.8739 -0.7001
 4232TIP3   OH212701   0.120   0.021   0.909  0.4417 -0.2501 -0.0568
 4232TIP3    H112702   0.063  -0.041   0.864 -0.0491 -1.1782  1.7561
 4232TIP3    H212703   0.066   0.099   0.921  0.6025  0.0380 -1.0870
 4233TIP3   OH212704   1.149   5.333   1.883  0.1558 -0.4331  0.0667
 4233TIP3    H112705   1.190   5.387   1.952  0.0538  1.5063 -1.3184
 4233TIP3    H212706   1.212   5.263   1.868  2.4538  1.7012 -1.0336
 4234TIP3   OH212707   1.961   3.608   2.316  0.9292 -0.0433 -0.1554
 4234TIP3    H112708   1.949   3.570   2.229 -1.5415 -0.5374  0.3374
 4234TIP3    H212709   2.020   3.683   2.302 -1.4914  1.5520 -2.7550
 4235TIP3   OH212710   0.524   4.287   2.641  0.6352  0.0593  0.1516
 4235TIP3    H112711   0.483   4.310   2.558  1.5528 -0.0399 -0.3391
 4235TIP3    H212712   0.459   4.310   2.707 -0.8931 -1.6607 -0.6912
 4236TIP3   OH212713   4.539   5.674   3.790  0.1045 -0.8869 -0.5317
 4236TIP3    H112714   4.584   5.742   3.740 -0.5128  0.0426  0.1452
 4236TIP3    H212715   4.519   5.606   3.726  0.8247 -0.4802 -1.2014
 4237TIP3   OH212716   5.152   4.087   3.651 -0.0441  0.2044 -0.3308
 4237TIP3    H112717   5.066   4.128   3.638 -0.5512 -0.5724  0.4396
 4237TIP3    H212718   5.132   4.001   3.686  1.0821  0.3120  0.6500
 4238TIP3   OH212719   0.736   2.504   0.191 -0.1960 -0.0112  0.1959
 4238TIP3    H112720   0.692   2.577   0.235  0.3490  0.8428 -0.6533
 4238TIP3    H212721   0.815   2.489   0.242 -0.7837 -0.6811  0.9485
 4239TIP3   OH212722   3.487   4.004   2.032  0.0525  0.0822  0.3492
 4239TIP3    H112723   3.487   3.911   2.054  0.7066  0.2023  0.8942
 4239TIP3    H212724   3.549   4.043   2.093  0.7152  0.6909 -0.6739
 4240TIP3   OH212725   0.560   4.445   1.732  0.1265 -0.3565 -0.2852
 4240TIP3    H112726   0.494   4.402   1.786  0.8737 -1.1912  0.0013
 4240TIP3    H212727   0.536   4.537   1.733 -0.8262 -0.6019  0.1014
 4241TIP3   OH212728   0.737   3.173   2.283  0.2874 -0.0882 -0.4510
 4241TIP3    H112729   0.694   3.233   2.344  1.8278 -0.4617  1.0806
 4241TIP3    H212730   0.745   3.091   2.332 -0.0609 -0.9666 -1.8210
 4242TIP3   OH212731   2.237   3.505   1.577 -0.0058  0.2057  0.3735
 4242TIP3    H112732   2.194   3.585   1.545  0.4991  0.7758  1.1013
 4242TIP3    H212733   2.196   3.487   1.661 -0.1211 -0.3146  0.2120
 4243TIP3   OH212734   1.062   5.690   3.172  0.0112 -0.7433  0.3448
 4243TIP3    H112735   1.129   5.748   3.208 -1.0877  1.0625 -0.3960
 4243TIP3    H212736   0.979   5.733   3.192 -0.7728 -1.0883 -1.8448
 4244TIP3   OH212737   3.773   5.388   4.077  0.1162 -0.3744  0.1237
 4244TIP3    H112738   3.779   5.431   4.162 -0.8891 -0.1165  0.0821
 4244TIP3    H212739   3.720   5.309   4.094 -2.2862  0.9567 -0.6807
 4245TIP3   OH212740   6.060   5.875   1.292 -0.6285  0.0386  0.0683
 4245TIP3    H112741   6.045   5.790   1.334 -0.7189 -0.2607 -0.5596
 4245TIP3    H212742   6.033   5.939   1.358  0.4006 -0.3856  0.9331
 4246TIP3   OH212743   1.897   1.935   4.237  0.6247 -0.1005 -0.6079
 4246TIP3    H112744   1.889   2.020   4.281  0.7996 -1.2415  1.7812
 4246TIP3    H212745   1.857   1.949   4.151 -1.5569  1.7644  0.5911
 4247TIP3   OH212746   2.868   2.087   3.454 -0.3266 -0.2878  0.1615
 4247TIP3    H112747   2.777   2.064   3.435 -0.1044 -0.0424 -1.3455
 4247TIP3    H212748   2.917   2.006   3.437 -0.1559 -0.1732  0.1075
 4248TIP3   OH212749   1.439   5.464   4.925  0.4109 -0.8564 -0.1762
 4248TIP3    H112750   1.411   5.519   4.998  1.2628  0.1793 -0.5937
 4248TIP3    H212751   1.425   5.375   4.955  0.2204 -0.4398  1.0369
 4249TIP3   OH212752   5.212   5.679   1.583  0.3737  0.1651  0.2643
 4249TIP3    H112753   5.239   5.684   1.674 -0.5398  1.0888  0.5154
 4249TIP3    H212754   5.249   5.757   1.542 -1.0863  0.9638  0.4048
 4250TIP3   OH212755   6.204   1.120   0.702 -0.2483 -0.3046 -0.8187
 4250TIP3    H112756   6.222   1.042   0.755  2.2105  0.0704 -0.9422
 4250TIP3    H212757   6.174   1.186   0.765  2.3298  0.0371  0.1939
 4251TIP3   OH212758   3.307   3.776   1.623  0.0179 -0.5108  0.2693
 4251TIP3    H112759   3.333   3.701   1.677  4.5563 -0.1668 -0.9849
 4251TIP3    H212760   3.307   3.742   1.533 -1.3371  0.2620 -0.0382
 4252TIP3   OH212761   6.053   2.817   0.549 -0.3482 -0.4185 -0.2745
 4252TIP3    H112762   6.119   2.886   0.536 -0.1944 -0.3788  0.6936
 4252TIP3    H212763   6.070   2.754   0.479 -0.6461  0.6366 -1.3311
 4253TIP3   OH212764   5.612   3.457   4.194 -0.5373  0.2563 -0.9147
 4253TIP3    H112765   5.632   3.478   4.286 -0.9695 -0.5428 -0.6323
 4253TIP3    H212766   5.565   3.534   4.162  1.8285  1.6862 -1.2559
 4254TIP3   OH212767   0.947   5.092   1.176  0.1700  0.0616 -0.5988
 4254TIP3    H112768   0.912   5.114   1.262  0.2553  0.0750 -0.5669
 4254TIP3    H212769   0.887   5.027   1.141 -0.5589  0.9441 -1.0435
 4255TIP3   OH212770   5.795   0.040   0.831  0.0119  0.0891  0.3747
 4255TIP3    H112771   5.863  -0.027   0.817 -2.1460 -2.2166  0.2174
 4255TIP3    H212772   5.724   0.014   0.772 -0.6293  3.0565 -0.2828
 4256TIP3   OH212773   3.234   4.238   0.144  0.2142 -0.0280  0.0351
 4256TIP3    H112774   3.197   4.150   0.133 -0.6364  0.1855  0.9577
 4256TIP3    H212775   3.265   4.240   0.235 -0.8284  0.9795  0.3985
 4257TIP3   OH212776   1.857   1.638   1.263  0.0406  0.2143  0.7020
 4257TIP3    H112777   1.802   1.677   1.194 -0.6191 -2.3155 -0.3464
 4257TIP3    H212778   1.941   1.623   1.220  0.5946  1.2932  1.3805
 4258TIP3   OH212779   2.273   5.663   1.746 -0.1116 -0.1141 -0.2565
 4258TIP3    H112780   2.325   5.583   1.753  2.1809  1.3193  0.4282
 4258TIP3    H212781   2.229   5.671   1.831 -1.7270 -1.4594 -0.9226
 4259TIP3   OH212782   0.856   4.183   0.091 -0.4101 -0.1891  0.4487
 4259TIP3    H112783   0.784   4.229   0.134 -0.0264  1.0023 -0.1590
 4259TIP3    H212784   0.891   4.125   0.158 -1.2545  0.0030  1.0658
 4260TIP3   OH212785   5.959   2.897   1.580 -0.1720  0.0837 -0.2519
 4260TIP3    H112786   6.021   2.858   1.641 -1.4900  0.5525  1.4778
 4260TIP3    H212787   5.962   2.841   1.503  1.1316 -0.8742  0.4612
 4261TIP3   OH212788   3.259   3.220   3.378  0.1526 -0.6099 -0.1276
 4261TIP3    H112789   3.261   3.268   3.461 -3.0597 -0.2362 -0.1365
 4261TIP3    H212790   3.211   3.140   3.397  1.8719 -1.9258 -1.0559
 4262TIP3   OH212791   4.863   5.687   4.573 -0.1458  0.4887 -0.4674
 4262TIP3    H112792   4.882   5.613   4.515 -0.0101  0.3047 -0.1930
 4262TIP3    H212793   4.767   5.691   4.576 -0.2022  1.7225 -2.2406
 4263TIP3   OH212794   5.367   0.414   2.345 -0.1170 -0.3507  0.2122
 4263TIP3    H112795   5.364   0.329   2.301  1.4708 -0.1409 -0.3512
 4263TIP3    H212796   5.384   0.477   2.275 -0.8227  0.4027  0.6906
 4264TIP3   OH212797   4.077   3.864   0.729 -0.0857 -0.2582 -0.0392
 4264TIP3    H112798   4.105   3.814   0.805  0.8859 -1.1861 -0.9691
 4264TIP3    H212799   4.105   3.811   0.654 -1.7847  0.2022 -1.0479
 4265TIP3   OH212800   1.980   1.688   0.735 -0.2646 -0.1721 -0.3184
 4265TIP3    H112801   1.921   1.678   0.660 -1.9790  2.4429  0.5061
 4265TIP3    H212802   2.012   1.778   0.727 -0.2961  0.0752  1.9216
 4266TIP3   OH212803   4.867   1.362   4.722 -0.7093  0.0096 -0.3062
 4266TIP3    H112804   4.787   1.374   4.772 -0.0894  0.2537  0.6479
 4266TIP3    H212805   4.935   1.345   4.787 -0.0364 -0.5280 -1.1129
 4267TIP3   OH212806   0.577   0.638   1.890  0.3878 -0.1308  0.2483
 4267TIP3    H112807   0.607   0.549   1.910 -0.5575 -1.0468 -1.9629
 4267TIP3    H212808   0.571   0.682   1.974 -1.0089 -2.7927  1.6496
 4268TIP3   OH212809   2.556   5.906   2.980  0.5665  0.4829 -0.1613
 4268TIP3    H112810   2.607   5.940   2.907 -2.3643 -0.7940 -3.0607
 4268TIP3    H212811   2.571   5.811   2.977 -1.1838  0.1809 -0.5531
 4269TIP3   OH212812   0.704   5.025   4.473  0.2943 -0.3292 -0.4922
 4269TIP3    H112813   0.779   5.069   4.431 -0.2783  1.8811  0.6581
 4269TIP3    H212814   0.633   5.089   4.469 -0.7543 -1.3473  0.8605
 4270TIP3   OH212815   1.446   2.678   4.291  0.3322  0.0931  0.5525
 4270TIP3    H112816   1.532   2.714   4.268  0.4451  0.1638  1.0696
 4270TIP3    H212817   1.405   2.658   4.207  0.9954 -0.2779  0.3132
 4271TIP3   OH212818   2.257   3.533   5.013 -0.1793  0.1495 -0.2024
 4271TIP3    H112819   2.193   3.571   4.953  0.2478  1.4548  0.1347
 4271TIP3    H212820   2.226   3.444   5.028 -1.3768  0.4435 -0.8023
 4272TIP3   OH212821   0.656   0.834   0.246  0.4020  0.0702  0.1760
 4272TIP3    H112822   0.587   0.863   0.186  0.5791 -1.1221 -0.6307
 4272TIP3    H212823   0.644   0.889   0.323 -0.1150  1.3407 -0.7683
 4273TIP3   OH212824   4.989   3.550   0.235 -0.6513 -0.6493 -0.4627
 4273TIP3    H112825   5.061   3.611   0.251 -1.5568  0.4658 -0.5454
 4273TIP3    H212826   4.954   3.577   0.150 -1.2936 -1.0575 -0.3312
 4274TIP3   OH212827   3.034   1.173   1.126 -0.1056 -0.0985 -0.0672
 4274TIP3    H112828   3.035   1.229   1.204  0.3913  1.0695 -0.8879
 4274TIP3    H212829   3.055   1.086   1.160  3.5212  0.9299  0.7458
 4275TIP3   OH212830   1.474   2.109   3.651 -0.4924  0.1461 -0.1965
 4275TIP3    H112831   1.433   2.108   3.564 -2.0592  1.4731  0.4669
 4275TIP3    H212832   1.425   2.044   3.701  0.4971 -0.7122 -0.3119
 4276TIP3   OH212833   4.661   1.047   1.360 -0.1775 -0.2144  0.4675
 4276TIP3    H112834   4.707   1.096   1.428  1.3288 -0.9175 -0.0080
 4276TIP3    H212835   4.628   1.114   1.300  1.8093  0.2863 -0.1515
 4277TIP3   OH212836   6.278   3.367   2.118  0.0594  0.3541 -0.1995
 4277TIP3    H112837   6.254   3.311   2.192  0.0333 -1.1405 -1.2911
 4277TIP3    H212838   6.371   3.386   2.131  0.2264 -0.4820 -0.1376
 4278TIP3   OH212839   3.349   5.632   0.295 -0.4956  0.0849 -0.4023
 4278TIP3    H112840   3.305   5.660   0.215  0.4176  1.9782 -0.2828
 4278TIP3    H212841   3.403   5.557   0.267  0.2395  1.0548 -1.7048
 4279TIP3   OH212842   0.507   0.191   1.484  0.0609  0.3337 -0.1274
 4279TIP3    H112843   0.436   0.252   1.502 -0.9812 -0.6821 -0.6350
 4279TIP3    H212844   0.463   0.110   1.459  1.4057 -0.4018 -0.2247
 4280TIP3   OH212845   5.344   5.704   0.870 -0.2462  0.2120  0.2758
 4280TIP3    H112846   5.433   5.669   0.881 -0.0311  1.1995  1.9011
 4280TIP3    H212847   5.357   5.792   0.835 -0.6960 -0.2907 -1.2644
 4281TIP3   OH212848   0.555   2.213   0.536  0.0449  0.5243 -0.2815
 4281TIP3    H112849   0.632   2.242   0.585 -0.7183 -0.3333  1.5012
 4281TIP3    H212850   0.523   2.292   0.493  0.4829  1.4239  0.9844
 4282TIP3   OH212851   2.847   3.673   2.674  0.1435  0.1064 -0.1820
 4282TIP3    H112852   2.760   3.677   2.713  0.3899  1.4120  0.2944
 4282TIP3    H212853   2.908   3.683   2.747  0.7005 -0.5931 -0.5318
 4283TIP3   OH212854   4.635   4.130   2.553 -0.3057 -0.1703  0.0134
 4283TIP3    H112855   4.702   4.075   2.594 -0.6314 -1.0081 -0.5537
 4283TIP3    H212856   4.563   4.070   2.533 -0.4759  0.3654 -1.0519
 4284TIP3   OH212857   4.677   2.155   5.162 -0.0348 -0.6703  0.2724
 4284TIP3    H112858   4.735   2.100   5.109 -1.0622 -1.4972 -0.0352
 4284TIP3    H212859   4.595   2.106   5.166 -1.0505  0.9258 -0.1494
 4285TIP3   OH212860   5.940   2.536   3.450 -0.4545 -0.3054  0.4392
 4285TIP3    H112861   6.033   2.516   3.460 -0.0720  0.8199 -0.6581
 4285TIP3    H212862   5.918   2.509   3.361 -1.6217 -2.0565  1.1833
 4286TIP3   OH212863   2.370   2.723   2.537 -0.3253  0.2175  0.5018
 4286TIP3    H112864   2.286   2.678   2.545 -0.8856  0.7139 -1.8188
 4286TIP3    H212865   2.347   2.816   2.540  0.1799  0.3498  0.3250
 4287TIP3   OH212866   1.971   2.995   3.391 -0.2049  0.5207 -0.0514
 4287TIP3    H112867   2.039   3.061   3.402  0.2481  0.0716 -0.1068
 4287TIP3    H212868   1.945   3.002   3.299  1.1032 -0.5553 -0.5421
 4288TIP3   OH212869   2.943   1.737   0.430 -0.0722 -0.3271  0.2354
 4288TIP3    H112870   3.014   1.791   0.466 -0.5357 -0.0643  0.7648
 4288TIP3    H212871   2.983   1.693   0.355  0.6189 -0.0846  0.4477
 4289TIP3   OH212872   3.603   3.463   0.978 -0.0698  0.4452 -0.1837
 4289TIP3    H112873   3.613   3.455   0.883  2.1789 -0.1975  0.0451
 4289TIP3    H212874   3.622   3.375   1.011 -1.1314  0.5867  0.8620
 4290TIP3   OH212875   5.863   2.040   5.092 -0.4132 -1.0174  0.0034
 4290TIP3    H112876   5.828   2.092   5.164 -1.1609 -0.9429 -0.4026
 4290TIP3    H212877   5.923   1.978   5.133 -0.0733 -0.3260  0.5745
 4291TIP3   OH212878   2.140   4.428   1.890  0.0757  0.3521 -0.3978
 4291TIP3    H112879   2.130   4.363   1.960 -0.6800  0.7080 -0.1634
 4291TIP3    H212880   2.103   4.385   1.813 -0.3992  0.4889 -0.2487
 4292TIP3   OH212881   3.392   1.072   2.209 -0.2227  0.0446  0.5776
 4292TIP3    H112882   3.372   1.158   2.172 -0.0431  0.8617  2.2942
 4292TIP3    H212883   3.321   1.016   2.178 -1.3162  1.2206  0.8384
 4293TIP3   OH212884   3.833   1.044   2.502 -0.4072  0.0005  0.0913
 4293TIP3    H112885   3.805   1.065   2.413  1.2796  1.5349 -0.1078
 4293TIP3    H212886   3.767   1.084   2.558 -0.6351  0.3710 -0.4369
 4294TIP3   OH212887   2.583   5.246   2.557  0.0887 -0.3974  0.1557
 4294TIP3    H112888   2.499   5.238   2.511  1.5196  0.7797 -2.9306
 4294TIP3    H212889   2.615   5.156   2.565 -0.8568 -0.7492  0.1253
 4295TIP3   OH212890   4.355   0.444   4.325 -0.1999  0.0411 -0.1721
 4295TIP3    H112891   4.276   0.474   4.281  0.1677  1.8794  0.3652
 4295TIP3    H212892   4.427   0.473   4.269  0.2113  1.1490  0.8953
 4296TIP3   OH212893   0.561   3.944   0.019 -0.4488 -0.6826  0.2088
 4296TIP3    H112894   0.600   4.030   0.032 -0.3464 -0.6655 -0.2173
 4296TIP3    H212895   0.622   3.899  -0.039 -0.8765 -0.7870 -0.1573
 4297TIP3   OH212896   4.639   2.871   1.537  0.0498 -0.1776  0.0899
 4297TIP3    H112897   4.718   2.906   1.496  1.9532 -2.4950  1.5035
 4297TIP3    H212898   4.616   2.795   1.484  1.0076 -1.6494  1.6655
 4298TIP3   OH212899   3.988   0.472   2.082  0.3964 -0.1997 -0.2265
 4298TIP3    H112900   4.031   0.492   2.165 -0.4291 -0.6031  0.3079
 4298TIP3    H212901   4.040   0.519   2.016 -1.1507  3.4459  0.8898
 4299TIP3   OH212902   5.331   3.765   4.355  0.3468  0.4427  0.3705
 4299TIP3    H112903   5.416   3.788   4.392  0.2769 -0.8359  1.4169
 4299TIP3    H212904   5.348   3.752   4.262  0.9929  1.5778  0.3152
 4300TIP3   OH212905   2.263   3.130   3.959 -0.4101  0.0201 -0.5046
 4300TIP3    H112906   2.243   3.111   3.867  1.0382 -0.5454 -0.7318
 4300TIP3    H212907   2.296   3.220   3.958  0.0621 -0.1526 -0.6168
 4301TIP3   OH212908   0.677   2.684   1.393  0.3946  0.4438 -0.8118
 4301TIP3    H112909   0.732   2.651   1.322 -0.3785 -0.4417 -1.0219
 4301TIP3    H212910   0.695   2.626   1.467 -2.9710 -2.4279 -1.9445
 4302TIP3   OH212911   4.945   4.075   1.519  0.0978 -0.2281 -0.4784
 4302TIP3    H112912   4.879   4.029   1.467  0.6477 -3.1145  1.1458
 4302TIP3    H212913   5.019   4.085   1.461 -1.3175  2.1662 -2.0245
 4303TIP3   OH212914   2.379   1.928   4.639 -0.0863  0.3149 -0.0558
 4303TIP3    H112915   2.446   1.966   4.583  0.1085 -0.9435 -0.7149
 4303TIP3    H212916   2.343   2.002   4.688  0.5760  1.2550 -0.9616
 4304TIP3   OH212917   5.549   1.843   2.846  0.1964  0.2478  0.4524
 4304TIP3    H112918   5.482   1.900   2.809  0.1957  0.6972  1.1341
 4304TIP3    H212919   5.534   1.846   2.940 -0.3753 -1.5752  0.4663
 4305TIP3   OH212920   2.942   1.634   2.345 -0.0439 -0.1628 -0.4936
 4305TIP3    H112921   2.942   1.710   2.287 -0.7459 -0.6622 -1.1765
 4305TIP3    H212922   2.849   1.618   2.363  0.1647  0.1964  1.0776
 4306TIP3   OH212923   1.985   5.700   4.622  0.3879  0.0900 -0.3451
 4306TIP3    H112924   1.918   5.725   4.558  0.0483  1.6109  0.5601
 4306TIP3    H212925   2.068   5.708   4.574  0.0694  0.2419 -0.8769
 4307TIP3   OH212926   4.894   5.931   5.094 -0.2262 -0.0612 -0.1468
 4307TIP3    H112927   4.825   5.991   5.063 -0.7851 -1.1011 -0.9674
 4307TIP3    H212928   4.952   5.920   5.019  1.3684  1.4704  0.7822
 4308TIP3   OH212929   2.537   1.984   1.923 -0.4666 -0.2106  0.2965
 4308TIP3    H112930   2.581   1.914   1.970 -1.5597 -0.2051  1.3892
 4308TIP3    H212931   2.560   2.064   1.970  0.3431  0.1196 -0.6229
 4309TIP3   OH212932   5.757   4.403   2.186 -0.2581  0.6902  0.5989
 4309TIP3    H112933   5.797   4.364   2.264 -1.5129 -0.5500  0.6822
 4309TIP3    H212934   5.666   4.374   2.190 -0.5526  1.3248 -0.8920
 4310TIP3   OH212935   3.035   2.798   2.949  0.0228  0.1911 -0.0960
 4310TIP3    H112936   3.067   2.806   3.038  1.3454  1.9663 -0.6781
 4310TIP3    H212937   3.036   2.703   2.932 -0.8580 -0.2287  1.9400
 4311TIP3   OH212938   2.148   4.588   4.761  0.7096 -0.4924 -0.1957
 4311TIP3    H112939   2.212   4.552   4.700  0.0747 -0.5762 -0.8126
 4311TIP3    H212940   2.182   4.676   4.781  1.3422 -0.7665 -0.0299
 4312TIP3   OH212941   5.529   3.805   3.442  0.2351  0.2639 -0.1624
 4312TIP3    H112942   5.464   3.813   3.372  0.9160  1.3606 -0.6868
 4312TIP3    H212943   5.518   3.715   3.474 -1.6680  0.4777 -0.0898
 4313TIP3   OH212944   0.947   3.433   4.711 -0.9560 -0.0957  0.2713
 4313TIP3    H112945   0.958   3.510   4.767 -0.8098 -0.7930  1.2221
 4313TIP3    H212946   0.948   3.468   4.622  2.2433  0.6732  0.5026
 4314TIP3   OH212947   0.373   2.354   1.664 -0.0489  0.5772 -0.2812
 4314TIP3    H112948   0.303   2.413   1.638  0.0402  0.3608 -1.0110
 4314TIP3    H212949   0.403   2.313   1.583  0.4934  0.1928  0.1012
 4315TIP3   OH212950   0.882   0.339   2.861  0.3963  0.4589 -0.1472
 4315TIP3    H112951   0.789   0.316   2.866  0.7015 -1.7195 -2.2570
 4315TIP3    H212952   0.923   0.290   2.932  0.2737 -1.1673 -1.1427
 4316TIP3   OH212953   5.479   2.079   4.031 -0.1080  0.2940 -0.3200
 4316TIP3    H112954   5.509   2.153   4.083 -0.5887  0.0275  0.3687
 4316TIP3    H212955   5.486   2.107   3.940 -1.9085  1.8417 -0.0500
 4317TIP3   OH212956   1.670   3.271   2.684 -0.0667  0.0055  0.4108
 4317TIP3    H112957   1.669   3.199   2.621  1.9745  1.4204 -1.3730
 4317TIP3    H212958   1.627   3.343   2.640  1.3146  0.9996  0.6093
 4318TIP3   OH212959   5.565   4.246   4.377  0.2619 -0.2629  0.3048
 4318TIP3    H112960   5.640   4.273   4.431  0.3211 -0.3702  0.2749
 4318TIP3    H212961   5.604   4.201   4.303  0.2335  0.6512 -0.2869
 4319TIP3   OH212962   2.365   4.430   4.628  0.0729 -0.1329  0.2437
 4319TIP3    H112963   2.442   4.410   4.574 -0.1142  0.5118 -0.2643
 4319TIP3    H212964   2.339   4.345   4.664  1.2014 -0.3185  0.6733
 4320TIP3   OH212965   1.668   1.977   4.591  0.2233  0.1298  0.4952
 4320TIP3    H112966   1.760   1.956   4.575  0.3739  0.7432  0.5456
 4320TIP3    H212967   1.620   1.927   4.524  0.6475  0.4142 -0.0269
 4321TIP3   OH212968   4.434   0.585   5.005 -0.0192  0.2075 -0.4395
 4321TIP3    H112969   4.490   0.638   5.061  0.4987  0.6446 -1.3519
 4321TIP3    H212970   4.492   0.556   4.934 -0.6381 -0.4163 -0.6980
 4322TIP3   OH212971   3.574   0.557   0.427 -0.4732  0.1874  0.1547
 4322TIP3    H112972   3.522   0.478   0.442 -0.4867  0.1278 -0.2170
 4322TIP3    H212973   3.664   0.530   0.441 -0.3664 -0.1848 -1.1259
 4323TIP3   OH212974   2.236   2.002   1.166  0.0666  0.0232  0.0504
 4323TIP3    H112975   2.240   1.928   1.227 -0.7205  0.0686  0.1704
 4323TIP3    H212976   2.155   2.048   1.189 -0.7720 -0.5138 -1.6379
 4324TIP3   OH212977   1.869   3.528   0.533  0.0058  0.0346  0.1916
 4324TIP3    H112978   1.895   3.440   0.508  0.8084  0.1829  0.4791
 4324TIP3    H212979   1.932   3.554   0.600 -1.4159  0.0629  1.5930
 4325TIP3   OH212980   1.703   2.458   1.828 -0.8249  0.2053 -0.4977
 4325TIP3    H112981   1.712   2.393   1.758 -1.6562 -0.3974 -0.0571
 4325TIP3    H212982   1.731   2.540   1.787  1.3233 -0.5807 -0.7490
 4326TIP3   OH212983   0.910   1.971   3.861 -0.7289 -0.4002  0.0753
 4326TIP3    H112984   0.841   2.013   3.811  0.2097 -0.0504 -0.9789
 4326TIP3    H212985   0.935   1.895   3.809  0.1698 -0.1130  0.0654
 4327TIP3   OH212986   0.535   4.882   3.770 -0.1212  0.0909 -0.3922
 4327TIP3    H112987   0.605   4.819   3.789  0.0912  0.1107 -1.0848
 4327TIP3    H212988   0.509   4.915   3.856  0.5883 -0.0603 -0.1064
 4328TIP3   OH212989   0.562   1.359   0.587 -0.1912  0.4416  0.0208
 4328TIP3    H112990   0.553   1.323   0.499 -0.7514  0.4801  0.0617
 4328TIP3    H212991   0.579   1.452   0.573  2.2496  0.0587 -0.1220
 4329TIP3   OH212992   5.963   2.136   3.492 -0.9219 -0.0404  0.6779
 4329TIP3    H112993   5.995   2.163   3.406  0.2384  0.4631  1.2445
 4329TIP3    H212994   5.987   2.207   3.551 -0.8063 -0.8129  1.6009
 4330TIP3   OH212995   5.081   3.062   3.099  0.2974  0.7024 -0.3117
 4330TIP3    H112996   5.043   3.149   3.109 -1.6454 -0.1385 -0.0207
 4330TIP3    H212997   5.112   3.059   3.009  1.1693  1.9665 -0.0822
 4331TIP3   OH212998   2.783   2.165   2.638  0.3263  0.2900 -0.0250
 4331TIP3    H112999   2.756   2.157   2.730 -1.1111  0.5071 -0.4104
 4331TIP3    H213000   2.833   2.085   2.621  0.7946  0.3451  1.0003
 4332TIP3   OH213001   6.042   2.471   0.566 -0.1553 -0.5546  0.5822
 4332TIP3    H113002   5.965   2.515   0.601  1.0877  1.3711  1.0258
 4332TIP3    H213003   6.052   2.393   0.622 -1.5553 -0.6823  0.7101
 4333TIP3   OH213004   1.449   0.749   4.895 -0.0686 -0.2592 -0.6336
 4333TIP3    H113005   1.441   0.844   4.888  1.3580  0.0560  1.2484
 4333TIP3    H213006   1.358   0.718   4.896 -0.5746  1.1295 -0.7216
 4334TIP3   OH213007   4.374   4.400   2.839  0.0353  0.5486 -0.2899
 4334TIP3    H113008   4.396   4.407   2.746  0.9288 -0.2169 -0.1521
 4334TIP3    H213009   4.279   4.409   2.842 -0.0450  0.1762 -1.3264
 4335TIP3   OH213010   4.411   0.152   1.370 -0.3363  0.1880  0.5318
 4335TIP3    H113011   4.340   0.092   1.394 -0.4994  0.6458  1.2041
 4335TIP3    H213012   4.376   0.239   1.389  0.0980  0.4727  0.0619
 4336TIP3   OH213013   5.690   5.885   4.432 -0.2423 -0.5643 -0.1656
 4336TIP3    H113014   5.634   5.961   4.447 -0.2301 -0.5641 -0.1212
 4336TIP3    H213015   5.774   5.908   4.472 -0.3324 -0.7229  0.1131
 4337TIP3   OH213016   2.380   5.911   1.636 -0.0375 -0.0452 -0.0014
 4337TIP3    H113017   2.446   5.922   1.568  0.5532 -1.0884  0.3820
 4337TIP3    H213018   2.386   5.819   1.661 -1.1609  0.0097  0.5344
 4338TIP3   OH213019   5.481   1.321   0.199  0.0055  0.2791  0.2595
 4338TIP3    H113020   5.471   1.405   0.244 -2.3849 -0.2713  0.9338
 4338TIP3    H213021   5.518   1.343   0.114  0.5785  1.8544  0.8798
 4339TIP3   OH213022   6.094   1.352   3.777 -0.3758 -0.1630 -0.3792
 4339TIP3    H113023   6.069   1.370   3.868  1.6827  0.0431  0.2057
 4339TIP3    H213024   6.106   1.438   3.738 -1.5614 -0.2475 -0.9719
 4340TIP3   OH213025   4.385   1.977   0.504  0.1942  0.7803  0.4820
 4340TIP3    H113026   4.359   1.905   0.561 -0.9568  0.8817  0.1099
 4340TIP3    H213027   4.442   1.936   0.439  0.1326  0.3419  0.7026
 4341TIP3   OH213028   3.107   0.477   3.125  0.3126 -0.0355 -0.5796
 4341TIP3    H113029   3.125   0.426   3.203  0.2188 -0.7269 -1.0019
 4341TIP3    H213030   3.177   0.454   3.064  1.9859  2.5314  0.2098
 4342TIP3   OH213031   2.644   4.284   0.649 -0.1720  0.1519  0.3857
 4342TIP3    H113032   2.630   4.233   0.569 -0.7360  1.0689 -0.1091
 4342TIP3    H213033   2.657   4.374   0.619 -0.6442  0.5550  1.3395
 4343TIP3   OH213034   3.192   5.562   3.988  0.1871  0.0559  0.1986
 4343TIP3    H113035   3.268   5.511   3.961  1.5368  0.7501  2.3601
 4343TIP3    H213036   3.150   5.509   4.056 -0.7462  0.0892 -0.3300
 4344TIP3   OH213037   3.790   0.996   4.852 -0.3603  0.0219  0.4413
 4344TIP3    H113038   3.777   1.064   4.918  0.3077  1.1863 -0.5792
 4344TIP3    H213039   3.782   0.913   4.900 -1.2665  0.8126  1.6972
 4345TIP3   OH213040   2.969   1.763   1.380  0.2585  0.0193  0.0181
 4345TIP3    H113041   2.999   1.834   1.438 -0.0573  1.4656 -1.4965
 4345TIP3    H213042   3.019   1.776   1.299 -0.9808 -0.4794 -0.8574
 4346TIP3   OH213043   2.967   5.543   2.568  0.6416  0.4676  0.2654
 4346TIP3    H113044   2.901   5.477   2.587  0.3957  0.5483 -0.2832
 4346TIP3    H213045   3.042   5.494   2.537  0.0785  0.4989 -1.2055
 4347TIP3   OH213046   1.537   3.711   2.708  0.6721 -0.3515  0.1431
 4347TIP3    H113047   1.457   3.716   2.656  0.7586  0.3409  0.0640
 4347TIP3    H213048   1.605   3.747   2.650  1.5608 -3.2312 -0.7525
 4348TIP3   OH213049   0.605   0.159   2.689 -0.1971 -0.3995 -0.0774
 4348TIP3    H113050   0.690   0.190   2.656  0.1857  0.2626  1.4389
 4348TIP3    H213051   0.563   0.119   2.613  0.3204  1.6995 -1.5580
 4349TIP3   OH213052   2.254   0.978   3.208 -0.2216 -0.1027 -0.0286
 4349TIP3    H113053   2.320   1.046   3.218  0.5894 -0.9443  0.5098
 4349TIP3    H213054   2.269   0.918   3.281 -0.3887 -1.2775 -0.9194
 4350TIP3   OH213055   5.966   4.962   2.049  0.0057  0.4671 -0.5829
 4350TIP3    H113056   6.029   4.964   2.122 -0.6776 -0.1105  0.0435
 4350TIP3    H213057   5.907   5.035   2.068  1.6081  2.3228 -2.2566
 4351TIP3   OH213058   4.545   0.103   2.651  0.0383  0.2356 -0.4087
 4351TIP3    H113059   4.516   0.163   2.720 -1.0091  0.0004 -0.6345
 4351TIP3    H213060   4.469   0.094   2.594  1.0306  0.7937 -1.8693
 4352TIP3   OH213061   1.974   2.321   3.629 -0.5134  0.0578  0.1258
 4352TIP3    H113062   1.903   2.258   3.639  0.0274 -0.3156  1.9577
 4352TIP3    H213063   1.945   2.379   3.558 -1.9807 -0.9417 -0.1277
 4353TIP3   OH213064   2.924   0.052   5.044  0.4139  0.1235 -0.0965
 4353TIP3    H113065   2.860  -0.015   5.019 -1.7037  0.7522  2.9768
 4353TIP3    H213066   2.910   0.123   4.981 -2.0188  0.2347  0.4505
 4354TIP3   OH213067   6.283   2.187   2.173  0.3217 -0.2565  0.0520
 4354TIP3    H113068   6.277   2.281   2.154  1.6457  0.0823  1.1695
 4354TIP3    H213069   6.347   2.155   2.110  3.4481  0.5533  2.5647
 4355TIP3   OH213070   2.806   2.645   3.036  0.0896 -0.0574 -0.3187
 4355TIP3    H113071   2.800   2.651   2.940  0.6435  1.6152 -0.2834
 4355TIP3    H213072   2.888   2.597   3.051 -0.3972 -1.0329 -0.6596
 4356TIP3   OH213073   4.217   3.085   1.130 -0.8335  0.4368 -0.1106
 4356TIP3    H113074   4.126   3.088   1.159 -0.6393 -0.9378  0.7372
 4356TIP3    H213075   4.268   3.102   1.209 -0.3232 -2.0627  0.1885
 4357TIP3   OH213076   2.760   2.673   2.750  0.7687  0.2656 -0.0337
 4357TIP3    H113077   2.765   2.739   2.681 -0.5665  0.7299  0.3019
 4357TIP3    H213078   2.763   2.590   2.703 -0.9773  0.5687 -0.7606
 4358TIP3   OH213079   5.185   1.624   1.396 -0.3920 -0.0834 -0.1715
 4358TIP3    H113080   5.178   1.544   1.344  0.7423  0.3886 -1.1055
 4358TIP3    H213081   5.103   1.670   1.381 -0.1875 -0.0731 -1.3941
 4359TIP3   OH213082   6.237   3.407   1.374 -0.1412  0.0623  0.0409
 4359TIP3    H113083   6.315   3.413   1.430 -0.1949 -0.1724  0.1447
 4359TIP3    H213084   6.173   3.359   1.427 -0.7231  1.1523  0.3436
 4360TIP3   OH213085   3.613   4.880   1.258  0.0133  0.4225 -0.1700
 4360TIP3    H113086   3.584   4.953   1.203 -1.3714  0.4630  0.5790
 4360TIP3    H213087   3.663   4.922   1.328  0.4919  0.5045 -0.5530
 4361TIP3   OH213088   4.849   2.619   1.724 -0.4547  0.8363  0.0428
 4361TIP3    H113089   4.783   2.664   1.672 -0.6555  1.2926  0.6816
 4361TIP3    H213090   4.859   2.672   1.803 -0.1229  0.1885  0.4537
 4362TIP3   OH213091   0.541   3.487   1.060  0.7710 -0.1804 -0.1828
 4362TIP3    H113092   0.576   3.398   1.062  1.3273  0.0176 -0.9565
 4362TIP3    H213093   0.485   3.489   0.983  0.8682  0.1850 -0.2438
 4363TIP3   OH213094   3.852   4.918   4.618  0.0755 -0.3680 -0.0478
 4363TIP3    H113095   3.889   4.877   4.540  1.0108  0.2302  0.0717
 4363TIP3    H213096   3.841   5.010   4.593 -2.0450 -0.6387 -0.3329
 4364TIP3   OH213097   1.424   0.872   0.083  0.1249 -0.1774 -0.0620
 4364TIP3    H113098   1.442   0.950   0.031 -1.9994  1.4417  1.4266
 4364TIP3    H213099   1.510   0.844   0.115  0.8995  2.0919  0.0625
 4365TIP3   OH213100   2.932   0.404   0.125 -0.4088  0.4359  0.5447
 4365TIP3    H113101   2.991   0.332   0.151 -0.7813  0.0084  0.2216
 4365TIP3    H213102   2.986   0.462   0.072 -0.9663 -1.4667 -2.2857
 4366TIP3   OH213103   3.157   5.265   2.284  0.0189 -0.1092 -0.0426
 4366TIP3    H113104   3.227   5.204   2.308  0.7733  0.8297  0.1931
 4366TIP3    H213105   3.078   5.227   2.322  0.4421 -1.0233 -0.0418
 4367TIP3   OH213106   2.632   5.748   3.698  0.3661  0.2544 -0.5642
 4367TIP3    H113107   2.680   5.782   3.774 -0.0992  0.3236 -0.2943
 4367TIP3    H213108   2.629   5.653   3.712 -0.6549  0.3582  0.0810
 4368TIP3   OH213109   5.430   2.994   2.159  0.1194  0.1011 -0.7606
 4368TIP3    H113110   5.401   2.916   2.205 -0.2699 -0.7098 -2.3040
 4368TIP3    H213111   5.504   2.965   2.106  0.7502  1.0728 -0.4452
 4369TIP3   OH213112   0.797   3.263   3.027 -0.7719  0.6565  0.3314
 4369TIP3    H113113   0.795   3.182   3.078  2.2464  0.7781  0.8341
 4369TIP3    H213114   0.765   3.330   3.088  1.1556  0.5280  1.5728
 4370TIP3   OH213115   2.055   4.921   1.507  0.4495 -0.5058 -0.1841
 4370TIP3    H113116   2.103   4.842   1.532  1.1629 -0.1370 -0.3758
 4370TIP3    H213117   1.984   4.889   1.451 -0.5061 -1.2211  1.3501
 4371TIP3   OH213118   0.889   0.727   1.761  0.3090 -0.1613  0.7616
 4371TIP3    H113119   0.970   0.705   1.715 -0.8120 -0.5092 -1.1431
 4371TIP3    H213120   0.873   0.652   1.818  0.3099 -1.0360 -0.3467
 4372TIP3   OH213121   1.061   5.626   4.946  0.0841  0.4863  0.3387
 4372TIP3    H113122   0.978   5.588   4.916  0.2027  1.4978 -1.3802
 4372TIP3    H213123   1.036   5.686   5.016 -0.7161  1.1495 -0.4959
 4373TIP3   OH213124   3.597   4.383   1.251  0.1872 -0.4734 -0.2255
 4373TIP3    H113125   3.593   4.301   1.299 -1.7642 -0.5292 -0.4010
 4373TIP3    H213126   3.520   4.432   1.281  0.8733  0.9637 -0.7105
 4374TIP3   OH213127   0.023   2.138   2.529 -0.2183  0.3006 -0.1251
 4374TIP3    H113128   0.103   2.187   2.510 -0.1840  0.3926  0.2584
 4374TIP3    H213129   0.023   2.127   2.624 -0.5915  0.1768 -0.1372
 4375TIP3   OH213130   5.177   4.679   0.982  0.0031  0.0115  0.1521
 4375TIP3    H113131   5.263   4.677   0.940 -0.3310  0.2718 -0.5548
 4375TIP3    H213132   5.155   4.586   0.994 -0.5226 -0.1255 -1.5794
 4376TIP3   OH213133   2.736   1.479   2.992  0.1773 -0.2409 -0.1927
 4376TIP3    H113134   2.822   1.445   3.014 -0.6087 -1.2796  1.5448
 4376TIP3    H213135   2.693   1.408   2.944 -0.7182 -0.9690  1.5803
 4377TIP3   OH213136   4.172   4.582   3.815 -0.4268 -0.0672 -0.5854
 4377TIP3    H113137   4.120   4.662   3.803  0.7994  1.1268  1.5036
 4377TIP3    H213138   4.128   4.535   3.885  0.4128  0.1774  0.1171
 4378TIP3   OH213139   5.246   5.111   2.810 -1.0312 -0.4431  0.2632
 4378TIP3    H113140   5.293   5.033   2.838 -0.0809  0.3048  0.8074
 4378TIP3    H213141   5.221   5.154   2.891 -1.1233  0.0700 -0.0335
 4379TIP3   OH213142   1.703   4.400   1.801 -0.4988  0.0618 -0.7807
 4379TIP3    H113143   1.750   4.338   1.746 -0.2181  1.0217 -1.6631
 4379TIP3    H213144   1.756   4.480   1.798 -0.9254  0.3982  0.2007
 4380TIP3   OH213145   1.575   3.817   1.959 -0.4571  0.6745 -0.3055
 4380TIP3    H113146   1.664   3.785   1.972 -0.3795  0.5693 -1.0805
 4380TIP3    H213147   1.549   3.850   2.045 -0.0120 -0.1428  0.1567
 4381TIP3   OH213148   1.971   1.991   2.893  0.2557 -0.6881  0.5591
 4381TIP3    H113149   1.959   1.928   2.821  0.8499 -0.5977  0.3725
 4381TIP3    H213150   1.905   2.059   2.877  2.5407  1.1369 -1.9030
 4382TIP3   OH213151   0.674   4.897   1.036 -0.0580 -0.1687  0.4284
 4382TIP3    H113152   0.592   4.862   1.002  0.8871 -0.7549 -1.4226
 4382TIP3    H213153   0.693   4.844   1.113 -1.5394  0.1812  1.0738
 4383TIP3   OH213154   2.976   5.842   3.242  0.2698 -0.5906 -0.4047
 4383TIP3    H113155   2.949   5.934   3.244  3.1611  0.3391  0.7565
 4383TIP3    H213156   2.931   5.803   3.317 -1.1502 -0.2336 -1.0272
 4384TIP3   OH213157   4.208   3.199   2.301  0.1195 -0.2482  0.1099
 4384TIP3    H113158   4.126   3.179   2.255 -0.5637  1.7342  0.3846
 4384TIP3    H213159   4.183   3.205   2.393  0.5374  0.5070  0.1815
 4385TIP3   OH213160   4.855   0.855   3.574 -0.4452 -0.0688 -0.4474
 4385TIP3    H113161   4.854   0.871   3.668 -0.6275  2.2003 -0.7707
 4385TIP3    H213162   4.901   0.772   3.564  2.0602  0.9392  1.4939
 4386TIP3   OH213163   1.729   4.451   2.590  0.1406  0.4091 -0.1247
 4386TIP3    H113164   1.735   4.433   2.684  0.4021  0.3413 -0.1537
 4386TIP3    H213165   1.639   4.479   2.577 -0.0296 -0.0434  0.0660
 4387TIP3   OH213166   6.232   5.632   1.185 -0.0493  0.3120  0.0314
 4387TIP3    H113167   6.150   5.594   1.217  1.3582 -1.7927  1.4021
 4387TIP3    H213168   6.265   5.683   1.259  0.5613 -0.0026 -0.0224
 4388TIP3   OH213169   0.844   1.941   3.360 -0.1720 -0.2609  0.0866
 4388TIP3    H113170   0.830   2.035   3.350 -0.8160 -0.5018 -1.5558
 4388TIP3    H213171   0.920   1.921   3.305 -0.9715 -0.9197 -0.8220
 4389TIP3   OH213172   5.707   3.825   3.198 -0.5061 -0.2461 -0.1553
 4389TIP3    H113173   5.725   3.910   3.238  0.5364 -0.2955 -0.4965
 4389TIP3    H213174   5.645   3.844   3.128 -0.0064  0.2842 -0.4571
 4390TIP3   OH213175   2.861   1.419   2.084  0.0560  0.2850  0.4646
 4390TIP3    H113176   2.885   1.334   2.047 -1.0852  0.6071 -1.1191
 4390TIP3    H213177   2.944   1.456   2.115  0.5831 -1.3374  1.0934
 4391TIP3   OH213178   1.460   5.503   1.758 -0.0244  0.4779  0.2648
 4391TIP3    H113179   1.506   5.554   1.825  0.2864  1.0999 -0.4109
 4391TIP3    H213180   1.378   5.550   1.744 -0.2461  0.1567  0.4353
 4392TIP3   OH213181   0.177   2.421   0.974  0.2863 -0.0217  0.0165
 4392TIP3    H113182   0.257   2.391   0.931 -0.1573  0.9889 -1.6032
 4392TIP3    H213183   0.196   2.412   1.067  1.4456 -1.9179 -0.3243
 4393TIP3   OH213184   1.628   1.207   4.397 -0.8320 -0.0286 -0.3460
 4393TIP3    H113185   1.671   1.123   4.407  0.0169  0.3645 -0.6307
 4393TIP3    H213186   1.674   1.250   4.325  0.1737  1.5502  1.1524
 4394TIP3   OH213187   5.900   2.364   3.656 -0.1428  0.7670 -0.0996
 4394TIP3    H113188   5.909   2.430   3.587 -1.2182  0.9567 -0.0789
 4394TIP3    H213189   5.805   2.352   3.665  0.0096  0.1434  0.7790
 4395TIP3   OH213190   2.201   1.688   0.890  0.3470 -0.0311  0.0807
 4395TIP3    H113191   2.275   1.705   0.832 -0.6343  0.3484 -1.1278
 4395TIP3    H213192   2.127   1.672   0.830 -0.6143 -0.0958  1.2380
 4396TIP3   OH213193   5.490   3.958   3.727 -0.1640  0.5032  0.4082
 4396TIP3    H113194   5.434   3.959   3.649  0.6800  1.0480 -0.2084
 4396TIP3    H213195   5.572   3.997   3.698  0.0611  1.0069  1.6669
 4397TIP3   OH213196   3.388   3.008   3.529  0.4284  0.2766 -0.5888
 4397TIP3    H113197   3.450   3.054   3.586  1.8789 -2.3125  0.0911
 4397TIP3    H213198   3.415   3.032   3.440  1.9464 -0.1734 -0.2775
 4398TIP3   OH213199   5.776   4.076   3.705  0.2926  0.0711 -0.4710
 4398TIP3    H113200   5.869   4.097   3.702 -0.0382  1.7654  0.1471
 4398TIP3    H213201   5.770   4.005   3.769  1.0271  0.8024  0.4322
 4399TIP3   OH213202   1.742   0.948   4.424 -0.4965 -0.2624 -0.5091
 4399TIP3    H113203   1.790   0.907   4.496  0.2219  0.3661 -0.6247
 4399TIP3    H213204   1.703   0.874   4.377 -0.3770 -0.7251  0.0980
 4400TIP3   OH213205   5.504   1.649   3.499  0.2937 -0.0937 -0.2942
 4400TIP3    H113206   5.518   1.561   3.535  0.7793 -0.0737 -0.4264
 4400TIP3    H213207   5.515   1.708   3.573  0.2221 -0.1252 -0.2583
 4401TIP3   OH213208   0.516   4.604   1.297 -0.0861  0.4541  0.1031
 4401TIP3    H113209   0.526   4.530   1.357 -2.3756  0.3478  0.4590
 4401TIP3    H213210   0.581   4.589   1.229  0.0427 -1.4652  0.5936
 4402TIP3   OH213211   0.434   5.207   4.581  0.0821 -0.1112 -0.0199
 4402TIP3    H113212   0.428   5.178   4.490 -0.3822  0.4639 -0.1817
 4402TIP3    H213213   0.438   5.126   4.632  1.7161 -0.4482 -0.6196
 4403TIP3   OH213214   2.990   2.511   3.332 -0.4001 -0.0402  0.2611
 4403TIP3    H113215   3.041   2.584   3.298 -1.5169  1.3325  1.4200
 4403TIP3    H213216   3.000   2.442   3.266 -1.8484  2.1984 -2.5116
 4404TIP3   OH213217   4.701   1.903   3.663  0.0213 -0.4015 -0.0082
 4404TIP3    H113218   4.665   1.825   3.706  1.5654 -2.3741 -2.0811
 4404TIP3    H213219   4.684   1.890   3.570  2.3920  0.5600 -0.6449
 4405TIP3   OH213220   3.543   0.937   1.931 -0.6227  0.0674 -0.0517
 4405TIP3    H113221   3.573   1.001   1.995 -0.8239  0.5053 -0.3916
 4405TIP3    H213222   3.518   0.861   1.984 -1.4264  0.6703  0.4560
 4406TIP3   OH213223   1.223   2.462   1.953 -0.0042  0.1492  0.7442
 4406TIP3    H113224   1.309   2.446   1.991  0.0587  1.1462  1.0411
 4406TIP3    H213225   1.227   2.552   1.919  0.0251 -0.7267 -1.8292
 4407TIP3   OH213226   6.316   0.461   3.430 -0.0048 -0.4027 -0.0018
 4407TIP3    H113227   6.338   0.464   3.336 -0.3263 -2.0445 -0.1602
 4407TIP3    H213228   6.236   0.513   3.437  1.1793  1.5891 -0.2228
 4408TIP3   OH213229   3.554   2.437   4.559 -0.5914  0.0883 -0.5849
 4408TIP3    H113230   3.501   2.467   4.485 -1.9267  0.6829  0.5559
 4408TIP3    H213231   3.581   2.518   4.603  0.7681 -0.2346 -0.8030
 4409TIP3   OH213232   6.342   3.111   4.407 -0.3471 -0.1000 -0.4495
 4409TIP3    H113233   6.278   3.097   4.337  0.2352  1.0004 -1.2343
 4409TIP3    H213234   6.333   3.035   4.464 -3.6888  0.8387  0.5234
 4410TIP3   OH213235   1.851   3.736   2.023  0.5494 -0.0648  0.1583
 4410TIP3    H113236   1.847   3.774   2.111 -1.3141 -1.5927  0.7959
 4410TIP3    H213237   1.849   3.642   2.038  0.2917 -0.3468 -1.5470
 4411TIP3   OH213238   4.241   0.276   0.923 -0.3623 -0.8676  0.1339
 4411TIP3    H113239   4.192   0.282   0.840 -0.8282  0.1352  0.4742
 4411TIP3    H213240   4.331   0.258   0.896 -0.6400 -1.2676 -0.5639
 4412TIP3   OH213241   2.694   5.371   1.433  0.1277 -0.0473 -0.0732
 4412TIP3    H113242   2.607   5.340   1.408 -0.1062 -1.3731  2.1034
 4412TIP3    H213243   2.755   5.309   1.393  0.0239  0.2876 -0.7568
 4413TIP3   OH213244   4.380   5.648   3.310  0.0809 -0.3238  0.4574
 4413TIP3    H113245   4.358   5.731   3.267 -0.3444 -1.1396 -0.9508
 4413TIP3    H213246   4.466   5.664   3.349  0.5784  0.4141 -0.8654
 4414TIP3   OH213247   6.241   0.370   2.075  0.3346 -0.4875 -0.5158
 4414TIP3    H113248   6.196   0.400   1.995 -1.3720  0.7401  0.8104
 4414TIP3    H213249   6.169   0.347   2.135  1.5068  0.3313  1.2744
 4415TIP3   OH213250   2.222   4.668   0.063 -0.4938  0.2717  0.4727
 4415TIP3    H113251   2.152   4.731   0.085 -1.7215 -0.5998 -0.7817
 4415TIP3    H213252   2.191   4.625  -0.016  1.3501 -0.3900  0.0784
 4416TIP3   OH213253   4.040   4.480   4.036 -0.1666  0.3454 -0.1830
 4416TIP3    H113254   4.003   4.459   4.122 -0.9992  2.5232  0.0501
 4416TIP3    H213255   3.964   4.492   3.979  0.3375  0.5002 -0.8345
 4417TIP3   OH213256   0.344   5.836   2.125 -0.0594  0.4166  0.1857
 4417TIP3    H113257   0.306   5.829   2.037 -0.0543  1.3352  0.1049
 4417TIP3    H213258   0.430   5.794   2.117 -0.6254 -0.7849  0.1226
 4418TIP3   OH213259   5.600   4.845   4.156  0.1039 -0.4173  0.3812
 4418TIP3    H113260   5.598   4.794   4.075 -2.9886 -1.2513  0.8640
 4418TIP3    H213261   5.645   4.788   4.219 -1.7234 -1.9200  0.4337
 4419TIP3   OH213262   3.602   4.282   4.502 -0.2115  0.0763  0.8784
 4419TIP3    H113263   3.657   4.278   4.580  0.5369 -1.8737  0.3227
 4419TIP3    H213264   3.628   4.363   4.457  1.0354  0.0108  1.4579
 4420TIP3   OH213265   5.594   2.010   0.220  0.4409  0.6521  0.3785
 4420TIP3    H113266   5.590   2.019   0.125 -1.7169  3.9409  0.6253
 4420TIP3    H213267   5.503   2.008   0.247  1.0211  0.3125  2.4450
 4421TIP3   OH213268   6.278   1.212   4.407  0.6078  0.0381 -0.4171
 4421TIP3    H113269   6.330   1.168   4.474 -0.6011  0.9709  1.2037
 4421TIP3    H213270   6.314   1.300   4.403 -0.6725  0.6417  0.5997
 4422TIP3   OH213271   4.996   1.067   4.262 -0.3608 -0.0148  0.2608
 4422TIP3    H113272   5.036   1.114   4.334  1.5743 -0.7188 -0.2919
 4422TIP3    H213273   4.955   1.135   4.208  1.2117  0.9155  0.1814
 4423TIP3   OH213274   3.367   1.551   4.304  0.0472 -0.4319  0.6279
 4423TIP3    H113275   3.428   1.519   4.237 -0.3276 -2.1747  1.0738
 4423TIP3    H213276   3.305   1.606   4.255  2.2258  1.9305  0.2519
 4424TIP3   OH213277   5.781   2.489   4.328  0.5745  0.2332 -0.0260
 4424TIP3    H113278   5.826   2.441   4.259 -0.2523  0.1099 -0.4985
 4424TIP3    H213279   5.809   2.447   4.409  2.1264  0.8548 -0.2130
 4425TIP3   OH213280   3.205   5.250   4.842  0.3472  0.3938 -0.2438
 4425TIP3    H113281   3.114   5.224   4.830  0.1853  0.4488  0.7479
 4425TIP3    H213282   3.255   5.169   4.831  0.0597  0.1191  0.3864
 4426TIP3   OH213283   1.293   0.722   2.205  0.7871 -0.0445 -0.3102
 4426TIP3    H113284   1.296   0.662   2.280 -0.5486  0.1136 -0.1060
 4426TIP3    H213285   1.371   0.777   2.215  0.1967  0.5319  1.4439
 4427TIP3   OH213286   3.966   2.459   2.563  0.0968  0.3378  0.0143
 4427TIP3    H113287   3.888   2.514   2.571 -0.6891 -0.2477 -2.6529
 4427TIP3    H213288   4.036   2.519   2.537 -0.2558  0.4174 -0.7767
 4428TIP3   OH213289   4.644   4.909   1.455 -0.3196  0.6244  0.3351
 4428TIP3    H113290   4.708   4.963   1.409  0.1086  0.0345  0.2314
 4428TIP3    H213291   4.561   4.926   1.409 -0.4137  1.9755  0.9465
 4429TIP3   OH213292   6.053   1.701   1.452  0.3850  0.3424 -0.0692
 4429TIP3    H113293   6.000   1.676   1.377  2.0329 -1.9303 -0.5739
 4429TIP3    H213294   6.045   1.628   1.513  1.3520  0.8523  0.7109
 4430TIP3   OH213295   5.532   3.359   2.019 -0.3035  0.0115 -0.5401
 4430TIP3    H113296   5.519   3.344   2.113 -0.6598 -0.9590 -0.7435
 4430TIP3    H213297   5.486   3.288   1.976  0.4968  0.0183 -1.4382
 4431TIP3   OH213298   3.664   3.775   4.110 -0.7512 -0.1653  0.1760
 4431TIP3    H113299   3.658   3.803   4.201 -3.1156  0.3069 -0.0768
 4431TIP3    H213300   3.621   3.845   4.061  1.4611  0.1463 -1.4677
 4432TIP3   OH213301   4.671   2.804   0.861  0.3472 -0.2685  0.0392
 4432TIP3    H113302   4.705   2.869   0.922  1.4824 -0.2221 -0.6265
 4432TIP3    H213303   4.698   2.720   0.899  1.5715 -0.2206 -0.6661
 4433TIP3   OH213304   5.923   3.823   0.471 -0.3629  0.0553 -0.0197
 4433TIP3    H113305   5.940   3.895   0.411  3.6933  0.8719  1.8072
 4433TIP3    H213306   5.834   3.840   0.503 -0.4197  2.9437 -1.3808
 4434TIP3   OH213307   3.594   5.511   3.136  0.8494  0.0437 -0.4087
 4434TIP3    H113308   3.674   5.542   3.094  2.5174 -2.8614  0.4450
 4434TIP3    H213309   3.618   5.494   3.227 -1.1351  0.4320  0.2529
 4435TIP3   OH213310   3.330   1.211   1.171 -0.2565 -0.1846  0.1104
 4435TIP3    H113311   3.327   1.272   1.098  0.2109 -0.7815 -0.4156
 4435TIP3    H213312   3.374   1.259   1.241  0.3308  0.0045 -0.3799
 4436TIP3   OH213313   0.271   1.306   3.485 -0.1167  0.0268  0.7800
 4436TIP3    H113314   0.265   1.214   3.458 -0.3361 -0.0003  0.9189
 4436TIP3    H213315   0.227   1.309   3.570  0.0609  0.2238  0.8662
 4437TIP3   OH213316   5.938   4.079   3.102  0.2255 -0.2858 -0.4575
 4437TIP3    H113317   6.009   4.016   3.087  0.2910  0.0486 -1.6641
 4437TIP3    H213318   5.944   4.100   3.195  0.8403 -1.2937 -0.2474
 4438TIP3   OH213319   4.106   1.723   3.534  0.1919  0.4022  0.0593
 4438TIP3    H113320   4.085   1.675   3.614  1.0089 -0.2412 -0.1045
 4438TIP3    H213321   4.034   1.786   3.525 -0.2820  0.0052  0.9079
 4439TIP3   OH213322   4.835   5.046   4.438  0.4597  0.8748  0.7176
 4439TIP3    H113323   4.911   5.064   4.492  1.9971 -1.2182 -0.5684
 4439TIP3    H213324   4.868   4.991   4.367 -1.8693  1.5945 -1.0925
 4440TIP3   OH213325   0.037   5.917   1.669  0.1869 -0.3913  0.2002
 4440TIP3    H113326  -0.054   5.938   1.645  0.2603 -2.6923 -2.6705
 4440TIP3    H213327   0.062   5.986   1.729 -2.7702  1.5689 -0.5811
 4441TIP3   OH213328   6.299   5.134   0.502 -0.1032 -0.2996  0.3928
 4441TIP3    H113329   6.378   5.080   0.494 -0.9399 -1.4066 -0.8851
 4441TIP3    H213330   6.251   5.096   0.575  0.4173  0.2181  1.0118
 4442TIP3   OH213331   2.100   0.224   4.177  0.3321  0.4611 -0.4690
 4442TIP3    H113332   2.087   0.176   4.096  0.5387  0.0947 -0.2875
 4442TIP3    H213333   2.183   0.191   4.212  0.3768  0.8047 -0.2439
 4443TIP3   OH213334   4.619   0.912   4.243 -0.0605 -0.1677  0.4612
 4443TIP3    H113335   4.615   0.861   4.162  0.5725 -0.2613  0.4867
 4443TIP3    H213336   4.637   0.847   4.311  1.3194  0.1388  0.4221
 4444TIP3   OH213337   3.646   0.417   3.303  0.0823 -0.4975  0.0808
 4444TIP3    H113338   3.630   0.351   3.236  0.7390 -0.2676 -0.3122
 4444TIP3    H213339   3.579   0.484   3.286 -1.2954 -1.5361  1.1647
 4445TIP3   OH213340   4.982   2.770   1.158 -0.3998 -0.1187 -0.1277
 4445TIP3    H113341   5.039   2.736   1.227 -0.6903  0.5076  0.4354
 4445TIP3    H213342   4.927   2.834   1.202 -1.5945 -0.7516 -0.6440
 4446TIP3   OH213343   0.328   0.389   2.325 -0.2238  0.3509  0.1720
 4446TIP3    H113344   0.280   0.309   2.346  0.0322 -0.2022 -1.2566
 4446TIP3    H213345   0.419   0.368   2.345 -0.1729  0.3217 -0.0864
 4447TIP3   OH213346   4.800   3.906   2.292 -0.2105 -0.3260 -0.0396
 4447TIP3    H113347   4.741   3.953   2.234 -0.3851 -1.7183 -1.0531
 4447TIP3    H213348   4.742   3.849   2.344  0.1790 -1.6992 -1.0407
 4448TIP3   OH213349   3.777   1.625   0.075  0.2150  0.5476  0.2674
 4448TIP3    H113350   3.842   1.599   0.140  0.1695 -2.9304 -0.8569
 4448TIP3    H213351   3.706   1.663   0.126  0.9675 -0.3488  2.0795
 4449TIP3   OH213352   2.483   2.531   0.681  0.2211 -0.1781  0.2855
 4449TIP3    H113353   2.427   2.608   0.691  0.5617 -0.1076  2.2114
 4449TIP3    H213354   2.570   2.566   0.664  0.0300 -0.2159 -0.7844
 4450TIP3   OH213355   3.132   4.915   0.548  0.3951  0.1115  0.3189
 4450TIP3    H113356   3.091   4.953   0.470  1.7063  0.8450 -0.0584
 4450TIP3    H213357   3.226   4.925   0.531  0.7810 -2.3852  0.6790
 4451TIP3   OH213358   0.496   5.878   0.511 -0.0477  0.3985  0.3618
 4451TIP3    H113359   0.551   5.821   0.565  1.4600  2.1821  0.8319
 4451TIP3    H213360   0.438   5.923   0.573  2.4972  3.3512  0.8809
 4452TIP3   OH213361   4.333   3.802   1.334 -0.3996  0.5114 -0.0113
 4452TIP3    H113362   4.306   3.869   1.397 -0.2201 -0.3590  1.0344
 4452TIP3    H213363   4.253   3.752   1.317 -0.2158  0.0563  0.4162
 4453TIP3   OH213364   1.437   0.215   1.505  0.0796 -0.1025  0.0612
 4453TIP3    H113365   1.355   0.177   1.539 -0.0028 -0.0060 -0.0278
 4453TIP3    H213366   1.427   0.309   1.518  0.6137 -0.1631  0.9996
 4454TIP3   OH213367   3.888   1.438   1.859 -0.1982 -0.5219  0.5457
 4454TIP3    H113368   3.939   1.518   1.843 -0.8806 -0.2909 -0.5756
 4454TIP3    H213369   3.897   1.422   1.953  1.5405 -0.2208  0.4640
 4455TIP3   OH213370   5.500   4.104   0.722 -0.3310  0.8464  0.2596
 4455TIP3    H113371   5.574   4.053   0.688 -0.7033  0.8644 -0.6134
 4455TIP3    H213372   5.427   4.082   0.663 -0.7842  1.5208  0.5595
 4456TIP3   OH213373   2.652   1.317   5.064  0.0147  0.0976  0.3253
 4456TIP3    H113374   2.648   1.360   5.149  0.6466 -2.5497  1.8392
 4456TIP3    H213375   2.694   1.381   5.006  1.6666  1.1985  2.5943
 4457TIP3   OH213376   0.042   5.942   1.399  0.1811  0.5919  0.4738
 4457TIP3    H113377   0.058   5.927   1.492  0.3759  1.8988  0.6639
 4457TIP3    H213378  -0.046   5.906   1.385  0.4764 -0.3706  0.9585
 4458TIP3   OH213379   0.281   1.699   2.298 -0.1307  0.1162 -0.1284
 4458TIP3    H113380   0.351   1.679   2.360  0.6286  1.9717 -0.3359
 4458TIP3    H213381   0.242   1.781   2.329 -1.4907 -0.2889 -0.6483
 4459TIP3   OH213382   4.184   1.247   3.270 -0.5454 -0.0043 -0.0712
 4459TIP3    H113383   4.246   1.180   3.243 -0.7771 -0.0547 -0.4964
 4459TIP3    H213384   4.233   1.305   3.327  0.2252  0.6488 -1.3574
 4460TIP3   OH213385   1.798   0.368   4.362 -0.2759  0.1623 -0.2582
 4460TIP3    H113386   1.729   0.427   4.331  0.0084 -0.3510 -1.9922
 4460TIP3    H213387   1.806   0.387   4.455 -1.3380  1.6767 -0.4381
 4461TIP3   OH213388   4.713   0.367   3.348  0.3205 -0.1428  0.1398
 4461TIP3    H113389   4.744   0.367   3.439  0.7621  0.3375 -0.0078
 4461TIP3    H213390   4.739   0.453   3.314 -2.1316  0.7472  0.3332
 4462TIP3   OH213391   1.067   3.667   0.751  0.0354 -0.2758 -0.2405
 4462TIP3    H113392   1.132   3.612   0.793 -0.5142 -1.2581 -0.6480
 4462TIP3    H213393   1.114   3.748   0.729  0.5721 -0.1174  1.3581
 4463TIP3   OH213394   5.044   5.085   1.177  0.3406 -0.5642  0.1003
 4463TIP3    H113395   5.012   5.166   1.137  2.0131 -0.1027 -0.3897
 4463TIP3    H213396   5.090   5.113   1.256 -2.2979 -1.4148  2.0663
 4464TIP3   OH213397   5.921   5.550   0.451 -0.6340  0.8777 -0.1530
 4464TIP3    H113398   5.854   5.487   0.425 -1.2708  1.9125 -1.1198
 4464TIP3    H213399   5.872   5.619   0.497 -0.3830  2.0206 -1.5342
 4465TIP3   OH213400   5.780   1.981   2.457  0.3801  0.2043  0.6118
 4465TIP3    H113401   5.711   2.010   2.516 -1.7797 -1.4433 -0.9492
 4465TIP3    H213402   5.787   1.887   2.472  1.6405  0.1924  0.0711
 4466TIP3   OH213403   2.650   1.444   0.561  0.2858 -0.3631 -0.1404
 4466TIP3    H113404   2.575   1.434   0.619  2.0027 -1.1446  2.0758
 4466TIP3    H213405   2.628   1.392   0.484 -0.4536 -2.6411  1.5241
 4467TIP3   OH213406   2.222   2.459   2.840 -0.1131  0.0733 -0.9164
 4467TIP3    H113407   2.180   2.396   2.899  1.2257 -0.5151 -0.5405
 4467TIP3    H213408   2.290   2.500   2.894 -0.5173  1.3702 -1.3530
 4468TIP3   OH213409   0.279   5.096   0.580 -0.2965  0.3552  0.0840
 4468TIP3    H113410   0.217   5.025   0.599 -1.3457  0.5480 -2.2613
 4468TIP3    H213411   0.241   5.173   0.623 -0.4284 -0.0095  0.6343
 4469TIP3   OH213412   4.055   1.135   3.818 -0.4190  0.3590 -0.2101
 4469TIP3    H113413   4.034   1.131   3.725 -0.7104 -1.8906 -0.1120
 4469TIP3    H213414   4.147   1.162   3.822 -0.2470 -0.0670 -1.1803
 4470TIP3   OH213415   6.210   5.238   1.928 -0.6700 -0.3048 -0.0991
 4470TIP3    H113416   6.286   5.260   1.875 -0.0741 -0.8902  0.4856
 4470TIP3    H213417   6.241   5.168   1.986 -1.5215 -0.2307  0.4638
 4471TIP3   OH213418   3.536   1.732   0.181 -0.2953 -0.1216 -0.2236
 4471TIP3    H113419   3.488   1.668   0.235  0.7348 -1.2339 -0.5675
 4471TIP3    H213420   3.506   1.817   0.213 -0.5847 -0.7540  1.3082
 4472TIP3   OH213421   2.654   4.348   3.997 -0.1383  0.1275 -0.3555
 4472TIP3    H113422   2.650   4.422   4.057  0.4726  0.9902 -1.3631
 4472TIP3    H213423   2.665   4.387   3.911  0.2535 -1.1397 -0.8976
 4473TIP3   OH213424   2.000   1.706   3.661 -0.3249 -0.4501 -0.1658
 4473TIP3    H113425   1.913   1.738   3.683 -0.2482  0.9653 -1.6943
 4473TIP3    H213426   2.037   1.774   3.604  1.8872 -0.8940  0.6381
 4474TIP3   OH213427   2.158   5.643   2.311  0.0540 -0.1244  0.3750
 4474TIP3    H113428   2.096   5.716   2.319 -0.8771 -0.9649  0.9614
 4474TIP3    H213429   2.161   5.605   2.399  2.6487  0.8635  0.8046
 4475TIP3   OH213430   3.525   4.823   2.871  0.2366  0.2508 -0.1707
 4475TIP3    H113431   3.531   4.754   2.805  3.1458  1.7378 -1.6617
 4475TIP3    H213432   3.612   4.826   2.911 -1.1956 -0.0722  3.3268
 4476TIP3   OH213433   0.710   1.466   4.967 -0.4328  0.7847  0.9151
 4476TIP3    H113434   0.759   1.475   5.049  0.7978  1.2918  0.1509
 4476TIP3    H213435   0.626   1.509   4.984  0.0393  1.4154  1.7187
 4477TIP3   OH213436   1.361   2.538   5.049  0.1177 -0.4225  0.1990
 4477TIP3    H113437   1.274   2.514   5.017 -0.6804  2.9449 -0.5723
 4477TIP3    H213438   1.421   2.511   4.979 -0.9266  1.3479 -1.4954
 4478TIP3   OH213439   5.199   2.718   4.108 -0.0829 -0.1898 -0.1102
 4478TIP3    H113440   5.221   2.796   4.159 -1.7758  0.0082  0.3820
 4478TIP3    H213441   5.258   2.721   4.033  2.3774 -0.4020  1.7196
 4479TIP3   OH213442   5.098   4.997   0.267  0.4673 -0.6385 -0.0842
 4479TIP3    H113443   5.062   4.922   0.313 -2.0589 -1.1678 -2.6089
 4479TIP3    H213444   5.052   5.072   0.302 -0.4181 -0.8720 -0.7121
 4480TIP3   OH213445   1.839   0.635   1.601  0.1915 -0.7005 -0.0033
 4480TIP3    H113446   1.801   0.722   1.592  0.3483 -0.5775  0.5299
 4480TIP3    H213447   1.884   0.620   1.517  0.4088 -0.1529  0.0138
 4481TIP3   OH213448   1.947   4.179   3.935  0.1546  0.2085  0.8105
 4481TIP3    H113449   1.896   4.245   3.889  1.5131  0.6509 -0.1168
 4481TIP3    H213450   1.994   4.227   4.003  3.5937  0.9266 -1.7947
 4482TIP3   OH213451   4.739   1.030   4.510  0.4419 -0.1628 -0.6925
 4482TIP3    H113452   4.695   0.998   4.432 -0.3971 -0.1438 -0.2433
 4482TIP3    H213453   4.776   1.114   4.485  0.5421 -0.3542 -1.1889
 4483TIP3   OH213454   3.191   2.082   3.292 -0.1058  0.0436  0.7372
 4483TIP3    H113455   3.172   2.150   3.357  0.3865 -1.3169  2.3875
 4483TIP3    H213456   3.252   2.024   3.336  0.1627 -1.0123 -0.9450
 4484TIP3   OH213457   2.215   4.779   4.515  0.1786 -0.5549 -0.4329
 4484TIP3    H113458   2.308   4.757   4.505 -0.1057 -1.3438 -1.4603
 4484TIP3    H213459   2.210   4.872   4.491  0.6631 -0.5867 -0.6712
 4485TIP3   OH213460   2.720   0.438   0.885 -0.1582 -0.0082 -0.4566
 4485TIP3    H113461   2.630   0.428   0.853  0.4929 -1.2218 -2.0448
 4485TIP3    H213462   2.743   0.528   0.864 -1.9698  1.3700  2.7699
 4486TIP3   OH213463   0.990   2.238   2.396 -0.3256  0.5752 -0.5751
 4486TIP3    H113464   0.938   2.165   2.360 -0.0061  0.6603 -1.2257
 4486TIP3    H213465   1.007   2.294   2.321 -0.5150  1.2964 -0.0827
 4487TIP3   OH213466   3.480   5.619   2.528 -0.2043 -0.0774  0.0687
 4487TIP3    H113467   3.425   5.571   2.591  0.7681 -0.2407  0.8146
 4487TIP3    H213468   3.464   5.577   2.444  1.1313 -2.1838  0.8047
 4488TIP3   OH213469   4.448   5.713   2.562 -0.4163 -0.0614  0.2465
 4488TIP3    H113470   4.368   5.760   2.541  0.1385  0.1727 -1.4909
 4488TIP3    H213471   4.455   5.719   2.658 -2.6048 -0.3663  0.4736
 4489TIP3   OH213472   0.225   4.569   3.132 -0.6645 -0.4547 -0.1327
 4489TIP3    H113473   0.283   4.497   3.159  0.2975  0.1896 -0.4386
 4489TIP3    H213474   0.283   4.632   3.089 -1.4242  0.7057  0.4992
 4490TIP3   OH213475   3.130   4.842   4.861  0.0132 -0.3844  0.5824
 4490TIP3    H113476   3.158   4.891   4.784 -0.3117 -0.1032  0.6435
 4490TIP3    H213477   3.203   4.782   4.879  0.2759 -0.1429  0.3226
 4491TIP3   OH213478   3.446   2.539   1.754 -0.1575 -0.1904 -0.0020
 4491TIP3    H113479   3.420   2.631   1.749  0.2446 -0.0674  0.1247
 4491TIP3    H213480   3.499   2.534   1.834  3.4596  0.4154 -2.1309
 4492TIP3   OH213481   3.491   5.486   1.549  0.2453 -0.2841 -0.0484
 4492TIP3    H113482   3.482   5.399   1.512  1.7691 -1.1196  1.4287
 4492TIP3    H213483   3.573   5.519   1.513  0.2071  0.1219  0.2321
 4493TIP3   OH213484   3.258   1.029   1.360  0.3336  0.0415 -0.3505
 4493TIP3    H113485   3.319   1.037   1.433 -0.8471 -1.4870  0.8802
 4493TIP3    H213486   3.281   1.101   1.301  1.1628  1.4708  1.6234
 4494TIP3   OH213487   5.421   5.254   4.571 -0.0452 -0.3155  0.2878
 4494TIP3    H113488   5.397   5.281   4.482  0.4359 -0.1610  0.2061
 4494TIP3    H213489   5.497   5.197   4.559 -0.3938 -0.8446  0.5483
 4495TIP3   OH213490   0.695   0.791   2.274  0.0963  0.0056 -0.1004
 4495TIP3    H113491   0.730   0.803   2.185  1.4418  0.6341  0.4738
 4495TIP3    H213492   0.734   0.863   2.324  1.2357 -1.6481  1.5038
 4496TIP3   OH213493   4.964   5.257   0.756  0.5503 -0.0993 -0.5097
 4496TIP3    H113494   5.041   5.303   0.790 -0.3960 -0.4049  2.3396
 4496TIP3    H213495   4.934   5.203   0.830 -2.0096 -0.5052 -1.7402
 4497TIP3   OH213496   2.186   2.828   3.550 -0.0590 -0.0200  0.3249
 4497TIP3    H113497   2.128   2.849   3.477  1.8493  1.3917 -0.8827
 4497TIP3    H213498   2.153   2.745   3.583 -2.6050  0.6067 -0.4053
 4498TIP3   OH213499   4.487   5.182   0.512  0.3166  0.3699  0.5285
 4498TIP3    H113500   4.501   5.168   0.419  2.1873 -1.0286  0.9517
 4498TIP3    H213501   4.500   5.096   0.551  1.1947  1.2166  2.2253
 4499TIP3   OH213502   0.749   2.959   3.028  0.1193 -0.5496  0.7066
 4499TIP3    H113503   0.748   2.936   2.935 -2.9902 -0.6635  0.6621
 4499TIP3    H213504   0.837   2.993   3.043  0.2130  1.1749 -2.7125
 4500TIP3   OH213505   4.106   4.406   2.501 -0.0374 -0.2134 -0.6840
 4500TIP3    H113506   4.014   4.418   2.477 -0.8003 -3.2084  0.2450
 4500TIP3    H213507   4.107   4.414   2.596  0.9528  1.0651 -0.7809
 4501TIP3   OH213508   4.230   4.634   3.533  0.2272 -0.5249 -0.3506
 4501TIP3    H113509   4.240   4.641   3.628  1.4821  0.9856 -0.5546
 4501TIP3    H213510   4.244   4.723   3.501  0.3633 -1.1127 -2.0023
 4502TIP3   OH213511   6.325   0.474   3.165  0.0212 -0.3018 -0.5100
 4502TIP3    H113512   6.302   0.555   3.118  0.5559  0.2048  0.0816
 4502TIP3    H213513   6.348   0.412   3.096  0.2354  0.2516 -0.9470
 4503TIP3   OH213514   4.380   1.843   1.005 -0.6082 -0.0524  0.0517
 4503TIP3    H113515   4.310   1.804   1.057  0.3505  1.2918  2.4983
 4503TIP3    H213516   4.384   1.934   1.035  0.4155  0.6230 -1.9861
 4504TIP3   OH213517   5.967   0.134   0.994  0.4106 -0.0584 -0.2129
 4504TIP3    H113518   6.003   0.051   1.027  0.0482  0.1649  0.7857
 4504TIP3    H213519   5.881   0.110   0.960  0.3785 -0.1212 -0.0889
 4505TIP3   OH213520   5.604   4.721   0.333  0.1053  0.8937  0.3847
 4505TIP3    H113521   5.690   4.746   0.367  0.3145  0.9468 -0.1894
 4505TIP3    H213522   5.588   4.779   0.260  1.1970 -1.4049 -1.8402
 4506TIP3   OH213523   2.340   4.875   0.433 -0.2344  0.8568 -0.0354
 4506TIP3    H113524   2.313   4.947   0.376 -0.4473  0.4307 -0.4734
 4506TIP3    H213525   2.281   4.881   0.509 -0.1371  1.2495  0.0098
 4507TIP3   OH213526   3.193   3.461   3.212  0.1785 -0.1525 -0.6298
 4507TIP3    H113527   3.257   3.453   3.141 -0.4290 -0.4378 -1.1508
 4507TIP3    H213528   3.223   3.400   3.279  0.6638  0.0015 -0.7043
 4508TIP3   OH213529   6.185   2.711   1.735  0.1119 -0.7932  0.7263
 4508TIP3    H113530   6.279   2.710   1.752  0.0107 -0.1689  1.3240
 4508TIP3    H213531   6.178   2.732   1.641  0.5612 -0.6364  0.7258
 4509TIP3   OH213532   0.710   4.225   3.890 -0.2641 -0.4182 -0.5122
 4509TIP3    H113533   0.666   4.150   3.930 -0.1155  0.2106  0.8857
 4509TIP3    H213534   0.798   4.192   3.870 -0.1617 -0.6092  0.1928
 4510TIP3   OH213535   1.213   0.914   3.656  0.2146  0.2079 -0.2132
 4510TIP3    H113536   1.277   0.982   3.677  0.5803 -0.7737  2.1980
 4510TIP3    H213537   1.151   0.916   3.728 -0.2185 -1.4888 -0.4966
 4511TIP3   OH213538   5.005   1.636   2.349  0.1296  0.2390  0.2069
 4511TIP3    H113539   4.975   1.726   2.332  0.5542  0.4888  0.7455
 4511TIP3    H213540   5.078   1.646   2.411  0.5993 -0.4329 -0.2220
 4512TIP3   OH213541   4.120   4.237   1.256  0.2832 -0.4458 -0.0373
 4512TIP3    H113542   4.187   4.271   1.197  0.0487 -0.8176 -0.5327
 4512TIP3    H213543   4.108   4.146   1.228 -0.5640 -0.3298 -0.0862
 4513TIP3   OH213544   3.239   3.467   4.434 -0.5767 -0.0108  0.4619
 4513TIP3    H113545   3.312   3.427   4.481 -0.9412 -1.0052  0.2006
 4513TIP3    H213546   3.273   3.551   4.404  0.5894 -0.6184  0.0233
 4514TIP3   OH213547   0.055   0.459   2.509 -0.4455 -0.4866  0.4985
 4514TIP3    H113548   0.147   0.467   2.483 -0.5663  0.2211  0.2711
 4514TIP3    H213549   0.058   0.454   2.605 -0.1859 -0.2047  0.5068
 4515TIP3   OH213550   1.026   1.397   1.776 -0.0196 -0.5279  0.2731
 4515TIP3    H113551   1.077   1.439   1.846 -0.5019 -0.1344  0.3918
 4515TIP3    H213552   0.943   1.446   1.774 -1.9645 -3.4211  2.5904
 4516TIP3   OH213553   2.931   1.533   1.227 -0.1880 -1.1491  0.1701
 4516TIP3    H113554   2.871   1.462   1.251 -0.3156 -0.4601  2.0257
 4516TIP3    H213555   2.907   1.605   1.285  0.0638  0.3788 -1.5467
 4517TIP3   OH213556   0.077   3.969   0.931  0.0446  0.2564 -0.2057
 4517TIP3    H113557   0.045   3.881   0.947 -0.9692  0.6143 -0.1831
 4517TIP3    H213558   0.073   3.980   0.836 -0.0361  0.3529 -0.1914
 4518TIP3   OH213559   1.906   0.787   1.182 -0.0158  0.4255 -0.3771
 4518TIP3    H113560   1.876   0.708   1.137 -1.3970  0.3006  0.6693
 4518TIP3    H213561   1.851   0.857   1.146 -0.2059  0.5423  0.1226
 4519TIP3   OH213562   0.742   2.675   2.827 -0.5073  0.2425 -0.5090
 4519TIP3    H113563   0.777   2.672   2.916 -1.4623 -1.1302 -0.1468
 4519TIP3    H213564   0.768   2.592   2.787 -0.3447  0.7171 -1.4096
 4520TIP3   OH213565   6.031   0.322   1.547 -0.2663  0.1342 -0.0031
 4520TIP3    H113566   6.033   0.333   1.642 -1.1139  0.4250 -0.0092
 4520TIP3    H213567   6.123   0.317   1.521  0.1013  2.6842  0.5491
 4521TIP3   OH213568   2.411   0.144   5.060 -0.0239  0.1038 -0.0362
 4521TIP3    H113569   2.414   0.223   5.114 -1.9774  1.7173 -2.0878
 4521TIP3    H213570   2.320   0.114   5.066  0.9589 -2.9753  1.8482
 4522TIP3   OH213571   1.259   2.956   2.509 -0.0904 -0.3232  0.6390
 4522TIP3    H113572   1.225   3.045   2.511 -0.6641 -0.3619 -2.8008
 4522TIP3    H213573   1.311   2.951   2.429  0.1235 -3.0263  0.8503
 4523TIP3   OH213574   5.366   1.371   3.276 -0.1488 -0.2261 -0.3604
 4523TIP3    H113575   5.320   1.427   3.339 -0.8922  0.2826 -1.3272
 4523TIP3    H213576   5.346   1.282   3.304  0.5820 -0.0336  0.8624
 4524TIP3   OH213577   5.814   5.797   2.246 -0.3161  0.0485 -0.2114
 4524TIP3    H113578   5.755   5.760   2.180  1.9151  0.5067 -2.6120
 4524TIP3    H213579   5.833   5.885   2.215  0.4247  0.4729  1.3426
 4525TIP3   OH213580   4.866   0.639   0.972  0.0551 -0.6569 -0.6068
 4525TIP3    H113581   4.866   0.735   0.981  1.4632 -0.5697 -1.3553
 4525TIP3    H213582   4.785   0.620   0.924  0.3998  0.2928 -1.6177
 4526TIP3   OH213583   3.802   3.535   4.981 -0.4556 -0.0997  0.1659
 4526TIP3    H113584   3.756   3.452   4.972  2.7988 -2.0002 -0.5952
 4526TIP3    H213585   3.803   3.572   4.893 -0.3740 -0.1534  0.1441
 4527TIP3   OH213586   3.697   4.771   3.676  0.0617 -0.4002  0.1749
 4527TIP3    H113587   3.622   4.764   3.734 -0.1337 -1.8629 -0.2156
 4527TIP3    H213588   3.688   4.697   3.616  1.1348  0.1311 -0.6764
 4528TIP3   OH213589   6.054   0.277   4.882  0.7881  0.3052 -0.0771
 4528TIP3    H113590   6.085   0.317   4.963 -0.6301  0.6479  0.3303
 4528TIP3    H213591   6.104   0.321   4.813  1.4023  0.6137  0.5521
 4529TIP3   OH213592   4.958   3.016   2.603  0.2110 -0.5553 -0.1824
 4529TIP3    H113593   4.941   3.094   2.550 -0.5594 -0.7428 -0.2236
 4529TIP3    H213594   4.874   2.997   2.644  0.3760 -1.4143 -0.2353
 4530TIP3   OH213595   1.341   0.971   4.099 -0.2891 -0.3242 -0.4974
 4530TIP3    H113596   1.266   0.993   4.044 -0.7626 -0.7961 -0.0468
 4530TIP3    H213597   1.346   1.042   4.163  0.5851  0.5071 -1.4491
 4531TIP3   OH213598   2.445   5.458   1.778 -0.1605  0.1434 -0.0321
 4531TIP3    H113599   2.496   5.514   1.837 -1.2274  1.0803  0.0344
 4531TIP3    H213600   2.510   5.413   1.725  0.7554  0.7355  0.5641
 4532TIP3   OH213601   1.151   0.700   3.180  0.6638 -0.3712 -0.8583
 4532TIP3    H113602   1.188   0.675   3.095 -0.7706  0.6190 -1.8088
 4532TIP3    H213603   1.134   0.616   3.224  1.9874 -0.8830 -1.2702
 4533TIP3   OH213604   4.150   3.462   0.529  0.4221 -0.4906  0.0057
 4533TIP3    H113605   4.149   3.393   0.597  0.3270 -1.4358 -0.9309
 4533TIP3    H213606   4.231   3.445   0.480  0.0049 -0.4116 -0.7140
 4534TIP3   OH213607   3.403   0.677   3.590  0.8019 -0.4120 -0.6367
 4534TIP3    H113608   3.337   0.620   3.629 -1.2042  0.7885 -2.0865
 4534TIP3    H213609   3.472   0.683   3.656 -1.2071 -0.5546  1.5920
 4535TIP3   OH213610   4.527   5.903   0.053 -0.5257  0.0093  0.5082
 4535TIP3    H113611   4.451   5.871   0.004 -0.5632  0.7879  0.0498
 4535TIP3    H213612   4.511   5.997   0.064 -0.6315 -0.1870  2.2370
 4536TIP3   OH213613   4.531   5.758   0.294  0.1461 -0.3571 -0.0852
 4536TIP3    H113614   4.535   5.824   0.225  1.1669 -0.0873  0.2093
 4536TIP3    H213615   4.481   5.686   0.256  1.0095 -0.3797 -1.2592
 4537TIP3   OH213616   3.899   3.924   4.249  0.0352 -0.4282 -0.7922
 4537TIP3    H113617   3.986   3.959   4.229  1.2764 -1.2953  2.4806
 4537TIP3    H213618   3.916   3.835   4.280 -1.9548 -0.4269  0.4384
 4538TIP3   OH213619   1.558   4.010   3.422  0.4240  0.4814  0.0957
 4538TIP3    H113620   1.497   3.951   3.379 -0.5286  1.8693 -0.5099
 4538TIP3    H213621   1.561   3.980   3.513 -2.4514  1.3592  0.5580
 4539TIP3   OH213622   3.329   2.313   2.845  0.5390  0.3516 -0.2047
 4539TIP3    H113623   3.336   2.217   2.842 -0.5022  0.2789 -0.5214
 4539TIP3    H213624   3.383   2.338   2.920 -1.0156 -0.6661  1.3167
 4540TIP3   OH213625   4.156   0.590   4.969  0.1200  0.0706  0.0867
 4540TIP3    H113626   4.104   0.574   5.048  0.3779 -0.2870  0.1859
 4540TIP3    H213627   4.246   0.570   4.995  0.2898  0.5659 -0.1204
 4541TIP3   OH213628   3.284   1.309   3.923 -0.2396  0.6250  0.2516
 4541TIP3    H113629   3.245   1.386   3.881 -2.0581 -1.7339 -2.8497
 4541TIP3    H213630   3.230   1.294   4.000 -1.1670  1.3082 -0.2369
 4542TIP3   OH213631   3.836   1.651   2.710 -0.5710  0.6293 -0.9964
 4542TIP3    H113632   3.773   1.629   2.642 -1.0470  1.8789 -0.9923
 4542TIP3    H213633   3.792   1.718   2.763  0.0655  0.2025  0.1128
 4543TIP3   OH213634   1.241   3.739   1.507 -0.1391  1.0019 -0.9063
 4543TIP3    H113635   1.301   3.667   1.490 -1.4709 -0.2796 -0.4073
 4543TIP3    H213636   1.297   3.815   1.520  1.4052 -0.2834  0.2694
 4544TIP3   OH213637   6.110   2.140   0.449 -0.2828 -0.1109 -0.4954
 4544TIP3    H113638   6.168   2.142   0.525  0.6919  2.5530 -1.2031
 4544TIP3    H213639   6.032   2.188   0.478 -1.2378 -1.7049 -0.2842
 4545TIP3   OH213640   0.889   2.209   1.848 -0.1827 -0.2772 -0.0393
 4545TIP3    H113641   0.796   2.213   1.827 -0.0524  1.4141 -0.4584
 4545TIP3    H213642   0.894   2.151   1.924 -1.7246  0.4938  0.6934
 4546TIP3   OH213643   5.407   5.876   4.178  0.2317 -0.1659  0.0444
 4546TIP3    H113644   5.395   5.926   4.097  0.4425  1.4410  0.9496
 4546TIP3    H213645   5.452   5.796   4.151 -0.0712  0.1466 -1.4716
 4547TIP3   OH213646   5.558   4.153   2.453 -0.4181 -0.2933 -0.4821
 4547TIP3    H113647   5.534   4.071   2.498  0.0833 -0.4321 -0.4520
 4547TIP3    H213648   5.507   4.220   2.497  0.1354 -0.4150  0.3824
 4548TIP3   OH213649   0.419   1.747   2.014  0.0844  0.2431 -0.0960
 4548TIP3    H113650   0.461   1.665   1.988  1.0311  0.4740  0.6776
 4548TIP3    H213651   0.362   1.722   2.087  0.1983  0.2346 -0.0097
 4549TIP3   OH213652   5.235   1.548   4.213  0.1364 -0.3393 -0.4690
 4549TIP3    H113653   5.285   1.524   4.291 -0.2946 -0.2427 -0.1645
 4549TIP3    H213654   5.288   1.617   4.171  0.5874 -0.7029 -0.5034
 4550TIP3   OH213655   5.348   1.753   0.516 -0.0691  0.0121  0.1241
 4550TIP3    H113656   5.329   1.795   0.600 -0.1553  2.0959 -0.8717
 4550TIP3    H213657   5.436   1.783   0.494  0.5629 -1.7298  0.1375
 4551TIP3   OH213658   1.666   1.113   3.875  0.0280  0.2410 -0.1995
 4551TIP3    H113659   1.634   1.191   3.920  0.1176 -0.2536  0.7382
 4551TIP3    H213660   1.727   1.073   3.937  1.3912  0.3978 -1.3902
 4552TIP3   OH213661   5.294   3.116   1.371 -0.1035  0.4356 -0.2442
 4552TIP3    H113662   5.255   3.046   1.423 -2.5966  1.3140 -0.7859
 4552TIP3    H213663   5.317   3.075   1.287 -0.6331  0.0442 -0.1998
 4553TIP3   OH213664   4.016   4.810   5.000  0.0219 -0.3651  0.0602
 4553TIP3    H113665   4.093   4.834   4.947  0.7047 -0.4533  0.9910
 4553TIP3    H213666   3.953   4.777   4.936  0.6314  0.0102 -0.7617
 4554TIP3   OH213667   5.677   0.061   5.014  0.1605  0.3236 -0.3055
 4554TIP3    H113668   5.701  -0.024   4.979  1.2033  1.0541 -1.4469
 4554TIP3    H213669   5.742   0.079   5.082 -0.1625  0.1362  0.0539
 4555TIP3   OH213670   6.049   4.261   0.814  0.2081  0.3093  0.1507
 4555TIP3    H113671   6.021   4.170   0.829  0.8283  0.3998  2.3410
 4555TIP3    H213672   6.142   4.261   0.837 -0.0848  1.7273  1.5832
 4556TIP3   OH213673   4.465   3.935   3.208  0.0102 -0.3407  0.2921
 4556TIP3    H113674   4.418   3.854   3.228  1.6332 -0.8690  2.2948
 4556TIP3    H213675   4.396   4.000   3.192 -1.3573 -1.5288  1.1575
 4557TIP3   OH213676   3.333   5.878   0.805  0.0155  0.0659 -0.4810
 4557TIP3    H113677   3.369   5.948   0.751 -0.1869  0.0008 -0.6996
 4557TIP3    H213678   3.342   5.799   0.752  2.7712 -0.5998  0.7857
 4558TIP3   OH213679   3.028   2.422   1.014 -0.0063  0.3826  0.1456
 4558TIP3    H113680   2.981   2.465   0.943 -1.1423  1.5292  1.5451
 4558TIP3    H213681   3.051   2.492   1.074 -0.2907 -0.7284  1.6024
 4559TIP3   OH213682   0.271   0.986   4.340 -0.5959 -0.0221 -0.9497
 4559TIP3    H113683   0.330   1.060   4.328 -0.4374 -0.1412 -0.9048
 4559TIP3    H213684   0.295   0.925   4.271 -2.2333  0.9302 -2.4526
 4560TIP3   OH213685   3.487   5.006   0.860  0.1522 -0.1303  0.2165
 4560TIP3    H113686   3.505   4.942   0.791  2.1752 -0.0262  0.5724
 4560TIP3    H213687   3.535   5.084   0.832 -0.2799  0.4264  0.9876
 4561TIP3   OH213688   2.156   1.271   4.650  0.1614 -0.0101  0.3919
 4561TIP3    H113689   2.198   1.343   4.697 -0.3342  0.5378  0.0133
 4561TIP3    H213690   2.081   1.248   4.704 -0.7909  1.0598 -0.4120
 4562TIP3   OH213691   0.075   0.132   1.684  0.4682  0.4313 -0.7226
 4562TIP3    H113692   0.003   0.086   1.726 -0.1105 -0.1651 -2.2719
 4562TIP3    H213693   0.054   0.225   1.695  0.4925  0.3000  0.5116
 4563TIP3   OH213694   1.516   2.927   3.689 -0.6034 -0.4436  0.1560
 4563TIP3    H113695   1.593   2.960   3.644 -0.5179 -2.8819 -1.6801
 4563TIP3    H213696   1.442   2.957   3.635 -0.7075 -0.8028  0.0946
 4564TIP3   OH213697   2.663   5.085   4.201 -0.3431 -0.1383 -0.3097
 4564TIP3    H113698   2.711   5.167   4.209 -1.5901  0.4896  1.2153
 4564TIP3    H213699   2.624   5.088   4.114  0.7205  0.2361 -0.7910
 4565TIP3   OH213700   5.554   4.633   4.403 -0.2141  0.0296  0.2494
 4565TIP3    H113701   5.610   4.711   4.401  0.4573 -0.4421 -1.9041
 4565TIP3    H213702   5.609   4.564   4.440 -0.5072  0.3288  1.2809
 4566TIP3   OH213703   1.735   3.122   2.465  0.0128 -0.2062 -0.9483
 4566TIP3    H113704   1.793   3.047   2.479  0.2778  0.2678  0.6599
 4566TIP3    H213705   1.792   3.191   2.431  0.3585  0.1669  0.3531
 4567TIP3   OH213706   3.524   0.923   0.675 -0.1889 -0.0869 -0.2293
 4567TIP3    H113707   3.553   1.007   0.710 -1.3131  0.6380 -0.9841
 4567TIP3    H213708   3.432   0.917   0.699 -0.1746 -1.0085 -0.3682
 4568TIP3   OH213709   1.320   3.556   1.145  0.2554 -0.1936  0.1718
 4568TIP3    H113710   1.302   3.462   1.143  0.6730 -0.2752  0.1510
 4568TIP3    H213711   1.308   3.585   1.054  1.0365 -0.4046 -0.0039
 4569TIP3   OH213712   4.224   2.132   4.357 -1.3033  0.3738 -0.1583
 4569TIP3    H113713   4.176   2.086   4.426  2.2676  0.3152  2.6234
 4569TIP3    H213714   4.302   2.078   4.343  0.3477  2.7887 -0.8306
 4570TIP3   OH213715   2.786   3.971   3.738  0.4462 -0.9618 -0.6007
 4570TIP3    H113716   2.731   3.948   3.663  0.5892 -1.7214 -0.4866
 4570TIP3    H213717   2.824   3.887   3.766  0.5060 -0.6670  0.2311
 4571TIP3   OH213718   2.151   0.646   4.162 -0.0786 -0.1892  0.8267
 4571TIP3    H113719   2.126   0.732   4.198  0.0529  0.3397 -0.3041
 4571TIP3    H213720   2.229   0.621   4.211 -0.0135  0.4301  1.0481
 4572TIP3   OH213721   4.500   2.010   2.486  0.0375 -0.1318 -0.0828
 4572TIP3    H113722   4.529   2.029   2.397 -1.5342  0.9981 -0.4142
 4572TIP3    H213723   4.533   2.083   2.538 -3.6171  2.3599 -0.8374
 4573TIP3   OH213724   0.249   4.426   3.478  0.0977 -0.8797  0.3739
 4573TIP3    H113725   0.339   4.459   3.484 -0.3047  0.6143 -1.0914
 4573TIP3    H213726   0.250   4.368   3.402  0.2334 -2.4275  1.5121
 4574TIP3   OH213727   0.297   0.681   0.684  0.3203  0.6531  0.3622
 4574TIP3    H113728   0.375   0.717   0.726  1.0348 -1.6331  1.1692
 4574TIP3    H213729   0.237   0.755   0.676  1.1513  1.7321  3.0735
 4575TIP3   OH213730   1.015   5.837   3.894  0.0829  0.0593 -0.1805
 4575TIP3    H113731   0.930   5.874   3.872 -0.0522  0.4038  0.8641
 4575TIP3    H213732   0.997   5.746   3.919 -0.3991  0.8236  2.5617
 4576TIP3   OH213733   1.230   5.222   4.013  0.3804  0.3346 -0.1701
 4576TIP3    H113734   1.264   5.282   4.079  2.3876 -0.6227 -0.2643
 4576TIP3    H213735   1.255   5.135   4.043 -1.4732 -0.4187 -0.6191
 4577TIP3   OH213736   2.978   0.226   3.687  0.0840 -0.3869  0.4022
 4577TIP3    H113737   2.925   0.150   3.711 -0.7053 -0.1456 -0.4994
 4577TIP3    H213738   3.056   0.190   3.646  1.0844 -0.7784  2.5008
 4578TIP3   OH213739   4.376   3.573   4.746 -0.2746 -0.1447 -0.3068
 4578TIP3    H113740   4.399   3.545   4.835 -1.6704 -0.4104 -0.0063
 4578TIP3    H213741   4.302   3.632   4.759  0.4921  1.0666 -1.1962
 4579TIP3   OH213742   5.321   4.319   4.412  0.1368 -0.4141  0.2961
 4579TIP3    H113743   5.411   4.301   4.438 -0.0382  0.1181  1.3359
 4579TIP3    H213744   5.286   4.374   4.482 -0.6747  0.2802 -0.6208
 4580TIP3   OH213745   2.441   2.008   0.962  0.4065  0.1711 -0.1597
 4580TIP3    H113746   2.390   2.003   1.043 -0.9274  1.1003 -0.8950
 4580TIP3    H213747   2.395   2.073   0.909  0.4989 -1.3130 -2.1790
 4581TIP3   OH213748   4.824   5.656   2.980 -0.3228 -0.7174 -0.6407
 4581TIP3    H113749   4.809   5.699   3.063  2.2358 -1.9341  0.5751
 4581TIP3    H213750   4.757   5.588   2.975 -0.8051 -0.3110  0.1736
 4582TIP3   OH213751   2.196   5.092   4.893  0.1143  0.0960 -0.1862
 4582TIP3    H113752   2.158   5.180   4.890 -1.2020 -0.4361  0.3327
 4582TIP3    H213753   2.170   5.058   4.979  1.6355 -0.3766  0.1293
 4583TIP3   OH213754   3.195   1.405   2.279 -0.0414 -0.2750  0.0679
 4583TIP3    H113755   3.193   1.473   2.346 -0.3341 -0.5035  0.2956
 4583TIP3    H213756   3.184   1.452   2.196  0.1184 -0.0111  0.1945
 4584TIP3   OH213757   6.070   1.858   3.033 -0.0936  0.3424 -0.2753
 4584TIP3    H113758   5.996   1.817   3.077  0.6535 -0.2810  0.4392
 4584TIP3    H213759   6.039   1.945   3.009 -1.2794 -0.1466 -0.6199
 4585TIP3   OH213760   1.031   3.201   0.497 -0.2881  0.0522  0.1662
 4585TIP3    H113761   1.047   3.116   0.457  2.0972 -0.5451  2.1505
 4585TIP3    H213762   0.941   3.196   0.530  0.1703 -2.1638  1.2338
 4586TIP3   OH213763   3.795   2.277   0.945 -0.4339 -0.0821  0.1022
 4586TIP3    H113764   3.825   2.206   0.888 -0.4318  0.1960 -0.2426
 4586TIP3    H213765   3.860   2.346   0.934 -2.5063  1.6311 -2.7353
 4587TIP3   OH213766   2.911   4.464   2.135 -0.1504 -0.6316 -0.1690
 4587TIP3    H113767   2.983   4.403   2.151 -0.1687 -1.6874 -3.4196
 4587TIP3    H213768   2.835   4.407   2.119 -1.5549  0.4420  2.0802
 4588TIP3   OH213769   3.860   0.628   2.888 -0.1571 -0.5657 -0.8785
 4588TIP3    H113770   3.818   0.608   2.804 -1.4491 -2.3442  0.1097
 4588TIP3    H213771   3.811   0.575   2.952  1.8120 -0.5166  0.7645
 4589TIP3   OH213772   4.600   3.742   4.791  0.1777 -0.0424 -0.0712
 4589TIP3    H113773   4.575   3.659   4.749  1.4541 -0.6835  0.4019
 4589TIP3    H213774   4.682   3.767   4.748 -1.1280  1.9994 -1.5570
 4590TIP3   OH213775   5.817   1.447   4.322  0.5104  0.2411  0.6007
 4590TIP3    H113776   5.888   1.508   4.305  0.7798 -0.5050 -1.2061
 4590TIP3    H213777   5.859   1.362   4.331 -0.1537 -0.4734 -2.0137
 4591TIP3   OH213778   1.963   0.884   0.159 -0.4149 -0.0288 -0.0366
 4591TIP3    H113779   1.999   0.842   0.237  0.1735 -0.4773 -0.5389
 4591TIP3    H213780   2.037   0.934   0.122 -0.0787 -1.4796 -1.4461
 4592TIP3   OH213781   2.986   1.068   3.979 -0.4701  0.0212  0.1101
 4592TIP3    H113782   2.964   0.977   3.995  1.5074 -0.2037  1.9506
 4592TIP3    H213783   2.963   1.113   4.060  0.8790  0.6841  0.1537
 4593TIP3   OH213784   1.823   5.849   1.991 -0.4577 -0.6520  0.6714
 4593TIP3    H113785   1.740   5.870   1.949 -0.2281 -1.6766 -0.3696
 4593TIP3    H213786   1.799   5.805   2.072 -0.9110  0.6028  1.2461
 4594TIP3   OH213787   3.216   4.863   0.166  0.0544 -0.0130  0.2098
 4594TIP3    H113788   3.287   4.827   0.113  0.7504 -0.1104  1.1864
 4594TIP3    H213789   3.183   4.789   0.215 -0.3361  0.1518  0.1976
 4595TIP3   OH213790   6.343   5.744   0.291 -0.7448  0.1689  0.4338
 4595TIP3    H113791   6.249   5.727   0.294 -1.0071  1.5473  3.1848
 4595TIP3    H213792   6.379   5.690   0.361 -0.0283  2.0930  1.6279
 4596TIP3   OH213793   3.096   2.617   4.218 -0.0515  0.4612 -0.4652
 4596TIP3    H113794   3.105   2.660   4.133  0.0297  1.4923  0.0420
 4596TIP3    H213795   3.052   2.682   4.273  2.0271  0.7910  0.9453
 4597TIP3   OH213796   1.558   3.030   3.299  0.0165  0.5232 -0.4930
 4597TIP3    H113797   1.621   3.070   3.239 -0.0277  0.6913 -0.4265
 4597TIP3    H213798   1.612   2.979   3.360  0.1152  0.9471 -0.2219
 4598TIP3   OH213799   4.495   2.573   3.886  1.0981  0.5533 -0.3776
 4598TIP3    H113800   4.510   2.526   3.968  0.0332 -0.0382 -0.4929
 4598TIP3    H213801   4.421   2.630   3.905  2.0912  1.8818 -0.3765
 4599TIP3   OH213802   6.160   3.791   3.523  0.2975 -0.5658  0.2044
 4599TIP3    H113803   6.082   3.775   3.575  0.2525 -1.7072 -0.1872
 4599TIP3    H213804   6.127   3.804   3.434  0.5482 -0.9154  0.0612
 4600TIP3   OH213805   2.951   3.666   4.895  0.2288 -0.6313 -0.2370
 4600TIP3    H113806   3.016   3.626   4.836  1.9158  0.9463  0.4474
 4600TIP3    H213807   2.976   3.759   4.898 -1.7079 -0.0933  0.5601
 4601TIP3   OH213808   4.089   1.585   4.063 -0.8234  0.7510  0.0697
 4601TIP3    H113809   4.168   1.580   4.009  1.4360  0.9866  3.1030
 4601TIP3    H213810   4.107   1.654   4.126 -2.9941  0.0221  1.6224
 4602TIP3   OH213811   2.408   0.055   2.315  0.6708 -0.0341 -0.2296
 4602TIP3    H113812   2.494   0.098   2.315  1.3173 -1.2951 -0.1706
 4602TIP3    H213813   2.404   0.009   2.231 -0.5313  1.1030 -0.8389
 4603TIP3   OH213814   1.512   4.596   4.899 -0.5575  0.2602  0.6138
 4603TIP3    H113815   1.539   4.607   4.807  1.9587  0.6265  1.3341
 4603TIP3    H213816   1.430   4.645   4.905  0.7557  2.8816 -0.7821
 4604TIP3   OH213817   6.303   5.379   3.171  0.0703 -0.3065  0.3677
 4604TIP3    H113818   6.270   5.292   3.191 -2.1148  0.8143  2.0761
 4604TIP3    H213819   6.348   5.407   3.250 -0.9861  0.8419  0.5909
 4605TIP3   OH213820   2.171   5.401   4.955  0.1374  0.8701 -0.1911
 4605TIP3    H113821   2.258   5.376   4.988  0.3270 -0.5777 -1.6526
 4605TIP3    H213822   2.129   5.445   5.029  1.5622  0.2641  1.0313
 4606TIP3   OH213823   5.325   0.518   3.217  0.0575  0.0165  0.6581
 4606TIP3    H113824   5.243   0.493   3.259 -0.4762  1.8353  0.7978
 4606TIP3    H213825   5.321   0.479   3.130 -2.0718  1.9575 -0.2006
 4607TIP3   OH213826   3.479   3.645   3.044  0.2113  0.0843 -0.2673
 4607TIP3    H113827   3.538   3.643   2.969 -1.4174 -1.6895 -1.6022
 4607TIP3    H213828   3.446   3.556   3.051 -0.7823  0.5473  1.6953
 4608TIP3   OH213829   3.325   1.201   4.831 -0.6611 -0.1791 -0.0042
 4608TIP3    H113830   3.339   1.116   4.874  0.5067 -0.6717 -1.3035
 4608TIP3    H213831   3.412   1.241   4.828 -1.0477  0.6655 -0.2558
 4609TIP3   OH213832   3.032   5.346   2.014  0.7334 -0.0090  0.9502
 4609TIP3    H113833   3.103   5.406   2.035  0.8723  0.0687  0.2800
 4609TIP3    H213834   3.017   5.297   2.095  2.6748 -1.1803  0.6463
 4610TIP3   OH213835   0.112   2.015   0.953  0.2384  0.2418 -0.5255
 4610TIP3    H113836   0.091   2.060   1.035 -1.4325  0.3715 -0.9859
 4610TIP3    H213837   0.128   1.924   0.979  0.1275  0.3598 -0.0222
 4611TIP3   OH213838   5.249   1.490   3.606  0.3997  0.1477  0.1859
 4611TIP3    H113839   5.264   1.409   3.654  0.9088 -0.3015 -0.7159
 4611TIP3    H213840   5.192   1.465   3.533 -0.6044  0.8756  0.6902
 4612TIP3   OH213841   0.991   0.108   2.136 -0.0712 -0.3735 -0.0615
 4612TIP3    H113842   0.926   0.051   2.096 -0.3104  0.7407 -1.3364
 4612TIP3    H213843   1.075   0.067   2.118 -0.2753 -0.6115 -0.4587
 4613TIP3   OH213844   4.829   2.991   0.585 -0.4054 -0.1777  0.0238
 4613TIP3    H113845   4.742   2.954   0.599 -0.2129 -0.8976 -0.6500
 4613TIP3    H213846   4.888   2.931   0.632 -0.0617 -0.9136 -1.3112
 4614TIP3   OH213847   4.367   0.422   3.971 -0.6685  0.1817 -0.4803
 4614TIP3    H113848   4.420   0.489   4.015  1.2366 -1.0714 -0.7506
 4614TIP3    H213849   4.415   0.403   3.890 -0.4834 -2.3048  0.1339
 4615TIP3   OH213850   2.602   0.740   2.973 -0.2323  0.2017  0.0484
 4615TIP3    H113851   2.573   0.788   3.051 -0.5962  1.4413 -0.8111
 4615TIP3    H213852   2.563   0.788   2.900  0.7763 -0.4293 -0.9400
 4616TIP3   OH213853   5.839   1.879   1.557 -0.2614 -0.3413 -0.1822
 4616TIP3    H113854   5.901   1.829   1.503  0.1045 -0.9640  0.7915
 4616TIP3    H213855   5.756   1.873   1.510 -0.0703 -1.3228 -0.4224
 4617TIP3   OH213856   0.382   4.649   3.664  0.5423 -0.1521  0.1902
 4617TIP3    H113857   0.324   4.693   3.727 -0.9408  0.9627 -1.8592
 4617TIP3    H213858   0.470   4.681   3.687 -0.2053  1.9694  0.3835
 4618TIP3   OH213859   4.545   4.042   4.177 -0.2218  0.2897  0.4322
 4618TIP3    H113860   4.544   4.137   4.175 -1.1134  0.2817 -0.0422
 4618TIP3    H213861   4.508   4.016   4.093 -0.3790 -0.4715  0.7271
 4619TIP3   OH213862   1.766   4.190   3.610  0.1423  0.1443  0.0069
 4619TIP3    H113863   1.820   4.119   3.576  0.0786  0.1012 -0.0045
 4619TIP3    H213864   1.686   4.186   3.558  0.3414  0.5459 -0.3413
 4620TIP3   OH213865   5.109   2.555   2.552 -0.5872 -0.3083  0.1779
 4620TIP3    H113866   5.156   2.510   2.482  0.5010  1.5597 -0.3707
 4620TIP3    H213867   5.044   2.608   2.506  0.1613  0.9653  0.5479
 4621TIP3   OH213868   0.645   1.763   3.187 -0.2221  0.3797  0.1812
 4621TIP3    H113869   0.605   1.678   3.170 -1.1231  1.1315 -1.7253
 4621TIP3    H213870   0.616   1.786   3.275 -0.1135 -1.1853  0.6550
 4622TIP3   OH213871   5.672   4.237   3.060 -0.0016 -0.3185 -0.5710
 4622TIP3    H113872   5.657   4.316   3.009  0.9920  1.1012  1.1963
 4622TIP3    H213873   5.625   4.252   3.142 -0.1780 -1.7838 -0.3771
 4623TIP3   OH213874   5.061   2.136   4.323  0.0793 -0.0244  0.5014
 4623TIP3    H113875   5.114   2.057   4.326  0.8842  0.4563 -0.6553
 4623TIP3    H213876   5.026   2.138   4.234 -0.8965  0.3130  0.8786
 4624TIP3   OH213877   5.814   3.337   0.392  0.5725 -0.0481 -0.1247
 4624TIP3    H113878   5.763   3.337   0.312  0.7656  1.5220 -0.2830
 4624TIP3    H213879   5.756   3.299   0.458 -1.1215  2.2935 -0.1336
 4625TIP3   OH213880   1.418   3.712   3.584  0.1182  0.0559  0.7073
 4625TIP3    H113881   1.397   3.804   3.568 -3.2879 -1.0371 -2.8640
 4625TIP3    H213882   1.488   3.692   3.521 -1.6276 -0.4279 -1.2184
 4626TIP3   OH213883   5.167   0.056   0.293  0.0584 -0.2403  0.0972
 4626TIP3    H113884   5.131  -0.011   0.350  0.4863 -0.9032 -0.3954
 4626TIP3    H213885   5.114   0.133   0.309  1.5277  0.2909  3.0710
 4627TIP3   OH213886   5.830   4.859   5.048 -0.6032  0.2010 -0.6196
 4627TIP3    H113887   5.834   4.926   5.115 -0.3199  0.5942 -1.0206
 4627TIP3    H213888   5.795   4.782   5.092  0.1546  0.2720  0.1268
 4628TIP3   OH213889   5.016   3.070   1.620 -0.2236 -0.3941 -0.3049
 4628TIP3    H113890   5.070   3.148   1.609 -0.8343 -0.0891 -1.2130
 4628TIP3    H213891   4.944   3.098   1.676 -0.6861 -0.1822 -1.0016
 4629TIP3   OH213892   2.698   4.316   2.052  0.3371  0.2197 -0.6353
 4629TIP3    H113893   2.621   4.372   2.040 -0.6815 -1.0366 -0.2783
 4629TIP3    H213894   2.745   4.323   1.969 -0.6574  0.3138 -1.2195
 4630TIP3   OH213895   0.054   4.342   3.189 -0.2044  0.1827  0.7214
 4630TIP3    H113896   0.100   4.380   3.114 -0.3771  0.1782  0.6138
 4630TIP3    H213897  -0.011   4.408   3.213 -0.7014 -0.1618  0.3538
 4631TIP3   OH213898   4.735   3.840   4.130  0.0680  0.1382  0.3109
 4631TIP3    H113899   4.644   3.855   4.104  0.2327  1.1685  0.3065
 4631TIP3    H213900   4.730   3.765   4.189 -0.7000 -0.2279 -0.1970
 4632TIP3   OH213901   4.260   4.536   3.273  0.0360 -0.5694  0.0225
 4632TIP3    H113902   4.259   4.589   3.352 -2.9601 -2.5741  1.5143
 4632TIP3    H213903   4.351   4.511   3.261  0.8638  1.4481  1.6065
 4633TIP3   OH213904   4.444   0.498   4.592 -0.4073 -0.5517 -0.3762
 4633TIP3    H113905   4.432   0.489   4.498 -2.5225 -0.3561 -0.1719
 4633TIP3    H213906   4.412   0.416   4.629 -0.4827 -0.2571  0.2278
 4634TIP3   OH213907   3.352   0.058   4.946 -0.4153 -0.3482  0.8690
 4634TIP3    H113908   3.352  -0.002   5.021 -1.8373 -0.5533  0.7216
 4634TIP3    H213909   3.276   0.032   4.894  0.1472  0.2469 -0.2932
 4635TIP3   OH213910   3.560   4.151   1.819 -0.1326  0.1546  0.0799
 4635TIP3    H113911   3.538   4.100   1.897  1.0406  0.7599  0.8356
 4635TIP3    H213912   3.533   4.241   1.840  0.5895  0.4041 -0.0213
 4636TIP3   OH213913   2.654   4.218   4.679 -0.4422  0.2335 -0.3792
 4636TIP3    H113914   2.679   4.302   4.717  1.0236 -0.0339 -0.6925
 4636TIP3    H213915   2.577   4.190   4.730  0.6409  0.5209  1.4836
 4637TIP3   OH213916   2.433   5.613   4.637  0.4764 -0.0975  0.4347
 4637TIP3    H113917   2.486   5.692   4.647  1.0568 -0.2790 -0.9466
 4637TIP3    H213918   2.406   5.613   4.545  0.6079 -1.5702  0.3645
 4638TIP3   OH213919   4.655   3.336   1.656 -0.5486 -0.0617  0.0531
 4638TIP3    H113920   4.593   3.392   1.703  1.8062  0.4386  2.8852
 4638TIP3    H213921   4.705   3.396   1.602  0.2406  0.2187  1.0686
 4639TIP3   OH213922   6.265   0.117   0.674  0.9406  0.1488 -0.3051
 4639TIP3    H113923   6.260   0.164   0.757 -2.0056  0.0155 -0.3216
 4639TIP3    H213924   6.270   0.186   0.607  0.3711  0.3461 -0.1465
 4640TIP3   OH213925   0.139   4.405   0.359 -0.4867  0.3662 -0.1484
 4640TIP3    H113926   0.066   4.467   0.351 -1.3441 -0.7161 -1.2348
 4640TIP3    H213927   0.099   4.327   0.399  1.0289  1.1676  3.3383
 4641TIP3   OH213928   6.258   1.831   3.279  0.4541 -0.3270  0.0971
 4641TIP3    H113929   6.191   1.866   3.219  0.0581  0.6796  1.1019
 4641TIP3    H213930   6.212   1.764   3.329  1.1962 -2.3687 -1.7814
 4642TIP3   OH213931   2.185   3.639   3.360  0.5178  0.4720 -0.5108
 4642TIP3    H113932   2.193   3.682   3.275 -0.2890  1.3692 -0.1523
 4642TIP3    H213933   2.275   3.613   3.382  0.8157  0.7233 -1.3841
 4643TIP3   OH213934   5.942   0.384   4.259  0.2395 -0.1393  0.3940
 4643TIP3    H113935   5.926   0.478   4.264  0.3584 -0.1137  0.3148
 4643TIP3    H213936   5.860   0.347   4.229 -0.4255 -0.2748  2.2521
 4644TIP3   OH213937   3.160   0.073   1.230  0.3040 -0.2309  0.1871
 4644TIP3    H113938   3.211   0.028   1.163 -0.2465 -0.0700 -0.3508
 4644TIP3    H213939   3.079   0.021   1.237  0.3514 -0.2414  0.7189
 4645TIP3   OH213940   5.924   3.934   2.806 -0.2712 -0.1495  0.4062
 4645TIP3    H113941   5.943   3.942   2.713  0.3967 -0.0430  0.5485
 4645TIP3    H213942   5.847   3.877   2.810 -1.7795  1.7031 -0.3471
 4646TIP3   OH213943   0.070   2.427   3.661  0.5095  0.0987  0.4585
 4646TIP3    H113944   0.075   2.485   3.585  0.0900 -1.3789 -0.7305
 4646TIP3    H213945   0.158   2.388   3.667  0.3938 -0.1721  0.4082
 4647TIP3   OH213946   6.237   2.172   4.218 -0.8039 -0.6004 -0.1207
 4647TIP3    H113947   6.155   2.125   4.203  0.2070 -2.5921  0.2030
 4647TIP3    H213948   6.278   2.174   4.131 -0.4930 -1.0665  0.0091
 4648TIP3   OH213949   5.887   3.566   0.620  0.4450  0.0750 -0.0051
 4648TIP3    H113950   5.810   3.572   0.564  0.3783 -2.6691 -0.3622
 4648TIP3    H213951   5.960   3.586   0.562  0.1908 -0.2615 -0.4500
 4649TIP3   OH213952   0.947   4.381   1.109  0.3409 -0.1391 -0.0129
 4649TIP3    H113953   1.022   4.378   1.169  1.9431  0.8127 -1.8532
 4649TIP3    H213954   0.875   4.343   1.159  1.1983  1.9194  3.0222
 4650TIP3   OH213955   0.720   4.213   4.375 -0.4330 -0.1064 -0.1790
 4650TIP3    H113956   0.758   4.221   4.288  2.2512 -0.0532  0.8837
 4650TIP3    H213957   0.699   4.302   4.401  2.4503  0.4241  0.6474
 4651TIP3   OH213958   5.342   4.528   4.869  0.1899 -0.3612  0.0969
 4651TIP3    H113959   5.375   4.533   4.959  0.8605  0.6606 -0.1812
 4651TIP3    H213960   5.421   4.518   4.816  0.0018  1.0941 -0.5113
 4652TIP3   OH213961   2.340   5.181   3.899 -0.5201  0.0175 -0.0058
 4652TIP3    H113962   2.427   5.155   3.870 -1.2421 -1.0899 -1.2906
 4652TIP3    H213963   2.353   5.209   3.990  1.1339 -0.2972 -0.1063
 4653TIP3   OH213964   0.058   1.582   0.807 -0.0816  0.3854 -0.1174
 4653TIP3    H113965   0.113   1.612   0.734  1.0273 -0.2576  0.4307
 4653TIP3    H213966  -0.031   1.587   0.773  0.3760  0.5390 -1.3597
 4654TIP3   OH213967   0.024   1.386   3.922  0.1991 -0.1493  0.5374
 4654TIP3    H113968  -0.039   1.383   3.850  1.5483 -1.3714 -0.6819
 4654TIP3    H213969   0.031   1.295   3.951  0.4894  0.1652  1.5013
 4655TIP3   OH213970   3.322   0.148   3.337 -0.2776  0.1967 -0.7692
 4655TIP3    H113971   3.232   0.148   3.305 -0.5947 -0.2039  0.1002
 4655TIP3    H213972   3.370   0.200   3.272 -1.5592  2.4062 -0.0342
 4656TIP3   OH213973   6.208   2.960   3.520  0.3867 -0.0537 -0.3737
 4656TIP3    H113974   6.272   2.988   3.454  0.9793 -0.9503 -0.1884
 4656TIP3    H213975   6.216   3.025   3.590  0.9922 -0.0713 -0.4219
 4657TIP3   OH213976   1.641   4.877   5.079  0.0380 -0.4806 -0.5738
 4657TIP3    H113977   1.671   4.917   4.997 -0.7706 -0.5393 -0.9045
 4657TIP3    H213978   1.648   4.782   5.064 -0.1788 -0.4922 -0.5981
 4658TIP3   OH213979   5.163   1.865   3.957 -0.1060  0.6832 -1.1288
 4658TIP3    H113980   5.192   1.804   4.025 -1.9323  0.9697 -0.0336
 4658TIP3    H213981   5.212   1.838   3.879  1.4698 -0.1499  0.0832
 4659TIP3   OH213982   5.924   5.437   2.970  0.0924 -0.1199  0.0762
 4659TIP3    H113983   5.871   5.435   3.050  0.0181  0.5454  0.0519
 4659TIP3    H213984   5.985   5.510   2.985  1.9327 -1.7125  0.6907
 4660TIP3   OH213985   2.736   0.021   1.613  0.3826  0.1225 -0.3002
 4660TIP3    H113986   2.825   0.013   1.578  0.8136 -0.8993  0.9454
 4660TIP3    H213987   2.734   0.108   1.652  0.6126  0.4211 -0.9457
 4661TIP3   OH213988   4.545   2.397   2.131  0.5397 -0.5506 -0.2474
 4661TIP3    H113989   4.589   2.465   2.081  1.5334 -1.9946 -1.4440
 4661TIP3    H213990   4.451   2.416   2.120  0.7936  0.6290 -0.4954
 4662TIP3   OH213991   4.616   5.437   1.804  0.2419 -0.0435  0.0441
 4662TIP3    H113992   4.523   5.415   1.801 -0.0225  0.9370  0.5869
 4662TIP3    H213993   4.656   5.380   1.738 -0.9234  0.3401 -1.0419
 4663TIP3   OH213994   0.464   3.456   3.741 -0.0606  0.0269  0.4136
 4663TIP3    H113995   0.388   3.474   3.796  0.4268 -0.8672  1.4068
 4663TIP3    H213996   0.533   3.431   3.802  1.0985  0.9616 -0.4511
 4664TIP3   OH213997   1.334   2.103   1.870  0.5857  0.2059 -0.3043
 4664TIP3    H113998   1.405   2.068   1.816  0.4699  0.7988 -0.8609
 4664TIP3    H213999   1.365   2.189   1.897  0.3130  0.2303 -0.0706
 4665TIP3   OH214000   3.945   1.608   3.781  0.1283 -0.3075 -0.0843
 4665TIP3    H114001   4.029   1.561   3.777  0.0200 -0.4778 -0.4006
 4665TIP3    H214002   3.885   1.553   3.731  0.2512  0.6700 -1.3678
 4666TIP3   OH214003   2.755   1.226   0.109  0.5054 -0.2034  0.4996
 4666TIP3    H114004   2.817   1.165   0.149  1.2097  0.7975  0.9699
 4666TIP3    H214005   2.677   1.173   0.091  1.4932 -1.4724 -0.1055
 4667TIP3   OH214006   4.126   4.870   1.764  0.2495 -0.1231  0.2510
 4667TIP3    H114007   4.101   4.962   1.752  0.1204 -0.1810  0.0574
 4667TIP3    H214008   4.096   4.827   1.684  1.8006 -0.0371 -0.3941
 4668TIP3   OH214009   0.351   3.089   4.315  0.2018 -0.1047  0.3595
 4668TIP3    H114010   0.432   3.058   4.356 -0.1514 -0.5836  0.7003
 4668TIP3    H214011   0.283   3.072   4.380  0.3090  3.9860  1.8962
 4669TIP3   OH214012   5.636   5.609   0.841 -0.2505  0.0609 -0.3983
 4669TIP3    H114013   5.627   5.599   0.936 -0.1751 -1.4832 -0.5380
 4669TIP3    H214014   5.650   5.703   0.829  0.2498  0.2185  1.1537
 4670TIP3   OH214015   3.980   3.085   1.222  0.1693  0.0777  0.3978
 4670TIP3    H114016   3.968   3.175   1.193  3.6688  0.5267 -0.0712
 4670TIP3    H214017   3.967   3.089   1.317 -0.6745  0.8412  0.2663
 4671TIP3   OH214018   3.089   2.646   1.170 -0.3743 -0.0202  0.1980
 4671TIP3    H114019   3.156   2.631   1.236  0.0441  1.8052  0.2254
 4671TIP3    H214020   3.089   2.741   1.155 -2.2348 -0.0796 -0.5469
 4672TIP3   OH214021   3.277   4.543   1.695 -0.7157  0.4366 -0.2000
 4672TIP3    H114022   3.316   4.630   1.705 -1.3845  0.6243  0.8755
 4672TIP3    H214023   3.286   4.524   1.602 -0.0899  1.4351 -0.3604
 4673TIP3   OH214024   1.105   2.202   0.911  0.2839  0.0142  0.0787
 4673TIP3    H114025   1.046   2.140   0.954 -1.4007 -1.0883 -3.4284
 4673TIP3    H214026   1.049   2.277   0.890  1.7057  1.7179  2.0186
 4674TIP3   OH214027   3.599   1.345   1.886  0.8337 -0.3619  0.6460
 4674TIP3    H114028   3.592   1.263   1.837  0.5840  0.9710 -1.7213
 4674TIP3    H214029   3.683   1.382   1.859 -0.3343  1.4923 -0.6763
 4675TIP3   OH214030   2.782   0.054   2.371 -0.2098  0.4023 -0.1039
 4675TIP3    H114031   2.846   0.051   2.300 -2.4922 -0.7764 -2.2536
 4675TIP3    H214032   2.818  -0.005   2.437  0.9412 -0.2144 -1.2238
 4676TIP3   OH214033   3.218   5.809   4.092 -0.1942  0.7699  0.1775
 4676TIP3    H114034   3.238   5.730   4.041 -3.4401  0.8063 -1.4366
 4676TIP3    H214035   3.299   5.859   4.092  1.4258 -1.6601 -0.4266
 4677TIP3   OH214036   2.004   2.236   1.792 -0.3160 -0.3302 -0.3274
 4677TIP3    H114037   1.913   2.213   1.771 -0.6172 -0.2663  0.8383
 4677TIP3    H214038   2.022   2.189   1.873  0.7747 -0.5157 -0.6736
 4678TIP3   OH214039   2.069   1.667   4.829 -0.7104  0.1545 -0.2331
 4678TIP3    H114040   2.138   1.681   4.894 -0.4894 -0.5691 -0.3053
 4678TIP3    H214041   2.114   1.673   4.745 -1.0270  1.2686 -0.3383
 4679TIP3   OH214042   0.066   4.836   4.899  0.0681 -0.2775 -0.2377
 4679TIP3    H114043   0.039   4.775   4.832  1.8191 -1.4622  0.0648
 4679TIP3    H214044   0.032   4.921   4.870 -1.7598 -1.2421 -1.0474
 4680TIP3   OH214045   1.089   1.666   3.272 -1.1783 -0.5059  0.0448
 4680TIP3    H114046   1.111   1.722   3.347 -2.0828 -0.8726  0.6069
 4680TIP3    H214047   1.024   1.716   3.223 -1.0745 -0.5432 -0.1301
 4681TIP3   OH214048   1.151   3.205   2.565 -0.0468 -0.3509  0.0217
 4681TIP3    H114049   1.229   3.250   2.594 -0.7574  1.7138 -1.0821
 4681TIP3    H214050   1.078   3.260   2.593 -1.2007 -2.3863  1.3248
 4682TIP3   OH214051   2.056   1.310   0.634  0.7351  0.4964  0.3755
 4682TIP3    H114052   1.992   1.359   0.687  1.4473  0.4804  1.2848
 4682TIP3    H214053   2.134   1.305   0.690  0.9851 -0.9012 -0.0559
 4683TIP3   OH214054   3.983   0.823   2.502  0.1034 -0.0747  0.1791
 4683TIP3    H114055   4.050   0.862   2.559 -0.0762  0.9883 -0.3026
 4683TIP3    H214056   3.920   0.893   2.489  0.1272 -0.2941 -1.2966
 4684TIP3   OH214057   2.501   3.668   3.195 -0.2223  0.1983  0.3320
 4684TIP3    H114058   2.556   3.716   3.258 -0.3722 -0.9842  1.4117
 4684TIP3    H214059   2.562   3.638   3.128  0.3863 -0.6247  1.2266
 4685TIP3   OH214060   1.094   5.648   2.800  0.3092 -0.0303  0.4940
 4685TIP3    H114061   1.047   5.732   2.797 -1.3733 -0.9548 -0.6668
 4685TIP3    H214062   1.186   5.673   2.793 -0.1110  1.7532  0.7080
 4686TIP3   OH214063   5.927   5.467   0.965  0.0717 -0.2349  0.2546
 4686TIP3    H114064   5.848   5.415   0.979  1.3528 -2.4656 -0.3544
 4686TIP3    H214065   5.925   5.489   0.871  0.0941 -0.1556  0.2726
 4687TIP3   OH214066   5.928   4.751   3.431 -0.4941  0.5233 -1.1004
 4687TIP3    H114067   5.913   4.770   3.338 -0.2709  1.8397 -0.8848
 4687TIP3    H214068   6.004   4.804   3.454 -0.4462  0.0771 -0.2039
 4688TIP3   OH214069   5.792   3.213   4.579 -0.0326  0.8485 -0.1121
 4688TIP3    H114070   5.852   3.285   4.598 -1.3459  2.0568 -0.3378
 4688TIP3    H214071   5.719   3.255   4.534  0.2969 -1.0155 -2.5944
 4689TIP3   OH214072   1.999   5.227   3.437 -0.2405  0.2316  0.2528
 4689TIP3    H114073   2.051   5.148   3.422  2.4323  1.9048  0.2118
 4689TIP3    H214074   1.950   5.208   3.517  0.5162 -1.3813  0.3663
 4690TIP3   OH214075   2.233   0.749   0.220  0.0507 -0.0366 -0.1595
 4690TIP3    H114076   2.169   0.681   0.242  0.0888 -1.0665 -2.9121
 4690TIP3    H214077   2.283   0.762   0.301 -2.0205 -0.9670  1.3437
 4691TIP3   OH214078   0.940   0.351   4.491 -0.0495  0.1996  0.3575
 4691TIP3    H114079   0.893   0.408   4.551  0.8054 -0.2956  1.5519
 4691TIP3    H214080   0.985   0.410   4.431 -0.0316  0.7486  0.9024
 4692TIP3   OH214081   3.941   0.872   3.685 -0.3430  0.0791  0.0777
 4692TIP3    H114082   3.875   0.875   3.754 -1.5050  0.3853 -1.0233
 4692TIP3    H214083   3.920   0.946   3.628  0.7844  0.0129 -0.4478
 4693TIP3   OH214084   3.487   3.259   4.461 -0.2299 -0.1141  0.0570
 4693TIP3    H114085   3.451   3.215   4.384  2.5631 -1.3110 -0.6668
 4693TIP3    H214086   3.448   3.211   4.535 -1.0391 -0.5641 -0.6417
 4694TIP3   OH214087   1.941   0.452   3.083 -0.2665  0.4149  0.4793
 4694TIP3    H114088   1.914   0.490   2.999  0.7899 -2.0734 -1.0826
 4694TIP3    H214089   2.013   0.508   3.113 -0.9044  1.5551 -0.0447
 4695TIP3   OH214090   4.761   3.044   0.995  0.1173 -0.4399  0.5288
 4695TIP3    H114091   4.847   3.038   1.035  0.1421  2.4930  1.1151
 4695TIP3    H214092   4.767   3.119   0.936 -2.1489  0.1589  0.9718
 4696TIP3   OH214093   6.077   3.861   4.424 -0.0229  0.2748  0.0636
 4696TIP3    H114094   6.047   3.785   4.376  2.0649  0.1591 -1.1519
 4696TIP3    H214095   6.056   3.935   4.367 -2.0224  0.7001  1.2289
 4697TIP3   OH214096   2.068   0.505   0.258 -0.1692 -0.0889 -0.3379
 4697TIP3    H114097   2.041   0.415   0.240  0.1155 -0.1638 -0.3872
 4697TIP3    H214098   2.098   0.504   0.349 -1.6529  0.2991  0.1939
 4698TIP3   OH214099   4.930   0.633   1.763 -0.2853 -0.0167  0.3647
 4698TIP3    H114100   4.860   0.570   1.748  0.4685 -0.5632 -1.0853
 4698TIP3    H214101   4.949   0.669   1.676  1.3943 -0.0944  0.6587
 4699TIP3   OH214102   3.100   0.733   4.547 -0.6038  0.0391  0.6705
 4699TIP3    H114103   3.135   0.822   4.554  0.9080 -0.5649  1.4366
 4699TIP3    H214104   3.159   0.689   4.485 -0.3737 -0.8383  1.4873
 4700TIP3   OH214105   0.285   4.023   2.966  0.1047  0.3926  0.5844
 4700TIP3    H114106   0.280   4.106   2.920 -0.7981 -0.1261 -0.2886
 4700TIP3    H214107   0.204   4.020   3.018 -0.1677 -0.1947  0.1384
 4701TIP3   OH214108   2.047   0.033   0.399  0.3477 -0.1915  0.4137
 4701TIP3    H114109   2.104   0.080   0.460  0.0231  0.9897 -0.1691
 4701TIP3    H214110   2.094  -0.049   0.381  2.3342  1.0928 -0.7091
 4702TIP3   OH214111   3.424   4.692   5.193  0.1480  0.1390 -0.3992
 4702TIP3    H114112   3.403   4.598   5.191  2.2385 -0.4455  1.2875
 4702TIP3    H214113   3.416   4.720   5.102 -1.0469 -1.5372 -0.8631
 4703TIP3   OH214114   3.699   5.772   3.341 -0.1867  0.2789 -0.2255
 4703TIP3    H114115   3.696   5.676   3.345 -0.2304  0.3048  0.9486
 4703TIP3    H214116   3.777   5.792   3.290  0.2826 -0.3866  0.2207
 4704TIP3   OH214117   3.075   0.239   0.996  0.4521  0.3200 -0.4972
 4704TIP3    H114118   3.058   0.232   1.090  0.2750 -0.3042 -0.5705
 4704TIP3    H214119   3.161   0.200   0.983 -0.0321 -0.7106 -0.7488
 4705TIP3   OH214120   4.479   1.753   3.753  0.5540 -0.1482  0.1404
 4705TIP3    H114121   4.397   1.779   3.795  0.4099  0.4593 -0.4933
 4705TIP3    H214122   4.452   1.700   3.678  0.8586 -2.5478  1.6445
 4706TIP3   OH214123   2.494   2.294   0.837 -0.4428  0.4818  0.4281
 4706TIP3    H114124   2.490   2.370   0.779 -2.4524 -0.0443 -0.2043
 4706TIP3    H214125   2.520   2.330   0.922 -3.1801  2.2675  0.6458
 4707TIP3   OH214126   2.322   2.083   1.543 -0.1564  0.3085  0.0554
 4707TIP3    H114127   2.411   2.050   1.553 -0.3780 -0.0212  1.1199
 4707TIP3    H214128   2.271   2.006   1.518 -0.3486  0.2154  0.7004
 4708TIP3   OH214129   1.363   2.944   1.038 -0.4150 -0.2775  0.3354
 4708TIP3    H114130   1.369   2.858   0.996  0.8073 -1.5543  2.8415
 4708TIP3    H214131   1.269   2.964   1.037 -0.8960 -2.2430  0.7234
 4709TIP3   OH214132   0.937   3.932   2.642  0.4107 -0.4152  0.3727
 4709TIP3    H114133   0.945   4.026   2.631 -0.0200 -0.1689  1.9204
 4709TIP3    H214134   0.960   3.895   2.557 -0.6041  1.1426 -0.6224
 4710TIP3   OH214135   4.590   2.525   3.516  0.7432  0.2681  0.5228
 4710TIP3    H114136   4.642   2.582   3.573 -0.2593  2.4658 -0.6518
 4710TIP3    H214137   4.549   2.462   3.576  2.1504  0.5457  1.8336
 4711TIP3   OH214138   5.755   2.127   0.500  0.3776 -0.5013  0.0664
 4711TIP3    H114139   5.769   2.035   0.524  1.2930 -0.2785  0.4147
 4711TIP3    H214140   5.709   2.123   0.416  1.8516 -1.2805 -0.7429
 4712TIP3   OH214141   3.082   5.094   1.484  0.6414 -0.0646  0.1261
 4712TIP3    H114142   3.111   5.184   1.469 -0.4853  0.1948 -0.6147
 4712TIP3    H214143   3.140   5.040   1.430  1.6696  0.1439  0.9843
 4713TIP3   OH214144   2.326   4.418   3.383  0.7359  0.0970 -0.4968
 4713TIP3    H114145   2.379   4.364   3.324 -0.8884 -0.6174 -1.3771
 4713TIP3    H214146   2.243   4.371   3.390  0.1502  1.2364  0.7421
 4714TIP3   OH214147   5.993   2.486   2.619 -0.5151  0.1089  0.0541
 4714TIP3    H114148   6.089   2.484   2.625 -0.2610  0.9913 -2.4489
 4714TIP3    H214149   5.971   2.404   2.575 -0.5078  1.3391 -2.4243
 4715TIP3   OH214150   4.000   4.266   4.519  0.1676 -0.5424  0.0086
 4715TIP3    H114151   3.978   4.225   4.435  2.2133  0.4520 -1.0647
 4715TIP3    H214152   4.086   4.232   4.541  0.5896  0.8558  0.6142
 4716TIP3   OH214153   5.403   1.559   0.275 -0.0685  0.1031  0.0476
 4716TIP3    H114154   5.410   1.621   0.348 -0.4119  0.5843 -0.3223
 4716TIP3    H214155   5.431   1.608   0.199 -1.5902  0.2393 -0.4712
 4717TIP3   OH214156   0.189   3.476   0.592  0.5008 -0.2573  0.3860
 4717TIP3    H114157   0.210   3.535   0.520 -2.3977  1.8950  1.0920
 4717TIP3    H214158   0.128   3.412   0.554  0.7724 -0.5436  0.4291
 4718TIP3   OH214159   0.320   1.689   3.071 -0.3183 -0.0694 -0.4000
 4718TIP3    H114160   0.260   1.738   3.128  1.0590  1.0304  0.1646
 4718TIP3    H214161   0.390   1.660   3.129 -0.3619 -1.4865 -1.0195
 4719TIP3   OH214162   4.059   3.209   2.577 -0.3273 -0.0702 -0.7735
 4719TIP3    H114163   4.094   3.286   2.621 -1.5695  0.1154 -0.0725
 4719TIP3    H214164   3.968   3.231   2.559 -0.9208 -1.6303  0.1091
 4720TIP3   OH214165   6.289   2.896   4.613 -0.4928  0.1522  0.6892
 4720TIP3    H114166   6.238   2.818   4.637 -2.1982  0.7670 -0.7384
 4720TIP3    H214167   6.265   2.961   4.679 -0.9096  0.1800  0.5138
 4721TIP3   OH214168   0.212   3.438   2.106  0.2285 -0.4180 -0.2482
 4721TIP3    H114169   0.209   3.484   2.022  0.7596  0.0928  0.0120
 4721TIP3    H214170   0.297   3.396   2.107  0.1077 -0.6591 -0.0853
 4722TIP3   OH214171   3.251   3.887   0.822 -0.2600 -0.1254 -0.0261
 4722TIP3    H114172   3.180   3.865   0.763  1.1724 -1.3336 -1.4077
 4722TIP3    H214173   3.321   3.919   0.765  1.0406 -0.9729  1.0184
 4723TIP3   OH214174   0.451   5.864   2.507 -0.4142  0.7896 -0.2123
 4723TIP3    H114175   0.427   5.772   2.517  0.4153  0.5937 -0.0224
 4723TIP3    H214176   0.375   5.903   2.463 -0.8358  0.0537 -0.1562
 4724TIP3   OH214177   2.840   3.921   1.253 -0.4590 -0.1612 -0.5367
 4724TIP3    H114178   2.762   3.955   1.209 -0.8111 -0.0801  0.1398
 4724TIP3    H214179   2.904   3.910   1.183 -1.0351 -0.1072 -1.0832
 4725TIP3   OH214180   3.772   0.172   2.500  0.3733  0.7270 -0.4346
 4725TIP3    H114181   3.778   0.249   2.444  1.4458 -0.0547 -1.4520
 4725TIP3    H214182   3.832   0.190   2.572  0.1396  1.1030 -0.3331
 4726TIP3   OH214183   0.955   4.602   4.300 -0.1492 -0.2571 -0.8926
 4726TIP3    H114184   0.952   4.676   4.240  1.3848 -0.3398 -1.1032
 4726TIP3    H214185   1.011   4.632   4.372  0.6514 -1.2582 -1.0709
 4727TIP3   OH214186   6.277   0.962   2.270  0.1961  0.2025 -0.1837
 4727TIP3    H114187   6.301   0.870   2.258 -2.4284 -0.4979 -0.8739
 4727TIP3    H214188   6.321   0.988   2.351  4.3053 -0.3185 -2.0053
 4728TIP3   OH214189   5.305   3.351   0.909  0.2682 -0.3422 -0.4491
 4728TIP3    H114190   5.384   3.363   0.963 -0.8936  0.6579  1.1248
 4728TIP3    H214191   5.290   3.437   0.870  0.3769 -0.7360 -1.3741
 4729TIP3   OH214192   3.026   2.512   2.922  0.6065  0.1161 -0.1665
 4729TIP3    H114193   3.095   2.490   2.985 -0.7596 -0.4612  1.1945
 4729TIP3    H214194   2.997   2.427   2.888 -0.9825  0.1408  1.0238
 4730TIP3   OH214195   0.989   5.580   4.570  0.1528  0.1839 -0.1484
 4730TIP3    H114196   0.918   5.642   4.584  0.4387  0.0097  2.5199
 4730TIP3    H214197   1.037   5.616   4.495 -2.2209  0.7183 -1.5297
 4731TIP3   OH214198   2.741   5.333   4.944 -0.0468 -0.2053 -0.4686
 4731TIP3    H114199   2.646   5.339   4.930  0.0595 -0.1450 -1.2208
 4731TIP3    H214200   2.754   5.244   4.975 -0.4274  0.0107  0.3377
 4732TIP3   OH214201   4.621   2.231   3.797 -0.0159  0.2034  0.0452
 4732TIP3    H114202   4.541   2.187   3.768  0.7334 -1.0163 -0.2399
 4732TIP3    H214203   4.661   2.264   3.717  1.7693 -2.6870 -0.4346
 4733TIP3   OH214204   3.417   1.693   3.909  0.5981  0.4500 -0.3929
 4733TIP3    H114205   3.404   1.671   3.817 -0.7570 -0.4264 -0.0236
 4733TIP3    H214206   3.506   1.728   3.913  0.0427  2.2937 -2.3372
 4734TIP3   OH214207   5.279   2.464   1.519  0.2706  0.6440 -0.3490
 4734TIP3    H114208   5.325   2.442   1.600 -2.5671  0.0577  1.2383
 4734TIP3    H214209   5.217   2.393   1.508 -1.1068  1.9920 -1.6602
 4735TIP3   OH214210   3.417   1.744   0.626 -0.1068 -0.5640 -0.3739
 4735TIP3    H114211   3.409   1.814   0.561  0.4702  1.9980  2.1543
 4735TIP3    H214212   3.508   1.716   0.620 -0.3032 -1.0815 -1.2818
 4736TIP3   OH214213   4.001   3.298   3.655 -0.0841 -0.7973  0.4693
 4736TIP3    H114214   3.982   3.352   3.579  1.1247 -0.4940  0.3581
 4736TIP3    H214215   3.916   3.266   3.684 -0.8017  0.9220  0.3600
 4737TIP3   OH214216   6.316   1.302   2.839 -0.0144 -0.3598 -0.0065
 4737TIP3    H114217   6.398   1.253   2.839 -0.6041 -1.4037  1.3056
 4737TIP3    H214218   6.263   1.260   2.907 -1.2622  0.9206 -0.1496
 4738TIP3   OH214219   0.368   1.668   0.389  0.2773 -0.2307 -0.0455
 4738TIP3    H114220   0.331   1.637   0.306 -1.8440  0.4971  0.5504
 4738TIP3    H214221   0.412   1.750   0.366  0.5205 -0.5103 -0.5986
 4739TIP3   OH214222   0.547   3.175   1.899 -0.3146 -0.3511 -0.1742
 4739TIP3    H114223   0.521   3.162   1.808 -0.6688 -1.1522  0.0373
 4739TIP3    H214224   0.577   3.266   1.902 -2.4897  0.4444 -0.5632
 4740TIP3   OH214225   0.447   3.459   2.736 -0.3333  1.0406  0.1394
 4740TIP3    H114226   0.540   3.457   2.761 -0.3692  1.2877  0.2957
 4740TIP3    H214227   0.409   3.525   2.793 -0.9160 -0.0927  1.1135
 4741TIP3   OH214228   1.465   3.371   2.441 -0.2097 -0.0422 -0.3230
 4741TIP3    H114229   1.442   3.377   2.534 -1.7779  2.9101 -0.7746
 4741TIP3    H214230   1.393   3.323   2.402  0.1420 -0.7403 -0.1316
 4742TIP3   OH214231   0.790   2.165   4.744 -0.2906  0.3393 -0.4436
 4742TIP3    H114232   0.735   2.199   4.675 -2.4669 -2.6448 -0.3984
 4742TIP3    H214233   0.733   2.159   4.820  0.8789 -0.2764  0.4325
 4743TIP3   OH214234   3.796   1.131   3.051 -0.0350  0.5687  0.5340
 4743TIP3    H114235   3.765   1.198   2.991  0.6420  0.3679 -0.0645
 4743TIP3    H214236   3.803   1.052   2.996  1.0351  0.4988  0.7545
 4744TIP3   OH214237   0.860   4.048   2.921  0.2139  0.3722  0.1246
 4744TIP3    H114238   0.801   4.016   2.852 -1.1184 -1.2351  1.8857
 4744TIP3    H214239   0.928   4.096   2.874 -1.7309  1.1217 -2.1386
 4745TIP3   OH214240   5.139   0.030   4.071 -0.4905 -0.0390 -1.0867
 4745TIP3    H114241   5.207  -0.036   4.084 -0.5676  0.1049  0.2039
 4745TIP3    H214242   5.178   0.111   4.102 -0.8005  0.2966 -1.5707
 4746TIP3   OH214243   2.422   5.521   4.231  0.0846 -0.2067 -0.0640
 4746TIP3    H114244   2.455   5.536   4.142  1.5769  2.1850  0.7691
 4746TIP3    H214245   2.343   5.575   4.236  0.5021  0.3790  0.3078
 4747TIP3   OH214246   4.779   3.814   1.395  0.0692  0.2328  0.1887
 4747TIP3    H114247   4.827   3.803   1.477  0.6991 -1.8622 -0.3951
 4747TIP3    H214248   4.694   3.773   1.411  0.4637 -0.8476 -0.4083
 4748TIP3   OH214249   4.539   3.369   4.618 -0.3000 -0.4980 -0.0595
 4748TIP3    H114250   4.523   3.287   4.665 -1.5171 -0.8447 -1.0260
 4748TIP3    H214251   4.475   3.430   4.653  0.0746 -0.1843  0.0906
 4749TIP3   OH214252   2.394   3.963   4.719 -0.0101 -0.1225  0.0942
 4749TIP3    H114253   2.312   3.980   4.766 -1.2693 -0.6202 -1.8145
 4749TIP3    H214254   2.456   3.937   4.787 -1.0974  1.3256  1.7357
 4750TIP3   OH214255   2.526   2.365   1.632 -0.3375  0.6046 -0.0390
 4750TIP3    H114256   2.560   2.313   1.560 -1.4568 -2.2551  1.3530
 4750TIP3    H214257   2.598   2.371   1.694 -0.4160  0.0737  0.1070
 4751TIP3   OH214258   3.790   1.540   0.365  0.1309 -0.3690  0.5930
 4751TIP3    H114259   3.825   1.628   0.371  0.6225 -0.6363  2.0525
 4751TIP3    H214260   3.724   1.536   0.434 -0.4495 -0.8987  0.0172
 4752TIP3   OH214261   5.645   5.082   2.725  0.4201  0.0527  0.2445
 4752TIP3    H114262   5.664   5.141   2.797  2.4257 -2.6627  2.1255
 4752TIP3    H214263   5.669   5.132   2.646 -0.4711  2.5736  1.4617
 4753TIP3   OH214264   3.991   1.975   1.750 -1.3785  0.2393  0.0766
 4753TIP3    H114265   4.022   2.012   1.833 -0.5574 -0.8897  0.2962
 4753TIP3    H214266   3.929   2.040   1.717 -1.3629  0.9382  1.3371
 4754TIP3   OH214267   1.468   5.044   2.171 -0.0034 -0.6426 -0.5834
 4754TIP3    H114268   1.561   5.021   2.168 -0.1308 -1.2625 -0.0026
 4754TIP3    H214269   1.424   4.960   2.184 -0.4509 -0.0485  2.1615
 4755TIP3   OH214270   4.408   0.963   5.030 -0.4219 -0.4550 -0.1054
 4755TIP3    H114271   4.365   0.982   5.113  0.8110 -0.4085  0.5466
 4755TIP3    H214272   4.479   0.903   5.053 -0.1657 -0.5640 -1.1470
 4756TIP3   OH214273   4.175   0.677   3.664  0.0037  0.4075 -0.2119
 4756TIP3    H114274   4.103   0.738   3.646  0.7449  0.9867 -1.3536
 4756TIP3    H214275   4.239   0.695   3.595  2.1906  1.3853  1.9274
 4757TIP3   OH214276   0.351   1.762   1.471  0.4220  0.5925 -0.2244
 4757TIP3    H114277   0.269   1.713   1.474  0.8493 -0.2097 -1.0481
 4757TIP3    H214278   0.332   1.839   1.417 -0.5168  1.9194  1.8555
 4758TIP3   OH214279   2.515   4.271   1.671 -0.5787 -0.1242 -0.2976
 4758TIP3    H114280   2.508   4.366   1.665 -0.1840 -0.0933 -0.3211
 4758TIP3    H214281   2.585   4.256   1.735 -0.2287 -0.3916 -0.7363
 4759TIP3   OH214282   0.270   3.000   1.975  0.0799  0.9282  0.1833
 4759TIP3    H114283   0.353   2.959   1.953  0.6006  1.6037  0.8310
 4759TIP3    H214284   0.274   3.014   2.070 -0.3964  1.7744  0.0877
 4760TIP3   OH214285   0.171   4.332   2.942  0.4325  0.0618 -0.2708
 4760TIP3    H114286   0.199   4.270   2.875  0.4126 -0.8195  0.5235
 4760TIP3    H214287   0.243   4.396   2.946  1.5901 -1.2392  0.5575
 4761TIP3   OH214288   5.249   5.501   2.871 -0.7563  0.0683  0.1279
 4761TIP3    H114289   5.227   5.561   2.943 -0.8200  0.1921  0.0054
 4761TIP3    H214290   5.250   5.414   2.912  1.6571  0.3501  0.8392
 4762TIP3   OH214291   2.001   3.970   1.935 -0.0832 -0.2316 -0.3847
 4762TIP3    H114292   1.984   3.881   1.967 -0.8516  0.4647  1.3199
 4762TIP3    H214293   1.930   4.023   1.974  2.2099  1.7059  1.4710
 4763TIP3   OH214294   4.026   3.499   3.915  0.5618 -0.1486  0.2556
 4763TIP3    H114295   4.093   3.464   3.973  0.0797 -0.7650  0.4594
 4763TIP3    H214296   4.062   3.581   3.883  1.0136 -0.0094  1.0967
 4764TIP3   OH214297   5.205   4.650   5.142  0.7496  0.0046 -0.1636
 4764TIP3    H114298   5.133   4.633   5.081 -0.5841  1.6842  0.8600
 4764TIP3    H214299   5.228   4.742   5.127  1.2888  0.0674  0.9356
 4765TIP3   OH214300   5.365   0.349   2.979  0.0186 -0.1871 -0.6868
 4765TIP3    H114301   5.285   0.297   2.968 -0.4215  0.1558  0.7030
 4765TIP3    H214302   5.431   0.286   3.007  0.0515 -0.3607 -1.1615
 4766TIP3   OH214303   3.389   1.445   1.025  0.2110 -0.2995 -0.4235
 4766TIP3    H114304   3.378   1.516   0.962 -1.9132 -0.6323 -0.4886
 4766TIP3    H214305   3.390   1.489   1.111 -0.6758 -0.1363 -0.4878
 4767TIP3   OH214306   3.365   4.067   5.004  0.0596 -0.2761 -0.1435
 4767TIP3    H114307   3.451   4.028   4.987  1.0319  2.0949 -1.1494
 4767TIP3    H214308   3.353   4.130   4.933 -3.5805 -2.0190 -1.3636
 4768TIP3   OH214309   2.277   2.710   0.613 -0.1856 -0.1937  0.6701
 4768TIP3    H114310   2.269   2.803   0.593 -0.7866 -0.1790  0.9515
 4768TIP3    H214311   2.218   2.696   0.687 -0.7251 -0.9471  0.1181
 4769TIP3   OH214312   1.605   1.454   1.748 -0.3905 -0.0805 -0.1724
 4769TIP3    H114313   1.660   1.437   1.825 -0.2124  1.5106  0.0828
 4769TIP3    H214314   1.664   1.497   1.686 -0.7726 -0.5003 -0.8314
 4770TIP3   OH214315   1.628   2.825   1.267  0.1129 -0.5444  0.2539
 4770TIP3    H114316   1.627   2.764   1.194  0.2428 -0.1221 -0.1051
 4770TIP3    H214317   1.599   2.773   1.342 -0.1574 -0.9450 -0.1226
 4771TIP3   OH214318   0.337   0.517   4.251  0.5917 -0.2138 -0.3032
 4771TIP3    H114319   0.336   0.432   4.206  0.1925 -0.7554  0.6969
 4771TIP3    H214320   0.293   0.576   4.190  1.4304 -0.5678 -1.2895
 4772TIP3   OH214321   4.308   4.752   0.112 -0.0877 -0.0923 -0.3090
 4772TIP3    H114322   4.227   4.702   0.107 -0.2034  0.1708 -1.3327
 4772TIP3    H214323   4.286   4.828   0.166 -0.1980 -0.6052  0.3784
 4773TIP3   OH214324   4.302   0.043   3.373 -0.0460  0.3461 -0.0020
 4773TIP3    H114325   4.387   0.082   3.352  0.8225 -0.4782  1.7637
 4773TIP3    H214326   4.245   0.067   3.300  1.3076  2.1510 -0.5160
 4774TIP3   OH214327   4.309   1.134   2.723 -0.8861  0.0209  0.5285
 4774TIP3    H114328   4.242   1.068   2.742  0.1983 -1.2411  0.1790
 4774TIP3    H214329   4.390   1.096   2.757  0.5847 -0.9090 -3.4446
 4775TIP3   OH214330   3.872   2.219   2.422 -0.1072 -0.0894  0.0641
 4775TIP3    H114331   3.871   2.310   2.450  1.4467  0.4672 -1.5329
 4775TIP3    H214332   3.945   2.179   2.469 -0.2315 -0.2949  0.0884
 4776TIP3   OH214333   3.345   3.493   4.883  0.1447  0.6164  0.0180
 4776TIP3    H114334   3.396   3.538   4.816 -0.8976  2.8194  0.5802
 4776TIP3    H214335   3.339   3.557   4.955 -0.2616 -0.9937  1.4774
 4777TIP3   OH214336   0.176   5.137   0.120 -0.2231 -0.6300  0.6521
 4777TIP3    H114337   0.176   5.217   0.067  0.2636 -2.2860 -2.0083
 4777TIP3    H214338   0.224   5.161   0.200 -0.8233  1.9236  0.3382
 4778TIP3   OH214339   3.475   4.733   3.831  0.2384  0.4141  0.5972
 4778TIP3    H114340   3.535   4.682   3.884  0.3876 -0.2183 -0.1619
 4778TIP3    H214341   3.403   4.755   3.891  0.0891 -0.8245  0.9098
 4779TIP3   OH214342   3.966   3.116   1.487  0.0115  0.2562  0.2795
 4779TIP3    H114343   3.926   3.040   1.529 -1.0285  0.3087 -0.5925
 4779TIP3    H214344   4.044   3.134   1.540 -0.5413 -0.4910  1.3867
 4780TIP3   OH214345   2.141   3.936   0.217  0.4996  0.5255  0.2919
 4780TIP3    H114346   2.235   3.950   0.202  0.0054  1.1953 -2.6447
 4780TIP3    H214347   2.133   3.842   0.229  1.6938  0.6088  2.4002
 4781TIP3   OH214348   4.165   3.229   0.691 -0.5409 -0.0821  0.4597
 4781TIP3    H114349   4.227   3.267   0.753  0.8436 -0.9055 -0.3618
 4781TIP3    H214350   4.185   3.135   0.692 -1.1759 -0.2406 -0.4826
 4782TIP3   OH214351   1.544   0.725   2.293 -0.3506  0.1793  0.2348
 4782TIP3    H114352   1.597   0.768   2.359  0.3833 -1.0143  0.4701
 4782TIP3    H214353   1.536   0.634   2.324  0.7633 -0.6496 -1.6880
 4783TIP3   OH214354   0.838   0.698   4.702  0.7951  0.7335 -0.2774
 4783TIP3    H114355   0.766   0.734   4.754  0.5970 -0.0395 -0.0034
 4783TIP3    H214356   0.820   0.604   4.697  1.9742  0.4700  0.0912
 4784TIP3   OH214357   3.756   4.720   0.864  0.0238 -0.0250  0.2750
 4784TIP3    H114358   3.820   4.673   0.917  0.5932 -0.0866 -0.4423
 4784TIP3    H214359   3.679   4.728   0.920  0.8181  0.4552  1.3193
 4785TIP3   OH214360   3.646   4.532   5.057 -0.2282 -0.3442  0.3916
 4785TIP3    H114361   3.554   4.543   5.080  0.1564 -1.5118  2.7912
 4785TIP3    H214362   3.661   4.437   5.062  0.5333 -0.4696 -2.5757
 4786TIP3   OH214363   5.155   0.199   2.905  0.0382  0.1674 -0.5596
 4786TIP3    H114364   5.129   0.222   2.816 -1.5048 -0.5555 -0.3385
 4786TIP3    H214365   5.158   0.104   2.906 -1.9787  0.0432  0.6217
 4787TIP3   OH214366   5.514   4.603   5.092  0.5639  0.1574 -0.3951
 4787TIP3    H114367   5.490   4.682   5.044 -0.9556  0.4094  0.6753
 4787TIP3    H214368   5.532   4.634   5.181 -2.7670 -0.8772  0.8107
 4788TIP3   OH214369   4.705   5.481   3.301  0.1403  0.5129 -0.1594
 4788TIP3    H114370   4.719   5.576   3.295  0.5126  0.4604 -0.1729
 4788TIP3    H214371   4.786   5.448   3.340 -0.1514  0.2452  0.2337
 4789TIP3   OH214372   5.371   0.131   1.267  0.1653  0.0749 -0.2461
 4789TIP3    H114373   5.292   0.154   1.316  1.1393  2.9136  0.1873
 4789TIP3    H214374   5.419   0.073   1.325 -1.4311 -1.5094 -0.4196
 4790TIP3   OH214375   1.124   3.855   3.323 -1.0093 -0.7427 -0.6584
 4790TIP3    H114376   1.118   3.760   3.320 -1.5014 -0.7848  0.7163
 4790TIP3    H214377   1.035   3.885   3.304 -1.4431 -0.6814  1.1994
 4791TIP3   OH214378   4.543   1.190   4.300 -0.1349 -0.2106  0.1546
 4791TIP3    H114379   4.574   1.103   4.275 -1.0112 -0.0708 -1.5711
 4791TIP3    H214380   4.453   1.176   4.331 -0.2101  0.0345  0.0566
 4792TIP3   OH214381   2.882   3.694   1.425 -0.0450 -0.2925 -0.2538
 4792TIP3    H114382   2.976   3.674   1.423  0.2547  1.0002  0.1700
 4792TIP3    H214383   2.866   3.744   1.345  0.4583  2.7699  1.3886
 4793TIP3   OH214384   4.607   1.733   2.877  1.0101 -0.3582  0.0343
 4793TIP3    H114385   4.648   1.651   2.850  0.7649 -0.4212 -0.1505
 4793TIP3    H214386   4.651   1.756   2.959  1.2836 -0.5203 -0.0643
 4794TIP3   OH214387   1.365   2.764   2.196  0.3584 -0.6185  0.2472
 4794TIP3    H114388   1.424   2.713   2.141 -0.1818 -1.5087  0.4859
 4794TIP3    H214389   1.372   2.853   2.161  0.8924 -0.9465 -0.5189
 4795TIP3   OH214390   2.873   5.428   3.991  0.4866 -0.3372 -0.3166
 4795TIP3    H114391   2.785   5.414   3.955  1.8549 -2.6459 -3.2068
 4795TIP3    H214392   2.879   5.523   4.004 -1.8022  0.0879 -1.7723
 4796TIP3   OH214393   2.012   5.221   2.561  0.3724  0.0642 -0.2035
 4796TIP3    H114394   2.028   5.311   2.533 -0.5339  0.2738 -0.0847
 4796TIP3    H214395   2.029   5.221   2.655  1.6749 -0.2172 -0.4219
 4797TIP3   OH214396   5.470   0.955   1.101 -0.1238  0.1904 -0.1212
 4797TIP3    H114397   5.437   0.894   1.168 -0.7518  0.8927  0.2293
 4797TIP3    H214398   5.457   1.041   1.140 -1.1680  0.6549 -1.4396
 4798TIP3   OH214399   5.614   4.344   5.047 -0.4481 -0.3717  0.3209
 4798TIP3    H114400   5.581   4.432   5.060 -1.6544 -0.5687 -1.0717
 4798TIP3    H214401   5.692   4.338   5.102 -0.3955  1.5206  0.4939
 4799TIP3   OH214402   1.504   2.719   3.854 -0.0184  0.5553 -0.3176
 4799TIP3    H114403   1.536   2.659   3.787 -1.5371  0.0377 -0.6233
 4799TIP3    H214404   1.495   2.803   3.810 -1.0621  0.2034 -0.8186
 4800TIP3   OH214405   2.766   3.450   4.592  0.3737 -0.6033  0.6124
 4800TIP3    H114406   2.852   3.428   4.555  0.3658 -2.8711  1.7657
 4800TIP3    H214407   2.752   3.542   4.568  1.3302 -1.2660 -2.9763
 4801TIP3   OH214408   1.195   1.182   1.017 -0.3532 -0.0078  0.3330
 4801TIP3    H114409   1.244   1.255   0.979 -0.8987  0.1800 -0.0379
 4801TIP3    H214410   1.258   1.110   1.021 -0.2357  0.0073 -0.8312
 4802TIP3   OH214411   3.239   0.191   3.601 -0.0892  0.0930  0.7238
 4802TIP3    H114412   3.289   0.123   3.646  1.1550  1.4788  1.5191
 4802TIP3    H214413   3.282   0.200   3.516  1.5485  1.7538  1.6591
 4803TIP3   OH214414   1.117   5.470   3.042 -0.3270  0.0451 -0.1943
 4803TIP3    H114415   1.099   5.556   3.080 -1.8217 -0.2688 -0.1524
 4803TIP3    H214416   1.092   5.479   2.950  0.7976  0.0266 -0.5241
 4804TIP3   OH214417   2.972   2.639   5.011 -0.4037  0.0681  0.1991
 4804TIP3    H114418   2.879   2.635   4.989 -0.9567  0.5518  2.3041
 4804TIP3    H214419   3.015   2.662   4.928 -2.1534 -0.0004 -0.7646
 4805TIP3   OH214420   0.361   3.233   5.100  0.7077 -0.1137  0.3645
 4805TIP3    H114421   0.289   3.261   5.157  0.7176 -0.1671  0.4036
 4805TIP3    H214422   0.400   3.158   5.145  1.1712  0.2924  0.6399
 4806TIP3   OH214423   0.807   2.633   3.103 -0.5896  0.4426 -0.4310
 4806TIP3    H114424   0.822   2.566   3.170  0.9302 -0.4215 -1.5505
 4806TIP3    H214425   0.712   2.638   3.094 -0.7495 -1.6697 -0.3584
 4807TIP3   OH214426   6.094   2.942   5.140  1.2286  0.3611  0.0006
 4807TIP3    H114427   6.118   3.029   5.107  0.5770  0.1383 -1.1105
 4807TIP3    H214428   6.075   2.891   5.061  2.3815 -1.0411  0.5812
 4808TIP3   OH214429   2.150   2.523   2.089 -0.2721  0.0838 -0.5806
 4808TIP3    H114430   2.123   2.549   2.000 -0.0646  0.8515 -0.4316
 4808TIP3    H214431   2.229   2.470   2.075 -1.1134 -1.1228 -0.9381
 4809TIP3   OH214432   2.986   4.078   3.032 -0.5175  0.4128 -0.6148
 4809TIP3    H114433   2.905   4.128   3.033  0.2479  1.8092  2.1121
 4809TIP3    H214434   3.050   4.137   2.992 -0.3917  0.1040 -0.8777
 4810TIP3   OH214435   2.601   0.908   3.733  0.1375 -0.5669  0.7497
 4810TIP3    H114436   2.597   1.000   3.708  2.9783 -0.7114 -0.6892
 4810TIP3    H214437   2.635   0.909   3.823  1.6969 -0.1434  0.2013
 4811TIP3   OH214438   0.837   4.803   1.232 -0.1507  0.0558  0.1453
 4811TIP3    H114439   0.823   4.709   1.220 -1.6513  0.2282  0.3243
 4811TIP3    H214440   0.923   4.810   1.274 -0.3382 -1.2807  0.8010
 4812TIP3   OH214441   6.053   3.404   0.244  0.1457  0.2575 -0.0390
 4812TIP3    H114442   5.989   3.351   0.290 -1.3886  0.4264 -1.8472
 4812TIP3    H214443   6.003   3.447   0.174  2.4849 -0.9786 -2.6834
 4813TIP3   OH214444   4.282   2.026   1.836 -0.1847 -0.1927  0.2186
 4813TIP3    H114445   4.205   2.058   1.884 -0.9921  0.2220 -1.2962
 4813TIP3    H214446   4.340   2.102   1.831 -1.3435  0.6289 -1.8612
 4814TIP3   OH214447   3.158   1.683   1.114 -0.1129  0.0349  0.2801
 4814TIP3    H114448   3.088   1.633   1.156  0.2890 -0.4083  0.4321
 4814TIP3    H214449   3.120   1.713   1.032 -0.3776 -0.5014  0.1974
 4815TIP3   OH214450   1.750   4.576   0.247 -0.4986 -0.1486  0.2137
 4815TIP3    H114451   1.762   4.632   0.170 -0.9315  0.6309  0.6978
 4815TIP3    H214452   1.685   4.622   0.300  2.5856  1.4780  2.9882
 4816TIP3   OH214453   2.459   2.553   2.062  0.3256  0.0470  0.5127
 4816TIP3    H114454   2.467   2.561   2.158  2.1042 -1.2259  0.5155
 4816TIP3    H214455   2.426   2.464   2.048  0.5396  0.0558 -0.0648
 4817TIP3   OH214456   5.718   2.253   4.571 -0.1292 -0.3755  0.3420
 4817TIP3    H114457   5.747   2.180   4.625 -0.9787 -2.5838 -1.9769
 4817TIP3    H214458   5.628   2.269   4.598 -0.9001 -2.1695 -1.0099
 4818TIP3   OH214459   3.527   1.459   5.048  0.0889  0.1355  0.1731
 4818TIP3    H114460   3.521   1.479   5.141  1.8362  0.3381  0.2798
 4818TIP3    H214461   3.440   1.478   5.013 -0.2863  1.1028  1.5649
 4819TIP3   OH214462   5.679   2.413   0.354  0.4612  0.4685 -0.0134
 4819TIP3    H114463   5.625   2.381   0.426  2.0450  1.6620  1.8397
 4819TIP3    H214464   5.617   2.449   0.291 -0.9685  2.8667  2.5390
 4820TIP3   OH214465   4.756   5.866   0.727  0.0884  0.4022 -0.0093
 4820TIP3    H114466   4.818   5.938   0.742  0.3581  0.1209  0.2263
 4820TIP3    H214467   4.810   5.795   0.693 -0.4306  0.8680 -1.9202
 4821TIP3   OH214468   6.335   5.591   2.446 -0.2778 -0.0368 -0.2891
 4821TIP3    H114469   6.364   5.550   2.364 -0.9557 -0.5360 -0.2943
 4821TIP3    H214470   6.269   5.656   2.418 -2.5430 -2.0690 -0.0066
 4822TIP3   OH214471   0.147   4.257   0.803  0.0013 -0.3251  0.1579
 4822TIP3    H114472   0.118   4.287   0.889 -0.5870 -1.8517  0.5306
 4822TIP3    H214473   0.090   4.303   0.741 -1.7032 -1.5198  0.7696
 4823TIP3   OH214474   3.999   2.727   3.428 -0.1952  0.3802 -0.6748
 4823TIP3    H114475   4.068   2.694   3.369  0.9253  1.3549  0.0588
 4823TIP3    H214476   3.921   2.678   3.401  0.7272 -0.6554 -1.6354
 4824TIP3   OH214477   2.014   4.666   0.394 -0.5758  0.5965 -0.8783
 4824TIP3    H114478   2.094   4.675   0.446 -1.4787  0.1040  0.6626
 4824TIP3    H214479   2.011   4.574   0.371 -1.6842  0.1428  0.8340
 4825TIP3   OH214480   3.726   5.534   1.358  0.4084 -0.1211 -0.1338
 4825TIP3    H114481   3.768   5.448   1.354  1.4097  0.3880 -1.8188
 4825TIP3    H214482   3.689   5.547   1.271 -3.0167 -0.3465  1.1465
 4826TIP3   OH214483   0.146   1.734   4.688  0.2999  0.2350 -0.3649
 4826TIP3    H114484   0.092   1.808   4.659 -1.7120 -0.7620  0.5868
 4826TIP3    H214485   0.168   1.688   4.607 -1.4021 -0.0139 -0.7382
 4827TIP3   OH214486   4.452   0.809   0.572  0.3118  0.2100 -0.7003
 4827TIP3    H114487   4.475   0.804   0.479 -0.5087  0.1387 -0.9107
 4827TIP3    H214488   4.426   0.719   0.595  0.4322  0.2442 -0.4193
 4828TIP3   OH214489   1.842   2.375   2.115  0.3297 -0.4022  0.7637
 4828TIP3    H114490   1.862   2.318   2.189  1.2528  0.9209  1.5908
 4828TIP3    H214491   1.923   2.377   2.063  0.8378  1.2632  1.5485
 4829TIP3   OH214492   3.025   4.982   2.542  0.5062  0.1197 -0.9591
 4829TIP3    H114493   3.006   4.928   2.466  0.4603 -1.5259  0.1692
 4829TIP3    H214494   3.091   4.932   2.591  0.5229  1.1203  0.0836
 4830TIP3   OH214495   3.163   4.831   3.188 -0.0802  0.3909 -0.3311
 4830TIP3    H114496   3.250   4.823   3.149 -0.1517 -0.8680 -0.2789
 4830TIP3    H214497   3.104   4.842   3.114  0.1494  1.6590 -0.3442
 4831TIP3   OH214498   4.960   3.513   1.674 -0.0400 -0.1401  0.1625
 4831TIP3    H114499   4.994   3.429   1.642 -0.8926 -0.6168  0.4733
 4831TIP3    H214500   4.889   3.534   1.614 -1.3053 -0.7792  1.3687
 4832TIP3   OH214501   0.114   1.772   3.793  0.0422 -0.2236 -0.3000
 4832TIP3    H114502   0.121   1.866   3.774  0.3147 -0.2886 -0.5245
 4832TIP3    H214503   0.191   1.752   3.846  1.2885 -0.8084 -2.2432
 4833TIP3   OH214504   4.994   4.952   5.171 -0.2858  0.5254 -0.1549
 4833TIP3    H114505   5.026   5.036   5.139  1.0989 -0.3189 -1.1277
 4833TIP3    H214506   4.935   4.921   5.102 -1.3051  0.9589  0.4974
 4834TIP3   OH214507   2.518   1.546   1.623  0.8417 -0.1693  0.3368
 4834TIP3    H114508   2.534   1.577   1.534  0.4274 -1.3655 -0.1717
 4834TIP3    H214509   2.441   1.490   1.615  1.0905 -0.6723  1.3649
 4835TIP3   OH214510   3.786   5.005   3.288 -0.0192  0.6097 -0.1950
 4835TIP3    H114511   3.783   4.915   3.255 -0.2313  0.0746  1.2328
 4835TIP3    H214512   3.717   5.010   3.353 -0.8158  2.1867 -1.0847
 4836TIP3   OH214513   5.983   1.484   2.426 -0.4286 -0.5087 -0.0702
 4836TIP3    H114514   6.039   1.550   2.384 -1.1179  0.6720  0.7850
 4836TIP3    H214515   6.041   1.435   2.483 -0.0281 -0.1800 -0.1921
 4837TIP3   OH214516   1.148   1.609   0.505 -0.3695  0.0219  0.7935
 4837TIP3    H114517   1.130   1.536   0.446 -1.6090 -0.3233  1.5572
 4837TIP3    H214518   1.204   1.667   0.454 -1.4396 -0.2271 -0.7662
 4838TIP3   OH214519   5.672   2.729   3.121 -0.3384 -0.3251 -0.2416
 4838TIP3    H114520   5.585   2.744   3.159 -0.4412 -1.1624 -0.1172
 4838TIP3    H214521   5.657   2.667   3.050 -0.0892  0.9557 -1.4440
 4839TIP3   OH214522   5.705   2.381   1.032 -0.0017 -0.4407 -0.1929
 4839TIP3    H114523   5.792   2.420   1.022  0.8722 -2.0553  0.7535
 4839TIP3    H214524   5.685   2.345   0.946  1.1209 -1.6992  0.0479
 4840TIP3   OH214525   0.799   4.300   1.359 -0.1481  0.4306  0.1344
 4840TIP3    H114526   0.843   4.221   1.328 -0.6867  0.0265  0.3789
 4840TIP3    H214527   0.862   4.339   1.420  0.5520  0.7641 -0.7915
 4841TIP3   OH214528   4.097   3.761   3.910  0.2594  0.4933  0.3585
 4841TIP3    H114529   4.157   3.804   3.848 -0.4560  0.3153 -0.4858
 4841TIP3    H214530   4.028   3.826   3.924  0.6638  0.7144  1.3584
 4842TIP3   OH214531   5.126   1.189   1.452 -0.4818  0.2527 -0.7741
 4842TIP3    H114532   5.151   1.217   1.540 -0.8242 -0.5235 -0.4223
 4842TIP3    H214533   5.045   1.237   1.434 -2.1020 -1.7431  0.5647
 4843TIP3   OH214534   3.648   1.618   2.519 -0.3343 -0.1754 -0.7648
 4843TIP3    H114535   3.691   1.626   2.434  1.0596  0.0651 -0.0734
 4843TIP3    H214536   3.574   1.561   2.503  0.7997 -1.4283 -1.8367
 4844TIP3   OH214537   5.661   3.719   5.035  0.5794  0.2395 -0.2616
 4844TIP3    H114538   5.682   3.627   5.052 -0.2511 -0.0563 -0.7819
 4844TIP3    H214539   5.747   3.761   5.028  1.0176 -0.7590 -1.3801
 4845TIP3   OH214540   1.852   2.711   1.653  0.5479  0.0737  0.3172
 4845TIP3    H114541   1.869   2.790   1.704  1.0061  0.0458  0.2130
 4845TIP3    H214542   1.875   2.736   1.563 -0.6647  0.2615  0.0413
 4846TIP3   OH214543   0.997   0.209   1.857  0.4841 -0.1496  0.5996
 4846TIP3    H114544   1.005   0.173   1.946  0.0086 -0.4644  0.5154
 4846TIP3    H214545   0.935   0.151   1.813  0.7770 -0.0430  0.0345
 4847TIP3   OH214546   2.035   4.698   0.809 -0.2530 -0.4069  0.2988
 4847TIP3    H114547   2.100   4.631   0.832 -1.4839 -1.4672  0.7724
 4847TIP3    H214548   2.076   4.747   0.737  0.4599 -2.0016 -0.4205
 4848TIP3   OH214549   1.818   3.726   0.347 -0.0199  0.0697  0.2695
 4848TIP3    H114550   1.867   3.687   0.275  0.1369  1.6807 -0.5234
 4848TIP3    H214551   1.818   3.658   0.415  1.7294 -0.6601 -0.3962
 4849TIP3   OH214552   4.114   2.646   5.134  0.1260 -0.0233 -0.6212
 4849TIP3    H114553   4.141   2.558   5.108 -0.7195 -0.3704 -0.3531
 4849TIP3    H214554   4.132   2.700   5.058 -0.1657 -0.5996 -1.1104
 4850TIP3   OH214555   2.777   4.232   3.041  0.5805 -0.6470  0.3097
 4850TIP3    H114556   2.727   4.224   3.122 -0.7507 -1.7000 -0.5706
 4850TIP3    H214557   2.785   4.327   3.027 -1.6287 -0.4057  0.2608
 4851TIP3   OH214558   0.035   4.707   1.421  0.7261  0.7883 -0.5120
 4851TIP3    H114559   0.115   4.683   1.374  0.2117 -0.0215 -0.9851
 4851TIP3    H214560  -0.036   4.680   1.363  0.0804 -0.1747  0.7095
 4852TIP3   OH214561   1.143   1.609   2.073  0.0369 -0.2544 -0.0583
 4852TIP3    H114562   1.077   1.617   2.142  0.2826 -0.6507  0.2225
 4852TIP3    H214563   1.213   1.668   2.100 -0.5971  0.8991 -0.8327
 4853TIP3   OH214564   2.606   0.966   3.142  0.2777  0.4950  0.4090
 4853TIP3    H114565   2.672   0.983   3.074 -1.0846 -1.9452 -1.6914
 4853TIP3    H214566   2.651   0.908   3.204  0.1925 -1.3634 -1.1425
 4854TIP3   OH214567   5.982   1.076   0.562 -0.1029 -0.1448  0.1328
 4854TIP3    H114568   5.985   1.120   0.478 -0.2570 -1.2052 -0.4426
 4854TIP3    H214569   6.074   1.072   0.590  0.1397 -1.1608 -0.7349
 4855TIP3   OH214570   4.350   1.110   0.237  0.0824 -0.1050  0.1242
 4855TIP3    H114571   4.405   1.144   0.307  1.4883  1.0377 -1.4329
 4855TIP3    H214572   4.281   1.176   0.227 -0.0653 -0.2219  0.3610
 4856TIP3   OH214573   0.724   4.389   2.863 -0.2246  0.8061 -0.2544
 4856TIP3    H114574   0.637   4.369   2.829 -0.8118  2.5838  0.0891
 4856TIP3    H214575   0.734   4.330   2.938 -0.6544 -0.1810 -0.9538
 4857TIP3   OH214576   5.730   0.181   1.638 -0.5316 -0.4513 -0.0984
 4857TIP3    H114577   5.682   0.186   1.555  0.3596  0.5675 -0.5775
 4857TIP3    H214578   5.724   0.089   1.664  1.1964 -1.3551 -2.5395
 4858TIP3   OH214579   0.056   2.390   5.198  0.1662  0.0704  0.2503
 4858TIP3    H114580   0.105   2.451   5.143  0.8997  0.3928  1.2392
 4858TIP3    H214581   0.064   2.306   5.154  1.4379  0.1590  0.2865
 4859TIP3   OH214582   6.299   2.833   1.083  0.4058 -0.4076  0.1366
 4859TIP3    H114583   6.392   2.853   1.086  0.2989  0.1820 -0.3047
 4859TIP3    H214584   6.279   2.826   0.989  0.0108 -0.5581  0.2275
 4860TIP3   OH214585   4.736   3.045   5.185  0.1672 -0.0351 -0.8965
 4860TIP3    H114586   4.802   2.979   5.166  1.6242  1.8223 -2.7150
 4860TIP3    H214587   4.678   3.045   5.109 -1.6279 -1.1936  0.3940
 4861TIP3   OH214588   2.502   4.684   3.702 -0.3953 -0.3631 -0.2851
 4861TIP3    H114589   2.464   4.742   3.636 -1.1563 -1.6848 -1.0652
 4861TIP3    H214590   2.478   4.596   3.673  1.0717 -1.1092  0.6255
 4862TIP3   OH214591   1.490   4.828   3.308 -0.4731  0.1220  0.3301
 4862TIP3    H114592   1.496   4.920   3.281 -0.1248 -0.4542 -1.7286
 4862TIP3    H214593   1.451   4.831   3.395 -1.9032  2.1518 -0.3096
 4863TIP3   OH214594   5.757   4.638   2.405 -0.5111 -0.2958 -0.2728
 4863TIP3    H114595   5.692   4.672   2.344 -0.1353 -0.4785 -0.7912
 4863TIP3    H214596   5.709   4.576   2.460 -0.5884 -1.1308 -1.2617
 4864TIP3   OH214597   5.037   2.768   3.745  0.3238  0.0352 -0.4053
 4864TIP3    H114598   5.017   2.819   3.824  1.5494  0.2182 -0.1936
 4864TIP3    H214599   5.071   2.832   3.683 -0.6529 -0.1077 -1.1128
 4865TIP3   OH214600   2.967   0.684   4.096  0.2919  0.0586 -0.2078
 4865TIP3    H114601   2.976   0.599   4.139  2.2215  0.3112 -0.0388
 4865TIP3    H214602   2.945   0.745   4.167 -0.3183 -0.1570 -0.2070
 4866TIP3   OH214603   1.753   1.260   5.062  0.2241 -0.0482 -0.0087
 4866TIP3    H114604   1.678   1.304   5.102 -0.0149 -1.4740  1.1622
 4866TIP3    H214605   1.749   1.170   5.094  2.2564 -0.2423 -0.1472
 4867TIP3   OH214606   5.131   4.554   0.680  0.4354  0.3101 -0.0057
 4867TIP3    H114607   5.193   4.615   0.718  0.3392  0.5285 -0.2025
 4867TIP3    H214608   5.180   4.509   0.611  1.2827 -1.6198  1.7331
 4868TIP3   OH214609   4.881   4.165   0.664  0.4733  0.1918 -1.0250
 4868TIP3    H114610   4.873   4.260   0.672  0.0529  0.0046  1.2219
 4868TIP3    H214611   4.975   4.150   0.652  1.1603  0.7292  2.6648
 4869TIP3   OH214612   3.127   2.176   0.675 -0.0104 -0.5897 -0.0965
 4869TIP3    H114613   3.055   2.143   0.728 -1.0969  2.0470  0.2487
 4869TIP3    H214614   3.084   2.211   0.596  1.0855 -0.3991 -0.6265
 4870TIP3   OH214615   2.064   1.926   0.935  0.3444 -0.1297  0.6486
 4870TIP3    H114616   2.132   1.961   0.993 -0.0283 -0.4182  1.2690
 4870TIP3    H214617   2.096   1.840   0.908  0.4289 -0.0763  0.5768
 4871TIP3   OH214618   3.039   0.830   3.065 -0.5113 -0.0753 -0.2178
 4871TIP3    H114619   3.076   0.780   3.139  1.2634  1.1096 -0.2374
 4871TIP3    H214620   3.083   0.794   2.988 -1.4221 -0.4475 -0.5770
 4872TIP3   OH214621   3.089   5.489   0.435  0.0850 -0.2974 -0.5775
 4872TIP3    H114622   3.020   5.556   0.432 -0.5717 -0.8774  0.6623
 4872TIP3    H214623   3.088   5.450   0.348 -0.5975  0.2509 -0.8284
 4873TIP3   OH214624   0.737   4.442   4.188  0.2599 -0.6554  0.5080
 4873TIP3    H114625   0.807   4.389   4.150  1.1809  1.5288 -1.0434
 4873TIP3    H214626   0.779   4.493   4.256  0.3840  1.0808 -0.8057
 4874TIP3   OH214627   2.420   5.366   5.045 -0.1889 -0.5297  0.5658
 4874TIP3    H114628   2.442   5.381   4.953 -0.8868  0.4072  0.5318
 4874TIP3    H214629   2.438   5.450   5.087 -0.7950 -0.6639  1.1005
 4875TIP3   OH214630   3.912   5.335   4.847  0.0506  0.2679 -0.1053
 4875TIP3    H114631   3.869   5.253   4.825  1.3716 -0.3797 -0.4064
 4875TIP3    H214632   3.850   5.381   4.904 -0.7969 -0.8397 -0.1059
 4876TIP3   OH214633   2.847   2.777   2.104  0.5432 -0.3002 -0.4753
 4876TIP3    H114634   2.888   2.721   2.038 -0.5451 -1.4395 -0.2319
 4876TIP3    H214635   2.794   2.717   2.157  1.4694  0.5552  1.5201
 4877TIP3   OH214636   5.987   0.763   3.225 -0.1236  0.0048 -0.8973
 4877TIP3    H114637   6.055   0.753   3.158  1.2508  0.6726  0.3405
 4877TIP3    H214638   5.926   0.826   3.187  1.5410  1.7098 -0.9049
 4878TIP3   OH214639   0.394   3.588   5.188  0.6830 -0.1668 -0.8842
 4878TIP3    H114640   0.379   3.665   5.133  0.6087  0.6462  0.2563
 4878TIP3    H214641   0.321   3.530   5.168  0.3732  0.3374 -1.2543
 4879TIP3   OH214642   4.823   3.258   2.391  0.2598 -0.1139 -0.2340
 4879TIP3    H114643   4.860   3.310   2.463 -2.4519  0.7525  0.6443
 4879TIP3    H214644   4.860   3.299   2.312  0.4222  1.3448  0.5501
 4880TIP3   OH214645   1.004   4.466   3.394  0.6525  0.2601  0.4915
 4880TIP3    H114646   1.080   4.447   3.340 -0.1823 -0.6442 -0.4203
 4880TIP3    H214647   0.937   4.404   3.363 -0.5946  1.3391  0.9380
 4881TIP3   OH214648   5.895   3.003   1.173  0.5429 -0.3219  0.1931
 4881TIP3    H114649   5.831   2.957   1.119  0.9132 -2.6358  1.5790
 4881TIP3    H214650   5.843   3.056   1.233  0.0551  0.0600 -0.5460
 4882TIP3   OH214651   3.198   3.585   0.968 -0.4084  0.1009  0.2932
 4882TIP3    H114652   3.225   3.494   0.978  0.1371  0.0677 -1.2818
 4882TIP3    H214653   3.276   3.636   0.991  0.2226  0.0668 -1.5864
 4883TIP3   OH214654   1.499   1.295   2.583 -0.0598 -0.3017 -0.5518
 4883TIP3    H114655   1.535   1.372   2.538  0.4165 -1.7563 -2.8751
 4883TIP3    H214656   1.576   1.241   2.603 -0.4836 -0.7244 -0.0438
 4884TIP3   OH214657   1.816   2.177   2.318  0.0461  0.1325  0.7386
 4884TIP3    H114658   1.894   2.133   2.350 -0.8868 -0.4409  2.3327
 4884TIP3    H214659   1.758   2.182   2.394 -1.8784 -0.3648 -0.6143
 4885TIP3   OH214660   4.155   1.341   4.526 -0.4329  0.2059  0.0577
 4885TIP3    H114661   4.133   1.366   4.436  0.7862  1.3801  0.0483
 4885TIP3    H214662   4.072   1.346   4.573 -1.0125 -0.0288 -0.9151
 4886TIP3   OH214663   3.303   1.117   0.141  0.0899  0.2029 -0.6349
 4886TIP3    H114664   3.353   1.050   0.095  2.5004  1.9006 -0.6457
 4886TIP3    H214665   3.293   1.188   0.078 -0.7296  0.6576 -0.0244
 4887TIP3   OH214666   4.701   3.624   4.342 -0.3597  0.1796  0.1254
 4887TIP3    H114667   4.737   3.641   4.428  0.6123 -1.1156  0.0035
 4887TIP3    H214668   4.698   3.528   4.335 -0.2086  0.2498 -1.3453
 4888TIP3   OH214669   5.208   2.887   1.501  0.4867  0.0819  0.1221
 4888TIP3    H114670   5.138   2.923   1.554 -0.4337 -1.0804 -0.2495
 4888TIP3    H214671   5.256   2.830   1.560  0.3320 -0.1059  0.0691
 4889TIP3   OH214672   2.301   1.054   0.954 -0.1170  0.4683 -0.1539
 4889TIP3    H114673   2.272   0.983   1.011 -1.3809  1.6589  0.7662
 4889TIP3    H214674   2.392   1.068   0.978 -0.6344  0.9971  1.7157
 4890TIP3   OH214675   6.166   2.435   1.785  0.1899 -0.0413  0.6041
 4890TIP3    H114676   6.084   2.404   1.746  0.2773  1.1348 -0.5706
 4890TIP3    H214677   6.165   2.530   1.770  1.3598  0.1024  1.3600
 4891TIP3   OH214678   1.810   0.480   2.348  0.1183  0.2975 -0.0227
 4891TIP3    H114679   1.879   0.425   2.386  0.8151  1.1817  0.0377
 4891TIP3    H214680   1.840   0.570   2.364 -2.0194  0.7568  1.7980
 4892TIP3   OH214681   3.607   2.320   2.273  0.1238 -0.5617 -0.0332
 4892TIP3    H114682   3.623   2.310   2.367 -0.9657  0.4710  0.2893
 4892TIP3    H214683   3.564   2.405   2.265 -1.2099 -1.3034 -1.2869
 4893TIP3   OH214684   6.140   3.551   4.456  0.6737 -0.3991 -0.1272
 4893TIP3    H114685   6.195   3.486   4.412 -0.0168 -0.3540 -1.0839
 4893TIP3    H214686   6.186   3.569   4.538  1.8992 -0.6194 -0.7380
 4894TIP3   OH214687   5.314   1.705   3.777  0.2323  0.3829 -0.0989
 4894TIP3    H114688   5.370   1.681   3.851  0.6391  1.5301 -0.0129
 4894TIP3    H214689   5.311   1.626   3.723  2.9456  0.5940 -0.7217
 4895TIP3   OH214690   3.234   0.399   2.374 -0.8354 -0.2082  0.1484
 4895TIP3    H114691   3.325   0.386   2.400 -0.5543  0.0084 -0.6741
 4895TIP3    H214692   3.196   0.450   2.445 -0.0175  0.6286  0.0106
 4896TIP3   OH214693   3.412   5.569   4.585  0.8841  0.5483  0.2667
 4896TIP3    H114694   3.356   5.572   4.507  0.6455  0.9069  0.4492
 4896TIP3    H214695   3.352   5.547   4.656  0.8506  1.5770  0.5708
 4897TIP3   OH214696   4.951   2.389   1.615  0.1430 -0.9256 -0.4679
 4897TIP3    H114697   4.924   2.473   1.652  0.3159 -0.9539 -0.2747
 4897TIP3    H214698   4.907   2.323   1.668  2.0962 -1.0396  1.1391
 4898TIP3   OH214699   0.076   1.454   4.514  1.0361 -0.2929  0.3630
 4898TIP3    H114700   0.070   1.550   4.506  0.2319 -0.4152 -0.7574
 4898TIP3    H214701   0.013   1.433   4.583 -0.1744 -0.1601 -0.6697
 4899TIP3   OH214702   3.455   4.998   2.598  0.2990 -0.5347  0.2777
 4899TIP3    H114703   3.497   4.917   2.571  0.2061 -0.5903  0.3012
 4899TIP3    H214704   3.514   5.036   2.663  0.7159 -0.2096 -0.2776
 4900TIP3   OH214705   5.402   2.757   1.613 -0.4940  0.1507  0.0912
 4900TIP3    H114706   5.426   2.720   1.528  1.6521  1.5421  0.0345
 4900TIP3    H214707   5.475   2.814   1.636 -1.4102  0.4477  2.5020
 4901TIP3   OH214708   3.484   5.708   2.940  0.1176  0.3103 -0.3242
 4901TIP3    H114709   3.400   5.670   2.913  1.3408 -1.7427 -1.5227
 4901TIP3    H214710   3.529   5.636   2.984  1.1600  1.4733  0.5571
 4902TIP3   OH214711   1.137   0.729   1.960 -0.2371 -0.6518 -0.5812
 4902TIP3    H114712   1.178   0.753   2.044  3.4507 -1.9125 -1.8213
 4902TIP3    H214713   1.127   0.812   1.914  0.3009 -0.2139  0.0668
 4903TIP3   OH214714   2.446   4.995   0.977  0.8112  0.9079 -0.8835
 4903TIP3    H114715   2.462   5.017   0.885 -0.7185 -1.7254 -1.8858
 4903TIP3    H214716   2.434   5.080   1.020  1.2369  2.2023 -3.1524
 4904TIP3   OH214717   4.919   4.244   3.644 -0.0514  0.2681 -0.1035
 4904TIP3    H114718   4.852   4.175   3.651 -0.6109  0.7627 -0.4839
 4904TIP3    H214719   4.930   4.257   3.550  1.4725 -0.6410 -0.0848
 4905TIP3   OH214720   0.284   5.547   3.931 -0.0222 -0.3238 -0.8160
 4905TIP3    H114721   0.349   5.530   3.863  0.4277 -0.2229 -0.4176
 4905TIP3    H214722   0.221   5.607   3.890  0.0120 -0.5979 -1.2734
 4906TIP3   OH214723   3.235   3.317   0.998  0.0358  0.0061 -0.8916
 4906TIP3    H114724   3.169   3.265   1.043  0.8260 -1.2862 -1.1781
 4906TIP3    H214725   3.312   3.260   0.994  1.3328  1.6111 -0.1766
 4907TIP3   OH214726   2.570   4.766   0.696  0.2248  0.5042 -0.3252
 4907TIP3    H114727   2.519   4.847   0.686  1.0759  1.3224  1.4280
 4907TIP3    H214728   2.659   4.796   0.713  0.4399 -0.7663  1.0308
 4908TIP3   OH214729   3.768   3.057   4.829 -0.0731  0.1720  0.1589
 4908TIP3    H114730   3.805   3.085   4.913 -1.5934  0.3329  0.8227
 4908TIP3    H214731   3.832   2.995   4.793  0.4535 -0.1655  1.6126
 4909TIP3   OH214732   5.735   0.629   0.295 -0.0262  0.2075  0.1126
 4909TIP3    H114733   5.652   0.618   0.341 -0.3654 -0.9228 -0.7306
 4909TIP3    H214734   5.769   0.713   0.327 -0.2914 -0.4699  2.2914
 4910TIP3   OH214735   5.723   2.633   1.876 -0.3856  0.4838 -0.1739
 4910TIP3    H114736   5.764   2.574   1.940 -1.0726  0.1005 -0.0795
 4910TIP3    H214737   5.759   2.605   1.791 -2.1860 -1.4334 -0.3832
 4911TIP3   OH214738   5.297   2.511   4.705  0.6462 -0.4782  0.1672
 4911TIP3    H114739   5.235   2.545   4.641  0.1481 -0.4337  0.6726
 4911TIP3    H214740   5.292   2.416   4.695 -0.2061 -0.5172  0.8555
 4912TIP3   OH214741   1.628   1.819   2.987 -0.5604 -0.1437  0.9741
 4912TIP3    H114742   1.564   1.840   2.919 -0.1787 -1.0951  0.2931
 4912TIP3    H214743   1.593   1.742   3.030 -0.2570 -0.2028  1.1174
 4913TIP3   OH214744   5.320   2.934   1.858  0.1944  0.2759  0.4759
 4913TIP3    H114745   5.361   2.938   1.944  1.4984  2.1505 -0.1567
 4913TIP3    H214746   5.383   2.885   1.804 -0.3305 -0.3594  0.4295
 4914TIP3   OH214747   3.194   3.951   3.517  0.6699  0.4688 -0.1935
 4914TIP3    H114748   3.121   4.001   3.553  1.6555  1.2627  0.7646
 4914TIP3    H214749   3.198   3.977   3.425  0.0998  0.8318 -0.1199
 4915TIP3   OH214750   1.509   3.385   2.983 -0.2217  0.4655 -0.5796
 4915TIP3    H114751   1.500   3.330   2.905 -0.4140 -0.2307 -0.0761
 4915TIP3    H214752   1.476   3.331   3.055 -0.9532  1.4463 -0.1511
 4916TIP3   OH214753   2.275   1.338   4.897 -0.4387  0.2960  0.3382
 4916TIP3    H114754   2.285   1.367   4.988 -2.4917  1.3562  0.2853
 4916TIP3    H214755   2.281   1.418   4.845  1.5469 -0.4020 -0.5892
 4917TIP3   OH214756   5.888   3.405   0.039  0.0046 -0.0598  0.1992
 4917TIP3    H114757   5.889   3.309   0.039  2.4883 -0.1560 -2.7653
 4917TIP3    H214758   5.799   3.428   0.013 -0.1972 -1.6190 -0.5884
 4918TIP3   OH214759   6.209   2.600   3.306  0.3843  0.0521 -0.7145
 4918TIP3    H114760   6.302   2.610   3.323  0.5026 -0.1202 -1.2368
 4918TIP3    H214761   6.204   2.561   3.219 -0.1115 -2.1379  0.2353
 4919TIP3   OH214762   0.422   3.717   3.312  0.1185  0.1968 -0.2048
 4919TIP3    H114763   0.458   3.778   3.247  0.2684  0.3812  0.0500
 4919TIP3    H214764   0.339   3.688   3.274  0.5681 -0.2917 -0.8392
 4920TIP3   OH214765   5.405   0.523   4.305 -0.2579  0.3069  0.0623
 4920TIP3    H114766   5.331   0.546   4.250 -0.2802 -0.2485 -0.1460
 4920TIP3    H214767   5.371   0.526   4.395 -0.3218  0.8202  0.0277
 4921TIP3   OH214768   5.674   1.707   2.553  0.5140 -0.2021 -0.3315
 4921TIP3    H114769   5.695   1.756   2.632  1.6089 -1.0439 -0.0778
 4921TIP3    H214770   5.720   1.624   2.563 -0.2895 -0.7950 -1.3195
 4922TIP3   OH214771   2.290   4.992   1.216 -0.4262 -0.6701  0.1421
 4922TIP3    H114772   2.220   5.024   1.273  0.2258  0.0033  0.5874
 4922TIP3    H214773   2.358   5.060   1.221 -0.1926 -0.7793 -1.1399
 4923TIP3   OH214774   0.127   4.885   2.300  0.7705 -0.0443  0.0185
 4923TIP3    H114775   0.068   4.851   2.367  1.5145 -1.4334 -0.0037
 4923TIP3    H214776   0.213   4.887   2.342  1.0426  0.1737 -0.5392
 4924TIP3   OH214777   4.098   2.528   1.593 -0.4819  0.0571 -0.0376
 4924TIP3    H114778   4.138   2.604   1.552 -1.4739  1.0383  0.7382
 4924TIP3    H214779   4.169   2.487   1.643  0.2373  0.0236 -1.0699
 4925TIP3   OH214780   0.845   1.548   1.933 -0.0358  0.4083 -0.7248
 4925TIP3    H114781   0.786   1.601   1.879 -0.9532  0.6858  0.4896
 4925TIP3    H214782   0.805   1.551   2.020  2.9108  2.4280  0.7189
 4926TIP3   OH214783   0.471   3.458   4.309 -0.0178  0.0809  0.2075
 4926TIP3    H114784   0.536   3.493   4.248 -1.7219 -0.9449 -2.3866
 4926TIP3    H214785   0.519   3.446   4.391  2.3366  1.8120 -0.7929
 4927TIP3   OH214786   0.059   1.970   4.324  0.1509  0.2437  0.5271
 4927TIP3    H114787   0.144   2.014   4.323 -0.2577  1.0465  0.8271
 4927TIP3    H214788  -0.005   2.040   4.318 -0.4869 -0.4656 -2.7101
 4928TIP3   OH214789   4.571   0.830   3.103 -0.6726 -0.5755  0.1568
 4928TIP3    H114790   4.611   0.862   3.184 -0.3247 -0.0116 -0.2341
 4928TIP3    H214791   4.639   0.775   3.063 -0.1875  0.5443 -0.6071
 4929TIP3   OH214792   4.886   2.246   0.522 -0.4960  0.6763 -0.5503
 4929TIP3    H114793   4.899   2.336   0.551 -0.1549  0.3788  0.2502
 4929TIP3    H214794   4.896   2.193   0.602 -2.4633  0.0573 -0.6575
 4930TIP3   OH214795   6.290   0.033   3.886 -0.2783 -0.1911  0.2445
 4930TIP3    H114796   6.341   0.003   3.811  0.9167 -0.4670  1.1219
 4930TIP3    H214797   6.300   0.128   3.887 -1.9015  0.0353 -1.0279
 4931TIP3   OH214798   3.341   4.621   4.731  0.4493 -0.0444  0.2266
 4931TIP3    H114799   3.424   4.575   4.724 -0.4828 -2.0326  1.4441
 4931TIP3    H214800   3.296   4.602   4.649  0.9964  0.7104 -0.2664
 4932TIP3   OH214801   3.548   3.352   4.964  0.2624  0.4117  0.0694
 4932TIP3    H114802   3.495   3.410   4.909  3.1035  1.1360 -2.1217
 4932TIP3    H214803   3.590   3.292   4.902 -0.6445 -2.4951  2.0435
 4933TIP3   OH214804   0.749   3.669   4.641  0.0562 -0.9192  0.1138
 4933TIP3    H114805   0.795   3.651   4.723  1.3228 -2.0416 -0.8054
 4933TIP3    H214806   0.707   3.754   4.655  1.4346 -0.4133  1.4140
 4934TIP3   OH214807   0.198   4.340   3.752 -0.1105  0.3381 -0.6124
 4934TIP3    H114808   0.200   4.428   3.713  0.0477  0.4239 -0.4130
 4934TIP3    H214809   0.201   4.280   3.677 -0.5719  0.5021 -0.7674
 4935TIP3   OH214810   2.149   0.490   1.126 -0.5243 -0.0737 -0.1078
 4935TIP3    H114811   2.133   0.414   1.181 -0.1473 -1.9812 -2.4769
 4935TIP3    H214812   2.189   0.554   1.184 -1.9180 -1.2140  2.2318
 4936TIP3   OH214813   4.734   5.805   2.364 -0.4161  0.2696  0.3103
 4936TIP3    H114814   4.705   5.883   2.411  1.2608  1.4113 -0.4433
 4936TIP3    H214815   4.788   5.758   2.427 -1.9271 -0.6544  0.9669
 4937TIP3   OH214816   4.750   4.270   0.229  0.7644  0.2486  0.0140
 4937TIP3    H114817   4.842   4.288   0.246  0.5604  3.5047 -1.4944
 4937TIP3    H214818   4.703   4.323   0.294  0.0426  1.4501 -1.4114
 4938TIP3   OH214819   2.494   3.883   1.752 -0.0432  0.2009  0.4279
 4938TIP3    H114820   2.510   3.825   1.678 -0.3990  0.5110  0.1041
 4938TIP3    H214821   2.455   3.827   1.819  1.1358 -0.2815  0.7383
 4939TIP3   OH214822   4.086   5.454   4.183 -0.1335 -0.4718  0.1001
 4939TIP3    H114823   4.174   5.433   4.216  0.6473  0.6791 -1.1427
 4939TIP3    H214824   4.073   5.546   4.206 -0.1034 -0.0157 -1.5594
 4940TIP3   OH214825   4.644   5.786   4.008  0.2622 -0.5777 -0.0080
 4940TIP3    H114826   4.612   5.750   3.925  1.2999 -1.2728 -0.1318
 4940TIP3    H214827   4.709   5.722   4.038 -0.5202 -0.6508  1.6599
 4941TIP3   OH214828   2.255   3.809   0.865  0.5182  0.2205 -0.2437
 4941TIP3    H114829   2.248   3.793   0.959 -0.7129  3.5589  0.3428
 4941TIP3    H214830   2.349   3.808   0.848  1.0088  2.7126  1.7564
 4942TIP3   OH214831   1.524   4.403   0.455  0.4824  0.4336  0.3383
 4942TIP3    H114832   1.565   4.434   0.536 -1.2036 -1.2166  1.9296
 4942TIP3    H214833   1.454   4.345   0.485 -0.2898 -0.1312 -2.3357
 4943TIP3   OH214834   0.819   5.090   0.206 -0.0788  0.0753 -0.1030
 4943TIP3    H114835   0.777   5.065   0.123 -1.0188  1.6237 -0.1333
 4943TIP3    H214836   0.889   5.150   0.180  0.5947 -0.5901  0.1373
 4944TIP3   OH214837   2.178   0.263   3.556  0.4457 -0.1444  0.2468
 4944TIP3    H114838   2.169   0.349   3.596  3.3847 -0.4164  1.7644
 4944TIP3    H214839   2.102   0.214   3.587  0.7769  0.7559  2.7178
 4945TIP3   OH214840   2.618   1.084   4.491  0.3462 -0.1722 -0.3594
 4945TIP3    H114841   2.679   1.022   4.532 -1.0453 -0.4626  1.3909
 4945TIP3    H214842   2.625   1.163   4.545  0.7648  0.5768 -1.4798
 4946TIP3   OH214843   2.558   5.392   0.270 -0.0557 -0.0790 -0.1948
 4946TIP3    H114844   2.650   5.397   0.245 -0.0310 -1.5312 -0.5165
 4946TIP3    H214845   2.543   5.469   0.325  0.9516  0.9662 -1.3481
 4947TIP3   OH214846   3.529   2.389   0.845 -0.2424 -0.6089  0.2156
 4947TIP3    H114847   3.438   2.366   0.862 -0.2590 -1.7569 -1.2244
 4947TIP3    H214848   3.568   2.308   0.811 -0.1887  1.2084 -4.7692
 4948TIP3   OH214849   1.137   0.924   3.386 -0.1751 -0.3380 -0.2816
 4948TIP3    H114850   1.163   0.836   3.357 -2.0891 -1.3787  0.9753
 4948TIP3    H214851   1.151   0.923   3.481 -2.0491 -0.0007  0.0336
 4949TIP3   OH214852   4.627   3.596   0.382  0.2490 -0.3734  0.3947
 4949TIP3    H114853   4.652   3.666   0.322  1.1111  0.8794  2.1147
 4949TIP3    H214854   4.537   3.574   0.359  0.1486  0.9292 -0.5265
 4950TIP3   OH214855   3.394   4.368   2.410 -0.9573 -0.0157 -0.0759
 4950TIP3    H114856   3.479   4.371   2.366 -0.6765 -0.7327  0.4001
 4950TIP3    H214857   3.332   4.403   2.346 -0.2747  0.7475 -0.3437
 4951TIP3   OH214858   4.217   1.016   1.109  0.4395  0.1287 -0.4014
 4951TIP3    H114859   4.144   0.989   1.165  0.6039  0.5427  0.0143
 4951TIP3    H214860   4.236   1.106   1.135  1.5602 -0.2003 -0.0269
 4952TIP3   OH214861   0.820   3.752   1.725 -0.6762  0.7117 -0.1825
 4952TIP3    H114862   0.891   3.745   1.662  0.0964  0.1740  0.7314
 4952TIP3    H214863   0.741   3.762   1.672  0.1230  1.7419 -1.1986
 4953TIP3   OH214864   3.798   3.728   0.180 -0.0448  0.2064  0.4296
 4953TIP3    H114865   3.862   3.667   0.217 -0.4492 -1.2877 -1.1548
 4953TIP3    H214866   3.721   3.720   0.237 -0.4205 -1.5261 -0.2431
 4954TIP3   OH214867   5.136   3.894   3.904 -0.5045  0.0383 -0.2733
 4954TIP3    H114868   5.125   3.852   3.819 -0.5211 -1.0679  0.2646
 4954TIP3    H214869   5.186   3.831   3.956  0.8466  1.3358  0.0734
 4955TIP3   OH214870   0.353   3.968   2.569 -0.1155 -0.4210 -0.1186
 4955TIP3    H114871   0.428   3.983   2.511 -0.9662  2.1569 -0.6967
 4955TIP3    H214872   0.277   3.970   2.511 -0.8962  1.0350  0.8806
 4956TIP3   OH214873   5.848   2.460   2.844  0.6470 -0.4379  0.2277
 4956TIP3    H114874   5.882   2.462   2.755 -1.2291  0.1928 -0.5254
 4956TIP3    H214875   5.923   2.435   2.898  2.0668  0.1335 -1.3973
 4957TIP3   OH214876   5.937   0.369   1.123  0.1957  0.6128  0.1452
 4957TIP3    H114877   5.959   0.276   1.115 -1.6588  0.0361  1.1880
 4957TIP3    H214878   6.020   0.411   1.143  0.9185 -0.9510  0.6232
 4958TIP3   OH214879   2.930   1.806   3.531  0.0886 -0.0211  0.1308
 4958TIP3    H114880   2.915   1.733   3.472 -0.6613  0.5913 -0.4536
 4958TIP3    H214881   2.845   1.822   3.573  0.7003 -0.7189  1.7128
 4959TIP3   OH214882   0.388   4.090   1.287  0.0162 -0.0531 -0.2096
 4959TIP3    H114883   0.420   4.131   1.367  1.1622  1.6653 -1.4727
 4959TIP3    H214884   0.450   4.020   1.270  0.4450  0.3270 -0.2145
 4960TIP3   OH214885   5.260   2.731   0.259  0.4415  0.3958 -0.1544
 4960TIP3    H114886   5.226   2.675   0.189 -0.0065 -1.3958  1.3933
 4960TIP3    H214887   5.182   2.773   0.296  0.5231  0.3741  0.0430
 4961TIP3   OH214888   1.814   2.035   0.687  0.6332  0.4345  0.0793
 4961TIP3    H114889   1.767   1.980   0.624  0.4391 -0.0581  0.6513
 4961TIP3    H214890   1.905   2.009   0.679  0.8987  1.6316 -1.2836
 4962TIP3   OH214891   1.317   5.383   2.570  0.2784  0.0541  0.2408
 4962TIP3    H114892   1.315   5.312   2.506  1.9462  1.1115 -1.0745
 4962TIP3    H214893   1.362   5.346   2.646 -0.1664 -0.7017  0.1391
 4963TIP3   OH214894   0.245   4.627   4.001  0.5214  0.4849 -0.4989
 4963TIP3    H114895   0.336   4.601   4.016  0.5092  0.2393 -0.8255
 4963TIP3    H214896   0.198   4.545   3.990  0.5962  0.6225 -2.1739
 4964TIP3   OH214897   5.022   0.874   4.043 -0.2011 -0.7881 -0.3449
 4964TIP3    H114898   5.107   0.890   4.002 -0.6583  1.6681 -0.4525
 4964TIP3    H214899   5.023   0.926   4.123 -1.1755 -1.6709  0.2773
 4965TIP3   OH214900   4.624   4.920   2.440 -0.2067 -0.6805  0.1665
 4965TIP3    H114901   4.592   4.970   2.365 -3.9210 -1.6651  0.8567
 4965TIP3    H214902   4.695   4.866   2.405 -1.5847 -0.8885 -2.6125
 4966TIP3   OH214903   0.713   2.002   0.235 -0.1824 -0.2827 -0.3260
 4966TIP3    H114904   0.669   2.088   0.240  0.5736  0.1233 -0.5126
 4966TIP3    H214905   0.775   2.011   0.163  2.3157  0.1575  1.7263
 4967TIP3   OH214906   5.443   1.654   4.056 -0.3358 -0.2131 -0.0306
 4967TIP3    H114907   5.505   1.721   4.025 -2.4703  0.8798 -2.3521
 4967TIP3    H214908   5.498   1.580   4.082  1.9686  0.9484 -1.2994
 4968TIP3   OH214909   0.410   5.264   3.965  0.6691 -0.2961 -0.3967
 4968TIP3    H114910   0.471   5.337   3.970  0.3086 -0.0310  0.3800
 4968TIP3    H214911   0.329   5.299   4.004  0.8585 -1.4785  1.1219
 4969TIP3   OH214912   5.189   5.354   1.626 -0.1617 -0.5901  0.5785
 4969TIP3    H114913   5.253   5.418   1.658 -0.6847 -0.1521  0.7877
 4969TIP3    H214914   5.156   5.392   1.545  0.9482 -1.5637 -0.3412
 4970TIP3   OH214915   0.033   5.873   4.335  0.5242 -0.1897  0.5488
 4970TIP3    H114916  -0.036   5.925   4.294  0.7280 -1.0666 -1.0059
 4970TIP3    H214917   0.043   5.797   4.278  1.5492 -0.9727  1.7170
 4971TIP3   OH214918   1.044   1.515   4.544  0.1643 -0.3475  0.0038
 4971TIP3    H114919   0.998   1.590   4.506  2.9400  1.5651  0.0779
 4971TIP3    H214920   1.019   1.516   4.637  1.3431  1.5881  0.3696
 4972TIP3   OH214921   0.988   1.556   4.808 -0.0600  0.2800  0.2670
 4972TIP3    H114922   0.941   1.631   4.844  0.2168  0.8853 -0.6105
 4972TIP3    H214923   1.027   1.512   4.885  0.0901  1.2439  0.7508
 4973TIP3   OH214924   5.245   2.517   4.982  0.2724  0.0368  0.3319
 4973TIP3    H114925   5.275   2.507   4.892  2.0157 -0.5189  0.9536
 4973TIP3    H214926   5.151   2.499   4.978  0.6761 -2.1031 -1.0488
 4974TIP3   OH214927   2.436   3.669   2.757  1.0155  0.5215  0.0608
 4974TIP3    H114928   2.401   3.739   2.702  0.8378  0.4022  0.0206
 4974TIP3    H214929   2.512   3.635   2.709  0.2907 -0.2351 -0.5860
 4975TIP3   OH214930   2.081   5.723   0.462  0.5020  0.2950 -0.6926
 4975TIP3    H114931   2.033   5.655   0.415 -1.3700 -0.0185  1.5130
 4975TIP3    H214932   2.020   5.755   0.528  2.9050  0.8069  1.4580
 4976TIP3   OH214933   2.846   0.514   3.112  0.6489 -0.1563  0.3973
 4976TIP3    H114934   2.938   0.539   3.117  0.2437  1.3975  0.5969
 4976TIP3    H214935   2.821   0.497   3.203  0.2777  1.2510  0.5728
 4977TIP3   OH214936   0.558   3.802   1.681  0.4175  0.1922  0.2149
 4977TIP3    H114937   0.554   3.814   1.776  0.4447  0.4657  0.1843
 4977TIP3    H214938   0.532   3.711   1.666  2.0765 -0.3781  0.6112
 4978TIP3   OH214939   3.837   1.278   3.918 -0.0571 -0.2906  0.4472
 4978TIP3    H114940   3.795   1.321   3.844 -1.6107 -1.2675  0.7201
 4978TIP3    H214941   3.912   1.231   3.880  0.2573  0.7176 -0.1966
 4979TIP3   OH214942   0.363   3.589   0.183 -0.2857 -0.2530 -0.1520
 4979TIP3    H114943   0.379   3.609   0.276 -0.1825  0.9466 -0.4080
 4979TIP3    H214944   0.283   3.536   0.183  0.8419 -2.0792  0.7685
 4980TIP3   OH214945   4.466   0.948   2.870 -0.6412 -0.4047  0.4128
 4980TIP3    H114946   4.487   0.921   2.959 -0.3229 -0.0643  0.4402
 4980TIP3    H214947   4.549   0.979   2.833 -0.4556 -1.8060 -0.4599
 4981TIP3   OH214948   4.644   4.553   0.130 -0.1809  0.0083 -0.0297
 4981TIP3    H114949   4.646   4.506   0.214 -0.5955  1.7978  1.0419
 4981TIP3    H214950   4.732   4.540   0.094 -0.2729 -1.5309  0.2279
 4982TIP3   OH214951   2.816   5.162   0.791 -0.2653 -1.2512  0.4777
 4982TIP3    H114952   2.908   5.169   0.813 -0.1375  0.0772 -0.3733
 4982TIP3    H214953   2.770   5.186   0.871  0.1517 -0.3544  0.4542
 4983TIP3   OH214954   4.899   4.289   1.342 -0.2300  0.1137 -0.2436
 4983TIP3    H114955   4.844   4.211   1.351 -0.3302 -0.1302 -2.4181
 4983TIP3    H214956   4.874   4.345   1.416 -0.0027 -1.9550  1.4860
 4984TIP3   OH214957   4.602   2.814   2.985 -0.4147  0.2628  0.5467
 4984TIP3    H114958   4.656   2.871   2.931  1.5849 -1.7943  0.1940
 4984TIP3    H214959   4.657   2.791   3.059 -0.9042 -1.5665  0.4149
 4985TIP3   OH214960   1.553   5.846   3.261 -0.1609  0.0172 -0.1798
 4985TIP3    H114961   1.564   5.780   3.329 -1.4087  2.2791  2.4007
 4985TIP3    H214962   1.641   5.863   3.228  0.9274  0.6649  2.7827
 4986TIP3   OH214963   5.332   2.774   2.899  0.1942  0.2155 -0.4608
 4986TIP3    H114964   5.390   2.828   2.846 -1.1255  0.9584 -1.2042
 4986TIP3    H214965   5.317   2.695   2.847 -0.9583  0.8663 -1.1532
 4987TIP3   OH214966   2.124   5.029   3.740  0.3023 -0.1979 -0.4459
 4987TIP3    H114967   2.109   5.022   3.646  0.0671  0.0379 -0.4286
 4987TIP3    H214968   2.174   5.109   3.750  0.4528 -0.3005 -0.3843
 4988TIP3   OH214969   1.492   2.356   4.895  0.2872 -0.2596 -0.5340
 4988TIP3    H114970   1.457   2.289   4.837 -0.3372  0.7040 -1.3199
 4988TIP3    H214971   1.583   2.366   4.868  1.2687 -2.7818  1.5220
 4989TIP3   OH214972   5.508   2.966   0.695  0.0255  0.7999 -0.4306
 4989TIP3    H114973   5.463   2.989   0.777  0.5757  0.6812 -0.0927
 4989TIP3    H214974   5.438   2.961   0.630 -0.5410 -0.0367  0.2258
 4990TIP3   OH214975   0.536   5.707   1.622 -0.1083  0.0631 -0.0429
 4990TIP3    H114976   0.447   5.704   1.586  0.0614  0.3202 -0.4923
 4990TIP3    H214977   0.563   5.798   1.610 -0.2405  0.2833  1.2219
 4991TIP3   OH214978   5.950   2.225   2.490 -0.5680  0.2658 -0.0991
 4991TIP3    H114979   5.908   2.146   2.456 -0.6237  0.1167  0.3067
 4991TIP3    H214980   6.015   2.192   2.552 -0.0586  0.5092 -0.5015
 4992TIP3   OH214981   0.483   3.198   1.277 -0.4044 -0.0702 -0.3506
 4992TIP3    H114982   0.562   3.242   1.311 -0.0137 -0.6310 -0.5302
 4992TIP3    H214983   0.415   3.265   1.284  0.4158  0.9458 -1.6287
 4993TIP3   OH214984   4.206   5.733   4.862 -0.1497 -0.2304 -0.2607
 4993TIP3    H114985   4.170   5.645   4.854 -0.3610 -0.0969 -0.7924
 4993TIP3    H214986   4.296   5.725   4.832 -0.2867 -0.1865 -0.6908
 4994TIP3   OH214987   4.026   0.363   0.143 -0.2599 -0.5576 -0.2894
 4994TIP3    H114988   4.046   0.300   0.213  0.5532 -0.2880 -0.2767
 4994TIP3    H214989   3.936   0.341   0.118  0.2800 -2.2894 -0.8640
 4995TIP3   OH214990   5.322   0.869   4.008 -0.5214 -0.2392  0.2534
 4995TIP3    H114991   5.398   0.811   3.999  0.2042  0.7156 -0.0800
 4995TIP3    H214992   5.361   0.955   4.028 -1.4655  0.4381 -0.7078
 4996TIP3   OH214993   2.904   0.509   1.535  0.3383  0.3965  0.7013
 4996TIP3    H114994   2.947   0.427   1.561  1.7757  0.3410 -1.5235
 4996TIP3    H214995   2.812   0.486   1.525  0.3277 -0.3596  2.2244
 4997TIP3   OH214996   6.047   4.177   2.486 -0.1448  0.0992  0.8289
 4997TIP3    H114997   5.986   4.248   2.466  0.4598  0.5340  0.4960
 4997TIP3    H214998   6.125   4.222   2.521 -0.3346 -0.4938  2.0734
 4998TIP3   OH214999   5.240   5.687   4.529  0.0028  0.9712  0.0533
 4998TIP3    H115000   5.328   5.673   4.494 -0.2026 -0.4661  0.0620
 4998TIP3    H215001   5.202   5.755   4.474  0.6904  0.7357 -0.7170
 4999TIP3   OH215002   2.372   5.084   3.239  0.1218 -0.3256  0.0566
 4999TIP3    H115003   2.429   5.161   3.247 -1.6314  1.0180  0.2292
 4999TIP3    H215004   2.432   5.012   3.222  1.8138  1.1495 -0.6022
 5000TIP3   OH215005   5.721   0.211   4.482  0.6628 -0.1715  0.4248
 5000TIP3    H115006   5.742   0.274   4.551  1.5957  0.6156 -0.5407
 5000TIP3    H215007   5.691   0.266   4.409  1.0419 -0.8803 -0.2779
 5001TIP3   OH215008   1.493   3.910   5.043  0.5918 -0.0394 -0.3167
 5001TIP3    H115009   1.582   3.879   5.056  0.9474  1.3869  0.8214
 5001TIP3    H215010   1.443   3.874   5.116  0.5984  0.5471 -0.0243
 5002TIP3   OH215011   4.346   2.716   1.793  0.0791  0.3798  0.0990
 5002TIP3    H115012   4.298   2.669   1.862  0.8665 -0.8637 -0.1668
 5002TIP3    H215013   4.358   2.651   1.724  1.0300  1.0475 -0.3779
 5003TIP3   OH215014   4.152   4.352   4.982  0.5772  0.4955 -0.1179
 5003TIP3    H115015   4.185   4.286   5.044 -1.3452 -1.4203 -1.0374
 5003TIP3    H215016   4.077   4.392   5.026  0.8549  1.0757 -0.1538
 5004TIP3   OH215017   4.733   4.098   0.460 -0.1752 -0.4715 -0.3861
 5004TIP3    H115018   4.761   4.132   0.375  1.5894 -2.8325 -0.8529
 5004TIP3    H215019   4.793   4.136   0.523 -2.3201  2.3754  0.1351
 5005TIP3   OH215020   6.125   5.569   4.211 -0.5232  0.1435  0.0086
 5005TIP3    H115021   6.091   5.646   4.258 -3.6348 -0.6741 -0.7268
 5005TIP3    H215022   6.052   5.538   4.159  0.7727 -3.0743 -0.1183
 5006TIP3   OH215023   1.243   4.582   4.933  0.3562 -0.3526  0.3649
 5006TIP3    H115024   1.267   4.590   4.841  0.5728 -1.6260  0.2968
 5006TIP3    H215025   1.152   4.612   4.937  0.9565  1.6064  0.1026
 5007TIP3   OH215026   5.286   3.124   1.095  0.3970 -0.4547  0.0530
 5007TIP3    H115027   5.364   3.082   1.059 -0.2253 -0.6290 -1.1563
 5007TIP3    H215028   5.258   3.186   1.027  0.2456  0.5790  1.0390
 5008TIP3   OH215029   2.217   4.360   0.981 -0.2087  0.3604 -0.1214
 5008TIP3    H115030   2.178   4.374   0.895 -0.4190 -2.8853 -0.6888
 5008TIP3    H215031   2.305   4.327   0.963 -0.5123 -1.0698  0.8139
 5009TIP3   OH215032   1.254   2.273   0.197 -0.0291  0.0885 -0.0992
 5009TIP3    H115033   1.292   2.316   0.121  1.1172 -1.1413 -0.2572
 5009TIP3    H215034   1.221   2.189   0.163  2.1458 -1.3068  1.0297
 5010TIP3   OH215035   4.138   0.872   0.765  0.2801 -0.4494 -0.7562
 5010TIP3    H115036   4.184   0.793   0.793  1.4931  0.9489  1.5241
 5010TIP3    H215037   4.197   0.943   0.790 -2.2473  1.3433  0.4861
 5011TIP3   OH215038   1.575   0.093   3.794  0.2324 -0.4647  0.3489
 5011TIP3    H115039   1.641   0.047   3.742 -0.6815 -0.6888 -0.6455
 5011TIP3    H215040   1.606   0.184   3.795 -1.0302  0.1277 -2.8986
 5012TIP3   OH215041   0.304   5.888   4.712 -0.3265  0.0710 -0.4475
 5012TIP3    H115042   0.310   5.958   4.647  2.5403  1.8599  1.4756
 5012TIP3    H215043   0.374   5.827   4.688 -0.0992  0.0619  0.2167
 5013TIP3   OH215044   0.657   4.048   2.748  0.0022  0.0478 -0.1945
 5013TIP3    H115045   0.625   4.129   2.710 -0.1779  0.1308  0.1372
 5013TIP3    H215046   0.586   3.985   2.737  0.5020 -0.3483 -1.3503
 5014TIP3   OH215047   2.608   4.086   0.429  0.0147 -0.3916 -0.0214
 5014TIP3    H115048   2.624   4.141   0.352 -1.1315 -1.5167 -1.1413
 5014TIP3    H215049   2.689   4.038   0.442  0.5254  0.4762  0.0491
 5015TIP3   OH215050   5.307   0.819   0.887  0.2293 -0.0818 -0.2618
 5015TIP3    H115051   5.349   0.739   0.919 -0.5519 -1.7810 -3.1007
 5015TIP3    H215052   5.368   0.889   0.912  1.5687 -1.6636  1.2494
 5016TIP3   OH215053   5.591   0.701   5.012 -0.6268  0.4148  0.0513
 5016TIP3    H115054   5.627   0.772   4.959  0.9986 -0.8615 -0.6755
 5016TIP3    H215055   5.524   0.662   4.957 -0.4482  0.4350 -0.1840
 5017TIP3   OH215056   2.977   4.167   1.120 -0.8473  0.1044 -0.5153
 5017TIP3    H115057   3.024   4.085   1.104 -1.1463 -0.0031 -0.8478
 5017TIP3    H215058   2.950   4.197   1.034 -0.7201  0.5715 -0.3993
 5018TIP3   OH215059   4.840   1.886   2.415  0.0785  0.3111  0.3663
 5018TIP3    H115060   4.818   1.867   2.324 -0.7913  2.1490  0.1637
 5018TIP3    H215061   4.760   1.867   2.464  0.4571 -0.3994  0.7351
 5019TIP3   OH215062   2.442   5.274   1.410  0.0871  0.0109 -0.0524
 5019TIP3    H115063   2.425   5.275   1.504  0.9662 -0.4841  0.1271
 5019TIP3    H215064   2.356   5.267   1.370 -0.2832  0.0029  0.7229
 5020TIP3   OH215065   2.909   2.114   1.733  0.2053 -0.1001  0.3849
 5020TIP3    H115066   2.852   2.188   1.755  0.3564 -0.1024  0.7863
 5020TIP3    H215067   2.911   2.060   1.812  1.0934  0.1185  0.5207
 5021TIP3   OH215068   0.196   3.339   4.299 -0.3811 -0.0279 -0.1113
 5021TIP3    H115069   0.281   3.376   4.274 -0.4514  0.8642  0.8973
 5021TIP3    H215070   0.217   3.255   4.339 -0.0604 -0.2565 -0.7509
 5022TIP3   OH215071   1.474   5.084   1.169 -0.1493  0.3791  0.2830
 5022TIP3    H115072   1.408   5.151   1.187  0.5327  0.7038  1.7706
 5022TIP3    H215073   1.458   5.058   1.079 -2.8750 -0.2381  0.8741
 5023TIP3   OH215074   1.444   3.793   0.692 -0.2844  0.1665  0.3433
 5023TIP3    H115075   1.476   3.796   0.782 -0.1179 -0.8986  0.3284
 5023TIP3    H215076   1.472   3.708   0.659 -0.2748  0.5725 -0.7455
 5024TIP3   OH215077   3.191   0.852   4.240 -0.5263  0.3608 -0.0034
 5024TIP3    H115078   3.108   0.895   4.261 -0.2376  0.3331  1.3060
 5024TIP3    H215079   3.176   0.759   4.260 -0.3526  0.2678 -0.2996
 5025TIP3   OH215080   2.768   5.847   3.468  0.2274  0.1636  0.9191
 5025TIP3    H115081   2.819   5.916   3.511 -1.5377  1.7678  0.5538
 5025TIP3    H215082   2.703   5.821   3.534 -0.7536  0.6963  0.1778
 5026TIP3   OH215083   3.861   2.835   4.100  0.2924  0.2756 -0.1235
 5026TIP3    H115084   3.947   2.877   4.098 -0.4951  1.9429 -1.1826
 5026TIP3    H215085   3.833   2.834   4.009 -0.5549 -0.8435  0.1304
 5027TIP3   OH215086   0.394   2.203   0.903  0.3135 -0.0465 -0.2510
 5027TIP3    H115087   0.463   2.160   0.854 -0.9022  0.3853 -2.4603
 5027TIP3    H215088   0.323   2.139   0.906  0.4011 -0.1186  1.1381
 5028TIP3   OH215089   4.833   1.981   0.125  0.0744  0.4256 -0.6675
 5028TIP3    H115090   4.813   1.957   0.215  0.5610  1.5214 -0.2490
 5028TIP3    H215091   4.923   1.952   0.110 -0.5202 -1.1778 -1.3414
 5029TIP3   OH215092   4.546   1.796   4.573  0.0900  0.0587 -0.5104
 5029TIP3    H115093   4.504   1.753   4.647 -1.4650  2.1987 -0.0520
 5029TIP3    H215094   4.519   1.744   4.497 -0.9286 -0.3533  0.1075
 5030TIP3   OH215095   3.523   1.834   2.646 -0.1659 -0.1601  0.0586
 5030TIP3    H115096   3.562   1.766   2.591  1.1102 -0.6516  1.5058
 5030TIP3    H215097   3.598   1.879   2.685 -0.9822  1.8968 -0.5999
 5031TIP3   OH215098   2.461   1.892   4.305 -0.2425  0.1393 -0.0143
 5031TIP3    H115099   2.462   1.907   4.210 -0.9213 -0.0163 -0.0518
 5031TIP3    H215100   2.445   1.798   4.314  0.6359  0.0009  0.2553
 5032TIP3   OH215101   3.625   5.321   4.721  0.4504 -0.2717  0.3870
 5032TIP3    H115102   3.674   5.252   4.766 -1.7274 -1.4434  1.1345
 5032TIP3    H215103   3.607   5.386   4.789  2.3669  1.0331 -0.2812
 5033TIP3   OH215104   5.934   3.550   3.471 -0.0475 -0.4824  0.3803
 5033TIP3    H115105   5.932   3.599   3.553 -0.6928  1.2699 -0.6321
 5033TIP3    H215106   5.860   3.489   3.479 -1.4108  1.1083  0.2910
 5034TIP3   OH215107   4.526   0.310   5.131 -0.3235  0.1736  0.2975
 5034TIP3    H115108   4.487   0.395   5.114 -0.0247  0.3535  0.5091
 5034TIP3    H215109   4.599   0.328   5.189  1.3075  0.1293 -1.6142
 5035TIP3   OH215110   3.740   0.390   2.324 -0.7103 -0.0870  0.0036
 5035TIP3    H115111   3.706   0.474   2.354 -0.7647 -0.2808  0.4946
 5035TIP3    H215112   3.832   0.407   2.304 -0.2491 -0.2924  1.7594
 5036TIP3   OH215113   4.452   3.529   2.134 -0.2011 -0.4452  0.0569
 5036TIP3    H115114   4.380   3.590   2.150  0.8069  0.7019  0.2781
 5036TIP3    H215115   4.514   3.577   2.080  0.2645 -1.5374 -0.4259
 5037TIP3   OH215116   0.343   3.231   0.471 -0.2636 -0.2154  0.3011
 5037TIP3    H115117   0.248   3.230   0.471 -0.3172  1.4423  0.6954
 5037TIP3    H215118   0.367   3.216   0.380 -0.9676  0.9447 -0.0961
 5038TIP3   OH215119   0.637   1.066   0.655 -0.2957 -0.7158  0.2284
 5038TIP3    H115120   0.559   1.018   0.684 -0.7517 -0.1153  0.0193
 5038TIP3    H215121   0.616   1.094   0.566  0.1352 -0.4827  0.1971
 5039TIP3   OH215122   4.861   5.615   4.055 -0.0966  0.7592  0.2702
 5039TIP3    H115123   4.955   5.619   4.042 -0.2426  0.9533 -0.8329
 5039TIP3    H215124   4.840   5.521   4.051 -0.0391  0.7640 -0.2368
 5040TIP3   OH215125   0.425   2.217   2.758  0.4875 -0.1574 -0.1206
 5040TIP3    H115126   0.482   2.276   2.708  2.2923 -1.4537  0.3299
 5040TIP3    H215127   0.409   2.144   2.698 -2.8889  1.2756 -1.2040
 5041TIP3   OH215128   1.401   1.157   3.497 -0.0763 -0.2576  0.1556
 5041TIP3    H115129   1.486   1.136   3.536  0.3082  1.7041  0.4711
 5041TIP3    H215130   1.380   1.080   3.443  2.7208 -0.1008 -1.3462
 5042TIP3   OH215131   2.747   3.279   1.273  0.3620  0.1442  0.2502
 5042TIP3    H115132   2.775   3.196   1.235  1.6043  0.6006  0.1324
 5042TIP3    H215133   2.731   3.260   1.365 -1.8681 -0.7836 -0.2630
 5043TIP3   OH215134   3.602   4.534   4.767 -0.2830 -0.1876  0.2190
 5043TIP3    H115135   3.666   4.474   4.731  1.2192  1.0904  0.6549
 5043TIP3    H215136   3.604   4.517   4.862 -1.8552 -1.2938  0.0973
 5044TIP3   OH215137   1.032   1.782   0.088  0.0690  0.2063 -0.1672
 5044TIP3    H115138   1.118   1.739   0.086  0.1472  0.3102  0.5464
 5044TIP3    H215139   0.970   1.710   0.100  0.3039  0.3488  2.4658
 5045TIP3   OH215140   3.686   1.013   2.262 -0.4967 -0.5972  0.2600
 5045TIP3    H115141   3.713   0.981   2.176 -2.0629  0.0378 -0.5061
 5045TIP3    H215142   3.590   1.009   2.260 -0.6313  1.1691  1.2723
 5046TIP3   OH215143   6.162   3.131   1.437 -0.4713  0.0751  0.3024
 5046TIP3    H115144   6.123   3.043   1.436  0.4520 -0.3788  1.8451
 5046TIP3    H215145   6.221   3.132   1.362  0.0025 -0.8558  0.6572
 5047TIP3   OH215146   5.380   5.221   0.440 -0.5557 -0.3835  0.3762
 5047TIP3    H115147   5.290   5.200   0.462 -0.6091 -0.2981  0.2406
 5047TIP3    H215148   5.386   5.316   0.452 -0.4027 -0.4301  0.6772
 5048TIP3   OH215149   5.699   5.151   4.590  0.3529 -0.1291  0.2699
 5048TIP3    H115150   5.764   5.125   4.524 -1.3807  0.5207 -1.8217
 5048TIP3    H215151   5.743   5.218   4.642  0.9698  1.2885 -1.9493
 5049TIP3   OH215152   3.564   0.643   3.804 -0.3184  0.4564  0.1529
 5049TIP3    H115153   3.537   0.619   3.892 -1.5485 -0.3340 -0.4002
 5049TIP3    H215154   3.602   0.563   3.767  3.3686  1.6154  1.0145
 5050TIP3   OH215155   4.012   2.577   4.314  0.2640 -0.2563 -0.2448
 5050TIP3    H115156   3.920   2.598   4.296  0.3784  0.4427 -0.0271
 5050TIP3    H215157   4.007   2.507   4.380 -0.1197 -1.2940 -1.3340
 5051TIP3   OH215158   1.750   2.116   3.725 -0.1370 -0.0985 -0.4175
 5051TIP3    H115159   1.667   2.101   3.681 -0.5332 -1.0941  0.6234
 5051TIP3    H215160   1.744   2.206   3.757 -0.6415 -0.0279 -0.7035
 5052TIP3   OH215161   0.321   2.162   0.047 -0.2167  0.2915 -0.0873
 5052TIP3    H115162   0.295   2.221  -0.024 -1.5893  1.0132  0.9561
 5052TIP3    H215163   0.350   2.221   0.117 -2.1252 -0.1650  1.1748
 5053TIP3   OH215164   2.613   2.368   5.130 -0.1052  0.1088 -0.2460
 5053TIP3    H115165   2.589   2.444   5.181  0.3679 -1.4987  2.5564
 5053TIP3    H215166   2.695   2.337   5.169  1.3359 -0.2104 -3.1952
 5054TIP3   OH215167   6.136   1.971   1.058 -0.5126 -0.5203  0.3202
 5054TIP3    H115168   6.208   2.034   1.061 -0.3984 -0.7029  1.9751
 5054TIP3    H215169   6.105   1.964   1.148 -2.9536 -0.0868 -0.4143
 5055TIP3   OH215170   1.052   4.325   5.142 -0.3610 -0.4073 -0.2468
 5055TIP3    H115171   1.114   4.300   5.211  0.3945  1.7065 -0.0966
 5055TIP3    H215172   1.097   4.302   5.060  0.7520  1.2779 -0.1458
 5056TIP3   OH215173   4.358   0.092   4.928 -0.6337  0.4122 -0.2811
 5056TIP3    H115174   4.298   0.156   4.889  0.0699  0.8230 -0.7052
 5056TIP3    H215175   4.372   0.028   4.859 -0.1201  0.6354 -0.3852
 5057TIP3   OH215176   5.133   0.944   2.863 -0.2543 -0.4933  0.4314
 5057TIP3    H115177   5.202   0.992   2.816  0.9170  0.3269  2.8368
 5057TIP3    H215178   5.177   0.864   2.892 -1.2541 -1.4744 -0.6543
 5058TIP3   OH215179   5.050   3.774   3.376 -0.1529 -0.1471 -0.1455
 5058TIP3    H115180   5.140   3.750   3.355  0.2589  0.1274  1.2072
 5058TIP3    H215181   5.045   3.868   3.359 -0.4054 -0.2901 -0.9078
 5059TIP3   OH215182   3.768   4.173   4.193  0.2040  0.2727  0.0313
 5059TIP3    H115183   3.687   4.142   4.232  0.5417 -0.0452  0.4897
 5059TIP3    H215184   3.830   4.101   4.206  0.6583  0.6571  0.0164
 5060TIP3   OH215185   0.993   3.839   1.525 -0.1177  0.3858  0.0856
 5060TIP3    H115186   1.009   3.907   1.591  0.0389 -1.5230  2.1182
 5060TIP3    H215187   1.076   3.792   1.519 -0.3229  0.1519 -1.0711
 5061TIP3   OH215188   2.738   4.932   2.266  0.6701  0.0085  0.1047
 5061TIP3    H115189   2.717   4.877   2.190 -1.4219  3.1375 -1.8527
 5061TIP3    H215190   2.833   4.943   2.263  0.6617 -0.0562 -2.0548
 5062TIP3   OH215191   0.285   2.197   3.045  0.0768  0.4548  0.3742
 5062TIP3    H115192   0.203   2.245   3.034  0.1994  0.8211  0.9746
 5062TIP3    H215193   0.267   2.110   3.009 -1.1490 -0.0575  2.0739
 5063TIP3   OH215194   2.247   4.252   4.841 -0.2558  0.1574 -0.4037
 5063TIP3    H115195   2.334   4.279   4.870  0.2431 -2.2589  0.5868
 5063TIP3    H215196   2.187   4.309   4.888  0.7532  1.9928 -1.2513
 5064TIP3   OH215197   5.406   1.161   4.078  0.1402  0.1064 -0.0333
 5064TIP3    H115198   5.378   1.253   4.078  0.2982  0.2228  2.7033
 5064TIP3    H215199   5.499   1.164   4.098  0.0447 -0.6516  0.5907
 5065TIP3   OH215200   5.584   4.817   2.722  0.0223  0.2595  0.8490
 5065TIP3    H115201   5.662   4.771   2.753 -0.3208 -0.7667  0.2439
 5065TIP3    H215202   5.606   4.910   2.727  1.0415 -0.0010  1.2963
 5066TIP3   OH215203   4.238   2.982   2.523  0.4188 -0.3371  0.4805
 5066TIP3    H115204   4.263   2.990   2.431  1.7482 -0.5597  0.8037
 5066TIP3    H215205   4.204   3.069   2.546 -1.8356 -0.8218 -0.7225
 5067TIP3   OH215206   2.168   4.319   0.110 -0.4928  0.4583 -0.2120
 5067TIP3    H115207   2.092   4.334   0.165 -0.9219 -2.6671  0.2294
 5067TIP3    H215208   2.140   4.253   0.047  1.3030  0.6379 -1.2830
 5068TIP3   OH215209   1.268   2.247   5.096  0.2515 -0.4226 -0.0341
 5068TIP3    H115210   1.196   2.305   5.072  0.6017 -1.0262 -2.8797
 5068TIP3    H215211   1.342   2.277   5.044  1.3421 -1.4475  0.8588
 5069TIP3   OH215212   3.674   4.192   2.130  0.6469 -0.4757  0.0249
 5069TIP3    H115213   3.721   4.201   2.048 -1.3563 -0.6146 -1.2135
 5069TIP3    H215214   3.621   4.272   2.135 -1.2592 -1.6602 -0.2240
 5070TIP3   OH215215   1.001   4.887   4.242  0.0786 -0.1239  0.1501
 5070TIP3    H115216   1.072   4.914   4.184 -0.0722 -0.2591 -0.1013
 5070TIP3    H215217   0.969   4.969   4.281  1.0397 -0.1609  1.0531
 5071TIP3   OH215218   4.225   3.593   2.276  0.4510 -0.0805  0.1202
 5071TIP3    H115219   4.282   3.552   2.341 -0.6245 -0.2547  0.9806
 5071TIP3    H215220   4.250   3.685   2.277 -0.6208  0.2366  1.9834
 5072TIP3   OH215221   3.881   5.634   3.965 -0.1665 -0.2442  0.1470
 5072TIP3    H115222   3.836   5.629   4.050  1.3198  1.2699  1.0974
 5072TIP3    H215223   3.901   5.727   3.955  1.0250 -0.6157 -1.1397
 5073TIP3   OH215224   0.044   3.921   1.428 -0.2955  0.3147 -0.3500
 5073TIP3    H115225   0.046   4.006   1.384 -0.9312  0.8781  0.6723
 5073TIP3    H215226   0.100   3.865   1.375  1.4482  1.8014 -0.1635
 5074TIP3   OH215227   0.055   4.279   4.949 -0.1775 -0.1776 -0.1913
 5074TIP3    H115228   0.093   4.262   5.036 -0.1885 -1.2079 -0.3792
 5074TIP3    H215229   0.011   4.198   4.926 -1.0748  0.4386 -0.7204
 5075TIP3   OH215230   3.042   4.101   1.501  0.1345  0.3110 -0.0245
 5075TIP3    H115231   3.097   4.110   1.578 -1.8377 -0.8219  1.5954
 5075TIP3    H215232   3.055   4.010   1.472  0.5608  0.6114 -0.8306
 5076TIP3   OH215233   5.023   1.120   2.520 -0.4778 -0.4701 -0.2938
 5076TIP3    H115234   4.931   1.099   2.501 -0.0808 -0.6723 -2.1700
 5076TIP3    H215235   5.072   1.043   2.492  0.3027 -0.3147  0.5720
 5077TIP3   OH215236   3.492   3.844   2.442 -0.4649 -0.0787  0.3779
 5077TIP3    H115237   3.467   3.784   2.372 -1.9443 -1.7094  2.1852
 5077TIP3    H215238   3.442   3.924   2.425 -0.5964 -0.3531 -0.5653
 5078TIP3   OH215239   0.779   2.042   2.596  0.3908 -0.2798 -0.2554
 5078TIP3    H115240   0.844   2.029   2.527 -1.2969  0.3006 -2.0261
 5078TIP3    H215241   0.735   1.957   2.604  0.3573 -0.2499 -0.1114
 5079TIP3   OH215242   2.125   0.837   1.862  0.0289 -0.2263 -0.0796
 5079TIP3    H115243   2.191   0.904   1.877  2.0503 -1.4480 -2.6713
 5079TIP3    H215244   2.107   0.800   1.948  0.8543  1.8035  1.0174
 5080TIP3   OH215245   0.049   4.318   1.070  0.3919  0.1249 -0.2995
 5080TIP3    H115246   0.053   4.400   1.118 -1.7681 -0.1864  0.4892
 5080TIP3    H215247   0.089   4.254   1.129  0.9747  0.3624 -0.4238
 5081TIP3   OH215248   2.154   2.481   0.451 -0.2761 -0.2961 -1.2500
 5081TIP3    H115249   2.067   2.510   0.424 -0.7819 -0.9661 -0.3869
 5081TIP3    H215250   2.191   2.556   0.498 -1.9335 -1.2137  1.7763
 5082TIP3   OH215251   0.143   4.566   0.881  0.0467  0.4969  0.4082
 5082TIP3    H115252   0.130   4.518   0.963 -2.3903  0.3732  0.0297
 5082TIP3    H215253   0.123   4.657   0.904 -0.9750  0.4109 -0.0869
 5083TIP3   OH215254   3.192   1.943   3.572  0.6056 -0.4707  0.3876
 5083TIP3    H115255   3.112   1.896   3.549  0.3650 -1.2171  2.5468
 5083TIP3    H215256   3.258   1.875   3.580  1.1276 -0.0146  0.0636
 5084TIP3   OH215257   1.436   4.419   1.427 -0.0108  0.4574  0.0439
 5084TIP3    H115258   1.450   4.411   1.521  0.1538  0.8571  0.0533
 5084TIP3    H215259   1.464   4.508   1.406 -2.0933  1.1412 -0.0136
 5085TIP3   OH215260   1.949   2.514   3.450  0.1206  0.0863  0.0002
 5085TIP3    H115261   1.994   2.578   3.395 -0.8751  0.0287 -0.9150
 5085TIP3    H215262   1.885   2.473   3.392  1.0784 -2.1422  0.4026
 5086TIP3   OH215263   6.103   2.501   0.315 -0.4919  0.4494 -0.7683
 5086TIP3    H115264   6.059   2.423   0.279 -0.4934 -1.2033  2.4827
 5086TIP3    H215265   6.094   2.492   0.409  6.2192  0.2192  0.3251
 5087TIP3   OH215266   6.134   0.709   1.389 -0.3165  0.3181  0.1838
 5087TIP3    H115267   6.141   0.624   1.345 -1.5509  0.4625 -0.3304
 5087TIP3    H215268   6.220   0.722   1.429 -1.0288 -2.8185  3.3080
 5088TIP3   OH215269   5.696   0.808   1.077 -0.5840 -0.6483 -0.2321
 5088TIP3    H115270   5.666   0.718   1.083 -0.8136 -0.6406 -1.1131
 5088TIP3    H215271   5.617   0.859   1.061 -0.4871 -0.2553  0.4887
 5089TIP3   OH215272   4.832   2.818   0.132  0.5417 -0.1363 -0.0323
 5089TIP3    H115273   4.744   2.823   0.094 -0.5997 -1.5891  2.2105
 5089TIP3    H215274   4.864   2.908   0.129 -0.7110  0.3050 -1.5505
 5090TIP3   OH215275   4.411   2.501   4.930 -0.2922 -0.2815 -0.3583
 5090TIP3    H115276   4.321   2.492   4.899 -0.2934  0.0188 -0.4477
 5090TIP3    H215277   4.447   2.571   4.877  0.9857 -2.4273 -2.5238
 5091TIP3   OH215278   4.791   4.681   4.335  0.5218  0.3068 -0.2832
 5091TIP3    H115279   4.730   4.692   4.262  0.5826  1.0977 -0.2314
 5091TIP3    H215280   4.740   4.638   4.403  0.7358 -1.3352 -1.1223
 5092TIP3   OH215281   3.127   2.810   1.484 -1.0261 -0.0164  0.6202
 5092TIP3    H115282   3.172   2.753   1.422 -0.7295  0.4155  0.4351
 5092TIP3    H215283   3.101   2.886   1.433 -0.4772  0.5002  1.0933
 5093TIP3   OH215284   6.169   2.768   0.864  0.2279  0.2239  0.3403
 5093TIP3    H115285   6.200   2.701   0.804 -0.2333  0.5664 -0.2937
 5093TIP3    H215286   6.089   2.732   0.902 -0.2529  0.5702 -0.3172
 5094TIP3   OH215287   5.052   0.870   1.631 -0.0283  0.5946  0.4282
 5094TIP3    H115288   5.007   0.922   1.698 -0.9880  0.5499 -0.1629
 5094TIP3    H215289   5.005   0.890   1.550 -0.1738 -0.9014  0.1247
 5095TIP3   OH215290   0.324   3.922   1.782  0.2279  0.3427 -0.4802
 5095TIP3    H115291   0.395   3.933   1.845 -0.6500 -0.8434  0.7583
 5095TIP3    H215292   0.277   3.844   1.811 -2.9658  2.3185  0.1123
 5096TIP3   OH215293   1.388   5.023   4.813 -0.5955 -0.0191  0.4829
 5096TIP3    H115294   1.341   4.994   4.735  0.1142 -0.1963  0.1068
 5096TIP3    H215295   1.452   5.086   4.780  0.6267 -1.0918  0.7118
 5097TIP3   OH215296   5.575   2.016   3.237  0.3997  0.4892 -0.5103
 5097TIP3    H115297   5.534   2.044   3.319 -0.2436 -0.7457 -0.3858
 5097TIP3    H215298   5.587   2.097   3.187 -0.8391  1.0568  0.0759
 5098TIP3   OH215299   1.470   0.528   4.513 -0.3789  0.4389 -0.3643
 5098TIP3    H115300   1.519   0.556   4.590 -0.8603  0.1511  0.0530
 5098TIP3    H215301   1.387   0.496   4.548 -0.0884 -0.9502 -0.8671
 5099TIP3   OH215302   4.780   4.339   3.289 -0.4625 -0.6050 -0.4203
 5099TIP3    H115303   4.870   4.314   3.310 -0.3721  0.9736  1.3664
 5099TIP3    H215304   4.749   4.270   3.230  0.9459 -2.7896  1.2113
 5100TIP3   OH215305   3.691   2.370   2.805  0.8592 -0.3845  0.1002
 5100TIP3    H115306   3.701   2.461   2.777 -0.4906 -0.2309  0.0606
 5100TIP3    H215307   3.754   2.360   2.876 -0.5089  1.2550  1.6357
 5101TIP3   OH215308   4.932   1.343   3.915 -0.1535 -0.1752 -0.6607
 5101TIP3    H115309   4.943   1.309   4.003 -0.8045  0.3069 -0.3858
 5101TIP3    H215310   4.898   1.432   3.927 -0.0090 -0.0123 -1.3878
 5102TIP3   OH215311   1.980   3.613   0.142 -0.3353  0.0871 -0.0002
 5102TIP3    H115312   1.946   3.671   0.074  0.1781  2.3316  1.5443
 5102TIP3    H215313   2.068   3.590   0.112 -1.1428 -1.3232 -1.4211
 5103TIP3   OH215314   0.487   1.720   2.490  0.0704 -0.1596  0.1787
 5103TIP3    H115315   0.465   1.632   2.519  1.3923 -0.5570  0.0242
 5103TIP3    H215316   0.561   1.746   2.545 -2.2113  2.1230  2.4358
 5104TIP3   OH215317   2.597   2.486   1.247  0.6948  0.4319  0.2653
 5104TIP3    H115318   2.646   2.422   1.196  1.4853 -0.4914  2.1161
 5104TIP3    H215319   2.510   2.446   1.259  0.2120  1.0313 -1.0155
 5105TIP3   OH215320   1.008   4.443   0.838 -0.6128  0.1027 -0.2824
 5105TIP3    H115321   1.008   4.422   0.932 -1.1152 -1.4865 -0.6048
 5105TIP3    H215322   0.916   4.447   0.814 -0.4900  0.6807 -0.6908
 5106TIP3   OH215323   5.004   4.037   3.323 -0.3980 -0.6229 -0.8757
 5106TIP3    H115324   4.963   4.045   3.237 -0.0614  0.1282 -0.9729
 5106TIP3    H215325   5.078   4.097   3.321 -0.0757 -0.9823 -0.2390
 5107TIP3   OH215326   2.983   1.358   1.543 -0.2079  0.3982 -0.5230
 5107TIP3    H115327   2.905   1.342   1.490 -0.6776  0.9640 -0.0149
 5107TIP3    H215328   2.992   1.453   1.545  0.2849  0.3519 -0.2724
 5108TIP3   OH215329   1.908   5.268   3.082  0.0515  0.6643 -0.3841
 5108TIP3    H115330   1.982   5.280   3.141  0.3183 -1.3127 -0.2490
 5108TIP3    H215331   1.854   5.202   3.125  0.4221 -1.0870 -2.4372
 5109TIP3   OH215332   5.854   2.682   0.735 -0.2007 -0.2555 -0.8738
 5109TIP3    H115333   5.901   2.756   0.697 -0.6957 -0.5733 -2.1997
 5109TIP3    H215334   5.773   2.677   0.683 -0.1810 -1.7011 -0.8157
 5110TIP3   OH215335   3.651   2.097   2.759  0.5446 -0.1988  0.3990
 5110TIP3    H115336   3.561   2.077   2.787 -0.5063  1.3804 -1.5094
 5110TIP3    H215337   3.659   2.192   2.771  1.4557 -0.1114 -0.7093
 5111TIP3   OH215338   3.981   4.907   0.743  0.6631  0.2125  0.5178
 5111TIP3    H115339   3.915   4.883   0.809 -1.3169  1.0736 -1.0470
 5111TIP3    H215340   4.030   4.979   0.782  0.7954 -0.5220  1.7602
 5112TIP3   OH215341   4.484   5.369   0.138  0.6849 -0.4550 -0.0834
 5112TIP3    H115342   4.431   5.294   0.165 -0.5866  0.6069  0.4898
 5112TIP3    H215343   4.535   5.336   0.064  0.1822 -1.8900  0.1678
 5113TIP3   OH215344   2.967   1.268   3.608 -0.4499  0.3018  0.0561
 5113TIP3    H115345   2.936   1.206   3.542 -2.5556  0.8894  0.4225
 5113TIP3    H215346   3.016   1.215   3.670 -0.4157 -0.6257 -0.7461
 5114TIP3   OH215347   3.236   0.587   4.343 -0.0612 -0.3185 -0.4622
 5114TIP3    H115348   3.309   0.539   4.383 -0.3230 -1.5237 -1.3780
 5114TIP3    H215349   3.187   0.521   4.295 -2.1815  0.3141  0.6774
 5115TIP3   OH215350   3.214   0.055   0.345  0.2928  0.3876 -0.6933
 5115TIP3    H115351   3.119   0.045   0.340  0.1768  1.0108  0.0479
 5115TIP3    H215352   3.249  -0.027   0.311 -0.5067  0.2063 -1.1046
 5116TIP3   OH215353   3.896   2.587   2.279  0.7184  0.6574 -0.3227
 5116TIP3    H115354   3.883   2.554   2.190 -0.5419 -2.7147  0.9500
 5116TIP3    H215355   3.986   2.564   2.300 -0.2803 -2.8664  0.7211
 5117TIP3   OH215356   5.955   3.577   1.733 -0.1033  0.1324  0.0861
 5117TIP3    H115357   6.013   3.604   1.804 -0.0101  1.2882 -0.3870
 5117TIP3    H215358   5.878   3.542   1.776  0.1293  0.4219  0.7571
 5118TIP3   OH215359   1.211   3.824   3.787  0.2938  0.0423  0.2888
 5118TIP3    H115360   1.296   3.859   3.813  0.4114  1.0277 -1.2677
 5118TIP3    H215361   1.186   3.765   3.858  1.3932  1.1775  1.6653
 5119TIP3   OH215362   3.648   3.488   2.700  0.2164  0.7691 -0.0859
 5119TIP3    H115363   3.669   3.455   2.613 -0.6912  0.7555 -0.3118
 5119TIP3    H215364   3.728   3.531   2.730  0.7706  0.1128 -0.6141
 5120TIP3   OH215365   1.218   3.196   1.573 -0.0552 -0.3443 -0.1230
 5120TIP3    H115366   1.252   3.152   1.495  0.3445 -1.7478  0.8050
 5120TIP3    H215367   1.292   3.196   1.634  0.1068  2.0544 -0.2154
 5121TIP3   OH215368   5.076   1.065   2.079 -0.1111 -0.0650 -0.0493
 5121TIP3    H115369   4.996   1.075   2.131 -0.6299 -2.0324 -0.3959
 5121TIP3    H215370   5.069   0.977   2.041  1.8902  0.0008 -0.6693
 5122TIP3   OH215371   0.920   4.882   2.745  0.2427 -0.3427 -0.4994
 5122TIP3    H115372   0.949   4.806   2.694  0.5697 -0.0072 -0.8148
 5122TIP3    H215373   0.962   4.871   2.830  0.2848 -0.5163 -0.5423
 5123TIP3   OH215374   3.129   3.007   2.753  0.1566  0.1636 -0.0697
 5123TIP3    H115375   3.202   3.052   2.796 -0.2629 -0.0862  0.9280
 5123TIP3    H215376   3.085   2.960   2.823 -2.1260  1.8278 -0.2911
 5124TIP3   OH215377   0.789   3.222   0.611  0.3994 -0.0569  0.2024
 5124TIP3    H115378   0.694   3.207   0.620  0.3732 -0.6104 -0.7672
 5124TIP3    H215379   0.803   3.310   0.645 -0.5176  0.1378  0.1148
 5125TIP3   OH215380   2.073   2.208   2.079  0.0068  0.0981 -0.7216
 5125TIP3    H115381   2.117   2.281   2.123  0.0042 -0.5910  0.4750
 5125TIP3    H215382   2.096   2.131   2.132 -2.5102 -0.3138 -0.1085
 5126TIP3   OH215383   5.037   3.950   0.238  1.0403 -0.1012 -0.3600
 5126TIP3    H115384   4.955   3.933   0.286  1.5537  2.6236  1.7380
 5126TIP3    H215385   5.080   3.865   0.232 -0.2058 -0.9626  1.9358
 5127TIP3   OH215386   0.045   1.810   2.949  0.1657  0.0724 -0.3802
 5127TIP3    H115387   0.032   1.716   2.932  0.4220  0.0638 -0.5473
 5127TIP3    H215388  -0.039   1.841   2.980 -0.2963  0.0556 -1.5509
 5128TIP3   OH215389   5.032   0.456   3.226 -0.2551  0.2011 -0.6959
 5128TIP3    H115390   4.948   0.427   3.190  0.1453  0.1976 -1.6520
 5128TIP3    H215391   5.041   0.547   3.196  0.0457  0.2270 -0.5284
 5129TIP3   OH215392   5.596   2.544   2.916  0.1744 -0.1213 -0.9225
 5129TIP3    H115393   5.691   2.546   2.903  0.2814 -0.7656 -0.3214
 5129TIP3    H215394   5.561   2.521   2.830  0.5642  0.0732 -1.1381
 5130TIP3   OH215395   5.223   0.705   2.953  0.1399 -0.0232  0.0325
 5130TIP3    H115396   5.185   0.710   3.041  0.0161  1.0207 -0.0684
 5130TIP3    H215397   5.314   0.731   2.964 -0.0555  0.8061 -0.2493
 5131TIP3   OH215398   0.263   4.133   3.262 -0.1664  0.5548 -0.2229
 5131TIP3    H115399   0.250   4.125   3.357  0.4887 -3.8060 -0.2983
 5131TIP3    H215400   0.177   4.117   3.224 -0.0220  0.0410 -0.3479
 5132TIP3   OH215401   5.611   2.267   0.788 -0.1422  0.3496  0.0226
 5132TIP3    H115402   5.543   2.236   0.848 -0.2859 -0.1309 -0.3789
 5132TIP3    H215403   5.619   2.197   0.723 -0.3535  1.0725 -0.8057
 5133TIP3   OH215404   2.248   3.774   0.549 -0.4020  0.4803 -0.2263
 5133TIP3    H115405   2.262   3.788   0.643 -2.3566  1.4150 -0.0230
 5133TIP3    H215406   2.187   3.843   0.523  1.6508  1.5404 -2.6701
 5134TIP3   OH215407   1.596   2.759   1.788 -0.1184  0.5671 -0.5181
 5134TIP3    H115408   1.654   2.729   1.718  0.1624  1.3577 -0.6364
 5134TIP3    H215409   1.643   2.832   1.829  0.3652 -0.7757  1.4506
 5135TIP3   OH215410   6.035   1.376   4.063 -0.2441  0.3786 -0.0367
 5135TIP3    H115411   6.081   1.293   4.079  2.9005  2.0875  0.7096
 5135TIP3    H215412   6.057   1.430   4.138 -1.0429  2.3520 -1.1513
 5136TIP3   OH215413   4.666   0.510   1.202  0.1949  0.1820 -0.2473
 5136TIP3    H115414   4.676   0.605   1.189  0.4464 -0.0213 -1.6699
 5136TIP3    H215415   4.590   0.487   1.151 -0.3183 -0.2885  0.7038
 5137TIP3   OH215416   2.332   2.314   2.045 -0.4022  0.5671 -0.1471
 5137TIP3    H115417   2.375   2.260   2.112 -2.3933  0.6811  1.3088
 5137TIP3    H215418   2.343   2.264   1.964 -0.8240 -1.2791  0.8729
 5138TIP3   OH215419   0.383   2.101   1.754  0.2496  0.4524 -0.0111
 5138TIP3    H115420   0.298   2.068   1.726  1.1886 -0.6765 -1.6946
 5138TIP3    H215421   0.382   2.194   1.732 -0.9772  0.7437  1.1485
 5139TIP3   OH215422   3.781   3.242   3.259  0.5584 -0.0794 -0.6207
 5139TIP3    H115423   3.735   3.255   3.342 -0.0681 -0.5952 -0.8799
 5139TIP3    H215424   3.867   3.206   3.285 -0.3375 -2.1260 -0.2528
 5140TIP3   OH215425   5.456   0.902   4.365  0.0426 -0.2487  0.0559
 5140TIP3    H115426   5.528   0.855   4.323  0.4175 -0.0880  0.5198
 5140TIP3    H215427   5.488   0.924   4.452  0.0473  1.2586 -0.3031
 5141TIP3   OH215428   2.898   0.290   4.817 -0.0496 -0.4088 -0.1958
 5141TIP3    H115429   2.871   0.200   4.795  0.5739 -0.7103  0.2656
 5141TIP3    H215430   2.831   0.320   4.878 -0.9242 -0.1230 -1.2609
 5142TIP3   OH215431   0.032   0.851   1.705  0.4942  0.3607  0.0660
 5142TIP3    H115432   0.035   0.862   1.610  1.0724  0.4110  0.0855
 5142TIP3    H215433   0.092   0.778   1.723  2.5502  2.0879  0.6296
 5143TIP3   OH215434   5.187   5.156   1.406 -0.4015 -0.1537 -0.1096
 5143TIP3    H115435   5.158   5.174   1.495  0.3269 -0.3600  0.1797
 5143TIP3    H215436   5.235   5.073   1.413 -1.3335 -0.7847 -0.9056
 5144TIP3   OH215437   1.086   1.929   1.778 -0.4564  0.4178 -0.4884
 5144TIP3    H115438   1.124   1.928   1.690 -1.6835  1.5202 -1.0701
 5144TIP3    H215439   1.121   2.009   1.818  1.4358 -0.9228  0.7007
 5145TIP3   OH215440   1.639   0.173   5.056 -0.4630 -0.1377 -0.0755
 5145TIP3    H115441   1.716   0.142   5.008  0.4556  1.5776  0.1810
 5145TIP3    H215442   1.579   0.202   4.987 -0.2531 -0.1415 -0.2628
 5146TIP3   OH215443   2.452   0.312   2.541  0.5939 -0.0057 -0.6256
 5146TIP3    H115444   2.541   0.297   2.509  0.4345  0.5021 -1.3499
 5146TIP3    H215445   2.422   0.227   2.571  0.4566 -0.7117 -2.6347
 5147TIP3   OH215446   0.151   3.406   2.803 -0.1711 -0.1275 -0.0609
 5147TIP3    H115447   0.119   3.338   2.862  0.3127 -1.2289 -1.0260
 5147TIP3    H215448   0.237   3.429   2.837 -0.4999  0.2969  0.4977
 5148TIP3   OH215449   4.375   3.001   2.880  0.4146 -0.0936  0.4211
 5148TIP3    H115450   4.466   2.974   2.878  0.1769 -0.8795  0.1562
 5148TIP3    H215451   4.373   3.081   2.827  0.9641  0.0056  0.5396
 5149TIP3   OH215452   1.629   2.572   2.637  0.6752 -0.3138 -0.1549
 5149TIP3    H115453   1.591   2.629   2.570  0.6210 -0.3786 -0.1790
 5149TIP3    H215454   1.686   2.512   2.588  0.2733 -0.6663 -0.1973
 5150TIP3   OH215455   1.191   0.412   1.260  0.1355 -0.0329 -0.0312
 5150TIP3    H115456   1.229   0.397   1.173 -0.2634  1.7461 -0.5632
 5150TIP3    H215457   1.203   0.506   1.274 -0.2327 -0.2214  1.6524
 5151TIP3   OH215458   2.850   5.071   1.947  0.1214  0.2819  0.1148
 5151TIP3    H115459   2.908   5.066   1.871  0.6407 -1.2501  0.5747
 5151TIP3    H215460   2.904   5.040   2.020 -0.9177 -0.0175  0.7678
 5152TIP3   OH215461   2.944   4.102   2.144  0.2645  0.0546  0.5437
 5152TIP3    H115462   2.941   4.174   2.081 -1.7615  0.7896  1.3947
 5152TIP3    H215463   3.031   4.064   2.133 -0.2155 -0.3221 -3.1762
 5153TIP3   OH215464   1.839   3.789   2.855  0.2731 -0.1904 -0.6143
 5153TIP3    H115465   1.823   3.695   2.849  0.5593 -0.2466 -0.5270
 5153TIP3    H215466   1.919   3.803   2.803 -0.1346  0.1045 -1.1795
 5154TIP3   OH215467   1.310   1.465   0.705 -0.0731 -0.0913 -0.4847
 5154TIP3    H115468   1.257   1.388   0.684 -0.8235  0.2819 -0.0007
 5154TIP3    H215469   1.347   1.492   0.621 -1.0735 -0.0574 -0.9326
 5155TIP3   OH215470   4.487   4.022   1.517  0.2923  0.1690 -0.2639
 5155TIP3    H115471   4.495   4.025   1.613 -0.0861  0.8851 -0.2495
 5155TIP3    H215472   4.392   4.022   1.501  0.3213 -1.3075 -0.6137
 5156TIP3   OH215473   5.111   5.903   3.922  0.0048 -0.5220  0.1278
 5156TIP3    H115474   5.102   5.825   3.868 -1.7210 -2.6835  3.2846
 5156TIP3    H215475   5.137   5.871   4.008  1.5437  2.6372  0.9836
 5157TIP3   OH215476   5.286   0.716   4.843 -0.2812 -0.1352  0.1390
 5157TIP3    H115477   5.214   0.719   4.780  1.1222 -2.2877 -1.7382
 5157TIP3    H215478   5.253   0.660   4.914 -1.1176  0.4862  0.2533
 5158TIP3   OH215479   4.875   0.583   4.887 -0.0098 -0.0177  0.4348
 5158TIP3    H115480   4.935   0.510   4.871 -0.3101 -0.5295  1.5677
 5158TIP3    H215481   4.827   0.558   4.966  0.0604  1.5145  1.0021
 5159TIP3   OH215482   2.897   4.392   4.416 -0.2419 -0.5698  0.2156
 5159TIP3    H115483   2.879   4.480   4.448 -1.4206 -0.1246 -1.5465
 5159TIP3    H215484   2.892   4.399   4.321 -1.4299 -2.7280  0.0535
 5160TIP3   OH215485   4.673   3.443   3.788 -0.7453 -0.2697 -0.3414
 5160TIP3    H115486   4.739   3.434   3.858 -0.1314  0.5857 -0.7886
 5160TIP3    H215487   4.640   3.355   3.775 -0.3847 -0.5553  0.5702
 5161TIP3   OH215488   1.522   0.427   3.425  0.0429  0.0525  0.2914
 5161TIP3    H115489   1.442   0.455   3.470 -1.1097 -0.4669 -1.3170
 5161TIP3    H215490   1.520   0.475   3.342  0.0128 -1.9040 -0.9029
 5162TIP3   OH215491   0.522   3.005   4.100 -0.2651  0.3055 -0.0214
 5162TIP3    H115492   0.444   3.056   4.125  0.0045  0.4021  0.6270
 5162TIP3    H215493   0.575   3.067   4.049 -0.4205  0.3610 -0.1179
 5163TIP3   OH215494   1.090   1.676   5.065  0.0324 -0.3700  0.0116
 5163TIP3    H115495   1.137   1.616   5.122 -1.3172 -1.5910 -0.0939
 5163TIP3    H215496   1.158   1.734   5.029  1.3169 -1.5323  0.4759
 5164TIP3   OH215497   4.448   5.420   1.546 -0.4153 -0.4191  0.5880
 5164TIP3    H115498   4.442   5.402   1.640 -2.4045  0.4840  0.6832
 5164TIP3    H215499   4.470   5.335   1.507 -2.3640 -1.4660  1.6345
 5165TIP3   OH215500   3.251   2.492   3.081 -0.1105  0.5796  0.0112
 5165TIP3    H115501   3.283   2.573   3.041  0.1968  0.1578 -0.6032
 5165TIP3    H215502   3.324   2.430   3.073 -0.1423  0.3929  0.9685
 5166TIP3   OH215503   0.326   4.042   4.480  0.4146  1.0432  0.1993
 5166TIP3    H115504   0.380   4.071   4.407 -0.0429  0.0446 -0.5502
 5166TIP3    H215505   0.387   4.001   4.541  0.6001  0.4628 -0.3632
 5167TIP3   OH215506   6.145   3.548   1.131  0.1519 -0.2487 -0.1482
 5167TIP3    H115507   6.067   3.502   1.100 -0.1524 -0.1767  0.4966
 5167TIP3    H215508   6.169   3.504   1.212 -0.7088  1.3072  0.9943
 5168TIP3   OH215509   0.671   2.228   2.421 -0.6295  0.5563  0.2619
 5168TIP3    H115510   0.665   2.310   2.471 -0.3633 -0.2012  1.5962
 5168TIP3    H215511   0.709   2.165   2.483 -1.0798 -0.6513 -0.6476
 5169TIP3   OH215512   1.830   1.653   0.514  0.3163  0.3227  0.6673
 5169TIP3    H115513   1.851   1.699   0.433  0.7153 -0.3036  0.4023
 5169TIP3    H215514   1.792   1.570   0.485 -0.0042  0.3060  1.1275
 5170TIP3   OH215515   1.683   2.127   2.055  0.2621  0.1296  0.0863
 5170TIP3    H115516   1.744   2.177   2.110  1.6941  0.8087 -1.9928
 5170TIP3    H215517   1.679   2.041   2.097  0.8611  0.7780  1.5529
 5171TIP3   OH215518   0.973   4.761   4.654  0.2156 -0.1451 -0.4035
 5171TIP3    H115519   1.016   4.681   4.685 -0.7899 -1.7856 -2.9156
 5171TIP3    H215520   1.040   4.807   4.604  0.2495 -0.4708 -0.6597
 5172TIP3   OH215521   4.944   5.705   0.120 -0.2771  0.1204  0.3642
 5172TIP3    H115522   4.987   5.784   0.154  0.6580  0.0269 -0.5661
 5172TIP3    H215523   4.936   5.721   0.026 -2.6783  0.3126  0.5454
 5173TIP3   OH215524   3.109   2.916   0.862  0.9816 -0.7613 -0.2046
 5173TIP3    H115525   3.059   2.952   0.790  0.7731  0.8294  0.6984
 5173TIP3    H215526   3.085   2.823   0.864  0.3271 -0.6396 -1.6088
 5174TIP3   OH215527   1.816   1.789   4.848 -0.2106  0.6082  0.6532
 5174TIP3    H115528   1.910   1.799   4.832 -0.3505  0.3012 -0.4691
 5174TIP3    H215529   1.780   1.877   4.837 -0.1874  0.5461  0.0452
 5175TIP3   OH215530   5.959   4.946   3.674  0.3176 -0.1137 -0.3430
 5175TIP3    H115531   5.893   4.978   3.614  0.4553 -1.6354 -1.3510
 5175TIP3    H215532   5.922   4.866   3.711  0.7902  0.0785  0.5875
 5176TIP3   OH215533   4.318   4.367   3.742 -0.1506  0.1213  0.8698
 5176TIP3    H115534   4.253   4.431   3.770 -1.4166 -1.7698  2.5309
 5176TIP3    H215535   4.397   4.419   3.724 -1.3877  2.2108  1.2000
 5177TIP3   OH215536   3.262   4.253   1.098  0.2331  0.1094  0.3053
 5177TIP3    H115537   3.272   4.214   1.012  0.4917 -0.0384  0.4016
 5177TIP3    H215538   3.291   4.185   1.159 -0.0236  0.1851  0.5111
 5178TIP3   OH215539   4.874   0.097   0.750  0.4351  0.2077  0.1633
 5178TIP3    H115540   4.859   0.190   0.734  1.1601  0.1720 -0.8868
 5178TIP3    H215541   4.885   0.090   0.845 -2.1715  0.7686  0.5850
 5179TIP3   OH215542   5.344   4.122   0.274 -0.0172  0.8245 -0.3918
 5179TIP3    H115543   5.360   4.031   0.300 -0.6075  0.8015 -0.0988
 5179TIP3    H215544   5.352   4.172   0.356 -1.5387  0.7967 -0.2045
 5180TIP3   OH215545   5.135   2.196   1.532  0.0180  0.4579 -0.4335
 5180TIP3    H115546   5.084   2.115   1.524  0.1458  0.3217  0.1238
 5180TIP3    H215547   5.071   2.262   1.559  0.0358  0.4043 -0.2607
 5181TIP3   OH215548   3.532   5.781   0.433  0.4169 -0.2002 -0.4932
 5181TIP3    H115549   3.513   5.780   0.527 -1.6102  0.9880 -0.8280
 5181TIP3    H215550   3.451   5.750   0.392  0.6475  0.9620 -1.9170
 5182TIP3   OH215551   1.437   2.362   3.795  0.1859 -0.5074 -0.0996
 5182TIP3    H115552   1.497   2.348   3.868  2.2538  0.2225 -1.5972
 5182TIP3    H215553   1.456   2.290   3.734 -0.5881 -0.3561 -0.5356
 5183TIP3   OH215554   6.040   4.301   2.071 -0.2112 -0.1913  0.3633
 5183TIP3    H115555   6.047   4.312   1.976 -0.0691 -0.9241  0.2864
 5183TIP3    H215556   5.998   4.382   2.101  1.8235  1.0938 -0.0494
 5184TIP3   OH215557   4.145   2.132   2.504  0.1766 -0.4388  0.1841
 5184TIP3    H115558   4.215   2.194   2.526 -0.0306 -0.7924  1.9627
 5184TIP3    H215559   4.181   2.046   2.525 -0.3606 -0.7219 -0.0370
 5185TIP3   OH215560   1.964   5.022   1.813  0.2080 -0.6122 -0.0426
 5185TIP3    H115561   1.973   5.114   1.787  1.8841 -0.6371  0.3111
 5185TIP3    H215562   1.871   5.003   1.802 -0.4152  1.4888  1.0739
 5186TIP3   OH215563   2.958   2.695   2.504  0.1838 -0.4891 -0.4597
 5186TIP3    H115564   3.026   2.668   2.566  0.2387 -0.4200 -0.4891
 5186TIP3    H215565   3.008   2.725   2.427  0.1078 -1.3286 -0.8483
 5187TIP3   OH215566   0.054   5.591   4.286  0.2424  0.4356  0.4237
 5187TIP3    H115567  -0.037   5.572   4.261  0.3550 -0.0191  0.3377
 5187TIP3    H215568   0.072   5.530   4.358  0.6903  0.0552 -0.0057
 5188TIP3   OH215569   6.173   0.988   4.770 -0.0040  0.8548 -0.0709
 5188TIP3    H115570   6.097   1.012   4.716 -0.1757 -1.1378 -0.8085
 5188TIP3    H215571   6.136   0.971   4.857 -0.3831  0.1967 -0.3488
 5189TIP3   OH215572   2.785   3.065   2.128  0.1543  0.0609 -0.3930
 5189TIP3    H115573   2.800   2.971   2.134 -1.8256 -0.3054 -0.4820
 5189TIP3    H215574   2.845   3.103   2.192  0.8730 -1.2705 -0.2509
 5190TIP3   OH215575   3.669   5.796   1.499  0.2029 -0.4152  0.0440
 5190TIP3    H115576   3.586   5.808   1.454  0.8194  1.4776 -0.6667
 5190TIP3    H215577   3.716   5.732   1.444 -0.4688 -0.9417  0.0609
 5191TIP3   OH215578   3.126   3.889   4.738  0.1962 -0.0451 -0.4667
 5191TIP3    H115579   3.086   3.807   4.708  0.5181 -0.0459 -0.8967
 5191TIP3    H215580   3.071   3.957   4.699  0.7633 -0.0426 -1.2842
 5192TIP3   OH215581   1.392   2.981   0.464 -0.3782 -0.1154 -0.2069
 5192TIP3    H115582   1.361   3.023   0.383  0.1022 -0.2682 -0.4706
 5192TIP3    H215583   1.459   3.041   0.498 -1.1487  0.3682  0.5255
 5193TIP3   OH215584   0.586   5.669   4.210 -0.2889  0.2333  0.0208
 5193TIP3    H115585   0.644   5.597   4.186 -0.4134  0.5257 -1.2772
 5193TIP3    H215586   0.502   5.627   4.227 -0.4490  0.0812 -1.0650
 5194TIP3   OH215587   1.378   0.219   4.511 -0.2732  0.0680  0.2147
 5194TIP3    H115588   1.326   0.244   4.587  1.0831 -0.5380  1.4004
 5194TIP3    H215589   1.469   0.237   4.536  0.6504 -3.7466  0.3670
 5195TIP3   OH215590   0.314   0.012   3.130  0.0111 -0.1552 -0.4280
 5195TIP3    H115591   0.291   0.087   3.075  0.3899 -0.3497 -0.8593
 5195TIP3    H215592   0.236  -0.043   3.128  0.0884 -0.2585 -0.9462
 5196TIP3   OH215593   5.210   5.928   3.620  0.2851  0.5957 -0.2252
 5196TIP3    H115594   5.151   5.953   3.691  1.0515  2.0620 -0.0544
 5196TIP3    H215595   5.253   6.010   3.595  1.7178 -0.2880 -0.8165
 5197TIP3   OH215596   4.632   0.062   0.138  0.2998  0.0757 -0.1034
 5197TIP3    H115597   4.712   0.039   0.184  0.8902  1.9305 -0.1256
 5197TIP3    H215598   4.578   0.106   0.204  0.4428  1.2260 -0.7286
 5198TIP3   OH215599   6.144   5.860   0.070  0.3467 -0.1843  0.7068
 5198TIP3    H115600   6.179   5.774   0.048 -0.1949 -0.3009  0.2816
 5198TIP3    H215601   6.113   5.852   0.160 -0.6976 -0.7585  0.3107
 5199TIP3   OH215602   4.241   1.326   0.600 -0.0842 -0.0643 -0.2392
 5199TIP3    H115603   4.218   1.240   0.634  2.0000 -0.1415  1.2135
 5199TIP3    H215604   4.159   1.374   0.598 -0.8658 -1.1813  1.7358
 5200TIP3   OH215605   6.208   0.463   1.205  0.6764  0.4872 -0.3696
 5200TIP3    H115606   6.243   0.376   1.226  0.2081  0.4449  0.2709
 5200TIP3    H215607   6.270   0.499   1.141  0.6120 -0.5031 -1.0137
 5201TIP3   OH215608   4.343   0.691   3.164  0.0103 -0.0472 -0.3024
 5201TIP3    H115609   4.346   0.622   3.097  0.4324 -2.2615  1.8203
 5201TIP3    H215610   4.423   0.741   3.150  0.2905 -0.7161 -1.2078
 5202TIP3   OH215611   0.480   4.648   2.142  0.0793 -0.7307  0.2553
 5202TIP3    H115612   0.484   4.744   2.141 -1.2468 -0.6307 -1.6775
 5202TIP3    H215613   0.554   4.621   2.087  0.4423 -0.8228  0.7850
 5203TIP3   OH215614   0.369   0.677   3.387 -0.2445  0.0647 -0.2742
 5203TIP3    H115615   0.363   0.592   3.343 -1.0393  0.3590 -0.7348
 5203TIP3    H215616   0.394   0.655   3.477  1.9369 -0.5099 -0.9531
 5204TIP3   OH215617   2.881   0.490   4.307 -0.2788  0.0290  0.0491
 5204TIP3    H115618   2.818   0.419   4.317  2.3486 -2.5264 -0.2620
 5204TIP3    H215619   2.898   0.521   4.396  0.0151 -1.1476  0.4166
 5205TIP3   OH215620   0.289   4.229   2.286 -0.2598  0.2042 -0.1458
 5205TIP3    H115621   0.322   4.316   2.306 -1.7017  1.0569 -1.2654
 5205TIP3    H215622   0.254   4.197   2.369  0.3956  0.6227  0.3011
 5206TIP3   OH215623   5.607   0.583   1.256  0.3446  0.0911  0.9961
 5206TIP3    H115624   5.536   0.583   1.321  1.2400 -0.9277  2.0156
 5206TIP3    H215625   5.679   0.539   1.300  1.2238  0.0242 -0.4651
 5207TIP3   OH215626   0.366   0.794   4.124  0.0310  0.0064 -0.2615
 5207TIP3    H115627   0.286   0.762   4.084 -0.1129 -0.8296  0.6623
 5207TIP3    H215628   0.436   0.767   4.064 -0.2475 -0.5306 -0.3490
 5208TIP3   OH215629   6.277   3.338   4.551  0.0915 -0.0412  0.0938
 5208TIP3    H115630   6.289   3.254   4.507 -1.3062  0.2801 -0.9667
 5208TIP3    H215631   6.225   3.318   4.628  1.6558 -0.4520  1.0770
 5209TIP3   OH215632   4.993   2.237   0.084 -0.1223 -0.0712 -0.4105
 5209TIP3    H115633   5.036   2.216   0.167 -1.1169  0.4419  0.2543
 5209TIP3    H215634   4.904   2.202   0.093 -1.5671  3.3325  0.3885
 5210TIP3   OH215635   0.690   4.933   1.895  0.1049  0.0437 -0.6956
 5210TIP3    H115636   0.748   4.995   1.850 -0.6168 -0.7148 -2.7347
 5210TIP3    H215637   0.603   4.952   1.861 -0.2591 -1.4853 -0.6652
 5211TIP3   OH215638   4.337   1.437   0.373 -0.4155 -0.4728 -0.0429
 5211TIP3    H115639   4.377   1.522   0.393 -0.1106 -0.7602  0.6427
 5211TIP3    H215640   4.314   1.401   0.459  0.4644 -1.5550 -0.2230
 5212TIP3   OH215641   3.323   2.006   1.964 -0.1766  0.5077 -0.4949
 5212TIP3    H115642   3.341   1.936   2.026 -0.6799  0.9746  0.1928
 5212TIP3    H215643   3.279   2.074   2.016  0.0405  1.2109 -1.2046
 5213TIP3   OH215644   5.375   4.433   3.629 -0.4456  0.0011 -0.1298
 5213TIP3    H115645   5.449   4.411   3.686 -0.0057  1.0819 -0.2637
 5213TIP3    H215646   5.301   4.441   3.689  0.0028  1.0773  0.3056
 5214TIP3   OH215647   1.832   5.015   0.285  0.1181 -0.2857 -0.1773
 5214TIP3    H115648   1.875   5.050   0.206 -0.7323  0.3615 -0.3669
 5214TIP3    H215649   1.896   5.029   0.355  1.0175 -1.1656 -0.7949
 5215TIP3   OH215650   0.998   5.382   1.186  0.7551 -0.1661  0.4109
 5215TIP3    H115651   0.974   5.300   1.144 -0.3729  0.6032 -0.4918
 5215TIP3    H215652   0.993   5.363   1.280 -1.2549 -0.6870  0.2507
 5216TIP3   OH215653   5.537   5.343   2.538 -0.2125  0.6891 -0.4966
 5216TIP3    H115654   5.614   5.287   2.546 -1.5684 -1.4481 -1.5417
 5216TIP3    H215655   5.560   5.405   2.468  1.1783  1.3079  0.4404
 5217TIP3   OH215656   0.465   0.171   5.005  0.2681 -0.2765  0.0667
 5217TIP3    H115657   0.389   0.140   4.955  0.3077 -0.3232  0.0351
 5217TIP3    H215658   0.427   0.207   5.085  0.2293 -0.5329  0.1667
 5218TIP3   OH215659   6.100   3.895   4.682  0.5357  0.3282  0.7107
 5218TIP3    H115660   6.042   3.971   4.672  0.6096  0.6087  2.1451
 5218TIP3    H215661   6.098   3.852   4.597 -0.9978  0.8973  0.4177
 5219TIP3   OH215662   2.413   5.432   3.209 -0.2847  0.4223  0.3698
 5219TIP3    H115663   2.488   5.404   3.156 -1.2652 -2.6091  0.3993
 5219TIP3    H215664   2.418   5.527   3.209  1.9505  0.4074 -1.9360
 5220TIP3   OH215665   5.197   3.109   3.791 -0.1501 -0.1593  0.0559
 5220TIP3    H115666   5.188   3.049   3.717 -1.1808 -0.4486  0.3893
 5220TIP3    H215667   5.290   3.109   3.811  0.5578  1.6787 -2.6597
 5221TIP3   OH215668   5.969   2.922   4.338  0.5019 -0.1871 -0.1725
 5221TIP3    H115669   5.988   2.832   4.310  0.0092  0.2842 -2.1929
 5221TIP3    H215670   5.879   2.938   4.310  1.4035  1.7543 -2.2837
 5222TIP3   OH215671   4.816   0.360   0.928 -0.3158 -0.5807  0.1678
 5222TIP3    H115672   4.837   0.297   0.998 -0.6799 -0.6696  0.2023
 5222TIP3    H215673   4.873   0.434   0.945  0.7278 -1.2378 -0.3701
 5223TIP3   OH215674   1.281   5.700   1.375  0.3635 -0.2372  0.7039
 5223TIP3    H115675   1.351   5.766   1.372 -1.0676  1.3451  0.3660
 5223TIP3    H215676   1.315   5.627   1.324  2.3213 -0.1332  1.7247
 5224TIP3   OH215677   1.769   2.044   3.110 -0.1604 -0.6440  0.3639
 5224TIP3    H115678   1.783   2.107   3.039  1.6073 -2.4974 -1.1062
 5224TIP3    H215679   1.724   1.971   3.068 -3.6637  0.1653  2.3873
 5225TIP3   OH215680   2.119   0.288   1.308  1.2506  0.0581  0.3174
 5225TIP3    H115681   2.060   0.262   1.379  0.6011  0.7722  0.0556
 5225TIP3    H215682   2.175   0.355   1.346  2.9909 -1.7062  1.0203
 5226TIP3   OH215683   0.637   1.557   1.210  0.3381 -0.1345  0.5212
 5226TIP3    H115684   0.654   1.610   1.288  0.3386 -0.8372  1.0113
 5226TIP3    H215685   0.697   1.482   1.219  1.3860  0.4794 -0.8750
 5227TIP3   OH215686   0.366   1.989   1.322  0.6231  0.2593 -0.3177
 5227TIP3    H115687   0.346   1.974   1.230 -0.0660  0.7749 -0.2604
 5227TIP3    H215688   0.461   1.998   1.325  0.5418  1.5926 -1.1870
 5228TIP3   OH215689   2.666   3.463   1.555 -0.0302 -0.4638  0.1645
 5228TIP3    H115690   2.761   3.465   1.546 -0.0689 -1.0857 -0.4851
 5228TIP3    H215691   2.639   3.384   1.508 -0.7846 -0.8023  1.1395
 5229TIP3   OH215692   2.013   3.605   1.374 -0.2388 -0.7714 -0.1458
 5229TIP3    H115693   1.972   3.639   1.295  0.5661  0.3714 -0.1081
 5229TIP3    H215694   2.065   3.679   1.407  1.2762 -1.9347  0.1750
 5230TIP3   OH215695   4.469   2.044   3.683  0.0467 -0.3924 -0.0836
 5230TIP3    H115696   4.536   1.977   3.671 -1.4177 -1.9465  0.0779
 5230TIP3    H215697   4.437   2.062   3.595 -0.1251 -0.5035 -0.0439
 5231TIP3   OH215698   0.419   0.766   2.753  0.1722 -0.1761  0.5364
 5231TIP3    H115699   0.447   0.674   2.754  1.8543  0.2499 -1.1398
 5231TIP3    H215700   0.401   0.785   2.661 -3.7893  0.2475  1.2155
 5232TIP3   OH215701   5.811   0.646   5.179  0.0222 -0.3679 -0.3926
 5232TIP3    H115702   5.869   0.721   5.190 -1.2306  0.5032  0.3937
 5232TIP3    H215703   5.751   0.671   5.109 -1.2973 -0.0272  0.8129
 5233TIP3   OH215704   2.416   2.874   3.374 -0.3158  0.6464 -0.2423
 5233TIP3    H115705   2.475   2.828   3.433 -0.7419 -0.8296 -0.9300
 5233TIP3    H215706   2.412   2.963   3.408  1.5286  0.5211  0.3937
 5234TIP3   OH215707   4.111   4.976   2.901 -0.0725 -0.2814 -0.5925
 5234TIP3    H115708   4.142   4.907   2.960  0.5227  0.4271 -0.0471
 5234TIP3    H215709   4.130   4.943   2.813  0.0807 -0.8644 -0.3453
 5235TIP3   OH215710   0.436   5.836   3.469 -0.4119 -0.7386  0.2384
 5235TIP3    H115711   0.377   5.911   3.462 -0.3619 -0.8008 -0.9832
 5235TIP3    H215712   0.388   5.773   3.524 -1.5385 -0.8244 -0.8057
 5236TIP3   OH215713   1.791   5.618   1.086 -0.2180  0.0505  0.5729
 5236TIP3    H115714   1.884   5.606   1.107 -0.3437  0.1788  1.2112
 5236TIP3    H215715   1.749   5.538   1.117 -0.2464 -0.2759 -0.2600
 5237TIP3   OH215716   1.017   0.133   4.630 -0.2766  0.0029  0.2322
 5237TIP3    H115717   0.986   0.197   4.565 -3.0403 -0.1923  1.2330
 5237TIP3    H215718   1.073   0.184   4.689  1.4419  0.3956 -1.6026
 5238TIP3   OH215719   3.682   2.813   3.449  0.3632  0.2453 -0.1344
 5238TIP3    H115720   3.649   2.893   3.410  0.6249 -0.0787 -1.0381
 5238TIP3    H215721   3.737   2.843   3.521  3.1331  1.1086 -2.4184
 5239TIP3   OH215722   1.630   3.386   0.365  0.2207 -0.3987 -0.0084
 5239TIP3    H115723   1.695   3.377   0.295  1.5213  1.4520  0.8827
 5239TIP3    H215724   1.563   3.443   0.328 -0.8829 -2.1576 -0.8632
 5240TIP3   OH215725   3.647   3.526   1.865 -0.5378 -0.2043  0.3817
 5240TIP3    H115726   3.706   3.565   1.801 -0.6218  0.6608  0.8115
 5240TIP3    H215727   3.680   3.438   1.878 -0.5005 -0.3772 -0.8136
 5241TIP3   OH215728   4.265   2.716   1.464  0.7571 -0.5674 -0.3288
 5241TIP3    H115729   4.231   2.709   1.375 -2.1310 -0.0559  0.6454
 5241TIP3    H215730   4.276   2.810   1.478  0.4194 -0.5955  0.1260
 5242TIP3   OH215731   0.144   0.596   1.645  0.4343  0.6835 -0.0670
 5242TIP3    H115732   0.235   0.627   1.649  0.4910  0.3939  1.1800
 5242TIP3    H215733   0.126   0.590   1.552  1.6324  0.9374 -0.3414
 5243TIP3   OH215734   2.537   4.992   0.071  0.1083 -0.2267  0.6705
 5243TIP3    H115735   2.615   4.972   0.123 -0.8941 -1.1646  1.8971
 5243TIP3    H215736   2.496   4.907   0.057 -1.9403  0.4436  2.1438
 5244TIP3   OH215737   2.075   4.584   1.427 -0.2367  0.1974  0.1467
 5244TIP3    H115738   2.109   4.509   1.477  0.1971  0.7597  0.7101
 5244TIP3    H215739   1.988   4.600   1.465  1.1765  2.4176  2.7915
 5245TIP3   OH215740   4.020   4.677   1.937  0.2632 -0.1992  0.0297
 5245TIP3    H115741   4.061   4.605   1.889 -0.9030 -2.5537  2.2463
 5245TIP3    H215742   4.068   4.755   1.911  1.4602 -1.7056 -2.7120
 5246TIP3   OH215743   2.646   3.984   4.271  0.2408  0.0658  0.3092
 5246TIP3    H115744   2.561   3.982   4.314  0.5090  1.6421  0.9872
 5246TIP3    H215745   2.706   4.016   4.338  1.1998 -0.1428 -0.4242
 5247TIP3   OH215746   0.039   0.842   4.319 -0.2022 -0.3955  0.5250
 5247TIP3    H115747   0.100   0.915   4.325 -0.3335 -0.2607  0.2054
 5247TIP3    H215748   0.015   0.837   4.227 -1.1829 -0.0307  0.7483
 5248TIP3   OH215749   0.854   3.150   1.543 -0.1311 -0.3843 -0.8563
 5248TIP3    H115750   0.810   3.160   1.459 -0.3563 -2.1391 -0.9903
 5248TIP3    H215751   0.852   3.056   1.560  0.1415 -0.1029  0.9885
 5249TIP3   OH215752   1.829   3.923   3.468  0.1542  0.0201 -0.8717
 5249TIP3    H115753   1.892   3.854   3.489  0.6430  0.1328 -1.8943
 5249TIP3    H215754   1.744   3.879   3.467 -0.0661  0.1600  2.0867
 5250TIP3   OH215755   0.931   0.905   1.189  0.1436  0.4197  0.5957
 5250TIP3    H115756   0.864   0.960   1.149  0.3532 -0.2585 -0.7451
 5250TIP3    H215757   0.981   0.964   1.245  0.3772  1.5980 -0.8295
 5251TIP3   OH215758   5.624   4.764   2.192  0.3421 -0.4959 -0.2029
 5251TIP3    H115759   5.667   4.697   2.138  1.1280 -0.1974  0.0338
 5251TIP3    H215760   5.642   4.846   2.147  0.7914 -0.2715  0.3656
 5252TIP3   OH215761   5.859   2.667   3.803 -0.7356  0.2858 -0.1315
 5252TIP3    H115762   5.799   2.598   3.775 -2.6600  1.4614  0.9129
 5252TIP3    H215763   5.822   2.698   3.886  0.4048  2.1732 -0.2944
 5253TIP3   OH215764   3.230   0.675   2.913  0.3902  0.0162  0.4267
 5253TIP3    H115765   3.291   0.662   2.985 -1.7006  2.5018  2.8837
 5253TIP3    H215766   3.163   0.608   2.925  0.1736  0.2714  0.6506
 5254TIP3   OH215767   4.511   3.436   2.746  0.3167 -0.1756  0.2113
 5254TIP3    H115768   4.575   3.433   2.817  1.1949  0.7195 -0.5348
 5254TIP3    H215769   4.551   3.387   2.674  0.7906  1.5590 -0.7434
 5255TIP3   OH215770   0.490   4.360   0.761  0.1379 -0.2025 -1.1232
 5255TIP3    H115771   0.529   4.272   0.767  1.8296  0.5067 -0.9836
 5255TIP3    H215772   0.433   4.356   0.684 -2.7110 -2.4236  0.8805
 5256TIP3   OH215773   2.733   3.236   4.350  0.2373 -0.0237  0.1163
 5256TIP3    H115774   2.752   3.326   4.323  0.2713 -0.2766 -0.7190
 5256TIP3    H215775   2.797   3.218   4.419 -0.1011  0.7624  0.6500
 5257TIP3   OH215776   3.649   0.000   4.598 -0.0147 -0.0159  0.4878
 5257TIP3    H115777   3.703   0.065   4.645 -0.2498 -0.2012  1.0216
 5257TIP3    H215778   3.712  -0.052   4.548  0.1763  0.6356  0.0289
 5258TIP3   OH215779   2.380   4.969   2.568 -0.1365  0.3326  0.5953
 5258TIP3    H115780   2.470   5.002   2.569 -0.3136  0.8418  1.4395
 5258TIP3    H215781   2.385   4.886   2.521  0.5737  0.8934 -0.3638
 5259TIP3   OH215782   2.495   4.989   1.537 -0.1686 -0.1609 -0.1778
 5259TIP3    H115783   2.448   4.911   1.566 -0.7166  0.0670 -0.4441
 5259TIP3    H215784   2.431   5.060   1.544  0.7543  0.5815  1.5840
 5260TIP3   OH215785   3.204   5.376   2.539 -0.1469  0.7015 -0.0293
 5260TIP3    H115786   3.296   5.357   2.558 -0.0429 -0.6176 -1.6125
 5260TIP3    H215787   3.184   5.324   2.461 -2.2155  1.0363  0.2052
 5261TIP3   OH215788   0.697   5.476   1.733 -0.2093 -0.0257  0.1570
 5261TIP3    H115789   0.614   5.521   1.717  0.0834  0.3101 -0.4834
 5261TIP3    H215790   0.748   5.539   1.785 -0.1970 -0.0565  0.1822
 5262TIP3   OH215791   6.293   0.143   2.662  0.4342 -0.0577  0.0522
 5262TIP3    H115792   6.229   0.171   2.597  1.1567  0.4433 -0.4601
 5262TIP3    H215793   6.245   0.142   2.745  0.3182  2.6971  0.1242
 5263TIP3   OH215794   4.638   4.965   0.888 -0.1647 -0.4160  0.1781
 5263TIP3    H115795   4.617   4.983   0.796  0.8713 -2.3879 -0.5104
 5263TIP3    H215796   4.733   4.963   0.891 -0.1949 -1.9333  0.9290
 5264TIP3   OH215797   3.340   3.126   4.674  0.0317  0.4582  0.2278
 5264TIP3    H115798   3.266   3.067   4.665 -0.6151  1.3817 -0.6905
 5264TIP3    H215799   3.342   3.149   4.767 -1.9055  1.7365  0.0073
 5265TIP3   OH215800   0.365   2.630   0.038 -0.1745 -0.9058 -0.0963
 5265TIP3    H115801   0.391   2.678  -0.041 -0.0042  0.5912  0.8376
 5265TIP3    H215802   0.332   2.697   0.097 -1.1526 -2.1098  0.7948
 5266TIP3   OH215803   5.052   0.400   0.532 -0.1657  0.0963  0.1498
 5266TIP3    H115804   4.990   0.454   0.581 -0.8986  0.1348 -0.7765
 5266TIP3    H215805   4.998   0.328   0.497  0.5149 -0.4351  0.1641
 5267TIP3   OH215806   4.060   0.129   1.350 -0.3339  0.1793  0.2619
 5267TIP3    H115807   4.098   0.041   1.350 -0.5601 -0.0091  3.0539
 5267TIP3    H215808   3.965   0.114   1.342 -0.2924  0.2647 -0.4540
 5268TIP3   OH215809   2.460   2.925   1.520 -1.1374  0.0995 -0.2257
 5268TIP3    H115810   2.385   2.919   1.461 -0.7992  0.0924 -0.6585
 5268TIP3    H215811   2.472   2.836   1.552 -1.0567  0.0170 -0.4813
 5269TIP3   OH215812   4.362   1.735   1.329  0.1803  0.6331 -0.2617
 5269TIP3    H115813   4.446   1.701   1.297  0.4778 -0.3020  1.3840
 5269TIP3    H215814   4.296   1.687   1.279  0.6095 -1.8347  1.3376
 5270TIP3   OH215815   2.249   1.744   5.003  0.8502 -0.2653  0.1777
 5270TIP3    H115816   2.280   1.825   4.963  0.0926  0.3925  0.8916
 5270TIP3    H215817   2.247   1.762   5.097 -0.0330 -0.8611  0.2873
 5271TIP3   OH215818   2.789   5.359   0.122  0.0008  0.5045 -0.0491
 5271TIP3    H115819   2.792   5.438   0.069 -0.2561  0.0603 -0.7490
 5271TIP3    H215820   2.880   5.332   0.130 -0.0823 -0.5839 -2.0967
 5272TIP3   OH215821   1.125   3.121   0.744 -0.1868 -0.1548 -0.1384
 5272TIP3    H115822   1.115   3.180   0.819  2.2858  0.1563  0.0474
 5272TIP3    H215823   1.117   3.177   0.668 -1.5917 -0.2782 -0.1041
 5273TIP3   OH215824   2.289   4.624   1.977 -0.1071 -0.3733 -0.5286
 5273TIP3    H115825   2.215   4.675   2.007  0.0387  0.1468 -1.0481
 5273TIP3    H215826   2.254   4.570   1.906  0.2630  0.7418 -1.5892
 5274TIP3   OH215827   5.500   5.074   4.266  0.4823 -0.1923  0.0648
 5274TIP3    H115828   5.416   5.040   4.299 -0.2771  0.2049 -1.3737
 5274TIP3    H215829   5.545   4.996   4.233 -0.1362 -0.1737 -0.8539
 5275TIP3   OH215830   5.705   5.296   2.885 -0.0263  0.0516  0.7120
 5275TIP3    H115831   5.654   5.369   2.850  1.4235  1.3517  1.2245
 5275TIP3    H215832   5.793   5.331   2.897  0.2215 -1.1671  2.9369
 5276TIP3   OH215833   1.843   2.152   4.372  0.6198  0.0106 -0.1739
 5276TIP3    H115834   1.770   2.133   4.432 -1.2712 -0.2336 -2.4032
 5276TIP3    H215835   1.903   2.205   4.424 -0.7796 -0.3788  1.9931
 5277TIP3   OH215836   3.784   5.287   2.583  0.3288 -0.1966  0.6450
 5277TIP3    H115837   3.766   5.235   2.505  0.4591 -0.3341  0.7062
 5277TIP3    H215838   3.745   5.237   2.655 -2.2426  1.2158  0.3830
 5278TIP3   OH215839   4.988   4.799   1.456 -0.3291  0.5194 -0.2994
 5278TIP3    H115840   5.057   4.754   1.504 -0.5473  0.4900 -0.0100
 5278TIP3    H215841   5.020   4.804   1.366  0.4450  1.3018  0.0059
 5279TIP3   OH215842   3.079   2.453   0.345 -0.4534  0.3033 -0.3423
 5279TIP3    H115843   3.131   2.391   0.395 -1.5390  2.0222  3.2535
 5279TIP3    H215844   3.143   2.512   0.305  0.4529 -0.5466 -0.1807
 5280TIP3   OH215845   2.083   5.701   1.569  0.2496 -0.6277  0.0750
 5280TIP3    H115846   2.012   5.730   1.625  0.0251 -0.0245 -0.5085
 5280TIP3    H215847   2.152   5.675   1.630 -1.3270 -3.6341  0.7474
 5281TIP3   OH215848   1.147   2.944   3.240  0.9021 -0.3266  0.1747
 5281TIP3    H115849   1.126   2.948   3.147  2.0539  0.1403 -0.0887
 5281TIP3    H215850   1.083   2.884   3.277 -1.5955  1.8050 -0.3432
 5282TIP3   OH215851   1.518   2.045   4.082  0.4163  0.3515 -0.2507
 5282TIP3    H115852   1.439   2.099   4.090  0.6585  0.9579 -1.6696
 5282TIP3    H215853   1.589   2.108   4.078  0.7267 -0.0547 -1.6723
 5283TIP3   OH215854   4.113   2.068   1.285 -0.7674 -0.4861 -0.3575
 5283TIP3    H115855   4.189   2.083   1.229  0.2039  0.4696  1.1480
 5283TIP3    H215856   4.142   2.095   1.373 -2.4681 -1.2185  0.4733
 5284TIP3   OH215857   0.297   2.185   3.858 -0.3388 -0.2198  0.3701
 5284TIP3    H115858   0.321   2.274   3.831 -0.0818 -0.2433  0.5173
 5284TIP3    H215859   0.290   2.136   3.776 -0.6083 -0.0318  0.2813
 5285TIP3   OH215860   4.406   0.806   1.052 -0.5061  0.2694 -0.0685
 5285TIP3    H115861   4.346   0.743   1.014 -0.9439  0.7746 -0.2266
 5285TIP3    H215862   4.362   0.891   1.042 -1.0183  0.3453  2.2989
 5286TIP3   OH215863   1.313   3.290   1.095 -0.0500 -0.0258  0.1423
 5286TIP3    H115864   1.240   3.278   1.034  0.5055 -0.8494 -0.3764
 5286TIP3    H215865   1.391   3.275   1.042  0.4743  0.0316  0.8831
 5287TIP3   OH215866   4.969   5.836   4.359  0.1112 -0.3639 -0.0541
 5287TIP3    H115867   4.935   5.783   4.432  0.4128 -0.3061  0.1309
 5287TIP3    H215868   5.001   5.773   4.296 -0.0458 -0.4133 -0.0830
 5288TIP3   OH215869   1.828   5.446   2.266  0.3677 -0.2919  0.7191
 5288TIP3    H115870   1.759   5.386   2.294  1.0447 -1.1287  0.6193
 5288TIP3    H215871   1.885   5.393   2.210  0.8572  0.5019  0.4513
 5289TIP3   OH215872   5.622   2.939   1.678  0.4626  0.1432  0.5403
 5289TIP3    H115873   5.655   2.907   1.761  1.4291 -1.2515 -0.3337
 5289TIP3    H215874   5.665   3.024   1.666  1.7786 -0.4907  0.6191
 5290TIP3   OH215875   2.770   4.156   1.527  0.3995 -0.2835 -0.1178
 5290TIP3    H115876   2.864   4.144   1.513 -0.1337 -1.8122 -3.2900
 5290TIP3    H215877   2.731   4.071   1.505 -1.8182  0.5527  0.2679
 5291TIP3   OH215878   3.046   3.222   5.139 -0.0068  0.0196 -0.2655
 5291TIP3    H115879   3.026   3.217   5.233 -0.3586  0.7007 -0.3015
 5291TIP3    H215880   2.969   3.262   5.100 -0.5822 -1.7761 -1.1057
 5292TIP3   OH215881   1.753   4.986   3.497 -0.0617 -0.3610  0.2195
 5292TIP3    H115882   1.740   5.015   3.587  0.1882 -1.1455  0.5204
 5292TIP3    H215883   1.752   4.890   3.503  0.9711 -0.4277 -0.4568
 5293TIP3   OH215884   6.059   5.866   3.883  1.1117  0.3141 -0.2512
 5293TIP3    H115885   6.089   5.867   3.974  0.6355  1.5742 -0.0866
 5293TIP3    H215886   6.023   5.954   3.869 -1.7570 -0.8126 -0.6798
 5294TIP3   OH215887   2.761   2.535   4.856  0.3015 -0.2951  0.6174
 5294TIP3    H115888   2.752   2.581   4.773  0.6250  0.1792  0.8324
 5294TIP3    H215889   2.675   2.498   4.873  0.7675 -2.2444 -0.9678
 5295TIP3   OH215890   3.890   4.025   0.465  0.3470  0.7346 -0.2467
 5295TIP3    H115891   3.977   3.990   0.449  1.0277  2.1898  0.0917
 5295TIP3    H215892   3.896   4.067   0.551 -0.8262  0.4311 -0.0004
 5296TIP3   OH215893   3.728   1.407   3.690 -0.5200 -0.0361 -0.5699
 5296TIP3    H115894   3.650   1.370   3.648 -0.2230 -1.5993  0.1847
 5296TIP3    H215895   3.757   1.476   3.631 -0.3379 -1.8834 -2.7396
 5297TIP3   OH215896   5.836   1.515   1.012  0.5160  0.6292 -0.1026
 5297TIP3    H115897   5.855   1.436   1.063  1.6506  0.2539 -1.0477
 5297TIP3    H215898   5.750   1.498   0.973  0.5146  0.0798  0.1251
 5298TIP3   OH215899   2.695   2.350   1.840 -0.4153 -0.0557  0.1769
 5298TIP3    H115900   2.673   2.300   1.919  0.9143 -0.0331  0.5828
 5298TIP3    H215901   2.705   2.440   1.870 -2.8276  0.5269 -0.5601
 5299TIP3   OH215902   4.885   4.433   2.684 -0.3023  0.0732  0.6926
 5299TIP3    H115903   4.914   4.491   2.754  0.9836 -0.5829  0.7244
 5299TIP3    H215904   4.802   4.398   2.715 -0.0922  0.3285  1.5774
 5300TIP3   OH215905   5.656   0.815   4.595 -0.0155  0.0215 -0.4696
 5300TIP3    H115906   5.666   0.761   4.673 -0.3811  0.8158  0.1302
 5300TIP3    H215907   5.744   0.821   4.558  0.2166 -0.0624  0.0710
 5301TIP3   OH215908   5.979   5.889   2.812 -0.0442 -0.1894  0.3605
 5301TIP3    H115909   6.066   5.907   2.776 -0.0404  1.6877  1.1951
 5301TIP3    H215910   5.926   5.866   2.736  0.5677  1.2271 -0.5491
 5302TIP3   OH215911   1.153   4.492   4.130  0.0981 -0.1682  0.3069
 5302TIP3    H115912   1.066   4.513   4.163 -0.3923 -1.2438 -0.2500
 5302TIP3    H215913   1.173   4.406   4.167  0.9075  0.0460  0.3926
 5303TIP3   OH215914   5.770   3.709   2.860 -0.1286 -0.6877  0.0035
 5303TIP3    H115915   5.747   3.678   2.773  0.4946  1.6732 -1.0678
 5303TIP3    H215916   5.847   3.658   2.884  1.4046  0.5447 -2.0584
 5304TIP3   OH215917   6.010   1.447   3.514  0.2232 -0.8726 -0.1715
 5304TIP3    H115918   6.081   1.511   3.510 -0.3895  0.0300  1.8602
 5304TIP3    H215919   6.043   1.380   3.574 -0.4539 -0.6694  0.4391
 5305TIP3   OH215920   0.309   1.053   1.032  0.4146 -0.4570 -0.0513
 5305TIP3    H115921   0.389   1.106   1.036  0.1063 -0.0490  0.9117
 5305TIP3    H215922   0.279   1.063   0.941 -0.4128  2.2591  0.4005
 5306TIP3   OH215923   5.505   0.631   0.468  0.3522  0.1434 -0.1587
 5306TIP3    H115924   5.544   0.613   0.553  2.5059  0.7840 -0.9485
 5306TIP3    H215925   5.423   0.582   0.469  0.7448 -0.5844  1.9318
 5307TIP3   OH215926   5.699   3.554   4.467 -0.3139  0.2471 -0.1258
 5307TIP3    H115927   5.642   3.541   4.542 -1.3110 -1.5604 -1.1246
 5307TIP3    H215928   5.787   3.535   4.500 -0.6498  0.1357  0.7311
 5308TIP3   OH215929   4.775   4.254   4.970 -0.3493  0.4308 -0.1867
 5308TIP3    H115930   4.840   4.261   4.901 -2.5956  4.2201 -2.2178
 5308TIP3    H215931   4.715   4.185   4.940  0.3328 -0.0534 -0.4471
 5309TIP3   OH215932   5.686   5.018   3.601  0.5883 -0.0329 -0.0544
 5309TIP3    H115933   5.633   5.092   3.630  0.6994  0.1332 -0.2847
 5309TIP3    H215934   5.724   5.045   3.518  0.3294 -0.4880 -0.3249
 5310TIP3   OH215935   2.607   1.491   4.450 -0.1976  0.3570 -0.8566
 5310TIP3    H115936   2.529   1.436   4.460 -0.2933  0.3707 -1.5304
 5310TIP3    H215937   2.607   1.547   4.528 -1.0287  0.5642 -0.9996
 5311TIP3   OH215938   0.074   4.843   3.243  0.2890 -0.5086  0.5040
 5311TIP3    H115939   0.139   4.837   3.173 -0.7666 -2.2371 -0.3931
 5311TIP3    H215940   0.117   4.803   3.319  0.7320 -0.4663  0.2797
 5312TIP3   OH215941   2.989   4.075   4.184 -0.2420 -0.2243 -0.2947
 5312TIP3    H115942   2.938   4.140   4.135  0.7282  1.3188  0.6310
 5312TIP3    H215943   3.003   4.004   4.122 -3.0300 -0.5091 -0.7522
 5313TIP3   OH215944   4.760   0.891   3.276  0.4359  0.2712  0.0807
 5313TIP3    H115945   4.804   0.943   3.208  0.0318  0.0878 -0.3288
 5313TIP3    H215946   4.752   0.950   3.350 -0.1467  0.8405 -0.4313
 5314TIP3   OH215947   3.730   3.597   1.203 -0.3063 -0.5151  0.4831
 5314TIP3    H115948   3.729   3.668   1.139 -0.3909  0.2735  1.3347
 5314TIP3    H215949   3.642   3.560   1.199  0.2514 -1.7717 -1.2327
 5315TIP3   OH215950   6.042   1.761   3.946  0.3493  0.6195 -0.2841
 5315TIP3    H115951   5.951   1.732   3.938  0.5625 -0.2826  0.4302
 5315TIP3    H215952   6.053   1.824   3.875 -0.9811  1.1456 -0.0594
 5316TIP3   OH215953   2.364   4.270   2.123 -0.2020 -0.8466 -0.1890
 5316TIP3    H115954   2.287   4.327   2.125 -0.2183 -0.8669 -0.2386
 5316TIP3    H215955   2.336   4.193   2.072  0.1217 -0.4675 -0.9548
 5317TIP3   OH215956   3.728   1.956   1.074  0.4997 -0.1748  0.1338
 5317TIP3    H115957   3.739   2.035   1.127  0.5796  1.1164 -1.7482
 5317TIP3    H215958   3.815   1.917   1.071  0.4323 -0.4568  1.1772
 5318TIP3   OH215959   0.220   2.410   2.769  0.4921 -0.3948  0.2482
 5318TIP3    H115960   0.276   2.341   2.806  0.1513 -1.0771 -0.4840
 5318TIP3    H215961   0.202   2.381   2.680 -2.8461 -1.3534  1.0930
 5319TIP3   OH215962   0.265   1.284   2.961 -0.4263 -0.6917  0.0964
 5319TIP3    H115963   0.238   1.269   3.051  0.7487 -1.4310  0.3511
 5319TIP3    H215964   0.359   1.267   2.961 -0.6370 -2.1914 -1.5774
 5320TIP3   OH215965   6.191   2.012   1.889 -0.0675 -0.0203 -0.1631
 5320TIP3    H115966   6.264   2.074   1.880  0.4403 -0.5075  0.5445
 5320TIP3    H215967   6.157   2.004   1.800  0.1091  0.9631 -0.3405
 5321TIP3   OH215968   0.353   1.952   2.909 -0.4293  0.0700 -0.0358
 5321TIP3    H115969   0.362   1.926   2.817  0.1599  0.3858 -0.0714
 5321TIP3    H215970   0.333   1.871   2.955  1.2193 -0.4421 -0.1695
 5322TIP3   OH215971   3.932   5.538   1.125 -0.1684  0.4252  0.2175
 5322TIP3    H115972   3.951   5.453   1.086  0.0090  0.0801  1.0379
 5322TIP3    H215973   4.015   5.565   1.165 -1.0394 -0.6696  3.0417
 5323TIP3   OH215974   2.866   4.834   0.736 -0.0418  0.0063  0.8039
 5323TIP3    H115975   2.875   4.900   0.668 -0.0215 -0.6707  0.1341
 5323TIP3    H215976   2.932   4.857   0.801 -0.3537  0.9086  0.8021
 5324TIP3   OH215977   2.484   5.254  -0.014  0.0334  0.4985  0.0362
 5324TIP3    H115978   2.537   5.287   0.059 -0.0096 -1.2928  0.9283
 5324TIP3    H215979   2.462   5.165   0.011 -1.8948  0.5882 -1.1638
 5325TIP3   OH215980   4.798   2.571   0.604 -0.5868  0.4670  0.5160
 5325TIP3    H115981   4.851   2.626   0.546  0.5480 -1.4583 -0.3418
 5325TIP3    H215982   4.708   2.590   0.579 -0.2087  1.4245 -0.2138
 5326TIP3   OH215983   4.519   0.193   1.735 -0.5273 -0.0984  0.0115
 5326TIP3    H115984   4.495   0.102   1.719  1.6159 -1.0155  1.5461
 5326TIP3    H215985   4.577   0.215   1.662  0.2640 -0.5613  0.4741
 5327TIP3   OH215986   6.278   4.413   1.385 -0.1044 -0.2967 -0.2186
 5327TIP3    H115987   6.251   4.326   1.356  0.9405 -0.4845 -0.6714
 5327TIP3    H215988   6.372   4.416   1.368  0.0833  0.5163  0.8438
 5328TIP3   OH215989   5.452   1.494   2.276 -0.0754  0.2253 -0.3252
 5328TIP3    H115990   5.533   1.544   2.285  0.4212 -0.3466 -1.4588
 5328TIP3    H215991   5.480   1.408   2.246 -1.0093 -0.4067  0.5542
 5329TIP3   OH215992   4.141   1.554   4.777 -0.2883 -0.2406  0.0306
 5329TIP3    H115993   4.089   1.539   4.856 -1.2618 -1.6868 -0.8365
 5329TIP3    H215994   4.201   1.480   4.773  0.3405  0.2632 -0.1660
 5330TIP3   OH215995   3.081   1.583   4.408  0.0098 -0.6658  0.0154
 5330TIP3    H115996   3.164   1.553   4.370 -0.9336 -2.8013 -0.4816
 5330TIP3    H215997   3.038   1.503   4.439 -1.5545  0.4703  0.9334
 5331TIP3   OH215998   1.578   5.460   0.083 -0.0796  0.4321 -0.5295
 5331TIP3    H115999   1.491   5.468   0.043 -0.4179  2.3760  0.4651
 5331TIP3    H216000   1.615   5.548   0.078  0.1027  0.6972  2.7272
 5332TIP3   OH216001   3.644   1.106   5.079 -0.0999 -0.0882 -0.0000
 5332TIP3    H116002   3.558   1.129   5.114 -1.4791 -0.0975 -3.0250
 5332TIP3    H216003   3.682   1.049   5.145 -4.3831 -3.9658 -0.3449
 5333TIP3   OH216004   3.419   3.077   2.214 -0.6825  0.1822  0.2164
 5333TIP3    H116005   3.443   3.112   2.300 -0.5523 -1.5343  0.9377
 5333TIP3    H216006   3.451   3.142   2.151  1.4550  0.3383  1.3670
 5334TIP3   OH216007   6.142   3.818   5.025 -0.4104 -0.0957  0.2764
 5334TIP3    H116008   6.137   3.878   5.099  0.7196  0.8832 -0.4041
 5334TIP3    H216009   6.135   3.731   5.064  0.7212  0.3704  1.6150
 5335TIP3   OH216010   5.938   1.348   2.730 -0.2435 -0.5409 -0.0865
 5335TIP3    H116011   5.960   1.418   2.790 -0.3602  0.2121 -0.9034
 5335TIP3    H216012   5.974   1.269   2.771  0.9602  0.1667  0.2664
 5336TIP3   OH216013   0.212   4.894   0.030 -0.3485  0.1201 -0.0364
 5336TIP3    H116014   0.181   4.984   0.040 -0.6413 -0.0550  0.7646
 5336TIP3    H216015   0.205   4.857   0.118 -0.4046 -0.7394 -0.3927
 5337TIP3   OH216016   3.467   4.472   3.412 -0.3752 -0.0910  0.4561
 5337TIP3    H116017   3.433   4.539   3.471 -2.7514 -0.9867  0.1944
 5337TIP3    H216018   3.442   4.389   3.453 -1.7164 -0.7443 -1.5466
 5338TIP3   OH216019   5.261   3.208   2.234  0.2719 -0.5494  0.2231
 5338TIP3    H116020   5.343   3.245   2.268  0.6014 -0.1874 -0.9400
 5338TIP3    H216021   5.288   3.136   2.177 -0.1381  0.4060 -1.2170
 5339TIP3   OH216022   4.730   1.473   3.125  0.3578 -0.2697 -0.3216
 5339TIP3    H116023   4.721   1.544   3.188 -0.5764 -0.5441 -0.1220
 5339TIP3    H216024   4.823   1.470   3.104  0.3565  1.2756 -0.6499
 5340TIP3   OH216025   0.666   1.308   0.843 -1.1704  0.5720  0.3921
 5340TIP3    H116026   0.741   1.250   0.833 -1.6292  0.1561 -0.7574
 5340TIP3    H216027   0.633   1.322   0.754 -1.3138  2.2899  0.6796
 5341TIP3   OH216028   5.566   4.984   2.040 -0.0072 -0.4957  0.4309
 5341TIP3    H116029   5.488   5.038   2.032  0.0979 -0.3482  0.3966
 5341TIP3    H216030   5.586   4.956   1.950  1.3342  1.3929  0.0768
 5342TIP3   OH216031   3.080   1.550   0.224  0.7807 -0.2616  0.0271
 5342TIP3    H116032   3.121   1.584   0.144  0.3144 -0.2099 -0.1907
 5342TIP3    H216033   3.105   1.458   0.226  2.4325  0.1654  0.8605
 5343TIP3   OH216034   0.620   1.643   0.512 -0.0061  0.5452 -0.7154
 5343TIP3    H116035   0.533   1.667   0.480  0.1153 -0.7939 -2.1700
 5343TIP3    H216036   0.679   1.669   0.441  0.7159  0.8308 -0.0268
 5344TIP3   OH216037   1.651   4.867   0.969  0.0336  0.5089  0.1917
 5344TIP3    H116038   1.566   4.901   0.941  0.1296  0.1110 -0.6204
 5344TIP3    H216039   1.715   4.921   0.921  0.2313  0.6299  0.5891
 5345TIP3   OH216040   2.004   3.409   0.916 -0.1420 -0.9535  0.2894
 5345TIP3    H116041   1.965   3.344   0.975  0.1575  0.3871  2.0558
 5345TIP3    H216042   2.097   3.410   0.939  0.3369 -1.5786 -1.4174
 5346TIP3   OH216043   4.822   5.375   4.634 -0.1919  0.2402 -0.0523
 5346TIP3    H116044   4.873   5.417   4.703 -0.0517 -0.3436  0.2011
 5346TIP3    H216045   4.859   5.409   4.553  0.6813 -0.2512  0.1236
 5347TIP3   OH216046   1.706   4.014   4.782 -0.1809 -0.0959 -0.6796
 5347TIP3    H116047   1.631   3.985   4.731  0.2029 -0.4946 -1.0198
 5347TIP3    H216048   1.768   4.047   4.717  0.2102 -0.3845 -0.4533
 5348TIP3   OH216049   4.757   2.645   2.388  0.0734 -0.4573  0.2376
 5348TIP3    H116050   4.812   2.663   2.465 -0.4047 -0.5101  0.5968
 5348TIP3    H216051   4.783   2.557   2.360 -0.0018 -0.5830  0.5559
 5349TIP3   OH216052   1.972   3.366   0.330 -0.5978  0.2187  0.1320
 5349TIP3    H116053   2.007   3.449   0.299  1.3713 -0.6364 -0.1127
 5349TIP3    H216054   1.949   3.319   0.250 -2.3377  0.7252  0.2851
 5350TIP3   OH216055   2.152   0.114   2.937 -0.2554  0.1871  0.2550
 5350TIP3    H116056   2.126   0.183   2.876  1.1480  1.8743  1.4493
 5350TIP3    H216057   2.083   0.116   3.004 -1.1899 -0.8838 -0.6363
 5351TIP3   OH216058   1.369   0.751   2.652  0.1137  0.3039 -0.0161
 5351TIP3    H116059   1.431   0.819   2.627 -0.0785  1.4120  2.2695
 5351TIP3    H216060   1.417   0.697   2.715 -1.0032  0.8799  1.4017
 5352TIP3   OH216061   5.375   4.168   3.494 -0.4986 -0.7159 -0.1008
 5352TIP3    H116062   5.392   4.243   3.550 -0.5534 -1.4493  0.9215
 5352TIP3    H216063   5.292   4.132   3.526 -0.5891 -1.0736 -0.7196
 5353TIP3   OH216064   3.604   5.143   2.772  0.3446 -0.1433  0.3372
 5353TIP3    H116065   3.563   5.225   2.799 -0.2552 -0.5363  0.6232
 5353TIP3    H216066   3.636   5.104   2.853  2.2028  0.6214  0.0406
 5354TIP3   OH216067   0.920   3.391   2.424 -0.1908 -0.1700 -0.0088
 5354TIP3    H116068   0.896   3.300   2.444 -0.4606 -0.7455 -2.6209
 5354TIP3    H216069   0.892   3.404   2.334 -0.3387  2.6172  0.3536
 5355TIP3   OH216070   3.460   5.214   3.150 -0.1317  0.6074  0.0049
 5355TIP3    H116071   3.469   5.270   3.073  0.1158 -0.1419 -0.5242
 5355TIP3    H216072   3.399   5.261   3.207 -0.0775  1.3176 -0.5066
 5356TIP3   OH216073   2.490   0.050   0.899  0.1680  0.0344 -0.2922
 5356TIP3    H116074   2.574   0.089   0.922  0.6561 -1.5760  0.8758
 5356TIP3    H216075   2.424   0.112   0.929  0.9241  0.4167  0.5906
 5357TIP3   OH216076   0.885   0.400   1.361  0.2695 -0.5593 -0.1617
 5357TIP3    H116077   0.970   0.421   1.401  0.6858 -2.0653 -0.1944
 5357TIP3    H216078   0.875   0.306   1.375 -2.0290 -0.1865  1.0037
 5358TIP3   OH216079   1.751   2.007   2.724 -0.2683  0.4187  0.6561
 5358TIP3    H116080   1.723   2.065   2.795  1.0334  2.0519 -0.0945
 5358TIP3    H216081   1.708   2.042   2.646 -1.0693 -0.8909  0.4925
 5359TIP3   OH216082   5.906   4.242   1.596  0.0967 -0.3406  0.0143
 5359TIP3    H116083   5.878   4.298   1.524 -0.2783 -0.9405 -0.3106
 5359TIP3    H216084   5.973   4.185   1.558  0.2372 -0.3345  0.2544
 5360TIP3   OH216085   4.575   4.483   2.234  0.2811  0.0685 -0.8670
 5360TIP3    H116086   4.640   4.414   2.250 -1.4325 -1.5501 -0.5385
 5360TIP3    H216087   4.523   4.486   2.314  0.4329  1.9251 -0.7995
 5361TIP3   OH216088   3.230   4.791   2.777  0.3923  0.2038 -0.0225
 5361TIP3    H116089   3.238   4.758   2.687 -2.1514 -0.6462 -0.0199
 5361TIP3    H216090   3.304   4.850   2.787  1.1138 -0.1530 -2.4689
 5362TIP3   OH216091   5.811   2.795   5.146  0.2749 -0.3252 -0.5638
 5362TIP3    H116092   5.864   2.773   5.222 -1.5652 -0.3127  0.7733
 5362TIP3    H216093   5.875   2.804   5.074  1.8330 -2.6014  0.4247
 5363TIP3   OH216094   4.347   2.632   4.282 -0.0438  0.4079  0.4375
 5363TIP3    H116095   4.271   2.579   4.307 -0.3938  0.8680  0.3599
 5363TIP3    H216096   4.309   2.712   4.245  0.4678  0.3247 -0.2954
 5364TIP3   OH216097   2.944   5.610   3.534 -0.5179  0.8475  0.0760
 5364TIP3    H116098   2.894   5.691   3.524 -2.8907 -0.5929 -0.4805
 5364TIP3    H216099   3.031   5.639   3.559 -1.9485  3.4860  2.6709
 5365TIP3   OH216100   4.794   0.904   3.857  0.4650 -0.1981  0.0945
 5365TIP3    H116101   4.723   0.853   3.895  1.7050 -0.8705  1.6001
 5365TIP3    H216102   4.849   0.929   3.931  2.3334 -0.5106 -1.1146
 5366TIP3   OH216103   0.354   1.979   2.617 -0.3945  0.2745  0.0214
 5366TIP3    H116104   0.376   2.000   2.526  1.7395 -0.7616  0.2411
 5366TIP3    H216105   0.304   1.897   2.611 -0.8767  0.5862 -0.2578
 5367TIP3   OH216106   2.507   5.588   1.075  0.4285  0.7558  0.1269
 5367TIP3    H116107   2.530   5.530   1.147 -0.5390  2.6499  2.0796
 5367TIP3    H216108   2.590   5.605   1.030  1.2154  0.1899  1.3204
 5368TIP3   OH216109   3.009   4.937   2.265 -0.1269  0.1439  0.2934
 5368TIP3    H116110   3.077   4.989   2.222  1.0980 -0.8667  0.9396
 5368TIP3    H216111   3.016   4.850   2.226 -1.0848  0.0282  0.3476
 5369TIP3   OH216112   4.852   4.618   5.029  0.2914  0.0328  0.9355
 5369TIP3    H116113   4.889   4.697   4.991  0.2472 -0.6611 -0.6213
 5369TIP3    H216114   4.807   4.575   4.957  1.9338 -2.3860  1.2100
 5370TIP3   OH216115   2.931   4.223   0.857  0.1860  0.4386 -0.2964
 5370TIP3    H116116   2.917   4.129   0.856 -0.9550  0.5923 -1.2246
 5370TIP3    H216117   2.861   4.259   0.802  0.7792  1.8005 -0.2221
 5371TIP3   OH216118   6.144   0.998   2.927 -0.2887  0.3768  0.5066
 5371TIP3    H116119   6.137   1.084   2.967 -0.1856 -0.8622  3.3981
 5371TIP3    H216120   6.056   0.980   2.894 -0.9400  0.6301  2.0466
 5372TIP3   OH216121   5.909   5.580   3.643  0.1994 -0.4604 -0.5981
 5372TIP3    H116122   5.883   5.670   3.663  0.4089 -0.4879 -0.1769
 5372TIP3    H216123   5.827   5.531   3.639  0.1037 -0.3001 -0.5680
 5373TIP3   OH216124   4.604   5.036   2.910 -0.1949 -0.1026  0.3927
 5373TIP3    H116125   4.648   4.987   2.980 -0.8266 -0.7756  0.3312
 5373TIP3    H216126   4.558   5.107   2.956  0.7925  0.5064  0.4727
 5374TIP3   OH216127   1.584   0.830   3.514 -0.5332 -0.1496 -0.5312
 5374TIP3    H116128   1.633   0.904   3.551  0.7371 -1.1996 -0.0206
 5374TIP3    H216129   1.579   0.849   3.420  1.0308 -0.0600 -0.6305
 5375TIP3   OH216130   3.643   2.307   3.290  0.2648 -0.3655  0.0472
 5375TIP3    H116131   3.643   2.237   3.355 -1.0881  0.2116  0.7046
 5375TIP3    H216132   3.650   2.388   3.341  0.5873  0.0389 -0.6201
 5376TIP3   OH216133   3.376   1.258   0.813 -0.1486 -0.0159 -1.0129
 5376TIP3    H116134   3.372   1.322   0.884 -0.7888  0.9909 -1.9304
 5376TIP3    H216135   3.301   1.200   0.828  0.0496 -0.1530 -0.5525
 5377TIP3   OH216136   6.018   5.463   1.225 -0.8551 -0.0267 -0.4654
 5377TIP3    H116137   5.943   5.505   1.268 -0.6320  1.7094 -1.6532
 5377TIP3    H216138   5.995   5.463   1.132 -0.3097 -1.5416 -0.6261
 5378TIP3   OH216139   0.024   0.746   3.608  0.5351 -0.2663  0.2985
 5378TIP3    H116140   0.055   0.656   3.607 -2.0543 -1.2412 -0.5906
 5378TIP3    H216141   0.016   0.770   3.516 -2.3124 -0.5322  0.3914
 5379TIP3   OH216142   0.930   3.636   3.949 -0.4405  0.5554 -0.4430
 5379TIP3    H116143   0.920   3.661   4.040 -0.9184  1.1856 -0.6637
 5379TIP3    H216144   1.024   3.641   3.933  0.1514 -2.9337  0.9399
 5380TIP3   OH216145   1.229   4.012   2.784  0.2690  0.0062 -0.1648
 5380TIP3    H116146   1.192   3.955   2.716  1.9308 -0.7744 -0.4635
 5380TIP3    H216147   1.184   4.096   2.773 -0.5832 -0.5775 -1.2217
 5381TIP3   OH216148   4.677   1.526   3.564  0.0124 -0.3107 -0.2520
 5381TIP3    H116149   4.610   1.523   3.633 -1.4297  2.6484 -1.3554
 5381TIP3    H216150   4.661   1.447   3.512 -1.2270 -0.7471  0.7383
 5382TIP3   OH216151   2.255   4.069   4.059  0.0834  0.6380  0.1215
 5382TIP3    H116152   2.163   4.044   4.045  0.0501  0.7631  0.1115
 5382TIP3    H216153   2.305   3.992   4.032 -0.0477  0.3071  0.8029
 5383TIP3   OH216154   3.374   3.645   1.362  0.2777 -0.2079 -0.3384
 5383TIP3    H116155   3.391   3.681   1.275  2.8142  0.6064  0.4203
 5383TIP3    H216156   3.440   3.577   1.373  0.6741  0.3971  1.3189
 5384TIP3   OH216157   1.325   0.058   1.727 -0.5169  0.6006 -0.0123
 5384TIP3    H116158   1.377  -0.011   1.767  0.2133  2.1282  1.7708
 5384TIP3    H216159   1.337   0.134   1.783 -2.3084  1.8548 -1.2071
 5385TIP3   OH216160   4.825   2.345   3.649  0.2922 -0.3822 -0.3327
 5385TIP3    H116161   4.875   2.303   3.718 -0.1817  0.8492  0.7971
 5385TIP3    H216162   4.821   2.437   3.674 -0.8962 -0.1149 -1.3877
 5386TIP3   OH216163   0.823   2.235   0.934  0.5129 -0.2729  0.1814
 5386TIP3    H116164   0.804   2.315   0.982 -0.2590 -1.0025  1.1377
 5386TIP3    H216165   0.896   2.195   0.981  2.1024  0.7158 -1.3424
 5387TIP3   OH216166   5.547   3.383   2.569 -0.0553  0.1263 -0.3387
 5387TIP3    H116167   5.616   3.318   2.583 -1.5183 -1.7434 -1.3068
 5387TIP3    H216168   5.572   3.457   2.623  2.1783 -0.8754  0.1113
 5388TIP3   OH216169   3.707   3.025   2.188 -0.8775 -0.3587  0.7216
 5388TIP3    H116170   3.672   3.100   2.139  0.2661 -1.0230 -1.1861
 5388TIP3    H216171   3.699   3.051   2.280 -0.8597  1.9417  0.1219
 5389TIP3   OH216172   2.975   0.679   3.800  0.0014  0.5950 -0.3010
 5389TIP3    H116173   2.928   0.682   3.883 -0.7069  1.8616 -0.7339
 5389TIP3    H216174   3.056   0.728   3.817 -0.5870  1.7015 -0.6127
 5390TIP3   OH216175   0.801  -0.001   1.094 -0.6677  0.0705 -0.3773
 5390TIP3    H116176   0.798   0.057   1.018 -0.3395  2.5551  1.3868
 5390TIP3    H216177   0.724   0.024   1.146  1.4634  1.7074  2.2374
 5391TIP3   OH216178   0.238   5.879   3.990 -0.1396 -0.2004 -0.9485
 5391TIP3    H116179   0.222   5.939   3.917  0.1190  0.5281 -0.4183
 5391TIP3    H216180   0.226   5.932   4.069  0.2725 -0.7998 -0.4652
 5392TIP3   OH216181   0.572   4.756   5.053  0.1879 -0.3339  0.2405
 5392TIP3    H116182   0.617   4.759   4.969 -1.2966  0.7891 -0.5711
 5392TIP3    H216183   0.616   4.821   5.107 -1.3122  1.8633 -1.0450
 5393TIP3   OH216184   3.984   3.034   2.767 -0.8104  0.0534  0.3762
 5393TIP3    H116185   4.025   3.091   2.702 -1.5709 -1.2844 -1.3815
 5393TIP3    H216186   4.048   3.028   2.838  2.0305 -1.6948 -2.0855
 5394TIP3   OH216187   2.217   2.137   0.768  0.2041 -0.0987  0.3787
 5394TIP3    H116188   2.155   2.064   0.773  0.7763 -0.7858 -1.5057
 5394TIP3    H216189   2.162   2.214   0.750 -0.1966 -0.5775 -0.5262
 5395TIP3   OH216190   1.804   3.653   3.727 -0.1263 -0.5037  0.0581
 5395TIP3    H116191   1.885   3.688   3.690  0.8174 -1.4351  1.2061
 5395TIP3    H216192   1.825   3.564   3.754 -1.5033 -0.7296  0.4739
 5396TIP3   OH216193   6.007   2.398   1.557  0.2494  0.5870 -0.4620
 5396TIP3    H116194   5.945   2.330   1.582 -1.9005  2.2614 -0.9059
 5396TIP3    H216195   6.048   2.365   1.477  0.0138 -0.6026 -0.1135
 5397TIP3   OH216196   2.910   2.682   0.357  0.0989 -0.0773  0.7949
 5397TIP3    H116197   2.924   2.701   0.264 -0.9904 -0.0297  0.6337
 5397TIP3    H216198   2.953   2.598   0.371 -1.1757 -0.9190 -0.1557
 5398TIP3   OH216199   0.670   5.399   2.757 -0.4789 -0.1256  0.2009
 5398TIP3    H116200   0.744   5.360   2.803 -0.6357 -0.4022  0.2191
 5398TIP3    H216201   0.704   5.481   2.722 -0.1827 -0.2198  0.2670
 5399TIP3   OH216202   4.583   3.565   3.156  0.6453 -0.1382 -0.2214
 5399TIP3    H116203   4.663   3.618   3.162  0.2964  0.3256  0.3735
 5399TIP3    H216204   4.598   3.509   3.080  1.4245  0.1364 -0.2837
 5400TIP3   OH216205   2.393   1.757   3.629  0.5076 -0.2014 -0.4300
 5400TIP3    H116206   2.315   1.728   3.676  0.0028 -0.3805 -1.3664
 5400TIP3    H216207   2.428   1.827   3.683 -0.7221  0.3940 -0.3720
 5401TIP3   OH216208   2.235   4.790   2.700  0.4939 -0.4048  0.2280
 5401TIP3    H116209   2.307   4.727   2.700  0.9320  0.0541 -1.1972
 5401TIP3    H216210   2.271   4.867   2.656 -0.7659 -0.0392 -0.1947
 5402TIP3   OH216211   1.018   0.100   0.434  0.4183 -0.3346  0.2908
 5402TIP3    H116212   1.029   0.015   0.477 -0.1447 -2.5697 -3.4948
 5402TIP3    H216213   1.105   0.125   0.406  0.5280  0.2195  1.0762
 5403TIP3   OH216214   4.604   5.104   4.544 -0.2227  0.3855  0.3493
 5403TIP3    H116215   4.565   5.038   4.601  0.3017  1.5112  2.0880
 5403TIP3    H216216   4.691   5.071   4.523  0.1102  0.5650  1.3716
 5404TIP3   OH216217   0.905   0.165   2.630  0.4523 -0.0330  0.5843
 5404TIP3    H116218   0.941   0.237   2.681  0.0782 -0.6667  1.7671
 5404TIP3    H216219   0.934   0.183   2.540 -1.0498  2.5347  0.4980
 5405TIP3   OH216220   0.619   1.996   0.914  0.4902 -0.2031  0.2052
 5405TIP3    H116221   0.685   2.063   0.897  0.6634 -1.0240 -2.7623
 5405TIP3    H216222   0.667   1.923   0.952  0.6872  0.4175  1.1910
 5406TIP3   OH216223   4.851   2.927   3.902 -0.4745 -0.1652 -0.3345
 5406TIP3    H116224   4.865   2.859   3.968  0.6563 -0.0832 -0.4819
 5406TIP3    H216225   4.761   2.912   3.871 -0.2548 -1.5515 -0.3299
 5407TIP3   OH216226   4.395   0.158   4.342 -0.3490 -0.4115 -0.1599
 5407TIP3    H116227   4.388   0.253   4.331 -0.2180 -0.2808  0.8019
 5407TIP3    H216228   4.441   0.147   4.425  2.0029 -1.2985 -1.4892
 5408TIP3   OH216229   0.500   0.820   0.791 -0.3982  0.0727  0.3779
 5408TIP3    H116230   0.537   0.844   0.876  1.1610  2.7017 -0.9084
 5408TIP3    H216231   0.571   0.778   0.743 -0.2869  1.3208 -0.6240
 5409TIP3   OH216232   0.022   3.033   1.895  0.1032 -0.4127 -0.6546
 5409TIP3    H116233   0.042   3.107   1.838 -0.0044 -0.2923 -0.5354
 5409TIP3    H216234   0.107   3.009   1.933  0.0820 -0.1284 -0.4234
 5410TIP3   OH216235   2.249   5.140   1.565 -0.2369  0.2131 -0.0834
 5410TIP3    H116236   2.190   5.064   1.564  0.7148 -0.5353 -0.5145
 5410TIP3    H216237   2.190   5.216   1.561 -1.1647 -0.5370 -1.7000
 5411TIP3   OH216238   5.592   5.888   2.489  0.3636 -0.1315 -0.2239
 5411TIP3    H116239   5.647   5.964   2.476  1.5344 -0.7510  0.9318
 5411TIP3    H216240   5.516   5.903   2.432  1.2598  1.1799 -1.1207
 5412TIP3   OH216241   5.834   0.859   0.468 -0.9478  0.3645  0.3564
 5412TIP3    H116242   5.889   0.913   0.525  0.2709  0.4943 -0.8960
 5412TIP3    H216243   5.805   0.787   0.524  0.7514  0.1353  0.9865
 5413TIP3   OH216244   0.096   2.466   3.062  1.0341  0.0819  0.0137
 5413TIP3    H116245   0.012   2.480   3.019  0.4920 -0.9983  0.6645
 5413TIP3    H216246   0.153   2.536   3.029  0.5565 -0.4936 -2.1706
 5414TIP3   OH216247   2.327   0.049   3.125 -0.1143  0.4980 -0.5395
 5414TIP3    H116248   2.401   0.023   3.070  0.0593 -1.2337  0.4316
 5414TIP3    H216249   2.255   0.063   3.064  0.5704  0.5132 -1.3543
 5415TIP3   OH216250   4.869   3.847   1.973 -0.3741 -0.0183  0.2295
 5415TIP3    H116251   4.946   3.803   1.939 -1.8929 -1.6264 -1.3780
 5415TIP3    H216252   4.838   3.901   1.900 -1.2941 -0.1216  0.5268
 5416TIP3   OH216253   5.142   1.322   2.399  0.2741  0.0945 -0.3245
 5416TIP3    H116254   5.087   1.248   2.427 -0.4659  0.4906 -0.6981
 5416TIP3    H216255   5.205   1.332   2.470 -0.5752  0.0730  0.4672
 5417TIP3   OH216256   4.569   0.138   3.774 -0.3623  0.8735 -0.5734
 5417TIP3    H116257   4.515   0.217   3.761 -0.9180  0.4061 -1.1795
 5417TIP3    H216258   4.527   0.072   3.719 -0.5315 -0.1544  0.7669
 5418TIP3   OH216259   4.265   2.602   2.018 -0.3407 -0.5559  0.3384
 5418TIP3    H116260   4.293   2.665   2.084 -1.1606 -1.2043  1.3386
 5418TIP3    H216261   4.171   2.617   2.009 -0.2055 -0.2905 -0.9157
 5419TIP3   OH216262   0.070   5.116   4.408 -0.0859 -0.3182  0.0014
 5419TIP3    H116263   0.018   5.071   4.341 -1.1852 -0.4269  0.8997
 5419TIP3    H216264   0.111   5.047   4.458  2.2552 -0.2389 -1.6315
 5420TIP3   OH216265   5.552   2.585   1.400  0.0776 -0.2557  0.1704
 5420TIP3    H116266   5.635   2.631   1.413  0.7053 -1.4841  0.6480
 5420TIP3    H216267   5.563   2.502   1.447 -1.1301 -0.7690 -0.4186
 5421TIP3   OH216268   2.259   5.760   3.825  0.5947  0.1479 -0.3340
 5421TIP3    H116269   2.191   5.824   3.850  1.0353  1.2116 -1.7179
 5421TIP3    H216270   2.299   5.798   3.747  0.3509 -2.2318 -1.6996
 5422TIP3   OH216271   3.569   2.300   2.552  0.0249  0.1225  0.1347
 5422TIP3    H116272   3.491   2.356   2.557 -0.7189 -0.9242  0.6597
 5422TIP3    H216273   3.625   2.332   2.622 -0.5462  0.0095  0.6561
 5423TIP3   OH216274   2.068   1.962   0.607 -0.0594 -0.2735  0.1095
 5423TIP3    H116275   2.068   2.050   0.570 -0.1018 -0.5488 -0.5523
 5423TIP3    H216276   2.096   1.905   0.535 -1.4641 -0.9770  0.0799
 5424TIP3   OH216277   1.111   1.517   2.533  0.0245  0.0415  0.4700
 5424TIP3    H116278   1.023   1.529   2.498 -0.0592 -2.1507 -0.2759
 5424TIP3    H216279   1.169   1.559   2.469 -0.2722 -2.1066 -1.3597
 5425TIP3   OH216280   5.288   1.633   2.092 -0.7981 -0.2902 -0.2677
 5425TIP3    H116281   5.333   1.711   2.124 -0.2738 -0.6311 -0.1430
 5425TIP3    H216282   5.291   1.572   2.166 -1.9250 -0.1418 -0.0883
 5426TIP3   OH216283   1.284   2.543   1.577  0.1209 -0.0745 -0.7217
 5426TIP3    H116284   1.234   2.562   1.497  1.1859 -0.4499 -1.4953
 5426TIP3    H216285   1.243   2.464   1.613  0.3348 -0.5563 -1.5132
 5427TIP3   OH216286   4.613   1.570   2.149 -0.6902  0.0786  0.0596
 5427TIP3    H116287   4.587   1.556   2.241  0.3482  0.3747  0.4057
 5427TIP3    H216288   4.700   1.533   2.142 -1.0517 -0.6131 -1.0207
 5428TIP3   OH216289   3.891   2.788   0.766 -0.3032 -0.5023  0.3802
 5428TIP3    H116290   3.815   2.746   0.806 -1.2230  0.8102  0.0999
 5428TIP3    H216291   3.853   2.857   0.710  1.0993  0.4747  0.5860
 5429TIP3   OH216292   1.598   4.941   4.460  0.4755  0.4440 -0.5618
 5429TIP3    H116293   1.652   4.953   4.381 -1.6258 -1.3268 -2.4063
 5429TIP3    H216294   1.508   4.952   4.430 -0.4132 -0.3131  1.6103
 5430TIP3   OH216295   3.930   1.112   4.298 -0.2536  0.2016 -0.1849
 5430TIP3    H116296   3.889   1.056   4.233  0.4496 -1.5402  0.7987
 5430TIP3    H216297   3.964   1.052   4.364 -1.1303  1.8719  1.9379
 5431TIP3   OH216298   4.199   2.043   5.111 -0.0529  0.1294  0.3462
 5431TIP3    H116299   4.223   1.957   5.143  0.0023 -0.2360 -0.6277
 5431TIP3    H216300   4.266   2.102   5.145  0.7328 -0.4498 -0.1686
 5432TIP3   OH216301   0.181   0.143   2.294 -0.6539  0.1637  0.1006
 5432TIP3    H116302   0.140   0.134   2.208  0.1724 -0.0035 -0.2863
 5432TIP3    H216303   0.151   0.067   2.343  0.1684 -0.6425 -0.5999
 5433TIP3   OH216304   3.554   3.935   1.053  0.2111 -0.0932  0.8041
 5433TIP3    H116305   3.555   4.009   0.992 -0.6939  0.2219  1.1532
 5433TIP3    H216306   3.603   3.966   1.129  0.6590 -0.2010  0.5613
 5434TIP3   OH216307   1.039   1.130   0.432 -0.1645 -0.4669  0.5211
 5434TIP3    H116308   1.002   1.162   0.514  1.1864 -0.9416  1.3428
 5434TIP3    H216309   1.038   1.035   0.440  0.8567 -0.5008  0.4061
 5435TIP3   OH216310   2.695   0.476   4.916  0.3607  0.1255 -0.0119
 5435TIP3    H116311   2.621   0.441   4.966  1.5142 -0.0988  1.6220
 5435TIP3    H216312   2.666   0.561   4.884  0.0525  0.9792  2.3576
 5436TIP3   OH216313   4.298   4.420   1.401 -0.1385  0.1338 -0.3747
 5436TIP3    H116314   4.210   4.383   1.410  0.2918 -0.5131  2.0016
 5436TIP3    H216315   4.346   4.356   1.349 -0.4500 -0.7636  0.4055
 5437TIP3   OH216316   1.013   5.773   2.484  0.0236 -0.7615 -0.0634
 5437TIP3    H116317   1.037   5.688   2.521  2.3005  0.6986  2.1470
 5437TIP3    H216318   1.087   5.797   2.428 -0.3764 -0.0371 -0.2977
 5438TIP3   OH216319   5.790   5.590   0.134 -0.1992  0.2135 -0.1787
 5438TIP3    H116320   5.817   5.571   0.224 -0.0667 -0.3930 -0.3407
 5438TIP3    H216321   5.832   5.521   0.082 -2.3579 -1.0080 -0.4016
 5439TIP3   OH216322   2.423   4.414   0.814  0.2389 -0.1969 -0.2768
 5439TIP3    H116323   2.438   4.371   0.729  1.2664 -1.0158  0.2949
 5439TIP3    H216324   2.498   4.387   0.867 -0.9877 -0.6575  1.2725
 5440TIP3   OH216325   1.174   4.234   3.433 -0.2022 -0.2817  0.1400
 5440TIP3    H116326   1.257   4.278   3.449 -0.5706  0.9923 -1.2901
 5440TIP3    H216327   1.189   4.144   3.464  1.8716 -0.2315 -0.5484
 5441TIP3   OH216328   3.718   2.591   2.622 -0.7220 -0.5410  0.3911
 5441TIP3    H116329   3.648   2.565   2.562 -0.8517  0.2734  0.1640
 5441TIP3    H216330   3.753   2.671   2.583  1.5737 -1.9020 -0.4780
 5442TIP3   OH216331   1.716   0.003   3.583 -0.8469  0.7584  0.5174
 5442TIP3    H116332   1.666   0.011   3.502  1.4762 -0.7337 -1.1780
 5442TIP3    H216333   1.783   0.071   3.577 -1.2854  1.3255  1.7351
 5443TIP3   OH216334   3.383   0.364   1.012  0.0060  0.3636 -0.1339
 5443TIP3    H116335   3.347   0.286   0.971  1.0435 -0.3064  0.1837
 5443TIP3    H216336   3.347   0.363   1.101 -0.5609  0.6515 -0.3591
 5444TIP3   OH216337   3.858   4.419   0.161 -0.1214  0.0553 -0.1622
 5444TIP3    H116338   3.800   4.349   0.190  0.3466 -0.6460 -0.8681
 5444TIP3    H216339   3.932   4.416   0.223 -1.2206  1.5639  1.3170
 5445TIP3   OH216340   3.242   3.924   2.691 -0.0239  0.2349 -0.4602
 5445TIP3    H116341   3.237   3.970   2.775 -0.8801  0.1831 -0.4746
 5445TIP3    H216342   3.298   3.849   2.708 -0.7762 -0.1856  0.2726
 5446TIP3   OH216343   0.187   1.551   2.813 -0.1145 -0.5935  0.0750
 5446TIP3    H116344   0.185   1.603   2.894 -1.9579  0.2531 -0.4640
 5446TIP3    H216345   0.146   1.468   2.836 -2.0284  0.1987 -0.2895
 5447TIP3   OH216346   0.822   4.117   5.095  0.5588  0.0555  0.1218
 5447TIP3    H116347   0.769   4.139   5.171  0.7307 -0.3721  0.3674
 5447TIP3    H216348   0.894   4.180   5.097  0.4708  0.1554  0.2106
 5448TIP3   OH216349   4.774   0.222   3.045  0.3101 -0.3596 -0.4276
 5448TIP3    H116350   4.794   0.185   3.130 -1.0590  0.9912  0.5339
 5448TIP3    H216351   4.780   0.148   2.984  0.2779 -1.5690  0.9992
 5449TIP3   OH216352   0.124   5.116   2.956 -0.1410  1.0807 -0.1501
 5449TIP3    H116353   0.147   5.117   3.049 -2.2434  1.7238  0.4143
 5449TIP3    H216354   0.154   5.201   2.923 -0.6838  1.4482  0.2914
 5450TIP3   OH216355   6.012   3.973   0.836 -0.2457  0.0413  0.1546
 5450TIP3    H116356   5.961   3.898   0.804  3.5685 -2.1573 -1.6110
 5450TIP3    H216357   6.062   3.937   0.910  1.6049  0.7958 -0.6834
 5451TIP3   OH216358   1.633   0.323   3.987  0.4097  1.0238 -0.6663
 5451TIP3    H116359   1.569   0.375   4.036  0.8288 -0.2750  1.3860
 5451TIP3    H216360   1.663   0.381   3.917 -0.1426  3.0478  0.6918
 5452TIP3   OH216361   3.816   4.374   2.504  0.3315  0.0281  1.0061
 5452TIP3    H116362   3.813   4.298   2.445 -0.4087  0.7572  0.0817
 5452TIP3    H216363   3.755   4.352   2.574 -1.8676  0.7835 -0.5659
 5453TIP3   OH216364   3.246   4.409   2.652 -0.0428  0.7189 -0.6745
 5453TIP3    H116365   3.283   4.390   2.566 -2.4917  0.3403 -1.7102
 5453TIP3    H216366   3.162   4.451   2.634 -0.9554 -0.0196  1.5135
 5454TIP3   OH216367   5.383   5.119   3.241  0.4153 -0.1829 -0.3008
 5454TIP3    H116368   5.401   5.042   3.295 -0.6526  1.0041  1.8502
 5454TIP3    H216369   5.288   5.125   3.238  0.4390 -0.1349 -2.2866
 5455TIP3   OH216370   2.219   5.067   3.472  0.4821  0.2401 -0.3941
 5455TIP3    H116371   2.247   5.039   3.385 -0.2081  1.7084 -1.1204
 5455TIP3    H216372   2.301   5.073   3.522  1.0102  0.4064 -1.2530
 5456TIP3   OH216373   4.827   4.481   1.555  0.0180 -0.4583  0.2857
 5456TIP3    H116374   4.764   4.417   1.587  0.6627 -1.0608  0.3924
 5456TIP3    H216375   4.798   4.565   1.592  0.0534 -0.9406  1.4554
 5457TIP3   OH216376   1.371   1.968   0.136 -0.4649 -0.1015  0.1758
 5457TIP3    H116377   1.353   1.877   0.115 -0.0361  0.0416 -0.8256
 5457TIP3    H216378   1.340   1.978   0.227 -0.1114 -1.3459  0.4484
 5458TIP3   OH216379   6.179   3.460   2.816 -0.2934 -0.1108 -0.1341
 5458TIP3    H116380   6.224   3.497   2.741 -1.4029 -0.9484 -1.2552
 5458TIP3    H216381   6.244   3.462   2.887 -0.0983  3.3333 -0.2496
 5459TIP3   OH216382   3.825   1.825   1.583  0.4297  0.2005  0.1767
 5459TIP3    H116383   3.889   1.847   1.651  0.6506  0.0579  0.0124
 5459TIP3    H216384   3.875   1.825   1.502  0.7049 -2.0415  0.2832
 5460TIP3   OH216385   3.486   0.041   0.532  0.1793 -0.4157  0.2894
 5460TIP3    H116386   3.396   0.016   0.512  0.8002 -1.7649 -1.0357
 5460TIP3    H216387   3.495   0.023   0.625 -0.7529 -0.7928  0.3212
 5461TIP3   OH216388   0.345   3.227   4.055 -0.7011 -0.2051 -0.1467
 5461TIP3    H116389   0.269   3.255   4.003 -0.4030  0.6589 -0.1290
 5461TIP3    H216390   0.307   3.172   4.124 -1.3934  0.7157  0.2327
 5462TIP3   OH216391   1.826   4.888   3.084 -0.3624  0.1041  0.1322
 5462TIP3    H116392   1.806   4.953   3.152 -1.4184 -0.7450  0.6583
 5462TIP3    H216393   1.829   4.805   3.131 -0.5854 -0.4284 -0.7851
 5463TIP3   OH216394   3.776   0.383   4.663 -0.2443 -0.0486  0.6614
 5463TIP3    H116395   3.723   0.332   4.725  0.2480 -1.0838  0.2609
 5463TIP3    H216396   3.806   0.318   4.599  0.0790  0.8299 -0.0889
 5464TIP3   OH216397   1.669   4.563   3.689 -0.5677 -0.0003  0.4552
 5464TIP3    H116398   1.701   4.649   3.661 -1.0413 -0.5988 -2.1839
 5464TIP3    H216399   1.577   4.561   3.662 -0.5935 -1.2858  0.5689
 5465TIP3   OH216400   6.361   2.718   2.036  0.2207 -0.0715  0.3806
 5465TIP3    H116401   6.314   2.635   2.021  1.0453 -0.2428 -1.5517
 5465TIP3    H216402   6.291   2.783   2.043 -0.4339 -0.2443 -2.9291
 5466TIP3   OH216403   6.145   1.385   5.096  0.4559  0.0998 -0.6714
 5466TIP3    H116404   6.088   1.369   5.021 -1.7667 -1.3120  1.1961
 5466TIP3    H216405   6.203   1.309   5.099 -0.2331 -0.4104 -0.2849
 5467TIP3   OH216406   5.652   3.649   0.489 -0.4306 -0.0720  0.3199
 5467TIP3    H116407   5.601   3.597   0.427  0.5817  0.1115 -0.6930
 5467TIP3    H216408   5.616   3.626   0.575 -1.9945 -0.1791 -0.3260
 5468TIP3   OH216409   0.836   5.320   3.979  0.0071 -0.2593 -0.7310
 5468TIP3    H116410   0.928   5.321   3.952 -0.1136  0.3067 -1.1414
 5468TIP3    H216411   0.812   5.228   3.982  1.0279 -0.5093  0.8993
 5469TIP3   OH216412   5.336   0.185   0.084 -0.4716 -0.4952  0.0289
 5469TIP3    H116413   5.295   0.118   0.138 -0.0137 -2.3890 -1.8691
 5469TIP3    H216414   5.290   0.181   0.001  2.1874 -1.3759 -1.5233
 5470TIP3   OH216415   2.629   3.165   1.508 -0.7315  0.1346 -0.1701
 5470TIP3    H116416   2.571   3.187   1.581  0.7016 -0.0158  1.0664
 5470TIP3    H216417   2.609   3.074   1.488  1.0169 -0.8672  2.2160
 5471TIP3   OH216418   3.160   2.708   5.200  0.0656 -0.0911 -0.1325
 5471TIP3    H116419   3.080   2.706   5.148  0.1479  0.5362 -0.2833
 5471TIP3    H216420   3.231   2.710   5.136  0.1909 -0.0524  0.0053
 5472TIP3   OH216421   5.239   3.252   4.296 -0.0842  0.0537 -0.1753
 5472TIP3    H116422   5.257   3.263   4.202  0.0908 -0.2974 -0.1840
 5472TIP3    H216423   5.168   3.188   4.300  0.7160 -0.8446 -0.0267
 5473TIP3   OH216424   3.369   3.359   0.031 -0.3646 -0.3497  0.1900
 5473TIP3    H116425   3.354   3.409   0.111 -1.0907 -0.8748  0.3966
 5473TIP3    H216426   3.367   3.268   0.059  2.1435 -0.5178  0.0223
 5474TIP3   OH216427   3.119   3.893   0.295 -0.4961 -0.1229  0.1940
 5474TIP3    H116428   3.104   3.873   0.388 -2.3332 -1.1946 -0.2802
 5474TIP3    H216429   3.214   3.885   0.285 -0.2776 -0.2698  1.9173
 5475TIP3   OH216430   2.775   0.272   4.460  0.2149 -0.7333 -0.3324
 5475TIP3    H116431   2.762   0.184   4.494 -0.4070 -0.2511  0.7406
 5475TIP3    H216432   2.842   0.311   4.518  0.7512 -0.6142 -1.0183
 5476TIP3   OH216433   2.398   0.060   0.651 -0.6460  0.4486  0.4490
 5476TIP3    H116434   2.319   0.115   0.656  0.4111  1.9778  1.3533
 5476TIP3    H216435   2.424   0.048   0.742 -0.1653 -0.5538  0.1902
 5477TIP3   OH216436   0.856   1.818   1.581 -0.0250 -0.2447  0.1070
 5477TIP3    H116437   0.889   1.904   1.609  0.1909 -0.3608  0.2074
 5477TIP3    H216438   0.933   1.773   1.546 -0.2656 -0.1446 -0.5784
 5478TIP3   OH216439   1.200   2.914   3.613 -0.8676 -0.0990  0.2948
 5478TIP3    H116440   1.180   2.836   3.665 -0.6636 -0.0472  0.4476
 5478TIP3    H216441   1.218   2.983   3.677  1.4613 -0.5451  0.1763
 5479TIP3   OH216442   3.305   5.689   0.587 -0.1756 -0.6424  0.4180
 5479TIP3    H116443   3.285   5.645   0.504  2.2114  0.5223 -0.8929
 5479TIP3    H216444   3.220   5.721   0.618 -1.2111 -1.5566 -1.3077
 5480TIP3   OH216445   4.141   1.787   3.119 -0.1959 -0.0384  0.1983
 5480TIP3    H116446   4.058   1.794   3.165 -0.5414 -0.8259 -0.2773
 5480TIP3    H216447   4.129   1.713   3.059  0.4141  0.6114 -0.7632
 5481TIP3   OH216448   3.619   2.678   1.445  0.0510  0.0600 -0.5820
 5481TIP3    H116449   3.661   2.615   1.503 -3.2148 -0.6249  1.2855
 5481TIP3    H216450   3.647   2.763   1.478 -0.1992 -0.3660  0.8002
 5482TIP3   OH216451   4.382   2.305   4.531  0.4055 -0.2227  0.5124
 5482TIP3    H116452   4.440   2.235   4.561 -1.2415 -1.5203  0.8302
 5482TIP3    H216453   4.316   2.260   4.477 -0.7187  1.0509  0.7686
 5483TIP3   OH216454   0.686   3.827   0.949  0.4945 -0.0289 -0.1503
 5483TIP3    H116455   0.690   3.911   0.904  1.2230  0.9414  1.6240
 5483TIP3    H216456   0.594   3.818   0.976  0.6933  0.9400  0.9272
 5484TIP3   OH216457   5.090   2.611   4.564  0.3742 -0.7004 -0.1121
 5484TIP3    H116458   5.065   2.698   4.534 -0.7326 -1.1693 -0.6268
 5484TIP3    H216459   5.008   2.561   4.561  0.2486 -0.9347  3.1721
 5485TIP3   OH216460   2.910   0.796   2.533  0.2268  0.0950 -0.2892
 5485TIP3    H116461   2.842   0.856   2.503  1.3842  2.3735  1.3072
 5485TIP3    H216462   2.869   0.745   2.602 -0.8177 -1.1575 -1.7711
 5486TIP3   OH216463   0.826   5.299   0.954  0.3421  0.3560 -0.9676
 5486TIP3    H116464   0.918   5.278   0.940  0.8724  1.2844  0.8392
 5486TIP3    H216465   0.821   5.394   0.944 -0.2831  0.3913 -0.3857
 5487TIP3   OH216466   5.742   0.609   4.776 -0.1461  0.0161  0.0993
 5487TIP3    H116467   5.739   0.519   4.808  2.2872 -0.6785 -1.3308
 5487TIP3    H216468   5.779   0.659   4.849 -1.4829 -0.1093  0.8920
 5488TIP3   OH216469   3.737   3.802   4.804 -0.1828  0.0838 -0.2824
 5488TIP3    H116470   3.777   3.870   4.751  1.8765 -1.0198 -0.2456
 5488TIP3    H216471   3.795   3.792   4.879 -1.3928 -0.5003  0.6139
 5489TIP3   OH216472   0.674   5.975   4.499  0.6188 -0.0627  0.1459
 5489TIP3    H116473   0.697   5.890   4.536  0.5334  1.0690  3.1497
 5489TIP3    H216474   0.746   5.996   4.440  1.9165 -1.1680  1.2638
 5490TIP3   OH216475   0.698   5.918   2.653 -0.5910  0.6966 -0.6076
 5490TIP3    H116476   0.673   6.008   2.675 -0.2432  0.7697 -0.5132
 5490TIP3    H216477   0.619   5.880   2.614 -1.1704  0.6052  0.6129
 5491TIP3   OH216478   1.223   0.444   2.068 -0.3443 -0.1934  0.5463
 5491TIP3    H116479   1.209   0.538   2.056  0.2058  0.0660  1.7403
 5491TIP3    H216480   1.154   0.417   2.128 -0.8568 -0.6862 -0.2511
 5492TIP3   OH216481   4.231   1.729   0.527  0.4022  0.1386 -0.0034
 5492TIP3    H116482   4.186   1.675   0.462  1.6241  0.1586 -0.9034
 5492TIP3    H216483   4.170   1.800   0.547 -1.5311 -1.8262  1.6698
 5493TIP3   OH216484   3.413   4.481   4.216 -0.5686  0.1769 -0.1113
 5493TIP3    H116485   3.386   4.566   4.180 -0.1201  0.0657 -0.7172
 5493TIP3    H216486   3.333   4.429   4.217 -0.6101  0.2097 -0.8800
 5494TIP3   OH216487   5.562   1.830   1.834  0.4394 -1.0445  0.0138
 5494TIP3    H116488   5.551   1.910   1.782 -0.2477 -1.5075 -0.5691
 5494TIP3    H216489   5.516   1.848   1.916 -0.9336 -1.3300 -0.6635
 5495TIP3   OH216490   5.842   1.630   3.627 -0.5004  0.2592 -0.2904
 5495TIP3    H116491   5.868   1.696   3.563  2.5132  0.2787  0.7585
 5495TIP3    H216492   5.890   1.551   3.600 -0.4017 -0.1518  1.0131
 5496TIP3   OH216493   4.057   0.165   4.960 -0.2598 -0.5485 -0.0011
 5496TIP3    H116494   4.049   0.071   4.975 -0.8379 -0.1356  2.7961
 5496TIP3    H216495   4.054   0.204   5.048 -1.8631  2.2085 -1.1475
 5497TIP3   OH216496   4.394   5.885   1.244 -0.2557 -0.1231  0.4744
 5497TIP3    H116497   4.453   5.814   1.219 -1.0684 -1.5908  2.4775
 5497TIP3    H216498   4.358   5.917   1.161  0.9945 -1.2478 -0.5535
 5498TIP3   OH216499   1.002   4.453   2.444  0.2833 -0.5410 -0.2573
 5498TIP3    H116500   1.080   4.400   2.428 -0.7595 -1.4667 -2.8680
 5498TIP3    H216501   0.956   4.406   2.514  2.6091  0.7949  2.3689
 5499TIP3   OH216502   1.722   2.401   3.773 -0.2119 -0.3777  0.0146
 5499TIP3    H116503   1.668   2.441   3.705 -2.6038 -0.8195  1.5088
 5499TIP3    H216504   1.676   2.421   3.854  3.1610  1.2066  1.7432
 5500TIP3   OH216505   6.211   0.240   0.910 -0.3027  0.4057  0.6713
 5500TIP3    H116506   6.126   0.237   0.954 -0.1660  0.3265  0.9294
 5500TIP3    H216507   6.231   0.333   0.903 -0.7562  0.4630 -0.0619
 5501TIP3   OH216508   1.865   5.572   0.814  0.2515 -0.4527 -0.3709
 5501TIP3    H116509   1.811   5.494   0.799 -0.6745  0.2457 -0.7656
 5501TIP3    H216510   1.857   5.587   0.908  0.3460 -0.7691 -0.3089
 5502TIP3   OH216511   0.538   3.153   3.792  0.7187  0.1038  0.1525
 5502TIP3    H116512   0.450   3.185   3.810  0.6921 -0.8440  1.9326
 5502TIP3    H216513   0.585   3.229   3.757 -0.0468  1.4098  1.8242
 5503TIP3   OH216514   0.968   4.713   2.530 -0.3413  0.6771  0.6049
 5503TIP3    H116515   0.877   4.685   2.538 -0.1100 -1.0650 -1.9288
 5503TIP3    H216516   1.018   4.633   2.517  1.1984  1.7566 -0.6181
 5504TIP3   OH216517   2.295   1.358   0.088  0.0570  0.1008  0.6294
 5504TIP3    H116518   2.243   1.348   0.168 -1.3719 -0.8104 -0.3766
 5504TIP3    H216519   2.249   1.426   0.038 -1.4982 -2.1532 -1.2039
 5505TIP3   OH216520   0.256   2.892   0.714  0.5912 -0.4399 -0.0478
 5505TIP3    H116521   0.164   2.915   0.726  0.6963 -0.9680  2.1079
 5505TIP3    H216522   0.273   2.825   0.780  1.9884 -1.9533 -1.8296
 5506TIP3   OH216523   0.258   5.656   0.123  0.1167  0.1476  0.1102
 5506TIP3    H116524   0.229   5.739   0.085  1.4383  0.4776 -0.2121
 5506TIP3    H216525   0.288   5.680   0.211  0.4698 -0.0001  0.0278
 5507TIP3   OH216526   4.037   1.386   2.342 -0.1807  0.4288 -0.3166
 5507TIP3    H116527   4.047   1.293   2.367 -0.0777  0.2966 -0.8415
 5507TIP3    H216528   4.056   1.434   2.423 -0.1147 -0.0037 -0.0692
 5508TIP3   OH216529   1.696   5.708   2.193 -0.0003 -0.3612  0.1474
 5508TIP3    H116530   1.732   5.625   2.223 -1.9974 -0.7378  1.7804
 5508TIP3    H216531   1.694   5.763   2.271 -2.0276 -0.0735 -0.0504
 5509TIP3   OH216532   5.933   4.613   2.205 -0.2809  0.2396  0.2443
 5509TIP3    H116533   5.869   4.546   2.183 -0.1153  0.3368 -0.5701
 5509TIP3    H216534   5.898   4.656   2.282  0.7072 -2.2570  2.2040
 5510TIP3   OH216535   2.476   5.134   0.315 -0.5106 -0.2248 -0.3625
 5510TIP3    H116536   2.509   5.224   0.319  0.6129 -0.6400 -0.0684
 5510TIP3    H216537   2.524   5.093   0.243  0.4555 -1.1391  0.7444
 5511TIP3   OH216538   3.178   3.867   5.011 -0.2297  0.1264 -0.1931
 5511TIP3    H116539   3.238   3.935   5.043 -0.4374 -0.0168  0.5315
 5511TIP3    H216540   3.175   3.880   4.917  0.1419  0.7968 -0.1222
 5512TIP3   OH216541   5.654   4.752   3.575  0.5396  0.2748  0.3365
 5512TIP3    H116542   5.632   4.838   3.611 -0.8174 -0.5553  1.6169
 5512TIP3    H216543   5.708   4.771   3.498 -1.1078  2.3456 -0.4211
 5513TIP3   OH216544   6.093   1.623   1.071 -0.0668 -0.5182  0.5003
 5513TIP3    H116545   6.051   1.693   1.120 -1.4492 -0.3276 -0.9029
 5513TIP3    H216546   6.021   1.572   1.034  0.9230 -1.8917  0.3727
 5514TIP3   OH216547   0.716   2.223   2.139  0.3469 -0.0811 -0.1519
 5514TIP3    H116548   0.721   2.208   2.234 -1.5612  2.4094  0.4366
 5514TIP3    H216549   0.635   2.179   2.113  1.2896 -1.4847 -0.8652
 5515TIP3   OH216550   4.674   1.182   3.044 -0.1178 -0.4399 -0.1254
 5515TIP3    H116551   4.698   1.271   3.070 -2.1763 -0.1589  1.0356
 5515TIP3    H216552   4.757   1.134   3.045  1.2875  1.6912 -2.0701
 5516TIP3   OH216553   6.127   0.459   4.651 -0.6536  0.5938  0.1978
 5516TIP3    H116554   6.194   0.527   4.665 -1.5407  1.1713  1.8647
 5516TIP3    H216555   6.151   0.420   4.567  0.7416  1.9820 -0.1093
 5517TIP3   OH216556   5.810   2.073   4.829  0.7840  0.1316 -0.1413
 5517TIP3    H116557   5.843   1.989   4.799  0.1310 -0.4263  0.6602
 5517TIP3    H216558   5.817   2.069   4.924 -3.4184 -0.8969  0.3342
 5518TIP3   OH216559   1.972   0.251   1.561  0.0787 -0.1243  0.1335
 5518TIP3    H116560   1.901   0.316   1.564  0.1225 -0.0981  0.6095
 5518TIP3    H216561   1.936   0.175   1.605  0.6610  0.1961  1.1898
 5519TIP3   OH216562   1.930   1.237   4.842 -0.3951  0.5486 -0.1384
 5519TIP3    H116563   1.906   1.152   4.803 -1.6799  0.2005  1.2823
 5519TIP3    H216564   1.868   1.247   4.915  0.6495  2.0622  0.5810
 5520TIP3   OH216565   1.941   0.776   2.821  0.5094  0.4588 -0.4651
 5520TIP3    H116566   1.932   0.779   2.916 -0.0709  0.0936 -0.5052
 5520TIP3    H216567   1.970   0.864   2.797  1.0377  0.4414  0.0816
 5521TIP3   OH216568   2.715   1.967   0.976 -0.1827  0.1946  0.1681
 5521TIP3    H116569   2.730   1.937   1.066  1.4957 -3.6062 -1.1644
 5521TIP3    H216570   2.620   1.971   0.967 -0.3841 -0.2118  1.8648
 5522TIP3   OH216571   3.359   0.297   5.113  0.3397 -0.0567 -0.2182
 5522TIP3    H116572   3.279   0.350   5.120 -0.3536 -1.0740 -0.2280
 5522TIP3    H216573   3.348   0.248   5.032  2.1072  1.5683 -1.5244
 5523TIP3   OH216574   3.688   5.151   2.362 -0.2512 -0.3242  0.2036
 5523TIP3    H116575   3.704   5.202   2.282 -1.0679 -0.7227 -0.2264
 5523TIP3    H216576   3.646   5.071   2.331 -0.3372 -0.5961  1.0127
 5524TIP3   OH216577   3.891   3.618   2.703  0.6841 -0.0948 -0.4688
 5524TIP3    H116578   3.871   3.705   2.737 -1.4755 -0.1988 -1.3240
 5524TIP3    H216579   3.905   3.631   2.610  3.5566 -0.2532 -0.1292
 5525TIP3   OH216580   3.334   5.182   3.459 -0.2751  0.7521  0.4737
 5525TIP3    H116581   3.377   5.117   3.403 -0.1990  1.8945 -0.8413
 5525TIP3    H216582   3.340   5.264   3.410 -1.5027  1.5047  1.5240
 5526TIP3   OH216583   1.210   0.322   3.760  0.2096  0.0458 -0.0051
 5526TIP3    H116584   1.247   0.253   3.814 -0.1486  0.9130  1.4176
 5526TIP3    H216585   1.125   0.340   3.800 -0.6686 -0.1814 -1.6763
 5527TIP3   OH216586   3.655   1.339   2.606  0.6020 -0.1084  0.2618
 5527TIP3    H116587   3.652   1.337   2.510  0.8964 -0.1821  0.2530
 5527TIP3    H216588   3.595   1.410   2.630  1.2187  0.5165 -0.0153
 5528TIP3   OH216589   5.218   0.926   5.134 -0.5447 -0.3249 -0.1299
 5528TIP3    H116590   5.248   0.885   5.215  0.1883  0.6473  0.1172
 5528TIP3    H216591   5.165   0.859   5.091 -0.4739 -1.0531  0.8769
 5529TIP3   OH216592   3.937   5.041   5.077 -0.0991 -0.1383 -0.2970
 5529TIP3    H116593   3.895   5.035   5.163  0.2320 -0.9293 -0.1899
 5529TIP3    H216594   3.957   4.951   5.053  0.1172  0.1050 -1.0576
 5530TIP3   OH216595   4.927   1.661   3.936 -0.5608  0.4078  0.0302
 5530TIP3    H116596   4.972   1.746   3.936  1.6907 -0.7343  0.0703
 5530TIP3    H216597   4.935   1.631   4.027  1.9371 -1.4384 -0.7061
 5531TIP3   OH216598   4.994   4.749   3.495  0.0968 -0.1366 -0.7911
 5531TIP3    H116599   4.999   4.843   3.479  0.8388 -0.2385 -1.2111
 5531TIP3    H216600   4.943   4.714   3.421  1.7842 -0.3423 -1.9184
 5532TIP3   OH216601   1.717   5.874   2.423  0.2762  0.0627 -0.1303
 5532TIP3    H116602   1.726   5.969   2.423  0.8073  0.1286 -3.6178
 5532TIP3    H216603   1.622   5.859   2.415  0.1775  0.2627  0.5860
 5533TIP3   OH216604   5.562   3.190   1.056 -0.0124 -0.4187 -0.2326
 5533TIP3    H116605   5.619   3.242   0.999 -1.2633 -0.0873 -1.2204
 5533TIP3    H216606   5.594   3.208   1.144  1.3593 -0.1874 -0.7414
 5534TIP3   OH216607   5.960   3.412   4.602  0.3409  0.5380  0.1846
 5534TIP3    H116608   6.021   3.438   4.533 -0.4774  0.6102 -0.5220
 5534TIP3    H216609   5.964   3.484   4.665  0.2124  1.0366 -0.3676
 5535TIP3   OH216610   5.498   3.741   0.021 -0.0160  0.5874  0.0362
 5535TIP3    H116611   5.441   3.723   0.096 -0.2421 -1.4957 -0.5700
 5535TIP3    H216612   5.441   3.785  -0.041 -0.2368  0.9524  0.4902
 5536TIP3   OH216613   0.755   1.545   2.988 -0.9005  0.3441 -0.3845
 5536TIP3    H116614   0.784   1.514   3.073 -1.7528  1.0761  0.1955
 5536TIP3    H216615   0.708   1.470   2.950  2.2033 -1.1103 -1.6556
 5537TIP3   OH216616   4.962   4.399   4.817  0.4076  0.1291  0.0913
 5537TIP3    H116617   4.962   4.491   4.840 -2.0014  0.6374 -1.4568
 5537TIP3    H216618   5.054   4.376   4.805  1.1114  2.0391  1.4529
 5538TIP3   OH216619   3.479   3.741   4.845  0.6199 -0.2395  0.1945
 5538TIP3    H116620   3.442   3.800   4.780  0.2706 -1.7881 -1.0930
 5538TIP3    H216621   3.573   3.742   4.828  0.5674 -0.3675 -0.1163
 5539TIP3   OH216622   1.529   5.164   4.608 -0.3231  0.5965 -0.2951
 5539TIP3    H116623   1.579   5.246   4.601  0.0510  0.6549  2.2225
 5539TIP3    H216624   1.595   5.095   4.602  0.1837  0.6704  2.8656
 5540TIP3   OH216625   1.507   0.185   2.425 -0.4142 -0.7863  0.5118
 5540TIP3    H116626   1.580   0.191   2.487 -0.7686  1.1023  0.8164
 5540TIP3    H216627   1.491   0.275   2.398 -0.5807 -1.5137 -2.0267
 5541TIP3   OH216628   0.147   3.633   4.823 -0.4109 -0.2430  0.3671
 5541TIP3    H116629   0.205   3.561   4.849 -0.1449 -0.6438 -1.2239
 5541TIP3    H216630   0.205   3.693   4.775 -0.5743  1.1892  1.8576
 5542TIP3   OH216631   3.382   2.569   1.076  0.1194  0.0594 -0.3723
 5542TIP3    H116632   3.415   2.606   0.994  0.8915  0.2760  0.0208
 5542TIP3    H216633   3.343   2.485   1.050  2.8624 -1.2754 -0.6641
 5543TIP3   OH216634   5.063   2.478   1.105 -0.1826 -0.1674 -0.8714
 5543TIP3    H116635   5.037   2.494   1.196  0.7220  2.1156 -0.9575
 5543TIP3    H216636   5.095   2.388   1.105 -0.2569 -0.2327  1.0557
 5544TIP3   OH216637   3.059   2.355   1.640  0.1713  0.2461  0.2012
 5544TIP3    H116638   3.052   2.420   1.570 -1.5475  1.3220  1.2964
 5544TIP3    H216639   3.010   2.280   1.608 -0.0230  0.4726 -0.0400
 5545TIP3   OH216640   3.107   1.879   2.768  0.2190 -0.9155  0.0566
 5545TIP3    H116641   3.117   1.836   2.853 -0.0672 -2.2653 -0.5639
 5545TIP3    H216642   3.175   1.839   2.714  0.4294 -0.0284 -0.3457
 5546TIP3   OH216643   5.687   3.043   0.217  0.5387 -0.5074 -0.1590
 5546TIP3    H116644   5.622   3.091   0.268  0.4990  0.7433 -1.3389
 5546TIP3    H216645   5.745   3.005   0.283 -0.7042 -0.6982  0.8820
 5547TIP3   OH216646   2.330   4.128   2.914  0.1849  0.6536  0.1362
 5547TIP3    H116647   2.273   4.205   2.915  0.3427  0.7596  1.0912
 5547TIP3    H216648   2.367   4.128   2.825 -1.6174  0.3347 -0.6660
 5548TIP3   OH216649   4.253   0.620   1.276 -0.5860 -0.7606  0.0480
 5548TIP3    H116650   4.315   0.550   1.295  0.4758 -0.1292 -1.0177
 5548TIP3    H216651   4.260   0.634   1.182 -1.9542 -0.2914 -0.0090
 5549TIP3   OH216652   6.114   0.513   2.389 -0.3022 -0.0294 -0.9254
 5549TIP3    H116653   6.206   0.520   2.413 -0.5976  0.1344  0.2354
 5549TIP3    H216654   6.089   0.424   2.414 -0.6359  0.1659 -0.5470
 5550TIP3   OH216655   6.258   3.665   1.638  0.0594 -0.2535  0.4649
 5550TIP3    H116656   6.283   3.638   1.550 -2.2538 -0.0805 -0.2930
 5550TIP3    H216657   6.264   3.585   1.690  1.9062 -0.2570  0.3066
 5551TIP3   OH216658   4.934   1.622   1.257 -0.5566 -0.7968  0.2208
 5551TIP3    H116659   4.885   1.701   1.283  0.3161 -0.2535  0.2427
 5551TIP3    H216660   4.963   1.640   1.168  0.6584 -0.5805  0.6461
 5552TIP3   OH216661   3.001   5.220   4.440  0.5842  0.0493 -0.1975
 5552TIP3    H116662   3.077   5.277   4.453  0.2780  0.2951  0.5592
 5552TIP3    H216663   2.931   5.261   4.492  0.0443 -0.3982 -0.5541
 5553TIP3   OH216664   4.527   1.325   3.710  0.1057 -0.2459  0.5731
 5553TIP3    H116665   4.555   1.375   3.787 -0.0479  1.0338 -0.1704
 5553TIP3    H216666   4.581   1.247   3.711 -0.0111 -0.3371  2.0701
 5554TIP3   OH216667   0.658   5.487   0.342 -0.3254  0.6113  0.2667
 5554TIP3    H116668   0.645   5.528   0.428  0.9251 -0.8353  1.1991
 5554TIP3    H216669   0.588   5.422   0.335  0.4596 -0.3500  0.9317
 5555TIP3   OH216670   0.803   0.423   4.719 -0.3887 -0.2415  0.2389
 5555TIP3    H116671   0.767   0.431   4.807 -1.1214 -0.4283 -0.0363
 5555TIP3    H216672   0.735   0.377   4.669  0.9172 -2.2088  0.1273
 5556TIP3   OH216673   5.917   5.578   2.629  0.5159 -0.5794 -0.2634
 5556TIP3    H116674   5.918   5.505   2.568  0.3558 -0.3607 -0.5296
 5556TIP3    H216675   5.969   5.548   2.704  0.3634 -1.0008 -0.3277
 5557TIP3   OH216676   5.676   0.272   0.901 -0.0208 -0.2180 -0.9369
 5557TIP3    H116677   5.748   0.330   0.876  0.2876 -0.3598 -0.3898
 5557TIP3    H216678   5.693   0.191   0.853  1.7361 -1.2417  1.2319
 5558TIP3   OH216679   1.468   1.025   4.818 -0.0313  0.7701 -0.5735
 5558TIP3    H116680   1.436   1.023   4.728 -1.4890 -1.4397 -0.0799
 5558TIP3    H216681   1.429   1.104   4.855 -0.5194  0.9693 -1.4755
 5559TIP3   OH216682   6.319   0.216   1.237 -0.0647 -0.6063 -0.5435
 5559TIP3    H116683   6.299   0.145   1.176 -1.1611  1.1263 -2.3596
 5559TIP3    H216684   6.291   0.183   1.322 -2.1662 -1.7610 -1.5826
 5560TIP3   OH216685   4.848   2.984   1.418 -0.6190  0.6996  0.8776
 5560TIP3    H116686   4.909   3.013   1.485 -1.0205 -0.3765  1.7351
 5560TIP3    H216687   4.851   3.053   1.351  1.9428  0.3956  0.5969
 5561TIP3   OH216688   4.571   4.482   3.450  0.2189  0.1696  0.1466
 5561TIP3    H116689   4.593   4.565   3.408  0.3654 -0.5539 -1.2471
 5561TIP3    H216690   4.647   4.427   3.434 -0.0654 -0.3810  0.6794
 5562TIP3   OH216691   0.730   4.241   4.859  0.5954  0.1372  0.2751
 5562TIP3    H116692   0.635   4.224   4.861  0.5334  0.5150  0.5408
 5562TIP3    H216693   0.766   4.186   4.928  0.5683  0.0055  0.1849
 5563TIP3   OH216694   3.787   3.327   1.446 -0.3282 -0.5788  0.0379
 5563TIP3    H116695   3.864   3.294   1.492 -0.7525  0.2888  1.4543
 5563TIP3    H216696   3.730   3.251   1.436  0.2333 -0.9989 -0.0181
 5564TIP3   OH216697   0.778   5.646   2.684  0.0450  0.0127  0.0856
 5564TIP3    H116698   0.846   5.658   2.617  2.2770 -1.9516  1.8339
 5564TIP3    H216699   0.742   5.734   2.697  0.5481  0.7043 -2.5892
 5565TIP3   OH216700   3.032   4.676   3.893  0.5692 -0.1259  0.1481
 5565TIP3    H116701   2.978   4.745   3.931 -1.3764 -0.6505 -1.5241
 5565TIP3    H216702   3.048   4.705   3.803 -0.3564 -1.8466 -0.6079
 5566TIP3   OH216703   1.091   1.230   2.797  0.1836  0.4380  0.6017
 5566TIP3    H116704   1.109   1.187   2.714  0.6141 -0.4902  1.1545
 5566TIP3    H216705   1.067   1.158   2.856 -0.4385  1.1146  1.1924
 5567TIP3   OH216706   2.146   3.388   2.604 -0.0324  0.8810  0.4892
 5567TIP3    H116707   2.077   3.449   2.629 -0.4617  0.0650  1.4180
 5567TIP3    H216708   2.165   3.340   2.685  0.8376  0.3339 -0.0214
 5568TIP3   OH216709   2.217   2.975   4.896 -0.4769  0.2967 -0.3529
 5568TIP3    H116710   2.194   2.936   4.980 -0.1827  0.9409  0.0354
 5568TIP3    H216711   2.271   3.051   4.919  0.5554 -0.1589 -1.1538
 5569TIP3   OH216712   0.825   5.700   1.843  0.5525  0.3612 -0.6774
 5569TIP3    H116713   0.877   5.709   1.922 -1.3371 -2.4242  1.0182
 5569TIP3    H216714   0.821   5.790   1.808  2.1831  1.5400  1.8210
 5570TIP3   OH216715   1.155   1.285   4.392 -0.0306 -0.4149  0.4327
 5570TIP3    H116716   1.158   1.362   4.449 -0.9244 -0.4006  0.4690
 5570TIP3    H216717   1.078   1.236   4.421 -1.3856  0.3250 -1.6832
 5571TIP3   OH216718   5.201   2.396   2.355 -0.1390 -0.1875 -0.2296
 5571TIP3    H116719   5.172   2.383   2.264 -1.3272  0.6232 -0.0030
 5571TIP3    H216720   5.292   2.424   2.347 -0.6168  1.2049 -1.2959
 5572TIP3   OH216721   1.063   0.066   5.016  0.1499  0.4590 -0.3925
 5572TIP3    H116722   0.976   0.078   4.979  0.3302  0.6406 -0.7683
 5572TIP3    H216723   1.057   0.102   5.104  0.0924  1.3502 -0.7467
 5573TIP3   OH216724   4.230   3.872   1.933  0.1927 -0.2385  1.0668
 5573TIP3    H116725   4.224   3.964   1.908 -1.2414 -0.0338  2.0388
 5573TIP3    H216726   4.157   3.859   1.993 -1.6746 -2.7857 -1.4579
 5574TIP3   OH216727   1.901   5.620   3.146 -0.0449  0.4509  0.2941
 5574TIP3    H116728   1.868   5.560   3.080 -1.9616  0.4750  1.1595
 5574TIP3    H216729   1.906   5.567   3.226  2.0597  0.4640  0.2287
 5575TIP3   OH216730   5.776   5.606   4.305  0.1590 -0.2263  0.4626
 5575TIP3    H116731   5.696   5.636   4.349 -1.4958 -2.7784 -0.5704
 5575TIP3    H216732   5.846   5.658   4.345 -2.0096  2.5197  1.0727
 5576TIP3   OH216733   2.227   0.575   3.161  0.2475  0.2379  0.2837
 5576TIP3    H116734   2.244   0.523   3.083  0.8622  1.7971 -0.6747
 5576TIP3    H216735   2.246   0.516   3.234  1.6474 -0.6552 -0.7530
 5577TIP3   OH216736   2.940   5.245   2.481 -0.4839  0.4607  0.1885
 5577TIP3    H116737   2.945   5.159   2.524 -0.5504  1.3041  1.9527
 5577TIP3    H216738   2.858   5.242   2.432 -0.4663 -0.4861  0.1855
 5578TIP3   OH216739   5.391   1.892   4.212 -0.1863  0.5964 -0.2786
 5578TIP3    H116740   5.406   1.969   4.157 -0.7548 -0.6764 -2.3746
 5578TIP3    H216741   5.449   1.825   4.175 -0.3718 -0.2303  0.8902
 5579TIP3   OH216742   2.044   3.290   4.680  0.1515 -0.5403  0.0199
 5579TIP3    H116743   2.113   3.333   4.630 -0.6084  0.4332 -0.2321
 5579TIP3    H216744   2.045   3.199   4.651  1.2819 -0.5284 -0.0098
 5580TIP3   OH216745   2.200   3.491   0.545 -0.0873  0.5449  0.1152
 5580TIP3    H116746   2.193   3.487   0.450 -0.7927  0.8742  0.1423
 5580TIP3    H216747   2.155   3.573   0.568  1.0447  1.0345  0.6456
 5581TIP3   OH216748   3.143   0.914   2.429  0.1146  0.3182 -0.3507
 5581TIP3    H116749   3.179   0.935   2.515  0.2625  1.4349 -0.6763
 5581TIP3    H216750   3.067   0.859   2.448  0.4767  0.0884  0.4621
 5582TIP3   OH216751   1.992   0.609   1.364 -0.2461  0.1239 -0.1409
 5582TIP3    H116752   1.946   0.668   1.305 -0.7946  0.2274  0.3787
 5582TIP3    H216753   2.085   0.630   1.352 -0.3321 -0.0241 -1.1285
 5583TIP3   OH216754   4.046   0.796   1.731 -0.5931  0.3618 -0.2486
 5583TIP3    H116755   3.960   0.755   1.737 -0.7491  0.7881  0.5308
 5583TIP3    H216756   4.070   0.788   1.638 -1.1533 -0.3836 -0.3385
 5584TIP3   OH216757   1.418   2.892   2.721 -0.2076 -0.0728  0.0662
 5584TIP3    H116758   1.412   2.797   2.714  0.0442 -0.0172 -0.9560
 5584TIP3    H216759   1.361   2.925   2.652 -1.6490  0.5503  1.4762
 5585TIP3   OH216760   2.070   3.367   1.858 -0.1671  0.6410 -0.8421
 5585TIP3    H116761   2.110   3.410   1.933 -0.7380  0.9030 -0.6892
 5585TIP3    H216762   2.014   3.299   1.896 -0.5845  0.8810 -1.0202
 5586TIP3   OH216763   2.568   1.901   2.875  0.7415  1.4508 -0.3758
 5586TIP3    H116764   2.654   1.887   2.915  0.8588  2.8553 -0.0963
 5586TIP3    H216765   2.533   1.813   2.862  1.3793  0.9106  1.3322
 5587TIP3   OH216766   5.903   1.834   4.733 -0.6064 -0.1370 -0.1966
 5587TIP3    H116767   5.864   1.822   4.646 -0.2240  0.2863 -0.4307
 5587TIP3    H216768   5.945   1.751   4.752  0.3373  0.1454 -0.9460
 5588TIP3   OH216769   5.978   1.133   2.195 -0.0815 -0.0909  0.5756
 5588TIP3    H116770   6.066   1.150   2.160  0.2411 -1.0341  0.9021
 5588TIP3    H216771   5.933   1.088   2.124 -0.4589  0.7690  0.2503
 5589TIP3   OH216772   2.600   1.310   4.694 -0.1632  0.4966  0.0934
 5589TIP3    H116773   2.625   1.367   4.766 -1.4860  0.7889  0.3417
 5589TIP3    H216774   2.525   1.353   4.654 -0.9577 -0.8842  0.0598
 5590TIP3   OH216775   2.715   2.303   1.047  0.3387  0.0357  0.0555
 5590TIP3    H116776   2.779   2.346   0.990 -1.4764  0.3418 -1.8987
 5590TIP3    H216777   2.723   2.210   1.028 -1.0480  0.2192 -1.7006
 5591TIP3   OH216778   0.154   4.820   1.685 -0.5138 -0.6448 -0.0255
 5591TIP3    H116779   0.133   4.749   1.624 -0.4366 -0.9290  0.2766
 5591TIP3    H216780   0.195   4.776   1.759 -0.2811 -0.2614  0.0744
 5592TIP3   OH216781   3.045   3.129   1.029 -0.5794 -0.0962 -0.1960
 5592TIP3    H116782   2.964   3.112   1.077 -0.2257 -1.5093 -0.0538
 5592TIP3    H216783   3.064   3.047   0.983  0.6098  0.3027 -0.4719
 5593TIP3   OH216784   6.255   3.167   2.328 -0.6298  0.0099 -0.2553
 5593TIP3    H116785   6.213   3.234   2.382 -0.0454  0.3415 -0.2023
 5593TIP3    H216786   6.185   3.136   2.270 -0.5608  1.8121 -1.3925
 5594TIP3   OH216787   1.896   4.519   1.183  0.0963  0.3407  0.4223
 5594TIP3    H116788   1.876   4.463   1.108 -0.7046 -0.2146  1.0342
 5594TIP3    H216789   1.982   4.488   1.213  0.1466  0.1683  0.1046
 5595TIP3   OH216790   2.053   4.117   4.693  0.4047  0.2176  0.5064
 5595TIP3    H116791   2.034   4.032   4.734  3.1342 -0.9854 -0.4647
 5595TIP3    H216792   2.126   4.152   4.744  0.3099  1.2512 -0.0453
 5596TIP3   OH216793   1.456   2.595   3.232  0.4560  0.0827 -0.4124
 5596TIP3    H116794   1.436   2.683   3.264 -1.0459  0.5242 -2.3761
 5596TIP3    H216795   1.481   2.546   3.310  0.7436  2.0818  0.8099
 5597TIP3   OH216796   3.531   4.431   2.194  0.0993  0.3112 -0.0260
 5597TIP3    H116797   3.576   4.515   2.200 -1.3553  1.0156  1.8673
 5597TIP3    H216798   3.453   4.449   2.142 -1.1803  0.6556  1.9051
 5598TIP3   OH216799   2.127   1.977   4.825  0.2501 -0.6569  0.4747
 5598TIP3    H116800   2.120   1.996   4.918 -0.8282  1.5730 -0.0135
 5598TIP3    H216801   2.120   2.062   4.781  1.8491 -1.4982 -1.6177
 5599TIP3   OH216802   4.408   5.545   4.026 -0.7805  0.0071  0.3464
 5599TIP3    H116803   4.454   5.614   3.979 -2.7246 -0.2083 -2.0614
 5599TIP3    H216804   4.389   5.583   4.112 -0.1933  1.7659 -0.2540
 5600TIP3   OH216805   4.728   1.490   2.759  0.4305  0.2395  0.0263
 5600TIP3    H116806   4.735   1.531   2.673  0.9941 -0.2754 -0.1812
 5600TIP3    H216807   4.797   1.423   2.760 -1.1788 -1.5065 -0.0938
 5601TIP3   OH216808   4.807   5.104   3.700  0.0827  0.0583 -0.5360
 5601TIP3    H116809   4.836   5.189   3.733  0.6839  0.2157 -1.4372
 5601TIP3    H216810   4.779   5.056   3.779 -0.3540  1.1122 -0.0318
 5602TIP3   OH216811   6.098   3.858   2.992  0.4628 -0.1201 -0.7036
 5602TIP3    H116812   6.060   3.773   3.012 -0.7627  0.7324  0.8521
 5602TIP3    H216813   6.041   3.894   2.924 -0.1429  0.1959 -0.0408
 5603TIP3   OH216814   5.422   3.807   2.806  0.3427 -0.4085  1.3348
 5603TIP3    H116815   5.373   3.762   2.875  2.0406 -2.5394  1.2610
 5603TIP3    H216816   5.458   3.736   2.752  0.0441  1.1640 -1.0835
 5604TIP3   OH216817   3.227   0.352   3.932  0.4693 -0.3482 -0.1893
 5604TIP3    H116818   3.169   0.276   3.939  0.0031 -0.1966 -1.8766
 5604TIP3    H216819   3.313   0.320   3.960 -0.1108 -0.9602  0.9648
 5605TIP3   OH216820   1.195   1.999   2.099  0.7472 -0.2100  0.0397
 5605TIP3    H116821   1.246   2.043   2.030  2.6646  1.7088  2.4551
 5605TIP3    H216822   1.249   1.925   2.125  1.7883  1.0354  1.6686
 5606TIP3   OH216823   4.599   1.534   3.869  0.7116  0.0448 -0.1435
 5606TIP3    H116824   4.519   1.586   3.878  0.0983 -0.8927  0.0168
 5606TIP3    H216825   4.670   1.598   3.870 -0.0062  0.8525  0.2450
 5607TIP3   OH216826   3.976   4.306   3.359  0.1062 -0.4075  0.3312
 5607TIP3    H116827   3.891   4.264   3.373 -0.5153  0.9372  0.8887
 5607TIP3    H216828   3.965   4.394   3.397  1.6136 -0.0577  0.0288
 5608TIP3   OH216829   3.017   2.852   2.297  0.0909 -0.1809 -0.0353
 5608TIP3    H116830   2.955   2.813   2.236 -0.8778 -0.1947  0.9257
 5608TIP3    H216831   3.099   2.858   2.248 -0.6479 -0.2191 -1.3065
 5609TIP3   OH216832   4.824   1.445   2.486 -0.1257  0.0354  0.0513
 5609TIP3    H116833   4.756   1.496   2.441 -0.7277 -0.3022  0.5725
 5609TIP3    H216834   4.906   1.475   2.446 -0.5102  1.0268 -0.0299
 5610TIP3   OH216835   4.950   2.495   0.291  0.2308  0.3295  0.0534
 5610TIP3    H116836   4.990   2.482   0.205  0.2492  1.1088 -0.0679
 5610TIP3    H216837   4.856   2.497   0.273  0.1664 -0.6699  0.2227
 5611TIP3   OH216838   3.481   3.211   2.442 -0.0868 -0.3290  0.1302
 5611TIP3    H116839   3.479   3.136   2.502 -1.1680  0.0601  0.6050
 5611TIP3    H216840   3.569   3.246   2.451 -0.2930 -0.1294  1.6994
 5612TIP3   OH216841   3.006   5.683   0.987 -0.3204  0.0650 -0.9309
 5612TIP3    H116842   3.050   5.628   0.923  0.8444 -1.3617  0.9739
 5612TIP3    H216843   3.065   5.757   1.000  0.3518 -0.5664 -0.2396
 5613TIP3   OH216844   1.686   2.886   2.179  0.6034 -0.4573 -0.6677
 5613TIP3    H116845   1.673   2.805   2.131 -2.9692 -1.2237  1.2561
 5613TIP3    H216846   1.763   2.869   2.234  0.1699 -2.4381 -0.5987
 5614TIP3   OH216847   0.766   1.865   4.548  1.0184  0.1870  0.4023
 5614TIP3    H116848   0.775   1.933   4.616 -1.3928  1.3226 -0.2952
 5614TIP3    H216849   0.741   1.786   4.597  0.2241  0.7549  0.9468
 5615TIP3   OH216850   1.750   3.026   1.599 -0.1960  0.3426  0.3818
 5615TIP3    H116851   1.756   3.037   1.694 -0.7524  2.3920  0.2340
 5615TIP3    H216852   1.835   2.989   1.573  0.5287  1.1237  1.5362
 5616TIP3   OH216853   5.869   5.106   3.413 -0.1219  0.3151 -0.0501
 5616TIP3    H116854   5.940   5.168   3.393  0.1535 -0.5640 -2.0715
 5616TIP3    H216855   5.819   5.101   3.332 -0.1042 -2.1062  0.0196
 5617TIP3   OH216856   5.442   0.575   1.952  0.2944 -0.7097  0.2976
 5617TIP3    H116857   5.356   0.548   1.920 -0.2942  0.6604  0.6614
 5617TIP3    H216858   5.468   0.646   1.894 -0.3212  1.0909  2.0816
 5618TIP3   OH216859   2.293   5.756   1.140 -0.1494 -0.0518 -0.1796
 5618TIP3    H116860   2.373   5.704   1.141  0.4547  0.8636  0.6770
 5618TIP3    H216861   2.303   5.814   1.065 -0.2529 -0.2792 -0.3737
 5619TIP3   OH216862   3.323   2.064   4.781 -0.2732 -0.1569 -0.7728
 5619TIP3    H116863   3.245   2.103   4.819  0.5012 -0.9781  1.8478
 5619TIP3    H216864   3.363   2.136   4.731 -0.9547  1.2571  0.6302
 5620TIP3   OH216865   3.579   2.332   4.850 -0.2062  0.2851 -0.0196
 5620TIP3    H116866   3.563   2.324   4.756 -1.6726 -0.8538  0.2901
 5620TIP3    H216867   3.492   2.344   4.888 -0.1335 -3.0944  1.5167
 5621TIP3   OH216868   2.852   5.839   1.225  0.2075  0.4760 -0.3197
 5621TIP3    H116869   2.878   5.748   1.239  0.8512  0.9641  2.0330
 5621TIP3    H216870   2.900   5.888   1.291 -2.1833  2.1906  0.2841
 5622TIP3   OH216871   6.124   3.791   0.191  0.3800 -0.5164 -0.4290
 5622TIP3    H116872   6.039   3.833   0.208  0.2634  0.2414 -2.6283
 5622TIP3    H216873   6.106   3.727   0.122  1.5485 -0.5449 -0.7208
 5623TIP3   OH216874   3.213   5.627   2.005  0.0836  0.1516  0.3959
 5623TIP3    H116875   3.283   5.658   1.948 -0.4890 -0.1291 -0.4762
 5623TIP3    H216876   3.156   5.703   2.017 -0.2837 -0.0360 -0.1549
 5624TIP3   OH216877   1.076   3.622   0.467  0.0083 -0.1205  0.6509
 5624TIP3    H116878   1.071   3.597   0.559  0.1356  0.2020  0.7481
 5624TIP3    H216879   1.107   3.543   0.422  0.0024 -0.2604  0.8918
 5625TIP3   OH216880   5.421   0.073   3.052 -0.2234 -0.3489 -0.6186
 5625TIP3    H116881   5.429   0.046   2.961 -0.6232 -1.2930 -0.3856
 5625TIP3    H216882   5.494   0.029   3.096  0.6409  0.9978 -0.6685
 5626TIP3   OH216883   4.298   2.374   1.330  0.4470 -0.3175 -0.1005
 5626TIP3    H116884   4.314   2.304   1.267  0.9151 -0.5549  0.2758
 5626TIP3    H216885   4.213   2.410   1.305  0.5990 -0.4392 -0.8368
 5627TIP3   OH216886   0.040   4.093   3.084  0.7290  0.1348  0.2900
 5627TIP3    H116887   0.030   4.180   3.121  0.5541  0.1523  0.2017
 5627TIP3    H216888   0.005   4.034   3.151  2.4039 -0.0066  1.0864
 5628TIP3   OH216889   0.832   4.629   2.951  0.6849 -0.5829 -0.1997
 5628TIP3    H116890   0.801   4.544   2.919  1.5648 -0.2433 -2.1306
 5628TIP3    H216891   0.885   4.608   3.027 -1.5540 -1.4544  1.2105
 5629TIP3   OH216892   2.850   2.485   0.005 -0.4192  0.1417  0.1122
 5629TIP3    H116893   2.942   2.468  -0.012 -0.8945 -1.1850 -1.2643
 5629TIP3    H216894   2.816   2.403   0.041 -0.6420  1.2487  2.6716
 5630TIP3   OH216895   3.802   3.985   0.076  0.4903  0.9605 -0.4307
 5630TIP3    H116896   3.898   3.982   0.083  0.4280 -0.6336  0.2041
 5630TIP3    H216897   3.774   3.896   0.096 -1.0856  1.1821 -1.4768
 5631TIP3   OH216898   1.856   5.465   2.891 -0.2815  0.2960 -0.0356
 5631TIP3    H116899   1.859   5.391   2.951  1.0923 -0.4781 -0.9915
 5631TIP3    H216900   1.774   5.455   2.844  0.6535 -1.7057 -1.3881
 5632TIP3   OH216901   4.938   5.657   0.679  0.6426  0.0815 -0.0994
 5632TIP3    H116902   4.878   5.582   0.670  0.1182  0.3599  0.8972
 5632TIP3    H216903   5.024   5.622   0.658  0.8681 -1.5449  2.9440
 5633TIP3   OH216904   1.435   4.534   2.424  0.2340  0.3339  0.3875
 5633TIP3    H116905   1.466   4.562   2.338 -2.6099  0.8338 -0.5744
 5633TIP3    H216906   1.370   4.466   2.405 -0.9271  0.9089  2.0841
 5634TIP3   OH216907   6.107   4.988   0.346 -0.1666  0.5713  0.0516
 5634TIP3    H116908   6.158   5.067   0.328 -0.0459  0.5082  0.1106
 5634TIP3    H216909   6.112   4.977   0.441 -0.6078  0.7754  0.0981
 5635TIP3   OH216910   5.046   0.492   1.099  0.2399  0.0515 -0.3552
 5635TIP3    H116911   5.032   0.468   1.191  0.9690  1.4713  0.1647
 5635TIP3    H216912   4.988   0.567   1.086 -0.3025 -0.5131 -1.2429
 5636TIP3   OH216913   2.324   2.372   1.224 -0.5547 -0.5846 -0.3760
 5636TIP3    H116914   2.244   2.322   1.206 -1.3823  1.0739 -1.6493
 5636TIP3    H216915   2.293   2.449   1.271  0.0088  0.9052 -2.3424
 5637TIP3   OH216916   4.437   5.530   0.794  0.4050 -0.2138  0.0541
 5637TIP3    H116917   4.445   5.624   0.811  0.6325 -0.4218  1.2014
 5637TIP3    H216918   4.342   5.514   0.791  0.3664  0.1422 -0.7380
 5638TIP3   OH216919   6.305   3.559   3.587 -0.1096  0.6880 -0.2541
 5638TIP3    H116920   6.396   3.588   3.594  0.6186 -1.3654 -0.2171
 5638TIP3    H216921   6.254   3.639   3.577  1.8192  1.8323 -1.4798
 5639TIP3   OH216922   3.473   0.901   0.355 -0.0475  0.2466  0.3366
 5639TIP3    H116923   3.455   0.902   0.261  0.6810 -0.4914  0.1773
 5639TIP3    H216924   3.501   0.990   0.375 -0.3943  0.4589 -0.1017
 5640TIP3   OH216925   4.830   3.889   5.051  0.2209  0.1954 -0.6396
 5640TIP3    H116926   4.912   3.938   5.060 -0.6917  1.4047  2.9684
 5640TIP3    H216927   4.809   3.861   5.140 -2.2206 -1.9724 -1.7637
 5641TIP3   OH216928   0.389   1.436   4.853  0.3257  0.0568  0.5637
 5641TIP3    H116929   0.407   1.525   4.883  1.3889 -0.2395  0.8159
 5641TIP3    H216930   0.296   1.423   4.872  0.7185  0.2096  2.8946
 5642TIP3   OH216931   0.080   1.487   2.477 -0.0954 -0.1611 -0.1575
 5642TIP3    H116932   0.024   1.543   2.423  1.3184  0.7252 -0.7819
 5642TIP3    H216933   0.020   1.443   2.537 -1.6414 -0.5379 -1.8724
 5643TIP3   OH216934   3.229   2.537   2.124  0.0437 -0.2565  0.0283
 5643TIP3    H116935   3.219   2.504   2.213  0.2513 -1.5507 -0.4045
 5643TIP3    H216936   3.216   2.632   2.132 -0.5586 -0.4264  1.3241
 5644TIP3   OH216937   4.340   4.023   0.228  0.5541  0.2527 -0.1065
 5644TIP3    H116938   4.357   4.110   0.191  1.4932  0.2643  0.3279
 5644TIP3    H216939   4.423   3.997   0.267 -0.5322  0.5088  2.5792
 5645TIP3   OH216940   3.413   1.056   3.595 -0.6369  0.0831  0.2497
 5645TIP3    H116941   3.388   1.021   3.681  1.5062 -1.9002  0.1517
 5645TIP3    H216942   3.376   0.994   3.532  0.3090 -0.1514 -0.0950
 5646TIP3   OH216943   0.586   1.701   0.770  0.7815  0.1178  0.5062
 5646TIP3    H116944   0.671   1.658   0.782  1.8754  1.7590 -0.8907
 5646TIP3    H216945   0.579   1.712   0.675 -0.1952  1.5201  0.7196
 5647TIP3   OH216946   1.230   1.934   5.033  0.3447  0.8268  0.0640
 5647TIP3    H116947   1.268   1.916   4.947 -0.6425  0.5015 -0.3240
 5647TIP3    H216948   1.174   2.010   5.019 -0.5011  0.2444  0.1990
 5648TIP3   OH216949   3.910   2.444   3.571  0.2346 -0.4972 -0.3403
 5648TIP3    H116950   3.914   2.360   3.618 -1.2750  0.2382  1.2325
 5648TIP3    H216951   3.818   2.470   3.577  0.8968  1.9741  0.5548
 5649TIP3   OH216952   5.346   2.320   1.795  0.5740 -0.0726  0.4395
 5649TIP3    H116953   5.367   2.404   1.835  1.6858 -0.8069  1.4692
 5649TIP3    H216954   5.251   2.311   1.807  0.6602  0.4015  1.6081
 5650TIP3   OH216955   3.314   2.904   2.425  0.3261 -0.1412  0.2020
 5650TIP3    H116956   3.322   2.969   2.355 -1.7947  0.0442  0.0825
 5650TIP3    H216957   3.388   2.923   2.484 -0.8219  3.1407  0.7755
 5651TIP3   OH216958   0.971   5.373   1.648 -0.0343  0.6360 -0.1599
 5651TIP3    H116959   1.039   5.406   1.707 -0.2298  0.7592 -0.0012
 5651TIP3    H216960   0.889   5.404   1.687 -0.0779  2.7123 -1.7179
 5652TIP3   OH216961   1.421   4.406   3.517 -0.2773  0.6483  0.2202
 5652TIP3    H116962   1.422   4.477   3.453 -2.0584 -0.5262 -1.2210
 5652TIP3    H216963   1.372   4.441   3.592  0.6837  1.5909  0.4347
 5653TIP3   OH216964   0.597   0.527   2.856 -0.1157  0.0987  0.4470
 5653TIP3    H116965   0.622   0.497   2.944  2.1701 -3.2731 -1.1467
 5653TIP3    H216966   0.680   0.549   2.814 -1.0382  0.3357 -1.3204
 5654TIP3   OH216967   1.698   5.380   4.682  0.3521 -0.4546 -0.4000
 5654TIP3    H116968   1.773   5.403   4.737 -1.0093 -0.1777  1.4493
 5654TIP3    H216969   1.638   5.335   4.741 -2.3216  2.0838 -0.9350
 5655TIP3   OH216970   2.867   1.517   3.601 -0.1572 -0.6534 -0.2391
 5655TIP3    H116971   2.776   1.505   3.629  0.1368 -1.1528  0.5307
 5655TIP3    H216972   2.909   1.434   3.622  0.5960 -0.2438 -0.1073
 5656TIP3   OH216973   2.782   1.844   4.639 -0.2412  1.0026 -0.1616
 5656TIP3    H116974   2.835   1.902   4.694  0.3621  1.4674 -1.2212
 5656TIP3    H216975   2.753   1.899   4.567 -0.3529  0.1927 -0.7382
 5657TIP3   OH216976   2.177   1.049   4.498 -0.2691 -0.3879 -0.1293
 5657TIP3    H116977   2.145   1.128   4.542  0.5845 -0.7321  1.1548
 5657TIP3    H216978   2.248   1.081   4.442 -0.9926 -0.0304 -0.8712
 5658TIP3   OH216979   1.346   2.607   4.049  0.2406  0.3539  0.2038
 5658TIP3    H116980   1.269   2.585   3.997  0.5716 -0.7713  0.1544
 5658TIP3    H216981   1.412   2.633   3.985  0.2056  0.3357  0.1608
 5659TIP3   OH216982   1.938   5.143   0.565  0.1885 -0.4099  0.1306
 5659TIP3    H116983   1.855   5.181   0.592  0.6277  0.6152  0.0816
 5659TIP3    H216984   1.992   5.218   0.540  1.1846 -1.0437  0.3189
 5660TIP3   OH216985   4.963   0.894   0.591 -0.2834 -0.0551  0.3428
 5660TIP3    H116986   4.981   0.974   0.641  0.6973  0.0162 -0.0904
 5660TIP3    H216987   5.049   0.868   0.557 -0.9543  0.0251 -1.4905
 5661TIP3   OH216988   1.729   0.174   1.085  0.2338 -0.3622  0.4465
 5661TIP3    H116989   1.750   0.213   1.169 -0.5097 -0.2128  0.5688
 5661TIP3    H216990   1.771   0.087   1.087  0.6936 -0.1346  0.7347
 5662TIP3   OH216991   4.271   1.795   3.901 -0.0773  0.0507  0.3491
 5662TIP3    H116992   4.232   1.839   3.977 -1.4760  0.3392 -0.5015
 5662TIP3    H216993   4.324   1.725   3.939 -1.0128 -0.0175  1.6062
 5663TIP3   OH216994   3.778   2.183   0.357 -0.3715  0.5500  0.0645
 5663TIP3    H116995   3.800   2.228   0.439 -0.7329  2.5581 -0.8762
 5663TIP3    H216996   3.858   2.136   0.334 -0.0499  0.4857  1.2279
 5664TIP3   OH216997   3.180   3.857   1.976  0.6985  0.0140 -0.0237
 5664TIP3    H116998   3.098   3.824   1.939  0.3288  0.5859  0.2599
 5664TIP3    H216999   3.231   3.779   1.996  0.1876 -0.3525 -0.1266
 5665TIP3   OH217000   4.981   2.325   5.045  0.4457 -0.6230  0.3908
 5665TIP3    H117001   4.899   2.373   5.035  2.0047  2.1294 -0.3466
 5665TIP3    H217002   5.014   2.352   5.131  0.8686 -1.2665  0.4420
 5666TIP3   OH217003   1.776   1.439   1.957  0.0681  0.4534  0.2666
 5666TIP3    H117004   1.732   1.413   2.038 -0.3965  1.2481  0.2701
 5666TIP3    H217005   1.812   1.526   1.976  2.6004 -0.5695  0.6488
 5667TIP3   OH217006   0.554   1.929   0.444  0.3923  0.4353  0.3168
 5667TIP3    H117007   0.551   2.020   0.471 -0.2472  1.2432 -2.2324
 5667TIP3    H217008   0.582   1.931   0.352  1.4888 -2.0203  0.5002
 5668TIP3   OH217009   4.386   3.126   4.612 -0.7530  0.5255 -0.0022
 5668TIP3    H117010   4.319   3.179   4.655  2.0452  3.7063  0.8896
 5668TIP3    H217011   4.390   3.160   4.523  0.3191  1.0718  0.2441
 5669TIP3   OH217012   5.349   5.332   4.283  0.0757  0.4225 -0.2810
 5669TIP3    H117013   5.257   5.307   4.294 -0.0667  1.2393  0.5257
 5669TIP3    H217014   5.390   5.255   4.244 -0.7831 -0.2568  0.1113
 5670TIP3   OH217015   1.608   2.324   4.647 -0.0625  0.5511 -0.4355
 5670TIP3    H117016   1.539   2.258   4.651  0.6514 -0.2808 -1.3675
 5670TIP3    H217017   1.562   2.405   4.624 -0.7451  0.0115 -1.0268
 5671TIP3   OH217018   6.202   3.290   3.660 -1.0910  0.1146  0.2079
 5671TIP3    H117019   6.186   3.378   3.627  0.0975 -0.3173 -1.6923
 5671TIP3    H217020   6.255   3.303   3.739 -1.9972  1.1094  0.6719
 5672TIP3   OH217021   3.953   4.164   0.685 -0.2539  0.4129 -0.4550
 5672TIP3    H117022   3.975   4.238   0.742  0.1511  0.0218 -0.0981
 5672TIP3    H217023   3.985   4.087   0.732 -1.1008 -0.0433 -0.6013
 5673TIP3   OH217024   5.116   3.255   4.927 -0.1119 -0.1763 -0.0512
 5673TIP3    H117025   5.156   3.323   4.981  1.2209 -2.0823  1.4831
 5673TIP3    H217026   5.161   3.260   4.843 -0.2519  0.9952 -0.0725
 5674TIP3   OH217027   0.316   4.898   4.969 -0.0269 -0.5347 -0.2894
 5674TIP3    H117028   0.330   4.937   5.055  0.4296  0.9332 -0.9926
 5674TIP3    H217029   0.227   4.865   4.972 -0.9919  1.8463 -0.0615
 5675TIP3   OH217030   4.749   4.310   2.340  0.2469 -0.8350 -0.2930
 5675TIP3    H117031   4.840   4.282   2.333  0.3407 -0.8682  0.8541
 5675TIP3    H217032   4.714   4.261   2.414 -0.0619  0.7714  0.6775
 5676TIP3   OH217033   1.958   2.232   2.658 -0.0867  0.1908  0.2671
 5676TIP3    H117034   1.893   2.218   2.727 -0.0114 -0.4268  0.2180
 5676TIP3    H217035   2.040   2.251   2.704  0.2888 -1.6089  0.3928
 5677TIP3   OH217036   3.670   5.645   3.724 -0.8041 -0.2137  0.5105
 5677TIP3    H117037   3.621   5.563   3.731 -0.0978 -0.5505  1.6613
 5677TIP3    H217038   3.713   5.656   3.809  0.6620  0.3653 -0.2646
 5678TIP3   OH217039   6.249   2.375   2.731 -0.8116  0.2059 -0.4110
 5678TIP3    H117040   6.340   2.403   2.740 -1.0483  1.0084 -0.4739
 5678TIP3    H217041   6.222   2.351   2.819 -0.5954  0.1318 -0.3635
 5679TIP3   OH217042   0.278   5.877   1.130  1.3622 -0.3791 -0.4191
 5679TIP3    H117043   0.306   5.916   1.047 -0.0494 -0.2279 -0.8450
 5679TIP3    H217044   0.269   5.951   1.189 -0.7828 -0.0658 -1.0732
 5680TIP3   OH217045   5.814   0.382   1.380  0.1380  0.0564  0.6980
 5680TIP3    H117046   5.834   0.365   1.288  0.3662  0.1116  0.7382
 5680TIP3    H217047   5.887   0.346   1.429  0.8062  1.4310  0.7670
 5681TIP3   OH217048   4.846   0.595   0.626  0.0259  0.3289  0.5048
 5681TIP3    H117049   4.791   0.610   0.702 -1.6949 -0.3975 -0.5439
 5681TIP3    H217050   4.829   0.671   0.569 -0.1029 -0.0329  0.0595
 5682TIP3   OH217051   5.063   1.155   1.773 -0.3323  0.0872  0.2435
 5682TIP3    H117052   5.120   1.231   1.791  0.9997 -0.5140 -1.2104
 5682TIP3    H217053   5.036   1.125   1.860 -1.0375  2.3087  0.8614
 5683TIP3   OH217054   4.925   5.595   1.253  0.1278 -0.0778  0.3371
 5683TIP3    H117055   4.981   5.644   1.193 -1.4381 -0.2494 -1.3489
 5683TIP3    H217056   4.937   5.503   1.227 -1.4787 -0.0588 -0.5852
 5684TIP3   OH217057   1.064   3.430   1.463 -0.1239  0.3712  0.0094
 5684TIP3    H117058   1.093   3.340   1.446 -1.4269  0.1583 -1.2475
 5684TIP3    H217059   1.076   3.476   1.379  1.2232  1.6027  0.8235
 5685TIP3   OH217060   4.587   2.904   3.774  0.0330  0.2117  0.6482
 5685TIP3    H117061   4.495   2.881   3.758  0.2562  0.1741 -0.7336
 5685TIP3    H217062   4.633   2.868   3.698  1.0636  1.0212  0.8801
 5686TIP3   OH217063   4.229   3.175   4.354  0.1417  0.0289 -0.4209
 5686TIP3    H117064   4.176   3.163   4.433  0.1302 -2.8578 -0.7826
 5686TIP3    H217065   4.166   3.188   4.284  0.1519  2.6427 -0.0736
 5687TIP3   OH217066   2.843   0.720   2.805  0.2436  0.0167  0.2669
 5687TIP3    H117067   2.791   0.639   2.802  0.8929 -0.5326  2.3476
 5687TIP3    H217068   2.789   0.781   2.855  0.2818  0.4876 -0.2574
 5688TIP3   OH217069   5.585   0.068   1.943 -0.2159 -0.4605  0.1760
 5688TIP3    H117070   5.515   0.092   1.883 -0.0686 -2.0224 -0.6972
 5688TIP3    H217071   5.656   0.038   1.886  0.3541 -0.9149  1.0940
 5689TIP3   OH217072   2.359   0.657   0.951  0.3153  0.1933  0.2817
 5689TIP3    H117073   2.427   0.672   1.017 -0.4033  0.6038  0.9508
 5689TIP3    H217074   2.280   0.694   0.990 -0.5888 -1.4463  0.0835
 5690TIP3   OH217075   3.300   4.053   3.760 -0.2962 -0.7978 -0.3356
 5690TIP3    H117076   3.278   4.020   3.673  1.3833 -1.7584 -0.4440
 5690TIP3    H217077   3.319   4.146   3.746 -2.4245 -0.3478 -0.5210
 5691TIP3   OH217078   6.108   5.233   2.804 -0.0807 -0.0172 -0.2280
 5691TIP3    H117079   6.061   5.281   2.872 -0.4467  0.5229 -0.8628
 5691TIP3    H217080   6.169   5.297   2.767  1.5377 -0.8170  0.8994
 5692TIP3   OH217081   6.017   0.192   3.404 -0.5248 -0.7632  0.2326
 5692TIP3    H117082   5.991   0.283   3.413 -0.1060 -0.6500  0.3175
 5692TIP3    H217083   6.061   0.171   3.486 -1.4444 -1.3258  0.5979
 5693TIP3   OH217084   5.695   5.395   1.739 -0.6533  0.0477  0.0279
 5693TIP3    H117085   5.759   5.459   1.709 -0.0769  0.3176  1.7469
 5693TIP3    H217086   5.736   5.310   1.723 -0.4158  0.1780 -0.0584
 5694TIP3   OH217087   1.523   4.139   4.502  0.3172  0.1228 -0.2776
 5694TIP3    H117088   1.468   4.182   4.436  0.5637 -1.4619 -1.5970
 5694TIP3    H217089   1.567   4.210   4.547  1.3384  1.2857 -2.8998
 5695TIP3   OH217090   4.468   2.236   0.249  0.3812  0.2130  0.2505
 5695TIP3    H117091   4.373   2.246   0.249  0.3510  0.4222 -2.1724
 5695TIP3    H217092   4.490   2.218   0.341 -2.2042 -1.9390  0.5826
 5696TIP3   OH217093   3.135   0.764   3.345 -0.7434  0.1261  0.3587
 5696TIP3    H117094   3.097   0.809   3.420 -0.9196  1.7235 -0.6571
 5696TIP3    H217095   3.229   0.778   3.354 -0.6775 -0.4710  0.7385
 5697TIP3   OH217096   1.468   5.873   4.848 -0.8111 -0.2193 -0.0017
 5697TIP3    H117097   1.481   5.892   4.755  0.1142  2.0573  0.5168
 5697TIP3    H217098   1.388   5.921   4.871 -1.1420 -0.9287  0.3434
 5698TIP3   OH217099   2.357   2.434   4.498 -0.1815  0.3572 -0.2504
 5698TIP3    H117100   2.379   2.423   4.405  0.9208 -1.0944  0.1373
 5698TIP3    H217101   2.399   2.517   4.522  2.4383 -0.8333 -0.3079
 5699TIP3   OH217102   3.471   2.992   2.627 -0.2186  0.2649 -0.4761
 5699TIP3    H117103   3.549   2.958   2.671  1.0874  2.0503 -1.3014
 5699TIP3    H217104   3.420   3.032   2.697 -0.4645 -0.9949  0.0855
 5700TIP3   OH217105   4.898   5.288   4.144 -0.2939  0.1872 -0.0548
 5700TIP3    H117106   4.821   5.256   4.191 -0.4245 -1.4021 -1.3029
 5700TIP3    H217107   4.970   5.235   4.177  0.1136  0.9867  0.3722
 5701TIP3   OH217108   3.615   0.330   4.324 -0.0994 -0.0537 -0.4510
 5701TIP3    H117109   3.614   0.424   4.340 -0.6055 -0.4270  2.1481
 5701TIP3    H217110   3.528   0.310   4.291  0.2140  0.4481 -1.6203
 5702TIP3   OH217111   1.647   3.418   1.971  0.1559  0.2815 -0.3172
 5702TIP3    H117112   1.560   3.396   1.939 -0.7428  4.6616 -1.5206
 5702TIP3    H217113   1.676   3.490   1.916  3.6416  0.4709  1.4595
 5703TIP3   OH217114   0.932   1.818   3.108  0.0369 -0.0862 -0.0785
 5703TIP3    H117115   0.969   1.880   3.045  1.6670  0.1091  1.0057
 5703TIP3    H217116   0.842   1.804   3.079  0.7071  0.0574 -2.3928
 5704TIP3   OH217117   4.101   0.754   2.928  0.3416 -0.1303  0.3534
 5704TIP3    H117118   4.009   0.730   2.917  0.3752 -0.0265 -0.1754
 5704TIP3    H217119   4.135   0.690   2.991  0.1745 -0.8211 -0.2483
 5705TIP3   OH217120   1.356   3.182   0.225 -0.2290 -0.3141 -0.0223
 5705TIP3    H117121   1.374   3.247   0.157  0.3959 -1.4259 -0.9788
 5705TIP3    H217122   1.360   3.098   0.178 -0.6115 -1.0656  1.2436
 5706TIP3   OH217123   0.959   2.465   1.858 -0.4391  0.4760  0.6144
 5706TIP3    H117124   1.053   2.448   1.859  0.2102  2.7864 -2.3998
 5706TIP3    H217125   0.918   2.379   1.853  1.7571 -0.5669 -1.1010
 5707TIP3   OH217126   5.923   1.497   0.341  0.4800 -0.2381 -0.2592
 5707TIP3    H117127   5.935   1.402   0.349 -0.6156 -0.5166 -1.4304
 5707TIP3    H217128   5.975   1.521   0.265 -0.1525 -0.1256 -0.6698
 5708TIP3   OH217129   4.412   5.633   4.654 -0.2864  0.1220 -0.1205
 5708TIP3    H117130   4.444   5.545   4.672 -0.5780 -0.3529 -1.7347
 5708TIP3    H217131   4.488   5.678   4.616  0.5495  1.3394  2.7048
 5709TIP3   OH217132   4.021   1.829   2.818 -0.3552  0.3598  0.7144
 5709TIP3    H117133   3.983   1.750   2.781  0.3343  0.1086  0.5455
 5709TIP3    H217134   3.945   1.885   2.838 -0.7407  0.5768 -1.2086
 5710TIP3   OH217135   4.806   1.771   2.181  0.1103  0.0576 -0.3795
 5710TIP3    H117136   4.723   1.747   2.138 -0.0646  0.9197 -0.5442
 5710TIP3    H217137   4.872   1.763   2.112 -0.0295  0.5333 -0.5765
 5711TIP3   OH217138   4.761   3.504   1.482 -0.5880 -0.1613 -0.1738
 5711TIP3    H117139   4.762   3.516   1.387 -0.9005  1.1199 -0.0342
 5711TIP3    H217140   4.703   3.573   1.514 -1.2690 -1.1976  0.8723
 5712TIP3   OH217141   5.849   1.031   2.535  0.0507  0.2969 -0.1435
 5712TIP3    H117142   5.868   1.116   2.497 -0.7558  0.6721  0.2600
 5712TIP3    H217143   5.871   0.968   2.466 -1.1136  0.9412 -1.1461
 5713TIP3   OH217144   1.828   1.377   2.939  0.0294  0.2050  0.1496
 5713TIP3    H117145   1.754   1.428   2.907 -0.8672 -0.8766  0.4195
 5713TIP3    H217146   1.905   1.415   2.895 -0.6191  1.5925  0.1553
 5714TIP3   OH217147   5.105   3.810   2.734  0.2921 -0.5799  0.7661
 5714TIP3    H117148   5.133   3.766   2.654  0.1750 -1.2103  1.0669
 5714TIP3    H217149   5.077   3.897   2.705  0.8199 -0.5896  0.2089
 5715TIP3   OH217150   2.828   2.172   4.745 -0.6458 -0.0477  0.1984
 5715TIP3    H117151   2.905   2.213   4.784  1.5946 -0.5806 -3.1798
 5715TIP3    H217152   2.801   2.106   4.808  1.9654 -0.1244  1.3681
 5716TIP3   OH217153   4.545   5.296   3.955 -0.1904 -0.5959 -0.3837
 5716TIP3    H117154   4.492   5.367   3.993 -0.3888 -1.1810  0.4660
 5716TIP3    H217155   4.526   5.221   4.010  1.4137 -0.8595 -0.1620
 5717TIP3   OH217156   1.103   1.027   1.365 -0.1994  0.1440 -0.3983
 5717TIP3    H117157   1.062   1.032   1.451  0.3416 -1.5970  0.0054
 5717TIP3    H217158   1.197   1.036   1.383 -0.2066  2.3250 -1.1199
 5718TIP3   OH217159   1.050   3.109   4.591  0.7522  0.0252  0.2118
 5718TIP3    H117160   1.037   3.182   4.530 -2.2539  0.1665  0.8479
 5718TIP3    H217161   0.999   3.037   4.553 -1.4681  0.2199  2.5785
 5719TIP3   OH217162   5.118   2.416   3.565  1.1164  0.1987 -0.2401
 5719TIP3    H117163   5.112   2.326   3.598  0.5648  0.9159  1.7059
 5719TIP3    H217164   5.203   2.419   3.520  1.4215 -1.1224  0.2054
 5720TIP3   OH217165   3.303   5.936   2.166  0.0122  0.9490  0.0353
 5720TIP3    H117166   3.353   5.858   2.188 -0.2289  0.8511  0.2520
 5720TIP3    H217167   3.350   5.977   2.094  0.9461  1.3989  0.8812
 5721TIP3   OH217168   1.221   3.293   2.290  0.1405  0.3438 -0.4782
 5721TIP3    H117169   1.178   3.220   2.335  0.3431  0.3029 -0.3518
 5721TIP3    H217170   1.184   3.292   2.202 -0.1754  0.3556 -0.3477
 5722TIP3   OH217171   3.537   4.334   2.685  0.2913 -0.0212  0.2323
 5722TIP3    H117172   3.557   4.248   2.723 -0.2514 -0.1924  0.1419
 5722TIP3    H217173   3.443   4.330   2.666  0.9213 -0.9035 -3.5298
 5723TIP3   OH217174   4.718   5.740   3.564 -0.3485 -0.2687  0.4072
 5723TIP3    H117175   4.798   5.764   3.516 -0.2805  1.4145  1.3000
 5723TIP3    H217176   4.738   5.654   3.600  0.4198 -0.6128 -0.7591
 5724TIP3   OH217177   3.587   4.275   5.103 -1.0326 -0.2404 -0.3003
 5724TIP3    H117178   3.599   4.223   5.183 -1.2978  0.3037  0.0960
 5724TIP3    H217179   3.596   4.211   5.032  1.7124 -0.3413  0.0218
 5725TIP3   OH217180   4.275   4.601   1.112  0.0731  0.6265  0.9027
 5725TIP3    H117181   4.362   4.637   1.097 -0.1684  1.2194  0.8738
 5725TIP3    H217182   4.255   4.623   1.203  0.8242 -1.4340  1.6261
 5726TIP3   OH217183   2.467   0.074   1.558 -0.1327 -0.9107  0.2650
 5726TIP3    H117184   2.561   0.060   1.571 -0.0515 -0.3678  0.2686
 5726TIP3    H217185   2.433   0.087   1.647 -0.2186 -1.1545  0.2674
 5727TIP3   OH217186   0.559   0.016   2.889 -0.0901 -0.5469 -0.1778
 5727TIP3    H117187   0.538  -0.070   2.852 -1.5107  0.1363 -1.0801
 5727TIP3    H217188   0.567   0.073   2.812 -3.0897  0.9155  0.4644
 5728TIP3   OH217189   2.600   1.914   4.060  0.0429 -0.1406 -0.4053
 5728TIP3    H117190   2.693   1.933   4.049 -0.1818  0.2742 -1.7282
 5728TIP3    H217191   2.593   1.820   4.048  0.1595 -0.0341 -1.4007
 5729TIP3   OH217192   5.163   0.685   2.175  0.3018  0.3026 -0.2073
 5729TIP3    H117193   5.258   0.688   2.175  0.3771  0.1131  2.1089
 5729TIP3    H217194   5.141   0.593   2.160  0.4738  0.3550 -0.7871
 5730TIP3   OH217195   3.622   2.096   0.738  0.2792 -0.7582  0.2265
 5730TIP3    H117196   3.538   2.055   0.757 -1.8221  2.9592  0.0142
 5730TIP3    H217197   3.680   2.066   0.808 -1.2124 -3.2589  0.5100
 5731TIP3   OH217198   2.430   0.537   2.719 -0.3702  0.2880  0.1178
 5731TIP3    H117199   2.427   0.611   2.658 -0.2178  1.0809  1.0318
 5731TIP3    H217200   2.440   0.460   2.664  0.6474  1.0496 -0.8075
 5732TIP3   OH217201   4.016   3.868   2.103  0.0411  0.4683 -0.5981
 5732TIP3    H117202   3.971   3.787   2.079  0.2725  0.2321 -0.2467
 5732TIP3    H217203   4.039   3.856   2.195 -0.9724  1.4139 -0.1870
 5733TIP3   OH217204   5.806   0.541   0.941  0.3896 -0.7506  0.0077
 5733TIP3    H117205   5.842   0.503   1.021  0.9106  1.8383  1.1272
 5733TIP3    H217206   5.714   0.557   0.962  0.5046 -0.1632  0.1085
 5734TIP3   OH217207   5.954   4.118   2.247  1.0243 -0.1741  0.5569
 5734TIP3    H117208   5.982   4.162   2.327  1.4225  1.2892 -0.3564
 5734TIP3    H217209   5.985   4.174   2.176 -1.4991 -0.1062 -0.5846
 5735TIP3   OH217210   4.483   4.024   4.553 -0.5652  0.0175  0.1293
 5735TIP3    H117211   4.461   3.976   4.633  3.4196  0.8098  1.9396
 5735TIP3    H217212   4.496   4.114   4.582  1.6070  0.1948 -1.2031
 5736TIP3   OH217213   4.013   3.668   4.205 -0.0408 -0.1322 -0.2635
 5736TIP3    H117214   4.005   3.688   4.112  1.1798  1.1119 -0.1359
 5736TIP3    H217215   4.077   3.597   4.209  0.1733  0.0517 -0.3652
 5737TIP3   OH217216   5.175   5.344   3.570  0.6341  0.1136  0.1232
 5737TIP3    H117217   5.217   5.427   3.546  0.2008  0.9326  2.0447
 5737TIP3    H217218   5.248   5.284   3.586  1.0104  0.6738  0.5474
 5738TIP3   OH217219   6.310   0.802   3.345 -0.1722 -0.5713  0.2450
 5738TIP3    H117220   6.257   0.756   3.280  0.6305  1.2027 -1.7682
 5738TIP3    H217221   6.390   0.825   3.298  0.8706 -0.0497  2.1759
 5739TIP3   OH217222   0.485   5.350   0.550  0.1038  0.0244 -0.4707
 5739TIP3    H117223   0.531   5.360   0.634  1.9872  0.2241 -1.4657
 5739TIP3    H217224   0.413   5.412   0.555 -0.1144 -0.3160  1.1844
 5740TIP3   OH217225   4.252   5.236   4.514 -0.0559  0.3368  0.1692
 5740TIP3    H117226   4.313   5.172   4.552 -0.3739 -0.4361 -0.5747
 5740TIP3    H217227   4.241   5.302   4.582  0.8281 -0.0362  0.6964
 5741TIP3   OH217228   0.735   3.012   0.393  0.1447  0.3100 -0.5160
 5741TIP3    H117229   0.702   3.058   0.316  0.3632  0.4743 -0.5138
 5741TIP3    H217230   0.716   3.071   0.466 -0.3878 -0.0053 -0.3959
 5742TIP3   OH217231   3.649   4.521   4.364 -0.0227  0.1348  0.3560
 5742TIP3    H117232   3.635   4.609   4.397  0.3515  0.8237 -1.2205
 5742TIP3    H217233   3.569   4.500   4.317  0.3943  0.1644 -0.3782
 5743TIP3   OH217234   4.996   2.764   0.862  0.8188 -0.2617  0.2599
 5743TIP3    H117235   4.962   2.677   0.841  3.8182 -1.4997  0.0044
 5743TIP3    H217236   5.011   2.762   0.957 -0.9554  0.7649  0.6057
 5744TIP3   OH217237   4.856   2.852   1.866  0.5393 -0.0785 -0.3584
 5744TIP3    H117238   4.833   2.921   1.803 -0.5130  0.3374  0.4443
 5744TIP3    H217239   4.906   2.896   1.934  3.6682 -0.9216 -1.9109
 5745TIP3   OH217240   3.580   3.303   2.893 -0.3235 -0.2617 -0.8375
 5745TIP3    H117241   3.609   3.352   2.816 -1.7519 -0.4701 -1.5507
 5745TIP3    H217242   3.659   3.261   2.926  1.2729  3.4164  0.5479
 5746TIP3   OH217243   2.318   0.064   3.755  0.1948  0.4764  0.1030
 5746TIP3    H117244   2.275   0.143   3.788 -1.9818 -0.4275 -0.3626
 5746TIP3    H217245   2.356   0.090   3.671 -1.1405  0.8908 -0.4020
 5747TIP3   OH217246   5.514   1.167   0.645  0.0657 -0.2681  0.1272
 5747TIP3    H117247   5.440   1.173   0.705 -0.1865  1.1123 -0.2879
 5747TIP3    H217248   5.510   1.078   0.611 -0.3455 -0.7659  1.4330
 5748TIP3   OH217249   1.861   3.182   4.225  0.1846 -0.0883  0.0939
 5748TIP3    H117250   1.879   3.135   4.144  0.8278  1.4820 -0.7132
 5748TIP3    H217251   1.893   3.270   4.209 -0.2004  0.4094  1.8661
 5749TIP3   OH217252   3.067   4.965   3.411 -0.4654  0.0170  0.1622
 5749TIP3    H117253   3.107   4.927   3.333 -0.4284 -1.0782  0.6880
 5749TIP3    H217254   3.140   4.986   3.469 -0.5430 -0.5033  0.4672
 5750TIP3   OH217255   5.145   4.901   2.572 -0.1460 -0.0662  0.2312
 5750TIP3    H117256   5.124   4.880   2.663 -1.9014 -0.3585 -0.2181
 5750TIP3    H217257   5.154   4.815   2.529  0.6094  0.0711  0.1013
 5751TIP3   OH217258   3.331   3.188   4.946 -0.4350 -0.2032 -0.0256
 5751TIP3    H117259   3.361   3.276   4.966 -1.9037  0.1281  0.8880
 5751TIP3    H217260   3.245   3.182   4.988  0.0887 -2.4244  0.9038
 5752TIP3   OH217261   0.762   1.560   0.908 -0.1520 -0.6142 -0.0967
 5752TIP3    H117262   0.725   1.478   0.877 -1.2504 -0.1362 -0.1159
 5752TIP3    H217263   0.842   1.535   0.953  1.4830 -1.3380 -3.1646
 5753TIP3   OH217264   5.259   4.733   1.408  0.2498 -0.8049  0.1012
 5753TIP3    H117265   5.203   4.749   1.332 -0.2591  1.3405  0.8470
 5753TIP3    H217266   5.317   4.810   1.412  1.8725 -1.9982  0.5460
 5754TIP3   OH217267   3.025   1.755   0.882  0.2908 -0.0262 -0.5174
 5754TIP3    H117268   2.948   1.698   0.879  0.4829 -0.6140  2.4222
 5754TIP3    H217269   2.991   1.843   0.863 -1.2525 -0.2008  1.1489
 5755TIP3   OH217270   5.680   1.124   4.139 -0.2308 -0.2675 -0.2731
 5755TIP3    H117271   5.716   1.076   4.065 -0.8827 -1.2864  0.0368
 5755TIP3    H217272   5.740   1.107   4.211  0.5052  0.8765 -0.5862
 5756TIP3   OH217273   6.053   1.014   5.024  0.2778 -0.4688  0.0126
 5756TIP3    H117274   6.127   1.074   5.035  0.0551 -0.3354  0.8238
 5756TIP3    H217275   6.059   0.954   5.097 -0.0299 -0.8843 -0.2968
 5757TIP3   OH217276   4.456   5.414   3.713  0.4180  0.4516 -0.1634
 5757TIP3    H117277   4.540   5.401   3.758  0.5434  1.1526 -0.1729
 5757TIP3    H217278   4.420   5.326   3.702  1.3488  0.1057 -0.5329
 5758TIP3   OH217279   0.231   2.297   2.513 -0.5790 -0.9208 -0.6895
 5758TIP3    H117280   0.301   2.235   2.492 -0.6768 -1.2123 -0.1803
 5758TIP3    H217281   0.227   2.355   2.437  1.2317  0.0215 -0.1266
 5759TIP3   OH217282   5.411   0.346   0.885 -0.2246  0.2957 -0.0467
 5759TIP3    H117283   5.502   0.319   0.899 -0.0451  0.0665 -1.4483
 5759TIP3    H217284   5.377   0.365   0.972  1.0611  0.0320  0.5290
 5760TIP3   OH217285   4.521   4.588   4.418 -0.5526 -0.4431 -0.1100
 5760TIP3    H117286   4.482   4.534   4.350 -0.6634 -0.2823 -0.1753
 5760TIP3    H217287   4.600   4.541   4.444 -0.1665 -0.1974 -0.7971
 5761TIP3   OH217288   2.048   5.641   4.273 -0.0494 -0.0198  0.3491
 5761TIP3    H117289   1.981   5.615   4.210 -0.8248  0.2691  1.0479
 5761TIP3    H217290   2.044   5.575   4.342 -1.9586  1.7988  2.0797
 5762TIP3   OH217291   6.257   5.925   3.654 -0.2222 -0.0884 -0.3345
 5762TIP3    H117292   6.264   5.908   3.560  0.6707 -1.3129 -0.0684
 5762TIP3    H217293   6.168   5.898   3.677 -0.2177 -0.4312 -0.7141
 5763TIP3   OH217294   5.618   5.507   2.323 -0.0439 -0.5005 -0.2075
 5763TIP3    H117295   5.712   5.522   2.313 -0.3577  1.0662 -1.1514
 5763TIP3    H217296   5.579   5.538   2.241 -1.4657 -0.2386  0.5173
 5764TIP3   OH217297   3.823   5.301   1.378 -0.0369 -0.3273  0.6746
 5764TIP3    H117298   3.798   5.214   1.408  0.8421 -1.0465 -0.6195
 5764TIP3    H217299   3.917   5.297   1.364  0.0227  0.8342  0.5840
 5765TIP3   OH217300   4.006   4.136   2.115  0.2777 -0.0385  0.4028
 5765TIP3    H117301   4.005   4.042   2.099  0.7220  0.0432 -0.1486
 5765TIP3    H217302   3.955   4.148   2.195 -1.4095 -0.5552 -0.5406
 5766TIP3   OH217303   2.805   3.399   0.149 -0.1165 -0.5130 -0.0884
 5766TIP3    H117304   2.841   3.433   0.067 -1.0004  1.3646  0.2368
 5766TIP3    H217305   2.773   3.477   0.195 -2.0485 -1.7704  0.8529
 5767TIP3   OH217306   0.373   2.094   2.377 -0.7513  0.0898  0.0763
 5767TIP3    H117307   0.465   2.068   2.371 -0.9998 -1.4617  1.9749
 5767TIP3    H217308   0.340   2.088   2.287  0.8003 -0.0742 -0.5115
 5768TIP3   OH217309   1.388   4.987   5.114 -0.3896  0.1268 -0.1242
 5768TIP3    H117310   1.475   4.957   5.088 -0.1390  2.0953 -1.7842
 5768TIP3    H217311   1.329   4.949   5.048 -0.4002  1.1029 -0.6907
 5769TIP3   OH217312   5.104   2.970   3.575  0.3701 -0.0654 -0.0196
 5769TIP3    H117313   5.064   3.049   3.540  0.9977 -0.3800 -1.5151
 5769TIP3    H217314   5.135   2.922   3.498  2.2665 -0.5514  0.9857
 5770TIP3   OH217315   0.554   2.362   4.078 -0.6640  0.2043  0.1657
 5770TIP3    H117316   0.463   2.387   4.097 -0.8881  0.4140 -1.0502
 5770TIP3    H217317   0.605   2.440   4.099 -1.2377  1.4328 -2.5966
 5771TIP3   OH217318   2.037   3.619   4.831 -0.4787  0.2157 -0.1608
 5771TIP3    H117319   1.994   3.645   4.750 -1.4743  2.2958  0.9625
 5771TIP3    H217320   1.965   3.610   4.894  0.5028  2.2257  1.3641
 5772TIP3   OH217321   2.083   0.501   0.853 -0.3026  0.1773  0.1020
 5772TIP3    H117322   2.153   0.517   0.916  0.1407  0.8221 -0.5316
 5772TIP3    H217323   2.024   0.440   0.897 -0.9725  1.9919  1.8549
 5773TIP3   OH217324   1.797   5.900   3.399 -0.0451 -0.8829  0.6213
 5773TIP3    H117325   1.810   5.835   3.468  1.7874  0.0262  1.2027
 5773TIP3    H217326   1.847   5.864   3.325 -0.3135 -0.8713  0.4351
 5774TIP3   OH217327   2.156   3.800   3.132  0.3909  0.5282 -0.1272
 5774TIP3    H117328   2.137   3.835   3.045 -1.3465  1.2480  0.5018
 5774TIP3    H217329   2.073   3.763   3.163  0.5701  1.5770  1.7871
 5775TIP3   OH217330   4.864   5.041   0.070  0.0875 -0.1455 -0.1610
 5775TIP3    H117331   4.889   4.984   0.143 -1.0302  1.0824  1.2540
 5775TIP3    H217332   4.906   5.125   0.089  0.8511 -0.1594 -1.6522
 5776TIP3   OH217333   5.908   1.694   0.823  0.0800  0.0299  0.5313
 5776TIP3    H117334   5.884   1.646   0.743  0.2504 -1.3262  1.2517
 5776TIP3    H217335   5.876   1.638   0.894  0.3984  0.9601  1.4239
 5777TIP3   OH217336   3.287   0.831   1.741 -0.2093 -0.3573 -0.1947
 5777TIP3    H117337   3.351   0.764   1.719 -0.5197 -1.1423  1.2384
 5777TIP3    H217338   3.208   0.807   1.691  0.2051 -0.0659 -1.0142
 5778TIP3   OH217339   2.975   3.071   1.884  0.3395 -0.0571  0.2782
 5778TIP3    H117340   2.939   3.123   1.955 -1.0105  1.7402 -1.5993
 5778TIP3    H217341   2.910   3.003   1.868  0.2303  0.0648  0.2038
 5779TIP3   OH217342   5.355   4.224   1.564 -0.0443  0.1704 -0.5061
 5779TIP3    H117343   5.307   4.291   1.515  0.2197  0.5479 -0.2537
 5779TIP3    H217344   5.442   4.260   1.576  0.3116 -0.5121 -0.9539
 5780TIP3   OH217345   1.268   4.566   2.928 -0.0616 -0.0921  0.0592
 5780TIP3    H117346   1.309   4.526   3.004 -3.1702  0.3355  2.1171
 5780TIP3    H217347   1.197   4.506   2.903 -0.2057  0.6245 -1.4158
 5781TIP3   OH217348   5.107   2.808   0.471  0.0291 -0.2288 -0.0558
 5781TIP3    H117349   5.014   2.800   0.452 -0.4246  0.7391  1.5463
 5781TIP3    H217350   5.138   2.717   0.476 -0.9326 -0.5786 -0.1264
 5782TIP3   OH217351   3.255   0.017   2.257  0.0719 -0.2170 -0.3773
 5782TIP3    H117352   3.350   0.015   2.271  0.0744  0.9001 -0.1731
 5782TIP3    H217353   3.218   0.041   2.342 -0.2918  0.7561 -0.7951
 5783TIP3   OH217354   0.406   4.720   2.813 -0.4827 -0.9117 -0.1049
 5783TIP3    H117355   0.485   4.762   2.847 -0.6706 -0.7719  0.1579
 5783TIP3    H217356   0.345   4.792   2.795 -2.1264 -1.1461  3.5635
 5784TIP3   OH217357   3.798   0.856   0.498 -0.3656  0.1310  0.9212
 5784TIP3    H117358   3.783   0.948   0.474  0.7827  0.6723  2.1614
 5784TIP3    H217359   3.880   0.833   0.456 -0.4296 -0.2043  0.9735
 5785TIP3   OH217360   0.345   1.451   4.003  0.3998 -0.4960 -0.4642
 5785TIP3    H117361   0.439   1.460   4.022  0.5688  2.0601 -2.0312
 5785TIP3    H217362   0.304   1.442   4.089  2.0089 -0.6213  0.3257
 5786TIP3   OH217363   2.284   0.309   1.551 -0.0026 -0.3490  0.3041
 5786TIP3    H117364   2.340   0.232   1.561 -0.9123 -1.3908 -1.9761
 5786TIP3    H217365   2.204   0.276   1.511 -0.5397  1.7347 -0.5040
 5787TIP3   OH217366   0.806   0.767   3.006  0.3274 -0.0092  0.9897
 5787TIP3    H117367   0.829   0.722   3.087  0.6837 -1.9280 -0.1254
 5787TIP3    H217368   0.844   0.714   2.937 -2.3028 -0.0109 -0.6198
 5788TIP3   OH217369   4.408   0.650   1.812  0.3361 -0.1664 -0.5459
 5788TIP3    H117370   4.387   0.701   1.734 -2.3382 -0.4634 -0.1231
 5788TIP3    H217371   4.388   0.560   1.788 -3.0830  0.0032  1.1379
 5789TIP3   OH217372   2.833   1.402   2.593  0.0909  0.5871  0.7852
 5789TIP3    H117373   2.892   1.474   2.615 -0.0504  0.9654 -0.0395
 5789TIP3    H217374   2.769   1.441   2.534  0.2940 -0.3257 -0.0563
 5790TIP3   OH217375   5.307   0.788   1.648  0.8253  0.4201 -0.0747
 5790TIP3    H117376   5.225   0.835   1.634  1.0077  0.3792 -1.4899
 5790TIP3    H217377   5.357   0.844   1.707 -0.4988  0.0772  1.4544
 5791TIP3   OH217378   2.986   0.716   1.695 -0.1460  0.4124  0.2261
 5791TIP3    H117379   2.969   0.793   1.641  2.1064 -0.5332 -2.0279
 5791TIP3    H217380   2.983   0.643   1.634  0.5377 -0.9633  1.7636
 5792TIP3   OH217381   2.696   3.490   1.092 -0.1768  0.6242  0.7290
 5792TIP3    H117382   2.666   3.422   1.152  0.9865  0.8274  1.5842
 5792TIP3    H217383   2.786   3.508   1.120  0.8064 -0.0589 -1.7771
 5793TIP3   OH217384   4.919   2.033   1.524 -0.1115 -0.2732  0.9356
 5793TIP3    H117385   4.841   2.063   1.571  0.3433 -0.6238  1.9444
 5793TIP3    H217386   4.908   2.066   1.435 -2.9983 -2.9387  0.0947
 5794TIP3   OH217387   1.579   5.004   3.786  0.0581  0.3027  0.9110
 5794TIP3    H117388   1.635   5.081   3.793 -1.8193  1.7193  1.2138
 5794TIP3    H217389   1.542   4.993   3.874 -1.3874  0.4485  0.3620
 5795TIP3   OH217390   2.715   4.510   3.785 -0.0415  0.1588  0.3360
 5795TIP3    H117391   2.647   4.572   3.757 -1.3764 -0.7221  1.5053
 5795TIP3    H217392   2.745   4.469   3.704 -0.8561  0.6205 -0.2125
 5796TIP3   OH217393   0.756   5.552   0.072 -0.0447 -0.1379 -0.4068
 5796TIP3    H117394   0.684   5.595   0.026 -0.3449  1.0872  1.1302
 5796TIP3    H217395   0.722   5.536   0.160  1.4726  0.2395  0.2809
 5797TIP3   OH217396   3.416   4.936   0.482 -0.1694  0.0174  0.3992
 5797TIP3    H117397   3.485   4.927   0.549  0.5488  0.2488 -0.2944
 5797TIP3    H217398   3.454   4.993   0.416  0.5397 -2.9413 -1.9778
 5798TIP3   OH217399   5.282   5.004   4.713 -0.0154 -0.5851  0.4114
 5798TIP3    H117400   5.341   5.064   4.668  0.6591 -0.3879  1.5506
 5798TIP3    H217401   5.338   4.954   4.771 -0.9587 -0.4067  1.4970
 5799TIP3   OH217402   5.815   3.716   0.194 -0.8726 -0.0296 -0.5213
 5799TIP3    H117403   5.849   3.723   0.283  0.0627 -0.4662 -0.8317
 5799TIP3    H217404   5.761   3.637   0.195 -3.1866  1.4561  0.3595
 5800TIP3   OH217405   0.504   1.430   3.480  0.3794 -0.5151 -0.4940
 5800TIP3    H117406   0.430   1.370   3.481  1.1382 -1.4825  0.7762
 5800TIP3    H217407   0.482   1.496   3.545  0.7082 -0.9376  0.0611
 5801TIP3   OH217408   1.897   2.488   0.346 -0.3928 -0.0417  0.4864
 5801TIP3    H117409   1.828   2.548   0.374 -0.9869 -1.0028  1.1642
 5801TIP3    H217410   1.875   2.405   0.389  1.0061 -0.4557  0.4456
 5802TIP3   OH217411   3.118   3.169   3.861  0.5952 -0.1055 -0.3362
 5802TIP3    H117412   3.046   3.227   3.837  0.6249 -1.1303 -3.2451
 5802TIP3    H217413   3.194   3.227   3.867  0.0349  0.6037  0.0698
 5803TIP3   OH217414   6.060   0.787   2.604  0.7220 -0.2969 -0.0874
 5803TIP3    H117415   6.134   0.844   2.627 -0.3041  0.6689  0.9018
 5803TIP3    H217416   6.024   0.825   2.524  0.6834 -0.1772 -0.0130
 5804TIP3   OH217417   4.504   0.969   3.561 -0.3622 -0.3343 -0.1061
 5804TIP3    H117418   4.419   1.007   3.539  0.8991  2.3912 -0.7361
 5804TIP3    H217419   4.526   1.006   3.646  0.7974  0.2169 -0.6132
 5805TIP3   OH217420   5.371   0.254   2.618 -0.2157 -1.2367 -0.4871
 5805TIP3    H117421   5.419   0.261   2.535  0.9002 -1.8965  0.0875
 5805TIP3    H217422   5.376   0.342   2.656 -1.3901 -0.7190 -1.4436
 5806TIP3   OH217423   3.463   0.278   3.142  0.3202 -0.8816  0.0067
 5806TIP3    H117424   3.514   0.222   3.083 -1.4007 -2.1096 -0.3838
 5806TIP3    H217425   3.429   0.347   3.085  1.5766 -0.0007  0.2873
 5807TIP3   OH217426   5.578   5.083   0.589 -0.3506 -0.0660  0.0666
 5807TIP3    H117427   5.580   5.118   0.677 -0.4179  0.9303 -0.3215
 5807TIP3    H217428   5.512   5.134   0.543  0.0240 -0.2412 -0.6981
 5808TIP3   OH217429   4.579   3.358   0.022  0.2577  0.1294  0.3728
 5808TIP3    H117430   4.670   3.369   0.049  0.5634 -0.0452 -0.5447
 5808TIP3    H217431   4.550   3.446  -0.003 -0.1605  0.3713  1.6021
 5809TIP3   OH217432   5.290   4.827   3.869  0.4447  0.3080 -0.0297
 5809TIP3    H117433   5.285   4.765   3.796 -0.1371  0.5890 -0.2388
 5809TIP3    H217434   5.325   4.776   3.941  0.4092 -0.1479 -0.3280
 5810TIP3   OH217435   0.341   2.466   4.325 -0.1600  0.3728  0.3416
 5810TIP3    H117436   0.322   2.458   4.231 -0.4974 -1.3076  0.5292
 5810TIP3    H217437   0.331   2.560   4.343 -0.4036  0.6806 -1.2292
 5811TIP3   OH217438   4.368   1.642   3.529  0.3664  0.1425  0.4837
 5811TIP3    H117439   4.272   1.651   3.527  0.5179  2.3892 -1.0769
 5811TIP3    H217440   4.392   1.627   3.437  1.4919 -1.2650  0.9754
 5812TIP3   OH217441   5.138   1.915   0.813  0.3202  0.0990 -0.1180
 5812TIP3    H117442   5.134   1.987   0.876  0.4767  0.2508 -0.2818
 5812TIP3    H217443   5.231   1.895   0.805  0.4083  0.8010 -1.1083
 5813TIP3   OH217444   0.574   2.804   0.168  0.5951 -0.1800  0.0841
 5813TIP3    H117445   0.483   2.832   0.175 -0.4083 -2.8427 -1.0168
 5813TIP3    H217446   0.603   2.837   0.083  0.7663  0.8886  0.5455
 5814TIP3   OH217447   5.341   1.016   2.124  0.0131  0.0997  0.5608
 5814TIP3    H117448   5.346   0.978   2.211  0.1074 -1.7548 -0.1980
 5814TIP3    H217449   5.249   1.041   2.114 -0.0467  0.1013  1.1117
 5815TIP3   OH217450   2.486   4.704   4.486 -0.2709 -0.2243 -0.8978
 5815TIP3    H117451   2.517   4.675   4.572 -0.9777 -0.4052 -0.7037
 5815TIP3    H217452   2.512   4.634   4.426 -0.9356 -0.7161 -0.6181
 5816TIP3   OH217453   3.895   4.050   2.615  0.2643  0.1216  0.1419
 5816TIP3    H117454   3.872   4.081   2.528  1.2517  1.4125  0.3028
 5816TIP3    H217455   3.829   3.984   2.636 -0.3629  0.2582 -1.3075
 5817TIP3   OH217456   5.100   2.516   3.835 -0.0472  0.3563  0.0596
 5817TIP3    H117457   5.098   2.447   3.769 -2.0638 -0.3633  0.8148
 5817TIP3    H217458   5.058   2.591   3.793  1.9759  1.1628 -0.6939
 5818TIP3   OH217459   3.918   5.614   2.240  0.2023 -0.2970  0.5422
 5818TIP3    H117460   3.865   5.561   2.181 -0.4197  2.7039 -1.8628
 5818TIP3    H217461   3.855   5.670   2.286  0.9971  2.0144 -0.9745
 5819TIP3   OH217462   6.284   1.392   0.071 -0.2602  0.1725  0.1603
 5819TIP3    H117463   6.275   1.403  -0.024  0.0506  0.9682  0.2128
 5819TIP3    H217464   6.226   1.458   0.109  1.5744  1.6904  0.4941
 5820TIP3   OH217465   2.465   2.179   2.881 -0.1976  0.2150 -0.3360
 5820TIP3    H117466   2.481   2.094   2.841 -0.9691 -1.3369  2.3676
 5820TIP3    H217467   2.443   2.237   2.808 -0.7605 -2.1729 -2.1642
 5821TIP3   OH217468   3.671   0.899   3.337  0.5780 -0.8014 -0.2757
 5821TIP3    H117469   3.660   0.805   3.351  0.8351 -0.7503  0.3108
 5821TIP3    H217470   3.765   0.914   3.344  0.4841 -0.4160  0.2281
 5822TIP3   OH217471   2.184   0.260   4.606 -0.2797 -0.2350  0.0567
 5822TIP3    H117472   2.272   0.226   4.623  0.0904  1.6763  2.6705
 5822TIP3    H217473   2.191   0.306   4.522  0.8015 -1.3176 -0.4692
 5823TIP3   OH217474   5.930   5.172   1.223 -0.5718  0.5471 -0.4190
 5823TIP3    H117475   5.894   5.150   1.309  0.9057 -1.7889 -0.3183
 5823TIP3    H217476   5.941   5.267   1.225 -2.3888  0.7837  1.2018
 5824TIP3   OH217477   1.678   5.641   3.716 -0.2391 -0.5789  0.4271
 5824TIP3    H117478   1.739   5.702   3.758 -0.1936 -0.7352  0.5898
 5824TIP3    H217479   1.698   5.648   3.623  0.8389 -1.4961  0.5688
 5825TIP3   OH217480   6.146   1.529   0.649 -0.0802 -0.5697  0.0559
 5825TIP3    H117481   6.072   1.469   0.650  0.7844 -1.6733 -0.5949
 5825TIP3    H217482   6.151   1.560   0.559  0.2971 -0.5562  0.0811
 5826TIP3   OH217483   4.284   5.164   1.489 -0.1512  0.0752 -0.3723
 5826TIP3    H117484   4.378   5.167   1.470  0.4292 -0.6977  1.9601
 5826TIP3    H217485   4.278   5.190   1.581 -2.4184  1.5559 -0.8775
 5827TIP3   OH217486   3.525   0.449   2.144  0.0028 -0.2648 -0.6427
 5827TIP3    H117487   3.441   0.404   2.135 -0.0599 -0.3793  0.3469
 5827TIP3    H217488   3.578   0.389   2.197 -0.3980  1.1914  1.5507
 5828TIP3   OH217489   4.142   3.964   0.394 -0.5609  0.3454  0.2757
 5828TIP3    H117490   4.141   3.870   0.413  0.9593  0.2885  0.1472
 5828TIP3    H217491   4.222   3.979   0.345 -1.0969  1.6218 -0.2742
 5829TIP3   OH217492   2.656   1.997   4.457  0.4357  0.1751  0.3725
 5829TIP3    H117493   2.610   1.939   4.396 -1.7456  0.7600  1.3697
 5829TIP3    H217494   2.676   2.075   4.405 -0.1953  0.1287  0.0453
 5830TIP3   OH217495   1.016   3.083   2.254  0.6361 -0.2935  0.5893
 5830TIP3    H117496   0.990   2.997   2.287  0.4623 -0.8312 -0.8950
 5830TIP3    H217497   0.933   3.131   2.243  0.5078 -0.8067 -0.8788
 5831TIP3   OH217498   4.250   4.250   0.063  0.1200  0.3741  0.1993
 5831TIP3    H117499   4.230   4.315  -0.004 -1.2844  0.0744  0.2998
 5831TIP3    H217500   4.338   4.273   0.093  0.3856  1.0795 -1.0722
 5832TIP3   OH217501   4.436   5.462   0.423  0.2274  0.0059  0.0085
 5832TIP3    H117502   4.495   5.415   0.364  1.4264  0.7674  0.5536
 5832TIP3    H217503   4.424   5.403   0.498  1.9599  0.6114  0.8276
 5833TIP3   OH217504   2.211   2.907   3.169  0.4672  0.1033  0.1172
 5833TIP3    H117505   2.277   2.916   3.238  1.1313 -0.1870 -0.4584
 5833TIP3    H217506   2.262   2.885   3.090 -0.5034 -2.9470  0.1920
 5834TIP3   OH217507   3.938   2.969   3.572  0.1014 -0.0748 -0.3341
 5834TIP3    H117508   3.968   2.918   3.496 -0.7081  0.5186 -1.0825
 5834TIP3    H217509   4.015   3.017   3.601  0.0352  1.1187 -1.9598
 5835TIP3   OH217510   5.569   4.479   1.301  0.2296  0.1152 -0.0582
 5835TIP3    H117511   5.492   4.457   1.249 -0.6120 -0.3231  1.3362
 5835TIP3    H217512   5.535   4.514   1.383  1.4132 -1.8323  1.3645
 5836TIP3   OH217513   4.034   0.783   2.223 -0.4252 -0.2099  0.7043
 5836TIP3    H117514   4.001   0.809   2.309 -2.0289 -1.5395  0.5325
 5836TIP3    H217515   4.113   0.732   2.242 -0.3840  0.0768  1.3343
 5837TIP3   OH217516   4.986   5.045   3.502  0.1248 -0.1228 -0.7607
 5837TIP3    H117517   4.912   5.069   3.557  0.1600 -0.4717 -0.5554
 5837TIP3    H217518   5.060   5.040   3.563  0.1015 -0.8272 -0.7859
 5838TIP3   OH217519   0.662   0.697   0.616 -0.0078  0.4206  0.2823
 5838TIP3    H117520   0.677   0.605   0.591 -0.0021  0.3825  0.4245
 5838TIP3    H217521   0.741   0.743   0.588 -0.9113  0.7970 -1.8396
 5839TIP3   OH217522  -0.035   4.101   3.803 -0.2271 -0.0010  0.1902
 5839TIP3    H117523   0.023   4.029   3.828  0.8035 -0.0776 -2.0700
 5839TIP3    H217524   0.022   4.178   3.805 -0.0702 -0.0111 -1.6574
 5840TIP3   OH217525   5.765   4.526   4.245  0.7787  0.5996 -0.5981
 5840TIP3    H117526   5.707   4.480   4.184  0.5494 -0.8185  0.6514
 5840TIP3    H217527   5.786   4.462   4.312 -1.1996  2.8082  2.3916
 5841TIP3   OH217528   2.644   0.123   3.153  0.6195 -0.1576 -0.1068
 5841TIP3    H117529   2.629   0.029   3.151 -1.1176  0.0561  1.0527
 5841TIP3    H217530   2.578   0.159   3.093 -0.0224  0.4318  0.9202
 5842TIP3   OH217531   2.848   2.849   3.674 -0.0764 -0.2059 -0.5415
 5842TIP3    H117532   2.898   2.795   3.614 -1.0886 -0.3770 -1.2628
 5842TIP3    H217533   2.837   2.795   3.752  0.6349 -0.2602 -0.4799
 5843TIP3   OH217534   4.571   3.374   1.044  0.5814  0.2540  0.3251
 5843TIP3    H117535   4.652   3.369   1.096 -0.2055 -0.3674  1.5412
 5843TIP3    H217536   4.537   3.285   1.044 -1.5017  0.9487  2.2205
 5844TIP3   OH217537   1.246   0.202   4.263  0.2960  0.1114 -0.2133
 5844TIP3    H117538   1.307   0.131   4.242 -1.8265 -1.8250 -0.1958
 5844TIP3    H217539   1.268   0.226   4.353  3.8982  2.6557 -1.5275
 5845TIP3   OH217540   0.847   1.695   0.328 -0.3270 -0.0224  0.0904
 5845TIP3    H117541   0.895   1.737   0.398 -0.4447 -0.3188  0.3530
 5845TIP3    H217542   0.880   1.605   0.327  0.8150  0.3679 -1.2673
 5846TIP3   OH217543   6.034   2.235   2.036  0.1963  0.4552  0.4783
 5846TIP3    H117544   6.070   2.324   2.028 -0.0973  0.7819  2.2497
 5846TIP3    H217545   6.099   2.189   2.090  0.1341 -0.2864 -0.0750
 5847TIP3   OH217546   5.753   5.065   1.417 -0.3751  0.1517 -0.8721
 5847TIP3    H117547   5.739   5.087   1.509  0.7784 -0.6156 -0.5001
 5847TIP3    H217548   5.743   4.970   1.413  2.6079 -0.2358 -0.9224
 5848TIP3   OH217549   2.242   1.759   3.073 -0.0030  0.0282  0.0626
 5848TIP3    H117550   2.215   1.667   3.077  0.3086 -0.0645  0.0728
 5848TIP3    H217551   2.274   1.770   2.984  3.7122 -0.9672  1.0622
 5849TIP3   OH217552   0.242   1.247   1.958  0.2048  0.6399  0.2827
 5849TIP3    H117553   0.212   1.157   1.941 -0.6937  0.6302  1.7815
 5849TIP3    H217554   0.183   1.302   1.906  0.7855  0.3858 -0.6749
 5850TIP3   OH217555   5.059   2.239   3.767  0.0121 -0.2767  0.5725
 5850TIP3    H117556   5.137   2.198   3.803 -0.3585 -2.6977 -1.1269
 5850TIP3    H217557   5.040   2.189   3.688 -1.8129  1.8605 -0.4610
 5851TIP3   OH217558   4.065   1.557   1.386 -0.1410 -0.5198  0.2021
 5851TIP3    H117559   4.051   1.469   1.421 -0.4285 -0.5042  0.1289
 5851TIP3    H217560   4.084   1.610   1.464 -0.2423 -0.5935  0.2787
 5852TIP3   OH217561   3.718   4.794   5.003 -0.0371  0.0437 -0.1956
 5852TIP3    H117562   3.623   4.803   5.005 -0.2541 -1.8467 -0.2731
 5852TIP3    H217563   3.734   4.701   5.019  1.8916  0.6110  1.8405
 5853TIP3   OH217564   4.117   2.684   1.240  0.2346 -0.2301 -0.1165
 5853TIP3    H117565   4.069   2.601   1.239 -1.0448  0.4923 -1.0833
 5853TIP3    H217566   4.113   2.715   1.149 -0.8960  1.7795  0.5755
 5854TIP3   OH217567   1.262   0.719   4.076  0.2040  0.6441 -0.0927
 5854TIP3    H117568   1.169   0.737   4.070  0.1313  0.5840  0.6752
 5854TIP3    H217569   1.299   0.797   4.117  0.3397  0.2898  0.4771
 5855TIP3   OH217570   3.301   0.163   0.844  0.9323  0.0529 -0.2715
 5855TIP3    H117571   3.367   0.096   0.825 -0.5668 -1.0652 -1.8345
 5855TIP3    H217572   3.238   0.155   0.772 -0.4134  1.7063  0.6710
 5856TIP3   OH217573   5.882   2.980   3.788 -0.4256  0.4925 -0.5349
 5856TIP3    H117574   5.930   2.913   3.739 -1.0778  0.1317 -0.6843
 5856TIP3    H217575   5.793   2.947   3.794 -0.4043  0.6024  0.7641
 5857TIP3   OH217576   2.767   0.286   1.709  0.0341 -0.3399  0.3544
 5857TIP3    H117577   2.743   0.348   1.639  2.6209  0.5671  0.1463
 5857TIP3    H217578   2.761   0.338   1.789  0.0767 -0.4586  0.4342
 5858TIP3   OH217579   0.134   3.203   1.715  0.0222  0.4253 -0.2504
 5858TIP3    H117580   0.221   3.214   1.753 -0.4882  1.5736  0.6593
 5858TIP3    H217581   0.144   3.232   1.624  0.5868  0.5074 -0.1683
 5859TIP3   OH217582   0.832   0.680   0.363 -0.3828  0.3770  0.1133
 5859TIP3    H117583   0.788   0.594   0.368  0.6500 -0.2214 -0.7645
 5859TIP3    H217584   0.769   0.735   0.317 -0.7456 -0.1262 -0.0115
 5860TIP3   OH217585   5.860   4.785   3.161  0.0925  0.4526  0.2861
 5860TIP3    H117586   5.856   4.841   3.084 -0.4082  2.5893  1.7672
 5860TIP3    H217587   5.790   4.721   3.148 -0.0733  0.8661 -0.9622
 5861TIP3   OH217588   6.032   1.539   4.573  0.3390  0.0366 -0.7163
 5861TIP3    H117589   6.070   1.568   4.490  1.2980 -0.3703 -0.4412
 5861TIP3    H217590   6.086   1.582   4.640  1.4898 -1.9028 -0.3044
 5862TIP3   OH217591   5.674   3.576   2.282 -0.4945 -0.4974 -0.1873
 5862TIP3    H117592   5.658   3.627   2.361 -0.8616 -0.6706 -0.1466
 5862TIP3    H217593   5.758   3.607   2.249  0.2130 -1.2090  0.8839
 5863TIP3   OH217594   3.752   3.037   2.498 -0.6022  1.0520  0.3863
 5863TIP3    H117595   3.766   3.132   2.496 -0.2897  1.0060  0.3972
 5863TIP3    H217596   3.731   3.018   2.589 -0.0169  1.0188  0.5155
 5864TIP3   OH217597   2.857   5.775   4.142 -0.0111  0.4350 -0.4122
 5864TIP3    H117598   2.814   5.771   4.056 -0.8204  1.6333 -0.0829
 5864TIP3    H217599   2.919   5.847   4.134  1.4542 -0.7949 -0.6334
 5865TIP3   OH217600   4.729   4.823   0.229  0.3153 -0.2530 -0.0063
 5865TIP3    H117601   4.705   4.733   0.209  1.1885 -0.9433  1.8359
 5865TIP3    H217602   4.769   4.819   0.315  2.0083  1.6384 -0.6127
 5866TIP3   OH217603   4.184   3.822   3.160 -0.2896 -0.9544  0.0474
 5866TIP3    H117604   4.211   3.912   3.144 -0.8965 -0.5588  1.1300
 5866TIP3    H217605   4.108   3.830   3.218 -0.4275 -2.1568  0.0511
 5867TIP3   OH217606   1.119   5.673   4.144 -0.2519 -0.2133 -0.5122
 5867TIP3    H117607   1.149   5.734   4.076 -1.1305 -0.7883 -1.4504
 5867TIP3    H217608   1.064   5.727   4.201  3.0790  1.0938  1.7901
 5868TIP3   OH217609   3.504   4.112   2.834  0.0107 -0.4379  0.6130
 5868TIP3    H117610   3.548   4.156   2.907 -1.3648  0.8153  0.7336
 5868TIP3    H217611   3.414   4.098   2.865 -0.3856 -0.5726 -0.5604
 5869TIP3   OH217612   5.982   3.310   2.725 -0.2399  0.0254  0.7519
 5869TIP3    H117613   6.036   3.264   2.660 -0.7975 -0.0012  0.3011
 5869TIP3    H217614   6.045   3.352   2.783  0.2670  0.2333  0.0559
 5870TIP3   OH217615   0.939   0.279   2.356 -0.4711 -0.0291  0.2733
 5870TIP3    H117616   0.945   0.260   2.263  1.5158 -1.6220  0.6366
 5870TIP3    H217617   0.893   0.362   2.361 -1.1348 -0.1805 -2.0748
 5871TIP3   OH217618   4.332   5.230   2.048 -0.5634  0.3898 -0.3511
 5871TIP3    H117619   4.368   5.318   2.050 -0.7780  0.4842 -0.5630
 5871TIP3    H217620   4.239   5.242   2.030 -0.9100  0.1980  1.2145
 5872TIP3   OH217621   2.912   2.015   3.941 -0.2000 -0.3404  0.3094
 5872TIP3    H117622   2.961   2.067   3.877 -0.8392 -0.1128 -0.0035
 5872TIP3    H217623   2.979   1.978   3.999  0.2775  0.6566  0.4060
 5873TIP3   OH217624   3.882   2.270   2.153 -0.3265  0.3313 -0.1681
 5873TIP3    H117625   3.824   2.344   2.134  0.6868  1.2391  0.2202
 5873TIP3    H217626   3.874   2.256   2.247  2.3887  2.5219  0.5152
 5874TIP3   OH217627   2.828   3.931   0.822 -0.0142  0.3319 -0.0022
 5874TIP3    H117628   2.745   3.979   0.815  0.4796  1.0102 -1.9681
 5874TIP3    H217629   2.807   3.852   0.871 -1.6931  0.7686  0.0322
 5875TIP3   OH217630   3.936   0.638   4.719  0.1712 -0.0171  0.4524
 5875TIP3    H117631   3.891   0.556   4.740 -0.1890  0.2919  0.9292
 5875TIP3    H217632   3.893   0.669   4.639  0.4894 -0.4261  0.1235
 5876TIP3   OH217633   3.460   2.885   4.821 -0.0361  0.3685  0.1659
 5876TIP3    H117634   3.396   2.940   4.776  0.1116  0.2742 -0.1580
 5876TIP3    H217635   3.528   2.946   4.849  0.4018  0.2804 -0.6752
 5877TIP3   OH217636   3.237   0.508   2.625  0.4234  0.1531  0.6309
 5877TIP3    H117637   3.150   0.531   2.659  0.8003  1.7987  0.5995
 5877TIP3    H217638   3.298   0.560   2.678  1.1623  1.1959 -1.1391
 5878TIP3   OH217639   3.740   1.909   0.541  0.1848 -0.2068 -0.1710
 5878TIP3    H117640   3.661   1.962   0.553  0.5504  0.6505 -1.4040
 5878TIP3    H217641   3.766   1.884   0.630 -2.0184 -1.3637  0.2315
 5879TIP3   OH217642   0.300   4.276   4.237  0.2497 -0.5911  0.1043
 5879TIP3    H117643   0.362   4.205   4.254  1.0918  0.3904  1.3177
 5879TIP3    H217644   0.254   4.288   4.320  0.8936  0.9782  0.2703
 5880TIP3   OH217645   5.500   2.480   4.504 -0.1114  0.6491 -0.2591
 5880TIP3    H117646   5.432   2.436   4.452  1.5082 -1.0787 -1.0311
 5880TIP3    H217647   5.580   2.433   4.483  0.9377  1.0289  2.4879
 5881TIP3   OH217648   3.134   3.454   2.286 -0.4394  0.2517  0.0788
 5881TIP3    H117649   3.127   3.542   2.323 -0.6436  0.0435  0.5380
 5881TIP3    H217650   3.228   3.436   2.284 -0.2500  1.1870 -1.7109
 5882TIP3   OH217651   4.087   1.544   5.106 -0.5368 -0.7044  0.2655
 5882TIP3    H117652   4.119   1.457   5.128  0.7356 -0.5815 -0.9367
 5882TIP3    H217653   3.992   1.539   5.119 -0.8857 -3.1148 -2.2520
 5883TIP3   OH217654   3.261   4.746   4.295 -0.3945  0.1368  0.2344
 5883TIP3    H117655   3.201   4.740   4.369 -0.3436  0.9487  0.3471
 5883TIP3    H217656   3.345   4.768   4.334 -0.5418  1.4239 -0.1171
 5884TIP3   OH217657   6.225   0.763   3.092  0.1851 -0.5989 -0.8201
 5884TIP3    H117658   6.202   0.851   3.061  2.5203  0.5327  0.4022
 5884TIP3    H217659   6.300   0.737   3.039  1.5409 -0.4333  0.9337
 5885TIP3   OH217660   0.817   0.905   4.136  0.1331  0.5626  0.1402
 5885TIP3    H117661   0.802   0.983   4.189  0.1861  0.5302  0.2042
 5885TIP3    H217662   0.808   0.832   4.198  0.0750  0.5175  0.0794
 5886TIP3   OH217663   4.350   4.737   1.831  0.5916 -0.2346  0.9406
 5886TIP3    H117664   4.268   4.782   1.810 -1.5601 -2.5853  3.5277
 5886TIP3    H217665   4.355   4.665   1.768 -0.1913 -0.9620  1.6780
 5887TIP3   OH217666   1.926   5.193   0.089  0.5444 -0.0885 -0.0710
 5887TIP3    H117667   1.944   5.229   0.002 -2.6946 -0.6017 -1.1076
 5887TIP3    H217668   1.918   5.270   0.145 -0.7052  0.5357 -1.0306
 5888TIP3   OH217669   3.519   4.034   4.293 -0.4544 -0.0124 -0.6597
 5888TIP3    H117670   3.482   3.957   4.336  0.5900 -0.5060 -0.6078
 5888TIP3    H217671   3.456   4.104   4.309  0.4070  0.1583  2.7227
 5889TIP3   OH217672   5.061   3.679   1.863 -0.1481 -0.4551  0.1575
 5889TIP3    H117673   5.148   3.709   1.835 -0.8441  1.1830 -0.3543
 5889TIP3    H217674   5.035   3.616   1.796 -0.1151  0.4308 -0.7065
 5890TIP3   OH217675   4.387   2.848   1.041 -0.1653 -0.6950 -0.3460
 5890TIP3    H117676   4.432   2.912   1.096  2.4360  0.7889 -3.8486
 5890TIP3    H217677   4.294   2.863   1.058  0.4240  2.3318  0.7806
 5891TIP3   OH217678   3.504   0.852   2.897  0.4580  0.5020  0.0952
 5891TIP3    H117679   3.477   0.782   2.956  0.5087 -0.2996 -0.8195
 5891TIP3    H217680   3.589   0.880   2.931 -1.3384  3.1008  3.0504
 5892TIP3   OH217681   5.483   0.177   4.770 -0.3271 -0.0105 -0.1297
 5892TIP3    H117682   5.472   0.235   4.845  1.6833  0.8996 -0.4701
 5892TIP3    H217683   5.445   0.226   4.696 -0.5577 -0.0767 -0.0578
 5893TIP3   OH217684   5.673   1.673   2.226  0.0887 -0.2315 -0.3656
 5893TIP3    H117685   5.736   1.717   2.169 -0.4603 -0.2385 -0.9874
 5893TIP3    H217686   5.692   1.707   2.313  1.2413 -0.5732 -0.4753
 5894TIP3   OH217687   4.407   0.436   1.414  0.2739 -0.1835  0.7721
 5894TIP3    H117688   4.372   0.426   1.503 -0.2900 -0.2850  0.5428
 5894TIP3    H217689   4.496   0.467   1.427 -0.2720  1.2218  1.3546
 5895TIP3   OH217690   2.363   2.491   0.982  0.0790  0.2792 -0.7127
 5895TIP3    H117691   2.343   2.436   1.057 -0.8621  1.6233  0.0741
 5895TIP3    H217692   2.369   2.430   0.908 -2.1979 -0.7782 -0.1166
 5896TIP3   OH217693   4.603   0.051   5.060  0.0900  0.4889  0.3898
 5896TIP3    H117694   4.530  -0.005   5.035  0.5786 -0.3642  0.8336
 5896TIP3    H217695   4.564   0.137   5.072 -0.9632 -0.0844  1.2737
 5897TIP3   OH217696   1.204   0.125   1.243  0.4701 -0.0020 -0.0830
 5897TIP3    H117697   1.170   0.215   1.239  1.2674  0.2818 -0.5949
 5897TIP3    H217698   1.128   0.072   1.268 -0.2960  0.6550 -0.9548
 5898TIP3   OH217699   4.479   4.252   1.272 -0.1463 -0.3554  0.1392
 5898TIP3    H117700   4.561   4.300   1.273 -0.1017 -0.4069 -0.8530
 5898TIP3    H217701   4.500   4.169   1.229 -0.7117 -0.3719 -0.1101
 5899TIP3   OH217702   4.174   0.588   4.159  0.3246  0.3944 -0.1658
 5899TIP3    H117703   4.148   0.562   4.070 -0.4049 -1.6227  0.5811
 5899TIP3    H217704   4.220   0.671   4.147 -1.9228  1.4655 -2.1413
 5900TIP3   OH217705   5.281   3.023   0.473  0.1551 -0.5435  0.6428
 5900TIP3    H117706   5.246   3.077   0.544  1.1415 -0.7275  1.2847
 5900TIP3    H217707   5.226   2.944   0.474 -0.1434 -0.3367  0.8892
 5901TIP3   OH217708   6.161   5.639   1.479  0.5346  0.2983  0.7349
 5901TIP3    H117709   6.146   5.632   1.573 -1.7983 -1.2048  0.3320
 5901TIP3    H217710   6.199   5.556   1.454 -1.8643 -0.6665 -0.0427
 5902TIP3   OH217711   4.329   1.755   2.169  0.3598  0.6007  0.0817
 5902TIP3    H117712   4.339   1.731   2.262  0.1783 -1.8011 -0.4550
 5902TIP3    H217713   4.234   1.755   2.155  0.4052  0.3177 -0.2348
 5903TIP3   OH217714   5.594   2.357   3.631  0.1371 -0.8169  0.0634
 5903TIP3    H117715   5.629   2.315   3.553  1.9779  0.1690  0.3023
 5903TIP3    H217716   5.521   2.411   3.598  0.2160 -1.2231 -0.8044
 5904TIP3   OH217717   6.292   0.302   3.954 -0.1841  0.4668  0.2472
 5904TIP3    H117718   6.239   0.376   3.927 -1.1879 -0.4932 -0.4694
 5904TIP3    H217719   6.234   0.248   4.007  0.1237 -0.4861 -0.3566
 5905TIP3   OH217720   0.781   5.055   4.734  0.8480 -0.2820 -0.3677
 5905TIP3    H117721   0.737   5.043   4.650  0.9094  0.0569 -0.4498
 5905TIP3    H217722   0.758   4.977   4.784 -1.9538  0.9614  0.5023
 5906TIP3   OH217723   0.746   5.112   3.681 -0.5824  0.1458 -0.1798
 5906TIP3    H117724   0.709   5.031   3.647  0.1527 -0.5969  0.7577
 5906TIP3    H217725   0.766   5.094   3.773  0.4228  1.0921 -0.1811
 5907TIP3   OH217726   2.622   2.767   3.568  0.4799 -0.3335 -0.3022
 5907TIP3    H117727   2.595   2.731   3.652  1.4537 -0.7948 -0.1795
 5907TIP3    H217728   2.699   2.820   3.588 -0.2631  0.9437 -0.6556
 5908TIP3   OH217729   2.218   2.398   3.727  0.0004 -0.0452  0.6597
 5908TIP3    H117730   2.204   2.462   3.797 -0.0707 -0.0233  0.6259
 5908TIP3    H217731   2.130   2.375   3.698  0.0303 -0.0291  0.5551
 5909TIP3   OH217732   3.903   3.937   3.967 -0.3051 -0.0152  0.1419
 5909TIP3    H117733   3.857   3.923   4.050  0.3635 -1.2646  0.3291
 5909TIP3    H217734   3.904   4.032   3.956 -0.1801  0.1928  1.7018
 5910TIP3   OH217735   1.189   3.620   3.975  0.1991  0.5957 -0.0759
 5910TIP3    H117736   1.252   3.577   3.917 -1.0188 -1.5213  0.0510
 5910TIP3    H217737   1.218   3.596   4.063  0.3816  1.3606  0.0789
 5911TIP3   OH217738   1.264   5.128   3.669 -0.1383  0.1861  0.1605
 5911TIP3    H117739   1.316   5.206   3.651  0.7816 -0.1373  1.3434
 5911TIP3    H217740   1.179   5.162   3.697  0.6077  0.8189  1.7700
 5912TIP3   OH217741   1.761   3.707   4.005 -0.1897  0.1847  1.0292
 5912TIP3    H117742   1.710   3.783   4.034 -2.3946 -0.6892 -0.2803
 5912TIP3    H217743   1.746   3.704   3.910  4.2069  1.1358  0.1040
 5913TIP3   OH217744   1.869   1.467   3.560  0.1846 -0.8404  0.2369
 5913TIP3    H117745   1.865   1.556   3.596 -0.4102 -0.1450 -1.4638
 5913TIP3    H217746   1.778   1.441   3.550  0.2403 -0.3945 -2.0953
 5914TIP3   OH217747   2.577   3.145   0.391  0.4337  0.4815 -0.8486
 5914TIP3    H117748   2.611   3.085   0.325 -0.5396 -2.3219  1.0075
 5914TIP3    H217749   2.640   3.141   0.463  0.2035  1.5041 -0.5661
 5915TIP3   OH217750   4.069   2.473   4.078  0.1787  0.2700  0.2220
 5915TIP3    H117751   4.130   2.399   4.082 -1.4451 -1.1514  0.2246
 5915TIP3    H217752   4.049   2.492   4.170 -0.4886 -0.2615  0.1942
 5916TIP3   OH217753   3.277   0.363   2.105 -0.1920  0.4918  0.3930
 5916TIP3    H117754   3.246   0.363   2.195 -2.9723  0.6979 -0.4563
 5916TIP3    H217755   3.215   0.420   2.058  2.0961  1.6921 -1.3865
 5917TIP3   OH217756   1.070   0.583   2.631 -0.6450  0.8332  0.1136
 5917TIP3    H117757   1.129   0.547   2.564 -2.4650 -0.4872 -0.8401
 5917TIP3    H217758   1.090   0.677   2.631  0.0471  0.7313 -1.6283
 5918TIP3   OH217759   4.243   5.205   1.085  0.0012 -0.1692 -0.2572
 5918TIP3    H117760   4.318   5.251   1.047  0.2754  0.1015  0.5817
 5918TIP3    H217761   4.232   5.128   1.029  1.3562 -0.5910  0.0025
 5919TIP3   OH217762   3.624   1.148   0.805  0.2469  0.6215  0.0412
 5919TIP3    H117763   3.683   1.156   0.880 -0.1496  0.3470  0.3853
 5919TIP3    H217764   3.539   1.178   0.836 -0.2166 -0.6626  0.0812
 5920TIP3   OH217765   0.963   4.687   0.618  0.0047  0.0377 -0.0906
 5920TIP3    H117766   0.882   4.738   0.627  0.7298  1.3979 -0.8416
 5920TIP3    H217767   0.985   4.662   0.707 -1.4159 -0.6681  0.0968
 5921TIP3   OH217768   0.531   3.054   3.529  0.0368 -0.2652  0.0753
 5921TIP3    H117769   0.552   3.135   3.482  4.6060  0.1219  2.2002
 5921TIP3    H217770   0.516   3.083   3.620  2.1814 -1.6998  0.9624
 5922TIP3   OH217771   1.737   3.355   1.644  0.1318 -0.4286 -0.0296
 5922TIP3    H117772   1.780   3.418   1.702  2.9948 -2.2043  0.0126
 5922TIP3    H217773   1.747   3.392   1.556  1.1751 -0.4431  0.0638
 5923TIP3   OH217774   3.714   0.861   3.877  0.1599 -0.0091 -0.3444
 5923TIP3    H117775   3.620   0.847   3.886 -0.3954  1.3661 -3.0993
 5923TIP3    H217776   3.750   0.773   3.869 -0.8755 -0.5434  0.4859
 5924TIP3   OH217777   5.092   3.881   2.248 -0.0080 -0.0853  0.4910
 5924TIP3    H117778   5.002   3.903   2.224 -0.1941 -0.8373  0.4651
 5924TIP3    H217779   5.146   3.921   2.180 -0.3552 -0.0099  0.2572
 5925TIP3   OH217780   5.178   0.799   3.751 -0.0197  0.3163 -0.4366
 5925TIP3    H117781   5.105   0.860   3.759 -0.8591 -0.6732 -0.2962
 5925TIP3    H217782   5.230   0.814   3.830 -0.5719  0.4109 -0.0799
 5926TIP3   OH217783   2.586   0.961   2.782 -0.0292 -0.1083 -0.1358
 5926TIP3    H117784   2.668   0.959   2.832  0.2719  0.4246 -0.6101
 5926TIP3    H217785   2.613   0.963   2.691 -0.5849 -1.3388 -0.3540
 5927TIP3   OH217786   2.391   2.232   4.667 -0.0519 -0.6139 -0.0641
 5927TIP3    H117787   2.399   2.293   4.593 -1.5046 -1.5562 -1.0461
 5927TIP3    H217788   2.443   2.273   4.736  0.3361  0.9314 -1.1919
 5928TIP3   OH217789   0.680   3.354   1.405 -0.6543  0.0208  0.2915
 5928TIP3    H117790   0.705   3.413   1.334  0.7460 -1.3558 -0.4186
 5928TIP3    H217791   0.717   3.394   1.484  1.6950 -0.6473 -0.4000
 5929TIP3   OH217792   0.293   1.601   0.116 -0.5181  0.7115 -0.6146
 5929TIP3    H117793   0.297   1.513   0.079  0.4099  0.4649  0.0125
 5929TIP3    H217794   0.311   1.659   0.042 -0.2200  0.3152 -0.8589
 5930TIP3   OH217795   3.103   0.492   1.943  0.1132 -0.0960 -0.2324
 5930TIP3    H117796   3.044   0.430   1.986  1.3394 -0.4435  1.0257
 5930TIP3    H217797   3.077   0.578   1.976  0.1004 -0.2146  0.0710
 5931TIP3   OH217798   1.348   5.596   4.678 -0.1939 -0.2552  0.3435
 5931TIP3    H117799   1.273   5.641   4.719 -1.3658 -2.8564  1.3126
 5931TIP3    H217800   1.408   5.580   4.751 -0.3119 -1.1757  0.2502
 5932TIP3   OH217801   4.447   4.110   3.780  0.0723  0.1301 -0.0944
 5932TIP3    H117802   4.411   4.177   3.722 -0.6815 -0.0072  0.1965
 5932TIP3    H217803   4.493   4.159   3.848 -3.2651  0.6270  2.0459
 5933TIP3   OH217804   1.375   0.757   1.722 -0.4040 -0.1543 -0.3505
 5933TIP3    H117805   1.311   0.805   1.775 -1.3328 -1.3005 -0.4055
 5933TIP3    H217806   1.326   0.728   1.645  0.1348 -1.1851 -0.3197
 5934TIP3   OH217807   1.271   4.466   3.250  0.1595  0.4453 -0.8935
 5934TIP3    H117808   1.343   4.408   3.272 -0.3430 -0.6389 -2.0110
 5934TIP3    H217809   1.266   4.527   3.324  1.6014 -0.0420 -0.3666
 5935TIP3   OH217810   2.751   5.091   5.082  0.7204  0.9146  0.1498
 5935TIP3    H117811   2.836   5.048   5.095  0.0225 -0.4799  0.3810
 5935TIP3    H217812   2.726   5.120   5.170 -0.0726 -0.7818  0.5314
 5936TIP3   OH217813   4.174   5.131   3.145  0.0035  0.2317 -0.1960
 5936TIP3    H117814   4.100   5.143   3.203  0.4786  0.4422  0.3788
 5936TIP3    H217815   4.137   5.093   3.065 -0.7104  0.3274  0.0871
 5937TIP3   OH217816   6.261   2.279   4.518 -0.2209  0.1191 -0.3588
 5937TIP3    H117817   6.341   2.253   4.473 -0.2255  2.2118 -1.6934
 5937TIP3    H217818   6.288   2.350   4.576 -0.9249  0.0665  0.0489
 5938TIP3   OH217819   5.655   0.871   1.363 -0.0652  0.4643 -0.0253
 5938TIP3    H117820   5.682   0.854   1.273 -0.4057  0.5480 -0.1418
 5938TIP3    H217821   5.566   0.838   1.369  0.3837 -0.7069  0.6275
 5939TIP3   OH217822   1.752   0.180   2.558  0.1983  0.0014  0.2001
 5939TIP3    H117823   1.811   0.252   2.535  0.8305 -0.3606  0.6580
 5939TIP3    H217824   1.805   0.101   2.548 -0.1824 -0.3260  0.6980
 5940TIP3   OH217825   4.000   0.713   0.365 -0.2150  0.1437  0.0987
 5940TIP3    H117826   4.059   0.769   0.315 -0.2966 -0.3602 -0.5806
 5940TIP3    H217827   4.059   0.658   0.417 -0.1072  0.2019  0.0397
 5941TIP3   OH217828   5.835   2.119   1.874  0.4400 -0.3752  0.3040
 5941TIP3    H117829   5.775   2.088   1.942 -1.5671  1.6535 -0.3965
 5941TIP3    H217830   5.920   2.121   1.917 -0.1115 -2.5088  1.6340
 5942TIP3   OH217831   5.403   1.021   3.020  0.1160 -0.0079 -0.4595
 5942TIP3    H117832   5.444   0.935   3.026 -1.2290 -0.6236  0.3072
 5942TIP3    H217833   5.441   1.071   3.092  1.1140  0.1517 -1.0817
 5943TIP3   OH217834   6.248   5.342   0.762  0.0958 -0.3211 -0.7872
 5943TIP3    H117835   6.239   5.340   0.667  1.3908 -0.6164 -0.9188
 5943TIP3    H217836   6.320   5.402   0.779 -2.4508  2.7393  0.2583
 5944TIP3   OH217837   0.190   1.609   3.486 -0.9746 -0.6432  0.1744
 5944TIP3    H117838   0.211   1.589   3.577 -0.8624 -1.4330 -0.0187
 5944TIP3    H217839   0.225   1.535   3.436 -1.7401 -0.6185 -0.4278
 5945TIP3   OH217840   3.801   0.133   1.680  0.0373  0.4454  0.6447
 5945TIP3    H117841   3.751   0.187   1.618 -0.1275 -0.1790  0.2321
 5945TIP3    H217842   3.870   0.192   1.712  0.2860  0.6981 -0.3221
 5946TIP3   OH217843   4.247   3.506   3.739 -0.1716 -0.0735  0.1495
 5946TIP3    H117844   4.270   3.563   3.666 -1.0110  1.2020  0.8421
 5946TIP3    H217845   4.156   3.482   3.724 -0.5538  0.7234  1.0856
 5947TIP3   OH217846   1.557   0.408   4.892 -0.0889 -0.6971  0.0060
 5947TIP3    H117847   1.559   0.471   4.821  1.0074 -0.9304 -0.1854
 5947TIP3    H217848   1.542   0.461   4.971  0.0864 -0.2827 -0.2382
 5948TIP3   OH217849   6.006   5.885   3.071  0.7804 -0.4654  0.0728
 5948TIP3    H117850   6.076   5.820   3.078  0.6212 -0.6773 -0.2697
 5948TIP3    H217851   5.976   5.878   2.980 -0.6103 -1.3479  0.5533
 5949TIP3   OH217852   1.043   5.062   4.777 -0.2281  0.7462  0.3290
 5949TIP3    H117853   1.072   5.146   4.813 -0.2889  0.2870  1.4997
 5949TIP3    H217854   0.947   5.069   4.775 -0.2474  0.6003  0.7001
 5950TIP3   OH217855   5.312   4.046   1.754 -0.5042 -0.3734  0.2496
 5950TIP3    H117856   5.324   4.111   1.684 -1.3531  0.0838  0.5204
 5950TIP3    H217857   5.352   3.966   1.719 -0.2837  0.0414 -0.4733
 5951TIP3   OH217858   4.101   0.803   1.457 -0.2542  0.2626 -0.2509
 5951TIP3    H117859   4.173   0.756   1.416  0.2842  1.6728 -0.9813
 5951TIP3    H217860   4.045   0.830   1.384 -1.5758 -0.8201  0.3017
 5952TIP3   OH217861   0.994   1.693   2.338  0.4627 -0.4132  0.6128
 5952TIP3    H117862   1.087   1.712   2.333 -0.1222  2.6088 -1.6978
 5952TIP3    H217863   0.964   1.738   2.416  0.7453 -0.4941  0.7699
 5953TIP3   OH217864   4.220   4.976   3.987  0.2657  0.0523  0.2324
 5953TIP3    H117865   4.194   4.900   4.039 -0.0007 -0.4713 -0.6365
 5953TIP3    H217866   4.264   4.938   3.911 -1.3642  0.6575 -1.0700
 5954TIP3   OH217867   1.902   3.663   4.567  0.1556 -0.2619 -0.1509
 5954TIP3    H117868   1.809   3.659   4.593 -1.1346 -1.9357 -4.3085
 5954TIP3    H217869   1.911   3.749   4.526  0.4067 -0.1685  0.1009
 5955TIP3   OH217870   2.935   2.245   0.161  0.2845 -0.2533 -0.1228
 5955TIP3    H117871   3.000   2.205   0.218 -0.7081  0.0632  1.2992
 5955TIP3    H217872   2.984   2.307   0.107  1.2024 -0.3042  0.6409
 5956TIP3   OH217873   1.959   2.681   3.672  0.4805 -0.4047 -0.0168
 5956TIP3    H117874   1.947   2.657   3.764 -1.1829 -0.3691 -0.1910
 5956TIP3    H217875   1.948   2.598   3.624  1.0023 -0.3650 -0.2110
 5957TIP3   OH217876   2.431   5.396   3.468  0.4688 -0.0706 -0.6497
 5957TIP3    H117877   2.523   5.384   3.490  0.2817  0.9073  0.8120
 5957TIP3    H217878   2.432   5.433   3.380  1.4272 -0.7728 -0.9469
 5958TIP3   OH217879   1.632   1.604   0.180  0.6255 -0.4328  0.2311
 5958TIP3    H117880   1.604   1.564   0.098  0.3445 -0.8703  0.5314
 5958TIP3    H217881   1.623   1.698   0.166 -1.6912 -0.5479  0.5130
 5959TIP3   OH217882   3.283   5.672   1.231  0.0576 -0.4015  0.5262
 5959TIP3    H117883   3.267   5.577   1.229 -0.0205 -0.3828  0.1745
 5959TIP3    H217884   3.268   5.700   1.141  0.2964 -0.0891  0.5848
 5960TIP3   OH217885   0.784   2.478   4.400  0.2153  0.3954  0.1244
 5960TIP3    H117886   0.783   2.386   4.371  1.5307  0.6922 -0.9905
 5960TIP3    H217887   0.782   2.528   4.319  0.5285  1.3396  0.6929
 5961TIP3   OH217888   4.512   4.704   3.280 -0.2679 -0.4308 -0.4432
 5961TIP3    H117889   4.496   4.691   3.186 -3.2859 -0.6687  0.0107
 5961TIP3    H217890   4.448   4.770   3.306  0.3002 -0.6036  1.5428
 5962TIP3   OH217891   5.908   1.370   1.914 -0.0009  0.1659  0.2274
 5962TIP3    H117892   5.884   1.306   1.848  1.5887 -1.1886  0.8778
 5962TIP3    H217893   5.838   1.366   1.979 -1.1924  0.9735 -0.9585
 5963TIP3   OH217894   5.969   1.749   3.310 -0.7340  0.1983  0.2767
 5963TIP3    H117895   5.875   1.766   3.306 -1.3164 -2.4299  0.4034
 5963TIP3    H217896   5.996   1.784   3.395 -1.7010  0.5652  0.4490
 5964TIP3   OH217897   1.214   4.921   4.064 -0.9086  0.3206  0.2608
 5964TIP3    H117898   1.173   4.900   3.980  0.6201 -3.0349  0.1927
 5964TIP3    H217899   1.308   4.911   4.048 -0.5183  0.5562  2.1543
 5965TIP3   OH217900   5.745   5.758   3.786 -0.3112 -0.1798  0.3817
 5965TIP3    H117901   5.662   5.763   3.740 -1.5319  1.5691  2.6116
 5965TIP3    H217902   5.764   5.848   3.813  2.5859 -0.4397 -0.4572
 5966TIP3   OH217903   5.095   1.955   4.601 -0.0059  0.6007  0.5915
 5966TIP3    H117904   5.184   1.962   4.568  0.7179 -0.8600  2.0752
 5966TIP3    H217905   5.076   1.861   4.598 -0.4953  0.5809  2.6920
 5967TIP3   OH217906   1.605   1.906   1.409 -0.6517  0.6626  0.3722
 5967TIP3    H117907   1.549   1.868   1.342  0.0905 -0.0638  0.1486
 5967TIP3    H217908   1.672   1.953   1.361 -0.6263  0.8830  0.6221
 5968TIP3   OH217909   6.186   2.756   2.471  0.5158  0.2338 -0.3558
 5968TIP3    H117910   6.242   2.679   2.473  0.6789  0.3652  0.8842
 5968TIP3    H217911   6.132   2.745   2.393 -1.4696 -2.5810  1.2494
 5969TIP3   OH217912   3.117   3.936   2.451  0.0590 -0.3334 -0.3774
 5969TIP3    H117913   3.022   3.924   2.441  0.2142 -1.3420 -0.7108
 5969TIP3    H217914   3.134   3.923   2.544 -0.2599  0.9010 -0.1241
 5970TIP3   OH217915   4.984   5.343   1.108  0.6902 -0.2042 -0.1418
 5970TIP3    H117916   5.078   5.347   1.127  0.8865  2.1911 -1.2509
 5970TIP3    H217917   4.975   5.386   1.023 -1.4240 -0.5373 -0.1439
 5971TIP3   OH217918   1.026   3.436   2.698  0.4756  0.3376 -0.0584
 5971TIP3    H117919   0.953   3.449   2.638 -0.0232  0.9970  0.6747
 5971TIP3    H217920   0.995   3.369   2.759  0.4939  0.5902  0.2304
 5972TIP3   OH217921   0.331   4.637   5.145 -0.3430  0.3316 -0.7812
 5972TIP3    H117922   0.397   4.682   5.092 -0.2916 -0.0669 -1.0586
 5972TIP3    H217923   0.338   4.678   5.231 -0.3966  0.9572 -1.0666
 5973TIP3   OH217924   4.485   5.759   2.824  0.1807 -0.3696  0.4721
 5973TIP3    H117925   4.578   5.740   2.820 -0.1971 -2.2548 -1.7305
 5973TIP3    H217926   4.478   5.850   2.795  1.4041  0.3292  2.2295
 5974TIP3   OH217927   1.427   4.253   3.228  0.5307 -0.6088 -0.3412
 5974TIP3    H117928   1.485   4.207   3.290 -2.3074 -1.0270  2.2897
 5974TIP3    H217929   1.378   4.183   3.185 -1.2299 -0.2846  0.9859
 5975TIP3   OH217930   0.695   4.696   0.574  0.2142 -0.0328 -1.0454
 5975TIP3    H117931   0.617   4.649   0.548 -1.1252  2.0661 -1.0412
 5975TIP3    H217932   0.733   4.729   0.492  0.8654 -0.6658 -1.0102
 5976TIP3   OH217933   2.029   5.193   2.841  0.0249  0.2471  0.0830
 5976TIP3    H117934   1.977   5.238   2.907 -0.6649  0.0023 -0.2797
 5976TIP3    H217935   2.106   5.160   2.889  0.4776  1.6632  0.3753
 5977TIP3   OH217936   4.570   2.029   0.053  0.3939  0.3777  0.2696
 5977TIP3    H117937   4.656   2.008   0.088  0.4410  2.3416  1.5507
 5977TIP3    H217938   4.540   2.102   0.108 -0.7498  1.8189 -2.1252
 5978TIP3   OH217939   1.470   5.051   0.870  0.2512  0.3974 -0.0951
 5978TIP3    H117940   1.469   5.146   0.865 -0.5287  0.3732 -0.6819
 5978TIP3    H217941   1.441   5.022   0.784  0.0148 -0.3611  0.2274
 5979TIP3   OH217942   0.466   3.865   0.274  0.0522 -0.9011  0.7226
 5979TIP3    H117943   0.426   3.779   0.260 -0.7368 -0.5678  0.8630
 5979TIP3    H217944   0.492   3.894   0.186 -0.8951 -0.7196  0.4856
 5980TIP3   OH217945   4.018   4.375   0.397  0.3018  0.0283 -0.2270
 5980TIP3    H117946   3.966   4.367   0.477  2.3105 -0.2887  1.1218
 5980TIP3    H217947   4.108   4.370   0.427  1.1570 -2.4064 -2.7392
 5981TIP3   OH217948   4.613   2.620   1.400  0.0020  0.0389 -0.3330
 5981TIP3    H117949   4.552   2.640   1.329 -0.8199 -0.9434  0.0802
 5981TIP3    H217950   4.611   2.525   1.408  1.3726  0.0166 -0.1057
 5982TIP3   OH217951   3.696   2.921   2.758  0.5913 -0.1148 -0.0910
 5982TIP3    H117952   3.710   2.828   2.742  0.6070  0.3805 -3.6982
 5982TIP3    H217953   3.784   2.957   2.769  0.7051 -0.2383 -0.6078
 5983TIP3   OH217954   5.102   1.816   4.317 -0.1194 -0.2476  0.3171
 5983TIP3    H117955   5.145   1.754   4.375  1.7362 -0.3965 -1.1343
 5983TIP3    H217956   5.169   1.881   4.297 -1.1048  0.5239 -0.5945
 5984TIP3   OH217957   5.211   1.400   1.862 -0.2321  0.2538 -0.0502
 5984TIP3    H117958   5.232   1.489   1.834 -1.4089  0.4798 -0.2569
 5984TIP3    H217959   5.239   1.396   1.953  0.1106  0.7290 -0.1301
 5985TIP3   OH217960   0.560   3.910   1.936 -0.1383  0.1612 -0.2785
 5985TIP3    H117961   0.653   3.888   1.942 -0.4775 -1.3438 -0.2126
 5985TIP3    H217962   0.546   3.975   2.005  0.6254 -0.4824  0.5019
 5986TIP3   OH217963   4.575   0.846   4.811 -0.1027  0.4772  0.0759
 5986TIP3    H117964   4.491   0.867   4.852 -0.5563  0.0285 -0.6064
 5986TIP3    H217965   4.584   0.751   4.824  0.6473  0.6310  0.7736
 5987TIP3   OH217966   2.335   1.946   2.710  0.0069  0.6390 -0.2163
 5987TIP3    H117967   2.265   1.929   2.773  1.7020 -0.8870  1.4142
 5987TIP3    H217968   2.316   1.889   2.636 -0.3321 -0.0025  0.3552
 5988TIP3   OH217969   2.122   2.320   4.312  0.1349 -0.8334 -0.7209
 5988TIP3    H117970   2.078   2.377   4.376  0.1273 -1.8219  0.1768
 5988TIP3    H217971   2.201   2.367   4.288  0.0963 -0.4126 -0.0389
 5989TIP3   OH217972   4.545   4.505   0.680  0.2232  0.1517 -0.5119
 5989TIP3    H117973   4.465   4.473   0.722  2.0586 -2.0095  1.6648
 5989TIP3    H217974   4.582   4.568   0.741  0.6496  0.4109 -1.0261
 5990TIP3   OH217975   3.983   1.853   1.017 -0.1418  0.3711  0.1671
 5990TIP3    H117976   4.021   1.765   1.006 -0.7855  0.3020 -2.1427
 5990TIP3    H217977   4.056   1.913   1.000  0.4040  0.3478  2.1701
 5991TIP3   OH217978   1.776   3.031   3.586 -0.4483 -0.2756 -0.3092
 5991TIP3    H117979   1.839   3.020   3.657 -0.4343  0.4077 -0.2100
 5991TIP3    H217980   1.827   3.015   3.506 -0.4061 -0.7958 -0.1789
 5992TIP3   OH217981   4.620   5.650   1.573 -0.1966 -0.3710 -0.0927
 5992TIP3    H117982   4.620   5.699   1.655 -1.3864  0.1468 -0.3841
 5992TIP3    H217983   4.620   5.558   1.599  2.1736 -0.2701  0.4630
 5993TIP3   OH217984   0.587   0.610   4.378  0.7306 -0.4829 -0.2652
 5993TIP3    H117985   0.635   0.541   4.333  0.8786 -0.0421 -0.7869
 5993TIP3    H217986   0.501   0.611   4.335  0.8106 -0.1827 -0.4177
 5994TIP3   OH217987   5.542   1.352   3.544 -0.1132  0.2754  0.1664
 5994TIP3    H117988   5.608   1.290   3.575 -0.0395 -0.3692 -1.2433
 5994TIP3    H217989   5.479   1.299   3.497 -0.4730  1.1705 -0.3827
 5995TIP3   OH217990   2.261   5.015   2.299 -0.3032 -0.0852  0.4683
 5995TIP3    H117991   2.311   5.013   2.381 -1.7186 -0.6676  1.3693
 5995TIP3    H217992   2.304   4.950   2.243 -0.7639 -1.4991  1.6860
 5996TIP3   OH217993   1.565   5.646   3.449  0.7616 -0.1539 -0.2900
 5996TIP3    H117994   1.532   5.609   3.531 -0.0636  0.0755 -0.5092
 5996TIP3    H217995   1.566   5.572   3.389  2.7139 -0.6572  0.2754
 5997TIP3   OH217996   4.188   2.905   0.213  0.3184  0.0562  0.1363
 5997TIP3    H117997   4.265   2.854   0.190  0.0275 -0.1978 -0.2682
 5997TIP3    H217998   4.219   2.965   0.281  1.2968  1.1531 -1.2281
 5998TIP3   OH217999   0.845   4.818   0.386 -0.2529 -0.2490  0.6118
 5998TIP3    H118000   0.844   4.880   0.312 -1.9549 -1.3246 -0.3474
 5998TIP3    H218001   0.926   4.838   0.433  0.4212  1.1145 -1.0054
 5999TIP3   OH218002   5.738   0.596   2.621 -0.1341  0.4792 -0.1733
 5999TIP3    H118003   5.691   0.657   2.564 -0.8761  1.2463  1.2196
 5999TIP3    H218004   5.826   0.593   2.585 -0.4200  1.4146 -0.9953
 6000TIP3   OH218005   3.457   0.137   3.950 -0.0653  0.0268 -0.1067
 6000TIP3    H118006   3.521   0.195   3.907  0.1147  0.7833  1.1406
 6000TIP3    H218007   3.415   0.091   3.878  0.1611  1.3249 -1.1135
 6001TIP3   OH218008   2.068   0.142   3.913  0.0063 -0.0502 -0.0312
 6001TIP3    H118009   2.073   0.046   3.912  1.1506 -0.0149 -0.0445
 6001TIP3    H218010   1.988   0.163   3.866 -0.8380 -1.0237  0.9341
 6002TIP3   OH218011   2.842   1.813   2.687 -0.3625 -0.0857  0.0384
 6002TIP3    H118012   2.815   1.784   2.775 -0.5346 -0.7432 -0.2274
 6002TIP3    H218013   2.931   1.847   2.700 -0.9675  1.3244  0.7655
 6003TIP3   OH218014   2.125   4.841   1.956  0.4369  0.2216  0.0660
 6003TIP3    H118015   2.066   4.893   1.902  0.4536  0.9098  0.6967
 6003TIP3    H218016   2.213   4.864   1.923  0.4412  0.5453  0.3020
 6004TIP3   OH218017   1.875   2.685   2.729  0.3137 -0.0951  0.1688
 6004TIP3    H118018   1.795   2.633   2.740  1.0047 -1.4998 -1.0844
 6004TIP3    H218019   1.844   2.771   2.703 -0.8296 -0.1665  1.1738
 6005TIP3   OH218020   3.949   2.854   0.083  0.3683  0.0173 -0.0496
 6005TIP3    H118021   3.966   2.795   0.010  0.4874  0.1333 -0.1167
 6005TIP3    H218022   4.036   2.870   0.122  0.2315 -0.5440  0.5075
 6006TIP3   OH218023   4.089   0.240   1.597 -0.0029  0.3204  0.0317
 6006TIP3    H118024   4.139   0.166   1.632  0.8721  0.3992 -1.0162
 6006TIP3    H218025   4.066   0.214   1.508  1.8092  1.9448 -1.0045
 6007TIP3   OH218026   5.344   2.812   3.492  0.7974 -0.6478  0.6783
 6007TIP3    H118027   5.284   2.834   3.421 -1.1271  0.1281  2.4796
 6007TIP3    H218028   5.411   2.880   3.488  1.3635 -1.2303 -1.0236
 6008TIP3   OH218029   4.219   2.109   1.538  0.0791 -0.1621 -0.1855
 6008TIP3    H118030   4.218   2.057   1.619 -2.1023 -0.7856 -0.5421
 6008TIP3    H218031   4.162   2.183   1.558  1.2941  0.8732 -0.4664
 6009TIP3   OH218032   4.009   5.937   2.213 -0.4494 -0.5893  0.9131
 6009TIP3    H118033   3.956   5.875   2.163 -0.2848 -1.0500  1.2990
 6009TIP3    H218034   3.953   6.013   2.225 -0.6016 -0.6021  0.3063
 6010TIP3   OH218035   3.777   0.131   4.132  0.1855 -0.4406 -0.0889
 6010TIP3    H118036   3.710   0.165   4.191  0.0205 -2.0074  0.6948
 6010TIP3    H218037   3.806   0.050   4.173  0.6672 -1.1583 -1.7407
 6011TIP3   OH218038   1.649   1.858   0.111 -0.0017 -0.4446 -0.1024
 6011TIP3    H118039   1.645   1.944   0.154  1.4000  0.1212 -1.0091
 6011TIP3    H218040   1.619   1.874   0.022 -1.3069 -1.2692  0.1613
 6012TIP3   OH218041   0.673   2.301   3.825  0.3120 -0.4111 -0.1740
 6012TIP3    H118042   0.621   2.332   3.900 -0.5586 -1.6891 -0.2160
 6012TIP3    H218043   0.679   2.378   3.767  1.9987  0.9556  1.6940
 6013TIP3   OH218044   5.058   2.088   2.195  0.3057 -0.2180 -0.3854
 6013TIP3    H118045   5.134   2.147   2.192 -0.5211  0.8965  0.1398
 6013TIP3    H218046   5.029   2.083   2.104  0.3470  0.2420 -0.4275
 6014TIP3   OH218047   0.833   4.821   3.405 -0.8283 -0.0500 -0.0740
 6014TIP3    H118048   0.896   4.877   3.452 -1.4365 -1.1910  2.2585
 6014TIP3    H218049   0.873   4.734   3.406 -0.5479 -0.0082 -2.4101
 6015TIP3   OH218050   0.896   2.883   4.448 -1.1238  0.2319  0.3103
 6015TIP3    H118051   0.838   2.836   4.508 -1.3221 -0.1865 -0.1992
 6015TIP3    H218052   0.934   2.815   4.392 -0.3362  0.5351  0.4692
 6016TIP3   OH218053   2.391   0.603   4.792 -0.2316 -0.3775 -0.7137
 6016TIP3    H118054   2.371   0.650   4.874 -1.4391  0.6433 -1.5506
 6016TIP3    H218055   2.361   0.514   4.807 -0.5161 -0.1788 -0.0635
 6017TIP3   OH218056   4.901   4.672   1.028 -0.3755  0.6257 -0.4605
 6017TIP3    H118057   4.852   4.667   1.110 -0.3778 -0.1138 -0.5070
 6017TIP3    H218058   4.986   4.708   1.053 -0.6192  1.0541 -0.2423
 6018TIP3   OH218059   5.842   4.783   0.493  0.0620  0.2625  0.0477
 6018TIP3    H118060   5.907   4.719   0.462  0.8435  0.7153  0.7133
 6018TIP3    H218061   5.815   4.750   0.578  0.2384  0.6456  0.2557
 6019TIP3   OH218062   2.984   1.542   5.041 -0.5801 -0.8079 -0.0973
 6019TIP3    H118063   2.928   1.529   4.964  0.5485  0.6744 -1.2213
 6019TIP3    H218064   3.073   1.530   5.008 -0.0938 -0.3647  1.0220
 6020TIP3   OH218065   4.543   0.345   2.364  0.2047  0.4290  0.3326
 6020TIP3    H118066   4.538   0.403   2.288 -1.9574 -1.4511 -1.1103
 6020TIP3    H218067   4.476   0.379   2.424  0.3090  0.5844  0.3604
 6021TIP3   OH218068   5.796   4.653   2.794 -0.1162  0.9374 -0.4589
 6021TIP3    H118069   5.761   4.575   2.751  0.4746  0.2458  0.2874
 6021TIP3    H218070   5.890   4.639   2.797 -0.0807  1.3073  0.4082
 6022TIP3   OH218071   5.184   3.322   3.308  0.2455 -0.2437  0.0890
 6022TIP3    H118072   5.246   3.292   3.242 -0.0160  0.1266 -0.3283
 6022TIP3    H218073   5.099   3.321   3.264  0.1784  0.7254  0.1909
 6023TIP3   OH218074   1.786   5.619   0.522  0.0083  0.1571  0.1107
 6023TIP3    H118075   1.701   5.582   0.547 -1.4119  3.1571  0.1096
 6023TIP3    H218076   1.810   5.677   0.594  1.9448 -0.3643 -0.0514
 6024TIP3   OH218077   0.234   4.780   0.295 -1.0044 -0.2449 -0.2164
 6024TIP3    H118078   0.287   4.700   0.286  0.0393  0.3145  0.6656
 6024TIP3    H218079   0.155   4.751   0.339 -0.6120 -0.8021  0.1375
 6025TIP3   OH218080   0.235   3.582   3.506  0.1615  0.1062 -0.1085
 6025TIP3    H118081   0.312   3.626   3.471  0.2005 -0.6478 -1.0025
 6025TIP3    H218082   0.231   3.499   3.459 -0.1389 -0.6832  1.2633
 6026TIP3   OH218083   2.548   1.934   0.684 -0.7165 -0.2726 -0.4036
 6026TIP3    H118084   2.614   1.872   0.652 -1.1078 -0.6938 -0.3926
 6026TIP3    H218085   2.546   1.920   0.778  0.0097  0.5559 -0.2509
 6027TIP3   OH218086   5.569   3.964   1.507  0.0055  0.1738  0.4666
 6027TIP3    H118087   5.599   4.031   1.445  0.0225 -2.1670 -2.3099
 6027TIP3    H218088   5.499   3.918   1.459  0.9530 -2.6629  1.6061
 6028TIP3   OH218089   4.332   3.282   3.892 -0.1773 -0.4992  0.1155
 6028TIP3    H118090   4.401   3.237   3.841 -1.6710 -1.8720 -0.7901
 6028TIP3    H218091   4.301   3.351   3.834 -0.0450 -0.3249  0.2509
 6029TIP3   OH218092   6.031   4.209   3.318 -0.0958 -0.1635  0.3946
 6029TIP3    H118093   6.055   4.302   3.319  0.5817 -0.3080 -0.7823
 6029TIP3    H218094   6.103   4.165   3.363  0.9020 -0.3638 -1.2869
 6030TIP3   OH218095   0.435   0.705   1.315  0.1496  0.5611 -0.2881
 6030TIP3    H118096   0.517   0.655   1.322 -0.4524 -0.1969  2.7512
 6030TIP3    H218097   0.448   0.780   1.373 -0.5553  1.6299 -1.4640
 6031TIP3   OH218098   1.687   0.882   0.158 -0.0147 -0.5019  0.0471
 6031TIP3    H118099   1.774   0.860   0.125  0.0543 -0.9331  0.5036
 6031TIP3    H218100   1.686   0.849   0.247 -0.4549  0.0035  0.2364
 6032TIP3   OH218101   0.715   1.758   2.086  0.4322 -0.0441 -0.1721
 6032TIP3    H118102   0.659   1.758   2.008  1.1760  0.5825 -0.7260
 6032TIP3    H218103   0.793   1.806   2.059  0.9398 -0.2996  0.8014
 6033TIP3   OH218104   5.827   3.848   3.916  0.1294  0.4332  0.1396
 6033TIP3    H118105   5.911   3.892   3.927  0.1918  0.8101 -1.6083
 6033TIP3    H218106   5.764   3.905   3.959  0.6150  0.6830  0.5303
 6034TIP3   OH218107   3.605   0.611   2.414 -0.3055 -0.3043 -0.0402
 6034TIP3    H118108   3.528   0.658   2.447 -0.1396  0.6811 -0.9856
 6034TIP3    H218109   3.624   0.654   2.331  0.2763 -1.6281 -0.6065
 6035TIP3   OH218110   5.088   0.938   1.334  0.0437 -0.1213 -0.0912
 6035TIP3    H118111   5.102   1.003   1.403  0.0070 -1.0279  0.7970
 6035TIP3    H218112   4.993   0.923   1.334  0.2677 -1.8584  1.3358
 6036TIP3   OH218113   4.186   3.677   5.066 -0.0371 -0.2840 -0.5186
 6036TIP3    H118114   4.274   3.642   5.050  0.0638  0.7071 -2.4975
 6036TIP3    H218115   4.200   3.747   5.130  0.4510 -0.7525 -0.0948
 6037TIP3   OH218116   2.068   3.686   1.812 -0.2737 -0.1816  0.3107
 6037TIP3    H118117   2.055   3.700   1.906  1.2759 -2.7689  1.0259
 6037TIP3    H218118   2.160   3.659   1.805 -0.1247  0.7320 -2.0881
 6038TIP3   OH218119   3.069   5.392   3.474 -0.3342  1.4254 -0.0984
 6038TIP3    H118120   3.150   5.410   3.522 -1.5967  3.8753  1.3034
 6038TIP3    H218121   3.009   5.461   3.502 -2.9970 -0.3992 -0.9301
 6039TIP3   OH218122   4.974   4.089   2.435 -0.9501  0.1493 -0.0325
 6039TIP3    H118123   4.894   4.050   2.398 -0.3776 -1.6006  0.4495
 6039TIP3    H218124   5.045   4.046   2.388 -0.2248 -1.3789  2.2741
 6040TIP3   OH218125   3.213   2.005   0.175 -0.1307  0.6557 -0.3516
 6040TIP3    H118126   3.222   1.994   0.080 -1.4226 -0.6264 -0.3494
 6040TIP3    H218127   3.125   1.974   0.195 -0.3379  2.0443  1.1186
 6041TIP3   OH218128   2.834   0.853   3.616 -1.0786  0.4478 -0.1592
 6041TIP3    H118129   2.870   0.771   3.651 -1.0408  0.2906 -0.5606
 6041TIP3    H218130   2.745   0.857   3.653 -1.6818 -0.5983 -1.3985
 6042TIP3   OH218131   1.904   0.234   0.646 -0.0271 -0.4805 -0.4093
 6042TIP3    H118132   1.866   0.176   0.580  0.7082 -0.7796 -0.5852
 6042TIP3    H218133   1.981   0.187   0.678 -0.5101 -0.4379  0.8430
 6043TIP3   OH218134   2.400   0.966   3.983  0.6954  0.1267 -0.1813
 6043TIP3    H118135   2.428   1.039   3.927  0.1785  0.2276 -0.3107
 6043TIP3    H218136   2.324   0.929   3.938 -0.0572  0.5369  0.7283
 6044TIP3   OH218137   0.675   1.109   2.256  0.2107  0.1010 -1.0555
 6044TIP3    H118138   0.643   1.073   2.338  1.4511 -0.6919 -0.8968
 6044TIP3    H218139   0.597   1.121   2.202 -0.4287 -0.9723 -0.3836
 6045TIP3   OH218140   5.697   3.995   2.123 -0.3652  0.3186 -0.0603
 6045TIP3    H118141   5.750   3.939   2.066 -1.4938 -0.1974 -0.6312
 6045TIP3    H218142   5.761   4.040   2.178  0.6471 -0.4791 -0.5467
 6046TIP3   OH218143   4.388   1.146   3.117 -0.0290 -0.0416 -0.2320
 6046TIP3    H118144   4.474   1.103   3.116 -0.5676 -1.1571 -1.0761
 6046TIP3    H218145   4.405   1.234   3.085  0.6243 -0.6879 -1.7912
 6047TIP3   OH218146   1.430   3.469   4.598  0.1393 -0.7472 -0.2242
 6047TIP3    H118147   1.497   3.442   4.535  1.0538 -0.2772  0.5093
 6047TIP3    H218148   1.350   3.478   4.547  0.4473 -2.0785 -0.9821
 6048TIP3   OH218149   3.280   5.781   4.849 -0.4988 -0.7883  0.2232
 6048TIP3    H118150   3.224   5.785   4.927 -1.4731  1.5040 -0.5304
 6048TIP3    H218151   3.273   5.689   4.821 -0.6682 -1.5144  2.3956
 6049TIP3   OH218152   1.451   3.605   3.234  0.6531 -0.5522 -0.2100
 6049TIP3    H118153   1.480   3.620   3.144 -1.5972 -1.4515 -1.1587
 6049TIP3    H218154   1.411   3.689   3.260 -1.1360 -1.0912 -1.0938
 6050TIP3   OH218155   1.283   1.666   4.243  0.1769  0.3289  0.0020
 6050TIP3    H118156   1.371   1.629   4.251  0.7531  1.5542 -0.3054
 6050TIP3    H218157   1.292   1.756   4.276 -0.8229  0.6660 -0.5822
 6051TIP3   OH218158   0.720   0.391   4.300  0.3218  0.3117 -0.0332
 6051TIP3    H118159   0.753   0.318   4.248 -0.6166  0.6317 -1.1172
 6051TIP3    H218160   0.693   0.352   4.383  1.7095 -0.2307  0.1857
 6052TIP3   OH218161   1.284   5.449   0.434 -0.3926  0.6346  0.8937
 6052TIP3    H118162   1.284   5.545   0.427 -1.9201  0.7597  2.1280
 6052TIP3    H218163   1.198   5.422   0.402  0.4482 -0.4711 -0.5833
 6053TIP3   OH218164   4.245   5.606   2.943 -0.0015  0.1255 -0.5243
 6053TIP3    H118165   4.175   5.669   2.927 -1.2074 -1.3677 -1.2926
 6053TIP3    H218166   4.319   5.660   2.971 -1.8797  1.6292  1.9747
 6054TIP3   OH218167   2.295   4.574   4.140  0.2789  0.2727 -0.6731
 6054TIP3    H118168   2.334   4.487   4.128  0.7269  0.3122  0.4237
 6054TIP3    H218169   2.267   4.576   4.231  1.6703  1.8249 -0.2312
 6055TIP3   OH218170   1.073   5.093   2.974  0.8115 -0.3673 -0.0606
 6055TIP3    H118171   1.144   5.130   3.027  1.2126 -1.1363 -0.0551
 6055TIP3    H218172   1.117   5.051   2.901  0.2702  0.5357 -0.9390
 6056TIP3   OH218173   4.828   5.806   0.393  0.1490 -0.2941  0.1177
 6056TIP3    H118174   4.910   5.782   0.438  0.5880  0.5825 -0.1884
 6056TIP3    H218175   4.847   5.792   0.300  1.1460  3.0369 -0.3098
 6057TIP3   OH218176   2.574   1.097   1.014 -0.4064 -0.0198  0.0317
 6057TIP3    H118177   2.511   1.157   1.054 -1.7977 -1.9286  0.8276
 6057TIP3    H218178   2.653   1.150   1.003 -1.2344  1.6732  1.6494
 6058TIP3   OH218179   2.230   0.458   2.472  0.1191  0.9849 -0.3029
 6058TIP3    H118180   2.244   0.552   2.459 -0.9507  1.3670  1.0403
 6058TIP3    H218181   2.313   0.426   2.507  0.1551  1.6510  0.2416
 6059TIP3   OH218182   3.579   3.039   3.337 -0.1524  0.0045 -0.4225
 6059TIP3    H118183   3.655   3.096   3.331 -0.2931  0.2288 -0.0963
 6059TIP3    H218184   3.559   3.016   3.246 -1.2806  2.0667 -0.7590
 6060TIP3   OH218185   2.644   4.459   0.277  0.1095  0.0162  0.5519
 6060TIP3    H118186   2.551   4.454   0.258  0.0470  1.2527  0.4096
 6060TIP3    H218187   2.652   4.531   0.339  1.1623  1.3664 -1.0481
 6061TIP3   OH218188   3.874   0.029   0.216 -0.1625 -0.6678 -0.0365
 6061TIP3    H118189   3.825   0.046   0.136 -3.7078 -2.2698  1.5474
 6061TIP3    H218190   3.930  -0.045   0.195 -0.1663 -0.3221 -1.3249
 6062TIP3   OH218191   5.559   0.737   2.449  0.3647 -0.3778 -0.1323
 6062TIP3    H118192   5.500   0.714   2.377  1.2435 -1.0955 -0.6466
 6062TIP3    H218193   5.572   0.831   2.440  0.0067 -0.3642 -0.5603
 6063TIP3   OH218194   4.213   5.477   3.847  0.6348  0.3133 -0.0244
 6063TIP3    H118195   4.281   5.500   3.910  0.1529  2.3895 -0.1901
 6063TIP3    H218196   4.260   5.450   3.769  1.3026  1.5380 -0.0725
 6064TIP3   OH218197   4.305   4.561   5.112  0.4993  0.7328 -0.9193
 6064TIP3    H118198   4.247   4.629   5.146  0.3115  0.2680 -0.3006
 6064TIP3    H218199   4.254   4.519   5.042  0.6048  1.1957 -1.2858
 6065TIP3   OH218200   3.225   0.940   2.007  0.8485 -0.3693  0.6870
 6065TIP3    H118201   3.168   0.863   2.012  0.2033  0.1253  1.0987
 6065TIP3    H218202   3.278   0.925   1.928 -0.8770 -0.1661 -0.5748
 6066TIP3   OH218203   4.892   4.506   0.085 -0.1424  0.2860 -0.0303
 6066TIP3    H118204   4.922   4.444   0.153 -0.8308 -0.1956 -0.1534
 6066TIP3    H218205   4.971   4.528   0.037  0.3563  0.5962  0.8950
 6067TIP3   OH218206   6.111   4.734   3.130 -0.0940  0.2446  0.1747
 6067TIP3    H118207   6.146   4.789   3.059 -0.3141  0.3379  0.1381
 6067TIP3    H218208   6.017   4.748   3.126 -0.0640  0.6683  0.8282
 6068TIP3   OH218209   0.856   2.445   2.773  0.0795  0.2899  0.1026
 6068TIP3    H118210   0.915   2.381   2.814 -0.6625  0.7991  2.0993
 6068TIP3    H218211   0.902   2.471   2.693  0.2603 -2.9421 -1.0091
 6069TIP3   OH218212   0.542   3.674   2.530 -0.8265  0.0515  0.3320
 6069TIP3    H118213   0.576   3.763   2.520  0.5679 -0.6653 -2.4750
 6069TIP3    H218214   0.599   3.633   2.595  0.6699  0.3145 -0.7587
 6070TIP3   OH218215   4.299   4.086   2.202  0.5512  0.2837  0.3472
 6070TIP3    H118216   4.284   4.007   2.252  1.2013 -0.2046 -0.2161
 6070TIP3    H218217   4.215   4.132   2.203  0.8336  0.8581  2.8178
 6071TIP3   OH218218   5.925   5.044   2.339  0.2741  0.2318 -0.4322
 6071TIP3    H118219   5.881   5.074   2.259 -0.6736 -1.9616 -0.8176
 6071TIP3    H218220   6.015   5.025   2.310  0.6583  1.7942 -0.3586
 6072TIP3   OH218221   4.813   1.280   5.056 -0.1389  0.0057 -0.2296
 6072TIP3    H118222   4.724   1.306   5.076 -0.1081  1.7802 -2.0164
 6072TIP3    H218223   4.868   1.339   5.108 -0.0125 -0.0123 -0.3407
 6073TIP3   OH218224   3.983   1.066   4.640 -0.4257 -0.5814  0.1064
 6073TIP3    H118225   3.989   1.008   4.564 -0.3279 -1.0622  0.4733
 6073TIP3    H218226   3.929   1.017   4.703  0.1054 -0.5080  0.6277
 6074TIP3   OH218227   2.192   4.265   2.427  0.7491 -0.8424 -0.4575
 6074TIP3    H118228   2.107   4.264   2.470  0.7132  2.0614 -0.2641
 6074TIP3    H218229   2.171   4.269   2.333  0.5611  0.7002 -0.3909
 6075TIP3   OH218230   5.044   2.756   2.899  0.0682  0.4052  0.0736
 6075TIP3    H118231   5.138   2.759   2.914  0.1584 -0.4321 -0.2648
 6075TIP3    H218232   5.018   2.847   2.891  0.9071  0.6276 -0.1700
 6076TIP3   OH218233   3.358   1.131   2.837  0.8126 -0.1233 -0.4141
 6076TIP3    H118234   3.280   1.087   2.874  0.9870  0.1256  0.2678
 6076TIP3    H218235   3.322   1.203   2.786  0.5954  0.0934  0.0358
 6077TIP3   OH218236   1.876   3.492   5.136 -0.4379 -0.1756  0.5274
 6077TIP3    H118237   1.799   3.467   5.186  0.0931 -0.7674  1.0605
 6077TIP3    H218238   1.843   3.506   5.047 -1.1407 -0.5095  0.7276
 6078TIP3   OH218239   1.632   5.193   0.138  0.4690 -0.4604  0.3262
 6078TIP3    H118240   1.618   5.280   0.101 -1.4911  0.0285  2.0382
 6078TIP3    H218241   1.711   5.202   0.191 -0.5179  0.7638  1.6814
 6079TIP3   OH218242   5.914   0.938   2.009 -0.1267  0.6145 -0.3227
 6079TIP3    H118243   6.003   0.923   1.978 -0.3832 -0.6823 -0.4862
 6079TIP3    H218244   5.866   0.972   1.933  0.3041  1.6774 -0.1331
 6080TIP3   OH218245   0.892   5.419   3.211  0.5713 -0.2230 -0.1758
 6080TIP3    H118246   0.965   5.440   3.153  0.4863  1.4802  0.2785
 6080TIP3    H218247   0.825   5.484   3.190  0.3624  0.1382  1.4899
 6081TIP3   OH218248   2.661   1.600   2.440 -0.1298  0.4083 -0.3635
 6081TIP3    H118249   2.632   1.585   2.350 -0.4969  1.5219 -0.4514
 6081TIP3    H218250   2.616   1.680   2.466  1.0393  0.8653  0.3338
 6082TIP3   OH218251   3.945   5.791   1.703 -0.2474  0.4787 -0.1339
 6082TIP3    H118252   3.913   5.790   1.794 -1.5737  0.2093 -0.5838
 6082TIP3    H218253   3.868   5.810   1.650  0.6773  1.5009 -1.1678
 6083TIP3   OH218254   1.101   2.754   2.256  0.0232 -0.2818 -0.7599
 6083TIP3    H118255   1.192   2.780   2.240 -0.7852  1.3281 -3.1870
 6083TIP3    H218256   1.075   2.704   2.179 -1.3116 -0.3057 -0.3273
 6084TIP3   OH218257   3.332   4.988   2.294 -0.1717  0.0618  0.2257
 6084TIP3    H118258   3.318   4.894   2.284 -3.7438  0.4167  0.6276
 6084TIP3    H218259   3.362   5.000   2.384  0.7764 -0.6951  0.0203
 6085TIP3   OH218260   3.325   2.336   4.681  0.5822  0.1725  0.7260
 6085TIP3    H118261   3.388   2.377   4.621 -0.0739  0.6211  0.3393
 6085TIP3    H218262   3.240   2.371   4.654  0.0187 -1.3155  0.4871
 6086TIP3   OH218263   5.485   2.075   1.710 -0.0084 -0.3984  0.1551
 6086TIP3    H118264   5.459   2.165   1.728  0.6745 -0.5005  1.7832
 6086TIP3    H218265   5.542   2.081   1.634  1.2470  0.7615  1.1411
 6087TIP3   OH218266   3.861   1.097   1.742 -0.1865  0.5951 -0.2994
 6087TIP3    H118267   3.832   1.182   1.707  0.3739  0.8848 -0.0741
 6087TIP3    H218268   3.795   1.035   1.711 -0.5370  1.0915 -0.5747
 6088TIP3   OH218269   0.143   5.714   3.755  0.2387  0.3087  0.1657
 6088TIP3    H118270   0.065   5.660   3.766  0.4842 -0.1647 -0.3299
 6088TIP3    H218271   0.110   5.803   3.742 -0.1396  0.5425  2.3272
 6089TIP3   OH218272   1.167   1.236   4.718  0.7002  0.4368  0.3959
 6089TIP3    H118273   1.086   1.249   4.669  0.3714  0.6495  0.9905
 6089TIP3    H218274   1.193   1.146   4.697 -0.5310 -0.1881  1.4195
 6090TIP3   OH218275   0.796   5.777   4.691  0.2415 -0.4097 -0.3363
 6090TIP3    H118276   0.857   5.845   4.722  1.7355 -1.2993 -1.2145
 6090TIP3    H218277   0.810   5.704   4.751  0.7129 -0.9411 -1.0845
 6091TIP3   OH218278   3.213   0.046   1.766  0.8164  0.1913  0.1852
 6091TIP3    H118279   3.199  -0.031   1.709  0.4865 -0.6738  1.3981
 6091TIP3    H218280   3.296   0.083   1.735  1.6332 -1.3825  0.3531
 6092TIP3   OH218281   4.002   5.563   2.472 -0.1508  0.0502 -0.0301
 6092TIP3    H118282   3.988   5.589   2.381  0.3632  0.2183 -0.0671
 6092TIP3    H218283   3.974   5.471   2.475  0.4560 -0.1670 -0.5265
 6093TIP3   OH218284   6.035   4.685   1.957  0.0149  0.1024  0.2529
 6093TIP3    H118285   6.017   4.664   2.049  4.3261 -0.6428  1.1558
 6093TIP3    H218286   6.048   4.780   1.957 -5.4779  1.2180 -0.9940
 6094TIP3   OH218287   2.539   2.532   3.040 -0.0192  0.7350  0.1575
 6094TIP3    H118288   2.632   2.554   3.037 -0.1158  1.3082  0.9065
 6094TIP3    H218289   2.504   2.564   2.957  0.5573 -0.0469 -0.4041
 6095TIP3   OH218290   6.121   3.128   4.236 -0.4826  0.1025  0.0795
 6095TIP3    H118291   6.040   3.087   4.268 -1.4359  0.9420 -1.1459
 6095TIP3    H218292   6.128   3.098   4.146  0.7907 -0.2350  0.2762
 6096TIP3   OH218293   1.275   0.540   4.703  0.8780  0.0193  0.3839
 6096TIP3    H118294   1.210   0.608   4.686 -0.0367 -1.1260 -0.9625
 6096TIP3    H218295   1.257   0.510   4.791 -0.2729 -0.1220  0.1064
 6097TIP3   OH218296   1.739   3.166   2.163 -0.3214  0.4815  0.0182
 6097TIP3    H118297   1.653   3.208   2.156 -0.2371  0.6839  0.1981
 6097TIP3    H218298   1.721   3.073   2.149 -0.4072  0.6559 -1.0910
 6098TIP3   OH218299   1.183   4.185   1.874 -0.5407  0.3747  0.3044
 6098TIP3    H118300   1.183   4.189   1.969  1.7128  1.6641  0.3041
 6098TIP3    H218301   1.242   4.114   1.852 -0.4658  0.5690 -0.1434
 6099TIP3   OH218302   1.219   5.190   0.382 -0.5563 -0.7222 -0.2827
 6099TIP3    H118303   1.283   5.256   0.408 -2.3946  0.6547  1.0620
 6099TIP3    H218304   1.236   5.175   0.290  1.0399  0.3553 -0.1970
 6100TIP3   OH218305   6.034   4.804   0.866 -0.0413 -0.0475 -0.1185
 6100TIP3    H118306   6.012   4.886   0.910 -0.1846 -0.1492 -0.0015
 6100TIP3    H218307   5.976   4.739   0.905  0.4076 -0.2992  0.1329
 6101TIP3   OH218308   4.840   2.601   3.001  0.3544 -0.4030  0.2240
 6101TIP3    H118309   4.817   2.671   3.062  1.6696  0.2121  0.0681
 6101TIP3    H218310   4.911   2.639   2.948  0.5493 -1.5872 -0.3961
 6102TIP3   OH218311   1.719   2.311   1.592  0.2817 -0.5380  0.6441
 6102TIP3    H118312   1.787   2.251   1.563 -0.1812 -1.0744  0.6624
 6102TIP3    H218313   1.666   2.327   1.514 -0.3251 -1.1333  0.9261
 6103TIP3   OH218314   6.117   3.071   0.162  0.4033 -0.5071  0.3553
 6103TIP3    H118315   6.108   2.984   0.123  1.5324  0.4831 -2.3679
 6103TIP3    H218316   6.039   3.118   0.134  0.4755 -0.2256  0.6230
 6104TIP3   OH218317   5.796   2.950   2.757 -0.0151  0.0172  0.2806
 6104TIP3    H118318   5.867   2.886   2.758  1.1323  1.2588  0.8817
 6104TIP3    H218319   5.748   2.931   2.677  1.0542 -0.7850 -0.1996
 6105TIP3   OH218320   2.327   5.836   4.220  0.0946  0.1557 -0.3078
 6105TIP3    H118321   2.246   5.873   4.185  0.5066  0.4551 -0.9704
 6105TIP3    H218322   2.389   5.841   4.148  0.8840  0.5072  0.3725
 6106TIP3   OH218323   4.888   2.703   4.034 -0.1095  0.2335 -0.3028
 6106TIP3    H118324   4.983   2.694   4.045  0.0267  0.1095 -1.4787
 6106TIP3    H218325   4.852   2.682   4.120  0.8944 -0.3995 -0.0216
 6107TIP3   OH218326   0.585   0.300   4.548  0.3460  0.1778 -0.5460
 6107TIP3    H118327   0.635   0.219   4.557 -2.6113 -1.7760 -0.2285
 6107TIP3    H218328   0.498   0.271   4.519 -1.2288  3.0911  0.8253
 6108TIP3   OH218329   1.481   1.337   0.468 -0.3992  0.2522 -0.5682
 6108TIP3    H118330   1.424   1.261   0.479 -0.0632 -0.1139 -1.2603
 6108TIP3    H218331   1.435   1.393   0.405 -0.8372  0.8218  0.2480
 6109TIP3   OH218332   3.484   2.464   0.560  0.4356  0.0802  0.0963
 6109TIP3    H118333   3.544   2.477   0.486  0.2777 -0.1317 -0.0680
 6109TIP3    H218334   3.540   2.472   0.638  0.6810 -0.1378 -0.0559
 6110TIP3   OH218335   0.632   2.003   1.239  0.7533  0.5082  0.4416
 6110TIP3    H118336   0.633   1.939   1.168 -0.3055  1.1180 -0.1529
 6110TIP3    H218337   0.619   2.087   1.195 -1.3436  0.7574  1.4151
 6111TIP3   OH218338   4.829   2.300   3.966  0.4408  0.0032 -0.1114
 6111TIP3    H118339   4.760   2.270   3.908  1.7051  1.6584 -2.6286
 6111TIP3    H218340   4.836   2.394   3.950  0.9967  0.5341  2.6562
 6112TIP3   OH218341   0.806   2.727   3.595 -0.6675  0.3310 -0.5913
 6112TIP3    H118342   0.770   2.741   3.508 -0.3677 -0.9103 -0.9267
 6112TIP3    H218343   0.809   2.815   3.634  0.6558  1.1336 -2.3857
 6113TIP3   OH218344   3.624   0.298   0.695  0.2285  0.1005 -0.0383
 6113TIP3    H118345   3.582   0.232   0.751  0.3655 -0.4291 -0.5422
 6113TIP3    H218346   3.705   0.321   0.741  0.5494 -0.6412 -0.2018
 6114TIP3   OH218347   4.174   5.677   4.524  0.2587  0.0468  0.0493
 6114TIP3    H118348   4.122   5.616   4.575  1.6759 -1.4595 -0.2061
 6114TIP3    H218349   4.262   5.670   4.560  0.8858  0.3948 -1.3223
 6115TIP3   OH218350   3.619   3.928   2.670  0.8062  0.4512 -0.0322
 6115TIP3    H118351   3.569   3.894   2.596  1.5115 -2.0407  0.5543
 6115TIP3    H218352   3.553   3.963   2.730 -0.1684 -1.4300  0.0687
 6116TIP3   OH218353   1.192   5.762   0.197 -0.4243 -0.0528  0.1733
 6116TIP3    H118354   1.249   5.816   0.142 -2.2127  1.9743  0.1641
 6116TIP3    H218355   1.129   5.723   0.136 -0.3018 -0.6250  0.4072
 6117TIP3   OH218356   0.163   4.487   1.737 -0.3591  0.1429 -0.1321
 6117TIP3    H118357   0.211   4.427   1.680 -0.6821  0.8846 -1.2249
 6117TIP3    H218358   0.231   4.537   1.783 -0.0611  0.6493 -1.0924
 6118TIP3   OH218359   3.543   4.665   2.426  0.2289  0.1139  0.4343
 6118TIP3    H118360   3.502   4.656   2.512 -1.4175 -1.6065 -0.4621
 6118TIP3    H218361   3.627   4.621   2.435  1.1071  1.9178  1.7363
 6119TIP3   OH218362   0.114   5.194   1.093 -0.5518  0.3102  0.1269
 6119TIP3    H118363   0.121   5.163   1.183 -0.3377 -1.9101 -0.6160
 6119TIP3    H218364   0.204   5.214   1.066 -0.3393 -1.1076 -0.2704
 6120TIP3   OH218365   3.079   1.554   2.564 -0.4186 -0.0687 -0.0087
 6120TIP3    H118366   3.142   1.621   2.589  1.1216 -0.9630 -1.3485
 6120TIP3    H218367   3.032   1.591   2.490  0.9358 -0.6886 -1.2240
 6121TIP3   OH218368   1.371   2.609   2.732  0.0809 -0.5199 -0.0385
 6121TIP3    H118369   1.446   2.570   2.687  0.4019 -0.8250  0.7296
 6121TIP3    H218370   1.302   2.612   2.666  0.6732 -0.5296 -0.6694
 6122TIP3   OH218371   2.669   0.939   2.520  0.4064 -0.4503  0.1428
 6122TIP3    H118372   2.691   1.031   2.504  0.9437  0.1336  3.4078
 6122TIP3    H218373   2.587   0.925   2.473 -0.1190  1.9534  0.2030
 6123TIP3   OH218374   2.602   5.683   0.387 -0.2347 -0.0870 -0.1223
 6123TIP3    H118375   2.525   5.722   0.428  0.1765  0.0831  0.5044
 6123TIP3    H218376   2.578   5.672   0.295 -0.6411  0.8896 -0.1367
 6124TIP3   OH218377   4.825   2.532   4.561 -0.2966  0.2813  0.1553
 6124TIP3    H118378   4.826   2.482   4.479  1.4283 -0.1354  0.3887
 6124TIP3    H218379   4.732   2.547   4.579 -0.8400 -1.8644 -0.5143
 6125TIP3   OH218380   0.076   4.822   4.147  0.1385 -0.2260  0.2556
 6125TIP3    H118381   0.089   4.756   4.079 -1.2580 -0.4011  0.1471
 6125TIP3    H218382  -0.012   4.855   4.133  0.1994  0.4712  1.3602
 6126TIP3   OH218383   3.726   5.116   4.877  0.1640  0.0206 -0.2032
 6126TIP3    H118384   3.642   5.119   4.924  0.2893  0.4511 -0.0022
 6126TIP3    H218385   3.779   5.054   4.928  0.2014  0.2685  0.0620
 6127TIP3   OH218386   2.055   2.927   1.273  0.0567 -0.3000  0.8233
 6127TIP3    H118387   2.037   2.931   1.367  0.1635  0.2685  0.8211
 6127TIP3    H218388   2.140   2.883   1.266  1.0890  1.5883  1.1189
 6128TIP3   OH218389   4.933   1.269   2.746 -0.5278 -0.7424  0.5210
 6128TIP3    H118390   5.001   1.307   2.801 -1.3573  1.6072  0.0110
 6128TIP3    H218391   4.980   1.216   2.682  0.8166  0.5511  0.3966
 6129TIP3   OH218392   2.227   2.743   1.614 -0.0323 -0.8466 -0.4947
 6129TIP3    H118393   2.318   2.768   1.626 -0.2359  1.0920 -2.4446
 6129TIP3    H218394   2.213   2.673   1.678  2.0828  0.5210  1.6237
 6130TIP3   OH218395   2.478   3.411   4.830 -0.3732  0.4655  0.3958
 6130TIP3    H118396   2.555   3.468   4.833  0.3806 -0.5426  0.6951
 6130TIP3    H218397   2.408   3.463   4.870  0.0329  1.5428 -0.2502
 6131TIP3   OH218398   4.912   1.377   0.401  0.0255 -0.0408  0.7178
 6131TIP3    H118399   4.968   1.403   0.328 -0.7396 -0.2053  0.0517
 6131TIP3    H218400   4.949   1.423   0.477  1.0103 -0.1058  0.2924
 6132TIP3   OH218401   0.628   1.528   3.921  0.2029  0.2136 -0.3020
 6132TIP3    H118402   0.634   1.558   3.830  0.4531 -1.5583 -0.9168
 6132TIP3    H218403   0.693   1.581   3.968 -0.1094  1.3328 -1.0857
 6133TIP3   OH218404   0.217   0.789   3.209 -0.4629  0.4269  0.3441
 6133TIP3    H118405   0.260   0.742   3.281  0.6437  0.7399 -0.0907
 6133TIP3    H218406   0.289   0.812   3.149 -1.1350  1.5979 -0.0507
 6134TIP3   OH218407   4.925   5.047   1.605 -0.6651  0.1985 -0.4957
 6134TIP3    H118408   4.931   4.969   1.551  0.2017  0.1635 -0.3696
 6134TIP3    H218409   4.892   5.016   1.689 -1.8193  0.2214 -0.9246
 6135TIP3   OH218410   1.230   1.239   3.845  0.4182 -0.0656 -0.1293
 6135TIP3    H118411   1.279   1.164   3.812 -0.6237 -0.4422 -0.8479
 6135TIP3    H218412   1.274   1.315   3.806  1.2007 -0.3072  0.2461
 6136TIP3   OH218413   2.610   2.727   2.283 -0.1199  0.0189 -0.0952
 6136TIP3    H118414   2.546   2.788   2.244 -1.3611 -1.6186 -0.7129
 6136TIP3    H218415   2.565   2.690   2.359  0.6846 -0.0351  0.3638
 6137TIP3   OH218416   4.392   1.436   3.308 -0.4321  0.2235 -0.0410
 6137TIP3    H118417   4.487   1.429   3.313 -0.4570  0.2905  0.5825
 6137TIP3    H218418   4.376   1.498   3.237 -0.1195 -2.6466 -2.8519
 6138TIP3   OH218419   6.247   1.130   2.059  0.0518  0.3922 -0.4652
 6138TIP3    H118420   6.243   1.218   2.095  0.1151  0.5628 -0.8772
 6138TIP3    H218421   6.282   1.076   2.130  2.2544  1.1010 -0.9569
 6139TIP3   OH218422   2.046   4.401   4.931 -0.1663 -0.0622  0.4920
 6139TIP3    H118423   1.951   4.403   4.920 -0.0761  1.2509 -0.1518
 6139TIP3    H218424   2.079   4.470   4.874  1.2551 -1.0622  0.0264
 6140TIP3   OH218425   4.547   2.349   1.429 -0.5711 -0.1168  0.1287
 6140TIP3    H118426   4.557   2.262   1.468  1.5716 -0.6273 -1.3601
 6140TIP3    H218427   4.471   2.342   1.372 -0.2791 -1.0973 -0.1513
 6141TIP3   OH218428   4.785   4.940   3.923 -0.4298 -0.4174  0.5398
 6141TIP3    H118429   4.864   4.887   3.927  0.4335  0.8037  0.2644
 6141TIP3    H218430   4.726   4.900   3.988 -0.0761 -2.0706 -0.1125
 6142TIP3   OH218431   5.679   5.638   3.474 -0.3664 -0.2363 -0.7711
 6142TIP3    H118432   5.651   5.552   3.503  0.4430 -0.5363 -0.8586
 6142TIP3    H218433   5.746   5.621   3.408  0.9344  0.4382  0.3134
 6143TIP3   OH218434   2.862   3.207   3.569  0.6816 -0.1125  0.2525
 6143TIP3    H118435   2.790   3.169   3.620 -0.9536 -0.2863 -2.0307
 6143TIP3    H218436   2.854   3.301   3.583 -0.5435 -0.0631 -0.5766
 6144TIP3   OH218437   3.963   1.052   1.017 -0.0070  0.1585 -0.1959
 6144TIP3    H118438   3.909   1.009   0.951  0.0187 -1.5819  0.8593
 6144TIP3    H218439   4.047   1.006   1.014  0.5492  1.1287 -0.0424
 6145TIP3   OH218440   1.154   3.972   4.154  0.1617  0.3555 -0.3347
 6145TIP3    H118441   1.142   3.910   4.226 -2.4590  0.2676 -0.7417
 6145TIP3    H218442   1.083   3.952   4.093  0.7691  2.1079 -1.7119
 6146TIP3   OH218443   2.672   4.549   0.568 -0.0041 -0.0892  0.1705
 6146TIP3    H118444   2.757   4.581   0.597  0.0877 -1.2667  1.2921
 6146TIP3    H218445   2.608   4.603   0.615  0.1511 -0.9248  1.4022
 6147TIP3   OH218446   3.925   2.155   4.413  0.5561 -0.0438 -0.1824
 6147TIP3    H118447   3.982   2.102   4.469  1.8469  1.7778  0.3481
 6147TIP3    H218448   3.960   2.144   4.325  0.7238 -0.1862 -0.0970
 6148TIP3   OH218449   0.028   2.001   4.662 -0.1105 -0.0872 -0.3171
 6148TIP3    H118450   0.012   2.080   4.612 -4.1610 -0.6341 -0.1618
 6148TIP3    H218451   0.073   2.031   4.741  2.2996  1.3607 -2.1118
 6149TIP3   OH218452   0.025   1.948   0.245 -0.0597  0.1713  0.1492
 6149TIP3    H118453  -0.042   2.014   0.226 -1.0903 -0.8692  0.0274
 6149TIP3    H218454   0.026   1.942   0.340  0.0534  0.3842  0.1615
 6150TIP3   OH218455   5.762   3.430   1.030 -0.3772 -0.2830  0.3612
 6150TIP3    H118456   5.714   3.489   1.087  0.5929 -0.0438  0.9664
 6150TIP3    H218457   5.839   3.405   1.082 -0.1806 -1.1531 -0.3277
 6151TIP3   OH218458   4.047   2.479   0.344 -0.4966 -0.0571  0.5551
 6151TIP3    H118459   4.140   2.471   0.367  0.1701  1.4841 -1.3145
 6151TIP3    H218460   4.013   2.545   0.404  0.0872  0.6460  0.1403
 6152TIP3   OH218461   0.484   5.366   3.179 -0.2076 -0.2076 -0.0305
 6152TIP3    H118462   0.430   5.288   3.175  1.4420 -1.4486  0.7421
 6152TIP3    H218463   0.532   5.358   3.262  0.4046  1.3524 -0.1962
 6153TIP3   OH218464   0.192   0.760   0.376 -0.5260 -0.0424 -0.3048
 6153TIP3    H118465   0.229   0.788   0.460  0.4175  1.2778 -1.1245
 6153TIP3    H218466   0.114   0.815   0.365  0.7301  1.5965 -1.4131
 6154TIP3   OH218467   1.487   3.393   1.696 -0.6643 -0.0671  0.0002
 6154TIP3    H118468   1.444   3.424   1.616 -0.7992 -0.5787 -0.1311
 6154TIP3    H218469   1.579   3.386   1.674 -0.7548 -0.5756 -0.2331
 6155TIP3   OH218470   3.646   0.315   3.864  0.0765  0.4871 -0.2900
 6155TIP3    H118471   3.711   0.328   3.933  0.1908 -3.0835  0.4659
 6155TIP3    H218472   3.694   0.335   3.783  1.8971 -1.0336  0.3172
 6156TIP3   OH218473   0.999   2.188   1.530  0.1399  0.0796 -0.3226
 6156TIP3    H118474   1.064   2.118   1.524  0.8304  0.6620  0.2123
 6156TIP3    H218475   0.927   2.149   1.580  0.1228 -0.5325 -0.8177
 6157TIP3   OH218476   4.531   4.117   1.781  0.2198  0.0073 -0.1864
 6157TIP3    H118477   4.532   4.040   1.837 -0.7269  0.6251  0.7317
 6157TIP3    H218478   4.551   4.190   1.841 -0.6188  0.6604 -0.6846
 6158TIP3   OH218479   5.860   0.582   1.618  0.2988  0.1054  0.9280
 6158TIP3    H118480   5.952   0.600   1.637  0.4906  0.6581 -0.4175
 6158TIP3    H218481   5.863   0.510   1.555 -0.1110  1.0820 -0.2412
 6159TIP3   OH218482   4.345   5.150   0.227 -0.0068  0.1124 -0.2137
 6159TIP3    H118483   4.302   5.066   0.244 -0.3551 -0.2473 -2.4974
 6159TIP3    H218484   4.273   5.212   0.217  0.2438  0.6676  1.2188
 6160TIP3   OH218485   4.996   1.837   3.390 -0.1271 -0.2255  0.6718
 6160TIP3    H118486   5.046   1.913   3.359 -0.8976 -0.4393 -1.2401
 6160TIP3    H218487   5.062   1.781   3.432  0.6448  0.9706  1.1148
 6161TIP3   OH218488   3.067   4.019   3.898 -0.4924  0.1845  0.0732
 6161TIP3    H118489   3.149   4.047   3.858 -1.2551  0.7038 -1.1989
 6161TIP3    H218490   3.011   4.097   3.895 -1.1636 -0.2623  0.5724
 6162TIP3   OH218491   3.706   1.113   0.112 -0.6152 -0.2151 -0.3186
 6162TIP3    H118492   3.750   1.184   0.065 -0.0313  0.5994  1.3416
 6162TIP3    H218493   3.675   1.154   0.193  0.7977 -2.0776  1.2675
 6163TIP3   OH218494   3.110   0.973   3.566  0.0997 -0.0117 -0.1195
 6163TIP3    H118495   3.134   1.037   3.633 -1.1547 -0.7071  1.0411
 6163TIP3    H218496   3.031   0.931   3.600 -0.6804 -0.2716 -2.1287
 6164TIP3   OH218497   2.776   0.175   1.350  0.5229 -0.0303 -0.0172
 6164TIP3    H118498   2.733   0.090   1.355 -0.1623  0.2742 -0.5815
 6164TIP3    H218499   2.852   0.167   1.409 -0.4900 -0.4610  1.2810
 6165TIP3   OH218500   3.578   1.858   3.399 -0.0378 -0.0654 -0.2301
 6165TIP3    H118501   3.492   1.870   3.359  0.6483  0.7052 -1.5303
 6165TIP3    H218502   3.579   1.919   3.473 -1.4337 -1.7272  1.2673
 6166TIP3   OH218503   5.528   5.524   1.364 -0.3630 -0.4730  0.0577
 6166TIP3    H118504   5.433   5.517   1.358 -0.3918 -1.2480  1.1872
 6166TIP3    H218505   5.545   5.562   1.450  0.3379  0.4445 -0.4579
 6167TIP3   OH218506   1.896   0.522   2.812 -0.0064  0.0424  0.4131
 6167TIP3    H118507   1.806   0.506   2.784 -0.3210  0.1340  1.3139
 6167TIP3    H218508   1.902   0.617   2.820 -0.2209 -0.0140  1.5030
 6168TIP3   OH218509   3.357   2.011   0.767  0.4836  0.2246 -0.2995
 6168TIP3    H118510   3.354   1.997   0.861  2.5092 -1.1283 -0.3840
 6168TIP3    H218511   3.275   2.056   0.747 -0.0253  0.4789  2.0748
 6169TIP3   OH218512   1.341   0.408   3.022  0.1183 -0.0274 -0.3427
 6169TIP3    H118513   1.312   0.373   2.938  0.6091  1.2051 -1.0516
 6169TIP3    H218514   1.268   0.390   3.082 -0.6281 -0.1087 -1.2537
 6170TIP3   OH218515   3.190   4.599   0.295 -0.3133 -0.0572  0.6060
 6170TIP3    H118516   3.255   4.570   0.359  1.5965  0.3646 -1.0288
 6170TIP3    H218517   3.230   4.579   0.210 -2.2225  0.4938 -0.4741
 6171TIP3   OH218518   2.521   0.121   0.314 -0.1756  0.1075  0.2530
 6171TIP3    H118519   2.559   0.066   0.383 -0.3149 -1.9548 -1.2272
 6171TIP3    H218520   2.576   0.104   0.237 -0.5245  1.7118 -0.4014
 6172TIP3   OH218521   1.340   3.495   5.156  0.2213 -0.4880 -0.1308
 6172TIP3    H118522   1.409   3.514   5.092 -0.9328  2.7636 -0.6131
 6172TIP3    H218523   1.258   3.504   5.107 -0.6707  1.1343  1.5036
 6173TIP3   OH218524   2.001   1.031   3.264  0.1746  0.7234 -0.1968
 6173TIP3    H118525   2.070   1.039   3.199 -0.4851  1.0445 -0.8692
 6173TIP3    H218526   2.016   0.946   3.305  0.0000  0.0447 -1.4791
 6174TIP3   OH218527   3.979   2.803   1.461  0.5896  0.6812  0.1672
 6174TIP3    H118528   4.021   2.745   1.397 -1.5346 -0.8670  0.0683
 6174TIP3    H218529   3.896   2.828   1.419 -0.6285  0.0148  2.0669
 6175TIP3   OH218530   0.969   4.347   4.687 -0.2447 -0.4213  0.2844
 6175TIP3    H118531   0.937   4.281   4.626 -0.2196 -0.8560  0.7360
 6175TIP3    H218532   0.905   4.347   4.759  0.0618 -0.3645  0.5597
 6176TIP3   OH218533   0.562   5.470   3.893 -0.0831 -0.7303  0.0631
 6176TIP3    H118534   0.648   5.436   3.870  0.3283 -0.7922  1.5938
 6176TIP3    H218535   0.556   5.554   3.847  0.6447 -0.8989 -0.3449
 6177TIP3   OH218536   4.501   1.915   2.066  0.4679  0.1520  0.3691
 6177TIP3    H118537   4.510   1.865   1.984  0.1296  1.0160 -0.2134
 6177TIP3    H218538   4.440   1.864   2.119  1.3158 -0.8358  0.4254
 6178TIP3   OH218539   5.355   3.530   3.118 -0.3461  0.0815  0.2416
 6178TIP3    H118540   5.373   3.437   3.131  0.7030  0.2299 -0.0944
 6178TIP3    H218541   5.432   3.564   3.072 -0.6595  1.1455  0.4651
 6179TIP3   OH218542   4.975   2.978   2.062  0.2620 -0.4275 -0.0843
 6179TIP3    H118543   4.898   2.987   2.119  0.3797  0.2413 -0.0257
 6179TIP3    H218544   5.020   2.900   2.095 -0.2889 -0.7168  0.0015
 6180TIP3   OH218545   6.129   3.227   4.745  0.1904 -0.2904 -0.1680
 6180TIP3    H118546   6.062   3.272   4.796  1.8776 -0.2318  2.1483
 6180TIP3    H218547   6.080   3.167   4.689 -1.7952 -0.3128  1.4746
 6181TIP3   OH218548   4.072   1.648   0.324  0.1474  0.2321  0.0930
 6181TIP3    H118549   4.007   1.718   0.323 -0.7459 -0.5666  0.6114
 6181TIP3    H218550   4.130   1.668   0.250 -0.2384  1.3689  0.0845
 6182TIP3   OH218551   0.082   1.883   2.341  0.0274 -0.6246 -0.0038
 6182TIP3    H118552   0.013   1.817   2.347  0.2328 -0.8887 -0.5136
 6182TIP3    H218553   0.093   1.915   2.431 -1.1706 -0.1568 -0.0023
 6183TIP3   OH218554   4.749   2.393   2.299 -0.4112  0.2038  0.0272
 6183TIP3    H118555   4.765   2.315   2.352  0.9773 -0.6332 -1.5181
 6183TIP3    H218556   4.661   2.379   2.264  0.2579 -1.3222 -1.1889
 6184TIP3   OH218557   2.262   5.169   0.789  0.2886  0.2256 -0.1853
 6184TIP3    H118558   2.198   5.231   0.754  0.1031  0.0278 -0.1969
 6184TIP3    H218559   2.256   5.180   0.884 -1.0930 -1.0928 -0.0756
 6185TIP3   OH218560   2.059   1.948   3.178 -0.3217  0.4099 -0.2447
 6185TIP3    H118561   1.995   1.958   3.108  1.3820 -0.7892 -2.0875
 6185TIP3    H218562   2.119   1.880   3.147  1.7584  1.3445  1.4240
 6186TIP3   OH218563   2.972   2.359   4.904  0.0219 -0.0449 -0.1745
 6186TIP3    H118564   2.894   2.409   4.882  0.3458  0.2638 -0.6246
 6186TIP3    H218565   3.018   2.412   4.969  0.4501  0.3267 -0.7748
 6187TIP3   OH218566   2.690   5.653   1.560  0.4047  0.4897 -0.2827
 6187TIP3    H118567   2.664   5.561   1.554  2.7262 -0.1434 -1.8003
 6187TIP3    H218568   2.710   5.666   1.652 -0.6181 -0.2951  0.0762
 6188TIP3   OH218569   3.247   3.218   0.350  0.1785  0.6023  0.4715
 6188TIP3    H118570   3.243   3.313   0.338  0.6978  0.8072  1.7846
 6188TIP3    H218571   3.325   3.191   0.300  0.2503  0.9185  0.4097
 6189TIP3   OH218572   5.436   0.925   3.415 -0.1955 -0.0893  0.3514
 6189TIP3    H118573   5.364   0.865   3.433  1.2203 -1.9061  0.2005
 6189TIP3    H218574   5.515   0.876   3.437  1.0578  1.5724 -0.1929
 6190TIP3   OH218575   2.371   2.325   0.539 -0.5549 -0.0129  0.4150
 6190TIP3    H118576   2.295   2.372   0.506  0.1134  0.2125 -0.8510
 6190TIP3    H218577   2.428   2.394   0.574 -0.2325 -0.0133 -0.0976
 6191TIP3   OH218578   5.822   3.820   1.141 -0.4477 -0.5660 -0.0463
 6191TIP3    H118579   5.907   3.827   1.098 -1.1137 -0.4424 -1.3911
 6191TIP3    H218580   5.840   3.772   1.222  0.9158 -0.4190 -0.2399
 6192TIP3   OH218581   4.366   1.139   4.849  0.0524  0.4610  0.2102
 6192TIP3    H118582   4.275   1.168   4.848  0.1401  0.7444 -1.2788
 6192TIP3    H218583   4.364   1.058   4.900 -2.0535 -2.5342 -4.0447
 6193TIP3   OH218584   5.260   4.452   0.459 -0.4938  0.1335  0.1330
 6193TIP3    H118585   5.334   4.395   0.481 -1.2974 -0.7044  0.7604
 6193TIP3    H218586   5.216   4.408   0.386  1.5000  2.3277 -2.5728
 6194TIP3   OH218587   6.164   1.266   1.696  0.0958  0.1738 -0.1601
 6194TIP3    H118588   6.231   1.287   1.761  1.1050 -0.5211 -0.9337
 6194TIP3    H218589   6.130   1.181   1.723 -0.2888  0.4028  0.0821
 6195TIP3   OH218590   1.197   0.750   1.144  0.4483  0.2157 -0.6625
 6195TIP3    H118591   1.137   0.808   1.193 -0.5730 -0.4557 -1.0761
 6195TIP3    H218592   1.142   0.714   1.074  1.2296 -0.7784 -0.7756
 6196TIP3   OH218593   0.316   5.377   2.311 -0.6648  0.1254 -0.0407
 6196TIP3    H118594   0.228   5.366   2.275 -0.7624  0.7140 -0.0000
 6196TIP3    H218595   0.375   5.347   2.242 -0.9296 -3.6820  1.1731
 6197TIP3   OH218596   0.622   5.836   4.928 -0.0194 -0.0268  0.7164
 6197TIP3    H118597   0.564   5.789   4.987 -0.2611 -0.2248  0.3234
 6197TIP3    H218598   0.641   5.774   4.858  2.4810 -0.8049  1.9395
 6198TIP3   OH218599   3.901   5.269   3.231  0.1506 -0.0540  0.0939
 6198TIP3    H118600   3.845   5.194   3.251 -1.8978  1.3750  0.0328
 6198TIP3    H218601   3.912   5.267   3.136 -0.3266  0.0121  0.0379
 6199TIP3   OH218602   4.492   3.250   4.283 -0.3513 -0.2672 -0.4484
 6199TIP3    H118603   4.480   3.341   4.309 -0.8164 -0.3289 -0.4407
 6199TIP3    H218604   4.407   3.209   4.299 -0.3058 -0.5748 -0.9826
 6200TIP3   OH218605   2.484   1.220   3.907 -0.0765  0.2297  0.2445
 6200TIP3    H118606   2.499   1.208   4.001 -2.4472  0.7043  0.7485
 6200TIP3    H218607   2.428   1.298   3.901 -1.3138 -0.7100 -1.3993
 6201TIP3   OH218608   3.875   2.073   2.894 -0.1603 -0.0843  0.0599
 6201TIP3    H118609   3.793   2.091   2.849  0.8189 -1.0396 -2.2458
 6201TIP3    H218610   3.931   2.148   2.876 -0.4428  0.5365  1.5715
 6202TIP3   OH218611   2.751   2.865   2.571  1.0643  0.4195 -0.1492
 6202TIP3    H118612   2.734   2.957   2.551  1.2078  0.1286 -1.7422
 6202TIP3    H218613   2.777   2.827   2.487  2.3187 -0.7792  0.7440
 6203TIP3   OH218614   3.146   1.275   4.150  0.5578  0.0250  0.0788
 6203TIP3    H118615   3.190   1.299   4.232  2.0928  0.8975 -0.9634
 6203TIP3    H218616   3.068   1.227   4.179  1.3253 -0.1616  2.0394
 6204TIP3   OH218617   4.932   4.876   4.213 -0.3212 -0.5731 -0.1993
 6204TIP3    H118618   4.901   4.798   4.260  1.7242 -0.7023  1.0900
 6204TIP3    H218619   4.955   4.844   4.126  0.3765 -1.4245  0.2778
 6205TIP3   OH218620   0.798   3.675   0.059  0.0692 -0.1032 -0.2808
 6205TIP3    H118621   0.761   3.660   0.146 -0.5317 -0.1130 -0.5357
 6205TIP3    H218622   0.726   3.712   0.008 -0.2122 -1.9709 -1.3578
 6206TIP3   OH218623   3.200   2.828   2.092  0.0226 -0.2649  0.6243
 6206TIP3    H118624   3.252   2.893   2.046 -0.0564 -0.5623  0.0985
 6206TIP3    H218625   3.132   2.804   2.029  0.0439 -0.8424  0.8159
 6207TIP3   OH218626   4.599   3.882   0.340  0.0843  0.0612  0.0284
 6207TIP3    H118627   4.580   3.852   0.429 -1.2234 -0.1254 -0.2931
 6207TIP3    H218628   4.648   3.963   0.352 -0.5950  0.3528  0.9290
 6208TIP3   OH218629   4.950   1.360   0.944 -0.0110 -0.1594  0.3928
 6208TIP3    H118630   4.895   1.439   0.944  0.4841  0.2055 -0.7040
 6208TIP3    H218631   5.035   1.391   0.914  0.0596 -1.1913 -0.5117
 6209TIP3   OH218632   5.679   4.805   1.381 -0.3950 -0.2310 -0.0017
 6209TIP3    H118633   5.753   4.755   1.416 -0.7139  0.6490  2.1064
 6209TIP3    H218634   5.618   4.739   1.351 -0.4505 -1.1454  1.9664
 6210TIP3   OH218635   0.769   0.774   5.042  0.1591  0.1416 -0.0441
 6210TIP3    H118636   0.792   0.832   4.969  1.0503  0.8443  0.7616
 6210TIP3    H218637   0.700   0.717   5.007  0.1957  0.8086 -1.2622
 6211TIP3   OH218638   5.431   2.481   4.200 -0.0927  0.4330 -0.5194
 6211TIP3    H118639   5.383   2.444   4.273  0.8762  0.8928  0.3872
 6211TIP3    H218640   5.374   2.468   4.124 -0.0982 -2.2941 -0.1606
 6212TIP3   OH218641   3.341   5.000   4.715 -0.0192 -0.1159 -0.0543
 6212TIP3    H118642   3.433   4.974   4.711 -0.2351 -0.9888  0.3433
 6212TIP3    H218643   3.315   5.011   4.624  0.9164  1.8166 -0.1255
 6213TIP3   OH218644   5.173   0.628   0.415 -0.0909 -0.5382 -0.2668
 6213TIP3    H118645   5.203   0.698   0.472 -2.6413  0.1109  0.4086
 6213TIP3    H218646   5.148   0.557   0.475  2.2521 -2.0439 -0.9271
 6214TIP3   OH218647   0.925   2.982   3.547 -0.6201  0.1720 -0.0628
 6214TIP3    H118648   0.898   3.007   3.635  0.1115  0.4551  0.0921
 6214TIP3    H218649   1.010   2.939   3.559  0.0040  1.1762 -0.7254
 6215TIP3   OH218650   4.231   1.266   1.224 -0.2441  0.2817  0.3454
 6215TIP3    H118651   4.287   1.282   1.301 -1.7738 -0.2506  1.6102
 6215TIP3    H218652   4.142   1.265   1.259 -1.1032  1.4215 -1.6747
 6216TIP3   OH218653   0.363   5.347   3.705  0.4487  0.5122 -0.2704
 6216TIP3    H118654   0.282   5.297   3.693 -0.6395  2.4591 -1.7434
 6216TIP3    H218655   0.398   5.316   3.789 -0.9401 -1.5461 -0.3627
 6217TIP3   OH218656   4.071   5.171   0.001 -0.3303 -0.0957  0.2454
 6217TIP3    H118657   4.038   5.230   0.069 -1.5851  1.0986 -1.3223
 6217TIP3    H218658   3.992   5.141  -0.044  0.5297  0.8966 -2.0595
 6218TIP3   OH218659   0.199   0.212   0.497 -0.5927  0.1879 -0.1451
 6218TIP3    H118660   0.240   0.275   0.556 -0.8517 -0.9990  1.3990
 6218TIP3    H218661   0.106   0.238   0.495 -0.2964  1.2314 -1.4240
 6219TIP3   OH218662   1.331   2.842   4.722  0.2870  0.1427 -0.0324
 6219TIP3    H118663   1.394   2.782   4.762 -0.2684 -0.3192  0.1508
 6219TIP3    H218664   1.247   2.797   4.729 -0.3919  1.5567  1.4126
 6220TIP3   OH218665   2.837   5.893   1.941 -0.7116  0.5763  0.3986
 6220TIP3    H118666   2.904   5.862   2.002 -0.1874  1.1858  0.1422
 6220TIP3    H218667   2.766   5.923   1.998 -0.9098 -0.3705  0.6639
 6221TIP3   OH218668   0.674   3.218   4.484 -0.4192  0.2986  0.3285
 6221TIP3    H118669   0.621   3.292   4.514  1.3032  1.0012  1.8591
 6221TIP3    H218670   0.708   3.179   4.565  1.7971  0.2396 -0.5424
 6222TIP3   OH218671   5.688   1.772   3.317 -0.1155  0.4677  0.6462
 6222TIP3    H118672   5.657   1.859   3.343 -0.7817  0.1938  0.7758
 6222TIP3    H218673   5.626   1.711   3.356 -0.0706 -0.0367 -0.0468
 6223TIP3   OH218674   1.884   4.028   3.051  0.5815 -0.1870  0.0830
 6223TIP3    H118675   1.820   4.071   3.108  0.8262  0.3317 -0.0277
 6223TIP3    H218676   1.841   3.947   3.024  1.1264 -1.3516  2.4071
 6224TIP3   OH218677   0.156   3.028   2.258  0.8901 -0.1929  0.7912
 6224TIP3    H118678   0.139   2.939   2.289  0.4468 -0.5197 -0.3429
 6224TIP3    H218679   0.082   3.080   2.291  1.5044 -0.0761  2.0462
 6225TIP3   OH218680   2.710   4.585   4.222 -0.4560 -0.3894 -0.0648
 6225TIP3    H118681   2.690   4.677   4.207  1.3355 -0.0751 -0.8196
 6225TIP3    H218682   2.805   4.579   4.211 -0.7340 -2.6908 -2.2011
 6226TIP3   OH218683   2.073   5.310   4.000  0.4875  0.1910 -0.0783
 6226TIP3    H118684   2.165   5.319   4.025  0.3829  0.5489  0.1887
 6226TIP3    H218685   2.052   5.394   3.957  0.9088 -0.7071 -2.1717
 6227TIP3   OH218686   2.411   5.221   2.173 -0.3168 -0.1616 -0.2633
 6227TIP3    H118687   2.503   5.241   2.158 -0.6704  0.9033 -1.2610
 6227TIP3    H218688   2.409   5.130   2.200  1.1322  0.1654  1.0383
 6228TIP3   OH218689   3.134   0.449   3.407 -0.2317  0.2918  0.3163
 6228TIP3    H118690   3.090   0.520   3.359  0.1262 -0.6657 -1.5077
 6228TIP3    H218691   3.068   0.418   3.469 -2.3563 -1.2493 -2.4676
 6229TIP3   OH218692   2.694   1.728   0.563 -0.2359 -0.0445  0.0913
 6229TIP3    H118693   2.695   1.633   0.574  2.0416 -0.1619 -0.5587
 6229TIP3    H218694   2.773   1.747   0.513 -0.4102  2.2523  0.5756
 6230TIP3   OH218695   1.997   0.810   0.460 -0.0867  0.2326 -0.3364
 6230TIP3    H118696   2.024   0.718   0.462 -1.8011 -0.3107  0.9662
 6230TIP3    H218697   2.067   0.857   0.505 -0.0518 -0.7223  0.6546
 6231TIP3   OH218698   3.691   1.759   3.848 -0.0287  0.1202 -0.4161
 6231TIP3    H118699   3.731   1.725   3.768  2.2640  0.1986  0.6117
 6231TIP3    H218700   3.765   1.785   3.903 -1.3818 -1.4346  2.4081
 6232TIP3   OH218701   5.818   4.320   2.453  0.3206 -0.5105  0.0572
 6232TIP3    H118702   5.724   4.301   2.466  0.5808 -0.2841  2.8303
 6232TIP3    H218703   5.838   4.386   2.519  2.3066 -0.0225 -0.9845
 6233TIP3   OH218704   4.718   3.025   3.490 -0.0514  0.6325 -0.7726
 6233TIP3    H118705   4.723   2.932   3.514  0.4615  0.3341 -1.9589
 6233TIP3    H218706   4.794   3.065   3.532 -0.3105  0.5288 -0.2048
 6234TIP3   OH218707   4.573   0.786   3.989 -0.1096 -0.3940 -0.0464
 6234TIP3    H118708   4.484   0.790   3.956 -0.4263  0.4007  0.8480
 6234TIP3    H218709   4.602   0.696   3.970 -1.0822 -0.6508 -0.3634
 6235TIP3   OH218710   1.810   5.860   3.090  0.3188 -0.0498 -0.2752
 6235TIP3    H118711   1.835   5.772   3.117 -0.5356  0.0593  0.9450
 6235TIP3    H218712   1.724   5.849   3.049 -1.1692  0.5299  2.4686
 6236TIP3   OH218713   5.706   5.318   3.840 -0.0636 -0.1872  0.2074
 6236TIP3    H118714   5.799   5.323   3.861 -0.1263 -0.0362  0.4417
 6236TIP3    H218715   5.669   5.259   3.906 -0.3484  0.6654  0.8178
 6237TIP3   OH218716   1.953   1.415   0.911 -0.5329  0.0828 -0.2156
 6237TIP3    H118717   1.965   1.509   0.915 -0.4801  0.3150 -3.2432
 6237TIP3    H218718   1.865   1.399   0.943 -0.5054  1.1268  0.3957
 6238TIP3   OH218719   0.633   0.477   0.425  0.0157 -0.4648  0.3859
 6238TIP3    H118720   0.564   0.537   0.453  1.7000  0.9476  1.7407
 6238TIP3    H218721   0.596   0.390   0.437 -2.0413  0.2442 -0.3871
 6239TIP3   OH218722   0.632   3.967   4.671  0.0324  0.2574  0.2749
 6239TIP3    H118723   0.558   3.906   4.668  1.1558 -1.1415 -0.0762
 6239TIP3    H218724   0.661   3.965   4.762 -1.7016  2.5580  0.9734
 6240TIP3   OH218725   1.943   2.245   0.802 -0.3082 -0.1005  0.2746
 6240TIP3    H118726   1.899   2.161   0.789  2.8500 -1.7149 -1.0761
 6240TIP3    H218727   1.888   2.308   0.756 -1.0719 -1.9946 -1.5761
 6241TIP3   OH218728   2.702   0.552   0.271  0.3776  0.2080 -0.0578
 6241TIP3    H118729   2.634   0.500   0.314  0.7420 -0.0100  0.2579
 6241TIP3    H218730   2.750   0.488   0.218 -0.8122  0.6519 -1.7761
 6242TIP3   OH218731   0.541   5.660   1.999  0.1058 -0.3090  0.3268
 6242TIP3    H118732   0.502   5.588   1.949  0.1658 -0.1411  0.0426
 6242TIP3    H218733   0.603   5.700   1.939  0.8590 -0.6935  0.8360
 6243TIP3   OH218734   0.632   3.700   2.940  0.4441  0.7344  0.7917
 6243TIP3    H118735   0.681   3.703   2.857 -1.5768  0.1574 -0.4970
 6243TIP3    H218736   0.694   3.731   3.006  2.2231  0.9180 -0.8890
 6244TIP3   OH218737   0.166   0.774   4.819  0.5149  0.4378  0.0680
 6244TIP3    H118738   0.222   0.778   4.742 -0.5149  0.9993 -0.6785
 6244TIP3    H218739   0.195   0.696   4.866  1.0194 -0.0350 -0.9974
 6245TIP3   OH218740   4.160   1.708   4.524 -0.2347 -0.1520  0.0284
 6245TIP3    H118741   4.139   1.655   4.601  0.0396  1.2633  1.1379
 6245TIP3    H218742   4.243   1.673   4.493 -0.6380 -1.1178  0.0132
 6246TIP3   OH218743   4.985   0.453   2.901 -0.1070 -0.1614  0.3145
 6246TIP3    H118744   5.012   0.365   2.927 -1.5172 -0.4203  1.0056
 6246TIP3    H218745   5.042   0.475   2.827  1.9431 -0.6386  1.6759
 6247TIP3   OH218746   5.637   1.849   4.025 -0.3440 -0.4656 -0.2700
 6247TIP3    H118747   5.685   1.831   3.944  0.6315  1.5907 -0.2144
 6247TIP3    H218748   5.608   1.940   4.015 -2.0219 -0.8477  0.8273
 6248TIP3   OH218749   0.119   0.538   1.043  0.1956  0.0594  0.4186
 6248TIP3    H118750   0.196   0.517   0.991 -0.7041 -0.4592 -0.7563
 6248TIP3    H218751   0.114   0.634   1.040  0.4179  0.0617 -0.0781
 6249TIP3   OH218752   3.625   0.558   1.036 -0.4721  0.0448 -0.5622
 6249TIP3    H118753   3.572   0.481   1.015  0.0805 -0.5256  0.1167
 6249TIP3    H218754   3.614   0.570   1.130  1.1905 -0.5310 -0.2665
 6250TIP3   OH218755   4.942   1.253   4.480 -0.1547 -0.4382  0.0369
 6250TIP3    H118756   5.029   1.230   4.513  2.4310  2.0447 -4.2453
 6250TIP3    H218757   4.899   1.295   4.555  2.8538 -0.3744  1.9098
 6251TIP3   OH218758   0.380   2.491   4.950  0.0275  0.2945 -0.0220
 6251TIP3    H118759   0.366   2.422   5.015  1.2453 -0.2462 -0.3016
 6251TIP3    H218760   0.437   2.450   4.884 -1.2539  0.7908 -1.4866
 6252TIP3   OH218761   6.015   4.556   4.577  0.2678  0.6367 -0.2626
 6252TIP3    H118762   6.092   4.538   4.522 -0.0909 -1.2356 -0.2176
 6252TIP3    H218763   5.950   4.492   4.548 -0.6939  1.0801  0.8552
 6253TIP3   OH218764   2.300   5.232   2.563  0.5202 -0.3075  0.6208
 6253TIP3    H118765   2.257   5.147   2.574 -0.3581 -0.0340 -0.5566
 6253TIP3    H218766   2.228   5.294   2.553  1.1653  0.4973  0.8190
 6254TIP3   OH218767   6.266   3.374   1.837 -0.2996  0.1522  0.1127
 6254TIP3    H118768   6.249   3.347   1.928 -0.5072  0.5364  0.1916
 6254TIP3    H218769   6.293   3.294   1.793  0.2036  0.0362  0.6130
 6255TIP3   OH218770   4.382   0.038   2.940 -0.1466 -0.0825 -0.4207
 6255TIP3    H118771   4.321  -0.032   2.965 -0.1509  0.4158  1.0420
 6255TIP3    H218772   4.468   0.003   2.962 -0.0367 -0.0982 -0.8576
 6256TIP3   OH218773   4.341   2.013   4.832  0.6187  0.0455  0.0050
 6256TIP3    H118774   4.387   1.931   4.814 -0.6697 -1.0035  1.2119
 6256TIP3    H218775   4.275   1.989   4.897 -0.8397  1.7124 -0.7801
 6257TIP3   OH218776   2.752   0.823   3.317  0.2193 -0.5285 -0.1304
 6257TIP3    H118777   2.799   0.856   3.394 -0.4700 -0.0832  0.1020
 6257TIP3    H218778   2.772   0.729   3.316  1.7529 -0.2291 -0.4829
 6258TIP3   OH218779   2.368   5.772   0.538  0.3155  0.1836 -0.4217
 6258TIP3    H118780   2.288   5.722   0.522 -0.6127  2.0362 -2.0756
 6258TIP3    H218781   2.401   5.740   0.622 -2.8919  0.2851  0.9870
 6259TIP3   OH218782   2.226   0.254   0.437 -0.3231 -0.2236  0.3313
 6259TIP3    H118783   2.203   0.257   0.344  1.1469 -0.6849 -0.0770
 6259TIP3    H218784   2.250   0.344   0.458 -0.3106 -0.1865  0.1662
 6260TIP3   OH218785   2.696   3.025   4.054  0.0224 -0.5616  0.0572
 6260TIP3    H118786   2.777   3.069   4.080 -0.6038  0.9852 -0.5216
 6260TIP3    H218787   2.632   3.052   4.120 -0.3485 -0.6723 -0.2547
 6261TIP3   OH218788   1.072   5.369   3.867 -0.2383 -1.0589  0.3430
 6261TIP3    H118789   1.140   5.419   3.821 -0.6204 -0.9951 -0.1600
 6261TIP3    H218790   1.121   5.306   3.920  0.3780  1.2605  2.7344
 6262TIP3   OH218791   3.082   4.872   0.905  0.1423  0.1104  0.0284
 6262TIP3    H118792   3.159   4.816   0.915 -0.3795 -0.5692  0.2724
 6262TIP3    H218793   3.104   4.930   0.832 -0.0705 -1.7174 -1.5470
 6263TIP3   OH218794   4.411   1.587   1.955 -0.7710  0.2154 -0.2103
 6263TIP3    H118795   4.495   1.567   1.997 -0.6216 -0.4271 -0.7882
 6263TIP3    H218796   4.346   1.571   2.024 -0.6012 -1.6969 -0.4421
 6264TIP3   OH218797   0.457   0.254   0.012  0.0963 -0.3699 -0.1004
 6264TIP3    H118798   0.534   0.218   0.056  0.6082 -0.6793 -1.2167
 6264TIP3    H218799   0.405   0.292   0.083  1.3083 -0.0904  0.6763
 6265TIP3   OH218800   5.121   3.844   0.575  0.1121  0.8795  0.4631
 6265TIP3    H118801   5.080   3.788   0.640 -3.3545  2.4796 -0.1398
 6265TIP3    H218802   5.078   3.821   0.493  2.7127  0.5475 -0.9243
 6266TIP3   OH218803   1.900   2.425   4.649  0.0188 -0.6159 -0.7482
 6266TIP3    H118804   1.826   2.365   4.655  0.0566 -0.5853  0.0797
 6266TIP3    H218805   1.913   2.438   4.555  0.4540 -2.4595 -0.9789
 6267TIP3   OH218806   1.600   3.861   0.441  0.0084 -0.3823  0.1901
 6267TIP3    H118807   1.584   3.848   0.535 -0.3097 -0.7135  0.0920
 6267TIP3    H218808   1.680   3.811   0.424  0.7648  0.6801  0.5314
 6268TIP3   OH218809   1.081   1.996   4.645 -0.5957  0.1145 -0.0141
 6268TIP3    H118810   1.048   2.052   4.715  0.0912  0.0549  0.3727
 6268TIP3    H218811   1.170   1.973   4.673 -1.0934 -1.7605  0.2037
 6269TIP3   OH218812   5.089   0.084   4.445 -0.1329  0.0100 -0.7731
 6269TIP3    H118813   5.170   0.054   4.404 -0.0724  1.2288 -1.5877
 6269TIP3    H218814   5.094   0.050   4.535  0.8662 -0.6555 -1.0651
 6270TIP3   OH218815   4.688   4.413   1.231 -0.1330 -0.1556  0.0230
 6270TIP3    H118816   4.711   4.499   1.267 -0.0424  0.0339 -0.4807
 6270TIP3    H218817   4.771   4.364   1.232  0.5913  0.8227 -2.6303
 6271TIP3   OH218818   3.549   4.765   1.023 -0.1964 -0.0342  0.3262
 6271TIP3    H118819   3.534   4.859   1.028  0.3623  0.0871 -0.1666
 6271TIP3    H218820   3.562   4.738   1.114  0.1975  0.4615  0.4238
 6272TIP3   OH218821   2.484   2.663   2.790  0.0235 -0.3034  0.1314
 6272TIP3    H118822   2.577   2.687   2.789 -0.0843  0.1131 -0.3429
 6272TIP3    H218823   2.458   2.665   2.698 -0.4722 -0.3651  0.2675
 6273TIP3   OH218824   1.881   4.779   4.489 -0.3995  0.1807  0.1253
 6273TIP3    H118825   1.895   4.872   4.473 -0.6852  0.0208 -1.2019
 6273TIP3    H218826   1.967   4.746   4.518 -0.2867  0.8335  0.5395
 6274TIP3   OH218827   2.134   5.031   4.045  0.2894 -0.0627  0.2996
 6274TIP3    H118828   2.118   5.120   4.014  1.0504  1.1554  3.0442
 6274TIP3    H218829   2.178   4.987   3.973 -0.7813  1.5098 -1.4026
 6275TIP3   OH218830   5.917   4.289   2.827 -0.2469 -0.4539  0.2500
 6275TIP3    H118831   5.966   4.339   2.893 -1.7623 -0.9442  1.8290
 6275TIP3    H218832   5.947   4.323   2.743  1.2555  0.6888  1.2070
 6276TIP3   OH218833   5.407   2.273   3.149  0.1334 -0.4733 -0.4062
 6276TIP3    H118834   5.334   2.284   3.089  1.1554  0.6869 -1.4778
 6276TIP3    H218835   5.386   2.194   3.199 -1.4883 -0.5536 -1.1847
 6277TIP3   OH218836   6.083   0.219   4.097  0.0925  0.3194 -0.2992
 6277TIP3    H118837   6.024   0.222   4.021 -1.5429 -0.9086  0.8444
 6277TIP3    H218838   6.061   0.297   4.147  0.0084  0.2928 -0.2934
 6278TIP3   OH218839   4.360   3.157   0.916  0.4021 -0.7063  0.4676
 6278TIP3    H118840   4.295   3.162   0.986  1.7460 -0.5645  1.7553
 6278TIP3    H218841   4.341   3.074   0.871 -2.8101  0.8788 -1.4770
 6279TIP3   OH218842   0.432   5.259   1.399  0.1326  0.2629  0.3428
 6279TIP3    H118843   0.410   5.204   1.474  0.1260  2.2904  1.9158
 6279TIP3    H218844   0.524   5.283   1.412  0.0129  0.9793 -0.0673
 6280TIP3   OH218845   0.588   2.972   4.429  0.3545 -0.0562 -0.4428
 6280TIP3    H118846   0.608   3.066   4.434 -0.0155 -0.0241  1.5623
 6280TIP3    H218847   0.662   2.935   4.381  0.8467  1.1720 -0.6924
 6281TIP3   OH218848   3.866   5.458   1.927  0.0609 -0.7972 -0.4353
 6281TIP3    H118849   3.854   5.553   1.927 -0.5542 -0.8713 -0.7044
 6281TIP3    H218850   3.818   5.428   1.850  1.1985 -1.2163 -1.0057
 6282TIP3   OH218851   6.118   0.699   2.160 -0.1059 -0.0174  0.8072
 6282TIP3    H118852   6.028   0.717   2.135 -0.0513 -0.4067  0.3035
 6282TIP3    H218853   6.111   0.627   2.223 -0.0847 -0.8009 -0.0693
 6283TIP3   OH218854   1.027   5.235   5.127  0.4382 -0.2544 -0.0436
 6283TIP3    H118855   0.933   5.245   5.141  0.4397 -0.7361  0.3262
 6283TIP3    H218856   1.062   5.211   5.212  0.6663 -1.6226 -0.4985
 6284TIP3   OH218857   6.098   3.313   0.638 -0.0766  0.7873 -0.2062
 6284TIP3    H118858   6.116   3.237   0.583 -3.3664  0.4260 -0.9746
 6284TIP3    H218859   6.054   3.375   0.580 -2.6345  0.8560  1.6360
 6285TIP3   OH218860   2.985   3.645   4.236  0.1392 -0.5733  0.2459
 6285TIP3    H118861   3.065   3.653   4.288  0.1183  1.0885  0.0777
 6285TIP3    H218862   3.013   3.609   4.152  0.5000 -1.1784  0.6145
 6286TIP3   OH218863   5.435   3.556   1.152 -0.3937  0.7440 -0.0689
 6286TIP3    H118864   5.482   3.624   1.103  0.0207  0.2301 -0.3936
 6286TIP3    H218865   5.343   3.580   1.143 -0.2549  1.2375 -0.2239
 6287TIP3   OH218866   1.253   4.514   3.707 -0.3813  0.5804  0.1759
 6287TIP3    H118867   1.184   4.459   3.743 -1.5970  2.2918  0.5612
 6287TIP3    H218868   1.297   4.551   3.783  0.6799 -0.1112 -0.0754
 6288TIP3   OH218869   5.445   5.866   3.887 -0.2060 -0.2919 -0.2160
 6288TIP3    H118870   5.486   5.953   3.892  2.2178 -1.3867  0.2849
 6288TIP3    H218871   5.433   5.851   3.793  2.0951 -0.5207 -0.5524
 6289TIP3   OH218872   0.048   2.214   4.010  0.1730  0.1753  0.5445
 6289TIP3    H118873   0.118   2.191   4.071 -0.2962 -1.1159  0.6163
 6289TIP3    H218874   0.090   2.215   3.924  0.3245 -0.3517  0.6137
 6290TIP3   OH218875   4.615   1.798   4.015 -0.0895  0.1250  0.4113
 6290TIP3    H118876   4.591   1.848   3.937  0.5119  0.8320  0.6693
 6290TIP3    H218877   4.688   1.846   4.053 -0.4376 -0.1599  1.4660
 6291TIP3   OH218878   3.925   3.053   5.054  0.0022  0.6293 -0.5515
 6291TIP3    H118879   3.956   2.992   5.122  0.2136  1.3936  0.0538
 6291TIP3    H218880   4.005   3.088   5.016 -0.0832  1.8773  0.3490
 6292TIP3   OH218881   1.148   1.379   4.097 -0.9989 -0.1655  0.0323
 6292TIP3    H118882   1.172   1.302   4.045  0.0367  0.2789 -0.1694
 6292TIP3    H218883   1.189   1.364   4.182  1.3223  1.2624 -0.7559
 6293TIP3   OH218884   0.057   5.408   2.200 -0.1380 -0.0356  0.0929
 6293TIP3    H118885   0.009   5.333   2.164  1.3337 -0.6846 -0.5930
 6293TIP3    H218886   0.061   5.471   2.128  2.1061 -1.0021 -0.7101
 6294TIP3   OH218887   2.656   3.349   3.928 -0.0049 -0.4234  0.2485
 6294TIP3    H118888   2.659   3.302   4.012  0.6031 -1.0443 -0.1037
 6294TIP3    H218889   2.565   3.375   3.918 -0.1256 -0.5359  1.0011
 6295TIP3   OH218890   2.477   3.235   2.177 -0.1721 -0.3343  0.5352
 6295TIP3    H118891   2.505   3.303   2.238 -1.5541  0.7983 -0.0492
 6295TIP3    H218892   2.437   3.168   2.232 -0.2110  0.0587  0.9917
 6296TIP3   OH218893   0.545   5.215   0.230 -0.4650  0.2855  0.3369
 6296TIP3    H118894   0.503   5.185   0.149  0.0886 -0.1918  0.2226
 6296TIP3    H218895   0.636   5.230   0.205  0.1809 -1.7158  1.3027
 6297TIP3   OH218896   5.305   3.002   2.503 -0.2645  0.0631  0.4039
 6297TIP3    H118897   5.271   3.073   2.448 -1.1213 -0.4585  0.2459
 6297TIP3    H218898   5.331   2.934   2.441  1.6417  0.6689  0.4878
 6298TIP3   OH218899   2.135   5.338   3.221  0.0140  0.0558 -0.0456
 6298TIP3    H118900   2.227   5.366   3.226  0.1622 -0.5337  0.7583
 6298TIP3    H218901   2.118   5.296   3.305  0.1279 -3.1688 -1.4840
 6299TIP3   OH218902   4.794   3.512   1.199  0.5092 -0.4494  0.4628
 6299TIP3    H118903   4.858   3.511   1.128 -1.7522 -1.0081 -1.7099
 6299TIP3    H218904   4.735   3.583   1.177  0.6149  0.4437  2.7370
 6300TIP3   OH218905   1.683   2.137   0.178 -0.2432 -0.0184 -0.0812
 6300TIP3    H118906   1.742   2.150   0.252  0.1596 -1.7507 -0.0679
 6300TIP3    H218907   1.684   2.221   0.131  3.7668 -0.5011 -1.2203
 6301TIP3   OH218908   2.303   2.184   3.579 -0.4249 -0.5031  0.2879
 6301TIP3    H118909   2.262   2.260   3.621 -0.2255 -0.2228 -0.0178
 6301TIP3    H218910   2.261   2.179   3.494 -1.6099 -1.7273  0.9075
 6302TIP3   OH218911   1.576   3.338   0.965 -0.2345  0.0120  0.2523
 6302TIP3    H118912   1.592   3.259   1.016  2.8826 -0.3658 -1.0901
 6302TIP3    H218913   1.559   3.305   0.876  0.6944  0.7989 -0.2321
 6303TIP3   OH218914   0.711   3.686   3.793  0.0838  0.3670 -0.3240
 6303TIP3    H118915   0.672   3.599   3.799 -0.7677  0.7964  0.9169
 6303TIP3    H218916   0.778   3.688   3.862 -1.4784  1.3940  1.2852
 6304TIP3   OH218917   3.169   3.986   1.711 -0.0244 -0.2665 -0.3723
 6304TIP3    H118918   3.160   3.948   1.798 -2.2107 -0.3682 -0.5877
 6304TIP3    H218919   3.220   3.920   1.662 -0.2438 -0.9973  0.3554
 6305TIP3   OH218920   4.921   3.239   0.509 -0.1215 -0.3037 -0.1609
 6305TIP3    H118921   4.890   3.148   0.510 -0.8351 -0.1462 -2.2200
 6305TIP3    H218922   5.011   3.233   0.478  0.3474 -0.3935  1.1627
 6306TIP3   OH218923   1.377   5.368   3.535  0.0538 -0.0271  0.1103
 6306TIP3    H118924   1.459   5.319   3.540  0.8709  1.3470  0.7686
 6306TIP3    H218925   1.363   5.380   3.441 -0.4402 -1.9284 -0.0856
 6307TIP3   OH218926   0.389   0.630   2.185 -0.0510 -0.2435 -0.3585
 6307TIP3    H118927   0.420   0.559   2.241  0.2936  0.1601 -0.0305
 6307TIP3    H218928   0.294   0.619   2.182 -0.1438  0.0794  0.8147
 6308TIP3   OH218929   2.047   5.600   1.180  0.4705  0.3247  1.0431
 6308TIP3    H118930   2.072   5.551   1.259  2.4988 -1.0224 -0.3169
 6308TIP3    H218931   2.114   5.668   1.173  0.0560  0.7017  0.6996
 6309TIP3   OH218932   3.367   0.749   4.726  0.1264 -0.2556  0.1777
 6309TIP3    H118933   3.448   0.702   4.709  0.5308 -0.1372  1.6579
 6309TIP3    H218934   3.311   0.685   4.771  0.1111  0.2046  0.8347
 6310TIP3   OH218935   6.060   1.830   0.063 -0.1760 -0.3378  0.1668
 6310TIP3    H118936   5.981   1.863   0.019 -0.7656  0.3471  1.6762
 6310TIP3    H218937   6.056   1.867   0.151  0.4424 -2.4901  1.1574
 6311TIP3   OH218938   5.390   5.207   1.012  0.1367 -0.3009  0.1276
 6311TIP3    H118939   5.337   5.242   0.940 -0.5254 -2.8484 -0.7491
 6311TIP3    H218940   5.335   5.218   1.089  0.6070  1.9270  0.1980
 6312TIP3   OH218941   2.625   5.184   1.731  0.7457 -0.2656  0.1305
 6312TIP3    H118942   2.595   5.131   1.658 -0.0263 -0.4065  0.5398
 6312TIP3    H218943   2.717   5.202   1.711  0.6268 -0.5419 -0.7233
 6313TIP3   OH218944   1.398   0.583   1.093 -0.0432 -0.3545  0.0872
 6313TIP3    H118945   1.333   0.651   1.105 -0.5484 -1.0261  1.3145
 6313TIP3    H218946   1.381   0.548   1.005 -0.7227  0.0967  0.0403
 6314TIP3   OH218947   6.083   5.759   0.357  0.2038 -0.1355  0.3989
 6314TIP3    H118948   6.014   5.694   0.347 -0.5746  0.7827 -0.4067
 6314TIP3    H218949   6.101   5.761   0.451 -0.1841 -1.0667  0.4974
 6315TIP3   OH218950   0.498   1.522   3.224  0.1185  0.4415 -0.0446
 6315TIP3    H118951   0.500   1.483   3.312 -0.5185  0.8950  0.1851
 6315TIP3    H218952   0.522   1.450   3.165 -0.7553 -0.2292  0.3909
 6316TIP3   OH218953   1.736   4.821   0.103  0.2417 -0.6349  0.0506
 6316TIP3    H118954   1.794   4.870   0.162 -1.6111 -0.6823  2.0320
 6316TIP3    H218955   1.648   4.851   0.125 -0.6701 -2.1002 -1.3637
 6317TIP3   OH218956   0.822   4.074   0.932 -1.0974 -0.0111 -0.8653
 6317TIP3    H118957   0.891   4.091   0.868 -2.2468 -0.1641 -2.1993
 6317TIP3    H218958   0.750   4.131   0.906 -0.8589  1.5617  1.6445
 6318TIP3   OH218959   0.347   4.177   3.982  0.0279 -0.5622 -0.2231
 6318TIP3    H118960   0.295   4.184   4.062  0.5785  1.5337  0.0150
 6318TIP3    H218961   0.313   4.247   3.926  2.2823  0.6228 -0.2107
 6319TIP3   OH218962   4.427   0.542   0.636  0.5994 -0.2430  0.2838
 6319TIP3    H118963   4.436   0.457   0.680 -0.8330  1.0279  3.3123
 6319TIP3    H218964   4.348   0.533   0.582  2.5951 -1.9467 -2.6689
 6320TIP3   OH218965   0.852   3.155   1.046 -0.2097 -0.1435 -0.0667
 6320TIP3    H118966   0.837   3.142   1.139 -0.0592  1.2175  0.1788
 6320TIP3    H218967   0.768   3.189   1.013 -0.5087 -1.3607 -0.5941
 6321TIP3   OH218968   2.613   3.531   2.611 -0.1264 -0.4719 -0.1883
 6321TIP3    H118969   2.708   3.542   2.612 -0.1770 -0.0555  0.8065
 6321TIP3    H218970   2.595   3.488   2.527  0.5802  2.4842 -1.9971
 6322TIP3   OH218971   2.029   1.798   2.627 -0.1623  0.1765 -0.2725
 6322TIP3    H118972   1.948   1.754   2.655 -0.0558 -1.1069 -1.8548
 6322TIP3    H218973   2.099   1.737   2.650  0.1892  0.4630 -0.5635
 6323TIP3   OH218974   0.900   3.549   4.460 -0.1348 -0.0676  0.0057
 6323TIP3    H118975   0.849   3.597   4.525  1.2892  0.9767  0.4081
 6323TIP3    H218976   0.836   3.493   4.417 -2.2566  3.0630 -1.3682
 6324TIP3   OH218977   3.709   3.390   0.571 -0.2888 -0.0870 -0.2846
 6324TIP3    H118978   3.729   3.434   0.489 -0.7012 -1.4100 -1.1153
 6324TIP3    H218979   3.787   3.403   0.625 -0.3203  1.4452 -0.5770
 6325TIP3   OH218980   0.317   4.088   0.972 -0.0622 -0.5683 -0.2251
 6325TIP3    H118981   0.325   4.167   1.025 -0.0776  1.4255 -2.9958
 6325TIP3    H218982   0.224   4.069   0.969  0.0631 -1.8255  1.8615
 6326TIP3   OH218983   6.122   1.979   3.777 -0.0912 -0.2839 -0.2603
 6326TIP3    H118984   6.144   1.985   3.870  1.3978 -0.6476 -0.5676
 6326TIP3    H218985   6.187   2.034   3.733  0.3101 -1.4845 -1.2330
 6327TIP3   OH218986   0.580   1.252   4.022  0.0194 -0.5211 -0.8543
 6327TIP3    H118987   0.597   1.170   3.976  3.3392 -0.2221 -0.4320
 6327TIP3    H218988   0.596   1.321   3.957 -1.7664 -0.1358 -0.9388
 6328TIP3   OH218989   4.352   5.157   4.802  0.0917  0.1644  0.5939
 6328TIP3    H118990   4.387   5.121   4.884  0.4919  1.3110  0.9457
 6328TIP3    H218991   4.419   5.220   4.774 -0.3461  0.2490 -0.2768
 6329TIP3   OH218992   5.713   0.278   2.243 -0.6612 -0.4538  0.0199
 6329TIP3    H118993   5.706   0.364   2.285 -0.9399 -0.5458  0.1635
 6329TIP3    H218994   5.659   0.284   2.164  0.4888 -0.0275 -0.7570
 6330TIP3   OH218995   5.872   0.985   3.972  0.0223  0.1103 -0.3373
 6330TIP3    H118996   5.874   0.930   3.894  1.3249  1.5589 -1.3886
 6330TIP3    H218997   5.923   0.938   4.037 -1.1678 -1.1648 -0.2746
 6331TIP3   OH218998   4.807   3.699   3.275  0.0750 -0.1074  0.2538
 6331TIP3    H118999   4.891   3.740   3.296 -0.1395  1.1358 -1.1410
 6331TIP3    H219000   4.792   3.637   3.347  0.7417  1.7899  2.1346
 6332TIP3   OH219001   0.048   0.117   5.093  0.3170  0.1176  0.1479
 6332TIP3    H119002   0.048   0.025   5.119 -1.2723  0.5437  1.9662
 6332TIP3    H219003   0.140   0.143   5.093  0.6967 -1.1543  0.9152
 6333TIP3   OH219004   5.093   2.025   2.443  0.2794 -0.8531 -0.4724
 6333TIP3    H119005   5.016   1.974   2.469 -0.5579  1.0487  1.1045
 6333TIP3    H219006   5.077   2.047   2.351 -1.1919 -0.3249 -0.1171
 6334TIP3   OH219007   0.730   4.925   2.426 -0.1193 -0.0175  0.0089
 6334TIP3    H119008   0.799   4.896   2.366  0.7490 -1.7324  1.7443
 6334TIP3    H219009   0.765   4.909   2.513 -3.4302 -2.9744  1.0391
 6335TIP3   OH219010   4.148   4.011   4.235  0.6889 -0.0741  0.2396
 6335TIP3    H119011   4.213   3.957   4.281 -0.1025 -0.4580  0.9319
 6335TIP3    H219012   4.200   4.066   4.177  1.5479 -1.3234 -0.2236
 6336TIP3   OH219013   5.062   0.971   0.892 -0.4244 -0.5558 -0.2982
 6336TIP3    H119014   4.981   0.936   0.930 -1.5275 -0.5741 -2.5056
 6336TIP3    H219015   5.131   0.914   0.926 -1.7703 -2.8092 -1.1295
 6337TIP3   OH219016   1.001   0.221   3.474  0.0294 -0.0446  0.0498
 6337TIP3    H119017   1.054   0.299   3.489  0.3727 -0.1062 -0.8074
 6337TIP3    H219018   0.990   0.217   3.379  0.0769 -1.0752  0.0751
 6338TIP3   OH219019   5.990   5.459  -0.004 -0.5039  0.4751  0.0180
 6338TIP3    H119020   6.069   5.513  -0.008  1.2034 -1.7715  1.0870
 6338TIP3    H219021   6.022   5.371   0.018 -3.0235 -1.2375 -2.4606
 6339TIP3   OH219022   4.344   3.286   0.162  0.3912 -0.3109  0.3678
 6339TIP3    H119023   4.425   3.293   0.112 -0.7630 -1.0437 -1.7302
 6339TIP3    H219024   4.277   3.263   0.097 -1.2322 -1.2737  2.2509
 6340TIP3   OH219025   2.945   4.083   2.726 -0.1673 -0.3639 -0.5973
 6340TIP3    H119026   2.926   4.049   2.638 -1.3263  0.4947 -0.7127
 6340TIP3    H219027   2.926   4.011   2.785 -0.2621 -0.6751 -1.0038
 6341TIP3   OH219028   3.025   1.912   3.148 -0.1650 -0.7013 -0.1297
 6341TIP3    H119029   3.082   1.987   3.164 -0.2927 -0.8475  1.1512
 6341TIP3    H219030   2.938   1.942   3.175 -0.1721 -1.3740  0.6239
 6342TIP3   OH219031   0.946   4.815   0.879  0.0157  0.0497  0.5377
 6342TIP3    H119032   0.863   4.864   0.881  0.3477  0.7141 -0.8197
 6342TIP3    H219033   1.008   4.875   0.838  1.3454 -0.2123  2.0671
 6343TIP3   OH219034   3.647   5.062   3.030 -0.3821 -0.1552 -0.2179
 6343TIP3    H119035   3.570   5.104   3.067 -0.4195  0.0015 -0.4672
 6343TIP3    H219036   3.718   5.083   3.091 -0.4425  0.0957 -0.2325
 6344TIP3   OH219037   2.955   0.015   1.828  0.1424 -0.2302  0.5750
 6344TIP3    H119038   3.049   0.026   1.815  0.1503  0.2669  1.0252
 6344TIP3    H219039   2.926   0.096   1.870 -0.5612 -0.2150  0.0844
 6345TIP3   OH219040   5.119   1.569  -0.015  0.2373  0.1377  0.7891
 6345TIP3    H119041   5.167   1.485  -0.016  1.8187  1.0061  0.5131
 6345TIP3    H219042   5.058   1.560   0.058  0.8496 -1.0115  1.2003
 6346TIP3   OH219043   5.654   4.856   0.728  0.6489  0.3304 -0.4325
 6346TIP3    H119044   5.613   4.904   0.656  0.6254  0.8864 -0.0515
 6346TIP3    H219045   5.626   4.902   0.807  1.1687  0.0888 -0.1046
 6347TIP3   OH219046   3.191   3.739   2.264 -0.4598  0.2595 -0.2382
 6347TIP3    H119047   3.175   3.801   2.335 -0.7132  2.8558 -2.3992
 6347TIP3    H219048   3.123   3.758   2.199 -0.3268 -2.0883 -1.1711
 6348TIP3   OH219049   0.255   1.027   3.359  0.0033 -0.5786 -0.8196
 6348TIP3    H119050   0.214   0.952   3.317 -0.0210 -0.7888 -0.4202
 6348TIP3    H219051   0.315   1.062   3.292  0.2455 -1.1364 -0.8958
 6349TIP3   OH219052   1.978   3.027   3.101  0.0494  0.2105 -0.0043
 6349TIP3    H119053   1.982   2.957   3.035  0.5300  1.2169 -1.0783
 6349TIP3    H219054   2.070   3.044   3.123 -0.1397 -0.8746  1.7938
 6350TIP3   OH219055   5.531   1.555   0.977  0.5524  0.3512  0.0757
 6350TIP3    H119056   5.457   1.495   0.987 -1.3236  2.3151 -1.1960
 6350TIP3    H219057   5.566   1.565   1.066 -1.0044 -0.2741  0.7890
 6351TIP3   OH219058   4.504   4.814   1.153 -0.2033 -0.2243  0.4031
 6351TIP3    H119059   4.475   4.821   1.244  0.2374 -0.4753  0.5635
 6351TIP3    H219060   4.529   4.903   1.128  1.2054 -0.4100  1.0453
 6352TIP3   OH219061   2.686   4.742   2.086 -0.1926 -0.0097 -0.1787
 6352TIP3    H119062   2.765   4.706   2.045  0.7065  1.0742  0.5775
 6352TIP3    H219063   2.622   4.671   2.077  1.0328 -1.1697 -0.2420
 6353TIP3   OH219064   3.814   1.473   5.128 -1.0307 -0.0710  0.3495
 6353TIP3    H119065   3.840   1.383   5.149 -2.2185 -0.5936 -0.2865
 6353TIP3    H219066   3.724   1.464   5.095 -0.2454  1.0293 -2.2875
 6354TIP3   OH219067   5.662   4.613   3.109  0.5975  0.0327  0.1408
 6354TIP3    H119068   5.657   4.587   3.017 -0.4957  0.8369 -0.0441
 6354TIP3    H219069   5.571   4.620   3.137  0.9235 -1.1499  1.5771
 6355TIP3   OH219070   1.194   0.748   0.222  0.4221 -0.0509 -0.1992
 6355TIP3    H119071   1.275   0.768   0.175  0.3899 -0.5321 -0.4556
 6355TIP3    H219072   1.143   0.693   0.163 -0.5133  1.0139 -0.4251
 6356TIP3   OH219073   5.486   3.170   0.339  0.1061 -0.1046  0.0290
 6356TIP3    H119074   5.436   3.247   0.313  1.3127  0.9000  0.5744
 6356TIP3    H219075   5.426   3.119   0.394 -0.7430  0.3763 -0.4343
 6357TIP3   OH219076   2.495   0.407   0.393  0.4376 -0.6452 -0.3583
 6357TIP3    H119077   2.538   0.387   0.476  1.2457 -0.3171 -0.6786
 6357TIP3    H219078   2.483   0.322   0.351  1.3311 -0.7161 -0.5110
 6358TIP3   OH219079   2.323   1.839   2.413 -0.0872  0.3462 -0.0847
 6358TIP3    H119080   2.268   1.890   2.353 -1.8832 -1.6064 -0.2285
 6358TIP3    H219081   2.379   1.787   2.355 -0.0388  0.3132 -0.0080
 6359TIP3   OH219082   0.176   2.611   1.407 -0.9913  0.2502 -0.6783
 6359TIP3    H119083   0.139   2.566   1.483 -0.3907  1.2467  0.2315
 6359TIP3    H219084   0.253   2.657   1.442 -0.8041  0.8606 -1.8555
 6360TIP3   OH219085   0.390   0.689   1.710 -0.0095 -0.3624 -0.4343
 6360TIP3    H119086   0.453   0.675   1.781 -1.0410  0.0537  0.5913
 6360TIP3    H219087   0.429   0.758   1.656  1.1840 -1.2804 -0.7755
 6361TIP3   OH219088   3.241   0.494   0.750 -0.4654 -0.1580  0.8182
 6361TIP3    H119089   3.157   0.528   0.780 -0.4063  0.2176  0.5687
 6361TIP3    H219090   3.292   0.482   0.830 -0.1132  1.3641  0.8526
 6362TIP3   OH219091   1.294   2.240   0.501 -0.4337 -0.2072  0.3938
 6362TIP3    H119092   1.244   2.297   0.559  1.4498  1.3385  0.6259
 6362TIP3    H219093   1.262   2.261   0.413 -0.5811  0.3655  0.5785
 6363TIP3   OH219094   1.268   0.964   4.630  0.6094 -0.5818  0.4381
 6363TIP3    H119095   1.289   0.905   4.558  1.0756 -1.4184  1.2282
 6363TIP3    H219096   1.221   0.909   4.693 -2.0869  0.7190 -0.2886
 6364TIP3   OH219097   0.096   3.104   0.263 -0.5076  0.1682  0.3219
 6364TIP3    H119098   0.154   3.033   0.293 -0.1911 -0.7474 -2.2369
 6364TIP3    H219099   0.058   3.071   0.182  0.6851  3.3821 -1.7232
 6365TIP3   OH219100   1.578   5.630   0.917 -0.4677 -0.2859 -0.3523
 6365TIP3    H119101   1.669   5.640   0.947 -0.2531 -0.9477 -0.7562
 6365TIP3    H219102   1.543   5.719   0.916  0.1267 -0.0422 -0.0314
 6366TIP3   OH219103   0.126   3.863   3.524  0.5662 -0.0322 -0.3161
 6366TIP3    H119104   0.051   3.822   3.481  0.5702  2.0604 -2.5487
 6366TIP3    H219105   0.189   3.792   3.533 -0.9495 -1.4257 -0.1435
 6367TIP3   OH219106   3.343   0.914   3.805  0.0466  0.1886  0.0851
 6367TIP3    H119107   3.376   0.838   3.853  1.4346  1.1974  0.8189
 6367TIP3    H219108   3.297   0.966   3.872  0.6022  0.8220 -0.0166
 6368TIP3   OH219109   4.421   2.154   0.730 -0.4914 -0.7097 -0.2376
 6368TIP3    H119110   4.430   2.093   0.657  2.5316 -2.1947  1.1566
 6368TIP3    H219111   4.481   2.120   0.797 -0.4014  2.5429  1.5589
 6369TIP3   OH219112   0.642   3.927   2.478  0.7592 -0.1401 -0.0999
 6369TIP3    H119113   0.674   4.016   2.490  1.1509 -0.3283  0.2824
 6369TIP3    H219114   0.661   3.906   2.387 -1.3667  0.9658 -0.8917
 6370TIP3   OH219115   1.314   0.768   4.448  0.5497 -0.1674  0.0857
 6370TIP3    H119116   1.236   0.726   4.413 -0.8040  1.1622  1.3885
 6370TIP3    H219117   1.364   0.696   4.488 -0.8271 -0.8086  0.7007
 6371TIP3   OH219118   0.680   0.498   3.363 -0.5020  0.3882  0.1755
 6371TIP3    H119119   0.715   0.456   3.441  0.2810 -0.8301 -0.7986
 6371TIP3    H219120   0.755   0.547   3.327 -0.7570  0.6396 -0.0174
 6372TIP3   OH219121   0.751   4.354   3.281  0.5551  0.7717 -0.0087
 6372TIP3    H119122   0.693   4.426   3.302  0.3610  0.5636  0.1654
 6372TIP3    H219123   0.715   4.316   3.201  0.2690  0.4442  0.2746
 6373TIP3   OH219124   2.126   2.816   2.788  0.3858 -0.7970 -0.7102
 6373TIP3    H119125   2.204   2.829   2.841  0.6627 -1.8562 -0.8332
 6373TIP3    H219126   2.114   2.721   2.785  0.4651 -0.7915 -2.6326
 6374TIP3   OH219127   0.663   3.448   5.081  0.2202 -0.0885 -0.6856
 6374TIP3    H119128   0.589   3.500   5.112  1.0975  1.8179 -1.5930
 6374TIP3    H219129   0.642   3.430   4.989  0.8911  0.5424 -0.9716
 6375TIP3   OH219130   4.793   3.360   4.691  0.0276  0.1100 -0.4801
 6375TIP3    H119131   4.706   3.393   4.669 -0.0651 -0.1610 -0.5239
 6375TIP3    H219132   4.800   3.371   4.786 -0.2488 -0.3281 -0.4065
 6376TIP3   OH219133   1.456   5.121   1.561  0.2720  0.7476 -0.4684
 6376TIP3    H119134   1.513   5.154   1.631 -1.6164 -0.1007  1.5835
 6376TIP3    H219135   1.412   5.199   1.527 -0.8552  0.9079  1.2622
 6377TIP3   OH219136   1.831   5.152   3.817  0.7922 -0.0766  0.3307
 6377TIP3    H119137   1.836   5.167   3.911  2.3024  1.0966  0.0979
 6377TIP3    H219138   1.903   5.092   3.798  1.4822  0.9105 -0.2742
 6378TIP3   OH219139   0.024   3.672   0.716  0.0515 -0.0402 -0.5725
 6378TIP3    H119140  -0.014   3.725   0.646 -1.9648 -2.6028 -1.5861
 6378TIP3    H219141   0.080   3.609   0.671  1.8385  0.6734  0.5406
 6379TIP3   OH219142   5.234   4.699   3.632  0.1328  0.0522 -0.2068
 6379TIP3    H119143   5.311   4.670   3.582  0.5625 -0.9257  1.0021
 6379TIP3    H219144   5.160   4.679   3.575  0.5962 -1.2532 -0.3720
 6380TIP3   OH219145   2.482   4.497   1.432 -0.0271 -0.2630  0.4034
 6380TIP3    H119146   2.519   4.524   1.516 -1.1924 -0.1550  0.8903
 6380TIP3    H219147   2.398   4.458   1.453 -0.5699  0.2207 -0.7463
 6381TIP3   OH219148   5.518   5.641   1.098 -0.5296 -0.0163  0.1079
 6381TIP3    H119149   5.544   5.730   1.122  0.1595 -0.4097  0.8787
 6381TIP3    H219150   5.525   5.592   1.180 -2.0415 -0.5307 -0.0504
 6382TIP3   OH219151   4.030   1.493   0.606  0.3842 -0.2889  0.1260
 6382TIP3    H119152   3.944   1.485   0.647 -0.1873  1.5406 -0.5889
 6382TIP3    H219153   4.012   1.535   0.522  1.9092 -0.5880 -0.3810
 6383TIP3   OH219154   2.081   5.374   0.463  0.3905  0.1026  0.6696
 6383TIP3    H119155   2.074   5.440   0.394  0.7065  0.5545  1.0682
 6383TIP3    H219156   2.148   5.408   0.522  1.3234 -1.0644  0.3227
 6384TIP3   OH219157   5.315   5.765   1.812 -0.3834  0.6369  0.2175
 6384TIP3    H119158   5.390   5.754   1.870 -1.1178 -0.1425  1.0493
 6384TIP3    H219159   5.292   5.857   1.820 -0.4686  0.5451  1.1826
 6385TIP3   OH219160   3.792   0.999   4.094 -0.2171  0.0149  0.2060
 6385TIP3    H119161   3.787   0.952   4.011  1.1893  1.6452 -0.8853
 6385TIP3    H219162   3.786   1.092   4.069  2.7813  0.6994  1.5834
 6386TIP3   OH219163   5.898   3.954   4.253 -0.0046  0.4834  0.4680
 6386TIP3    H119164   5.827   3.953   4.317 -0.9675  1.8835 -0.5171
 6386TIP3    H219165   5.884   3.875   4.201 -1.2121  1.0218 -0.0711
 6387TIP3   OH219166   4.341   0.865   2.291  0.8080  0.2744  0.2991
 6387TIP3    H119167   4.374   0.802   2.227  1.7420  1.0428 -0.0008
 6387TIP3    H219168   4.416   0.921   2.310 -0.4844  2.6626 -1.0731
 6388TIP3   OH219169   2.327   3.840   5.014 -0.1639  0.0138 -0.0262
 6388TIP3    H119170   2.410   3.866   4.975  0.4480 -1.3569  0.3160
 6388TIP3    H219171   2.347   3.761   5.064 -1.0775  1.1639  2.3626
 6389TIP3   OH219172   2.606   4.737   2.988  0.7980 -0.3006  0.0663
 6389TIP3    H119173   2.527   4.769   2.945  1.2491 -1.6306 -1.9154
 6389TIP3    H219174   2.587   4.742   3.082 -0.8967  1.1297 -0.3029
 6390TIP3   OH219175   4.734   1.445   1.664  0.0737 -0.5231  0.6287
 6390TIP3    H119176   4.643   1.439   1.695 -0.5570  0.1291 -0.9777
 6390TIP3    H219177   4.785   1.469   1.741 -1.5383  1.9850  1.0162
 6391TIP3   OH219178   2.470   3.376   0.331 -0.0771  0.2560  0.1364
 6391TIP3    H119179   2.492   3.432   0.406  0.2132  1.0410 -0.5059
 6391TIP3    H219180   2.511   3.292   0.351 -0.0085  0.4533  0.8625
 6392TIP3   OH219181   2.601   4.031   2.067  1.0293  0.1949 -0.0641
 6392TIP3    H119182   2.590   4.125   2.057 -2.5170  0.0905  1.3769
 6392TIP3    H219183   2.650   4.004   1.989 -0.1470  2.8814 -1.8841
 6393TIP3   OH219184   4.635   0.775   1.206 -0.2016  0.5162  0.7045
 6393TIP3    H119185   4.693   0.849   1.191 -1.3669  1.4485  0.7076
 6393TIP3    H219186   4.555   0.797   1.159  0.7067 -2.5116 -2.7627
 6394TIP3   OH219187   4.957   4.871   3.168 -0.2305 -0.1462  0.4127
 6394TIP3    H119188   4.864   4.896   3.171 -0.4646 -1.0672  2.5611
 6394TIP3    H219189   4.957   4.778   3.192  1.3735  0.2631  2.2017
 6395TIP3   OH219190   0.806   3.749   2.760  0.0301 -0.2397  0.2792
 6395TIP3    H119191   0.815   3.820   2.697  2.2861 -0.0413  0.7432
 6395TIP3    H219192   0.837   3.671   2.713  1.5119 -0.1278  0.9919
 6396TIP3   OH219193   5.650   5.823   0.164  0.5319 -0.3433  0.2986
 6396TIP3    H119194   5.641   5.878   0.086  0.5048  0.2215  0.6948
 6396TIP3    H219195   5.686   5.741   0.131 -3.5644 -1.8310 -0.9856
 6397TIP3   OH219196   2.175   2.046   5.082  0.0592  0.7437  0.1893
 6397TIP3    H119197   2.105   2.099   5.120  0.0184  0.0677  1.0988
 6397TIP3    H219198   2.255   2.095   5.101  0.1032  0.1247  1.7464
 6398TIP3   OH219199   3.648   2.529   3.495 -0.0308 -0.1199  0.0360
 6398TIP3    H119200   3.613   2.507   3.582  1.6551 -0.9641  0.5403
 6398TIP3    H219201   3.666   2.623   3.499  0.2076 -0.1853  0.6727
 6399TIP3   OH219202   2.333   2.761   1.901 -0.1754 -0.0197  0.4419
 6399TIP3    H119203   2.339   2.723   1.988  0.9326 -1.0082 -0.0298
 6399TIP3    H219204   2.350   2.687   1.842 -1.7938  0.4358 -0.6522
 6400TIP3   OH219205   3.836   2.862   3.825 -0.5494  0.0643  0.3033
 6400TIP3    H119206   3.851   2.906   3.741 -0.6336  0.2519  0.3877
 6400TIP3    H219207   3.877   2.776   3.814  1.3710  0.8564  0.8184
 6401TIP3   OH219208   2.477   1.478   3.538 -0.2143  0.2252  0.5751
 6401TIP3    H119209   2.432   1.534   3.475 -2.1317  1.1416  2.6520
 6401TIP3    H219210   2.490   1.533   3.615  3.6205 -0.3116  0.5317
 6402TIP3   OH219211   0.956   4.593   3.651  0.2875 -0.0439 -0.0844
 6402TIP3    H119212   1.000   4.571   3.569  0.0863 -0.3680 -0.1059
 6402TIP3    H219213   0.967   4.515   3.706 -0.9601 -0.4588 -0.3846
 6403TIP3   OH219214   3.874   3.386   0.043  0.1021  0.0640  0.0293
 6403TIP3    H119215   3.830   3.470   0.033 -0.9519 -0.5220 -0.3551
 6403TIP3    H219216   3.823   3.325  -0.010  0.9603 -0.7866  0.1526
 6404TIP3   OH219217   0.204   0.051   2.744  0.0392 -0.2161 -0.0867
 6404TIP3    H119218   0.212   0.100   2.825 -0.9747  0.3319 -0.2945
 6404TIP3    H219219   0.113   0.064   2.717 -0.1590 -1.8962 -0.3610
 6405TIP3   OH219220   0.839   2.953   1.258 -0.2203 -0.4150  0.0991
 6405TIP3    H119221   0.841   2.906   1.341  0.6959  0.9572  0.8997
 6405TIP3    H219222   0.755   2.928   1.219 -0.2878 -1.7562  1.0193
 6406TIP3   OH219223   4.315   2.795   3.233 -0.1977 -0.4288  0.2062
 6406TIP3    H119224   4.370   2.770   3.158  1.0301 -0.7412  1.1651
 6406TIP3    H219225   4.330   2.725   3.297 -1.0941 -0.0798  0.8044
 6407TIP3   OH219226   2.890   5.214   1.648 -0.3366  0.5264 -0.2077
 6407TIP3    H119227   2.940   5.180   1.574 -1.4733 -0.6183 -0.4765
 6407TIP3    H219228   2.955   5.228   1.717  0.5193  0.2493 -0.9449
 6408TIP3   OH219229   0.374   1.090   1.731  0.1466  0.2935 -0.1337
 6408TIP3    H119230   0.338   1.037   1.802 -0.4033 -2.0176 -1.9882
 6408TIP3    H219231   0.297   1.129   1.689  0.4092  1.0045  0.0231
 6409TIP3   OH219232   3.319   3.348   3.821 -0.0060 -0.1398 -0.6959
 6409TIP3    H119233   3.337   3.391   3.738  0.7654 -1.0579 -1.0276
 6409TIP3    H219234   3.344   3.412   3.887  0.0490  0.3342 -1.1688
 6410TIP3   OH219235   0.963   0.380   5.082 -0.6115  0.2149  0.0614
 6410TIP3    H119236   1.012   0.366   5.001  0.5216  1.0898  0.5679
 6410TIP3    H219237   0.989   0.307   5.138  1.2069  1.3830  0.8110
 6411TIP3   OH219238   2.533   4.609   4.741  0.3079 -0.4633  0.1096
 6411TIP3    H119239   2.484   4.677   4.788 -0.8778 -0.4409 -1.1021
 6411TIP3    H219240   2.466   4.548   4.711  1.1850 -1.2264 -0.3412
 6412TIP3   OH219241   1.903   2.770   1.114 -0.0844 -0.3211  0.4274
 6412TIP3    H119242   1.958   2.839   1.149  0.7416  0.3477 -2.0209
 6412TIP3    H219243   1.814   2.795   1.138  0.0978  2.1225 -1.1117
 6413TIP3   OH219244   1.010   1.696   3.756  0.6209 -0.1501  0.1316
 6413TIP3    H119245   0.958   1.619   3.778  1.5249 -0.9768 -0.5405
 6413TIP3    H219246   1.074   1.703   3.827 -0.5682  1.0714  1.1435
 6414TIP3   OH219247   5.287   5.125   1.700  0.0868 -0.2871 -0.2775
 6414TIP3    H119248   5.343   5.143   1.776 -1.1278  0.1846  0.5267
 6414TIP3    H219249   5.240   5.207   1.684 -0.6966 -0.7986 -0.6680
 6415TIP3   OH219250   1.585   4.831   1.952  0.1670 -0.1267  0.1482
 6415TIP3    H119251   1.603   4.887   1.876 -1.4573 -2.8963 -2.5399
 6415TIP3    H219252   1.672   4.801   1.980  0.9107  2.1026  0.4417
 6416TIP3   OH219253   0.359   1.719   3.928 -0.2861  0.5974  0.8817
 6416TIP3    H119254   0.346   1.625   3.914 -0.9354  0.5212  1.8897
 6416TIP3    H219255   0.453   1.732   3.915 -0.3904  0.0626 -0.5962
 6417TIP3   OH219256   1.828   4.952   2.598 -0.0643 -0.3116 -0.0648
 6417TIP3    H119257   1.739   4.983   2.580 -1.4849 -2.1528  2.9161
 6417TIP3    H219258   1.871   5.027   2.640 -0.6775  0.1673 -0.2626
 6418TIP3   OH219259   3.008   4.476   1.702  0.6970  0.0261  0.7132
 6418TIP3    H119260   3.095   4.514   1.716  0.1794  0.4894  3.2350
 6418TIP3    H219261   3.002   4.406   1.768 -0.4817 -0.6679 -0.0957
 6419TIP3   OH219262   4.637   4.679   4.117  0.2039  0.1462 -0.1088
 6419TIP3    H119263   4.563   4.702   4.060  0.0255 -0.6347 -0.2068
 6419TIP3    H219264   4.696   4.630   4.060  1.2295  1.4900 -0.2620
 6420TIP3   OH219265   3.611   0.186   2.910  0.3265 -0.5354  0.8443
 6420TIP3    H119266   3.555   0.122   2.952  0.3451 -0.1553  1.4575
 6420TIP3    H219267   3.632   0.148   2.825 -0.9599 -0.6238  0.5460
 6421TIP3   OH219268   0.321   0.343   0.217  0.3227  0.2191 -0.3721
 6421TIP3    H119269   0.362   0.375   0.297 -1.2860  2.5403 -0.3745
 6421TIP3    H219270   0.232   0.377   0.221  0.1064  0.1316 -2.9937
 6422TIP3   OH219271   3.387   5.279   4.102 -0.2427 -0.2732  0.3968
 6422TIP3    H119272   3.465   5.224   4.104 -0.1814 -0.3269 -1.4657
 6422TIP3    H219273   3.417   5.365   4.132  0.8937  0.0506 -1.4706
 6423TIP3   OH219274   2.244   1.573   0.436  0.2513 -0.1228  0.4517
 6423TIP3    H119275   2.322   1.595   0.384 -0.4845  0.8593 -0.2863
 6423TIP3    H219276   2.228   1.481   0.417  0.6840 -0.0796 -0.1582
 6424TIP3   OH219277   0.436   4.998   1.541  0.4794  0.0207 -0.4003
 6424TIP3    H119278   0.481   4.949   1.473  0.0946  1.3820 -1.6988
 6424TIP3    H219279   0.348   4.960   1.545  0.5194 -0.0913 -0.6211
 6425TIP3   OH219280   0.322   0.342   1.965 -0.2579 -0.4396  0.3659
 6425TIP3    H119281   0.303   0.327   1.873  1.2254  0.3120 -0.0906
 6425TIP3    H219282   0.275   0.422   1.988 -1.7461 -1.3707  0.6600
 6426TIP3   OH219283   3.033   2.701   1.914 -0.0849 -0.4673 -0.1245
 6426TIP3    H119284   2.974   2.746   1.854 -1.9749 -1.9047  0.5694
 6426TIP3    H219285   3.016   2.608   1.899  1.6505 -0.9245  0.4935
 6427TIP3   OH219286   5.640   0.385   2.516  0.2031 -0.5738 -0.2599
 6427TIP3    H119287   5.676   0.458   2.567 -1.5961 -0.3303  0.7512
 6427TIP3    H219288   5.571   0.425   2.463  1.3375 -1.0201 -2.1811
 6428TIP3   OH219289   6.143   2.702   1.445  0.6138 -0.4277 -0.2291
 6428TIP3    H119290   6.174   2.624   1.399  1.4800 -1.0551  1.3284
 6428TIP3    H219291   6.128   2.767   1.376  1.4719 -1.4372 -1.4064
 6429TIP3   OH219292   3.612   2.772   1.091  0.2194 -0.4995 -0.2760
 6429TIP3    H119293   3.526   2.778   1.132 -0.2273 -2.4993 -0.8126
 6429TIP3    H219294   3.594   2.756   0.999  1.1360 -1.4953 -0.3096
 6430TIP3   OH219295   0.477   3.102   4.858  0.6357  0.3546 -0.6456
 6430TIP3    H119296   0.524   3.163   4.801  1.3612  0.4175  0.0087
 6430TIP3    H219297   0.450   3.155   4.933 -0.0684  0.2109 -0.7906
 6431TIP3   OH219298   0.069   0.189   3.493  0.2587  0.1249 -0.3231
 6431TIP3    H119299   0.058   0.284   3.498  0.6627  0.1225  1.0351
 6431TIP3    H219300  -0.010   0.158   3.450  0.0316  1.0595 -0.6116
 6432TIP3   OH219301   0.578   5.251   3.449 -0.4417  0.2806  0.2578
 6432TIP3    H119302   0.574   5.159   3.477  0.9660 -0.0702 -0.6299
 6432TIP3    H219303   0.581   5.300   3.531  1.8272 -0.6449  0.8022
 6433TIP3   OH219304   5.250   5.575   1.349 -0.0294 -0.3291  0.0086
 6433TIP3    H119305   5.216   5.625   1.275 -1.1316 -1.8035 -0.5319
 6433TIP3    H219306   5.242   5.635   1.424  2.4477  1.7327 -1.2006
 6434TIP3   OH219307   3.619   1.680   1.684 -0.3389 -0.8638  0.6265
 6434TIP3    H119308   3.694   1.715   1.637 -1.3942  1.3671  0.4879
 6434TIP3    H219309   3.555   1.751   1.684 -1.7063 -2.0073  2.4416
 6435TIP3   OH219310   3.579   0.594   4.375  0.6172  0.1944 -0.4052
 6435TIP3    H119311   3.603   0.610   4.467 -1.3960  1.2194  0.0022
 6435TIP3    H219312   3.571   0.681   4.337  0.0589 -0.1881 -1.1792
 6436TIP3   OH219313   5.992   2.757   4.944  0.3091 -0.3270  0.1846
 6436TIP3    H119314   5.987   2.662   4.939  2.3162 -0.6065  2.1275
 6436TIP3    H219315   5.943   2.788   4.867 -0.4481 -2.8911 -0.4443
 6437TIP3   OH219316   5.109   4.885   0.782  0.5152 -0.0346 -0.7039
 6437TIP3    H119317   5.187   4.899   0.729  1.4744 -1.9086  0.1229
 6437TIP3    H219318   5.136   4.822   0.849 -1.1145  0.9121  0.9612
 6438TIP3   OH219319   5.199   0.162   3.181 -0.1079 -0.3967 -0.0391
 6438TIP3    H119320   5.160   0.193   3.099 -0.7635  0.2970  0.5293
 6438TIP3    H219321   5.289   0.137   3.156  0.3376  1.5952 -0.6198
 6439TIP3   OH219322   1.795   2.372   4.923  0.2678  0.0089  0.1693
 6439TIP3    H119323   1.797   2.440   4.991 -0.3252 -0.6319  0.8592
 6439TIP3    H219324   1.855   2.403   4.855 -1.3843  2.1379 -0.4243
 6440TIP3   OH219325   0.554   3.888   1.185  0.0605 -0.6893 -0.3660
 6440TIP3    H119326   0.505   3.805   1.188 -0.2478 -0.4993 -0.0170
 6440TIP3    H219327   0.646   3.861   1.181  0.0127 -1.0564  0.6624
 6441TIP3   OH219328   3.020   1.912   4.821 -0.1371 -0.1916  0.2795
 6441TIP3    H119329   3.059   1.988   4.865  0.9469 -0.6787  0.1967
 6441TIP3    H219330   3.023   1.843   4.887  1.2241 -0.8451 -0.4203
 6442TIP3   OH219331   3.620   5.859   1.758 -0.0174  0.2369 -0.4416
 6442TIP3    H119332   3.626   5.832   1.666 -2.2216  0.7568 -0.8063
 6442TIP3    H219333   3.553   5.801   1.794  0.3766  0.4711  0.6896
 6443TIP3   OH219334   6.210   4.480   4.154 -0.3554  0.5086 -0.2064
 6443TIP3    H119335   6.285   4.469   4.096  0.7368  1.1728  1.0111
 6443TIP3    H219336   6.232   4.558   4.206 -2.5629  1.6037 -0.7944
 6444TIP3   OH219337   1.999   5.104   2.313 -0.2284  0.6104  0.4532
 6444TIP3    H119338   2.089   5.072   2.313 -0.8073 -1.2561 -0.9400
 6444TIP3    H219339   1.989   5.148   2.397  1.2369 -1.4700  1.8330
 6445TIP3   OH219340   5.311   3.454   4.435 -0.2652  0.2744  0.1242
 6445TIP3    H119341   5.287   3.536   4.392 -0.1716  0.3988  0.3067
 6445TIP3    H219342   5.287   3.386   4.373  1.0852  0.5144 -0.7152
 6446TIP3   OH219343   3.321   0.379   2.918  0.3325 -0.3610 -0.5918
 6446TIP3    H119344   3.323   0.414   2.829 -0.5350 -0.9843 -0.8653
 6446TIP3    H219345   3.292   0.288   2.908 -1.9787  0.1694  0.4563
 6447TIP3   OH219346   0.330   4.952   4.209 -0.1335  0.2331  0.6273
 6447TIP3    H119347   0.386   4.890   4.254 -0.1991  1.4438  2.4971
 6447TIP3    H219348   0.241   4.918   4.222 -0.0010 -0.6505 -0.6489
 6448TIP3   OH219349   0.513   1.662   4.993 -0.4487 -0.0058  0.1065
 6448TIP3    H119350   0.483   1.699   5.076  0.5372 -0.3309  0.6352
 6448TIP3    H219351   0.589   1.715   4.969  0.0607 -0.7126  0.0985
 6449TIP3   OH219352   3.612   3.989   4.992 -0.3016 -0.0670 -0.3909
 6449TIP3    H119353   3.702   3.999   5.022 -0.5415 -0.6700  0.5541
 6449TIP3    H219354   3.609   3.902   4.952 -0.0958  0.5528 -1.8384
 6450TIP3   OH219355   3.913   0.569   3.485  0.1827 -0.2921 -0.0184
 6450TIP3    H119356   3.952   0.575   3.397  0.6394  0.4807  0.2273
 6450TIP3    H219357   3.977   0.611   3.542 -1.0232  1.0462  0.3888
 6451TIP3   OH219358   1.956   5.234   2.071 -0.5388  0.7093 -0.2983
 6451TIP3    H119359   1.955   5.168   2.140 -0.1165  0.6812 -0.3171
 6451TIP3    H219360   2.046   5.234   2.038 -0.9149  0.1495 -1.4068
 6452TIP3   OH219361   4.478   2.422   0.680  0.4591  0.3072  0.1036
 6452TIP3    H119362   4.487   2.327   0.677  2.8868  0.4876 -0.3041
 6452TIP3    H219363   4.413   2.438   0.749  1.3013 -1.5851  1.4106
 6453TIP3   OH219364   1.878   1.693   2.918  0.8612  0.1102 -0.0729
 6453TIP3    H119365   1.792   1.732   2.931  0.2313 -1.7776  2.0859
 6453TIP3    H219366   1.938   1.750   2.966  0.3237 -0.1966  0.9934
 6454TIP3   OH219367   0.151   1.388   1.707  0.1398  0.1489 -0.1063
 6454TIP3    H119368   0.113   1.355   1.626 -0.5698 -0.0348  0.2847
 6454TIP3    H219369   0.244   1.396   1.690  0.1049 -0.6450 -0.6841
 6455TIP3   OH219370   0.516   4.744   1.724 -0.0411  0.0580  0.1379
 6455TIP3    H119371   0.607   4.727   1.701  0.2855  0.7395  0.8583
 6455TIP3    H219372   0.510   4.840   1.727 -1.6748  0.2131 -3.3383
 6456TIP3   OH219373   4.213   3.689   0.927  0.5530 -0.1787 -0.3249
 6456TIP3    H119374   4.247   3.609   0.967  2.3161  0.0425 -1.2840
 6456TIP3    H219375   4.277   3.757   0.948 -0.4244  0.7887 -0.3290
 6457TIP3   OH219376   2.837   4.660   1.856 -0.0426  0.0034  0.4327
 6457TIP3    H119377   2.841   4.755   1.847 -0.4877 -0.1180 -1.5121
 6457TIP3    H219378   2.879   4.626   1.777 -0.4175 -1.4098  0.8032
 6458TIP3   OH219379   4.436   0.831   1.597  0.0517 -0.2312 -0.2832
 6458TIP3    H119380   4.508   0.883   1.632  0.1901  0.6288 -1.7441
 6458TIP3    H219381   4.391   0.891   1.536 -1.3926 -1.0015 -0.0268
 6459TIP3   OH219382   2.825   5.778   3.874 -0.2428 -0.0227  0.1096
 6459TIP3    H119383   2.904   5.732   3.844  0.4250 -0.3064  2.1554
 6459TIP3    H219384   2.841   5.869   3.850 -0.5278 -0.4562 -1.8776
 6460TIP3   OH219385   2.237   3.663   2.484 -0.4902 -0.1561 -0.3423
 6460TIP3    H119386   2.232   3.729   2.552 -0.8672 -0.5267 -0.0078
 6460TIP3    H219387   2.240   3.580   2.531  2.1063 -0.3401 -0.6419
 6461TIP3   OH219388   3.254   1.335   4.421  0.0914 -0.2604  0.2992
 6461TIP3    H119389   3.218   1.333   4.509 -0.2955  0.5988  0.1712
 6461TIP3    H219390   3.316   1.408   4.423  0.2703 -0.4018 -0.0675
 6462TIP3   OH219391   3.045   4.359  -0.022 -0.4049  0.4862  0.0699
 6462TIP3    H119392   3.085   4.288   0.029 -0.2024  1.2516  1.0071
 6462TIP3    H219393   3.004   4.415   0.044 -0.7627  1.1167 -0.6800
 6463TIP3   OH219394   2.355   3.515   3.006 -0.1661 -0.1339 -0.2621
 6463TIP3    H119395   2.397   3.544   2.925  0.9112 -1.2154 -0.1160
 6463TIP3    H219396   2.385   3.578   3.072  1.4154 -0.9800 -0.1242
 6464TIP3   OH219397   1.694   1.929   0.459  0.2666 -0.4667 -0.5326
 6464TIP3    H119398   1.727   1.911   0.371  0.2365  1.9283 -1.0786
 6464TIP3    H219399   1.606   1.964   0.446  0.6342  0.8516  0.3402
 6465TIP3   OH219400   5.410   4.145   3.897 -0.0490 -0.5053 -0.6719
 6465TIP3    H119401   5.363   4.108   3.972  0.1049 -0.3433 -0.4931
 6465TIP3    H219402   5.443   4.069   3.849 -1.0321 -0.6379 -1.1486
 6466TIP3   OH219403   5.692   0.031   0.243  0.2486  0.5679  0.5006
 6466TIP3    H119404   5.640   0.043   0.164  1.5605 -2.1237 -0.8860
 6466TIP3    H219405   5.631  -0.010   0.305 -0.0312 -0.0269 -0.1481
 6467TIP3   OH219406   0.474   2.753   1.836  0.4808 -0.1936  0.2583
 6467TIP3    H119407   0.551   2.778   1.786 -0.4257 -0.2752 -1.2197
 6467TIP3    H219408   0.506   2.684   1.895  1.4545 -0.4960 -0.5941
 6468TIP3   OH219409   3.265   2.319   0.877  0.2485 -0.2176 -0.7385
 6468TIP3    H119410   3.179   2.335   0.917  0.6450  0.5878 -0.1722
 6468TIP3    H219411   3.245   2.273   0.796 -0.5657 -2.0339  0.4383
 6469TIP3   OH219412   4.491   1.664   0.433 -0.8720  0.5778 -0.3587
 6469TIP3    H119413   4.412   1.678   0.486 -1.1435  1.8535 -1.0557
 6469TIP3    H219414   4.471   1.706   0.350  1.4123  3.0839  0.2368
 6470TIP3   OH219415   5.044   5.918   2.418 -0.4553 -0.7092 -0.4273
 6470TIP3    H119416   5.006   5.993   2.371 -0.4830 -1.2633 -1.3088
 6470TIP3    H219417   5.018   5.842   2.366 -1.4730 -1.4719  1.1049
 6471TIP3   OH219418   4.736   1.527   0.959 -0.1275 -0.3711 -0.3597
 6471TIP3    H119419   4.767   1.554   0.872  1.5980 -1.2624 -0.0723
 6471TIP3    H219420   4.715   1.609   1.004  0.7748  0.2157 -0.9833
 6472TIP3   OH219421   0.789   3.444   2.140  0.3541 -0.4407  0.3710
 6472TIP3    H119422   0.742   3.362   2.158  0.6328 -0.6555  0.1419
 6472TIP3    H219423   0.746   3.480   2.063 -0.6370  0.3200  1.2390
 6473TIP3   OH219424   2.554   1.690   4.643  0.2298  0.3522 -0.4074
 6473TIP3    H119425   2.482   1.754   4.640  0.3229  0.5898  1.2592
 6473TIP3    H219426   2.633   1.743   4.634  0.2490  0.2810 -0.6512
 6474TIP3   OH219427   0.523   5.506   2.532 -0.4570  0.2164  0.1854
 6474TIP3    H119428   0.537   5.450   2.609 -0.2384  0.5532  0.3975
 6474TIP3    H219429   0.608   5.509   2.489  0.2542  2.3853  1.5547
 6475TIP3   OH219430   0.604   2.417   2.636  0.5133  0.5882 -0.0357
 6475TIP3    H119431   0.585   2.496   2.585 -2.4327  0.7624  1.1508
 6475TIP3    H219432   0.676   2.443   2.693  0.9136  1.7672 -1.0197
 6476TIP3   OH219433   1.375   1.463   0.245  0.1037  0.5894  0.1633
 6476TIP3    H119434   1.320   1.541   0.236 -0.2682  0.2265 -0.8071
 6476TIP3    H219435   1.459   1.488   0.207 -0.5973 -0.0515 -1.9234
 6477TIP3   OH219436   3.196   1.464   0.490  0.3860  0.5480  0.1083
 6477TIP3    H119437   3.150   1.479   0.572 -1.7439  0.2261 -0.9538
 6477TIP3    H219438   3.168   1.536   0.433  1.9284  0.8400 -0.3450
 6478TIP3   OH219439   4.217   4.128   1.806 -0.3251 -0.4290 -0.3959
 6478TIP3    H119440   4.223   4.196   1.873  0.3463 -1.0651  0.2107
 6478TIP3    H219441   4.185   4.173   1.728 -0.2170  0.5052  0.0932
 6479TIP3   OH219442   2.212   3.875   2.307  0.2033  0.5036  0.2107
 6479TIP3    H119443   2.251   3.954   2.344  0.5246  0.4855 -0.0870
 6479TIP3    H219444   2.233   3.806   2.370  1.0212  0.4133 -0.1551
 6480TIP3   OH219445   4.547   5.584   2.340  0.2187  0.0464 -0.0137
 6480TIP3    H119446   4.523   5.646   2.408  0.9701  1.3800 -0.9326
 6480TIP3    H219447   4.631   5.615   2.307 -0.6198  0.0713 -2.2890
 6481TIP3   OH219448   5.320   0.478   0.628 -0.0101 -0.2940  0.3064
 6481TIP3    H119449   5.372   0.461   0.706 -0.4993  0.8605  0.9169
 6481TIP3    H219450   5.231   0.452   0.652 -0.3217  0.8239  0.4592
 6482TIP3   OH219451   3.827   5.724   1.949 -0.0158  0.1431 -0.3753
 6482TIP3    H119452   3.746   5.707   1.901  0.2214 -2.2141 -0.0497
 6482TIP3    H219453   3.808   5.802   2.000 -1.6970  0.2883 -1.1390
 6483TIP3   OH219454   2.639   0.304   4.100  0.3612  0.2172 -0.3435
 6483TIP3    H119455   2.611   0.282   4.012  0.9518 -1.0831 -0.2318
 6483TIP3    H219456   2.707   0.369   4.088  0.2192  0.2810 -0.8265
 6484TIP3   OH219457   1.072   2.134   4.896  0.1377  0.1009 -0.2917
 6484TIP3    H119458   1.114   2.219   4.912 -0.1236 -0.0122  1.1883
 6484TIP3    H219459   0.982   2.156   4.872 -0.6980  0.2648  2.6091
 6485TIP3   OH219460   4.202   4.096   4.508 -0.1187 -0.3454 -0.2460
 6485TIP3    H119461   4.292   4.061   4.511 -0.1423 -0.4441 -0.6152
 6485TIP3    H219462   4.158   4.042   4.442 -0.5930 -0.6294  0.2956
 6486TIP3   OH219463   0.759   2.540   1.609  0.1690 -0.1053 -0.0221
 6486TIP3    H119464   0.758   2.445   1.620 -3.9930 -0.1009  1.6493
 6486TIP3    H219465   0.830   2.570   1.666  1.3034 -2.1357 -0.2763
 6487TIP3   OH219466   2.782   4.788   1.218 -0.3067 -0.0285 -0.0770
 6487TIP3    H119467   2.810   4.709   1.173 -1.0651 -0.4233  0.1357
 6487TIP3    H219468   2.863   4.836   1.236  0.0609 -0.1720 -1.2766
 6488TIP3   OH219469   4.642   3.705   2.040 -0.1618  0.3702  0.0165
 6488TIP3    H119470   4.707   3.635   2.031 -0.7740 -0.1676 -0.2443
 6488TIP3    H219471   4.691   3.785   2.022  0.1027 -0.1484 -1.7524
 6489TIP3   OH219472   2.608   0.952   0.744  0.0834  0.3485 -0.5094
 6489TIP3    H119473   2.589   0.971   0.836 -0.2513 -0.9423 -0.2876
 6489TIP3    H219474   2.674   1.017   0.719  0.0481  0.8271  0.5821
 6490TIP3   OH219475   1.762   5.490   1.902 -0.1181 -0.4406  0.1940
 6490TIP3    H119476   1.690   5.498   1.965 -2.3561 -1.1692 -2.1079
 6490TIP3    H219477   1.817   5.420   1.937  0.3448  1.0634  2.7240
 6491TIP3   OH219478   1.620   0.275   4.659  0.1224  0.2814 -0.1715
 6491TIP3    H119479   1.609   0.275   4.754  0.0226  0.6686 -0.1818
 6491TIP3    H219480   1.694   0.335   4.644  2.5979 -2.5258 -0.0640
 6492TIP3   OH219481   2.955   0.457   4.589 -0.5380  0.4901  0.3278
 6492TIP3    H119482   2.992   0.545   4.595 -0.1473  0.4501 -1.1073
 6492TIP3    H219483   2.944   0.429   4.680 -0.3924  1.9022  0.7987
 6493TIP3   OH219484   3.820   0.507   0.436  0.1377  0.5052 -0.0299
 6493TIP3    H119485   3.890   0.563   0.403  0.3653  1.0482  1.3098
 6493TIP3    H219486   3.865   0.434   0.478 -0.1491 -0.2021 -0.9180
 6494TIP3   OH219487   1.423   3.536   3.821  0.1718  0.2597 -0.1051
 6494TIP3    H119488   1.435   3.589   3.742  0.4159  1.0142  0.4252
 6494TIP3    H219489   1.507   3.493   3.834  0.6592  1.3712  0.6100
 6495TIP3   OH219490   2.365   2.823  -0.016  0.1341 -0.2368 -0.5784
 6495TIP3    H119491   2.375   2.809   0.078 -1.7345 -0.2396 -0.3467
 6495TIP3    H219492   2.273   2.801  -0.034  0.3472  0.1703 -2.3269
 6496TIP3   OH219493   5.432   4.634   3.434  0.1485  0.3826  0.1752
 6496TIP3    H119494   5.511   4.675   3.469 -0.2843  0.7572  0.7388
 6496TIP3    H219495   5.433   4.545   3.469 -0.1353  0.6682  0.9398
 6497TIP3   OH219496   3.849   3.588   1.433  0.1143  0.2243  0.0181
 6497TIP3    H119497   3.799   3.599   1.352 -0.1291  1.7470  0.3423
 6497TIP3    H219498   3.846   3.494   1.451 -0.3883 -0.0480 -1.3761
 6498TIP3   OH219499   2.016   1.005   2.679  0.2791 -0.4189  0.1232
 6498TIP3    H119500   1.956   1.050   2.619  0.2289 -1.1443 -0.3843
 6498TIP3    H219501   2.085   1.070   2.696 -0.2173  0.1349  0.0594
 6499TIP3   OH219502   3.996   5.303   4.425  0.3581 -0.2874 -0.5824
 6499TIP3    H119503   4.074   5.299   4.480 -0.9786 -2.4787  1.3318
 6499TIP3    H219504   4.009   5.381   4.371  3.0327  0.4161  0.8948
 6500TIP3   OH219505   3.988   5.028   2.118 -0.0314 -0.2119  0.1295
 6500TIP3    H119506   4.012   5.110   2.074  0.5776 -1.6612 -2.3870
 6500TIP3    H219507   4.040   5.029   2.199  0.0571  1.8045  0.0975
 6501TIP3   OH219508   2.400   3.160   4.963 -0.6769 -0.4613 -0.0787
 6501TIP3    H119509   2.453   3.171   5.042 -0.7744 -1.0292  0.0657
 6501TIP3    H219510   2.421   3.237   4.910  2.0707 -1.7537 -1.0663
 6502TIP3   OH219511   0.984   2.951   4.854  0.9972  0.3251  0.3271
 6502TIP3    H119512   0.892   2.924   4.859  1.0109  0.2423  0.1235
 6502TIP3    H219513   1.033   2.868   4.851  0.8848  0.1834 -4.2619
 6503TIP3   OH219514   4.022   4.129   2.902 -0.1252  0.6819  0.5160
 6503TIP3    H119515   3.984   4.139   2.989 -0.2124 -0.2153  0.5932
 6503TIP3    H219516   3.952   4.087   2.851  0.2307  0.3941  0.2613
 6504TIP3   OH219517   6.164   4.419   2.983 -0.2768  0.2693 -0.0244
 6504TIP3    H119518   6.091   4.394   3.040  0.0835 -0.0101  0.3146
 6504TIP3    H219519   6.198   4.499   3.021  1.1499 -0.8974  1.2616
 6505TIP3   OH219520   4.609   2.919   4.963 -0.4562  0.3921 -0.1623
 6505TIP3    H119521   4.643   2.834   4.990 -1.3110 -0.1346 -0.7053
 6505TIP3    H219522   4.524   2.927   5.006  0.6148  2.0442  1.8106
 6506TIP3   OH219523   0.132   5.390   4.454  0.0049 -0.0848 -0.4548
 6506TIP3    H119524   0.099   5.301   4.440  0.0170 -0.2161  0.2888
 6506TIP3    H219525   0.128   5.402   4.549  0.2971  0.5983 -0.5227
 6507TIP3   OH219526   5.838   0.268   1.873 -0.2874  0.1876 -0.2572
 6507TIP3    H119527   5.836   0.219   1.790  1.5667  0.7142 -0.6754
 6507TIP3    H219528   5.747   0.289   1.891 -0.8998 -1.3695 -1.2968
 6508TIP3   OH219529   4.619   1.294   0.832  0.2590  0.1128  0.1360
 6508TIP3    H119530   4.642   1.362   0.895 -1.3810  1.3015 -0.4772
 6508TIP3    H219531   4.618   1.340   0.747 -3.9580  0.2045  0.0600
 6509TIP3   OH219532   6.039   3.152   2.499  0.3175 -0.5299 -0.2643
 6509TIP3    H119533   6.022   3.114   2.413 -0.8822 -0.4845 -0.0610
 6509TIP3    H219534   6.084   3.083   2.547 -1.8397 -1.7598  0.1089
 6510TIP3   OH219535   5.421   0.490   3.905 -0.1459 -0.1675  0.2493
 6510TIP3    H119536   5.462   0.416   3.950  1.4158 -0.1368 -1.0207
 6510TIP3    H219537   5.386   0.452   3.824 -0.1814  0.3079  0.0399
 6511TIP3   OH219538   0.048   3.680   2.099  0.1654  0.1462  0.5307
 6511TIP3    H119539  -0.013   3.664   2.172  0.2581 -0.8900  0.3995
 6511TIP3    H219540   0.114   3.611   2.108 -0.4624 -0.7291 -1.2012
 6512TIP3   OH219541   2.341   5.622   0.248 -0.4898 -0.0067  0.2812
 6512TIP3    H119542   2.286   5.596   0.322 -0.3278 -0.1791  0.3416
 6512TIP3    H219543   2.281   5.667   0.188 -0.5872  0.2771  0.5932
 6513TIP3   OH219544   6.074   0.693   1.783 -0.1772 -0.2489 -0.3057
 6513TIP3    H119545   6.023   0.770   1.759  1.0304  1.2562  1.6594
 6513TIP3    H219546   6.161   0.709   1.746  1.2077  1.2928  3.1138
 6514TIP3   OH219547   0.075   5.421   3.418 -0.0480  0.2485 -0.1810
 6514TIP3    H119548   0.007   5.466   3.467 -1.0512 -1.0647 -0.3326
 6514TIP3    H219549   0.108   5.354   3.478 -0.9143 -1.0135 -1.0678
 6515TIP3   OH219550   2.139   2.530   2.585 -0.0352 -0.4089  0.0751
 6515TIP3    H119551   2.183   2.512   2.668 -0.3197  0.7660  0.4993
 6515TIP3    H219552   2.046   2.533   2.607  0.0079  1.8419  0.1196
 6516TIP3   OH219553   5.645   4.348   1.722 -0.2961 -0.0054  0.5058
 6516TIP3    H119554   5.636   4.294   1.800 -0.0533  0.8789  1.1601
 6516TIP3    H219555   5.736   4.335   1.694  0.1034  0.9229  1.3244
 6517TIP3   OH219556   4.245   3.200   3.561 -0.0506 -0.2885  0.2996
 6517TIP3    H119557   4.156   3.231   3.576 -0.2863 -0.5911 -0.4225
 6517TIP3    H219558   4.238   3.141   3.486  0.6659 -0.7631  0.5867
 6518TIP3   OH219559   1.438   2.023   0.416 -0.0288  0.0312  0.1413
 6518TIP3    H119560   1.354   2.045   0.457 -0.5688 -0.2226 -0.7987
 6518TIP3    H219561   1.469   2.107   0.382  0.5804  0.3069  1.3023
 6519TIP3   OH219562   1.322   0.144   3.923 -0.0640  0.1893 -0.0750
 6519TIP3    H119563   1.335   0.144   4.018 -0.9934  0.9245  0.0673
 6519TIP3    H219564   1.410   0.141   3.887  0.2962 -0.2471  0.8055
 6520TIP3   OH219565   1.063   3.208   4.864 -0.2150  0.1902  0.1412
 6520TIP3    H119566   1.052   3.123   4.822  1.4266  0.0163  0.0120
 6520TIP3    H219567   1.031   3.271   4.798  0.0611 -0.2256 -0.3998
 6521TIP3   OH219568   0.405   3.395   0.813  0.1604 -0.3017 -0.4533
 6521TIP3    H119569   0.364   3.311   0.790  1.4871 -0.6655 -1.5887
 6521TIP3    H219570   0.375   3.455   0.745 -0.7186  0.1622  0.3112
 6522TIP3   OH219571   3.915   2.044   0.811 -0.0765  0.7942  0.3686
 6522TIP3    H119572   4.001   2.071   0.844  0.6977  1.1710 -1.7958
 6522TIP3    H219573   3.904   1.955   0.845  0.6140  1.1633  1.6396
 6523TIP3   OH219574   2.073   5.287   1.713  0.0830  0.3822  0.1373
 6523TIP3    H119575   2.050   5.376   1.741  2.1271  1.5825 -1.6861
 6523TIP3    H219576   2.155   5.268   1.760  0.8377  0.3907 -1.1462
 6524TIP3   OH219577   1.036   5.554   0.088  0.4499 -0.2633  0.0777
 6524TIP3    H119578   0.948   5.591   0.096  1.5374  2.3429  1.3147
 6524TIP3    H219579   1.041   5.523  -0.003 -2.2581 -2.1849  0.4624
 6525TIP3   OH219580   0.973   0.960   1.639  0.5902  0.2655  0.0011
 6525TIP3    H119581   0.918   1.037   1.655 -0.3356 -0.4316  0.2518
 6525TIP3    H219582   0.921   0.887   1.672  1.8790 -0.3673  0.6942
 6526TIP3   OH219583   1.449   4.513   4.454 -0.4791 -0.3899  0.3343
 6526TIP3    H119584   1.536   4.547   4.431 -0.8119  0.7990  0.7722
 6526TIP3    H219585   1.461   4.476   4.542 -1.0963  2.8187  1.9337
 6527TIP3   OH219586   0.147   4.490   4.799 -0.0109  0.3538  0.4771
 6527TIP3    H119587   0.062   4.533   4.790  0.3984  0.8824 -1.2736
 6527TIP3    H219588   0.128   4.397   4.790 -0.4665  0.4376  0.5684
 6528TIP3   OH219589   0.233   1.411   4.255 -0.1838  0.4303 -0.3458
 6528TIP3    H119590   0.148   1.444   4.224 -1.0530 -1.3938 -0.0253
 6528TIP3    H219591   0.258   1.472   4.324 -1.3621  0.8547 -0.2665
 6529TIP3   OH219592   4.028   5.842   2.614 -0.3905  0.6991  0.0045
 6529TIP3    H119593   4.100   5.881   2.565  0.1781  1.8969  1.7107
 6529TIP3    H219594   4.023   5.752   2.581  1.3793  0.8225 -0.7103
 6530TIP3   OH219595   2.649   4.239   0.054 -0.0833 -0.4283 -0.7839
 6530TIP3    H119596   2.713   4.202   0.114  0.0168  0.3844 -0.3713
 6530TIP3    H219597   2.640   4.331   0.082 -0.3631 -0.1553 -1.7271
 6531TIP3   OH219598   5.078   3.574   3.013  0.1804  0.1298  0.0013
 6531TIP3    H119599   5.124   3.499   2.975 -0.5278  0.0498 -0.7202
 6531TIP3    H219600   5.137   3.606   3.081  0.5685 -0.9908  0.2207
 6532TIP3   OH219601   4.423   5.918   0.580  0.0972  0.2288  0.5223
 6532TIP3    H119602   4.407   6.008   0.550 -0.4981  0.3527  1.1688
 6532TIP3    H219603   4.341   5.891   0.620  0.5528 -0.2763  1.1516
 6533TIP3   OH219604   0.203   4.132   3.546  0.2852  0.0745 -0.6118
 6533TIP3    H119605   0.154   4.052   3.562 -0.4689  0.6032 -0.1872
 6533TIP3    H219606   0.293   4.111   3.573  0.0037 -0.4938 -0.0909
 6534TIP3   OH219607   5.754   1.684   4.536  0.0843 -0.5324 -0.1419
 6534TIP3    H119608   5.781   1.714   4.449 -1.1253 -1.6932 -0.9573
 6534TIP3    H219609   5.809   1.608   4.554 -1.9443 -2.4439 -1.4820
 6535TIP3   OH219610   0.136   0.662   2.900 -0.1929  0.1330 -0.0956
 6535TIP3    H119611   0.218   0.671   2.948  0.0346  2.0067 -0.7283
 6535TIP3    H219612   0.142   0.577   2.857  0.7609 -0.3981  1.0368
 6536TIP3   OH219613   4.397   4.704   3.947 -0.0817 -0.4300  0.0752
 6536TIP3    H119614   4.362   4.677   3.862  0.0836  0.4060 -0.2681
 6536TIP3    H219615   4.329   4.681   4.009 -1.2020  0.9970 -0.5602
 6537TIP3   OH219616   5.247   3.844   4.675 -0.1897 -0.0880 -0.2094
 6537TIP3    H119617   5.269   3.904   4.603 -0.8025 -0.5815 -0.8138
 6537TIP3    H219618   5.287   3.884   4.752  0.8954  0.2031 -0.9024
 6538TIP3   OH219619   2.405   3.426   0.732  0.3531 -0.1622 -0.3943
 6538TIP3    H119620   2.331   3.450   0.676  0.3757  2.0053  0.4075
 6538TIP3    H219621   2.369   3.427   0.821  0.9597 -0.8534 -0.1265
 6539TIP3   OH219622   4.911   1.141   0.752  0.3944  0.2149 -0.3948
 6539TIP3    H119623   4.860   1.202   0.806 -1.0939 -2.1081  1.0005
 6539TIP3    H219624   4.956   1.086   0.815 -1.8580 -2.9946 -1.3034
 6540TIP3   OH219625   3.349   3.617   2.785 -0.4571 -0.2709  1.1305
 6540TIP3    H119626   3.420   3.574   2.737 -1.5096 -0.1647 -0.6102
 6540TIP3    H219627   3.283   3.549   2.796 -2.0890  0.7040 -1.5470
 6541TIP3   OH219628   1.608   0.346   1.883  0.1460  1.1519  0.2272
 6541TIP3    H119629   1.637   0.436   1.897  0.5217  1.2612 -1.1292
 6541TIP3    H219630   1.601   0.337   1.788  0.0119 -0.2210  0.3410
 6542TIP3   OH219631   4.981   4.516   1.903  0.3708  0.0352 -0.4239
 6542TIP3    H119632   5.017   4.465   1.831  0.9223 -1.0893  0.6062
 6542TIP3    H219633   5.021   4.602   1.895 -0.7855  0.4430 -2.3641
 6543TIP3   OH219634   3.859   1.760   4.485 -0.3176  0.4837 -0.1373
 6543TIP3    H119635   3.796   1.799   4.546 -0.9806  0.5660 -0.8561
 6543TIP3    H219636   3.940   1.752   4.535  0.2564  3.9405 -0.2567
 6544TIP3   OH219637   2.524   2.677   1.594  0.1973 -0.5174 -0.7355
 6544TIP3    H119638   2.482   2.592   1.609  0.2353 -0.2504  1.1735
 6544TIP3    H219639   2.615   2.656   1.574  0.7622 -0.9429  1.8805
 6545TIP3   OH219640   4.337   0.766   3.437 -0.0301 -0.0624  0.0986
 6545TIP3    H119641   4.353   0.726   3.352 -0.8138 -0.3175  0.0608
 6545TIP3    H219642   4.313   0.856   3.417  0.9856  0.2243  0.1347
 6546TIP3   OH219643   6.255   2.068   0.738  0.1164 -0.5786  0.5193
 6546TIP3    H119644   6.329   2.063   0.798 -0.1080  0.2945  0.8897
 6546TIP3    H219645   6.207   1.986   0.752  1.1035 -1.2358  0.1351
 6547TIP3   OH219646   0.927   3.376   3.329 -0.1706  0.2821 -0.1675
 6547TIP3    H119647   0.983   3.304   3.359 -0.9544 -0.2480  0.0424
 6547TIP3    H219648   0.839   3.339   3.327 -0.3823  0.7924 -1.5442
 6548TIP3   OH219649   5.256   3.970   2.032  0.3740  0.1151 -0.6920
 6548TIP3    H119650   5.278   4.022   1.954 -1.3318  0.5386 -0.9233
 6548TIP3    H219651   5.282   3.881   2.009  0.4612  0.3401 -1.5156
 6549TIP3   OH219652   1.394   1.921   2.811 -0.1549 -0.3080  0.3414
 6549TIP3    H119653   1.348   1.936   2.893 -0.4380  0.6204  0.0264
 6549TIP3    H219654   1.368   1.994   2.755  2.8845  1.2144  0.6730
 6550TIP3   OH219655   5.890   1.354   1.232  0.2135 -0.1724  0.2814
 6550TIP3    H119656   5.851   1.375   1.317  2.8273  0.3972  1.4342
 6550TIP3    H219657   5.880   1.260   1.224 -0.9787 -0.1031  0.7035
 6551TIP3   OH219658   1.549   5.395   0.363 -0.0404  0.4324  0.7497
 6551TIP3    H119659   1.553   5.433   0.275  0.3202 -0.5619  0.3243
 6551TIP3    H219660   1.478   5.442   0.406 -0.9110  0.2381 -0.4224
 6552TIP3   OH219661   3.120   5.774   1.679 -0.0731  0.2197  0.1177
 6552TIP3    H119662   3.210   5.752   1.704 -0.2662 -2.4481 -1.2502
 6552TIP3    H219663   3.120   5.770   1.583 -1.4662  1.1285  0.0524
 6553TIP3   OH219664   2.985   4.491   2.581  0.0649  0.7591  0.7864
 6553TIP3    H119665   2.922   4.435   2.626  0.8365 -1.8125 -1.1214
 6553TIP3    H219666   2.932   4.540   2.518 -0.2214 -0.6524 -0.1189
 6554TIP3   OH219667   3.735   2.222   1.450  0.3681  0.9243 -0.3241
 6554TIP3    H119668   3.767   2.203   1.363 -1.2692  0.9283 -0.9622
 6554TIP3    H219669   3.689   2.143   1.477  2.0432  0.3870  1.1572
 6555TIP3   OH219670   1.004   2.649   0.794 -0.2164  0.1336  0.5261
 6555TIP3    H119671   1.006   2.692   0.709  0.1094 -1.1037 -0.1187
 6555TIP3    H219672   0.911   2.652   0.820 -0.3249  0.4710  0.1035
 6556TIP3   OH219673   5.475   2.181   4.682 -0.2328  0.7142 -0.3356
 6556TIP3    H119674   5.484   2.090   4.711  0.9185  1.1928  0.8764
 6556TIP3    H219675   5.384   2.188   4.652 -1.1035 -0.1881  1.9001
 6557TIP3   OH219676   6.007   2.838   3.183 -0.3842  0.1838  0.1806
 6557TIP3    H119677   6.002   2.849   3.278  0.7829  1.0979  0.1663
 6557TIP3    H219678   5.942   2.899   3.148  0.9661  1.7901  0.3437
 6558TIP3   OH219679   1.115   2.182   3.406 -0.1043 -0.0439 -0.2337
 6558TIP3    H119680   1.047   2.159   3.469 -2.5243  0.1711 -2.6063
 6558TIP3    H219681   1.124   2.277   3.414  0.5905 -0.1737  0.6801
 6559TIP3   OH219682   0.110   4.884   0.593 -0.4344  0.2525  0.2275
 6559TIP3    H119683   0.135   4.792   0.584 -3.0363 -0.4452 -0.4530
 6559TIP3    H219684   0.015   4.883   0.596 -0.5046  2.8900  0.9330
 6560TIP3   OH219685   6.069   1.877   0.594  0.2318  0.3352 -0.8479
 6560TIP3    H119686   6.100   1.826   0.668 -1.4360 -1.0493 -1.0302
 6560TIP3    H219687   6.148   1.904   0.548  1.2499  0.2822  0.8120
 6561TIP3   OH219688   1.437   0.027   2.810 -0.2292  0.0699  0.7123
 6561TIP3    H119689   1.486  -0.054   2.826 -0.5308  0.0720  1.7667
 6561TIP3    H219690   1.498   0.083   2.763 -0.7710 -1.5824 -2.1571
 6562TIP3   OH219691   4.846   1.207   0.112  0.5593  0.1153 -0.0821
 6562TIP3    H119692   4.794   1.285   0.096  1.4441  0.4695 -1.4095
 6562TIP3    H219693   4.832   1.187   0.205 -1.6430  0.3640 -0.3144
 6563TIP3   OH219694   3.261   0.707   2.251  0.3644 -0.1985  0.3527
 6563TIP3    H119695   3.199   0.776   2.276 -0.1764 -0.8500  0.8591
 6563TIP3    H219696   3.230   0.629   2.298  1.7345 -0.4757  0.8368
 6564TIP3   OH219697   5.678   5.783   1.782  0.2870 -0.2124  0.3542
 6564TIP3    H119698   5.772   5.790   1.800  0.2334  0.2869  0.4388
 6564TIP3    H219699   5.641   5.744   1.861  0.7510 -2.7215 -0.5654
 6565TIP3   OH219700   6.264   0.284   0.458  0.4644  0.5239 -0.0436
 6565TIP3    H119701   6.237   0.367   0.496 -2.3014 -0.2742 -0.0284
 6565TIP3    H219702   6.293   0.306   0.370 -1.3828  1.4188 -0.4788
 6566TIP3   OH219703   2.486   1.706   0.380 -0.7104 -0.3149 -0.2820
 6566TIP3    H119704   2.553   1.737   0.441 -1.9918 -2.0690  2.2272
 6566TIP3    H219705   2.532   1.693   0.297  1.7824 -0.3954  1.0359
 6567TIP3   OH219706   3.962   3.406   2.897  0.2502  0.1155 -0.4709
 6567TIP3    H119707   3.894   3.421   2.963  2.1061  1.3800  1.2566
 6567TIP3    H219708   3.928   3.450   2.818 -0.6062  1.4432  0.5771
 6568TIP3   OH219709   3.799   1.498   1.206 -0.3561 -0.0586 -0.0027
 6568TIP3    H119710   3.858   1.537   1.270 -1.3988  0.1789  0.8357
 6568TIP3    H219711   3.786   1.408   1.237 -1.2164  0.1909  0.3879
 6569TIP3   OH219712   1.957   1.507   3.156 -0.3357  0.2947  0.5917
 6569TIP3    H119713   1.938   1.515   3.062 -0.3773  3.6195  0.7650
 6569TIP3    H219714   1.899   1.437   3.186 -0.4738 -0.7219 -1.7990
 6570TIP3   OH219715   2.478   3.423   4.430  0.5155 -0.0890  0.0489
 6570TIP3    H119716   2.498   3.512   4.457  0.8010 -0.6015  1.6258
 6570TIP3    H219717   2.556   3.372   4.454  1.6685 -0.3401 -3.5251
 6571TIP3   OH219718   4.563   3.625   0.868 -0.1249 -0.4193 -0.0407
 6571TIP3    H119719   4.574   3.696   0.931  0.0785  0.8325 -1.4373
 6571TIP3    H219720   4.569   3.545   0.920 -2.7800  0.5706  2.0026
 6572TIP3   OH219721   3.327   0.507   1.433 -0.3456  0.3994  0.1904
 6572TIP3    H119722   3.297   0.509   1.524 -1.7300 -0.6383 -0.2110
 6572TIP3    H219723   3.306   0.419   1.402 -0.6507  0.9774 -1.3690
 6573TIP3   OH219724   5.494   5.231   1.873 -0.6204  0.2020  0.3057
 6573TIP3    H119725   5.468   5.319   1.898  1.5425  0.8961  0.3565
 6573TIP3    H219726   5.555   5.244   1.800 -0.0194 -1.2060  0.5234
 6574TIP3   OH219727   4.258   5.478   3.479 -0.6415 -0.0795 -0.2897
 6574TIP3    H119728   4.282   5.553   3.425 -1.7347  0.5228  0.0360
 6574TIP3    H219729   4.341   5.445   3.512 -0.1394  1.0123 -0.4113
 6575TIP3   OH219730   4.144   0.377   4.797 -0.0977  0.2123  0.1914
 6575TIP3    H119731   4.122   0.456   4.847 -2.3934  0.3169 -0.8512
 6575TIP3    H219732   4.098   0.306   4.843 -0.1561 -0.0879 -0.3198
 6576TIP3   OH219733   0.885   1.922   1.310  0.7983 -0.4646 -0.2604
 6576TIP3    H119734   0.797   1.943   1.279  1.4490  2.3490 -0.4247
 6576TIP3    H219735   0.871   1.852   1.375 -1.7070  0.7404  0.6553
 6577TIP3   OH219736   4.512   3.540   1.760 -0.1426  0.0905 -0.1849
 6577TIP3    H119737   4.427   3.504   1.784  0.2531 -1.1455 -0.5379
 6577TIP3    H219738   4.516   3.625   1.803 -0.9254 -0.4940  1.0995
 6578TIP3   OH219739   5.175   3.640   1.092  1.0120 -0.2794 -0.2106
 6578TIP3    H119740   5.142   3.557   1.055  0.7892  0.4048 -1.6270
 6578TIP3    H219741   5.098   3.683   1.128  0.5895  0.5303 -1.9628
 6579TIP3   OH219742   0.501   0.842   2.060 -0.0107 -0.9286  0.3424
 6579TIP3    H119743   0.442   0.775   2.094  0.1590 -1.2291  0.0466
 6579TIP3    H219744   0.483   0.919   2.114 -0.3126 -1.1664  0.5850
 6580TIP3   OH219745   1.317   1.862   3.073  0.7663  0.2332  0.2617
 6580TIP3    H119746   1.373   1.860   3.152  0.3694  1.7603  0.5984
 6580TIP3    H219747   1.244   1.919   3.097 -1.1682 -1.9356 -0.0640
 6581TIP3   OH219748   3.908   3.427   1.808 -0.1607 -0.2261 -0.2394
 6581TIP3    H119749   3.988   3.412   1.859 -0.1979 -0.1729 -0.1643
 6581TIP3    H219750   3.882   3.340   1.778 -0.1010 -0.2498 -0.2222
 6582TIP3   OH219751   3.654   5.159   4.191 -0.2745 -0.3177 -0.2839
 6582TIP3    H119752   3.619   5.071   4.203  1.1979 -0.9431 -0.4319
 6582TIP3    H219753   3.665   5.193   4.279  0.5195 -0.8549 -0.1629
 6583TIP3   OH219754   4.838   4.792   0.793 -0.4035 -0.0654 -0.1381
 6583TIP3    H119755   4.925   4.797   0.755 -1.5026 -2.9448 -3.5240
 6583TIP3    H219756   4.849   4.740   0.872  0.7911 -1.9165 -1.4600
 6584TIP3   OH219757   3.774   4.485   1.779 -0.4141  0.2725 -0.3004
 6584TIP3    H119758   3.805   4.454   1.864  0.1005  0.7201 -0.3172
 6584TIP3    H219759   3.819   4.569   1.767  1.9027 -1.1214 -2.3432
 6585TIP3   OH219760   1.040   4.349   1.511 -0.2619 -0.5670  0.2063
 6585TIP3    H119761   1.034   4.422   1.574 -1.3398 -0.9283  0.5508
 6585TIP3    H219762   1.092   4.384   1.439 -0.5908  0.4900  0.4529
 6586TIP3   OH219763   5.398   3.895   0.430 -0.4554  0.2202  0.2559
 6586TIP3    H119764   5.466   3.846   0.477 -0.2041  0.0868 -0.2404
 6586TIP3    H219765   5.344   3.827   0.388  0.3829  0.3693 -1.1156
 6587TIP3   OH219766   5.467   2.118   3.750 -0.1050 -0.2492  0.2758
 6587TIP3    H119767   5.374   2.119   3.726  0.0148  0.1261 -0.1781
 6587TIP3    H219768   5.511   2.160   3.676  0.6268 -2.0924 -0.4002
 6588TIP3   OH219769   4.052   3.167   3.904  0.2202 -0.4524 -0.2883
 6588TIP3    H119770   4.069   3.240   3.844  1.8035 -1.0899 -0.6647
 6588TIP3    H219771   4.103   3.094   3.869  0.2079 -1.1981  1.1585
 6589TIP3   OH219772   2.145   1.389   3.476 -0.1659 -0.0786  0.3554
 6589TIP3    H119773   2.055   1.365   3.455 -0.2701  0.8457 -0.3043
 6589TIP3    H219774   2.163   1.465   3.421  1.7494 -1.5351 -1.1601
 6590TIP3   OH219775   3.190   3.306   0.734 -0.0844 -0.4074 -0.4293
 6590TIP3    H119776   3.237   3.311   0.817 -0.5726  1.1170 -0.2101
 6590TIP3    H219777   3.098   3.319   0.758 -0.3316 -0.7962 -1.1307
 6591TIP3   OH219778   3.764   1.097   2.014 -0.3074 -0.6811 -0.9242
 6591TIP3    H119779   3.797   1.182   2.044 -1.1927 -0.6335 -0.0470
 6591TIP3    H219780   3.786   1.095   1.921 -0.0616  0.4082 -0.9052
 6592TIP3   OH219781   1.050   0.862   0.420  0.0046  0.0325  0.4931
 6592TIP3    H119782   1.109   0.851   0.346  0.3094 -0.9629  0.8659
 6592TIP3    H219783   0.964   0.840   0.385 -0.0255  0.6232  0.1736
 6593TIP3   OH219784   5.525   4.650   3.980  0.1346 -0.1777 -0.4513
 6593TIP3    H119785   5.577   4.604   3.914 -0.4537 -0.3639 -0.7941
 6593TIP3    H219786   5.483   4.581   4.031 -0.4950 -0.0396 -0.7623
 6594TIP3   OH219787   0.104   2.477   1.634 -0.0991  0.3090  0.4226
 6594TIP3    H119788   0.132   2.530   1.709 -0.7702 -0.2985  1.1330
 6594TIP3    H219789   0.016   2.448   1.658 -0.3843  0.2317 -0.6866
 6595TIP3   OH219790   4.360   0.310   3.702  0.0048 -0.1867 -0.0786
 6595TIP3    H119791   4.285   0.296   3.644  0.2431  1.1619 -0.7470
 6595TIP3    H219792   4.388   0.400   3.685  0.1458  0.2267  2.0857
 6596TIP3   OH219793   3.882   2.295   0.592  0.6159 -0.3348 -0.2299
 6596TIP3    H119794   3.951   2.356   0.616 -0.0134  0.1957  0.2723
 6596TIP3    H219795   3.886   2.226   0.658  0.8253 -0.4371 -0.3481
 6597TIP3   OH219796   1.816   4.024   0.491 -0.2655  0.8039  0.1590
 6597TIP3    H119797   1.791   3.946   0.540  2.0215 -0.5641 -0.6890
 6597TIP3    H219798   1.739   4.046   0.439 -0.8337 -1.1479  0.1152
 6598TIP3   OH219799   2.948   3.863   4.423 -0.4960 -0.2404 -0.4812
 6598TIP3    H119800   2.936   3.944   4.373  1.0902  0.3505  0.0377
 6598TIP3    H219801   3.005   3.810   4.368 -1.5787 -1.0511 -0.8444
 6599TIP3   OH219802   6.088   0.091   0.376  0.0467  0.4114 -0.3020
 6599TIP3    H119803   6.095   0.118   0.285  0.9933 -2.6591 -1.2518
 6599TIP3    H219804   6.153   0.144   0.422  0.6879  0.8867 -1.6996
 6600TIP3   OH219805   5.819   2.019   1.088 -0.3707  0.1249  1.3593
 6600TIP3    H119806   5.863   2.083   1.144 -0.6079  0.2308  1.4279
 6600TIP3    H219807   5.857   2.031   1.002  0.7409 -0.7435  1.7147
 6601TIP3   OH219808   5.328   5.959   2.351 -0.4735 -0.7512 -0.4083
 6601TIP3    H119809   5.319   5.876   2.306 -0.5393 -0.0878 -1.6450
 6601TIP3    H219810   5.278   6.021   2.299  1.1623  0.4689 -0.6055
 6602TIP3   OH219811   0.141   5.859   4.930 -0.3258  0.2035  0.0101
 6602TIP3    H119812   0.117   5.951   4.938  0.4206  0.4238 -0.2164
 6602TIP3    H219813   0.197   5.856   4.853 -0.9644 -0.5712 -0.4352
 6603TIP3   OH219814   5.189   1.664   4.511 -0.1561  0.0155  0.1442
 6603TIP3    H119815   5.206   1.576   4.476  0.6518 -0.5172  1.7497
 6603TIP3    H219816   5.107   1.655   4.559  0.0121  0.0740  0.4487
 6604TIP3   OH219817   0.860   3.500   3.575 -0.5660 -0.2115 -0.5004
 6604TIP3    H119818   0.939   3.537   3.616  0.2577 -2.9296  0.5580
 6604TIP3    H219819   0.880   3.498   3.482  0.1023  0.2344 -0.3749
 6605TIP3   OH219820   1.046   3.264   4.368  0.5619 -0.9585  0.2033
 6605TIP3    H119821   1.109   3.205   4.328  2.2868  0.2951  0.9486
 6605TIP3    H219822   0.974   3.269   4.305  2.7900  0.3230 -2.4132
 6606TIP3   OH219823   4.952   5.058   2.305 -0.3193  0.2414 -0.6465
 6606TIP3    H119824   4.887   5.053   2.234 -1.9192  0.7536  0.7067
 6606TIP3    H219825   4.978   4.967   2.320 -2.7126 -0.3357  0.4676
 6607TIP3   OH219826   1.789   1.190   1.231  0.0193  0.4407  0.0446
 6607TIP3    H119827   1.741   1.252   1.176  0.5729 -0.9037 -2.0649
 6607TIP3    H219828   1.817   1.121   1.171  1.2607 -0.7818  1.9171
 6608TIP3   OH219829   6.173   0.141   2.909  0.0127  0.6799  0.0160
 6608TIP3    H119830   6.105   0.152   2.976  1.0689 -0.6207  1.3627
 6608TIP3    H219831   6.246   0.193   2.940  1.1829 -1.3842  0.9067
 6609TIP3   OH219832   0.356   3.680   2.141 -0.1864  0.3469  0.0159
 6609TIP3    H119833   0.366   3.603   2.197 -1.4825  0.8225  0.9484
 6609TIP3    H219834   0.323   3.748   2.200  0.0910  1.3605 -0.9764
 6610TIP3   OH219835   1.896   2.695   4.744  0.0371  0.5404 -0.7333
 6610TIP3    H119836   1.925   2.614   4.702  1.1502  1.2025 -1.2877
 6610TIP3    H219837   1.844   2.739   4.677 -0.0680  0.5606 -0.6379
 6611TIP3   OH219838   2.339   4.802   4.846  0.2433  0.0390  0.1118
 6611TIP3    H119839   2.334   4.896   4.829  2.0664  0.4519  1.5801
 6611TIP3    H219840   2.319   4.793   4.939 -1.2288 -1.2063 -0.2881
 6612TIP3   OH219841   4.008   0.221   2.629  0.5646  0.4675 -0.0098
 6612TIP3    H119842   4.020   0.268   2.546  1.3936 -0.8395 -0.6686
 6612TIP3    H219843   4.097   0.198   2.656  0.3154  1.0002  1.3338
 6613TIP3   OH219844   0.077   1.622   1.416 -0.2042 -0.0160  0.4399
 6613TIP3    H119845   0.039   1.605   1.330  0.7273 -0.6104  0.1264
 6613TIP3    H219846   0.083   1.536   1.457  1.4575 -0.0646  0.1785
 6614TIP3   OH219847   3.757   4.478   3.091 -0.8452  0.3795  0.7731
 6614TIP3    H119848   3.851   4.483   3.107 -0.9779  1.4543  1.3024
 6614TIP3    H219849   3.742   4.389   3.060  0.1698 -0.1549  1.7876
 6615TIP3   OH219850   0.775   1.341   1.296  0.3724  0.5537  0.3442
 6615TIP3    H119851   0.869   1.328   1.284  0.3331  0.6631 -0.1173
 6615TIP3    H219852   0.734   1.288   1.228  0.1870  2.2950 -0.9648
 6616TIP3   OH219853   6.004   5.287   1.703 -0.3296 -0.1445  0.1200
 6616TIP3    H119854   6.064   5.214   1.685 -0.7267 -0.3250 -0.4818
 6616TIP3    H219855   5.954   5.258   1.779  1.1898  0.5276  1.4447
 6617TIP3   OH219856   0.902   2.799   0.206  0.3575  0.0370 -0.3390
 6617TIP3    H119857   0.809   2.786   0.227  0.7638 -0.8150  1.1141
 6617TIP3    H219858   0.905   2.799   0.111 -1.1824  0.4737 -0.4261
 6618TIP3   OH219859   3.482   2.699   0.871  0.2549 -0.2825 -0.2116
 6618TIP3    H119860   3.562   2.650   0.852  0.2377 -0.5187  0.2963
 6618TIP3    H219861   3.503   2.790   0.849  1.0638 -0.1490  1.0085
 6619TIP3   OH219862   3.920   4.778   3.840 -0.3560  0.2330 -0.0013
 6619TIP3    H119863   3.855   4.827   3.790  1.0591  1.8585 -0.3355
 6619TIP3    H219864   3.891   4.687   3.834 -1.5035  0.6661 -1.8070
 6620TIP3   OH219865   3.683   2.079   4.770  0.1394 -0.0345  0.1537
 6620TIP3    H119866   3.635   2.145   4.820  1.3235 -0.1330  1.4442
 6620TIP3    H219867   3.678   2.110   4.679 -1.2548  0.6161  0.4319
 6621TIP3   OH219868   2.722   2.313   4.513  0.2409  0.3597  0.0209
 6621TIP3    H119869   2.727   2.257   4.591 -1.2711 -2.1603 -1.5433
 6621TIP3    H219870   2.802   2.293   4.464  2.0783  3.2371  1.5655
 6622TIP3   OH219871   1.954   4.221   1.008  0.1997  0.1594 -0.0045
 6622TIP3    H119872   2.016   4.198   0.939 -1.8420  0.2822 -1.9894
 6622TIP3    H219873   1.885   4.272   0.964 -0.7329  1.0702  2.3057
 6623TIP3   OH219874   4.708   1.094   4.058 -0.3782  0.2767  0.5088
 6623TIP3    H119875   4.707   1.039   4.137  1.4250 -1.3247 -0.5196
 6623TIP3    H219876   4.748   1.176   4.087 -0.3614 -0.0334  1.4085
 6624TIP3   OH219877   6.037   0.233   2.182  0.5985 -0.0434  0.1159
 6624TIP3    H119878   5.951   0.245   2.221  0.2222 -0.4784 -0.5765
 6624TIP3    H219879   6.021   0.223   2.089  1.4847  0.8646 -0.1646
 6625TIP3   OH219880   5.817   1.965   3.740  0.2721 -0.0631 -0.2199
 6625TIP3    H119881   5.815   1.986   3.647  0.8571 -0.2539 -0.2833
 6625TIP3    H219882   5.910   1.972   3.764 -0.0220  1.3256  0.6560
 6626TIP3   OH219883   5.142   5.675   4.135  0.2052  0.1249  0.5808
 6626TIP3    H119884   5.171   5.587   4.109 -0.6277 -0.6259  2.0205
 6626TIP3    H219885   5.223   5.724   4.147  0.7267 -0.7164  0.6156
 6627TIP3   OH219886   1.077   1.319   3.096  0.1326  0.3134  0.1758
 6627TIP3    H119887   0.994   1.321   3.144 -0.2536 -0.2069 -0.4575
 6627TIP3    H219888   1.122   1.242   3.131  0.9509  1.3288  1.4715
 6628TIP3   OH219889   0.706   1.772   2.663 -0.2590  0.4680 -0.4179
 6628TIP3    H119890   0.662   1.758   2.747 -1.4969  2.5610 -0.6522
 6628TIP3    H219891   0.781   1.712   2.665  0.2921  1.0885  2.5877
 6629TIP3   OH219892   4.729   0.462   1.633  0.3417 -0.2897  0.1322
 6629TIP3    H119893   4.708   0.383   1.583  1.0926 -1.0139  0.9168
 6629TIP3    H219894   4.715   0.534   1.572  0.5793 -1.0956 -0.9085
 6630TIP3   OH219895   0.176   2.717   3.590  0.9537  0.0105 -0.3699
 6630TIP3    H119896   0.217   2.789   3.637 -0.4626 -0.6154  2.0010
 6630TIP3    H219897   0.082   2.730   3.603  0.6579 -2.1524  0.0048
 6631TIP3   OH219898   6.106   2.064   2.685 -0.4527 -0.0780  0.6455
 6631TIP3    H119899   6.122   1.971   2.701 -0.4483  0.2481  2.8150
 6631TIP3    H219900   6.183   2.093   2.638 -1.3222 -1.5388 -1.8721
 6632TIP3   OH219901   0.644   0.436   1.638 -0.3044 -0.3665  0.1467
 6632TIP3    H119902   0.645   0.416   1.545 -1.5529 -0.6738  0.1779
 6632TIP3    H219903   0.724   0.485   1.653  0.2937 -0.9763 -0.9367
 6633TIP3   OH219904   5.615   1.775   0.414 -0.0486  0.3918 -0.0542
 6633TIP3    H119905   5.630   1.835   0.341 -2.6701  0.6826 -0.4425
 6633TIP3    H219906   5.685   1.797   0.476  0.3745  2.3446 -1.1029
 6634TIP3   OH219907   3.716   1.115   3.575 -0.2434  0.4618 -0.2017
 6634TIP3    H119908   3.645   1.051   3.570 -0.3432  0.4168  1.2696
 6634TIP3    H219909   3.723   1.136   3.669  2.4296 -0.3910 -0.1228
 6635TIP3   OH219910   0.930   2.771   1.682 -0.8169 -0.4323  0.1372
 6635TIP3    H119911   0.847   2.820   1.673 -0.3019  0.5328  0.4918
 6635TIP3    H219912   0.976   2.788   1.600  0.0991  1.1324  0.9244
 6636TIP3   OH219913   1.609   1.481   4.520 -0.1544 -0.2540  0.2258
 6636TIP3    H119914   1.546   1.477   4.592  1.0052 -0.3876  1.2709
 6636TIP3    H219915   1.623   1.389   4.496  0.4482 -0.3009  0.7362
 6637TIP3   OH219916   5.822   3.779   0.802 -0.3319 -0.4328 -0.6896
 6637TIP3    H119917   5.749   3.744   0.852  0.2246  0.3134  0.7022
 6637TIP3    H219918   5.867   3.702   0.767 -1.7168 -0.9011 -1.5192
 6638TIP3   OH219919   5.131   3.263   4.022 -0.1989  0.7181 -0.3475
 6638TIP3    H119920   5.141   3.198   3.952 -0.7135  0.2056  0.0536
 6638TIP3    H219921   5.038   3.262   4.043 -0.2068  1.5644 -0.3073
 6639TIP3   OH219922   2.559   1.482   0.049 -0.5079 -0.5555  0.1900
 6639TIP3    H119923   2.476   1.444   0.078 -0.3653 -0.1794  1.1059
 6639TIP3    H219924   2.545   1.577   0.052 -0.5558 -0.4934 -1.1996
 6640TIP3   OH219925   0.491   5.014   4.006  0.1569 -0.4001 -0.0034
 6640TIP3    H119926   0.462   5.101   3.980  1.5936  0.3234  0.6917
 6640TIP3    H219927   0.437   4.992   4.082  0.4477  0.3150  0.4178
   6.32644   5.96463   5.16553   0.00000   0.00000  -2.10882   0.00000  -2.10882  -2.98232
